FOO
138240
    1MOL0     O    1   4.154   6.677   3.884  0.7419 -0.5676  0.5724
    1MOL0     C    2   4.166   6.621   3.993 -0.4172 -0.6296 -0.5850
    1MOL0     O    3   4.113   6.659   4.112 -0.0809  0.6267  0.8784
    1MOL0     C    4   4.044   6.775   4.111 -0.6480 -0.3076 -0.0817
    1MOL0     C    5   3.911   6.790   4.049  0.1428  0.3959  0.0194
    1MOL0     C    6   3.845   6.910   4.063  1.0517 -0.2957 -0.2927
    1MOL0     C    7   3.891   7.020   4.134  0.4623 -0.6314  0.1199
    1MOL0     O    8   3.818   7.137   4.141 -0.4032 -0.4847  0.1877
    1MOL0     C    9   3.768   7.207   4.028  0.1404 -1.0117 -0.1438
    1MOL0     C   10   3.740   7.348   4.089 -0.4376  0.1582 -0.1830
    1MOL0     C   11   3.621   7.340   4.187  0.2055  0.3085  0.2120
    1MOL0     C   12   3.568   7.488   4.217 -0.3852  0.7551 -0.5478
    1MOL0     C   13   3.424   7.486   4.276  0.2750  0.1105  0.5137
    1MOL0     C   14   3.388   7.635   4.309  0.2399  0.1079 -0.1322
    1MOL0     C   15   3.465   7.674   4.431  0.5452  0.1107 -1.3575
    1MOL0     C   16   3.410   7.811   4.481  0.1486  0.1543  0.1033
    1MOL0     N   17   3.481   7.856   4.604 -0.4194  0.0632  0.1099
    1MOL0     C   18   3.489   7.980   4.657  0.2013 -0.6928 -0.2245
    1MOL0     C   19   3.512   7.960   4.788 -0.2757 -0.3828  0.3465
    1MOL0     C   20   3.509   8.058   4.905 -0.3420 -0.2444 -0.9497
    1MOL0     C   21   3.375   8.047   4.964  0.6181 -0.2263 -0.3065
    1MOL0     C   22   3.336   8.183   5.042 -0.2744  0.1029  0.1314
    1MOL0     C   23   3.198   8.168   5.118 -0.5612  0.4019  0.1164
    1MOL0     O   24   3.093   8.100   5.056 -0.3514 -0.5737 -0.4467
    1MOL0     C   25   3.023   8.156   4.954 -0.2188 -0.6833  0.6986
    1MOL0     C   26   3.037   8.289   4.910  0.4526  0.4583  0.1079
    1MOL0     C   27   2.963   8.355   4.813  0.3929  0.0999 -0.4705
    1MOL0     C   28   2.985   8.503   4.789 -0.2937 -0.3523  0.6785
    1MOL0     C   29   2.861   8.277   4.749  0.2813  0.4565  0.0671
    1MOL0     C   30   2.781   8.316   4.635  0.2199  0.2640 -0.1518
    1MOL0     O   31   2.797   8.442   4.585 -0.0753  0.0007 -0.0187
    1MOL0     C   32   2.749   8.470   4.458  0.3277 -0.1992  0.4128
    1MOL0     C   33   2.668   8.588   4.441 -0.3561  0.1901  0.5352
    1MOL0     C   34   2.616   8.631   4.316 -0.8252 -0.2465 -0.6167
    1MOL0     C   35   2.641   8.547   4.208  0.1824  0.2517 -0.1930
    1MOL0     O   36   2.604   8.595   4.089 -0.1045  0.0018  0.0549
    1MOL0     C   37   2.575   8.510   3.973 -0.0463  0.9727  0.7614
    1MOL0     C   38   2.469   8.584   3.891  0.6698  0.3708 -0.1243
    1MOL0     C   39   2.415   8.513   3.769  0.0206  0.6659 -0.3533
    1MOL0     C   40   2.524   8.454   3.683 -0.4660  1.0729 -0.1184
    1MOL0     C   41   2.466   8.389   3.559 -0.6324  0.6079  0.0459
    1MOL0     C   42   2.580   8.320   3.472 -0.0175  0.2625 -1.2218
    1MOL0     C   43   2.529   8.212   3.384 -0.7829 -0.3340  0.3966
    1MOL0     C   44   2.484   8.259   3.245 -0.1942  0.0745  0.4400
    1MOL0    Cl   45   2.431   8.122   3.144  0.4816  0.5357  0.1787
    1MOL0     C   46   2.713   8.425   4.225  0.1385 -0.1076  0.4535
    1MOL0     C   47   2.778   8.392   4.345  0.3929  0.4535 -0.2269
    1MOL0     O   48   2.691   8.242   4.590  0.0751 -0.0402 -0.1137
    1MOL0     C   49   2.851   8.140   4.787  1.0870 -0.2699 -0.3964
    1MOL0     C   50   2.927   8.087   4.892 -0.2215  0.1067 -0.2063
    1MOL0     N   51   3.541   7.833   4.802 -0.2900 -0.0701 -0.4952
    1MOL0     N   52   3.519   7.763   4.697  0.9622 -0.5095  0.4634
    1MOL0     C   53   4.022   7.005   4.188 -0.7251  0.8469 -0.0227
    1MOL0     C   54   4.096   6.890   4.177  0.9054 -0.1900  0.1346
    1MOL0     C   55   4.241   6.495   3.997 -0.8798 -0.6082 -0.0249
    1MOL0     C   56   4.251   6.410   4.102 -0.3127  0.3117 -0.6140
    1MOL0     C   57   4.333   6.294   4.100  0.1863  0.2178 -0.2212
    1MOL0     C   58   4.411   6.267   3.984 -0.0235 -0.4827 -0.6648
    1MOL0     O   59   4.497   6.160   3.997 -0.0382  0.5395  0.2186
    1MOL0     C   60   4.508   6.059   3.900 -0.4196 -0.5589  0.3963
    1MOL0     C   61   4.632   6.082   3.804  1.1636 -0.8591 -1.2328
    1MOL0     C   62   4.760   6.073   3.897 -0.1953 -0.2233 -0.0682
    1MOL0     C   63   4.806   6.215   3.936 -0.0404 -0.0609  0.0034
    1MOL0     C   64   4.942   6.219   4.009  0.5965  0.9316  0.1446
    1MOL0     C   65   5.050   6.213   4.052 -0.0735 -0.1891 -0.0293
    1MOL0     C   66   4.405   6.358   3.876  0.5191  0.1463 -0.2013
    1MOL0     C   67   4.329   6.472   3.884  0.5369  0.8006 -0.6599
    1MOL0     H   68   3.893   6.694   4.001  1.0382 -0.2786  0.9630
    1MOL0     H   69   3.753   6.933   4.011  0.1008 -1.7863  0.6483
    1MOL0     H   70   3.843   7.219   3.950  0.7327 -1.3634  0.3640
    1MOL0     H   71   3.679   7.164   3.981 -2.7174  2.1221  1.8983
    1MOL0     H   72   3.832   7.384   4.137  0.0506 -0.7954 -0.3812
    1MOL0     H   73   3.722   7.408   3.999 -0.1523  0.6189  0.0598
    1MOL0     H   74   3.535   7.279   4.159 -0.1046 -0.3183  2.3257
    1MOL0     H   75   3.662   7.304   4.282  0.7232 -1.0626 -0.5053
    1MOL0     H   76   3.638   7.529   4.291 -0.8225  1.7958 -0.6928
    1MOL0     H   77   3.569   7.548   4.126  0.1259  1.1734 -0.2703
    1MOL0     H   78   3.356   7.449   4.198  1.4216 -0.8377 -0.0621
    1MOL0     H   79   3.419   7.421   4.363  1.3923 -2.9639 -1.5513
    1MOL0     H   80   3.412   7.699   4.223  0.8918 -0.9602 -0.7725
    1MOL0     H   81   3.282   7.657   4.326  0.6432  0.6299  1.9245
    1MOL0     H   82   3.444   7.597   4.506  1.7372  0.4361 -0.6584
    1MOL0     H   83   3.572   7.675   4.408  0.4558  0.3477 -1.7856
    1MOL0     H   84   3.312   7.789   4.526  1.2759 -1.5929  1.8667
    1MOL0     H   85   3.413   7.891   4.407  2.5068 -0.8877 -1.0246
    1MOL0     H   86   3.464   8.072   4.605  1.3604 -0.9084 -1.2005
    1MOL0     H   87   3.600   8.048   4.965  0.2233 -0.9487 -1.9048
    1MOL0     H   88   3.512   8.158   4.860  1.8035  2.4511  4.2415
    1MOL0     H   89   3.372   7.961   5.032 -3.0261  0.2159  0.3047
    1MOL0     H   90   3.300   8.031   4.886 -2.2331 -0.0197  2.1979
    1MOL0     H   91   3.314   8.263   4.971 -3.6887  0.1507  1.0249
    1MOL0     H   92   3.415   8.209   5.113  0.2282 -3.0949  0.9129
    1MOL0     H   93   3.161   8.263   5.156 -2.7819  0.3200 -1.6132
    1MOL0     H   94   3.220   8.100   5.201  0.9577  0.1298 -0.4686
    1MOL0     H   95   3.098   8.364   4.960 -0.6009  1.8767 -0.6357
    1MOL0     H   96   3.062   8.544   4.855 -2.0811  1.9550  1.4775
    1MOL0     H   97   3.016   8.523   4.686 -2.3022  0.7020  0.2198
    1MOL0     H   98   2.891   8.554   4.814 -1.2531 -1.3385 -0.7485
    1MOL0     H   99   2.651   8.638   4.535  2.0382 -1.5317  2.0108
    1MOL0     H  100   2.563   8.725   4.313  1.5112  1.2523  1.1826
    1MOL0     H  101   2.661   8.474   3.916 -1.8814 -3.5906  0.4122
    1MOL0     H  102   2.536   8.419   4.019  1.8221  1.0307  2.6094
    1MOL0     H  103   2.380   8.609   3.950  0.1706 -1.9822  0.2020
    1MOL0     H  104   2.517   8.678   3.862  0.8593  0.0017 -1.0621
    1MOL0     H  105   2.362   8.589   3.710 -0.2134 -0.9210 -2.3036
    1MOL0     H  106   2.343   8.437   3.798  2.2904 -1.1366  0.8898
    1MOL0     H  107   2.594   8.531   3.650  0.8161 -0.4876 -1.2336
    1MOL0     H  108   2.587   8.380   3.734  1.5838  2.5921 -0.2889
    1MOL0     H  109   2.417   8.466   3.498 -0.3421  0.2882 -0.5910
    1MOL0     H  110   2.394   8.312   3.589  0.8525 -2.6212 -3.9084
    1MOL0     H  111   2.640   8.391   3.414 -0.1444  0.8202 -0.6873
    1MOL0     H  112   2.648   8.277   3.547 -0.5776  1.5586  0.0812
    1MOL0     H  113   2.437   8.171   3.427 -0.9098 -1.1171 -0.5857
    1MOL0     H  114   2.607   8.140   3.360  1.8746  2.6457 -0.6691
    1MOL0     H  115   2.559   8.312   3.186  0.2013  1.0762  1.7819
    1MOL0     H  116   2.410   8.339   3.253  0.7513  0.8520  1.7722
    1MOL0     H  117   2.714   8.368   4.132  2.2126 -1.4451  1.2184
    1MOL0     H  118   2.844   8.306   4.340  1.1910  0.9667  0.9313
    1MOL0     H  119   2.784   8.069   4.739 -0.9492  1.4697 -0.2429
    1MOL0     H  120   2.916   7.983   4.921  3.2964 -1.0299 -2.3447
    1MOL0     H  121   4.076   7.091   4.227  1.1209 -0.7003  1.0014
    1MOL0     H  122   4.197   6.880   4.216  1.1574 -1.2051 -0.7272
    1MOL0     H  123   4.190   6.418   4.192  0.4378  0.7490 -0.1310
    1MOL0     H  124   4.324   6.228   4.186 -1.0010 -1.3224 -1.4779
    1MOL0     H  125   4.517   5.965   3.955  0.3807 -2.1250 -2.2476
    1MOL0     H  126   4.413   6.054   3.847  0.4013 -0.8871 -1.0911
    1MOL0     H  127   4.628   6.176   3.748 -1.0880 -1.4870 -2.2340
    1MOL0     H  128   4.620   5.993   3.743 -0.0621 -0.6382 -1.3299
    1MOL0     H  129   4.841   6.016   3.852  2.2310  0.0320  3.5735
    1MOL0     H  130   4.740   6.023   3.992  1.5303 -2.0148 -0.5974
    1MOL0     H  131   4.716   6.251   3.987 -0.0222 -1.2363  0.9085
    1MOL0     H  132   4.820   6.277   3.847 -1.6141  1.1019  0.5090
    1MOL0     H  133   5.150   6.204   4.087  1.5979  2.6393 -3.4224
    1MOL0     H  134   4.455   6.341   3.782 -0.4646 -0.1767 -0.6832
    1MOL0     H  135   4.338   6.550   3.809 -1.5166  2.0458  0.2797
    2MOL0     O  136   6.520   8.387   8.597  0.2292 -0.6140  0.1892
    2MOL0     C  137   6.467   8.493   8.614 -0.4460  0.1047  0.0427
    2MOL0     O  138   6.365   8.543   8.549  0.5636 -0.1918 -0.3527
    2MOL0     C  139   6.286   8.467   8.474 -0.1170  0.6957  0.0182
    2MOL0     C  140   6.230   8.524   8.362 -0.4700 -0.2840 -0.6946
    2MOL0     C  141   6.132   8.468   8.284 -0.0357  0.0647  0.3998
    2MOL0     C  142   6.090   8.340   8.320  0.0860 -0.3540 -0.4887
    2MOL0     O  143   5.985   8.294   8.247 -0.4993  0.3395  0.5543
    2MOL0     C  144   5.888   8.195   8.297  0.3010  0.5674 -0.7966
    2MOL0     C  145   5.787   8.154   8.191 -0.0708 -0.3106 -0.8039
    2MOL0     C  146   5.690   8.253   8.134 -0.3681 -0.3469  0.0397
    2MOL0     C  147   5.582   8.176   8.061 -0.3508 -0.1181 -0.1481
    2MOL0     C  148   5.455   8.258   8.033 -0.3842 -0.0877 -0.4930
    2MOL0     C  149   5.480   8.364   7.918  0.5883  0.0812 -0.3130
    2MOL0     C  150   5.402   8.340   7.792  0.5323 -0.2847  0.7583
    2MOL0     C  151   5.428   8.466   7.695 -0.3864 -0.2055 -0.5960
    2MOL0     N  152   5.375   8.459   7.557  0.2826  0.9214  1.1649
    2MOL0     C  153   5.277   8.370   7.509 -0.3115 -0.6040 -0.3083
    2MOL0     C  154   5.258   8.397   7.379 -1.1356 -0.1880 -0.2542
    2MOL0     C  155   5.164   8.337   7.280 -0.4232 -0.4400 -1.2511
    2MOL0     C  156   5.072   8.439   7.209 -0.9959  0.0075  0.5192
    2MOL0     C  157   4.931   8.383   7.167  0.7869  1.1243  1.1116
    2MOL0     C  158   4.920   8.254   7.073 -0.6792 -0.7521  0.2955
    2MOL0     O  159   4.782   8.231   7.083  1.3343 -0.1110  0.7884
    2MOL0     C  160   4.706   8.147   7.008  0.2093 -0.2625 -0.3648
    2MOL0     C  161   4.770   8.065   6.914 -0.6512 -0.0720 -0.6038
    2MOL0     C  162   4.695   7.997   6.814 -0.0411  0.8255 -1.1042
    2MOL0     C  163   4.776   7.929   6.705  0.5871 -1.2316 -0.2887
    2MOL0     C  164   4.548   8.000   6.821 -1.0882  0.6340 -0.6717
    2MOL0     C  165   4.459   7.934   6.725 -0.7509  0.2122  0.7067
    2MOL0     O  166   4.330   7.954   6.734 -0.0823 -0.2053  0.0955
    2MOL0     C  167   4.244   7.861   6.666 -0.2090 -0.3721 -0.3685
    2MOL0     C  168   4.182   7.900   6.548  0.6109  0.3408 -0.3460
    2MOL0     C  169   4.081   7.816   6.496  0.1268 -0.1196 -0.6704
    2MOL0     C  170   4.051   7.697   6.560  0.1929 -1.1578 -0.5122
    2MOL0     O  171   3.949   7.624   6.505 -0.4239 -0.1251  1.4040
    2MOL0     C  172   3.822   7.597   6.563  0.3772 -0.5469 -0.3288
    2MOL0     C  173   3.752   7.485   6.487 -0.1370  0.5584  0.5952
    2MOL0     C  174   3.824   7.350   6.492 -0.1523 -0.4165  0.0922
    2MOL0     C  175   3.858   7.291   6.630  0.1469  0.9177 -1.0975
    2MOL0     C  176   3.735   7.278   6.711  0.4122  0.0847 -0.5947
    2MOL0     C  177   3.641   7.168   6.645  0.4447 -0.1142  0.4476
    2MOL0     C  178   3.544   7.135   6.762  0.6306 -0.8881  0.8591
    2MOL0     C  179   3.456   7.015   6.736 -0.3753  0.0985  0.4582
    2MOL0    Cl  180   3.376   6.973   6.888  0.3694 -0.3341  0.3970
    2MOL0     C  181   4.113   7.655   6.682  0.3946 -0.3453  0.0869
    2MOL0     C  182   4.205   7.740   6.731  0.4942  0.2416 -1.0730
    2MOL0     O  183   4.509   7.846   6.664 -0.0168 -0.2285 -0.1191
    2MOL0     C  184   4.495   8.074   6.935 -0.4037  0.8563  1.0134
    2MOL0     C  185   4.567   8.145   7.026 -0.3791  0.7376  0.0181
    2MOL0     N  186   5.321   8.515   7.351 -0.3645  1.1166  0.0510
    2MOL0     N  187   5.390   8.561   7.459  0.1924  0.1672  0.3327
    2MOL0     C  188   6.146   8.267   8.430  0.1099  0.7711 -0.0516
    2MOL0     C  189   6.242   8.331   8.506 -1.1571  0.0461 -0.4426
    2MOL0     C  190   6.548   8.585   8.699  0.3445  0.0103 -0.6109
    2MOL0     C  191   6.482   8.702   8.756  0.2502  0.2876  0.7610
    2MOL0     C  192   6.547   8.781   8.845 -0.4705 -0.3631 -0.4475
    2MOL0     C  193   6.682   8.752   8.887  0.4998  0.0745  0.4716
    2MOL0     O  194   6.741   8.822   8.986 -0.3668  0.4411  0.3926
    2MOL0     C  195   6.692   8.953   9.021  0.2276 -0.6880 -0.2214
    2MOL0     C  196   6.789   9.025   9.121  0.6453  0.8014 -0.1330
    2MOL0     C  197   6.766   8.985   9.268 -0.0697  0.2349  0.3184
    2MOL0     C  198   6.687   9.092   9.336 -0.6749 -0.1201 -0.4703
    2MOL0     C  199   6.698   9.088   9.485  0.0340  0.2138 -0.5815
    2MOL0     C  200   6.694   9.086   9.608 -1.3451 -0.6679  0.0938
    2MOL0     C  201   6.741   8.632   8.847 -0.2502  0.3977  0.0672
    2MOL0     C  202   6.682   8.550   8.751  0.5467 -0.5127 -0.0596
    2MOL0     H  203   6.250   8.625   8.330 -1.2329  0.1621  0.1797
    2MOL0     H  204   6.091   8.514   8.194  0.9181 -0.7110 -0.4480
    2MOL0     H  205   5.936   8.101   8.327  0.0593 -0.1167 -2.4500
    2MOL0     H  206   5.835   8.240   8.382 -1.4898 -0.3711 -1.3700
    2MOL0     H  207   5.835   8.112   8.102 -1.6477  0.6576 -2.1655
    2MOL0     H  208   5.730   8.068   8.228 -0.5310 -0.7293 -2.3897
    2MOL0     H  209   5.645   8.306   8.219 -0.0593 -2.4782  1.6078
    2MOL0     H  210   5.743   8.329   8.076 -2.0454  2.2249  1.6550
    2MOL0     H  211   5.619   8.121   7.974  1.1276 -2.4140  1.8098
    2MOL0     H  212   5.546   8.098   8.128 -2.4345  0.9430  0.0435
    2MOL0     H  213   5.386   8.191   7.982 -0.1315  1.0215 -2.3828
    2MOL0     H  214   5.414   8.298   8.126  0.2182 -2.1717  0.7364
    2MOL0     H  215   5.448   8.455   7.969  2.0726  0.2123  0.4285
    2MOL0     H  216   5.588   8.368   7.901  1.4193 -2.5377  2.9936
    2MOL0     H  217   5.423   8.242   7.748 -3.3199 -0.3281 -1.4834
    2MOL0     H  218   5.294   8.332   7.807 -0.2529 -2.5751 -4.0192
    2MOL0     H  219   5.533   8.494   7.681 -1.2438  2.2260 -3.2115
    2MOL0     H  220   5.390   8.557   7.742 -0.5616  0.3084 -1.7045
    2MOL0     H  221   5.231   8.294   7.572  2.6035 -1.0495  1.4497
    2MOL0     H  222   5.221   8.270   7.215 -0.2649 -0.2088 -1.3505
    2MOL0     H  223   5.101   8.265   7.334 -1.8356  0.9317 -0.9947
    2MOL0     H  224   5.125   8.478   7.122 -1.2779  0.6378  0.6226
    2MOL0     H  225   5.071   8.527   7.274  0.6232  1.5830 -1.4631
    2MOL0     H  226   4.884   8.462   7.107  0.8335  0.4536  0.1759
    2MOL0     H  227   4.863   8.372   7.251 -0.0611  1.6240  0.5047
    2MOL0     H  228   4.983   8.171   7.107  0.4402 -0.1374 -0.2187
    2MOL0     H  229   4.942   8.280   6.969  1.7292 -0.8572  0.7300
    2MOL0     H  230   4.878   8.051   6.917 -0.4023  1.1206 -2.7138
    2MOL0     H  231   4.875   7.974   6.716 -0.2030  0.4918  0.1121
    2MOL0     H  232   4.772   7.821   6.721  1.5461 -1.0794  1.1945
    2MOL0     H  233   4.724   7.960   6.614 -3.7531  1.3149  2.6986
    2MOL0     H  234   4.202   7.995   6.498 -1.3035  1.3460  0.6746
    2MOL0     H  235   4.025   7.840   6.407  2.1690  2.3599 -1.4208
    2MOL0     H  236   3.834   7.570   6.668  2.1215  0.9208 -0.1069
    2MOL0     H  237   3.760   7.686   6.574  2.4601  0.8743  0.5101
    2MOL0     H  238   3.651   7.473   6.527  0.0466  0.8433  1.1579
    2MOL0     H  239   3.750   7.517   6.382  0.7171 -1.8654 -0.2190
    2MOL0     H  240   3.922   7.361   6.443  0.0467  2.5179  0.9660
    2MOL0     H  241   3.770   7.285   6.423 -5.1260  2.7538  0.5442
    2MOL0     H  242   3.902   7.194   6.602  1.1166  2.6667 -6.8714
    2MOL0     H  243   3.929   7.344   6.694 -0.6300 -1.3996  1.9645
    2MOL0     H  244   3.682   7.373   6.718 -1.1989 -0.8030 -0.2002
    2MOL0     H  245   3.759   7.256   6.815 -1.4443  1.2349  0.1385
    2MOL0     H  246   3.580   7.206   6.562  0.7458 -2.5941 -0.9954
    2MOL0     H  247   3.685   7.077   6.606 -1.3688 -0.7256 -0.2891
    2MOL0     H  248   3.483   7.220   6.796  1.7665 -0.0676  0.9063
    2MOL0     H  249   3.604   7.110   6.850  2.7299 -0.1764 -0.3069
    2MOL0     H  250   3.520   6.932   6.704 -2.5671 -1.1767 -0.8788
    2MOL0     H  251   3.394   7.028   6.646  1.0372  1.4180 -0.3801
    2MOL0     H  252   4.094   7.561   6.733 -0.1784  0.4662  1.4239
    2MOL0     H  253   4.271   7.708   6.811 -1.0800 -1.6281 -0.4718
    2MOL0     H  254   4.387   8.079   6.948 -0.7019 -1.6332  0.1397
    2MOL0     H  255   4.514   8.198   7.105 -1.0799 -0.7486  0.5822
    2MOL0     H  256   6.130   8.160   8.442 -1.0131  0.3911 -3.6658
    2MOL0     H  257   6.289   8.285   8.592  2.1267  2.1565 -0.9440
    2MOL0     H  258   6.385   8.744   8.731  0.5887  2.7829  3.1755
    2MOL0     H  259   6.501   8.865   8.895  2.4005 -0.6635  3.0825
    2MOL0     H  260   6.706   9.013   8.930  1.6293 -0.2859  0.2316
    2MOL0     H  261   6.589   8.955   9.055 -0.2807 -2.1686 -1.5454
    2MOL0     H  262   6.781   9.133   9.110  1.5581  0.8163 -0.7151
    2MOL0     H  263   6.893   9.002   9.096  1.4355  2.2119  1.6146
    2MOL0     H  264   6.862   8.982   9.320  0.0449  2.4276  0.3279
    2MOL0     H  265   6.712   8.890   9.274  0.5507 -0.0612  1.6090
    2MOL0     H  266   6.583   9.074   9.309 -0.4706 -0.9955 -0.7146
    2MOL0     H  267   6.722   9.191   9.305 -1.5623  2.0708  4.4789
    2MOL0     H  268   6.694   9.081   9.715  3.5420 -0.2022  0.3291
    2MOL0     H  269   6.835   8.612   8.899  1.6765  2.2621 -2.4304
    2MOL0     H  270   6.732   8.455   8.732  0.5078 -0.8726  1.5298
    3MOL0     O  271   4.412   9.183  10.800 -0.9518  0.9616  0.6317
    3MOL0     C  272   4.353   9.114  10.725  0.0653  0.8829  0.1400
    3MOL0     O  273   4.356   8.977  10.726 -0.3581 -0.8190 -0.2420
    3MOL0     C  274   4.423   8.902  10.816  0.1056 -1.0265 -0.2757
    3MOL0     C  275   4.447   8.940  10.947 -0.5378 -0.9881 -0.3575
    3MOL0     C  276   4.503   8.847  11.041  0.2767 -0.7681 -0.8279
    3MOL0     C  277   4.515   8.710  11.005 -0.6088 -1.1923  0.5766
    3MOL0     O  278   4.563   8.609  11.081  0.2635 -0.4374 -0.6476
    3MOL0     C  279   4.587   8.638  11.222 -0.2303 -0.1575  0.1212
    3MOL0     C  280   4.643   8.511  11.287  0.1527  0.1935 -1.1891
    3MOL0     C  281   4.610   8.497  11.440  0.0596  1.3327 -0.4502
    3MOL0     C  282   4.647   8.349  11.479  0.3774 -0.3010  0.7602
    3MOL0     C  283   4.635   8.325  11.629  0.4904  0.8895 -0.4275
    3MOL0     C  284   4.709   8.186  11.670  0.1781 -0.6326  0.0641
    3MOL0     C  285   4.656   8.139  11.804 -0.0225 -0.0597 -0.3042
    3MOL0     C  286   4.649   8.244  11.909  0.7089  0.0680 -0.7306
    3MOL0     N  287   4.684   8.189  12.038 -0.1793  0.2303  0.5408
    3MOL0     C  288   4.814   8.165  12.076  0.4418  0.2097  0.5023
    3MOL0     C  289   4.801   8.101  12.188  0.1834  0.0902 -1.2526
    3MOL0     C  290   4.925   8.068  12.281  0.6953 -0.7457 -0.0463
    3MOL0     C  291   4.958   7.921  12.314  0.2368 -0.4089 -0.3400
    3MOL0     C  292   5.081   7.907  12.407 -0.6675  0.4100 -0.2079
    3MOL0     C  293   5.125   7.762  12.426 -1.6385  1.2462  0.6011
    3MOL0     O  294   5.183   7.716  12.305 -0.7186  0.2681  0.4239
    3MOL0     C  295   5.269   7.609  12.309  0.1932  0.7221  0.9054
    3MOL0     C  296   5.292   7.529  12.419 -0.1457  0.0969 -0.1165
    3MOL0     C  297   5.362   7.411  12.403  0.1703  0.5120 -0.0573
    3MOL0     C  298   5.368   7.321  12.522 -0.0311 -0.0602 -1.2347
    3MOL0     C  299   5.433   7.377  12.283  0.0015 -0.3714  0.0479
    3MOL0     C  300   5.495   7.246  12.256  0.8247 -0.1189 -0.0425
    3MOL0     O  301   5.433   7.132  12.276 -0.1716  0.1307  0.4179
    3MOL0     C  302   5.504   7.017  12.238  0.0406 -0.5197  1.0804
    3MOL0     C  303   5.564   6.951  12.341  0.0849  0.6642  0.2941
    3MOL0     C  304   5.642   6.836  12.315 -1.1145 -0.7865 -0.8468
    3MOL0     C  305   5.666   6.802  12.186 -0.1986  0.1341 -0.1350
    3MOL0     O  306   5.728   6.679  12.179  0.2167 -0.1895  0.7227
    3MOL0     C  307   5.799   6.662  12.048  0.4591  0.4548  0.3734
    3MOL0     C  308   5.904   6.550  12.087 -0.6790 -0.3509  0.0915
    3MOL0     C  309   6.019   6.561  11.985 -0.6527  1.3752 -0.5755
    3MOL0     C  310   6.127   6.452  11.993 -0.7355 -0.1051  0.7884
    3MOL0     C  311   6.210   6.454  12.112 -0.7651  0.5098  0.3491
    3MOL0     C  312   6.326   6.564  12.093 -1.2677 -0.2825 -0.3400
    3MOL0     C  313   6.410   6.585  12.215  0.9059 -0.0364  0.0437
    3MOL0     C  314   6.522   6.483  12.230  0.1698  0.3909  1.1505
    3MOL0    Cl  315   6.577   6.515  12.395 -0.0513 -0.1677  0.4752
    3MOL0     C  316   5.608   6.879  12.077 -0.8382 -0.4760 -0.2439
    3MOL0     C  317   5.523   6.983  12.104  0.4317  0.3916  0.5353
    3MOL0     O  318   5.614   7.259  12.218  0.0308 -0.1706 -0.2839
    3MOL0     C  319   5.430   7.480  12.182 -0.1100 -1.0415 -0.0025
    3MOL0     C  320   5.337   7.582  12.189 -0.8720 -0.6939 -1.0942
    3MOL0     N  321   4.671   8.078  12.226  0.8752  0.3344  0.2819
    3MOL0     N  322   4.598   8.126  12.125 -1.3734  0.1470  0.1199
    3MOL0     C  323   4.492   8.672  10.873  0.1228  0.3339  0.8136
    3MOL0     C  324   4.452   8.772  10.782 -1.1030  0.1050 -0.3446
    3MOL0     C  325   4.262   9.177  10.626 -0.4128 -0.3954 -0.1244
    3MOL0     C  326   4.196   9.104  10.525  0.4967  0.1651 -0.6026
    3MOL0     C  327   4.122   9.168  10.427 -0.7070  0.0103  0.0347
    3MOL0     C  328   4.104   9.308  10.436  0.2809  0.4842 -0.0997
    3MOL0     O  329   4.009   9.378  10.370 -0.0859 -0.9218  0.0876
    3MOL0     C  330   3.955   9.315  10.257  0.2093 -0.2802  0.7036
    3MOL0     C  331   3.820   9.243  10.276  0.5675 -0.3996 -0.3147
    3MOL0     C  332   3.710   9.343  10.284 -0.1234 -0.2443 -0.8515
    3MOL0     C  333   3.571   9.286  10.274 -0.1714 -0.1367 -0.3766
    3MOL0     C  334   3.541   9.211  10.154 -1.6343  0.7963 -0.3117
    3MOL0     C  335   3.549   9.143  10.055 -0.2625  0.0995  0.5608
    3MOL0     C  336   4.159   9.381  10.544  0.0672  0.1910 -0.4108
    3MOL0     C  337   4.240   9.314  10.633 -0.6772  0.9674  0.9490
    3MOL0     H  338   4.401   9.027  10.993  0.4493 -0.7786  0.2493
    3MOL0     H  339   4.517   8.887  11.141 -2.8144  3.1724 -1.7072
    3MOL0     H  340   4.641   8.731  11.242 -3.4284  2.0306 -0.6495
    3MOL0     H  341   4.493   8.671  11.268  1.2568  2.1441  1.7684
    3MOL0     H  342   4.605   8.428  11.227  0.9003 -1.1816  0.1870
    3MOL0     H  343   4.751   8.526  11.281  0.5227 -0.8667  1.4669
    3MOL0     H  344   4.687   8.560  11.485  0.2013  1.7149 -1.2187
    3MOL0     H  345   4.508   8.528  11.466 -0.6239 -0.5961 -0.6072
    3MOL0     H  346   4.583   8.285  11.418  0.2360  2.1510 -1.8781
    3MOL0     H  347   4.750   8.330  11.449  1.3617  1.9839  2.3845
    3MOL0     H  348   4.671   8.407  11.692  0.0823  2.4283 -2.1207
    3MOL0     H  349   4.527   8.310  11.641  0.8699 -3.1621 -0.4867
    3MOL0     H  350   4.672   8.112  11.598 -5.1298  0.4711  1.2168
    3MOL0     H  351   4.817   8.203  11.682 -0.2567  1.6245  1.2884
    3MOL0     H  352   4.561   8.086  11.796  0.1852 -0.5512  0.3914
    3MOL0     H  353   4.716   8.057  11.845 -1.7275 -0.5355  1.3872
    3MOL0     H  354   4.548   8.279  11.929  1.3809  0.2886  2.8908
    3MOL0     H  355   4.713   8.331  11.892 -1.1330  1.6810  0.2067
    3MOL0     H  356   4.903   8.186  12.018 -1.0767  0.6443 -1.8180
    3MOL0     H  357   5.014   8.097  12.224 -0.8432 -1.7505 -3.1347
    3MOL0     H  358   4.905   8.120  12.375 -2.1087 -0.9657 -0.4361
    3MOL0     H  359   4.990   7.885  12.216 -2.9864  0.2446 -1.7706
    3MOL0     H  360   4.880   7.851  12.345  0.8397 -1.0725 -0.3118
    3MOL0     H  361   5.060   7.943  12.509  2.9406  1.2366  0.3759
    3MOL0     H  362   5.177   7.950  12.378  1.0863 -3.9291 -1.5662
    3MOL0     H  363   5.046   7.692  12.452  0.6360 -2.9501 -2.4979
    3MOL0     H  364   5.203   7.768  12.502 -0.1534 -0.2283 -0.7166
    3MOL0     H  365   5.236   7.541  12.512 -0.2824  0.2658 -0.2208
    3MOL0     H  366   5.467   7.298  12.564 -1.4989 -1.6795  1.6381
    3MOL0     H  367   5.306   7.366  12.600  1.5027  1.3739 -0.7705
    3MOL0     H  368   5.320   7.225  12.504 -2.3943  1.0513 -1.1844
    3MOL0     H  369   5.546   6.969  12.446  3.0146  1.9371  0.6608
    3MOL0     H  370   5.683   6.774  12.394 -3.3203 -1.6093 -0.2628
    3MOL0     H  371   5.733   6.629  11.967 -0.6235 -0.1776  1.4628
    3MOL0     H  372   5.854   6.745  12.005  0.3278 -0.3495 -1.4401
    3MOL0     H  373   5.954   6.570  12.182 -1.6601  1.9431  0.2107
    3MOL0     H  374   5.862   6.450  12.097  1.3536 -1.2337  0.2885
    3MOL0     H  375   6.075   6.654  11.992  1.2636  0.3169 -1.2628
    3MOL0     H  376   5.975   6.553  11.885 -1.5396 -0.4200 -0.0926
    3MOL0     H  377   6.072   6.358  11.984 -4.0747  1.9185 -3.1060
    3MOL0     H  378   6.192   6.450  11.904 -0.1033 -0.8820  1.2533
    3MOL0     H  379   6.258   6.355  12.115  1.4130  1.3323 -2.6018
    3MOL0     H  380   6.151   6.468  12.203 -2.6565 -0.5962 -0.6611
    3MOL0     H  381   6.372   6.536  11.998  0.4760 -2.6597  1.1214
    3MOL0     H  382   6.278   6.658  12.064 -1.6709  0.3677  2.2045
    3MOL0     H  383   6.339   6.570  12.297  0.2851 -1.7301 -0.7550
    3MOL0     H  384   6.448   6.688  12.220  0.6629  0.0486  0.1233
    3MOL0     H  385   6.597   6.487  12.150  0.3772 -2.2442  1.1270
    3MOL0     H  386   6.472   6.388  12.207 -2.1805  1.9967 -0.8609
    3MOL0     H  387   5.629   6.855  11.973  0.7795 -1.6684  0.3337
    3MOL0     H  388   5.464   7.019  12.020 -1.9343 -5.0157 -0.5859
    3MOL0     H  389   5.479   7.492  12.086 -1.0716  4.8009 -0.1253
    3MOL0     H  390   5.320   7.650  12.106  0.9173  1.7543  0.3951
    3MOL0     H  391   4.514   8.572  10.838  1.1497  1.3361 -1.5925
    3MOL0     H  392   4.437   8.734  10.681 -2.5893 -1.2263  0.3252
    3MOL0     H  393   4.212   8.999  10.506 -1.4757  0.2702 -3.4630
    3MOL0     H  394   4.072   9.112  10.349 -3.2692  0.8680  0.9504
    3MOL0     H  395   3.937   9.392  10.181 -1.1151 -1.4878 -0.2545
    3MOL0     H  396   4.031   9.247  10.218  2.4723  2.5348 -0.2140
    3MOL0     H  397   3.825   9.188  10.371 -0.6360  2.3560  1.4672
    3MOL0     H  398   3.799   9.180  10.189  1.4972 -1.0011 -0.1235
    3MOL0     H  399   3.732   9.422  10.211  2.3845  1.0836  1.1812
    3MOL0     H  400   3.726   9.381  10.385 -0.8433 -1.3284 -0.3164
    3MOL0     H  401   3.493   9.363  10.277  0.0161  0.0312  0.5777
    3MOL0     H  402   3.547   9.223  10.360 -2.6313 -1.9988 -2.2794
    3MOL0     H  403   3.564   9.094   9.961  4.3964 -0.5604  1.4094
    3MOL0     H  404   4.128   9.485  10.546 -0.4626  0.1094 -2.2792
    3MOL0     H  405   4.275   9.371  10.719 -0.4077 -0.5365  1.8895
    4MOL0     O  406   4.419   2.014   0.933  0.4933  0.8881 -0.2441
    4MOL0     C  407   4.521   1.950   0.965  0.2266 -0.7300 -0.2107
    4MOL0     O  408   4.537   1.880   1.079  0.2250 -1.2062 -0.0595
    4MOL0     C  409   4.435   1.861   1.176  0.0522  0.5395 -0.0386
    4MOL0     C  410   4.296   1.844   1.157 -0.4620 -0.4871 -0.9744
    4MOL0     C  411   4.216   1.812   1.266  0.1572 -0.3301  0.7283
    4MOL0     C  412   4.266   1.788   1.389  0.3943 -0.4158 -0.2394
    4MOL0     O  413   4.180   1.756   1.489  0.3987 -0.1218 -0.0400
    4MOL0     C  414   4.142   1.863   1.573 -0.2174  0.1392  0.9953
    4MOL0     C  415   4.041   1.828   1.688  0.3270 -0.8199  0.4897
    4MOL0     C  416   4.075   1.907   1.820 -0.9908  0.6530  0.1444
    4MOL0     C  417   3.981   1.892   1.943 -0.2320  0.0455 -0.7585
    4MOL0     C  418   4.016   1.999   2.054 -0.2611  0.3730  0.2928
    4MOL0     C  419   4.018   2.148   2.004  0.5405 -0.3851  1.0294
    4MOL0     C  420   3.895   2.201   1.933  0.2715  0.1665  0.8384
    4MOL0     C  421   3.906   2.348   1.915  0.5780  0.2800  0.0033
    4MOL0     N  422   3.775   2.404   1.894 -1.2618 -0.4423 -0.6008
    4MOL0     C  423   3.744   2.532   1.854  0.1686  0.1638  0.1813
    4MOL0     C  424   3.609   2.553   1.861 -0.6752 -0.4132 -0.0671
    4MOL0     C  425   3.555   2.681   1.806  0.3835  0.2578 -1.4192
    4MOL0     C  426   3.529   2.693   1.660 -0.3484 -0.4196  0.5822
    4MOL0     C  427   3.664   2.708   1.569  0.6485  0.6496  0.4180
    4MOL0     C  428   3.621   2.698   1.418 -0.0081  0.7011 -1.2497
    4MOL0     O  429   3.547   2.820   1.379  0.0431  0.5732 -0.5332
    4MOL0     C  430   3.461   2.821   1.276 -0.1117 -0.1816  0.1247
    4MOL0     C  431   3.453   2.733   1.171  0.0760 -0.1852 -0.3690
    4MOL0     C  432   3.357   2.748   1.069 -0.2658 -1.0926 -0.5366
    4MOL0     C  433   3.382   2.653   0.958  0.5034  0.2436 -0.0151
    4MOL0     C  434   3.278   2.866   1.059  0.5470  0.4901 -0.1412
    4MOL0     C  435   3.172   2.890   0.956 -0.0808  0.9736 -0.4527
    4MOL0     O  436   3.125   3.019   0.946 -0.3397  0.3760 -0.2275
    4MOL0     C  437   3.006   3.060   0.889 -1.2590 -0.4607  0.6745
    4MOL0     C  438   2.895   2.980   0.866 -0.3833 -0.1834 -0.3723
    4MOL0     C  439   2.782   3.020   0.794  0.0205  0.8436  0.2947
    4MOL0     C  440   2.786   3.142   0.727  0.4656  0.3187 -0.2940
    4MOL0     O  441   2.684   3.201   0.661 -0.5120 -0.0336 -0.7126
    4MOL0     C  442   2.599   3.105   0.592  0.0047 -0.3569 -0.1664
    4MOL0     C  443   2.520   3.171   0.479  0.3881 -0.5676 -0.2094
    4MOL0     C  444   2.408   3.251   0.536 -0.1951 -0.1027  0.8095
    4MOL0     C  445   2.330   3.318   0.409  0.0466  0.6622 -0.5409
    4MOL0     C  446   2.261   3.453   0.454  0.3921  0.3030  0.0760
    4MOL0     C  447   2.146   3.429   0.552 -0.3705  0.4052  0.5382
    4MOL0     C  448   2.083   3.554   0.606  0.7204 -0.4793 -0.0587
    4MOL0     C  449   2.071   3.671   0.506  0.1160  0.6974 -0.2756
    4MOL0    Cl  450   1.945   3.780   0.579  0.1460 -0.4422  0.0006
    4MOL0     C  451   2.897   3.222   0.751  0.1850 -0.3028 -0.0512
    4MOL0     C  452   3.002   3.186   0.831  0.6547 -0.6107  0.7192
    4MOL0     O  453   3.148   2.802   0.873 -0.0843 -0.1239 -0.1048
    4MOL0     C  454   3.287   2.951   1.166 -0.5494 -0.7453  0.2112
    4MOL0     C  455   3.372   2.935   1.277  0.8754 -0.3531 -0.2477
    4MOL0     N  456   3.560   2.444   1.924 -0.1268 -0.7588  0.4042
    4MOL0     N  457   3.654   2.351   1.921 -0.2121  1.3243  0.3048
    4MOL0     C  458   4.409   1.797   1.413 -0.4490 -0.0393  0.7499
    4MOL0     C  459   4.488   1.828   1.305  0.2159  0.0612  0.2064
    4MOL0     C  460   4.644   1.972   0.882  0.0802  0.1637  0.3902
    4MOL0     C  461   4.743   1.875   0.882  0.3607 -0.0669 -0.5111
    4MOL0     C  462   4.853   1.890   0.797  0.5651  0.5918 -0.1632
    4MOL0     C  463   4.870   1.999   0.711  1.1317 -0.0606 -0.1878
    4MOL0     O  464   4.982   2.016   0.630  0.2129 -0.9406 -0.0339
    4MOL0     C  465   5.104   1.965   0.688 -0.3360 -0.2015 -0.1442
    4MOL0     C  466   5.212   2.018   0.600  0.2659 -0.6166  0.3153
    4MOL0     C  467   5.242   1.916   0.488 -0.2154  0.1410  0.8862
    4MOL0     C  468   5.160   1.925   0.367  0.2171  0.6893 -0.0097
    4MOL0     C  469   5.174   1.807   0.280 -0.2005 -1.1973  0.6982
    4MOL0     C  470   5.199   1.735   0.189  0.4773 -1.2345  0.0549
    4MOL0     C  471   4.765   2.089   0.709 -0.2659 -0.2242  0.1750
    4MOL0     C  472   4.650   2.081   0.788 -0.6224  1.0459 -0.3978
    4MOL0     H  473   4.257   1.851   1.056 -1.4816 -1.2483 -0.6560
    4MOL0     H  474   4.114   1.778   1.247 -0.1330 -2.0240  4.3180
    4MOL0     H  475   4.219   1.929   1.613  0.5511  0.6791 -1.2647
    4MOL0     H  476   4.085   1.930   1.508 -0.3425 -1.4787 -0.6307
    4MOL0     H  477   3.942   1.854   1.650  1.5178  2.3531 -0.7877
    4MOL0     H  478   4.027   1.721   1.705 -0.2030 -0.9250 -0.5483
    4MOL0     H  479   4.172   1.865   1.847 -1.0041 -0.6726 -1.6619
    4MOL0     H  480   4.077   2.009   1.782 -0.4763  0.1550 -1.2357
    4MOL0     H  481   3.875   1.909   1.920 -0.4513  1.6767  1.2101
    4MOL0     H  482   3.972   1.788   1.974 -0.5865  0.0494 -0.8402
    4MOL0     H  483   3.939   2.005   2.132 -1.5022 -1.7002 -0.6866
    4MOL0     H  484   4.111   1.966   2.097 -1.8189 -3.4769  1.2566
    4MOL0     H  485   4.025   2.201   2.099 -0.2779 -0.7016  1.2773
    4MOL0     H  486   4.107   2.176   1.946 -0.7203  2.2893  0.2050
    4MOL0     H  487   3.883   2.148   1.838  2.4482 -4.3761  2.8007
    4MOL0     H  488   3.811   2.181   2.001  0.7303 -1.7958  0.8768
    4MOL0     H  489   3.974   2.378   1.835  1.4878  2.1968  1.4181
    4MOL0     H  490   3.936   2.394   2.009  4.3760 -0.4303 -0.7018
    4MOL0     H  491   3.817   2.601   1.815 -0.6391  1.3533  0.7169
    4MOL0     H  492   3.452   2.697   1.837  0.9511  2.9141 -0.6842
    4MOL0     H  493   3.616   2.768   1.832 -1.7828  1.8102 -1.3007
    4MOL0     H  494   3.456   2.770   1.633 -0.7187 -0.8640  0.2989
    4MOL0     H  495   3.486   2.595   1.638  1.6686 -1.3443  0.4678
    4MOL0     H  496   3.722   2.620   1.596 -2.4238 -0.7992  2.8065
    4MOL0     H  497   3.711   2.804   1.593  1.0758 -0.0750  2.7316
    4MOL0     H  498   3.575   2.604   1.389 -0.2632  1.2100 -2.5986
    4MOL0     H  499   3.713   2.698   1.357 -0.6018 -0.4777 -2.1751
    4MOL0     H  500   3.523   2.650   1.171  0.7605  0.3690  0.4697
    4MOL0     H  501   3.380   2.697   0.857 -0.5529 -0.3072 -0.2514
    4MOL0     H  502   3.474   2.594   0.962 -0.5396 -1.3845  2.7246
    4MOL0     H  503   3.294   2.588   0.949  0.7387  0.1155 -2.0147
    4MOL0     H  504   2.903   2.876   0.897 -0.0252  0.5927  2.3899
    4MOL0     H  505   2.701   2.951   0.773 -0.2461  1.3025 -0.2316
    4MOL0     H  506   2.659   3.027   0.545  0.3734 -1.5252  2.0862
    4MOL0     H  507   2.542   3.050   0.667 -1.5585  2.3938  0.8314
    4MOL0     H  508   2.574   3.244   0.418 -3.4259 -1.9973 -6.1972
    4MOL0     H  509   2.479   3.101   0.405 -0.7844 -0.0469 -0.0708
    4MOL0     H  510   2.454   3.337   0.588 -2.9660  2.5707 -0.8115
    4MOL0     H  511   2.344   3.183   0.594 -1.1373 -1.0389 -1.2512
    4MOL0     H  512   2.397   3.340   0.326  0.9065  3.3469  0.7386
    4MOL0     H  513   2.253   3.251   0.370 -1.6319  2.1502  0.0613
    4MOL0     H  514   2.223   3.507   0.367  0.7851  0.1935 -0.1686
    4MOL0     H  515   2.337   3.513   0.505  1.1710 -2.1288  1.9904
    4MOL0     H  516   2.069   3.380   0.492  1.5408 -2.6151  0.3731
    4MOL0     H  517   2.164   3.348   0.622 -0.2493 -1.1741 -1.2396
    4MOL0     H  518   2.141   3.591   0.690 -0.4406 -0.5727  0.8200
    4MOL0     H  519   1.987   3.527   0.653  1.8412  0.4134  2.9647
    4MOL0     H  520   2.045   3.644   0.403 -0.6896  3.6299 -0.9541
    4MOL0     H  521   2.165   3.727   0.499  0.1192  0.6483 -0.6542
    4MOL0     H  522   2.889   3.316   0.697 -1.7359 -0.8443 -0.7888
    4MOL0     H  523   3.085   3.250   0.860  0.2855  0.2472 -0.0421
    4MOL0     H  524   3.214   3.031   1.169 -0.3327 -0.5663  0.8530
    4MOL0     H  525   3.364   2.986   1.372  0.4841  0.2745 -0.6156
    4MOL0     H  526   4.452   1.764   1.507  0.4628 -1.2587 -0.0597
    4MOL0     H  527   4.593   1.833   1.332 -0.0264  0.6616  1.0647
    4MOL0     H  528   4.743   1.799   0.959 -1.6223  2.0330  1.7569
    4MOL0     H  529   4.919   1.804   0.797  1.6097  1.3728 -0.6241
    4MOL0     H  530   5.105   2.016   0.784  1.1553 -1.4012  0.5193
    4MOL0     H  531   5.115   1.856   0.700  0.2436 -0.1467 -0.1819
    4MOL0     H  532   5.297   2.031   0.667 -0.6701  0.3803  1.3617
    4MOL0     H  533   5.189   2.121   0.568  0.8471  0.3097  2.6912
    4MOL0     H  534   5.239   1.812   0.522  1.1560  1.3539  5.2246
    4MOL0     H  535   5.340   1.939   0.444 -0.0100  2.2258  2.3051
    4MOL0     H  536   5.199   2.014   0.316  3.7476 -1.0030 -0.6278
    4MOL0     H  537   5.056   1.944   0.395 -0.0680 -1.3039  0.4024
    4MOL0     H  538   5.203   1.676   0.099  0.5369 -3.1816  1.2654
    4MOL0     H  539   4.786   2.175   0.646  3.3556 -0.9665  0.1288
    4MOL0     H  540   4.571   2.154   0.770 -1.7948  0.5200  2.1755
    5MOL0     O  541   5.435   6.809   9.269  0.7982  0.0619  0.6312
    5MOL0     C  542   5.335   6.846   9.330 -0.5941 -1.2207 -0.8862
    5MOL0     O  543   5.315   6.851   9.469  0.0955 -0.6664 -0.4444
    5MOL0     C  544   5.432   6.865   9.548 -0.3801  0.0639  0.0307
    5MOL0     C  545   5.530   6.955   9.514 -0.4400 -0.7318 -0.3069
    5MOL0     C  546   5.639   6.962   9.602 -0.2771 -0.6073  0.5633
    5MOL0     C  547   5.643   6.883   9.722 -0.3393  0.0219 -0.5487
    5MOL0     O  548   5.742   6.885   9.818  0.1479 -0.2091 -0.9429
    5MOL0     C  549   5.856   6.965   9.785 -0.5095  0.0234  0.0038
    5MOL0     C  550   5.971   6.929   9.878  0.5587 -0.0294 -0.2880
    5MOL0     C  551   6.088   7.004   9.846  0.5697  0.0625  0.4333
    5MOL0     C  552   6.213   6.979   9.940 -0.3334 -0.8155  0.3064
    5MOL0     C  553   6.163   7.003  10.085 -0.4549 -0.2003 -0.0295
    5MOL0     C  554   6.281   7.010  10.184  0.2729  0.0790 -0.1661
    5MOL0     C  555   6.218   7.041  10.314  1.1393  0.2337 -1.1004
    5MOL0     C  556   6.311   7.042  10.436 -0.2986 -0.1722 -0.2523
    5MOL0     N  557   6.325   6.905  10.485 -0.5068 -0.4799  0.4599
    5MOL0     C  558   6.239   6.832  10.577  0.5375  0.5618  0.3450
    5MOL0     C  559   6.293   6.710  10.599 -0.0266 -0.5629  0.6701
    5MOL0     C  560   6.249   6.614  10.706 -1.0491 -0.4724  0.6493
    5MOL0     C  561   6.213   6.484  10.637 -0.4592  1.0071 -0.6859
    5MOL0     C  562   6.117   6.397  10.729 -0.0908 -0.1683  1.0942
    5MOL0     C  563   5.972   6.425  10.705  0.9404 -0.4346 -0.2746
    5MOL0     O  564   5.943   6.353  10.582 -0.1297 -0.2718  0.6827
    5MOL0     C  565   5.839   6.399  10.506 -0.3201  1.3607  0.9562
    5MOL0     C  566   5.728   6.456  10.567  0.3845  0.1791 -0.7279
    5MOL0     C  567   5.606   6.475  10.501 -0.0743 -0.1138  0.6415
    5MOL0     C  568   5.487   6.499  10.587  0.0416 -0.0132  1.0390
    5MOL0     C  569   5.604   6.446  10.360 -0.5633  0.0594  0.6019
    5MOL0     C  570   5.486   6.471  10.279  0.2916  0.4219  0.8578
    5MOL0     O  571   5.454   6.383  10.179  0.4158  0.0146 -0.5497
    5MOL0     C  572   5.359   6.429  10.091 -0.6731  0.6391  0.2374
    5MOL0     C  573   5.246   6.350  10.074  0.7395  0.3106  0.0330
    5MOL0     C  574   5.133   6.381  10.001  0.8602  0.0718 -0.1240
    5MOL0     C  575   5.142   6.507   9.926 -0.1591 -0.6751 -0.3193
    5MOL0     O  576   5.038   6.541   9.846 -0.3348 -0.2261  0.4210
    5MOL0     C  577   5.043   6.660   9.772  0.9890 -0.1422  0.0556
    5MOL0     C  578   4.964   6.639   9.645  0.4074 -0.5073 -0.0107
    5MOL0     C  579   4.815   6.601   9.660  0.3098  0.1934  0.3377
    5MOL0     C  580   4.751   6.580   9.529 -0.0651  0.5034 -0.3460
    5MOL0     C  581   4.712   6.707   9.454 -0.0334  0.1037 -0.3989
    5MOL0     C  582   4.623   6.669   9.331  0.0688 -0.2264 -0.6692
    5MOL0     C  583   4.584   6.791   9.248  0.1835 -0.8984  0.5124
    5MOL0     C  584   4.526   6.760   9.111  0.0770  1.0572  0.9763
    5MOL0    Cl  585   4.402   6.627   9.121  0.3514  0.3051 -0.2335
    5MOL0     C  586   5.264   6.583   9.934 -0.0792 -0.9213 -0.1878
    5MOL0     C  587   5.369   6.548  10.022 -0.6734  0.2750 -0.6069
    5MOL0     O  588   5.421   6.571  10.304  0.2168  0.0550  0.9921
    5MOL0     C  589   5.716   6.388  10.298  0.0966 -0.3079 -0.3336
    5MOL0     C  590   5.828   6.360  10.369 -0.7167  0.2745  0.3053
    5MOL0     N  591   6.412   6.705  10.523  0.4883 -0.6032  0.6929
    5MOL0     N  592   6.421   6.818  10.445  0.1917 -0.5548  0.2869
    5MOL0     C  593   5.540   6.790   9.753 -0.3524  0.3183  0.3716
    5MOL0     C  594   5.438   6.789   9.657 -0.6639 -0.2981 -0.1596
    5MOL0     C  595   5.224   6.863   9.240  0.2068 -0.0486  0.0470
    5MOL0     C  596   5.103   6.905   9.292  0.1388  0.4897 -0.8770
    5MOL0     C  597   4.988   6.924   9.211  0.5037 -0.6588  0.4203
    5MOL0     C  598   4.993   6.899   9.073 -0.6444 -0.2110  0.3065
    5MOL0     O  599   4.879   6.901   8.993  0.4930  0.4806 -0.2268
    5MOL0     C  600   4.889   6.903   8.849 -0.3312 -0.9292 -0.0285
    5MOL0     C  601   4.758   6.966   8.794 -0.1624 -0.5361  0.2321
    5MOL0     C  602   4.762   6.966   8.640  0.2646  0.1907  0.3627
    5MOL0     C  603   4.640   7.041   8.577 -0.1359  0.0213  0.3425
    5MOL0     C  604   4.633   7.024   8.430 -0.6027  1.4733  0.1588
    5MOL0     C  605   4.617   6.987   8.313  0.1032 -0.1849 -0.1040
    5MOL0     C  606   5.117   6.866   9.014  0.0568  0.3970 -0.0684
    5MOL0     C  607   5.225   6.850   9.098  0.0118  0.6555  0.1116
    5MOL0     H  608   5.511   7.005   9.420  1.6908 -1.6965 -1.3167
    5MOL0     H  609   5.714   7.029   9.561 -0.6242 -0.0405  0.8492
    5MOL0     H  610   5.880   6.950   9.680  2.4008 -1.5614  0.7924
    5MOL0     H  611   5.820   7.069   9.790 -2.5450 -0.6788  1.7929
    5MOL0     H  612   5.942   6.955   9.980 -2.0300  3.0224 -1.6633
    5MOL0     H  613   5.982   6.820   9.877 -3.6169 -0.6805  1.8647
    5MOL0     H  614   6.124   6.971   9.749  0.3346 -0.0442  0.3812
    5MOL0     H  615   6.066   7.111   9.843 -0.1020 -0.0652  0.5704
    5MOL0     H  616   6.244   6.874   9.927 -1.7086 -1.0205 -1.9211
    5MOL0     H  617   6.297   7.044   9.917  1.1279 -2.9986 -0.9131
    5MOL0     H  618   6.110   7.099  10.088  1.0464  0.7110 -0.9746
    5MOL0     H  619   6.104   6.913  10.103 -0.4581 -0.6110 -1.8321
    5MOL0     H  620   6.330   6.913  10.193  0.1942  0.0695  0.1536
    5MOL0     H  621   6.353   7.088  10.161 -0.5765  0.4936 -1.5728
    5MOL0     H  622   6.200   7.147  10.297  0.2880  0.1271 -0.9290
    5MOL0     H  623   6.132   6.979  10.342  0.6788  2.3513  2.9825
    5MOL0     H  624   6.270   7.097  10.521 -1.9732 -2.0747  0.2439
    5MOL0     H  625   6.415   7.071  10.417  0.3357 -2.1675 -0.0708
    5MOL0     H  626   6.147   6.867  10.622  0.4649 -2.0871  2.4951
    5MOL0     H  627   6.331   6.601  10.778 -0.2092  1.8541  0.2098
    5MOL0     H  628   6.155   6.658  10.738 -2.6790 -1.2698 -2.6408
    5MOL0     H  629   6.303   6.423  10.631 -1.9234 -1.3116 -0.3436
    5MOL0     H  630   6.164   6.509  10.542 -3.0448  1.7822  0.7357
    5MOL0     H  631   6.151   6.409  10.832 -1.2383 -2.6084  1.8374
    5MOL0     H  632   6.130   6.289  10.717  4.7989  0.3823 -1.0704
    5MOL0     H  633   5.962   6.533  10.697  2.4795 -0.1341  1.1656
    5MOL0     H  634   5.901   6.386  10.779  2.5681 -2.5847  0.2654
    5MOL0     H  635   5.713   6.470  10.674  0.1010  0.8463 -0.8537
    5MOL0     H  636   5.444   6.599  10.579  1.7325  0.7609  1.1736
    5MOL0     H  637   5.410   6.432  10.549 -0.1175  0.2609  0.8759
    5MOL0     H  638   5.500   6.479  10.694 -1.2000 -2.1013  0.8464
    5MOL0     H  639   5.239   6.271  10.148 -1.2072  0.6457  0.2627
    5MOL0     H  640   5.048   6.314   9.995  0.3162  0.5394  1.6648
    5MOL0     H  641   4.993   6.741   9.825 -1.3078 -0.6079 -1.2865
    5MOL0     H  642   5.148   6.685   9.752  0.7621  0.4132 -0.4606
    5MOL0     H  643   4.981   6.717   9.571  0.4101 -0.8594 -0.3831
    5MOL0     H  644   5.018   6.554   9.603  3.0986 -0.5379  3.0615
    5MOL0     H  645   4.762   6.677   9.718  1.0785  1.9322 -1.1678
    5MOL0     H  646   4.816   6.511   9.723 -0.1645 -0.2622 -0.2892
    5MOL0     H  647   4.815   6.525   9.460 -1.3313 -0.9841 -0.3958
    5MOL0     H  648   4.663   6.517   9.549  0.3758  1.0344  4.8249
    5MOL0     H  649   4.806   6.757   9.428 -0.0448 -1.1043 -3.1066
    5MOL0     H  650   4.665   6.775   9.525 -0.5295  0.2165 -0.8289
    5MOL0     H  651   4.678   6.603   9.264 -0.6937  0.4256 -1.9772
    5MOL0     H  652   4.528   6.625   9.363 -1.1551  1.1566 -2.2242
    5MOL0     H  653   4.676   6.849   9.232 -1.8877  3.2301  1.9259
    5MOL0     H  654   4.519   6.854   9.310  1.4577  1.5284 -0.4862
    5MOL0     H  655   4.608   6.741   9.041  0.5216 -0.2877  1.8243
    5MOL0     H  656   4.468   6.842   9.069 -1.6898 -0.6243 -0.0216
    5MOL0     H  657   5.285   6.673   9.878  0.7225 -0.5606  0.6666
    5MOL0     H  658   5.456   6.613  10.029 -1.3899  1.1863  0.2075
    5MOL0     H  659   5.703   6.376  10.191 -1.4430  0.1554 -0.2310
    5MOL0     H  660   5.903   6.298  10.321 -0.4016 -0.3131  1.5314
    5MOL0     H  661   5.532   6.742   9.850  2.9446  3.1034  2.2319
    5MOL0     H  662   5.354   6.721   9.672 -0.4105 -0.2365  1.8887
    5MOL0     H  663   5.099   6.935   9.397 -0.8814  3.4495 -1.6381
    5MOL0     H  664   4.893   6.956   9.252 -0.4946 -1.6635 -1.0274
    5MOL0     H  665   4.975   6.963   8.819  1.0621 -2.6216  0.4565
    5MOL0     H  666   4.907   6.803   8.810  0.8296  0.0718 -2.1623
    5MOL0     H  667   4.740   7.064   8.839 -0.3970 -0.7255  0.5592
    5MOL0     H  668   4.671   6.908   8.827  1.0846 -1.2684  2.4987
    5MOL0     H  669   4.748   6.864   8.605 -2.8243  0.4467  0.5750
    5MOL0     H  670   4.855   7.009   8.601 -2.4568  3.5123 -3.3062
    5MOL0     H  671   4.634   7.143   8.617 -1.6300  0.0851  0.0199
    5MOL0     H  672   4.552   6.984   8.609 -0.1216 -0.4873 -0.4889
    5MOL0     H  673   4.571   6.961   8.220 -1.3899  1.1887  0.1852
    5MOL0     H  674   5.116   6.827   8.912 -4.7859 -0.0017 -0.1032
    5MOL0     H  675   5.317   6.812   9.053 -0.7781 -3.3382  1.4634
    6MOL0     O  676   2.849   0.812   0.155  0.0794 -0.5389  0.7540
    6MOL0     C  677   2.958   0.861   0.130  0.2928 -0.3283 -0.2187
    6MOL0     O  678   3.014   0.854   0.003  0.6546  0.3677  0.1329
    6MOL0     C  679   2.953   0.784  -0.092 -0.5441  1.0150 -0.0860
    6MOL0     C  680   2.929   0.649  -0.091 -0.5802  0.2232 -0.9144
    6MOL0     C  681   2.856   0.595  -0.198  0.7367  0.2583  1.0016
    6MOL0     C  682   2.805   0.658  -0.310  0.4523 -0.9467  0.0077
    6MOL0     O  683   2.724   0.580  -0.401 -0.0556  0.0375  0.6393
    6MOL0     C  684   2.632   0.638  -0.495  0.1529  0.5281  0.0860
    6MOL0     C  685   2.640   0.522  -0.611 -0.0569  0.1448  0.7275
    6MOL0     C  686   2.579   0.566  -0.747  0.3817  0.2657 -0.4795
    6MOL0     C  687   2.431   0.583  -0.747 -0.4985  0.0003  0.4763
    6MOL0     C  688   2.388   0.618  -0.896  0.1160 -0.4458  0.2269
    6MOL0     C  689   2.236   0.612  -0.899 -0.4473 -0.0224 -0.0602
    6MOL0     C  690   2.184   0.636  -1.039  0.3328  0.0901  0.3559
    6MOL0     C  691   2.248   0.557  -1.151  0.5806  0.4919 -0.8565
    6MOL0     N  692   2.195   0.562  -1.281 -0.6719  0.2148  0.3635
    6MOL0     C  693   2.170   0.674  -1.356  0.2183  0.0689 -0.2080
    6MOL0     C  694   2.130   0.622  -1.473  0.4322  0.2525 -0.7999
    6MOL0     C  695   2.096   0.704  -1.596 -0.0895 -0.3427  0.5660
    6MOL0     C  696   1.973   0.797  -1.569  0.1693 -0.2743  0.3204
    6MOL0     C  697   1.955   0.887  -1.692  0.1771  0.9677  0.5794
    6MOL0     C  698   1.839   0.976  -1.689  0.2482  0.4908 -0.3476
    6MOL0     O  699   1.841   1.067  -1.799  0.2126 -0.0317  0.7419
    6MOL0     C  700   1.725   1.127  -1.843  0.0244  0.2310  0.2006
    6MOL0     C  701   1.725   1.199  -1.960  0.0871  0.7019  0.8138
    6MOL0     C  702   1.627   1.285  -2.008 -0.7187 -1.3603  0.5088
    6MOL0     C  703   1.664   1.366  -2.129 -0.6021  0.9516 -0.2617
    6MOL0     C  704   1.506   1.296  -1.937  0.0782 -0.1187 -0.7571
    6MOL0     C  705   1.390   1.371  -1.991 -0.8469 -0.4114 -0.0603
    6MOL0     O  706   1.402   1.442  -2.105  0.6475  0.1279 -0.2950
    6MOL0     C  707   1.303   1.515  -2.163 -0.4806  0.0851  0.0901
    6MOL0     C  708   1.170   1.480  -2.171  0.2459  0.4204  0.0219
    6MOL0     C  709   1.080   1.550  -2.263 -0.2970  0.0300  0.2132
    6MOL0     C  710   1.131   1.657  -2.342 -1.2262  0.1714  0.3470
    6MOL0     O  711   1.050   1.739  -2.421 -0.1690 -0.7831  0.6232
    6MOL0     C  712   0.910   1.759  -2.378 -0.7236  0.0483  0.3441
    6MOL0     C  713   0.832   1.866  -2.466 -0.0780  0.0106 -1.3907
    6MOL0     C  714   0.676   1.873  -2.456 -0.4668  0.6990 -0.0818
    6MOL0     C  715   0.617   1.998  -2.510  0.7702  0.4165 -0.0562
    6MOL0     C  716   0.481   1.966  -2.567  0.3173  0.0423 -0.4525
    6MOL0     C  717   0.379   1.929  -2.447 -0.0101  0.6618  1.2281
    6MOL0     C  718   0.321   2.056  -2.384  0.4108 -0.0015  0.0507
    6MOL0     C  719   0.225   2.017  -2.257 -0.1462 -0.4886  1.2404
    6MOL0    Cl  720   0.331   1.922  -2.143 -0.7304 -0.0100  0.0839
    6MOL0     C  721   1.268   1.684  -2.335  0.5784 -0.6138  0.1961
    6MOL0     C  722   1.349   1.613  -2.245 -0.4163  0.1823 -0.0413
    6MOL0     O  723   1.294   1.375  -1.922 -0.2855 -0.0910  0.0574
    6MOL0     C  724   1.492   1.210  -1.818  0.0980 -0.1373  1.0102
    6MOL0     C  725   1.601   1.131  -1.772 -0.8114  0.0444 -0.1129
    6MOL0     N  726   2.140   0.489  -1.466 -0.4942  1.1710  0.2754
    6MOL0     N  727   2.164   0.449  -1.349  0.0485  0.5188  0.3750
    6MOL0     C  728   2.834   0.789  -0.310  0.4781 -0.6510  0.1393
    6MOL0     C  729   2.906   0.854  -0.204  0.6993 -0.5190  0.3863
    6MOL0     C  730   3.034   0.922   0.248 -0.2981 -0.9944  0.4108
    6MOL0     C  731   2.978   0.954   0.369 -0.2086 -0.1405 -0.2078
    6MOL0     C  732   3.052   1.000   0.478  0.5736  0.8225  0.4285
    6MOL0     C  733   3.192   1.019   0.468 -0.4054 -0.2795  0.0518
    6MOL0     O  734   3.271   1.068   0.575 -0.0567  0.0795 -0.9682
    6MOL0     C  735   3.221   1.077   0.711 -0.4928 -0.9065 -0.8243
    6MOL0     C  736   3.191   0.954   0.785  0.8009 -0.2114 -0.0699
    6MOL0     C  737   3.288   0.845   0.755 -0.0389  0.5946  0.0643
    6MOL0     C  738   3.289   0.732   0.859 -0.5963 -0.5821 -0.0271
    6MOL0     C  739   3.412   0.656   0.851  0.5429  0.3266 -0.4678
    6MOL0     C  740   3.501   0.573   0.838  0.4541  0.2828  0.8892
    6MOL0     C  741   3.251   0.974   0.350  0.8997 -0.5918  0.2051
    6MOL0     C  742   3.176   0.938   0.236  0.3138  0.4502 -0.3422
    6MOL0     H  743   2.964   0.598  -0.001 -0.5697  3.2080  0.8864
    6MOL0     H  744   2.839   0.487  -0.192  3.7703 -0.5009 -1.5678
    6MOL0     H  745   2.534   0.659  -0.451 -0.8392 -0.9521 -1.3034
    6MOL0     H  746   2.677   0.734  -0.522  2.0793 -0.2087  0.5200
    6MOL0     H  747   2.743   0.490  -0.629  0.2044  0.3216  1.8714
    6MOL0     H  748   2.586   0.437  -0.569 -1.6764  1.2911  1.0647
    6MOL0     H  749   2.623   0.661  -0.777  0.6008  0.3424  0.0641
    6MOL0     H  750   2.609   0.493  -0.823 -0.9079 -0.9088  0.0799
    6MOL0     H  751   2.372   0.503  -0.701  0.8243  0.1250  2.4703
    6MOL0     H  752   2.406   0.667  -0.682 -1.3751  0.4184 -0.3666
    6MOL0     H  753   2.433   0.713  -0.924  0.3197 -0.9907 -1.3853
    6MOL0     H  754   2.438   0.545  -0.960  1.6532  2.8248 -2.6283
    6MOL0     H  755   2.204   0.520  -0.851  0.0126  0.2638  0.8330
    6MOL0     H  756   2.206   0.688  -0.826  1.8609  1.2044 -0.2724
    6MOL0     H  757   2.079   0.605  -1.033 -0.7388  2.6870 -2.5080
    6MOL0     H  758   2.184   0.740  -1.073 -1.6001 -1.0386 -3.7772
    6MOL0     H  759   2.257   0.455  -1.111  1.7175  0.6587 -0.6524
    6MOL0     H  760   2.350   0.593  -1.163 -0.2036  3.3608  0.3274
    6MOL0     H  761   2.178   0.774  -1.314 -0.1123  0.0147 -0.0141
    6MOL0     H  762   2.184   0.757  -1.633 -0.8685  1.4381  1.1477
    6MOL0     H  763   2.055   0.644  -1.677 -0.0396 -0.3387  0.5380
    6MOL0     H  764   1.991   0.857  -1.479 -0.2172 -0.2747  0.4007
    6MOL0     H  765   1.881   0.738  -1.559  1.3827 -2.5409 -1.0549
    6MOL0     H  766   1.945   0.839  -1.790  2.3819  0.9795  0.3056
    6MOL0     H  767   2.046   0.945  -1.707 -0.2420  1.7386  0.9804
    6MOL0     H  768   1.829   1.024  -1.591 -0.7033 -1.7271  0.7204
    6MOL0     H  769   1.748   0.915  -1.694 -0.4420  1.5641 -1.4572
    6MOL0     H  770   1.812   1.177  -2.021 -0.4229 -0.8481  0.5981
    6MOL0     H  771   1.770   1.359  -2.156 -0.7711 -0.2301 -0.7104
    6MOL0     H  772   1.606   1.350  -2.220 -0.8902 -0.5281  0.1511
    6MOL0     H  773   1.642   1.467  -2.094  2.5385  0.3870  4.2010
    6MOL0     H  774   1.139   1.398  -2.108  0.8223 -0.3101 -0.6290
    6MOL0     H  775   0.977   1.517  -2.270  0.1226 -1.6143  1.1804
    6MOL0     H  776   0.864   1.659  -2.376 -0.4289 -0.0921  0.1917
    6MOL0     H  777   0.901   1.804  -2.279  1.7477  1.8630 -0.1810
    6MOL0     H  778   0.877   1.962  -2.441  2.4590 -1.2390 -0.7467
    6MOL0     H  779   0.862   1.844  -2.569  0.3146  0.1783 -1.3152
    6MOL0     H  780   0.644   1.870  -2.351 -0.1276  0.6891  0.0246
    6MOL0     H  781   0.639   1.787  -2.512  1.6063  1.2172 -2.4231
    6MOL0     H  782   0.623   2.077  -2.435 -0.5868  1.7479 -1.2957
    6MOL0     H  783   0.669   2.022  -2.603 -0.3437 -1.8173 -1.3515
    6MOL0     H  784   0.480   1.881  -2.635  1.4439 -0.9002  0.6637
    6MOL0     H  785   0.442   2.047  -2.628 -1.8586 -1.4746 -1.2005
    6MOL0     H  786   0.302   1.878  -2.505  1.2043  1.9203 -1.7296
    6MOL0     H  787   0.422   1.856  -2.378 -1.4166 -2.9786 -1.4513
    6MOL0     H  788   0.272   2.116  -2.461 -5.6798 -1.7462  1.9322
    6MOL0     H  789   0.401   2.114  -2.338 -1.2387  0.2683  2.7996
    6MOL0     H  790   0.143   1.953  -2.293 -1.2791  1.5790 -0.0244
    6MOL0     H  791   0.180   2.103  -2.206 -3.2687  0.2045 -2.2329
    6MOL0     H  792   1.316   1.751  -2.405 -0.1263 -1.0905 -0.7692
    6MOL0     H  793   1.455   1.634  -2.238  0.0846 -1.1172 -2.5608
    6MOL0     H  794   1.401   1.213  -1.760  0.0086 -1.0033  0.9311
    6MOL0     H  795   1.591   1.092  -1.671  3.3623  1.5285  1.0990
    6MOL0     H  796   2.806   0.844  -0.400  0.7151  1.5490  1.3479
    6MOL0     H  797   2.923   0.961  -0.203  1.5759 -0.5775 -2.1494
    6MOL0     H  798   2.870   0.951   0.369 -0.2006 -0.3897 -0.0154
    6MOL0     H  799   2.989   1.016   0.565 -2.5120 -2.2244 -1.0231
    6MOL0     H  800   3.297   1.120   0.777 -2.0546  0.4535  0.1571
    6MOL0     H  801   3.140   1.150   0.698  1.7215  1.3802 -3.0100
    6MOL0     H  802   3.102   0.910   0.739  2.7164 -1.0768 -3.2633
    6MOL0     H  803   3.173   0.972   0.891 -0.3422 -1.9301  0.0669
    6MOL0     H  804   3.384   0.895   0.769 -1.4306  3.8768 -1.0191
    6MOL0     H  805   3.285   0.800   0.656  1.5526  0.1479  0.1947
    6MOL0     H  806   3.207   0.663   0.838  0.9753 -3.5807  2.8511
    6MOL0     H  807   3.277   0.787   0.953 -0.2531 -3.3986  1.7533
    6MOL0     H  808   3.587   0.517   0.809  0.4777  1.9878 -2.8580
    6MOL0     H  809   3.358   0.991   0.346  0.7681  0.1613 -0.1860
    6MOL0     H  810   3.231   0.895   0.153  0.4845 -0.1079  0.0509
    7MOL0     O  811   1.634   1.481   3.587  0.2118  0.4857 -0.5163
    7MOL0     C  812   1.610   1.488   3.715 -0.3550  0.1093  0.6316
    7MOL0     O  813   1.553   1.381   3.784 -0.0381  0.4068 -1.8939
    7MOL0     C  814   1.530   1.266   3.713 -0.4668 -0.0421 -0.5437
    7MOL0     C  815   1.632   1.193   3.659  0.1066 -0.3329 -0.8889
    7MOL0     C  816   1.604   1.087   3.572  0.0249 -0.6539  0.8200
    7MOL0     C  817   1.471   1.052   3.549 -0.5935 -0.7014  0.3656
    7MOL0     O  818   1.445   0.943   3.469  0.3667  0.3055 -0.8535
    7MOL0     C  819   1.507   0.817   3.506 -0.0714 -0.3203 -0.0802
    7MOL0     C  820   1.452   0.701   3.421 -0.3168 -0.4417 -0.4471
    7MOL0     C  821   1.519   0.571   3.455 -0.4825 -0.8728 -0.2512
    7MOL0     C  822   1.451   0.500   3.576  0.4400 -0.4294  0.3927
    7MOL0     C  823   1.525   0.371   3.614  0.1600 -0.2558 -0.3532
    7MOL0     C  824   1.479   0.312   3.750 -0.2194  0.2940 -0.1241
    7MOL0     C  825   1.541   0.179   3.783 -0.3045  0.7587  0.0887
    7MOL0     C  826   1.675   0.203   3.859  0.7197  0.3138 -0.5853
    7MOL0     N  827   1.747   0.074   3.875  0.6000  0.5706 -0.3534
    7MOL0     C  828   1.705  -0.023   3.962  0.2040  0.0044 -0.5010
    7MOL0     C  829   1.781  -0.127   3.942 -0.1405  0.4274  0.2592
    7MOL0     C  830   1.771  -0.248   4.022 -0.1548  0.2675  0.0811
    7MOL0     C  831   1.887  -0.268   4.124 -0.5685 -0.1433  0.1113
    7MOL0     C  832   2.017  -0.326   4.059  0.5868 -0.1603  0.3024
    7MOL0     C  833   2.116  -0.365   4.176  0.5479 -0.9889 -0.6680
    7MOL0     O  834   2.221  -0.448   4.132  0.0931 -0.4466  0.4061
    7MOL0     C  835   2.316  -0.394   4.052 -0.1259 -0.6558 -0.4386
    7MOL0     C  836   2.305  -0.406   3.914 -0.6366 -0.1998 -0.1661
    7MOL0     C  837   2.410  -0.363   3.830 -1.6257 -0.3051  0.2092
    7MOL0     C  838   2.400  -0.381   3.682 -0.2746 -0.0320  0.1944
    7MOL0     C  839   2.531  -0.298   3.891  0.3614  1.5104  0.1398
    7MOL0     C  840   2.635  -0.226   3.809 -0.2255  0.9819  1.1123
    7MOL0     O  841   2.638  -0.240   3.668  0.7643 -0.4448  0.0188
    7MOL0     C  842   2.748  -0.207   3.595 -0.4329 -0.2432 -0.3890
    7MOL0     C  843   2.853  -0.295   3.613  0.9676 -0.0627  0.3643
    7MOL0     C  844   2.979  -0.247   3.569  0.3239 -0.2823  0.7799
    7MOL0     C  845   2.992  -0.119   3.494 -0.1993  0.7176  0.2631
    7MOL0     O  846   3.123  -0.092   3.457 -0.9189  0.0033 -0.5193
    7MOL0     C  847   3.136   0.026   3.371 -0.9757  0.0284  0.2911
    7MOL0     C  848   3.276   0.013   3.318 -0.0895 -0.5384  0.0935
    7MOL0     C  849   3.291   0.122   3.209 -0.0409  0.2280  0.4714
    7MOL0     C  850   3.411   0.101   3.119 -0.6755  0.0823  0.9881
    7MOL0     C  851   3.466   0.237   3.090  0.8794  0.4406  0.3565
    7MOL0     C  852   3.599   0.219   3.005 -0.6258  0.2688 -0.1126
    7MOL0     C  853   3.695   0.333   3.029  0.1122 -0.1011  0.7583
    7MOL0     C  854   3.776   0.374   2.903  0.6403  0.6122 -0.2411
    7MOL0    Cl  855   3.852   0.232   2.820  0.0939 -0.3432 -0.3320
    7MOL0     C  856   2.874  -0.052   3.464 -0.9621 -0.8658 -0.1794
    7MOL0     C  857   2.762  -0.085   3.532 -0.3349  0.0635 -0.0124
    7MOL0     O  858   2.729  -0.177   3.871  0.3336 -0.3461 -0.2641
    7MOL0     C  859   2.535  -0.284   4.039  0.8540  0.2278  0.1291
    7MOL0     C  860   2.429  -0.337   4.113  0.3751 -0.3506 -0.5823
    7MOL0     N  861   1.877  -0.090   3.842 -0.6633 -0.4864 -0.2683
    7MOL0     N  862   1.843   0.026   3.801 -0.3281  0.3938 -0.0252
    7MOL0     C  863   1.366   1.130   3.602 -0.4539 -0.1136  0.6226
    7MOL0     C  864   1.397   1.238   3.689  0.5222 -0.3515  0.4277
    7MOL0     C  865   1.647   1.617   3.767 -0.4440 -0.3243  0.0688
    7MOL0     C  866   1.712   1.722   3.696 -0.7371 -0.2756  0.8897
    7MOL0     C  867   1.752   1.836   3.762  0.0301 -0.1531  0.9399
    7MOL0     C  868   1.730   1.861   3.894  0.6259  0.9632  0.2688
    7MOL0     O  869   1.778   1.974   3.960 -0.3002  0.3094  0.3259
    7MOL0     C  870   1.695   2.038   4.046  0.5451 -0.1330  0.2115
    7MOL0     C  871   1.763   2.063   4.180 -0.3531  0.1323  0.1394
    7MOL0     C  872   1.751   1.934   4.255  0.3554 -0.3455 -0.4400
    7MOL0     C  873   1.811   1.947   4.395 -0.1661  0.4208  0.4403
    7MOL0     C  874   1.925   2.034   4.416 -0.3695 -0.4600  0.4557
    7MOL0     C  875   2.016   2.109   4.440 -0.6278  0.0719 -1.0479
    7MOL0     C  876   1.661   1.759   3.964 -0.0265 -0.8392 -0.2405
    7MOL0     C  877   1.632   1.636   3.906 -0.2468  0.6432  1.1471
    7MOL0     H  878   1.735   1.217   3.684 -0.1150 -0.8444  0.6172
    7MOL0     H  879   1.677   1.034   3.511 -0.8238 -1.8410  0.8143
    7MOL0     H  880   1.615   0.831   3.493 -0.1435  0.5650  0.2209
    7MOL0     H  881   1.497   0.798   3.613  1.1218 -1.3802 -0.1338
    7MOL0     H  882   1.343   0.702   3.432 -0.2814  0.8107 -0.0520
    7MOL0     H  883   1.482   0.736   3.322  2.8846 -2.3214 -0.2967
    7MOL0     H  884   1.498   0.503   3.372 -0.8374  0.3194 -1.1684
    7MOL0     H  885   1.626   0.589   3.467 -0.2352 -0.6624 -2.4355
    7MOL0     H  886   1.453   0.575   3.656  1.7788  0.5973 -0.5347
    7MOL0     H  887   1.347   0.476   3.552  1.0912 -1.6970 -1.3374
    7MOL0     H  888   1.497   0.301   3.534 -0.9159  1.3040 -1.4014
    7MOL0     H  889   1.633   0.387   3.608  0.4214 -2.2613 -3.4748
    7MOL0     H  890   1.492   0.390   3.826  0.2886 -0.8621  0.9988
    7MOL0     H  891   1.370   0.301   3.751 -0.4792  2.1076  2.5056
    7MOL0     H  892   1.468   0.119   3.839  1.5656  0.2202  2.1564
    7MOL0     H  893   1.557   0.124   3.690 -0.2557 -0.2305  0.6628
    7MOL0     H  894   1.662   0.250   3.957  4.4719 -1.7085  1.0989
    7MOL0     H  895   1.741   0.274   3.806  1.3085  1.5023  1.6022
    7MOL0     H  896   1.622  -0.017   4.032 -1.2456 -1.7056 -1.9847
    7MOL0     H  897   1.679  -0.270   4.077  0.0137 -2.5523 -0.5786
    7MOL0     H  898   1.771  -0.326   3.946 -2.0577  1.2280 -0.9434
    7MOL0     H  899   1.850  -0.332   4.204 -2.2217 -0.7786 -1.0876
    7MOL0     H  900   1.903  -0.169   4.168  1.1673 -0.3984  0.1020
    7MOL0     H  901   2.045  -0.252   3.984 -2.4534 -3.2767 -4.4801
    7MOL0     H  902   2.002  -0.414   3.996  3.1685 -1.7846  1.7668
    7MOL0     H  903   2.060  -0.424   4.249 -1.2222  1.0591 -0.2673
    7MOL0     H  904   2.150  -0.265   4.204 -2.1371 -0.1210 -0.2813
    7MOL0     H  905   2.219  -0.464   3.884 -0.7673  1.6799 -4.1692
    7MOL0     H  906   2.303  -0.429   3.665 -0.6415  0.3084  1.2163
    7MOL0     H  907   2.410  -0.283   3.634 -1.7300  0.7059  1.3158
    7MOL0     H  908   2.481  -0.446   3.648  0.0157  0.0754  0.6678
    7MOL0     H  909   2.838  -0.389   3.667 -0.0400 -0.2366 -0.2000
    7MOL0     H  910   3.075  -0.289   3.596  0.7117 -1.0345 -1.5429
    7MOL0     H  911   3.066   0.029   3.287 -0.3947 -1.3298 -0.2926
    7MOL0     H  912   3.134   0.118   3.429 -2.8678  0.7214 -0.7836
    7MOL0     H  913   3.340   0.036   3.403 -4.1466 -1.2779  3.7070
    7MOL0     H  914   3.287  -0.088   3.277 -3.5690 -0.7203 -0.7334
    7MOL0     H  915   3.294   0.221   3.256  2.1108  1.8876 -2.7748
    7MOL0     H  916   3.201   0.124   3.148 -0.8138 -0.3116  1.5641
    7MOL0     H  917   3.486   0.039   3.168 -1.3502  1.6689  4.2922
    7MOL0     H  918   3.387   0.050   3.025  3.0022 -2.2073  1.0910
    7MOL0     H  919   3.493   0.284   3.185  2.1812 -0.6580  0.5770
    7MOL0     H  920   3.382   0.290   3.044 -1.8120 -2.1609  1.9193
    7MOL0     H  921   3.654   0.128   3.031 -2.4276 -0.6651  0.6091
    7MOL0     H  922   3.578   0.214   2.898  1.4550  1.0206 -0.6102
    7MOL0     H  923   3.750   0.323   3.123  1.6047  2.0789  0.2105
    7MOL0     H  924   3.642   0.426   3.053  1.0725  0.5639  0.3935
    7MOL0     H  925   3.845   0.450   2.939 -4.0435  3.3344  4.4605
    7MOL0     H  926   3.714   0.431   2.832 -1.0079 -2.4373 -1.4430
    7MOL0     H  927   2.869   0.042   3.411 -1.2329 -1.4293 -1.1882
    7MOL0     H  928   2.672  -0.025   3.534 -0.3319  0.1504  3.2235
    7MOL0     H  929   2.622  -0.227   4.069  1.2415  0.8207 -1.9618
    7MOL0     H  930   2.431  -0.334   4.222 -2.5948 -1.6274 -0.4026
    7MOL0     H  931   1.264   1.105   3.575  0.2803 -3.3541  0.4972
    7MOL0     H  932   1.324   1.304   3.733  0.7384  0.1815 -0.0089
    7MOL0     H  933   1.721   1.716   3.588  2.9590 -1.9972  1.1323
    7MOL0     H  934   1.801   1.914   3.704  0.7090 -1.4312 -0.2987
    7MOL0     H  935   1.691   2.139   4.005  0.8973  0.0534  0.6285
    7MOL0     H  936   1.589   2.009   4.050  0.2331  1.0861  1.7908
    7MOL0     H  937   1.710   2.142   4.234 -0.9143 -0.9238  1.1655
    7MOL0     H  938   1.867   2.085   4.154 -1.5153  1.0499 -4.6882
    7MOL0     H  939   1.805   1.852   4.206 -3.6049 -1.8810 -2.6653
    7MOL0     H  940   1.650   1.894   4.267  2.0139 -5.3520 -0.8347
    7MOL0     H  941   1.832   1.843   4.423 -1.9236 -0.2635 -0.6191
    7MOL0     H  942   1.729   1.968   4.464  0.2300 -0.6011  1.2532
    7MOL0     H  943   2.105   2.161   4.468 -1.8329  1.7619 -0.2527
    7MOL0     H  944   1.646   1.768   4.071  1.3405 -4.8915  0.4888
    7MOL0     H  945   1.589   1.553   3.960 -1.6434 -0.0643 -0.9074
    8MOL0     O  946   7.849   0.689   6.108 -0.3681  0.1342  0.3356
    8MOL0     C  947   7.819   0.638   6.217 -0.0977  0.2577  0.9001
    8MOL0     O  948   7.750   0.520   6.234 -0.7460  0.4573  0.1476
    8MOL0     C  949   7.701   0.452   6.126  0.9591  0.3591  0.2157
    8MOL0     C  950   7.563   0.446   6.101  0.1848  0.0405 -1.1209
    8MOL0     C  951   7.516   0.399   5.981  0.0650 -0.9105 -0.0280
    8MOL0     C  952   7.606   0.355   5.883 -0.3611  0.3899 -0.9047
    8MOL0     O  953   7.554   0.326   5.759  0.6251  0.6379  0.4586
    8MOL0     C  954   7.623   0.251   5.648  0.0139 -0.1876  0.1869
    8MOL0     C  955   7.625   0.100   5.641 -0.4981  0.0838 -0.3537
    8MOL0     C  956   7.502   0.029   5.585  0.1399  0.7885  0.5186
    8MOL0     C  957   7.493  -0.118   5.620  1.4170  0.4026  0.2051
    8MOL0     C  958   7.365  -0.177   5.564  0.0586  0.0246 -0.0411
    8MOL0     C  959   7.302  -0.299   5.645 -0.0371 -0.7876  0.4874
    8MOL0     C  960   7.175  -0.345   5.580 -0.5362 -0.3385  0.5477
    8MOL0     C  961   7.104  -0.433   5.680 -0.1505  0.0459  0.5617
    8MOL0     N  962   6.980  -0.488   5.627  0.6734  0.4008 -0.1068
    8MOL0     C  963   6.866  -0.412   5.598  0.0736 -0.0741  0.2981
    8MOL0     C  964   6.770  -0.503   5.599 -0.5036  0.2996 -0.6439
    8MOL0     C  965   6.619  -0.493   5.577 -0.1298 -0.1714  0.4582
    8MOL0     C  966   6.566  -0.359   5.622 -0.0513 -1.7883  0.7340
    8MOL0     C  967   6.417  -0.351   5.620  0.1443  0.3340 -0.9771
    8MOL0     C  968   6.353  -0.354   5.480  0.9730 -0.2076 -0.0631
    8MOL0     O  969   6.382  -0.235   5.403 -0.6301  0.0245  0.7319
    8MOL0     C  970   6.298  -0.194   5.296 -0.6491  0.0078  0.3176
    8MOL0     C  971   6.329  -0.075   5.238  0.2765  0.1190  0.8762
    8MOL0     C  972   6.252  -0.014   5.139 -0.8049 -0.2445 -0.3603
    8MOL0     C  973   6.269   0.128   5.109  0.1254 -0.1622  0.2364
    8MOL0     C  974   6.141  -0.087   5.088 -0.4774  0.4881  0.8097
    8MOL0     C  975   6.063  -0.046   4.966  0.5176  0.4883 -1.2258
    8MOL0     O  976   5.975  -0.136   4.927 -0.1432  0.7962  0.7406
    8MOL0     C  977   5.908  -0.120   4.811 -0.5468  0.5378  0.0479
    8MOL0     C  978   5.782  -0.061   4.812  0.9827 -0.4357 -0.4572
    8MOL0     C  979   5.722  -0.038   4.689 -0.3087  0.0688  0.8543
    8MOL0     C  980   5.777  -0.081   4.569 -0.0266  0.1992 -0.2123
    8MOL0     O  981   5.713  -0.059   4.446  0.0319  0.7777 -0.6189
    8MOL0     C  982   5.581  -0.127   4.443 -0.1866  0.6264  1.2642
    8MOL0     C  983   5.594  -0.288   4.425 -0.2719 -0.9571 -0.4884
    8MOL0     C  984   5.464  -0.350   4.363 -0.1591  0.5901  0.5607
    8MOL0     C  985   5.491  -0.495   4.328 -0.0423 -0.1258  0.2075
    8MOL0     C  986   5.359  -0.569   4.354  0.8014  0.3997 -0.7664
    8MOL0     C  987   5.368  -0.721   4.323  0.1107  0.6277  0.0802
    8MOL0     C  988   5.339  -0.754   4.179  0.6222 -0.2542  0.3676
    8MOL0     C  989   5.467  -0.777   4.091  0.4012  0.1530  0.2987
    8MOL0    Cl  990   5.425  -0.815   3.922 -0.0865  0.0754  0.0005
    8MOL0     C  991   5.903  -0.142   4.570  0.3110 -0.5047  0.2834
    8MOL0     C  992   5.974  -0.155   4.691  0.2734 -0.9232 -0.4761
    8MOL0     O  993   6.102   0.049   4.899 -0.3035  0.2995 -0.3186
    8MOL0     C  994   6.109  -0.210   5.151 -0.9797  0.0536 -0.2292
    8MOL0     C  995   6.184  -0.260   5.253 -0.0315  0.3654 -0.6940
    8MOL0     N  996   6.819  -0.625   5.632  0.7697 -0.3739  0.2459
    8MOL0     N  997   6.941  -0.616   5.634  0.4680  0.5217 -0.1073
    8MOL0     C  998   7.745   0.357   5.907 -0.6941 -0.5346  0.0747
    8MOL0     C  999   7.788   0.406   6.029 -0.4363  0.1119  0.1085
    8MOL0     C 1000   7.856   0.707   6.341 -1.0921  0.0850 -0.3266
    8MOL0     C 1001   7.959   0.803   6.343  0.4595  0.3431 -0.1140
    8MOL0     C 1002   7.992   0.872   6.456  0.0207  0.2988 -0.1645
    8MOL0     C 1003   7.928   0.851   6.581  0.0614  0.2696 -0.4370
    8MOL0     O 1004   7.962   0.923   6.693  0.1246  0.8267  0.5841
    8MOL0     C 1005   7.974   1.067   6.681 -0.4569 -0.0702  0.7022
    8MOL0     C 1006   7.832   1.122   6.651 -0.4353  0.0818  0.1360
    8MOL0     C 1007   7.821   1.274   6.672  0.4867 -0.0697  0.3487
    8MOL0     C 1008   7.682   1.330   6.605  1.1008 -0.0710 -0.4784
    8MOL0     C 1009   7.698   1.339   6.457 -0.2826  0.0047 -0.0298
    8MOL0     C 1010   7.704   1.342   6.336  0.3980  0.4770 -0.2629
    8MOL0     C 1011   7.840   0.744   6.589  0.4171 -0.1525  0.4224
    8MOL0     C 1012   7.797   0.680   6.464  0.1161  0.8863 -0.2208
    8MOL0     H 1013   7.493   0.491   6.170  2.1634 -1.2315  1.9189
    8MOL0     H 1014   7.410   0.404   5.961 -0.5581 -3.1611  2.2302
    8MOL0     H 1015   7.579   0.279   5.552 -0.1094  1.0750  0.5955
    8MOL0     H 1016   7.727   0.283   5.651  0.0485 -0.0823 -1.2852
    8MOL0     H 1017   7.700   0.072   5.566 -1.7488 -1.4948 -1.0815
    8MOL0     H 1018   7.662   0.072   5.740 -0.1143 -0.9876 -0.7856
    8MOL0     H 1019   7.410   0.085   5.605 -1.4453 -1.0964 -1.0775
    8MOL0     H 1020   7.510   0.030   5.475  0.3991  0.4528  0.5340
    8MOL0     H 1021   7.581  -0.170   5.580  0.8279  0.7308 -1.6190
    8MOL0     H 1022   7.499  -0.124   5.729 -0.3309  0.0776  0.3074
    8MOL0     H 1023   7.291  -0.097   5.552  2.0384  1.9975  0.4127
    8MOL0     H 1024   7.388  -0.208   5.462  0.9219 -0.9492  0.4326
    8MOL0     H 1025   7.370  -0.385   5.636  1.0734  0.2157 -1.5440
    8MOL0     H 1026   7.299  -0.261   5.747  1.6447 -0.9749  0.6372
    8MOL0     H 1027   7.107  -0.265   5.547 -0.5255 -0.2095  0.8404
    8MOL0     H 1028   7.200  -0.397   5.487 -1.5164 -1.1553  0.7208
    8MOL0     H 1029   7.085  -0.388   5.778  0.4924  0.1884  0.6294
    8MOL0     H 1030   7.167  -0.521   5.698 -1.3824 -1.6185 -2.5002
    8MOL0     H 1031   6.855  -0.304   5.592  2.4408  0.1879 -0.4400
    8MOL0     H 1032   6.589  -0.494   5.472  1.3330  1.4864 -0.0293
    8MOL0     H 1033   6.570  -0.576   5.629  0.9083 -1.3094 -0.3370
    8MOL0     H 1034   6.597  -0.281   5.551  3.0940 -0.8973  2.8562
    8MOL0     H 1035   6.601  -0.323   5.719 -2.3440 -0.3693  1.1037
    8MOL0     H 1036   6.377  -0.269   5.682  1.7335  0.1867  0.3018
    8MOL0     H 1037   6.371  -0.441   5.660  0.9765  0.9293  1.5028
    8MOL0     H 1038   6.246  -0.363   5.498  0.7565  1.1961 -0.5117
    8MOL0     H 1039   6.392  -0.441   5.426  0.4058 -0.1915 -0.5023
    8MOL0     H 1040   6.415  -0.035   5.291  0.2022  1.1267  0.2596
    8MOL0     H 1041   6.346   0.184   5.163 -1.8652  2.1350  0.8404
    8MOL0     H 1042   6.303   0.142   5.006  1.2146  2.0631  0.8340
    8MOL0     H 1043   6.176   0.182   5.126  1.2030  1.9746 -0.3051
    8MOL0     H 1044   5.753  -0.035   4.913  1.5797  1.1286 -0.6570
    8MOL0     H 1045   5.627   0.013   4.678 -0.9006 -1.3465 -1.2622
    8MOL0     H 1046   5.520  -0.096   4.529  1.4769  2.2421  1.9293
    8MOL0     H 1047   5.533  -0.068   4.365 -3.1709 -1.5426  1.3107
    8MOL0     H 1048   5.678  -0.293   4.355  0.0393  0.9531 -0.3103
    8MOL0     H 1049   5.626  -0.337   4.517  1.1671  1.9619  0.7188
    8MOL0     H 1050   5.425  -0.306   4.271 -0.0377 -0.4003  0.0241
    8MOL0     H 1051   5.387  -0.326   4.436 -1.6680  2.7926 -1.5794
    8MOL0     H 1052   5.509  -0.509   4.221 -1.5711 -4.3627  0.3156
    8MOL0     H 1053   5.570  -0.549   4.380  0.9875 -0.6598 -1.8059
    8MOL0     H 1054   5.281  -0.526   4.291  0.0394  2.1211  1.2419
    8MOL0     H 1055   5.337  -0.567   4.461  1.7658 -1.2928 -0.4960
    8MOL0     H 1056   5.457  -0.778   4.351 -0.9224 -1.8726 -1.3916
    8MOL0     H 1057   5.285  -0.763   4.381  0.9104  1.0654  1.5828
    8MOL0     H 1058   5.292  -0.667   4.133  2.9023  0.9629  0.1905
    8MOL0     H 1059   5.262  -0.832   4.183  0.8475 -0.6449 -1.6075
    8MOL0     H 1060   5.512  -0.870   4.126  1.1084 -0.1662 -1.3890
    8MOL0     H 1061   5.538  -0.695   4.101 -1.0626  1.3392  1.5760
    8MOL0     H 1062   5.925  -0.167   4.467  0.0593  0.6479 -0.0687
    8MOL0     H 1063   6.076  -0.193   4.686  0.0526 -1.6830  0.4506
    8MOL0     H 1064   6.042  -0.280   5.102 -1.0627 -0.4994  0.6609
    8MOL0     H 1065   6.161  -0.358   5.293  0.9181 -0.1149 -1.3031
    8MOL0     H 1066   7.812   0.348   5.822 -3.9355 -1.6386 -2.5670
    8MOL0     H 1067   7.889   0.438   6.051 -0.7911  1.8200 -0.6039
    8MOL0     H 1068   8.015   0.812   6.251 -0.5087 -1.5707 -0.9457
    8MOL0     H 1069   8.080   0.936   6.449  0.1396  0.5428  2.5762
    8MOL0     H 1070   8.000   1.108   6.779  3.1550  0.1635 -0.2112
    8MOL0     H 1071   8.055   1.090   6.611  0.1248 -3.0500  0.2438
    8MOL0     H 1072   7.764   1.062   6.711  0.2900 -0.6720  0.2369
    8MOL0     H 1073   7.811   1.110   6.544 -3.5364  2.2890  0.3597
    8MOL0     H 1074   7.901   1.333   6.626  0.2402 -0.0578 -0.0686
    8MOL0     H 1075   7.820   1.289   6.780 -2.5214  3.8568 -0.0105
    8MOL0     H 1076   7.655   1.427   6.648 -1.2058 -0.7054 -0.3737
    8MOL0     H 1077   7.598   1.264   6.629 -1.7978  3.3789 -0.2142
    8MOL0     H 1078   7.725   1.369   6.234 -0.5867 -0.6633 -0.7947
    8MOL0     H 1079   7.804   0.718   6.687  2.1834  2.0858  1.7812
    8MOL0     H 1080   7.736   0.591   6.473  1.3304  0.1911  2.2021
    9MOL0     O 1081   8.488   6.146   7.499  0.3721 -0.4018  0.0470
    9MOL0     C 1082   8.439   6.246   7.550 -0.3540 -0.1903  1.1212
    9MOL0     O 1083   8.493   6.380   7.539  0.9373 -0.5374 -0.7578
    9MOL0     C 1084   8.624   6.417   7.511  0.3372 -0.2983  0.1017
    9MOL0     C 1085   8.646   6.555   7.502  0.2111 -0.7133  1.1744
    9MOL0     C 1086   8.776   6.599   7.482 -0.1907  0.1005 -0.3233
    9MOL0     C 1087   8.883   6.522   7.469  0.8303 -0.2667  0.1725
    9MOL0     O 1088   9.012   6.559   7.444  0.7226 -0.1735 -0.9352
    9MOL0     C 1089   9.031   6.692   7.407 -0.5882  0.0781  1.2040
    9MOL0     C 1090   9.185   6.718   7.396 -0.2722  0.1295  0.3165
    9MOL0     C 1091   9.258   6.715   7.533  0.3490 -0.5001  0.9074
    9MOL0     C 1092   9.286   6.579   7.588  0.1544 -0.3670  0.6039
    9MOL0     C 1093   9.360   6.590   7.716 -0.7084  0.7394  1.2675
    9MOL0     C 1094   9.346   6.453   7.788  0.0338  0.0065 -0.2217
    9MOL0     C 1095   9.436   6.429   7.915  0.5918  0.6208  0.0987
    9MOL0     C 1096   9.434   6.277   7.963 -0.2302 -1.1255  0.0611
    9MOL0     N 1097   9.297   6.232   7.964 -0.6868  0.4803  0.4597
    9MOL0     C 1098   9.220   6.223   8.081 -0.1115 -0.7511 -0.3195
    9MOL0     C 1099   9.109   6.165   8.034  1.6156 -1.0591 -0.6408
    9MOL0     C 1100   8.980   6.157   8.108  0.3031 -0.4126  1.0490
    9MOL0     C 1101   9.020   6.135   8.256  0.6660 -0.2514 -0.1003
    9MOL0     C 1102   8.917   6.094   8.364 -0.1699  0.6997  0.7380
    9MOL0     C 1103   8.789   6.167   8.346 -0.4021 -0.1770  0.2917
    9MOL0     O 1104   8.703   6.132   8.460  0.1243  0.3994  0.1200
    9MOL0     C 1105   8.605   6.038   8.437  0.2089  0.4534 -1.0393
    9MOL0     C 1106   8.602   5.948   8.323 -0.1515  0.0735 -0.8862
    9MOL0     C 1107   8.501   5.846   8.306  0.2777  0.2915 -0.6356
    9MOL0     C 1108   8.507   5.757   8.189 -1.1913 -0.8430 -0.8975
    9MOL0     C 1109   8.393   5.845   8.395  0.1144 -0.3887 -0.6047
    9MOL0     C 1110   8.274   5.741   8.399 -0.2839 -0.3884  0.5678
    9MOL0     O 1111   8.222   5.707   8.521 -0.2417 -0.0248  0.9376
    9MOL0     C 1112   8.089   5.671   8.533 -0.1878 -0.4881 -0.5484
    9MOL0     C 1113   8.056   5.648   8.673  0.6745 -0.2137 -0.1431
    9MOL0     C 1114   7.923   5.616   8.706  0.4796 -0.3225 -0.1219
    9MOL0     C 1115   7.820   5.609   8.613  0.9321  0.1494  0.0220
    9MOL0     O 1116   7.698   5.565   8.652  0.8830  0.2026  0.3365
    9MOL0     C 1117   7.594   5.603   8.567 -0.0819  0.6802  0.2151
    9MOL0     C 1118   7.468   5.582   8.641 -0.2095  0.1272  0.6078
    9MOL0     C 1119   7.336   5.621   8.576 -0.3160  0.1919 -1.2355
    9MOL0     C 1120   7.322   5.565   8.433 -0.6965 -0.0380 -0.8798
    9MOL0     C 1121   7.177   5.549   8.389  0.5076  0.2062 -0.6754
    9MOL0     C 1122   7.163   5.461   8.265  0.3021 -0.6615  0.0135
    9MOL0     C 1123   7.027   5.414   8.213  0.0827 -0.3627 -0.2299
    9MOL0     C 1124   6.952   5.533   8.181  0.3674 -0.6840  0.3521
    9MOL0    Cl 1125   6.872   5.599   8.329 -0.0764 -0.4589 -0.0431
    9MOL0     C 1126   7.862   5.612   8.473 -0.3150 -0.3113 -0.3648
    9MOL0     C 1127   7.990   5.648   8.437  0.1258 -1.3466 -0.1513
    9MOL0     O 1128   8.233   5.714   8.286  0.9337  0.4607 -0.5889
    9MOL0     C 1129   8.395   5.934   8.504  0.1951 -0.1085 -0.0009
    9MOL0     C 1130   8.502   6.029   8.531  0.7224  0.0484 -0.1288
    9MOL0     N 1131   9.123   6.151   7.898 -0.0374 -0.2756 -0.1059
    9MOL0     N 1132   9.231   6.185   7.857  0.4606  0.2686  0.3887
    9MOL0     C 1133   8.863   6.384   7.480  0.0142  0.1935 -0.3522
    9MOL0     C 1134   8.737   6.329   7.504  0.5880 -0.3879 -0.0180
    9MOL0     C 1135   8.309   6.231   7.625 -0.2007 -0.0728  0.5692
    9MOL0     C 1136   8.268   6.328   7.711  0.0560 -0.0005  0.2874
    9MOL0     C 1137   8.143   6.319   7.784 -0.7261 -0.3722 -0.3028
    9MOL0     C 1138   8.066   6.211   7.769 -0.1177  0.3896  0.3052
    9MOL0     O 1139   7.941   6.198   7.837  0.8542 -0.0703  0.3421
    9MOL0     C 1140   7.864   6.317   7.852  0.7681 -1.1711  0.5032
    9MOL0     C 1141   7.713   6.286   7.844  0.9653  0.2936  0.4871
    9MOL0     C 1142   7.673   6.282   7.694 -0.6941  0.1944 -0.4181
    9MOL0     C 1143   7.569   6.177   7.663  0.2631  0.0277  0.4633
    9MOL0     C 1144   7.447   6.209   7.720  0.4778  0.2298  0.2055
    9MOL0     C 1145   7.341   6.237   7.756  0.1570  0.6375 -0.7388
    9MOL0     C 1146   8.099   6.118   7.670  0.2525  0.2620  0.5415
    9MOL0     C 1147   8.222   6.126   7.603 -0.6293 -0.6834  0.1398
    9MOL0     H 1148   8.570   6.632   7.515  1.5953  0.6107  1.8016
    9MOL0     H 1149   8.780   6.708   7.477 -1.6841  0.1641 -0.8673
    9MOL0     H 1150   8.982   6.707   7.311  1.4384  1.1364  0.2598
    9MOL0     H 1151   8.995   6.758   7.488 -0.8170 -0.3901  1.4862
    9MOL0     H 1152   9.232   6.650   7.325 -2.3174 -1.4650  0.4203
    9MOL0     H 1153   9.204   6.810   7.340  0.7460 -0.2706 -0.0209
    9MOL0     H 1154   9.350   6.774   7.527  0.7747 -1.1671  0.6799
    9MOL0     H 1155   9.209   6.760   7.620  0.2705 -1.4161  1.3495
    9MOL0     H 1156   9.185   6.537   7.589 -0.2740  0.6039  2.3888
    9MOL0     H 1157   9.347   6.529   7.513 -0.4101 -0.3199  0.1033
    9MOL0     H 1158   9.465   6.599   7.688 -1.1083 -2.7878 -2.3224
    9MOL0     H 1159   9.331   6.660   7.795  0.0463 -0.0429  2.2793
    9MOL0     H 1160   9.245   6.437   7.826  0.1282  0.1448  0.0996
    9MOL0     H 1161   9.349   6.368   7.719  0.8377 -1.1458  1.1753
    9MOL0     H 1162   9.529   6.481   7.889  1.5872 -0.4972  1.2953
    9MOL0     H 1163   9.387   6.479   7.999  0.6281  0.0065  0.4914
    9MOL0     H 1164   9.474   6.275   8.064 -1.9783  3.4064  1.0885
    9MOL0     H 1165   9.502   6.224   7.895 -0.4790 -3.1462  1.3143
    9MOL0     H 1166   9.236   6.252   8.184  0.2491  3.2425 -1.3190
    9MOL0     H 1167   8.927   6.251   8.086 -0.6676 -1.0178  0.7511
    9MOL0     H 1168   8.930   6.074   8.059 -0.2601  0.4385  0.1391
    9MOL0     H 1169   9.050   6.237   8.285  0.2429 -0.8247  2.7139
    9MOL0     H 1170   9.103   6.065   8.269 -1.7073 -2.9861  1.4679
    9MOL0     H 1171   8.962   6.115   8.462  2.9690 -1.4028 -0.1092
    9MOL0     H 1172   8.902   5.986   8.352  2.4922  0.6068 -3.8451
    9MOL0     H 1173   8.746   6.141   8.249 -1.7036 -0.7305  0.9872
    9MOL0     H 1174   8.804   6.275   8.352  1.6700 -0.3922 -0.2498
    9MOL0     H 1175   8.674   5.949   8.242  2.6491  0.2270  1.4607
    9MOL0     H 1176   8.434   5.767   8.109 -1.2155 -0.6277 -0.8493
    9MOL0     H 1177   8.603   5.765   8.138 -1.1364 -0.5163 -0.7466
    9MOL0     H 1178   8.496   5.654   8.225  0.6055 -0.7997 -0.0925
    9MOL0     H 1179   8.129   5.676   8.748 -1.8202  0.6108  2.1207
    9MOL0     H 1180   7.891   5.598   8.808 -2.2584  0.2335 -0.7957
    9MOL0     H 1181   7.601   5.712   8.564 -0.0205  0.6831  0.4733
    9MOL0     H 1182   7.598   5.545   8.474 -1.3518 -2.5305  2.0028
    9MOL0     H 1183   7.449   5.481   8.678 -0.3982  0.2218  0.7671
    9MOL0     H 1184   7.486   5.656   8.719 -3.1210 -0.8346  2.3389
    9MOL0     H 1185   7.333   5.730   8.587  3.4159  0.1464  2.7993
    9MOL0     H 1186   7.254   5.583   8.638 -0.2821  2.0497  0.0218
    9MOL0     H 1187   7.376   5.637   8.372 -0.4428  0.0094 -0.6017
    9MOL0     H 1188   7.373   5.468   8.426 -2.6225 -1.3025  1.1411
    9MOL0     H 1189   7.132   5.647   8.378 -3.0547 -1.4561 -2.5546
    9MOL0     H 1190   7.130   5.492   8.469 -0.0734 -0.7489 -1.6617
    9MOL0     H 1191   7.208   5.519   8.184  1.5335  0.4418  1.4375
    9MOL0     H 1192   7.223   5.372   8.284  3.3380  1.6614  2.1853
    9MOL0     H 1193   6.971   5.346   8.278  1.8136  1.2270  3.1937
    9MOL0     H 1194   7.059   5.362   8.122  0.9360  0.7000 -0.5640
    9MOL0     H 1195   6.884   5.492   8.106  0.0118 -0.3765  0.5035
    9MOL0     H 1196   7.010   5.613   8.133  0.3585 -0.8511  0.0602
    9MOL0     H 1197   7.784   5.590   8.400 -1.4022  2.6566 -0.2478
    9MOL0     H 1198   8.014   5.646   8.331  1.1297 -1.6800  0.0738
    9MOL0     H 1199   8.317   5.925   8.578  0.6198 -0.9666  0.3464
    9MOL0     H 1200   8.494   6.080   8.627  1.4165 -3.2530  1.8291
    9MOL0     H 1201   8.939   6.312   7.453 -0.6807 -0.2214 -1.2638
    9MOL0     H 1202   8.720   6.223   7.523  0.1027  0.1242  2.8714
    9MOL0     H 1203   8.338   6.409   7.728  0.2833  0.0558 -0.8315
    9MOL0     H 1204   8.118   6.408   7.842  1.9953  1.7222 -2.0676
    9MOL0     H 1205   7.869   6.357   7.954 -0.2578  0.4767 -0.0427
    9MOL0     H 1206   7.889   6.396   7.780 -0.7919 -0.0931  1.0950
    9MOL0     H 1207   7.651   6.362   7.893  0.9124 -0.2078  1.2018
    9MOL0     H 1208   7.686   6.192   7.892  2.3660 -0.8261 -0.8364
    9MOL0     H 1209   7.758   6.251   7.632 -1.9274 -0.9708 -1.5861
    9MOL0     H 1210   7.651   6.386   7.667  2.1003  0.8075 -0.6697
    9MOL0     H 1211   7.597   6.074   7.687  1.3128  0.4935  1.3250
    9MOL0     H 1212   7.560   6.180   7.554  2.0211  1.6635  0.3071
    9MOL0     H 1213   7.247   6.273   7.793  0.1754  0.5288 -0.5895
    9MOL0     H 1214   8.036   6.032   7.651  1.6441 -0.7331  0.2710
    9MOL0     H 1215   8.249   6.041   7.541  0.7662 -0.6096  0.5935
   10MOL0     O 1216   7.404   2.288   4.404  0.4322 -0.6001 -0.7726
   10MOL0     C 1217   7.412   2.407   4.455 -0.3899 -1.7364  0.7883
   10MOL0     O 1218   7.505   2.497   4.414 -0.3508  0.1732 -0.1402
   10MOL0     C 1219   7.617   2.458   4.342 -0.0010 -0.2512 -0.1861
   10MOL0     C 1220   7.622   2.437   4.205 -0.3906 -0.3041  0.1077
   10MOL0     C 1221   7.741   2.397   4.144 -0.7703  0.9070  0.6776
   10MOL0     C 1222   7.859   2.389   4.223 -0.7281 -0.0894  0.1428
   10MOL0     O 1223   7.983   2.351   4.167 -0.4088  0.1448 -0.1663
   10MOL0     C 1224   8.039   2.459   4.096  0.0500  0.4113 -0.2361
   10MOL0     C 1225   8.171   2.410   4.038 -1.0817  0.6498  0.3664
   10MOL0     C 1226   8.162   2.335   3.906 -0.6057  0.8546 -0.6239
   10MOL0     C 1227   8.177   2.186   3.931  0.0748  0.1268  0.0594
   10MOL0     C 1228   8.321   2.151   3.961  0.2595  0.1366  0.1277
   10MOL0     C 1229   8.321   2.003   4.008  0.0979 -0.6149 -0.2306
   10MOL0     C 1230   8.449   1.921   3.965  0.0301 -0.3692 -0.0830
   10MOL0     C 1231   8.465   1.776   4.028  0.2510 -0.3037  0.3223
   10MOL0     N 1232   8.594   1.722   3.994  0.2210  0.1576 -0.1400
   10MOL0     C 1233   8.626   1.649   3.881  0.2129  0.0879 -1.0309
   10MOL0     C 1234   8.756   1.625   3.887 -0.1888 -0.4066  0.6304
   10MOL0     C 1235   8.832   1.545   3.787 -0.2476 -0.8455  0.1563
   10MOL0     C 1236   8.744   1.478   3.665 -0.6826 -0.3055  0.0479
   10MOL0     C 1237   8.674   1.351   3.704 -0.7998 -0.4644 -0.8140
   10MOL0     C 1238   8.786   1.235   3.729  0.3299  0.9479  0.9021
   10MOL0     O 1239   8.706   1.112   3.717 -0.4487 -0.0101 -0.2738
   10MOL0     C 1240   8.774   0.987   3.732 -0.0526 -0.3903 -0.1991
   10MOL0     C 1241   8.703   0.876   3.697  0.3170  0.9093  0.1273
   10MOL0     C 1242   8.747   0.743   3.710 -0.6334  0.3170  0.6495
   10MOL0     C 1243   8.648   0.625   3.685  0.2591 -0.0487 -0.1283
   10MOL0     C 1244   8.888   0.729   3.754  0.0599 -0.6279 -0.1008
   10MOL0     C 1245   8.966   0.621   3.769 -0.4348 -0.3492 -0.5807
   10MOL0     O 1246   9.102   0.626   3.765 -0.1628  0.1433  0.4485
   10MOL0     C 1247   9.194   0.530   3.759 -0.8618  0.3454  0.4726
   10MOL0     C 1248   9.325   0.568   3.783  0.0486  0.2120 -0.3222
   10MOL0     C 1249   9.428   0.480   3.780  0.1833  0.4984 -0.5449
   10MOL0     C 1250   9.413   0.350   3.734 -0.4729 -0.3049  0.5578
   10MOL0     O 1251   9.537   0.288   3.710 -0.2222  0.4884  0.1847
   10MOL0     C 1252   9.536   0.174   3.627 -0.6229 -0.3090  0.8296
   10MOL0     C 1253   9.684   0.151   3.596 -0.3360  1.1609 -0.5510
   10MOL0     C 1254   9.738   0.257   3.504 -0.0828  0.7343 -0.6309
   10MOL0     C 1255   9.745   0.408   3.554 -0.2611 -0.3970  0.9310
   10MOL0     C 1256   9.806   0.498   3.451 -0.5499 -0.3630 -0.0255
   10MOL0     C 1257   9.950   0.512   3.484  0.1213 -0.0089 -0.7369
   10MOL0     C 1258  10.023   0.593   3.373  0.3906  0.6305 -0.4458
   10MOL0     C 1259   9.968   0.728   3.354 -0.8894  0.0707 -0.7418
   10MOL0    Cl 1260   9.950   0.812   3.513 -0.1177 -0.4362  0.0694
   10MOL0     C 1261   9.279   0.301   3.707 -0.6115  0.0512  0.5988
   10MOL0     C 1262   9.170   0.392   3.725 -0.0112 -1.1077 -0.2261
   10MOL0     O 1263   8.904   0.517   3.778  0.7021  0.1594  0.1038
   10MOL0     C 1264   8.952   0.843   3.792 -0.3957  0.5646  0.2185
   10MOL0     C 1265   8.899   0.972   3.786 -0.0115 -0.0686  0.6755
   10MOL0     N 1266   8.800   1.677   4.008 -0.0990 -0.2679 -0.2059
   10MOL0     N 1267   8.697   1.716   4.075 -0.2376 -0.2826  0.2478
   10MOL0     C 1268   7.858   2.426   4.359 -0.1839  0.5466 -0.4578
   10MOL0     C 1269   7.740   2.454   4.411 -0.0960 -0.8237 -0.7151
   10MOL0     C 1270   7.304   2.457   4.542 -0.7191 -0.4972  0.3737
   10MOL0     C 1271   7.323   2.577   4.607 -0.4695  1.0023  0.3135
   10MOL0     C 1272   7.230   2.647   4.678  0.6847  0.2336 -1.1350
   10MOL0     C 1273   7.100   2.590   4.696 -0.1973 -0.5451  0.0848
   10MOL0     O 1274   6.989   2.660   4.746  0.1010 -0.6435 -0.8916
   10MOL0     C 1275   6.998   2.766   4.832  0.3430 -0.5955  0.1007
   10MOL0     C 1276   7.040   2.714   4.971 -0.1885 -0.2989  0.6612
   10MOL0     C 1277   6.934   2.630   5.051  0.4793  0.8124  0.0293
   10MOL0     C 1278   6.995   2.592   5.181  0.6329  0.2193 -0.1241
   10MOL0     C 1279   6.896   2.517   5.265 -0.0126  0.4695  0.3864
   10MOL0     C 1280   6.797   2.465   5.327 -0.4631  0.2528 -0.4005
   10MOL0     C 1281   7.083   2.470   4.632  0.3329  0.6401 -0.3038
   10MOL0     C 1282   7.179   2.402   4.559  0.6123 -0.7737  1.1275
   10MOL0     H 1283   7.535   2.439   4.140 -1.0166  0.5180  0.9398
   10MOL0     H 1284   7.733   2.378   4.037  0.7119 -0.4136  0.7603
   10MOL0     H 1285   7.975   2.503   4.019  2.0714  5.6033  0.6406
   10MOL0     H 1286   8.055   2.541   4.166  0.5561 -2.5643  3.4454
   10MOL0     H 1287   8.232   2.498   4.018  0.0664 -0.3994 -0.9474
   10MOL0     H 1288   8.222   2.354   4.117 -2.6964 -2.5271 -0.6367
   10MOL0     H 1289   8.062   2.341   3.864 -1.1684 -1.2745  0.2783
   10MOL0     H 1290   8.230   2.373   3.829 -0.5579  3.3146  0.5338
   10MOL0     H 1291   8.112   2.161   4.016 -0.4439 -1.9493 -0.8792
   10MOL0     H 1292   8.138   2.129   3.846 -1.0844 -0.4606  0.9476
   10MOL0     H 1293   8.374   2.154   3.866  2.0793 -0.4296  1.0708
   10MOL0     H 1294   8.359   2.219   4.038  0.9749 -0.0405 -0.0676
   10MOL0     H 1295   8.307   2.007   4.117 -2.3064  1.6799 -0.5259
   10MOL0     H 1296   8.231   1.964   3.961 -1.4005  2.6005 -0.2969
   10MOL0     H 1297   8.451   1.913   3.856 -0.4117 -0.0479 -0.1154
   10MOL0     H 1298   8.532   1.980   4.003 -1.3224  0.8505  1.0805
   10MOL0     H 1299   8.385   1.706   4.001  0.6627 -0.6813  0.0739
   10MOL0     H 1300   8.465   1.790   4.136  1.0682  3.0450  0.0114
   10MOL0     H 1301   8.568   1.607   3.799  0.9062 -0.6238 -1.1620
   10MOL0     H 1302   8.907   1.615   3.751 -1.2891  1.5508  2.2829
   10MOL0     H 1303   8.884   1.470   3.846  0.3598 -1.2716 -0.9014
   10MOL0     H 1304   8.811   1.459   3.581 -1.2719 -0.7507 -0.3299
   10MOL0     H 1305   8.660   1.541   3.632 -1.9594 -1.9239  0.0398
   10MOL0     H 1306   8.610   1.321   3.620 -0.9651  2.7838 -1.9820
   10MOL0     H 1307   8.617   1.372   3.795  0.6963  0.2835 -0.0239
   10MOL0     H 1308   8.835   1.247   3.826  3.9661 -1.3383 -0.4599
   10MOL0     H 1309   8.873   1.235   3.662  1.4905 -2.7362  2.1772
   10MOL0     H 1310   8.595   0.881   3.686 -0.4690 -2.3740  3.7978
   10MOL0     H 1311   8.547   0.650   3.650  0.1300 -0.5768 -0.1506
   10MOL0     H 1312   8.693   0.549   3.621  0.2175 -0.0924 -0.1067
   10MOL0     H 1313   8.636   0.569   3.779 -0.9248  0.1994 -0.1076
   10MOL0     H 1314   9.352   0.669   3.811 -1.8724  0.9175 -0.8168
   10MOL0     H 1315   9.525   0.525   3.801  0.4580  0.1658 -1.0587
   10MOL0     H 1316   9.486   0.088   3.671 -0.5971 -0.5478  0.3983
   10MOL0     H 1317   9.494   0.195   3.528  2.7452  2.5651 -0.2221
   10MOL0     H 1318   9.739   0.153   3.690 -1.7893 -0.2625  0.3955
   10MOL0     H 1319   9.695   0.051   3.552 -2.6842  0.4147  0.3489
   10MOL0     H 1320   9.683   0.246   3.411 -2.8240 -2.4706  1.1104
   10MOL0     H 1321   9.844   0.233   3.490 -0.1743  0.1983 -0.4621
   10MOL0     H 1322   9.645   0.446   3.577  0.0333  1.5343 -0.6984
   10MOL0     H 1323   9.799   0.412   3.648 -0.6964  2.7279  1.1274
   10MOL0     H 1324   9.754   0.594   3.458 -1.7106 -1.0865  2.1623
   10MOL0     H 1325   9.796   0.466   3.347  0.4358  1.4749 -0.7376
   10MOL0     H 1326   9.962   0.563   3.580  1.8235 -0.0285 -0.9123
   10MOL0     H 1327   9.998   0.414   3.496 -1.4004 -0.6093  0.8311
   10MOL0     H 1328  10.007   0.525   3.288 -6.6877  0.1470  0.6668
   10MOL0     H 1329  10.128   0.593   3.405 -0.0866 -1.6769  1.4570
   10MOL0     H 1330   9.869   0.725   3.309 -1.0364 -0.0811 -0.4078
   10MOL0     H 1331  10.034   0.784   3.287  0.0107  3.0626  2.3123
   10MOL0     H 1332   9.261   0.201   3.670  0.9050 -0.1198  0.2912
   10MOL0     H 1333   9.068   0.355   3.716  0.9206 -4.5041  1.5238
   10MOL0     H 1334   9.049   0.831   3.837 -0.3025  1.7979  0.3867
   10MOL0     H 1335   8.971   1.047   3.818  1.1227 -0.8169 -0.0416
   10MOL0     H 1336   7.947   2.425   4.421 -0.3410  3.6041 -0.0390
   10MOL0     H 1337   7.740   2.498   4.510 -3.6788  0.1314 -0.9911
   10MOL0     H 1338   7.422   2.622   4.605 -1.3049  2.9951  0.5568
   10MOL0     H 1339   7.263   2.733   4.735 -0.2659  1.6689 -2.6561
   10MOL0     H 1340   7.075   2.837   4.801 -2.1142  1.3814 -1.9829
   10MOL0     H 1341   6.904   2.821   4.824 -0.8406 -2.4869  0.2222
   10MOL0     H 1342   7.061   2.796   5.041  2.1857  1.4087 -1.8344
   10MOL0     H 1343   7.131   2.654   4.968 -0.0691 -0.0938 -2.1182
   10MOL0     H 1344   6.912   2.544   4.988 -0.7078  1.4444 -0.4685
   10MOL0     H 1345   6.854   2.704   5.066  1.4901  1.9881 -0.1539
   10MOL0     H 1346   7.031   2.686   5.225  5.0113 -0.7313 -1.2397
   10MOL0     H 1347   7.086   2.532   5.175  2.0128  2.3551 -2.2203
   10MOL0     H 1348   6.712   2.418   5.374 -1.2598 -0.7093 -2.6650
   10MOL0     H 1349   6.987   2.426   4.657  1.2967 -1.2999  0.1776
   10MOL0     H 1350   7.159   2.305   4.514  0.2623 -0.9059  1.5641
   11MOL0     O 1351   9.396  11.190   1.815  0.0328 -0.4030 -0.6362
   11MOL0     C 1352   9.374  11.069   1.840  0.1366 -1.1106  0.0451
   11MOL0     O 1353   9.258  11.013   1.867 -0.2422  0.3585  0.0436
   11MOL0     C 1354   9.153  11.100   1.883  0.1468 -0.6527 -0.8048
   11MOL0     C 1355   9.036  11.082   1.812 -0.0119 -0.0963  0.5408
   11MOL0     C 1356   8.917  11.158   1.820 -0.3724  0.5868  0.8919
   11MOL0     C 1357   8.913  11.262   1.914 -0.1745  0.4642  0.1830
   11MOL0     O 1358   8.805  11.343   1.947 -0.3492 -0.0844 -0.3156
   11MOL0     C 1359   8.676  11.278   1.958 -0.4359  0.8116 -0.0976
   11MOL0     C 1360   8.579  11.390   1.979 -0.5726 -0.2483 -0.5572
   11MOL0     C 1361   8.436  11.328   2.016 -0.1321 -0.0298  0.2890
   11MOL0     C 1362   8.366  11.268   1.902 -0.0703 -0.5065  0.4190
   11MOL0     C 1363   8.221  11.269   1.918  1.4142 -0.6712 -0.4154
   11MOL0     C 1364   8.146  11.214   1.789 -0.1042  0.4846 -0.4846
   11MOL0     C 1365   7.995  11.192   1.799  0.2772 -0.8038  0.1572
   11MOL0     C 1366   7.937  11.151   1.659  0.1725  0.2928 -0.4486
   11MOL0     N 1367   7.802  11.092   1.688  0.4556  0.2729  0.0935
   11MOL0     C 1368   7.778  10.958   1.713  0.1565 -0.7972 -0.4099
   11MOL0     C 1369   7.651  10.954   1.763 -0.2190 -0.5837 -0.1215
   11MOL0     C 1370   7.586  10.827   1.815  0.2984  0.2845  0.5285
   11MOL0     C 1371   7.490  10.765   1.710 -0.3136  0.1638 -0.1665
   11MOL0     C 1372   7.448  10.626   1.759 -0.2164 -0.5267  0.2345
   11MOL0     C 1373   7.314  10.574   1.690 -0.7523  0.2751 -0.0096
   11MOL0     O 1374   7.335  10.549   1.557 -0.0902 -0.2036 -0.2078
   11MOL0     C 1375   7.407  10.439   1.519  0.1245 -0.9476  1.0671
   11MOL0     C 1376   7.431  10.326   1.600 -0.2019  0.2858 -0.4728
   11MOL0     C 1377   7.529  10.230   1.574 -0.1687 -0.5529  0.2336
   11MOL0     C 1378   7.579  10.128   1.682 -0.1529  1.0697 -0.3789
   11MOL0     C 1379   7.578  10.232   1.440 -0.2881  0.4834  0.1940
   11MOL0     C 1380   7.686  10.145   1.388  0.4422 -0.2074 -0.3291
   11MOL0     O 1381   7.780  10.199   1.304  0.4478  0.3511 -0.0065
   11MOL0     C 1382   7.847  10.119   1.221  0.5257 -0.2884 -0.5411
   11MOL0     C 1383   7.798  10.095   1.101  0.2633 -0.4293  0.3905
   11MOL0     C 1384   7.865  10.009   1.006 -0.5391 -0.7313  0.3644
   11MOL0     C 1385   7.976   9.952   1.052 -0.7577  0.2582  0.3236
   11MOL0     O 1386   8.059   9.877   0.963  0.8100 -0.6689  0.1409
   11MOL0     C 1387   8.122   9.966   0.875  0.4817  0.2238 -0.0224
   11MOL0     C 1388   8.275   9.950   0.881  0.2414  1.0253  0.8691
   11MOL0     C 1389   8.354   9.998   0.764 -0.2656 -0.3645  0.6293
   11MOL0     C 1390   8.497   9.947   0.749  0.3141  0.3257 -0.9936
   11MOL0     C 1391   8.582   9.954   0.879  0.4477 -0.3684  0.3274
   11MOL0     C 1392   8.601  10.091   0.916 -0.0283 -0.6411  0.8500
   11MOL0     C 1393   8.671  10.114   1.049  0.1071 -0.1061 -0.5114
   11MOL0     C 1394   8.784  10.022   1.088 -0.0075  0.8973  1.1861
   11MOL0    Cl 1395   8.856  10.044   1.245  0.3194 -0.2933 -0.4687
   11MOL0     C 1396   8.024   9.971   1.182 -0.7791 -0.0382  0.6394
   11MOL0     C 1397   7.955  10.055   1.269 -0.2049 -0.0262  0.0437
   11MOL0     O 1398   7.657  10.027   1.403  0.6687 -1.0555 -0.4345
   11MOL0     C 1399   7.540  10.333   1.348 -0.0232  0.6917 -0.2434
   11MOL0     C 1400   7.463  10.438   1.391 -0.1646 -0.4462  0.6456
   11MOL0     N 1401   7.596  11.080   1.776 -0.0435 -0.6135  0.5333
   11MOL0     N 1402   7.689  11.157   1.729 -0.1051  0.3983  0.5812
   11MOL0     C 1403   9.028  11.287   1.986 -0.3856 -0.4601 -0.3134
   11MOL0     C 1404   9.147  11.203   1.981 -0.0136  0.4719  0.8105
   11MOL0     C 1405   9.485  10.982   1.844  0.5159  0.0501 -0.9719
   11MOL0     C 1406   9.610  11.020   1.807 -0.0331  0.2800  0.4762
   11MOL0     C 1407   9.717  10.925   1.818  0.6316 -0.4673  0.5818
   11MOL0     C 1408   9.712  10.793   1.855 -0.0682  0.2629 -0.4171
   11MOL0     O 1409   9.837  10.727   1.868  0.1397  0.5016  0.7600
   11MOL0     C 1410   9.828  10.590   1.929 -0.3371  0.9569 -0.4224
   11MOL0     C 1411   9.879  10.611   2.075  1.2412 -0.1928 -0.4348
   11MOL0     C 1412   9.929  10.479   2.139 -0.0211 -0.1930 -0.1653
   11MOL0     C 1413   9.987  10.496   2.276  0.8861  0.0333  0.1995
   11MOL0     C 1414  10.114  10.552   2.284 -0.2852 -0.8372  0.4994
   11MOL0     C 1415  10.227  10.586   2.314  0.1821  0.2389  1.9997
   11MOL0     C 1416   9.577  10.751   1.890 -0.2677 -0.7439 -0.1685
   11MOL0     C 1417   9.470  10.848   1.892 -0.1663 -0.1350 -0.9709
   11MOL0     H 1418   9.044  11.017   1.726  1.1377  0.8982 -0.1235
   11MOL0     H 1419   8.836  11.139   1.751  1.6930 -2.6455 -0.9395
   11MOL0     H 1420   8.668  11.223   1.864  2.4853  0.6051 -0.3198
   11MOL0     H 1421   8.674  11.210   2.044 -0.4907 -1.0199 -1.4912
   11MOL0     H 1422   8.604  11.475   2.043 -3.2072 -0.0718  0.3483
   11MOL0     H 1423   8.569  11.438   1.881 -2.4867  1.7183  0.5160
   11MOL0     H 1424   8.429  11.260   2.102 -2.0570 -1.3555 -0.8396
   11MOL0     H 1425   8.376  11.413   2.051 -0.3722 -0.2903  0.5172
   11MOL0     H 1426   8.378  11.314   1.804 -1.6121 -1.0612 -0.0470
   11MOL0     H 1427   8.399  11.165   1.893  0.9520 -0.3036  1.5335
   11MOL0     H 1428   8.201  11.215   2.011  2.2995  0.1451  0.2570
   11MOL0     H 1429   8.189  11.373   1.934  0.3134 -0.9027 -1.0026
   11MOL0     H 1430   8.167  11.285   1.709  1.2041  0.4458 -0.1837
   11MOL0     H 1431   8.186  11.115   1.767 -2.1568 -0.3939 -0.5235
   11MOL0     H 1432   7.972  11.112   1.870 -3.9970 -1.4413 -1.6261
   11MOL0     H 1433   7.942  11.276   1.844 -3.0072 -3.0595  0.8581
   11MOL0     H 1434   8.008  11.078   1.619  0.7282  0.2905  0.5069
   11MOL0     H 1435   7.944  11.236   1.591  2.4219 -1.3298 -2.3878
   11MOL0     H 1436   7.837  10.869   1.694 -1.6305 -1.9604 -0.7929
   11MOL0     H 1437   7.664  10.755   1.844  1.5896  1.5553  0.2892
   11MOL0     H 1438   7.533  10.832   1.910 -0.9320  1.0977 -0.1828
   11MOL0     H 1439   7.539  10.756   1.612  0.7233  0.6120  0.3010
   11MOL0     H 1440   7.402  10.826   1.687 -0.1222 -0.1548 -1.8721
   11MOL0     H 1441   7.418  10.634   1.864 -0.2791 -0.9950  0.2521
   11MOL0     H 1442   7.528  10.552   1.746 -0.9292 -1.2923  0.1696
   11MOL0     H 1443   7.236  10.650   1.688 -0.7515  0.2714 -0.9626
   11MOL0     H 1444   7.282  10.481   1.737  0.7094 -1.9930 -3.0913
   11MOL0     H 1445   7.382  10.313   1.697  2.1599  1.9130  1.0366
   11MOL0     H 1446   7.564  10.021   1.665  1.0799  0.8108  0.1177
   11MOL0     H 1447   7.688  10.138   1.682 -0.0998  0.6279  0.9217
   11MOL0     H 1448   7.537  10.159   1.778  1.1558  1.3880  0.1127
   11MOL0     H 1449   7.699  10.132   1.076 -0.4205 -2.6100 -0.3587
   11MOL0     H 1450   7.834   9.991   0.904  1.1047  0.7123 -0.4275
   11MOL0     H 1451   8.082   9.929   0.780 -0.6523 -5.0107  2.1559
   11MOL0     H 1452   8.113  10.075   0.887  1.7756  0.6453 -2.1782
   11MOL0     H 1453   8.315   9.982   0.977  0.1763 -1.4589  1.8181
   11MOL0     H 1454   8.285   9.841   0.873 -0.9108  0.8353  1.7685
   11MOL0     H 1455   8.344  10.106   0.760  1.4773 -0.1764 -2.8852
   11MOL0     H 1456   8.302   9.952   0.679 -2.4580  1.7069  0.7558
   11MOL0     H 1457   8.502   9.847   0.705  0.8764 -0.2460  0.2981
   11MOL0     H 1458   8.555  10.000   0.673  2.0954  0.0795  0.1220
   11MOL0     H 1459   8.683   9.916   0.860  1.0041  2.4053 -3.3757
   11MOL0     H 1460   8.526   9.901   0.957  2.5217  0.3616  2.4280
   11MOL0     H 1461   8.666  10.119   0.833  2.4811 -1.7248  2.3347
   11MOL0     H 1462   8.504  10.143   0.918  1.0411  1.4308  1.0827
   11MOL0     H 1463   8.598  10.108   1.129 -2.4188  1.1867 -2.5618
   11MOL0     H 1464   8.704  10.218   1.043  3.4917 -1.0748 -0.5917
   11MOL0     H 1465   8.853  10.023   1.003 -0.3117 -1.0374  0.8718
   11MOL0     H 1466   8.755   9.917   1.103  3.9088 -0.7852 -1.3236
   11MOL0     H 1467   8.120   9.926   1.208 -0.3420  0.7343  0.4158
   11MOL0     H 1468   7.987  10.071   1.372  0.0215  0.3878 -0.0869
   11MOL0     H 1469   7.590  10.349   1.253  4.6513 -1.9833  1.4535
   11MOL0     H 1470   7.447  10.535   1.344 -2.4639 -0.7349  0.7368
   11MOL0     H 1471   9.051  11.365   2.058  1.1025  0.0478 -1.2733
   11MOL0     H 1472   9.237  11.224   2.038  0.0558 -0.2992  0.9903
   11MOL0     H 1473   9.615  11.123   1.774  0.0135  0.0392 -0.3104
   11MOL0     H 1474   9.820  10.952   1.795  0.7416  0.1042  1.6672
   11MOL0     H 1475   9.731  10.540   1.917  0.2194 -1.7588  3.9948
   11MOL0     H 1476   9.903  10.525   1.884  0.6334  1.7087  0.0687
   11MOL0     H 1477   9.798  10.658   2.132  1.9905  0.3059  0.2324
   11MOL0     H 1478   9.966  10.677   2.082  0.6770  0.6442 -1.0427
   11MOL0     H 1479  10.010  10.442   2.075  1.2879  1.6449  0.3168
   11MOL0     H 1480   9.855  10.399   2.129 -0.0546 -0.1320 -0.4291
   11MOL0     H 1481   9.973  10.399   2.324  0.5129 -0.7440 -1.4203
   11MOL0     H 1482   9.928  10.565   2.338 -0.3879 -1.5697  0.8644
   11MOL0     H 1483  10.322  10.633   2.331  0.2629  0.6475  0.4899
   11MOL0     H 1484   9.567  10.646   1.916 -1.0757 -0.7114 -0.3100
   11MOL0     H 1485   9.373  10.807   1.916 -0.1033  0.9163  1.3232
   12MOL0     O 1486   4.896   2.792   0.955 -0.1067 -0.6623  0.4851
   12MOL0     C 1487   4.782   2.761   0.996  0.2152 -0.5343  0.6566
   12MOL0     O 1488   4.666   2.770   0.919 -0.6667 -0.0177  0.2390
   12MOL0     C 1489   4.662   2.813   0.786 -0.9529  1.4497  0.5910
   12MOL0     C 1490   4.546   2.875   0.745  0.3582  0.7567  0.2815
   12MOL0     C 1491   4.538   2.917   0.614  1.0900 -0.5651 -0.2948
   12MOL0     C 1492   4.631   2.882   0.519  0.3676  0.4958 -0.3737
   12MOL0     O 1493   4.610   2.910   0.382  0.1245 -0.6294 -0.0195
   12MOL0     C 1494   4.656   2.817   0.288 -0.7183  0.9045  1.0813
   12MOL0     C 1495   4.574   2.689   0.312 -0.4875  0.7068  1.2026
   12MOL0     C 1496   4.427   2.695   0.271  0.7936 -0.3183  0.2262
   12MOL0     C 1497   4.388   2.547   0.238 -0.1451  0.7853  0.7475
   12MOL0     C 1498   4.418   2.438   0.345 -1.0064 -0.3205 -0.0158
   12MOL0     C 1499   4.354   2.458   0.488  0.1168  0.7572  0.0680
   12MOL0     C 1500   4.400   2.346   0.582  0.0736  0.0089 -0.3306
   12MOL0     C 1501   4.344   2.212   0.527  0.2322 -0.1622 -0.4808
   12MOL0     N 1502   4.195   2.206   0.548  0.6539  0.3433 -0.5704
   12MOL0     C 1503   4.107   2.199   0.443 -0.3421  0.1250 -0.8752
   12MOL0     C 1504   3.988   2.178   0.500 -0.2845 -0.3897  0.0037
   12MOL0     C 1505   3.855   2.158   0.430  0.0978  0.0198 -0.0381
   12MOL0     C 1506   3.816   2.014   0.405 -0.3758 -0.0860  0.3236
   12MOL0     C 1507   3.905   1.935   0.308 -0.7089  0.1131 -0.1803
   12MOL0     C 1508   3.845   1.804   0.274 -0.0685  1.7778 -1.0543
   12MOL0     O 1509   3.935   1.717   0.202 -0.2310  0.2336  0.2753
   12MOL0     C 1510   3.889   1.632   0.113  0.3499  0.1835  0.1601
   12MOL0     C 1511   3.989   1.588   0.025 -0.8369 -0.9269  0.0969
   12MOL0     C 1512   3.961   1.498  -0.076 -0.2102 -0.0795  0.8811
   12MOL0     C 1513   4.082   1.430  -0.133 -0.1094 -0.0195 -0.2867
   12MOL0     C 1514   3.827   1.465  -0.117 -0.4011 -0.2313 -0.5859
   12MOL0     C 1515   3.780   1.382  -0.234 -0.3493  0.5490  0.3863
   12MOL0     O 1516   3.651   1.367  -0.254 -0.5932 -0.7806  0.4788
   12MOL0     C 1517   3.590   1.278  -0.343 -0.8975 -0.3623  0.1397
   12MOL0     C 1518   3.653   1.178  -0.430  0.2692 -0.1775 -0.5066
   12MOL0     C 1519   3.572   1.084  -0.490  0.3396 -0.0257 -0.2098
   12MOL0     C 1520   3.424   1.072  -0.475 -0.4014  0.2684  0.8931
   12MOL0     O 1521   3.343   0.981  -0.530  0.2019 -0.5186 -0.2744
   12MOL0     C 1522   3.303   0.881  -0.440  0.3293  1.2241 -0.3283
   12MOL0     C 1523   3.243   0.761  -0.515 -0.2692 -1.0927 -0.6353
   12MOL0     C 1524   3.203   0.650  -0.421 -0.3712  0.6321  1.0093
   12MOL0     C 1525   3.132   0.538  -0.499  0.6089  0.0787 -0.6240
   12MOL0     C 1526   3.110   0.414  -0.414 -0.4680 -0.6663 -0.7551
   12MOL0     C 1527   3.024   0.307  -0.474  0.2949 -0.4413  0.9267
   12MOL0     C 1528   3.016   0.190  -0.384  0.1075 -0.4767  0.4774
   12MOL0     C 1529   2.922   0.079  -0.434 -0.7647 -0.1174 -0.3979
   12MOL0    Cl 1530   2.916  -0.057  -0.312  0.1023 -0.2141  0.3205
   12MOL0     C 1531   3.367   1.182  -0.412 -0.1782  0.2893 -0.2773
   12MOL0     C 1532   3.452   1.273  -0.336  0.4980 -0.4330 -0.1611
   12MOL0     O 1533   3.864   1.316  -0.297  0.3460 -0.5661  0.0097
   12MOL0     C 1534   3.723   1.521  -0.030  0.2141  0.1263 -1.0137
   12MOL0     C 1535   3.751   1.601   0.085  0.2306 -0.0819 -0.4175
   12MOL0     N 1536   3.996   2.171   0.638 -0.6123 -0.0171  0.1985
   12MOL0     N 1537   4.120   2.177   0.659  0.2907 -1.2317 -0.2432
   12MOL0     C 1538   4.749   2.818   0.560  0.3638 -0.4521 -0.5585
   12MOL0     C 1539   4.769   2.793   0.696 -0.7329  0.5875 -0.7138
   12MOL0     C 1540   4.785   2.698   1.131  0.1563  0.9105 -0.5569
   12MOL0     C 1541   4.895   2.643   1.196  0.1225 -0.5825  0.0856
   12MOL0     C 1542   4.888   2.592   1.327  0.5885 -0.2229  0.5894
   12MOL0     C 1543   4.761   2.588   1.387 -0.3575  0.2435 -0.2672
   12MOL0     O 1544   4.758   2.537   1.510  0.7386 -0.4269 -0.2045
   12MOL0     C 1545   4.640   2.534   1.593  0.3342 -0.6368 -0.7558
   12MOL0     C 1546   4.617   2.664   1.673  0.3311 -0.2466 -0.5070
   12MOL0     C 1547   4.510   2.660   1.784 -0.0634  0.1741 -1.1980
   12MOL0     C 1548   4.472   2.799   1.846 -0.6468  0.4101  0.4751
   12MOL0     C 1549   4.388   2.886   1.764  0.1859  0.3183  0.2038
   12MOL0     C 1550   4.320   2.968   1.699  0.5615  0.8356  0.1324
   12MOL0     C 1551   4.641   2.635   1.325  0.4823  1.1745  0.0081
   12MOL0     C 1552   4.657   2.687   1.195  0.2736 -0.2903  1.0987
   12MOL0     H 1553   4.464   2.895   0.813 -0.3648 -2.1304  0.3672
   12MOL0     H 1554   4.451   2.977   0.590  2.8222  1.2469 -2.4460
   12MOL0     H 1555   4.633   2.846   0.185 -1.9929 -1.1289  0.7450
   12MOL0     H 1556   4.760   2.786   0.280 -1.7723 -2.5785 -5.6496
   12MOL0     H 1557   4.617   2.618   0.241 -0.0540  2.4746 -0.3790
   12MOL0     H 1558   4.598   2.648   0.411  0.1327 -1.9214  0.0398
   12MOL0     H 1559   4.361   2.732   0.349  0.8402  1.4996 -0.5595
   12MOL0     H 1560   4.408   2.743   0.175 -0.2215  0.2480  0.6922
   12MOL0     H 1561   4.284   2.544   0.205  0.9886 -0.8461 -3.2155
   12MOL0     H 1562   4.444   2.509   0.153  0.4387 -1.2024  1.9494
   12MOL0     H 1563   4.386   2.343   0.300  0.6266 -1.0999  0.3955
   12MOL0     H 1564   4.527   2.440   0.351 -0.7912  4.6691 -1.2076
   12MOL0     H 1565   4.392   2.548   0.537  1.0125  1.3619 -1.6657
   12MOL0     H 1566   4.246   2.473   0.479 -0.1908 -0.0239  1.8763
   12MOL0     H 1567   4.508   2.331   0.576  0.1580  1.1193 -3.2690
   12MOL0     H 1568   4.370   2.366   0.685  1.1610 -0.0185  0.0048
   12MOL0     H 1569   4.384   2.133   0.591 -0.9715 -0.6951 -0.3651
   12MOL0     H 1570   4.369   2.190   0.423 -2.4360  1.7431 -1.6294
   12MOL0     H 1571   4.121   2.206   0.336 -0.3767  2.1696 -0.7755
   12MOL0     H 1572   3.786   2.196   0.506  1.0369 -0.5545  1.1480
   12MOL0     H 1573   3.845   2.221   0.341 -1.6618  1.8421  1.3628
   12MOL0     H 1574   3.712   2.007   0.373 -0.1387 -5.9010 -0.2413
   12MOL0     H 1575   3.810   1.962   0.501 -3.4621 -1.8284 -0.6807
   12MOL0     H 1576   3.994   1.923   0.370 -1.9758  0.5988  1.8307
   12MOL0     H 1577   3.918   1.983   0.211  0.6256 -2.7098 -1.5053
   12MOL0     H 1578   3.751   1.825   0.221 -0.1364  1.0361 -1.2453
   12MOL0     H 1579   3.816   1.745   0.362 -0.8412 -0.4600 -2.7118
   12MOL0     H 1580   4.092   1.606   0.055 -1.0782  0.3060  0.2097
   12MOL0     H 1581   4.078   1.434  -0.242 -0.0706 -1.4861 -0.3600
   12MOL0     H 1582   4.179   1.470  -0.104 -0.4595  0.8852 -0.3355
   12MOL0     H 1583   4.086   1.327  -0.097  1.7038  0.2488  0.3591
   12MOL0     H 1584   3.757   1.174  -0.460 -0.9104 -2.1209 -5.1497
   12MOL0     H 1585   3.622   1.005  -0.547  0.1872 -1.4712  1.5538
   12MOL0     H 1586   3.384   0.841  -0.378 -0.2067  1.1673  0.3475
   12MOL0     H 1587   3.234   0.936  -0.374 -1.3340 -0.0621 -0.9212
   12MOL0     H 1588   3.156   0.804  -0.566 -2.1785 -1.4872  2.0315
   12MOL0     H 1589   3.315   0.728  -0.590 -0.9511 -2.2044 -0.8333
   12MOL0     H 1590   3.127   0.685  -0.351 -1.3703 -0.2694  0.4096
   12MOL0     H 1591   3.289   0.614  -0.364  0.0974  1.0881  0.6069
   12MOL0     H 1592   3.034   0.583  -0.515 -0.2353 -0.6600  2.0881
   12MOL0     H 1593   3.180   0.506  -0.592  0.2787  0.8421 -1.0672
   12MOL0     H 1594   3.070   0.444  -0.317 -1.4883  0.0074 -1.3624
   12MOL0     H 1595   3.208   0.373  -0.389  1.1456  3.2904  0.1196
   12MOL0     H 1596   2.922   0.341  -0.494  0.9738  0.0685 -2.2464
   12MOL0     H 1597   3.052   0.275  -0.574 -1.5262  3.4245 -1.0468
   12MOL0     H 1598   2.994   0.215  -0.280  3.0728 -1.6941  1.5042
   12MOL0     H 1599   3.112   0.138  -0.384 -1.1513 -2.9591 -0.4536
   12MOL0     H 1600   2.950   0.041  -0.533  0.1068 -0.7450  0.0727
   12MOL0     H 1601   2.827   0.129  -0.456 -0.1347  1.3583  0.1039
   12MOL0     H 1602   3.262   1.204  -0.395 -0.0399  1.2003 -0.5438
   12MOL0     H 1603   3.396   1.349  -0.281  3.5668  1.6352  0.3384
   12MOL0     H 1604   3.619   1.499  -0.047  0.6991 -0.9565 -2.8108
   12MOL0     H 1605   3.666   1.642   0.139  0.5869  4.2384 -2.6677
   12MOL0     H 1606   4.819   2.789   0.482  0.8581  3.7149 -1.9008
   12MOL0     H 1607   4.864   2.742   0.703 -0.3611  1.3338 -0.1334
   12MOL0     H 1608   4.985   2.660   1.138 -1.0576 -1.6896 -2.1994
   12MOL0     H 1609   4.970   2.527   1.357  0.6447 -0.4419 -0.0078
   12MOL0     H 1610   4.546   2.521   1.539 -2.2977  3.1142  2.4196
   12MOL0     H 1611   4.643   2.442   1.652 -2.5112 -0.0841  0.3816
   12MOL0     H 1612   4.584   2.737   1.598  3.0374  2.9619  1.1171
   12MOL0     H 1613   4.715   2.694   1.713  0.6713  0.1946 -1.6427
   12MOL0     H 1614   4.551   2.612   1.873 -1.1750  0.3731 -0.5577
   12MOL0     H 1615   4.419   2.608   1.752  1.6151 -3.6327 -0.4274
   12MOL0     H 1616   4.562   2.860   1.860 -0.6675  0.5346  0.0682
   12MOL0     H 1617   4.404   2.785   1.931 -1.2059  2.0178  0.3237
   12MOL0     H 1618   4.258   3.027   1.634  0.8218  3.0333  1.7545
   12MOL0     H 1619   4.540   2.622   1.363  1.1395 -1.7452  1.0304
   12MOL0     H 1620   4.575   2.727   1.135 -0.1761 -1.2460  1.0417
   13MOL0     O 1621   2.961   3.610   5.251 -0.2268 -0.1605  0.0742
   13MOL0     C 1622   3.050   3.630   5.337  0.4269  0.8055  0.3067
   13MOL0     O 1623   3.164   3.551   5.354 -0.3781 -0.4111 -0.5397
   13MOL0     C 1624   3.180   3.441   5.278  0.3772  0.6080 -0.5503
   13MOL0     C 1625   3.152   3.321   5.343 -0.7201 -0.2610 -0.6311
   13MOL0     C 1626   3.187   3.198   5.288  0.4190  0.2271 -0.6497
   13MOL0     C 1627   3.230   3.198   5.164  1.1692  0.4298  0.1013
   13MOL0     O 1628   3.221   3.083   5.088 -1.1756 -0.1483  0.0738
   13MOL0     C 1629   3.333   3.063   5.002  0.5800  0.1064  0.2144
   13MOL0     C 1630   3.468   3.054   5.083 -0.3446 -0.0860 -0.1514
   13MOL0     C 1631   3.482   2.937   5.184  0.0354  0.0181  0.2919
   13MOL0     C 1632   3.402   2.955   5.324  0.2329 -0.0586 -0.3086
   13MOL0     C 1633   3.461   2.871   5.430  0.5754  0.0076  0.3469
   13MOL0     C 1634   3.442   2.719   5.400 -0.1064  0.0717  0.7560
   13MOL0     C 1635   3.299   2.681   5.475  0.6672 -0.1979 -0.6549
   13MOL0     C 1636   3.241   2.541   5.437  0.7699  0.5143 -0.1126
   13MOL0     N 1637   3.310   2.437   5.501  0.3350  0.7419 -0.0515
   13MOL0     C 1638   3.268   2.379   5.618  0.2038  0.2136 -0.0878
   13MOL0     C 1639   3.362   2.284   5.636  0.2227  0.1530  0.3521
   13MOL0     C 1640   3.356   2.161   5.728 -0.0064 -1.0555  0.4698
   13MOL0     C 1641   3.354   2.200   5.877  0.2142  0.3538 -0.6087
   13MOL0     C 1642   3.213   2.222   5.935  0.3855 -0.1048  0.7589
   13MOL0     C 1643   3.202   2.265   6.078 -0.0325 -0.0489 -0.4778
   13MOL0     O 1644   3.189   2.157   6.175  0.2820 -0.4319 -0.1514
   13MOL0     C 1645   3.285   2.154   6.272  0.1350  0.0656  0.1449
   13MOL0     C 1646   3.232   2.123   6.397 -0.3029 -0.0219  0.4302
   13MOL0     C 1647   3.315   2.137   6.510  0.3719  0.0696  0.3675
   13MOL0     C 1648   3.260   2.108   6.653  0.2377  0.6813  0.4749
   13MOL0     C 1649   3.461   2.156   6.491 -0.3052 -0.4778 -0.3403
   13MOL0     C 1650   3.553   2.154   6.606 -0.2629  0.5014  0.1462
   13MOL0     O 1651   3.629   2.268   6.626  0.4957 -0.0946 -0.1271
   13MOL0     C 1652   3.770   2.278   6.612  0.5156  0.4797  0.5130
   13MOL0     C 1653   3.845   2.183   6.541 -0.2456 -0.5546  0.0184
   13MOL0     C 1654   3.985   2.204   6.529 -0.2735  0.3384  0.0865
   13MOL0     C 1655   4.046   2.319   6.575 -0.7745 -0.2962  0.5884
   13MOL0     O 1656   4.176   2.325   6.535  0.1706 -0.2545  0.2392
   13MOL0     C 1657   4.239   2.454   6.543  0.0013  0.8616  0.6896
   13MOL0     C 1658   4.360   2.452   6.459  0.6339 -0.0853  0.6923
   13MOL0     C 1659   4.317   2.479   6.310  0.5392 -0.0566  0.2119
   13MOL0     C 1660   4.435   2.520   6.217 -0.5947 -0.2581  0.4834
   13MOL0     C 1661   4.387   2.570   6.079  0.1394  0.2224  0.4607
   13MOL0     C 1662   4.500   2.605   5.978  0.1449  0.3056 -0.0272
   13MOL0     C 1663   4.437   2.672   5.847  0.6675 -0.3666  0.2060
   13MOL0     C 1664   4.377   2.817   5.884 -0.0108 -0.2145 -0.2427
   13MOL0    Cl 1665   4.339   2.914   5.736 -0.4184  0.1277 -0.3937
   13MOL0     C 1666   3.962   2.415   6.645  1.7431  0.8778 -0.2707
   13MOL0     C 1667   3.822   2.393   6.658  0.3428 -0.3532 -1.0010
   13MOL0     O 1668   3.574   2.045   6.657 -0.7031 -0.6180 -0.5832
   13MOL0     C 1669   3.514   2.178   6.362 -0.0608 -0.1357 -0.4428
   13MOL0     C 1670   3.421   2.178   6.258  0.8601 -1.6781  0.5237
   13MOL0     N 1671   3.460   2.298   5.552  0.4486  0.9017 -0.1356
   13MOL0     N 1672   3.428   2.380   5.459  0.2502 -0.0888  1.1759
   13MOL0     C 1673   3.249   3.318   5.087  0.8866  0.4849  0.5886
   13MOL0     C 1674   3.220   3.441   5.145  0.2800  0.5087 -0.1226
   13MOL0     C 1675   3.028   3.742   5.428  0.2809 -0.4630 -0.0521
   13MOL0     C 1676   2.901   3.805   5.451 -0.1561 -0.4134 -0.6289
   13MOL0     C 1677   2.883   3.912   5.545  0.4545 -0.3491  0.3284
   13MOL0     C 1678   2.995   3.957   5.612 -0.3955 -0.3885 -0.6210
   13MOL0     O 1679   2.995   4.063   5.697 -0.0545  0.5859  0.3714
   13MOL0     C 1680   2.882   4.144   5.706  0.2803 -0.5723 -0.5799
   13MOL0     C 1681   2.932   4.279   5.760  1.5794 -0.9188 -1.7469
   13MOL0     C 1682   3.043   4.345   5.686  0.3418 -0.9324 -0.3351
   13MOL0     C 1683   3.032   4.498   5.690  0.3751  0.5505 -1.0168
   13MOL0     C 1684   3.068   4.561   5.820  0.5823  0.0172 -0.0068
   13MOL0     C 1685   3.076   4.604   5.932 -1.1162 -0.0286  0.8341
   13MOL0     C 1686   3.120   3.906   5.584  0.8667 -0.3869 -0.3565
   13MOL0     C 1687   3.128   3.797   5.504 -0.2990 -0.7282  0.1525
   13MOL0     H 1688   3.123   3.325   5.448 -1.9496  1.4212 -1.0077
   13MOL0     H 1689   3.170   3.114   5.355  1.4295  2.1903  2.2851
   13MOL0     H 1690   3.318   2.961   4.965 -3.4953 -0.4454  2.7360
   13MOL0     H 1691   3.346   3.138   4.923  0.7577 -0.2289 -0.0742
   13MOL0     H 1692   3.552   3.038   5.014  0.8715  0.2022  1.2236
   13MOL0     H 1693   3.490   3.147   5.136  1.0535  1.2055 -2.7811
   13MOL0     H 1694   3.447   2.846   5.135 -1.5912  0.0335  1.3594
   13MOL0     H 1695   3.589   2.935   5.205  1.2720  0.6035 -4.6138
   13MOL0     H 1696   3.415   3.061   5.348  0.8637  0.7816 -3.7007
   13MOL0     H 1697   3.294   2.947   5.312  0.2088 -2.2316  0.8001
   13MOL0     H 1698   3.567   2.901   5.436  0.3249  1.4911 -1.5014
   13MOL0     H 1699   3.408   2.896   5.522 -1.9827  0.0781 -1.0674
   13MOL0     H 1700   3.432   2.700   5.293  0.4232  0.2045  0.6839
   13MOL0     H 1701   3.516   2.648   5.439 -0.4034 -1.5337 -1.3683
   13MOL0     H 1702   3.322   2.676   5.582  0.3654  2.3940 -0.4100
   13MOL0     H 1703   3.221   2.756   5.462 -1.7016 -2.5683 -0.8352
   13MOL0     H 1704   3.235   2.515   5.331 -0.2734  1.7443 -0.3943
   13MOL0     H 1705   3.136   2.553   5.467 -0.4034 -1.3370 -3.0783
   13MOL0     H 1706   3.174   2.380   5.672 -1.2440 -0.6135 -2.4171
   13MOL0     H 1707   3.262   2.113   5.703 -0.5067  0.0838  0.0703
   13MOL0     H 1708   3.438   2.091   5.710 -0.2422 -1.2371  0.1084
   13MOL0     H 1709   3.403   2.297   5.894 -3.1511  1.9676  0.8361
   13MOL0     H 1710   3.416   2.130   5.934 -1.2549 -1.9263 -1.7027
   13MOL0     H 1711   3.156   2.131   5.914 -0.5252  1.2005 -3.2289
   13MOL0     H 1712   3.166   2.300   5.875  1.5913  1.7700  2.1526
   13MOL0     H 1713   3.109   2.320   6.088 -1.3196 -1.8100 -2.0659
   13MOL0     H 1714   3.286   2.332   6.099 -0.6494  0.7486 -0.5028
   13MOL0     H 1715   3.126   2.098   6.403 -0.4050  0.1345 -0.4911
   13MOL0     H 1716   3.317   2.026   6.697 -1.4194 -0.9543 -0.2938
   13MOL0     H 1717   3.269   2.199   6.712 -1.5644  0.9944  0.3219
   13MOL0     H 1718   3.153   2.083   6.657  0.9001 -2.5176  0.9947
   13MOL0     H 1719   3.800   2.091   6.505 -0.1854 -0.7093  0.3364
   13MOL0     H 1720   4.055   2.138   6.479 -0.1766  1.8514 -1.9345
   13MOL0     H 1721   4.174   2.536   6.509  1.0409  2.4188  2.3105
   13MOL0     H 1722   4.268   2.483   6.644  1.2598  1.8685  0.0645
   13MOL0     H 1723   4.425   2.537   6.479  2.4665 -0.8548 -1.5261
   13MOL0     H 1724   4.418   2.361   6.478  0.0055  0.1044  4.1510
   13MOL0     H 1725   4.235   2.547   6.284 -1.4422 -2.9524 -1.6451
   13MOL0     H 1726   4.271   2.383   6.286  2.1852 -0.7442 -0.3985
   13MOL0     H 1727   4.496   2.600   6.258  0.0371  0.1229 -1.1168
   13MOL0     H 1728   4.512   2.443   6.205 -1.0272 -0.5588 -0.4899
   13MOL0     H 1729   4.317   2.653   6.088 -0.4762 -0.2372 -0.0518
   13MOL0     H 1730   4.336   2.485   6.035 -0.9908  1.5418 -0.8694
   13MOL0     H 1731   4.565   2.667   6.040 -0.2907 -0.0709  0.8202
   13MOL0     H 1732   4.541   2.510   5.943  0.4788  0.2916  0.4005
   13MOL0     H 1733   4.359   2.608   5.806  0.6134 -0.0147 -0.2613
   13MOL0     H 1734   4.515   2.671   5.769  2.0613 -2.5615  1.5348
   13MOL0     H 1735   4.448   2.881   5.937 -1.7660  2.7545 -1.2352
   13MOL0     H 1736   4.288   2.813   5.946  1.9887 -0.4178  2.8071
   13MOL0     H 1737   3.992   2.511   6.686 -0.8649  0.3010  3.5299
   13MOL0     H 1738   3.758   2.474   6.692  2.2823  1.7238 -2.0422
   13MOL0     H 1739   3.621   2.197   6.356  1.1158 -5.3454 -0.2784
   13MOL0     H 1740   3.467   2.197   6.161 -1.0735  2.0222  0.1584
   13MOL0     H 1741   3.270   3.323   4.981 -0.8761  3.9614  0.2674
   13MOL0     H 1742   3.222   3.533   5.088  0.4356  0.4082 -0.2805
   13MOL0     H 1743   2.813   3.775   5.396 -2.2100  1.8402  1.1974
   13MOL0     H 1744   2.782   3.949   5.557  1.3150  2.0229  0.7217
   13MOL0     H 1745   2.837   4.159   5.607  0.2468 -1.2967 -0.6833
   13MOL0     H 1746   2.808   4.101   5.774  1.1448  0.6492  1.2208
   13MOL0     H 1747   2.953   4.282   5.867 -2.9130  0.2178 -0.7073
   13MOL0     H 1748   2.844   4.341   5.742 -1.6415 -2.7070  4.8545
   13MOL0     H 1749   3.049   4.316   5.580 -1.5534  1.2008 -1.0988
   13MOL0     H 1750   3.135   4.317   5.738 -0.5176 -1.8975  0.7153
   13MOL0     H 1751   2.938   4.530   5.645 -0.7735 -2.0312 -0.6074
   13MOL0     H 1752   3.110   4.532   5.621  3.1284 -3.0319 -0.0153
   13MOL0     H 1753   3.109   4.639   6.028 -2.5395 -3.0294  2.5863
   13MOL0     H 1754   3.206   3.941   5.640 -0.3564  0.5414  1.0148
   13MOL0     H 1755   3.227   3.755   5.489 -0.1671 -0.1053 -0.8175
   14MOL0     O 1756   3.865   3.777   5.151  0.0446  0.1270 -1.0856
   14MOL0     C 1757   3.738   3.771   5.141  0.0122 -0.8972 -1.0524
   14MOL0     O 1758   3.675   3.674   5.068  0.3799  0.5357  0.2042
   14MOL0     C 1759   3.729   3.564   5.008  1.0834 -0.1472 -0.6375
   14MOL0     C 1760   3.861   3.556   4.972  0.0135  0.3455  0.2748
   14MOL0     C 1761   3.895   3.436   4.915 -0.7709 -0.0302  0.3897
   14MOL0     C 1762   3.813   3.321   4.902 -0.1899 -0.8788 -0.2203
   14MOL0     O 1763   3.861   3.197   4.856 -0.0031 -0.3955 -0.1362
   14MOL0     C 1764   3.778   3.142   4.741 -0.2987 -0.2031 -1.2063
   14MOL0     C 1765   3.820   3.009   4.685  0.6745  0.5796 -0.5261
   14MOL0     C 1766   3.780   2.887   4.771  1.2689 -0.1118 -0.6650
   14MOL0     C 1767   3.635   2.855   4.791  0.2763  0.3023 -0.4489
   14MOL0     C 1768   3.608   2.742   4.886 -0.1893 -0.1155  0.0856
   14MOL0     C 1769   3.621   2.602   4.826  0.0982 -0.3078 -0.4364
   14MOL0     C 1770   3.628   2.497   4.939  0.2926  0.9818 -0.7323
   14MOL0     C 1771   3.538   2.512   5.071  0.4142 -0.3989  0.1452
   14MOL0     N 1772   3.397   2.521   5.025 -0.3709  0.0487 -0.3112
   14MOL0     C 1773   3.334   2.444   4.929 -0.1642  0.5798  0.1102
   14MOL0     C 1774   3.212   2.500   4.916  0.6380  0.3960 -0.7487
   14MOL0     C 1775   3.109   2.487   4.816 -0.3645  0.9158 -0.9790
   14MOL0     C 1776   2.988   2.436   4.890  0.4736  0.1254 -0.0609
   14MOL0     C 1777   2.869   2.409   4.796  1.3140 -0.6000  0.2338
   14MOL0     C 1778   2.768   2.310   4.855  0.1594  0.2670  0.3531
   14MOL0     O 1779   2.634   2.353   4.834 -0.0325  0.2196  0.9498
   14MOL0     C 1780   2.524   2.267   4.853 -0.0519 -0.1778  0.3891
   14MOL0     C 1781   2.529   2.143   4.912 -0.7154  0.6334  0.7283
   14MOL0     C 1782   2.415   2.058   4.913  0.5928 -0.5642  0.5061
   14MOL0     C 1783   2.430   1.914   4.941  0.2585 -0.2172  0.4259
   14MOL0     C 1784   2.285   2.113   4.872  0.4457  0.2638  0.0833
   14MOL0     C 1785   2.152   2.042   4.896  0.3467  0.1165 -0.4491
   14MOL0     O 1786   2.041   2.117   4.864 -0.5167  0.2199 -0.7759
   14MOL0     C 1787   1.923   2.042   4.863  0.0391  0.4564  1.1425
   14MOL0     C 1788   1.825   2.101   4.940  0.2812  0.7542 -0.1174
   14MOL0     C 1789   1.697   2.041   4.960  0.4594 -0.7871 -0.7392
   14MOL0     C 1790   1.675   1.924   4.901 -0.0902 -0.8065  0.6323
   14MOL0     O 1791   1.552   1.869   4.930  0.4470  0.3356  1.1063
   14MOL0     C 1792   1.542   1.727   4.966 -0.8515 -0.1109 -0.8120
   14MOL0     C 1793   1.634   1.704   5.088 -0.4585 -0.3210 -0.3477
   14MOL0     C 1794   1.602   1.789   5.219  0.1186  0.4108  0.6337
   14MOL0     C 1795   1.698   1.735   5.319  0.6538  0.2247  0.0960
   14MOL0     C 1796   1.686   1.787   5.459 -0.5658 -0.0563 -0.2102
   14MOL0     C 1797   1.789   1.716   5.545 -0.3377 -0.9225  0.7207
   14MOL0     C 1798   1.807   1.762   5.686 -0.7594  0.9414 -0.5195
   14MOL0     C 1799   1.950   1.790   5.724  0.3570  0.3176 -1.0881
   14MOL0    Cl 1800   2.028   1.921   5.630 -0.0767 -0.5369  0.5114
   14MOL0     C 1801   1.762   1.864   4.815  0.4281 -0.8795  0.4147
   14MOL0     C 1802   1.889   1.925   4.791  0.2138 -1.2162  0.4874
   14MOL0     O 1803   2.135   1.935   4.958 -0.2547 -0.3327  0.0888
   14MOL0     C 1804   2.279   2.248   4.845 -0.7809 -0.1393  0.0997
   14MOL0     C 1805   2.399   2.326   4.825 -0.8120 -0.2686  0.0500
   14MOL0     N 1806   3.200   2.603   5.006  0.2518  0.3082 -0.5733
   14MOL0     N 1807   3.315   2.624   5.066 -0.4884  1.1880 -0.6127
   14MOL0     C 1808   3.678   3.337   4.942 -0.7474  0.7433 -0.9331
   14MOL0     C 1809   3.634   3.462   4.992  0.2023 -0.0635  1.7662
   14MOL0     C 1810   3.651   3.873   5.202 -0.6571 -0.2192  0.0459
   14MOL0     C 1811   3.696   3.941   5.309 -0.7894 -0.7595  0.1544
   14MOL0     C 1812   3.630   4.045   5.370 -0.4863  0.2118 -0.4024
   14MOL0     C 1813   3.514   4.095   5.320  0.0095  0.5669 -0.4892
   14MOL0     O 1814   3.460   4.208   5.383  0.8699 -0.8246  0.1508
   14MOL0     C 1815   3.325   4.245   5.342 -0.1573 -0.1079 -0.1377
   14MOL0     C 1816   3.217   4.152   5.390  0.3260 -0.6119 -0.4879
   14MOL0     C 1817   3.099   4.161   5.294  0.3549  0.5383  0.3891
   14MOL0     C 1818   3.110   4.128   5.141 -0.5833  0.4882  0.3229
   14MOL0     C 1819   3.131   3.985   5.102 -0.0248 -0.0216  0.3406
   14MOL0     C 1820   3.153   3.875   5.074  0.8136  1.1893 -0.3806
   14MOL0     C 1821   3.462   4.025   5.211 -0.6590  0.9491 -0.2672
   14MOL0     C 1822   3.528   3.916   5.148 -0.3054  0.0582 -0.3615
   14MOL0     H 1823   3.925   3.642   4.987 -3.1415  3.0789 -0.6553
   14MOL0     H 1824   3.997   3.420   4.882 -1.0141  1.2529 -1.0708
   14MOL0     H 1825   3.676   3.147   4.780  1.2465  0.5459  3.3545
   14MOL0     H 1826   3.797   3.216   4.662  2.4039 -1.1166 -1.5228
   14MOL0     H 1827   3.781   2.995   4.584  1.3169 -0.2268 -0.6741
   14MOL0     H 1828   3.928   3.023   4.670  0.5219 -0.5913 -3.5240
   14MOL0     H 1829   3.834   2.801   4.731  0.2862 -0.6602 -0.8583
   14MOL0     H 1830   3.822   2.911   4.868 -1.4072 -2.6648  1.3091
   14MOL0     H 1831   3.591   2.945   4.836  3.3687  2.0908 -0.6950
   14MOL0     H 1832   3.587   2.847   4.693 -1.6622  1.1443  0.3790
   14MOL0     H 1833   3.679   2.741   4.968  2.2262 -2.1834 -1.8738
   14MOL0     H 1834   3.507   2.752   4.926  0.9091 -3.2468  4.3469
   14MOL0     H 1835   3.541   2.585   4.754  0.7628 -0.1844 -1.2119
   14MOL0     H 1836   3.713   2.602   4.767 -1.0129 -4.2258 -2.4512
   14MOL0     H 1837   3.603   2.408   4.881  1.8105  0.3187 -0.4161
   14MOL0     H 1838   3.731   2.486   4.974  0.6852  0.6571 -1.9584
   14MOL0     H 1839   3.578   2.591   5.136 -1.5726  0.0805  0.8563
   14MOL0     H 1840   3.544   2.422   5.133 -1.3012 -1.2054 -0.7893
   14MOL0     H 1841   3.375   2.363   4.870 -0.8500  0.9820 -0.9464
   14MOL0     H 1842   3.081   2.580   4.766 -2.9853  0.8474  0.2020
   14MOL0     H 1843   3.144   2.424   4.733 -2.8152  1.9157 -2.9034
   14MOL0     H 1844   2.959   2.497   4.976  1.1356  1.3781 -0.7002
   14MOL0     H 1845   3.021   2.344   4.937 -0.0185 -0.8663 -1.5732
   14MOL0     H 1846   2.910   2.381   4.698  2.0016  2.0071 -0.3069
   14MOL0     H 1847   2.813   2.503   4.786 -1.3279 -2.1818 -0.8653
   14MOL0     H 1848   2.792   2.294   4.961  1.8855 -1.5293 -0.2462
   14MOL0     H 1849   2.779   2.217   4.798  3.3503  0.8111 -0.0978
   14MOL0     H 1850   2.624   2.109   4.951  0.3946  2.7665  0.0195
   14MOL0     H 1851   2.537   1.897   4.957  0.8620  2.1359 -0.5888
   14MOL0     H 1852   2.363   1.900   5.026 -2.3260  2.3173 -0.9991
   14MOL0     H 1853   2.401   1.848   4.859 -4.1916  2.0520 -0.1250
   14MOL0     H 1854   1.855   2.182   5.005  0.7783  1.9806 -1.8110
   14MOL0     H 1855   1.617   2.085   5.020 -0.8338 -2.0083 -1.5116
   14MOL0     H 1856   1.440   1.696   4.990 -1.2348 -0.0528 -2.2644
   14MOL0     H 1857   1.576   1.667   4.881  0.9380  1.4735 -1.2832
   14MOL0     H 1858   1.626   1.598   5.114  3.0359 -0.7675 -0.6377
   14MOL0     H 1859   1.738   1.728   5.063  0.6205 -2.4194  1.7474
   14MOL0     H 1860   1.504   1.769   5.264  0.3477 -1.1671  0.4730
   14MOL0     H 1861   1.620   1.897   5.207 -0.2018  0.4441  0.4373
   14MOL0     H 1862   1.715   1.627   5.317  2.1310  0.4118  0.9125
   14MOL0     H 1863   1.795   1.775   5.289  0.6802 -0.1921 -0.3879
   14MOL0     H 1864   1.593   1.753   5.506  0.3195  1.5051  2.9742
   14MOL0     H 1865   1.678   1.895   5.471 -0.7430 -0.3293  3.1720
   14MOL0     H 1866   1.749   1.615   5.540 -0.4300 -0.8523 -3.0161
   14MOL0     H 1867   1.888   1.726   5.499 -0.4836 -0.2149  0.5538
   14MOL0     H 1868   1.783   1.674   5.746  1.6460 -1.0218 -2.2259
   14MOL0     H 1869   1.734   1.840   5.711  0.4717  1.4995  1.5543
   14MOL0     H 1870   1.998   1.694   5.702  0.7749  0.4713 -0.8680
   14MOL0     H 1871   1.966   1.793   5.832  1.7354 -1.9821 -1.1428
   14MOL0     H 1872   1.743   1.766   4.773 -2.8073 -0.9950  1.7802
   14MOL0     H 1873   1.962   1.875   4.728  1.5204  0.2497  0.7733
   14MOL0     H 1874   2.184   2.301   4.841  0.0278  1.5807  1.9556
   14MOL0     H 1875   2.375   2.426   4.790  1.0057 -0.1823 -1.0750
   14MOL0     H 1876   3.620   3.247   4.952  2.2551 -1.3436 -0.8690
   14MOL0     H 1877   3.536   3.479   5.035 -0.5250  0.5446 -0.0459
   14MOL0     H 1878   3.786   3.898   5.352  0.4569  0.4296 -1.1661
   14MOL0     H 1879   3.665   4.090   5.463  0.0057  2.0783 -1.4393
   14MOL0     H 1880   3.306   4.337   5.398 -2.6037 -0.9938  0.6087
   14MOL0     H 1881   3.322   4.265   5.234 -0.9919  1.2594  0.1221
   14MOL0     H 1882   3.188   4.191   5.488  3.0670 -0.6319  0.4219
   14MOL0     H 1883   3.246   4.047   5.396 -0.7796 -0.8453  2.1587
   14MOL0     H 1884   3.062   4.264   5.302  2.1997  1.5544 -2.6229
   14MOL0     H 1885   3.013   4.100   5.325 -0.7007  1.1690 -1.1992
   14MOL0     H 1886   3.186   4.188   5.089  0.1618  0.9825  1.9238
   14MOL0     H 1887   3.016   4.164   5.099 -1.7437 -1.3959  1.1772
   14MOL0     H 1888   3.198   3.781   5.047 -0.4208 -0.2535  2.2057
   14MOL0     H 1889   3.374   4.056   5.155 -0.7253  1.9196  0.3382
   14MOL0     H 1890   3.480   3.858   5.070  0.1020 -0.1356 -0.4687
   15MOL0     O 1891   1.479  10.175   4.730 -0.5293 -0.4601  0.5137
   15MOL0     C 1892   1.372  10.141   4.776  0.0978  0.0904  0.1131
   15MOL0     O 1893   1.253  10.206   4.759 -0.0067  0.7912 -0.1293
   15MOL0     C 1894   1.254  10.331   4.710  0.6869 -0.0952  1.2715
   15MOL0     C 1895   1.347  10.430   4.737  0.2579 -0.0070  0.1290
   15MOL0     C 1896   1.332  10.562   4.684 -0.2581  1.0910  0.2965
   15MOL0     C 1897   1.221  10.600   4.606 -1.1970  0.5212 -0.7346
   15MOL0     O 1898   1.189  10.720   4.560 -0.1893  0.0461  0.6577
   15MOL0     C 1899   1.271  10.836   4.570  0.2020  0.8271 -0.2559
   15MOL0     C 1900   1.268  10.885   4.426  0.3497  0.0462  0.6841
   15MOL0     C 1901   1.345  11.018   4.419  0.7024  1.5803 -0.6675
   15MOL0     C 1902   1.321  11.073   4.282  0.0012  0.9697 -0.1044
   15MOL0     C 1903   1.421  11.192   4.265  0.3829 -1.0002 -0.8000
   15MOL0     C 1904   1.362  11.330   4.327  0.0899  0.7715 -0.5645
   15MOL0     C 1905   1.463  11.443   4.306 -0.1057 -0.0540 -0.1714
   15MOL0     C 1906   1.406  11.582   4.350  0.3766 -0.9925  0.4576
   15MOL0     N 1907   1.502  11.696   4.333  0.4319  1.2239  0.4037
   15MOL0     C 1908   1.569  11.762   4.434  0.0431 -0.3440 -0.5103
   15MOL0     C 1909   1.648  11.857   4.373 -0.9434 -0.0252 -0.3682
   15MOL0     C 1910   1.719  11.967   4.447  1.0522  0.4605 -0.3632
   15MOL0     C 1911   1.638  12.105   4.436 -0.9333 -1.4835 -0.2443
   15MOL0     C 1912   1.660  12.171   4.301 -1.0169  0.5758  0.4223
   15MOL0     C 1913   1.552  12.281   4.277  0.2783  0.5802  0.3515
   15MOL0     O 1914   1.534  12.322   4.142 -0.2150 -0.4482 -0.3477
   15MOL0     C 1915   1.462  12.241   4.066 -0.1368  0.0066 -0.1072
   15MOL0     C 1916   1.401  12.116   4.101 -0.0590 -0.6171  0.0564
   15MOL0     C 1917   1.321  12.043   4.018  0.4380 -0.2973 -0.6885
   15MOL0     C 1918   1.268  11.911   4.079 -0.3375 -0.2382  0.3289
   15MOL0     C 1919   1.274  12.108   3.899 -0.0575  0.0406 -0.5880
   15MOL0     C 1920   1.178  12.049   3.799  0.1637  0.2164  0.1438
   15MOL0     O 1921   1.155  11.915   3.809  0.5008 -0.0335  0.2998
   15MOL0     C 1922   1.052  11.859   3.733 -0.0219 -0.2646  0.2295
   15MOL0     C 1923   1.085  11.791   3.612  0.1744  0.0796 -0.0306
   15MOL0     C 1924   0.983  11.742   3.529 -0.0941 -0.0669  0.6157
   15MOL0     C 1925   0.846  11.753   3.565 -0.7377  0.2664  0.4542
   15MOL0     O 1926   0.750  11.697   3.485 -0.6329  0.2668  0.0039
   15MOL0     C 1927   0.606  11.685   3.523 -0.5979  1.1984  0.0343
   15MOL0     C 1928   0.585  11.546   3.593  1.2105 -0.2447 -0.0687
   15MOL0     C 1929   0.609  11.425   3.503  0.5370 -0.0888 -0.4199
   15MOL0     C 1930   0.750  11.371   3.492  0.3876  0.5269  0.2680
   15MOL0     C 1931   0.759  11.306   3.356 -0.6325  0.1810  0.0120
   15MOL0     C 1932   0.693  11.178   3.339  0.0189 -0.4765  0.0483
   15MOL0     C 1933   0.688  11.132   3.190 -0.1059  0.1161  0.0173
   15MOL0     C 1934   0.825  11.105   3.143 -0.3188 -1.6097  0.0037
   15MOL0    Cl 1935   0.821  11.031   2.980  0.6107 -0.2381 -0.0336
   15MOL0     C 1936   0.821  11.822   3.688  0.6985 -0.6710  0.5535
   15MOL0     C 1937   0.919  11.872   3.769 -0.0044 -0.6846  0.4512
   15MOL0     O 1938   1.138  12.118   3.702  0.4922 -1.0362 -0.0452
   15MOL0     C 1939   1.336  12.230   3.871 -0.1650  0.0285  0.4510
   15MOL0     C 1940   1.428  12.287   3.950 -0.1735  0.5545 -0.5660
   15MOL0     N 1941   1.637  11.842   4.235 -0.0332 -0.3104  0.1307
   15MOL0     N 1942   1.548  11.756   4.223 -0.6214  0.1825 -0.5231
   15MOL0     C 1943   1.135  10.495   4.572  0.3774 -0.1280 -0.2208
   15MOL0     C 1944   1.140  10.368   4.628 -0.1393 -0.9541  0.2432
   15MOL0     C 1945   1.379  10.016   4.856 -0.4204 -0.7514  0.6188
   15MOL0     C 1946   1.261   9.951   4.890 -0.3776  0.0526 -0.9068
   15MOL0     C 1947   1.276   9.827   4.956 -0.2506  0.0747 -1.6538
   15MOL0     C 1948   1.395   9.770   4.991  0.6293 -0.0568 -0.1628
   15MOL0     O 1949   1.419   9.647   5.050  0.9846 -0.6335 -0.1658
   15MOL0     C 1950   1.303   9.594   5.105 -0.0763  0.4575  0.4057
   15MOL0     C 1951   1.348   9.462   5.162 -0.1599  0.6874 -1.1845
   15MOL0     C 1952   1.245   9.402   5.254  0.6391 -0.1409 -0.0420
   15MOL0     C 1953   1.317   9.296   5.330  0.2673  0.0877  0.2488
   15MOL0     C 1954   1.361   9.347   5.460 -0.2988 -0.2931 -0.7225
   15MOL0     C 1955   1.372   9.397   5.572 -0.5739  0.2232  0.5589
   15MOL0     C 1956   1.506   9.841   4.972 -0.9258  0.0536 -0.5731
   15MOL0     C 1957   1.501   9.964   4.904 -0.5751 -0.8445  0.2922
   15MOL0     H 1958   1.430  10.398   4.800  1.6378 -1.7660 -2.4223
   15MOL0     H 1959   1.404  10.637   4.716  4.4112 -2.1552 -1.6293
   15MOL0     H 1960   1.224  10.906   4.640  0.4640  0.2609  0.5129
   15MOL0     H 1961   1.373  10.819   4.606  0.4391 -1.3506 -1.7592
   15MOL0     H 1962   1.316  10.817   4.354 -1.3598 -1.8222  1.2123
   15MOL0     H 1963   1.162  10.895   4.403  0.3044 -0.8518  0.4499
   15MOL0     H 1964   1.307  11.084   4.498 -0.1477  0.9937 -0.5692
   15MOL0     H 1965   1.450  11.003   4.442  1.0910  1.0915 -2.5850
   15MOL0     H 1966   1.344  10.996   4.209 -2.3061  0.8448 -0.8057
   15MOL0     H 1967   1.216  11.097   4.259  0.1848  0.5527 -1.4668
   15MOL0     H 1968   1.515  11.169   4.316  0.6539  1.6744  0.0168
   15MOL0     H 1969   1.447  11.215   4.161  1.8150 -2.8356 -0.9081
   15MOL0     H 1970   1.262  11.348   4.286  0.4959  1.6881 -1.1881
   15MOL0     H 1971   1.354  11.333   4.436 -0.2511 -1.7747 -0.4695
   15MOL0     H 1972   1.554  11.407   4.355  0.2949  2.0357  0.7686
   15MOL0     H 1973   1.488  11.452   4.200 -0.5936 -0.5209 -0.3254
   15MOL0     H 1974   1.353  11.573   4.445  0.7498 -2.4445  0.5454
   15MOL0     H 1975   1.329  11.601   4.274  1.5628  2.5503 -0.0727
   15MOL0     H 1976   1.553  11.753   4.541  0.5369 -1.3633 -0.5148
   15MOL0     H 1977   1.713  11.931   4.551  0.7121  0.5644 -0.3443
   15MOL0     H 1978   1.821  11.983   4.411  0.4304  2.5938 -1.3117
   15MOL0     H 1979   1.679  12.177   4.507  0.7015 -3.8585  1.3732
   15MOL0     H 1980   1.534  12.097   4.467 -1.0911  2.5853  0.8025
   15MOL0     H 1981   1.672  12.099   4.220 -1.1487 -0.5729  1.4034
   15MOL0     H 1982   1.758  12.221   4.303  0.2742 -1.7725 -0.2574
   15MOL0     H 1983   1.581  12.366   4.340 -0.1223  1.4160 -0.5669
   15MOL0     H 1984   1.462  12.245   4.329  2.2889 -1.5198  2.6617
   15MOL0     H 1985   1.433  12.064   4.192 -2.2054 -0.4993  0.9352
   15MOL0     H 1986   1.162  11.895   4.056 -0.6647  3.6264 -1.8035
   15MOL0     H 1987   1.311  11.822   4.032 -0.6718  0.2895 -1.0094
   15MOL0     H 1988   1.280  11.911   4.188 -0.1614 -2.6097  0.3632
   15MOL0     H 1989   1.185  11.788   3.571 -0.3252 -0.1084 -1.2720
   15MOL0     H 1990   1.011  11.695   3.435  0.8029  0.5036  0.5852
   15MOL0     H 1991   0.573  11.774   3.578 -0.8778  0.6440  0.7802
   15MOL0     H 1992   0.544  11.682   3.433 -0.5542  0.5807  0.0265
   15MOL0     H 1993   0.650  11.551   3.681 -0.3424  2.4311  1.0441
   15MOL0     H 1994   0.488  11.547   3.643  2.1533  0.7069  1.8541
   15MOL0     H 1995   0.567  11.456   3.407  0.8915 -0.7709 -0.8022
   15MOL0     H 1996   0.556  11.338   3.541  3.6495 -1.6126  0.8331
   15MOL0     H 1997   0.817  11.457   3.495  2.1213 -0.7238 -0.6457
   15MOL0     H 1998   0.780  11.306   3.575  0.9340 -0.8563 -0.9693
   15MOL0     H 1999   0.866  11.284   3.349 -0.2075 -0.3537  4.6121
   15MOL0     H 2000   0.742  11.376   3.274 -0.4211  1.4641  1.0399
   15MOL0     H 2001   0.736  11.097   3.398 -1.4776 -1.5920 -0.3175
   15MOL0     H 2002   0.588  11.177   3.372 -0.2802  0.1434 -0.8354
   15MOL0     H 2003   0.649  11.212   3.126 -0.1841 -1.2192 -1.6554
   15MOL0     H 2004   0.619  11.047   3.183 -3.8045  2.6089  2.3835
   15MOL0     H 2005   0.868  11.032   3.212 -1.5610 -2.3919  0.0006
   15MOL0     H 2006   0.888  11.194   3.142  0.5077 -2.1786  0.7615
   15MOL0     H 2007   0.715  11.833   3.710  0.2196  0.9050 -2.2281
   15MOL0     H 2008   0.887  11.934   3.852  4.7761  1.2539  1.1811
   15MOL0     H 2009   1.321  12.279   3.775 -1.0260 -1.9471 -0.4694
   15MOL0     H 2010   1.483  12.373   3.913  0.3712 -0.0391 -1.1713
   15MOL0     H 2011   1.056  10.523   4.502  1.0019  2.4935  0.0315
   15MOL0     H 2012   1.053  10.307   4.608  0.6553 -2.3472  0.9119
   15MOL0     H 2013   1.161   9.987   4.866 -2.2536 -2.1559  2.8006
   15MOL0     H 2014   1.180   9.780   4.976  1.5745 -3.2332  0.2810
   15MOL0     H 2015   1.249   9.642   5.187 -0.4366  0.3130  0.2575
   15MOL0     H 2016   1.228   9.583   5.025  0.1141  2.0642 -0.0255
   15MOL0     H 2017   1.436   9.478   5.226 -1.4897 -1.7126  1.4989
   15MOL0     H 2018   1.361   9.398   5.074 -2.3519  1.3809 -2.0514
   15MOL0     H 2019   1.162   9.370   5.191  0.4075  2.0408 -0.9340
   15MOL0     H 2020   1.215   9.479   5.326  1.6041 -1.6122  2.0647
   15MOL0     H 2021   1.396   9.253   5.268 -0.6620 -0.9747 -0.2377
   15MOL0     H 2022   1.242   9.219   5.349  2.9099 -2.9294 -0.5361
   15MOL0     H 2023   1.395   9.443   5.666  0.5183  0.3229  0.2564
   15MOL0     H 2024   1.598   9.809   5.020 -0.6474  0.4747 -0.8185
   15MOL0     H 2025   1.592  10.019   4.882 -0.4458 -1.2925 -0.3167
   16MOL0     O 2026   7.512   1.615   3.183  0.0701 -0.7749 -0.0480
   16MOL0     C 2027   7.618   1.565   3.141  0.4411  0.2740  0.0637
   16MOL0     O 2028   7.652   1.438   3.116 -0.6082 -0.1221  0.3276
   16MOL0     C 2029   7.558   1.345   3.146 -0.3176 -0.1592  0.8012
   16MOL0     C 2030   7.440   1.347   3.076  0.6638 -0.2042 -0.6407
   16MOL0     C 2031   7.346   1.245   3.103 -0.9173 -0.4941 -0.3665
   16MOL0     C 2032   7.376   1.132   3.185 -0.0233  0.6957 -0.0090
   16MOL0     O 2033   7.297   1.028   3.208 -0.0684  0.5630 -0.1732
   16MOL0     C 2034   7.186   0.988   3.116 -0.4233  0.0514 -0.6638
   16MOL0     C 2035   7.173   0.828   3.124 -0.1645  0.0208 -1.0050
   16MOL0     C 2036   7.196   0.775   3.270  0.0561  0.4806 -0.1239
   16MOL0     C 2037   7.165   0.619   3.266 -0.0483  0.0963 -0.0413
   16MOL0     C 2038   7.152   0.548   3.402 -0.1039  0.0745  0.3947
   16MOL0     C 2039   7.155   0.394   3.377 -0.0104 -0.8796 -0.0836
   16MOL0     C 2040   7.113   0.312   3.494  0.0541 -0.5736 -0.6157
   16MOL0     C 2041   7.223   0.297   3.593  0.4424  0.8212 -0.3287
   16MOL0     N 2042   7.188   0.202   3.701 -1.3412 -0.1198  0.2596
   16MOL0     C 2043   7.195   0.242   3.827 -0.8022  0.5812 -0.8541
   16MOL0     C 2044   7.216   0.120   3.893 -0.6595  0.5831 -0.6363
   16MOL0     C 2045   7.240   0.096   4.036 -0.0586  0.2150 -0.5406
   16MOL0     C 2046   7.117   0.060   4.122 -0.0439 -0.5697  0.0958
   16MOL0     C 2047   7.161  -0.006   4.251  0.6127 -0.6791 -0.3743
   16MOL0     C 2048   7.138  -0.155   4.245  0.0171  0.4914 -0.7146
   16MOL0     O 2049   7.237  -0.211   4.164  0.3476 -0.4248  0.1711
   16MOL0     C 2050   7.236  -0.345   4.143 -0.8276  0.2712  0.3487
   16MOL0     C 2051   7.223  -0.443   4.245  0.7324 -0.2489 -0.1455
   16MOL0     C 2052   7.221  -0.578   4.209  0.6652  0.0687  0.0438
   16MOL0     C 2053   7.199  -0.662   4.335  0.8642  0.0062  0.2961
   16MOL0     C 2054   7.223  -0.631   4.074 -0.4331 -1.0442 -0.2712
   16MOL0     C 2055   7.182  -0.766   4.031  0.9984  0.5572 -0.0605
   16MOL0     O 2056   7.206  -0.863   4.119  0.2274  0.4963  0.0686
   16MOL0     C 2057   7.158  -0.984   4.087 -0.0137 -0.7028 -0.1297
   16MOL0     C 2058   7.210  -1.056   3.974 -0.2519  0.3484 -0.3174
   16MOL0     C 2059   7.167  -1.186   3.947  1.4880 -0.9188  0.3204
   16MOL0     C 2060   7.055  -1.238   4.029  0.3947 -0.8560  0.6367
   16MOL0     O 2061   6.986  -1.351   3.999  0.3672 -0.1133 -0.4334
   16MOL0     C 2062   7.055  -1.444   3.922 -0.0365  0.3559  0.0179
   16MOL0     C 2063   6.990  -1.576   3.942  0.3022  0.4391 -0.2949
   16MOL0     C 2064   6.846  -1.588   3.878  0.1379 -0.1052 -0.1768
   16MOL0     C 2065   6.773  -1.725   3.892  0.4542 -0.6574  0.2943
   16MOL0     C 2066   6.830  -1.819   3.777  0.4672 -0.3078 -0.3642
   16MOL0     C 2067   6.744  -1.959   3.767 -0.3182 -0.4606 -0.5035
   16MOL0     C 2068   6.814  -2.038   3.656  0.5177  0.6868  0.3928
   16MOL0     C 2069   6.749  -2.175   3.645  0.9133  0.1890 -0.6480
   16MOL0    Cl 2070   6.820  -2.272   3.775  0.2071 -0.1366 -0.1989
   16MOL0     C 2071   7.014  -1.172   4.147 -1.5300 -0.0167  0.0619
   16MOL0     C 2072   7.076  -1.046   4.180 -0.2344  0.8881 -0.6682
   16MOL0     O 2073   7.129  -0.780   3.918 -0.5848 -0.3519 -0.1992
   16MOL0     C 2074   7.237  -0.530   3.970  0.1653  0.4438  1.0857
   16MOL0     C 2075   7.244  -0.389   4.006 -0.2846 -0.4866 -0.8225
   16MOL0     N 2076   7.200   0.010   3.809  0.1600 -0.0424  0.2284
   16MOL0     N 2077   7.190   0.067   3.692 -0.7574  0.1693  0.3640
   16MOL0     C 2078   7.503   1.126   3.234 -0.6575 -0.3184  0.5766
   16MOL0     C 2079   7.591   1.229   3.220 -0.1949 -0.4058  0.7056
   16MOL0     C 2080   7.721   1.666   3.116 -0.4189  0.9344  0.4116
   16MOL0     C 2081   7.854   1.622   3.082 -0.1961 -0.6002  0.4554
   16MOL0     C 2082   7.953   1.714   3.064  0.1694  0.0336  0.0308
   16MOL0     C 2083   7.921   1.851   3.071 -0.8771  0.1803 -0.5669
   16MOL0     O 2084   8.021   1.935   3.068 -1.0438  0.1976  0.2326
   16MOL0     C 2085   8.148   1.910   3.002 -0.1093  0.5123 -0.3331
   16MOL0     C 2086   8.257   2.015   3.024  0.2638 -0.5422  0.3939
   16MOL0     C 2087   8.306   2.008   3.165 -1.2727 -0.6389  0.3172
   16MOL0     C 2088   8.419   2.106   3.176 -0.3819  0.6779 -0.4779
   16MOL0     C 2089   8.548   2.080   3.101 -0.5421  0.2864 -0.9139
   16MOL0     C 2090   8.659   2.032   3.078  0.9592 -0.0892  0.1036
   16MOL0     C 2091   7.801   1.893   3.109 -0.3719 -0.6833 -0.5192
   16MOL0     C 2092   7.698   1.803   3.122  1.1472  0.2417 -0.9540
   16MOL0     H 2093   7.416   1.430   3.010  0.9031 -0.0661 -0.5546
   16MOL0     H 2094   7.256   1.237   3.043 -0.0333  0.5474 -1.9268
   16MOL0     H 2095   7.090   1.034   3.139  0.0704  0.3438  0.9467
   16MOL0     H 2096   7.221   1.012   3.015  0.2587 -2.4349 -1.1072
   16MOL0     H 2097   7.082   0.797   3.072 -0.3878  2.7736 -2.4319
   16MOL0     H 2098   7.255   0.789   3.064  1.4248  1.4186  0.1698
   16MOL0     H 2099   7.297   0.805   3.301  0.2470  0.9478 -1.1642
   16MOL0     H 2100   7.125   0.817   3.342  1.3892 -1.4128  2.4854
   16MOL0     H 2101   7.064   0.605   3.228 -0.2273 -0.4077  0.6108
   16MOL0     H 2102   7.233   0.564   3.200 -0.5288 -1.3992  0.6821
   16MOL0     H 2103   7.238   0.573   3.464  0.0036 -0.0870  0.3107
   16MOL0     H 2104   7.058   0.575   3.451  0.9691  1.3086  1.8753
   16MOL0     H 2105   7.087   0.363   3.297  1.6557 -2.0332 -1.1354
   16MOL0     H 2106   7.254   0.365   3.339 -0.8064 -0.8144 -2.3553
   16MOL0     H 2107   7.033   0.361   3.549 -1.7191 -0.8223 -2.8459
   16MOL0     H 2108   7.071   0.214   3.468  2.2280 -1.5348 -0.8146
   16MOL0     H 2109   7.244   0.395   3.636 -0.4478  1.1179 -0.5635
   16MOL0     H 2110   7.306   0.245   3.543  1.5257  1.1700  1.0295
   16MOL0     H 2111   7.209   0.338   3.876 -2.5499  0.1562  0.5825
   16MOL0     H 2112   7.314   0.016   4.047  0.0666  0.4595  0.4419
   16MOL0     H 2113   7.275   0.189   4.081  0.0671  0.0740 -0.3458
   16MOL0     H 2114   7.044  -0.005   4.074 -1.4642  2.0114 -1.4764
   16MOL0     H 2115   7.070   0.154   4.152  0.7079  0.0810 -0.7320
   16MOL0     H 2116   7.095   0.026   4.331 -1.8391 -3.9098 -0.8667
   16MOL0     H 2117   7.265   0.016   4.276  1.0041  1.0884 -3.1185
   16MOL0     H 2118   7.041  -0.187   4.205 -0.2714  0.6384 -0.1531
   16MOL0     H 2119   7.155  -0.189   4.348  1.2345  4.2928  0.4980
   16MOL0     H 2120   7.201  -0.407   4.345 -2.7525  3.0897 -1.8436
   16MOL0     H 2121   7.245  -0.762   4.329 -1.2108 -0.9877 -0.0763
   16MOL0     H 2122   7.241  -0.623   4.427  1.4994  1.2287 -0.4915
   16MOL0     H 2123   7.094  -0.692   4.348  0.4294  1.2830 -0.1890
   16MOL0     H 2124   7.294  -1.015   3.919 -0.5818 -0.7969 -1.7398
   16MOL0     H 2125   7.209  -1.240   3.863  2.6293 -0.3068  0.4925
   16MOL0     H 2126   7.059  -1.412   3.818 -1.5956 -0.2071 -0.2511
   16MOL0     H 2127   7.156  -1.467   3.959 -1.5067 -2.8625  2.6698
   16MOL0     H 2128   7.049  -1.642   3.878  0.9320  0.6091  0.0962
   16MOL0     H 2129   6.980  -1.618   4.043 -0.8827  1.7400  0.1636
   16MOL0     H 2130   6.859  -1.569   3.771  0.3846 -1.2126 -0.3496
   16MOL0     H 2131   6.791  -1.512   3.935  0.4669 -1.2379  1.7416
   16MOL0     H 2132   6.789  -1.756   3.995  1.5190  0.1829  0.4017
   16MOL0     H 2133   6.667  -1.725   3.867  0.1475  1.5398  1.3368
   16MOL0     H 2134   6.938  -1.823   3.793  0.0659  1.0259  3.7314
   16MOL0     H 2135   6.804  -1.767   3.684 -4.4370 -0.2887  0.7165
   16MOL0     H 2136   6.756  -2.013   3.861  4.6808 -0.5111 -0.8740
   16MOL0     H 2137   6.637  -1.946   3.752 -0.7424 -4.4269 -1.9527
   16MOL0     H 2138   6.923  -2.047   3.665  0.5256 -0.0873 -0.3737
   16MOL0     H 2139   6.793  -1.987   3.561  3.1169 -0.0344 -0.6464
   16MOL0     H 2140   6.762  -2.220   3.547 -2.3228 -0.1038 -1.0797
   16MOL0     H 2141   6.642  -2.154   3.658  1.0777  1.8477 -1.8025
   16MOL0     H 2142   6.945  -1.211   4.222  0.5866  0.7060  2.5236
   16MOL0     H 2143   7.044  -0.980   4.260  0.5527  3.1541 -2.1164
   16MOL0     H 2144   7.226  -0.561   3.867  0.2533  0.4515  1.0739
   16MOL0     H 2145   7.259  -0.319   3.925 -2.1085 -1.5063 -2.1135
   16MOL0     H 2146   7.532   1.032   3.280 -1.7941 -0.8797  0.1851
   16MOL0     H 2147   7.696   1.217   3.246  0.0642  0.9498  0.3911
   16MOL0     H 2148   7.891   1.520   3.093  1.4935  0.0568  1.2419
   16MOL0     H 2149   8.050   1.669   3.049 -1.0730 -1.8831 -3.5911
   16MOL0     H 2150   8.193   1.811   3.013  1.5588  1.2064 -0.5322
   16MOL0     H 2151   8.111   1.907   2.899  0.3525  1.5390 -0.5481
   16MOL0     H 2152   8.213   2.111   2.994 -0.0518 -1.7925 -3.6933
   16MOL0     H 2153   8.338   1.992   2.955 -1.0355  0.2604 -1.4802
   16MOL0     H 2154   8.346   1.908   3.183  1.3465  0.8558  3.7626
   16MOL0     H 2155   8.230   2.032   3.240 -2.4085 -5.1842  0.9512
   16MOL0     H 2156   8.450   2.103   3.281 -0.0492  2.0224 -0.5215
   16MOL0     H 2157   8.381   2.208   3.164 -1.8761  0.1254 -0.6520
   16MOL0     H 2158   8.755   1.986   3.067  1.4792  0.3118  2.4041
   16MOL0     H 2159   7.782   2.000   3.105  0.9945 -0.4405 -1.2712
   16MOL0     H 2160   7.597   1.841   3.138  0.1424 -2.4954 -0.1917
   17MOL0     O 2161   6.160   8.200  11.155  0.4120  0.3971 -0.7585
   17MOL0     C 2162   6.273   8.188  11.097 -0.3779 -0.0664 -0.6221
   17MOL0     O 2163   6.290   8.107  10.985  0.3245  0.0288 -0.8469
   17MOL0     C 2164   6.196   8.107  10.887  0.1440  0.4720 -0.3158
   17MOL0     C 2165   6.177   7.993  10.807  1.3610 -0.2782  0.4081
   17MOL0     C 2166   6.078   8.000  10.703 -0.2008 -0.4063  0.3323
   17MOL0     C 2167   6.018   8.121  10.670  0.4326  0.2267  0.5778
   17MOL0     O 2168   5.932   8.130  10.563  0.5821  0.4467 -0.1789
   17MOL0     C 2169   5.921   8.031  10.470  0.0725  0.3305 -0.4480
   17MOL0     C 2170   5.782   8.031  10.408  0.0791  0.2060  0.0410
   17MOL0     C 2171   5.739   8.159  10.330  1.4540 -0.1755  0.6404
   17MOL0     C 2172   5.731   8.129  10.170 -0.5040  0.1386 -0.0816
   17MOL0     C 2173   5.731   8.263  10.098 -0.7951  0.3352  0.0863
   17MOL0     C 2174   5.705   8.260   9.943 -0.5311 -0.5584  0.3651
   17MOL0     C 2175   5.804   8.162   9.865  0.8653 -0.3313  0.2237
   17MOL0     C 2176   5.784   8.168   9.712 -0.8684  0.3050 -0.2250
   17MOL0     N 2177   5.803   8.305   9.645  0.5172  0.2474  0.5953
   17MOL0     C 2178   5.915   8.368   9.599 -0.1371 -0.5388 -0.9543
   17MOL0     C 2179   5.864   8.481   9.537  0.5548  0.1917  0.6212
   17MOL0     C 2180   5.936   8.608   9.499  0.5955 -0.1597 -0.7023
   17MOL0     C 2181   6.041   8.580   9.387 -0.1616 -1.1961  0.3213
   17MOL0     C 2182   5.984   8.528   9.254 -0.1371  1.5027 -1.1350
   17MOL0     C 2183   5.870   8.613   9.193 -0.6136 -0.4241 -0.3276
   17MOL0     O 2184   5.813   8.568   9.070  0.0588  0.6221  0.5486
   17MOL0     C 2185   5.702   8.488   9.083  0.2679 -0.0117  0.2896
   17MOL0     C 2186   5.606   8.482   8.970  0.1392  0.4362  0.3574
   17MOL0     C 2187   5.483   8.420   8.982 -0.1310 -0.8899 -0.0827
   17MOL0     C 2188   5.378   8.421   8.870 -0.6802 -0.4369 -0.5378
   17MOL0     C 2189   5.449   8.360   9.110 -0.3027  0.0847 -0.4406
   17MOL0     C 2190   5.321   8.297   9.132 -0.2953  0.3551 -0.6615
   17MOL0     O 2191   5.265   8.224   9.038  0.4567 -0.0166 -0.3398
   17MOL0     C 2192   5.149   8.160   9.070  0.8745  0.3877  0.1071
   17MOL0     C 2193   5.020   8.221   9.044 -0.4540 -0.0861  0.2457
   17MOL0     C 2194   4.910   8.152   9.088 -0.2701 -0.3633 -0.1392
   17MOL0     C 2195   4.914   8.022   9.138  0.4246  0.2494  0.7400
   17MOL0     O 2196   4.799   7.946   9.161 -0.2390  0.0167  0.4901
   17MOL0     C 2197   4.781   7.899   9.296  1.0639 -0.1027  0.1487
   17MOL0     C 2198   4.717   7.766   9.280  0.6717 -0.3890 -0.0690
   17MOL0     C 2199   4.819   7.672   9.232 -0.9260  1.2523  0.3590
   17MOL0     C 2200   4.754   7.529   9.228 -0.5980  0.1812 -0.3300
   17MOL0     C 2201   4.867   7.427   9.211  0.0889 -0.8227 -0.0054
   17MOL0     C 2202   4.838   7.280   9.167  0.2872  0.0200  0.4346
   17MOL0     C 2203   4.730   7.218   9.241 -0.3993 -0.7728 -0.1332
   17MOL0     C 2204   4.753   7.202   9.393 -0.0453 -0.5436  0.5894
   17MOL0    Cl 2205   4.919   7.145   9.448 -0.3684  0.2124 -0.0764
   17MOL0     C 2206   5.037   7.964   9.161  0.1609 -0.2566 -0.1230
   17MOL0     C 2207   5.152   8.035   9.130 -0.2418 -0.4378 -0.0339
   17MOL0     O 2208   5.273   8.333   9.237 -0.0405 -0.1851  0.4840
   17MOL0     C 2209   5.538   8.375   9.215 -0.2261  0.1837 -0.7177
   17MOL0     C 2210   5.665   8.428   9.201  0.3008  0.0461  0.1665
   17MOL0     N 2211   5.726   8.461   9.523  0.7694  0.3786 -0.1785
   17MOL0     N 2212   5.690   8.360   9.594 -0.0722  0.1763  0.2572
   17MOL0     C 2213   6.043   8.233  10.752 -0.2994  0.3524 -0.1379
   17MOL0     C 2214   6.124   8.225  10.867  0.2500  1.0973  0.0514
   17MOL0     C 2215   6.384   8.255  11.158 -0.4795 -0.1409  0.0832
   17MOL0     C 2216   6.371   8.300  11.289  0.7612 -0.3970 -0.3726
   17MOL0     C 2217   6.478   8.374  11.349  0.6270  0.0358 -0.6461
   17MOL0     C 2218   6.596   8.391  11.274  0.7413 -0.7600  0.2946
   17MOL0     O 2219   6.706   8.457  11.332  0.0319  0.2933 -0.4961
   17MOL0     C 2220   6.765   8.575  11.271  0.8141 -0.5210  1.8243
   17MOL0     C 2221   6.661   8.699  11.249 -0.0447 -0.6109 -0.2377
   17MOL0     C 2222   6.596   8.738  11.384  0.1548 -1.4090  0.2582
   17MOL0     C 2223   6.506   8.866  11.389  0.3825 -0.0239  0.2791
   17MOL0     C 2224   6.389   8.845  11.294 -0.1179  0.0883 -0.8610
   17MOL0     C 2225   6.302   8.835  11.219 -0.1294 -0.8764 -0.8613
   17MOL0     C 2226   6.607   8.337  11.145 -0.2539 -0.3435  1.0184
   17MOL0     C 2227   6.498   8.282  11.084 -0.7578  0.2072  1.0232
   17MOL0     H 2228   6.229   7.898  10.820  3.6523  0.4901 -2.1776
   17MOL0     H 2229   6.062   7.905  10.654 -1.4413  0.6416 -1.4041
   17MOL0     H 2230   6.002   8.042  10.398  0.3473  0.3321 -0.1364
   17MOL0     H 2231   5.935   7.928  10.505 -2.9075 -0.3011 -0.8273
   17MOL0     H 2232   5.787   7.941  10.346  1.3909  0.1806  0.1594
   17MOL0     H 2233   5.707   8.003  10.482  1.2420  0.4948  1.3877
   17MOL0     H 2234   5.638   8.188  10.362  1.6491 -0.6691  1.7175
   17MOL0     H 2235   5.818   8.234  10.340  1.4565  0.0957 -1.0754
   17MOL0     H 2236   5.819   8.075  10.134 -0.3823 -0.3996  0.9902
   17MOL0     H 2237   5.645   8.065  10.146  0.0628 -0.7988  0.3046
   17MOL0     H 2238   5.664   8.341  10.136  1.9955  1.9872  1.9176
   17MOL0     H 2239   5.835   8.293  10.109 -0.3984 -0.8405 -0.2590
   17MOL0     H 2240   5.611   8.208   9.921 -0.7660 -1.4206  2.9951
   17MOL0     H 2241   5.712   8.360   9.898 -2.4904  0.0197  1.2030
   17MOL0     H 2242   5.905   8.187   9.898  0.6898  0.4669  0.1831
   17MOL0     H 2243   5.774   8.060   9.892 -1.8647  0.5090  0.7100
   17MOL0     H 2244   5.685   8.131   9.683 -0.7006 -0.2674 -0.0892
   17MOL0     H 2245   5.856   8.098   9.668  1.2256  0.6225  2.4538
   17MOL0     H 2246   6.015   8.332   9.618  0.6369  1.2127 -1.4782
   17MOL0     H 2247   5.868   8.689   9.469 -0.8362 -0.8796  0.4792
   17MOL0     H 2248   5.991   8.627   9.592 -3.1789 -0.9726  1.9391
   17MOL0     H 2249   6.120   8.516   9.426 -0.8378 -2.4469 -0.2973
   17MOL0     H 2250   6.084   8.679   9.371 -0.9098 -0.9338 -0.1589
   17MOL0     H 2251   5.952   8.426   9.274  2.2935  1.2156  2.1067
   17MOL0     H 2252   6.056   8.527   9.172 -1.3128 -4.3807 -2.5143
   17MOL0     H 2253   5.920   8.708   9.170  0.0169 -0.2709  1.4890
   17MOL0     H 2254   5.798   8.620   9.275 -2.0718 -3.1840 -1.2652
   17MOL0     H 2255   5.634   8.533   8.878 -1.6812  1.3145  0.2483
   17MOL0     H 2256   5.368   8.313   8.851  0.2590 -0.6849  0.3287
   17MOL0     H 2257   5.284   8.457   8.913 -2.3448 -2.9908 -1.7618
   17MOL0     H 2258   5.403   8.475   8.779 -1.5101  2.3523  0.7982
   17MOL0     H 2259   5.014   8.313   8.988 -0.6784 -0.8769 -1.0600
   17MOL0     H 2260   4.818   8.203   9.060 -0.0235 -0.7016 -1.6612
   17MOL0     H 2261   4.875   7.873   9.345  0.7187 -0.0436  0.8431
   17MOL0     H 2262   4.719   7.960   9.361  1.7048 -0.0932  0.7589
   17MOL0     H 2263   4.670   7.733   9.373 -0.8281 -0.3111 -0.7720
   17MOL0     H 2264   4.631   7.771   9.212 -1.4454  1.4641  2.5263
   17MOL0     H 2265   4.902   7.672   9.304 -0.2913  1.3437 -0.3562
   17MOL0     H 2266   4.854   7.709   9.135 -1.3568 -0.6208 -0.5461
   17MOL0     H 2267   4.712   7.518   9.328  0.2899 -0.2897 -0.0028
   17MOL0     H 2268   4.674   7.513   9.154 -0.3700  2.2725 -1.0982
   17MOL0     H 2269   4.934   7.429   9.297  1.0431 -1.0000 -0.7197
   17MOL0     H 2270   4.922   7.459   9.122 -0.6505 -0.2137 -0.2537
   17MOL0     H 2271   4.812   7.271   9.062 -0.6443 -3.4606  0.8371
   17MOL0     H 2272   4.928   7.219   9.179 -1.5089 -2.3854  3.0814
   17MOL0     H 2273   4.708   7.127   9.185  0.0403 -0.0502 -1.5254
   17MOL0     H 2274   4.647   7.289   9.233  1.9301  2.5274  1.8974
   17MOL0     H 2275   4.676   7.143   9.444 -0.1511  1.3181  2.7753
   17MOL0     H 2276   4.729   7.296   9.443  2.0895  0.2165  0.2813
   17MOL0     H 2277   5.045   7.870   9.215 -0.0784 -0.7031 -0.8501
   17MOL0     H 2278   5.240   7.983   9.166 -1.4345 -0.4864  3.2016
   17MOL0     H 2279   5.504   8.321   9.303 -1.1369 -1.1881 -1.8448
   17MOL0     H 2280   5.731   8.422   9.287 -1.7140 -0.8142  1.7401
   17MOL0     H 2281   5.990   8.326  10.734  1.2694  1.4352  0.5948
   17MOL0     H 2282   6.119   8.306  10.938  1.7642  0.0477  1.4104
   17MOL0     H 2283   6.292   8.277  11.358  4.0045 -0.7304  3.5942
   17MOL0     H 2284   6.480   8.400  11.454 -1.6828 -1.1841 -0.2474
   17MOL0     H 2285   6.857   8.602  11.322  2.0956 -2.8072  0.8487
   17MOL0     H 2286   6.797   8.558  11.168 -0.4360  0.6691  1.1902
   17MOL0     H 2287   6.577   8.661  11.190 -1.8193  1.4271  0.8354
   17MOL0     H 2288   6.711   8.784  11.202  0.5752 -0.8299  0.0102
   17MOL0     H 2289   6.679   8.761  11.451  0.9883  0.4262 -1.3046
   17MOL0     H 2290   6.543   8.656  11.433 -0.8120  1.4890  4.5790
   17MOL0     H 2291   6.572   8.943  11.350  1.2239 -1.2179 -0.7587
   17MOL0     H 2292   6.464   8.883  11.489  0.0862  0.3466  0.0959
   17MOL0     H 2293   6.212   8.839  11.161 -1.1621 -2.8840  0.4606
   17MOL0     H 2294   6.700   8.333  11.090  0.7775  0.5705  2.6440
   17MOL0     H 2295   6.516   8.237  10.987 -0.5825 -4.7050  3.0649
   18MOL0     O 2296   1.230   6.095   2.887 -0.2643 -0.6159 -0.9124
   18MOL0     C 2297   1.227   6.175   2.980 -0.1863 -0.0842  0.7475
   18MOL0     O 2298   1.336   6.235   3.033  0.5314 -0.3919 -0.0689
   18MOL0     C 2299   1.471   6.208   3.003 -0.2148  0.2803 -0.4506
   18MOL0     C 2300   1.563   6.300   3.062  1.0138 -0.0291 -0.9696
   18MOL0     C 2301   1.701   6.291   3.041 -0.7225  0.2468 -0.5806
   18MOL0     C 2302   1.747   6.186   2.956  0.7120 -1.3449 -0.3360
   18MOL0     O 2303   1.876   6.164   2.942 -0.1539 -0.2367  0.1792
   18MOL0     C 2304   1.939   6.176   2.806  0.3631  0.4863 -0.8611
   18MOL0     C 2305   2.088   6.210   2.804  0.5786 -0.2036 -0.5824
   18MOL0     C 2306   2.168   6.170   2.674  0.4361  0.4304 -0.0564
   18MOL0     C 2307   2.323   6.162   2.703  0.4501 -0.7391 -0.2784
   18MOL0     C 2308   2.397   6.120   2.577 -0.4946 -0.0198  0.3390
   18MOL0     C 2309   2.454   6.240   2.493  0.0395 -0.8449  0.2827
   18MOL0     C 2310   2.556   6.314   2.573 -0.2872  0.1675  1.2961
   18MOL0     C 2311   2.658   6.406   2.493  0.5954 -0.1116  0.5412
   18MOL0     N 2312   2.605   6.527   2.430  0.4920  0.6973  0.6107
   18MOL0     C 2313   2.512   6.530   2.325 -0.4939 -1.0767 -0.3371
   18MOL0     C 2314   2.477   6.660   2.320 -0.5651 -0.5633 -0.6092
   18MOL0     C 2315   2.361   6.694   2.227 -0.3876 -0.7664  0.3525
   18MOL0     C 2316   2.387   6.725   2.071  0.8446 -0.8987 -1.3005
   18MOL0     C 2317   2.507   6.821   2.055  0.9671  0.2403  0.4818
   18MOL0     C 2318   2.498   6.883   1.913 -0.6824 -1.1593 -0.1729
   18MOL0     O 2319   2.577   7.018   1.918  0.2083 -0.4579  0.4206
   18MOL0     C 2320   2.628   7.067   1.797  0.3078  0.5311  0.3879
   18MOL0     C 2321   2.769   7.086   1.779  0.1032 -0.3133 -1.0587
   18MOL0     C 2322   2.826   7.110   1.656 -0.7523  0.4954  0.0794
   18MOL0     C 2323   2.978   7.144   1.661  0.9243 -0.6935 -0.0951
   18MOL0     C 2324   2.749   7.110   1.540  1.2340  0.0868  0.3746
   18MOL0     C 2325   2.803   7.123   1.399 -0.0852 -1.0397  0.2721
   18MOL0     O 2326   2.707   7.115   1.301  0.7282 -0.4901  0.1673
   18MOL0     C 2327   2.747   7.137   1.173  0.0219 -0.1953 -0.0505
   18MOL0     C 2328   2.831   7.246   1.138  0.7973  0.5090  0.2942
   18MOL0     C 2329   2.868   7.270   1.010 -0.0134  0.6548 -0.5099
   18MOL0     C 2330   2.813   7.204   0.898  0.1743  1.4611 -0.2060
   18MOL0     O 2331   2.855   7.220   0.763  0.5659 -0.0401 -0.7245
   18MOL0     C 2332   2.952   7.312   0.737 -0.6731 -1.5922 -0.1016
   18MOL0     C 2333   3.091   7.250   0.788  0.6367 -0.2753  0.6570
   18MOL0     C 2334   3.195   7.361   0.824  0.0365  0.5061  0.6563
   18MOL0     C 2335   3.233   7.432   0.695  0.5098 -0.4100  0.2869
   18MOL0     C 2336   3.338   7.553   0.732  0.0502  0.3547  0.3481
   18MOL0     C 2337   3.345   7.647   0.606  0.8018  0.6661  0.2619
   18MOL0     C 2338   3.429   7.761   0.641 -0.4587  0.1503  0.1789
   18MOL0     C 2339   3.494   7.827   0.517 -0.3861 -0.5746  0.4512
   18MOL0    Cl 2340   3.608   7.705   0.437  0.2021  0.0944 -0.3876
   18MOL0     C 2341   2.721   7.098   0.931  0.0356 -0.0351  0.3458
   18MOL0     C 2342   2.696   7.065   1.062 -0.1900 -0.0691  0.1434
   18MOL0     O 2343   2.930   7.144   1.382  0.4114  0.2418 -0.5013
   18MOL0     C 2344   2.610   7.084   1.550  0.7634 -0.1484 -0.5356
   18MOL0     C 2345   2.547   7.057   1.678  0.3907 -1.3991  0.0856
   18MOL0     N 2346   2.562   6.740   2.409  0.0308 -0.2820  0.1680
   18MOL0     N 2347   2.638   6.650   2.467  0.0555  0.6325 -0.2249
   18MOL0     C 2348   1.658   6.093   2.901 -0.9331  0.6753 -0.5080
   18MOL0     C 2349   1.521   6.100   2.926 -0.2568  0.1301 -0.1312
   18MOL0     C 2350   1.091   6.217   3.029  0.2625  0.8018  0.4815
   18MOL0     C 2351   1.073   6.275   3.158 -0.8401  0.8261 -0.2181
   18MOL0     C 2352   0.943   6.295   3.212  0.0946 -0.5716  0.4310
   18MOL0     C 2353   0.829   6.271   3.134  0.8706 -0.4060 -0.0036
   18MOL0     O 2354   0.710   6.315   3.179  0.3339  0.6014 -0.1291
   18MOL0     C 2355   0.597   6.294   3.102 -0.6464  0.9919 -0.5928
   18MOL0     C 2356   0.484   6.388   3.124 -0.0232 -0.5711 -0.1996
   18MOL0     C 2357   0.515   6.536   3.085  0.5743 -0.4077  0.1836
   18MOL0     C 2358   0.387   6.624   3.092 -0.1753 -0.8004 -0.3222
   18MOL0     C 2359   0.299   6.622   2.975  0.5626 -0.1117  0.1502
   18MOL0     C 2360   0.237   6.645   2.872  0.3210 -0.3362  0.0250
   18MOL0     C 2361   0.850   6.193   3.018 -0.2716  0.1293 -0.8811
   18MOL0     C 2362   0.970   6.166   2.966 -0.3853  1.2438  0.3284
   18MOL0     H 2363   1.534   6.381   3.130  2.9040 -3.7684  5.1068
   18MOL0     H 2364   1.784   6.356   3.066 -0.5402 -0.8757  2.1252
   18MOL0     H 2365   1.941   6.071   2.774 -1.7026 -0.0505  0.5232
   18MOL0     H 2366   1.871   6.239   2.747 -1.4194  1.0216  1.6052
   18MOL0     H 2367   2.096   6.317   2.824 -0.4832 -0.2213  0.0347
   18MOL0     H 2368   2.138   6.151   2.882  0.2656  4.2551  3.3940
   18MOL0     H 2369   2.126   6.072   2.648  0.3536  0.8731 -1.7140
   18MOL0     H 2370   2.152   6.237   2.589  3.0786 -0.1157 -1.0470
   18MOL0     H 2371   2.369   6.250   2.748 -1.4721 -0.0648  0.4635
   18MOL0     H 2372   2.326   6.080   2.775 -1.6918 -2.1056 -1.6251
   18MOL0     H 2373   2.478   6.054   2.610 -0.2338  0.5899  0.9288
   18MOL0     H 2374   2.352   6.054   2.503  3.4749  1.0094 -3.4062
   18MOL0     H 2375   2.484   6.196   2.397  2.3184 -1.7725  1.3338
   18MOL0     H 2376   2.376   6.312   2.466  0.3606 -0.0300  1.4630
   18MOL0     H 2377   2.507   6.378   2.647 -1.0242  1.0250  0.0939
   18MOL0     H 2378   2.630   6.250   2.623  1.8222  2.1857  0.9344
   18MOL0     H 2379   2.715   6.352   2.417  1.3961 -0.9832  1.7176
   18MOL0     H 2380   2.734   6.442   2.564  1.1931  0.5518 -0.4098
   18MOL0     H 2381   2.458   6.443   2.290  1.2292 -3.3780  2.3003
   18MOL0     H 2382   2.285   6.615   2.233 -1.1236 -0.0911  0.0753
   18MOL0     H 2383   2.314   6.788   2.255 -1.2236  0.7945 -5.0982
   18MOL0     H 2384   2.298   6.780   2.041 -0.7870 -2.2149  0.8107
   18MOL0     H 2385   2.403   6.636   2.010  1.3978 -1.6765 -0.0590
   18MOL0     H 2386   2.600   6.763   2.061 -0.6534 -2.6960 -1.1852
   18MOL0     H 2387   2.501   6.904   2.127 -0.7383  0.5285  0.0370
   18MOL0     H 2388   2.395   6.913   1.891 -1.4090 -3.0514  0.4269
   18MOL0     H 2389   2.539   6.818   1.834 -2.2793 -2.9602  0.3970
   18MOL0     H 2390   2.836   7.079   1.864  1.3301  0.0757 -1.9781
   18MOL0     H 2391   3.026   7.064   1.603  1.7140 -0.3585  0.0893
   18MOL0     H 2392   3.007   7.243   1.624 -2.7932 -0.4415 -2.9053
   18MOL0     H 2393   3.008   7.136   1.766 -0.1096  1.3118  0.4015
   18MOL0     H 2394   2.881   7.306   1.213  0.4058  1.3091 -0.0701
   18MOL0     H 2395   2.942   7.349   1.003  0.1734  0.6810  1.2285
   18MOL0     H 2396   2.946   7.350   0.635  0.0126  0.0529  0.4361
   18MOL0     H 2397   2.931   7.403   0.794 -2.6305 -2.0140 -0.0609
   18MOL0     H 2398   3.068   7.195   0.880 -4.7757 -1.1049 -0.8653
   18MOL0     H 2399   3.142   7.195   0.708 -0.8884  0.1474 -0.6438
   18MOL0     H 2400   3.286   7.321   0.870  1.4090  2.2190 -0.3926
   18MOL0     H 2401   3.151   7.430   0.896  0.9026  3.9211 -1.8203
   18MOL0     H 2402   3.270   7.358   0.624 -3.3317 -4.7262  2.2559
   18MOL0     H 2403   3.148   7.476   0.642 -0.9075 -0.8768  2.0632
   18MOL0     H 2404   3.443   7.533   0.756  0.2083 -1.9806 -1.8721
   18MOL0     H 2405   3.290   7.604   0.816 -1.8484  2.5569 -1.9265
   18MOL0     H 2406   3.390   7.598   0.520 -2.6085 -1.2000 -0.6261
   18MOL0     H 2407   3.249   7.681   0.567  0.9610 -0.6886 -1.4330
   18MOL0     H 2408   3.514   7.739   0.707 -0.8650  1.2033  1.1003
   18MOL0     H 2409   3.364   7.828   0.699  0.3654 -1.3479  3.0339
   18MOL0     H 2410   3.543   7.920   0.548 -1.1411 -0.9561  3.0280
   18MOL0     H 2411   3.420   7.860   0.443 -0.2029 -0.2357  0.4135
   18MOL0     H 2412   2.669   7.053   0.847  0.6025  1.2482 -0.7351
   18MOL0     H 2413   2.630   6.982   1.087  1.4920 -1.2564  0.8364
   18MOL0     H 2414   2.540   7.072   1.467  0.7070 -3.5327 -0.1253
   18MOL0     H 2415   2.441   7.034   1.681 -0.6266  2.6440  1.3403
   18MOL0     H 2416   1.703   6.007   2.852 -0.7764 -1.2775  2.7708
   18MOL0     H 2417   1.455   6.024   2.886 -2.9333  2.4413 -0.4327
   18MOL0     H 2418   1.164   6.298   3.212  0.3260 -2.0024 -0.7981
   18MOL0     H 2419   0.929   6.339   3.311  0.5090  0.4839  0.0400
   18MOL0     H 2420   0.637   6.288   3.000 -0.0130 -1.6212 -0.2702
   18MOL0     H 2421   0.560   6.192   3.113  0.5617  0.5630 -0.3061
   18MOL0     H 2422   0.453   6.378   3.228 -2.2137 -1.5932 -0.8901
   18MOL0     H 2423   0.398   6.349   3.068 -1.2278 -0.1000  1.2411
   18MOL0     H 2424   0.574   6.542   2.993  0.4724 -0.8777  0.0841
   18MOL0     H 2425   0.582   6.578   3.160  0.1664  0.9380 -0.1798
   18MOL0     H 2426   0.421   6.727   3.100 -2.7960  0.0155  1.7779
   18MOL0     H 2427   0.331   6.606   3.185  1.2328 -2.1983  0.3003
   18MOL0     H 2428   0.193   6.659   2.775 -1.0823  0.9813  0.8122
   18MOL0     H 2429   0.768   6.161   2.954 -0.9651  5.4804 -3.2539
   18MOL0     H 2430   0.982   6.124   2.867 -1.0593  2.7343 -0.4244
   19MOL0     O 2431  10.186   7.988   1.590  0.0435 -0.1645 -0.5639
   19MOL0     C 2432  10.070   7.949   1.585 -0.6456  0.3102  0.3874
   19MOL0     O 2433   9.980   7.986   1.495  0.1572  0.0791 -0.2537
   19MOL0     C 2434  10.008   8.077   1.396  0.7851  0.0764  0.9312
   19MOL0     C 2435  10.088   8.198   1.415  0.1578 -0.1000  0.5534
   19MOL0     C 2436  10.099   8.275   1.295  0.1692 -0.2796 -1.0187
   19MOL0     C 2437  10.018   8.251   1.174  0.3035 -1.2329 -0.8318
   19MOL0     O 2438  10.030   8.315   1.058  0.9507  0.4912  0.5333
   19MOL0     C 2439  10.131   8.417   1.041 -0.8526  1.0582 -0.0609
   19MOL0     C 2440  10.161   8.452   0.893 -0.3560  0.2457 -0.9126
   19MOL0     C 2441  10.064   8.547   0.840 -0.1463  0.4087  0.6267
   19MOL0     C 2442  10.066   8.569   0.690 -0.0341 -0.4009  1.3635
   19MOL0     C 2443  10.179   8.669   0.646 -0.8350  0.2007 -0.1099
   19MOL0     C 2444  10.151   8.824   0.677 -0.2881 -0.7144  0.5392
   19MOL0     C 2445  10.039   8.891   0.596 -0.4959  0.5533  0.5761
   19MOL0     C 2446   9.998   9.040   0.634  0.5207  0.4367 -0.3204
   19MOL0     N 2447   9.963   9.057   0.773 -0.3070  0.5250 -0.6262
   19MOL0     C 2448   9.843   9.027   0.823 -0.5232  0.2580  0.1230
   19MOL0     C 2449   9.852   9.056   0.954 -0.0455  0.3059 -0.4434
   19MOL0     C 2450   9.750   9.040   1.068 -0.5638 -0.2430 -0.4140
   19MOL0     C 2451   9.669   8.907   1.062 -0.7159 -0.3383 -0.0105
   19MOL0     C 2452   9.772   8.788   1.065  0.0883 -0.0712  0.0549
   19MOL0     C 2453   9.704   8.649   1.042 -0.8335  0.5183 -1.2829
   19MOL0     O 2454   9.648   8.650   0.910  0.1971 -0.9238  0.1131
   19MOL0     C 2455   9.513   8.635   0.873  0.5533 -0.3848 -0.4664
   19MOL0     C 2456   9.412   8.593   0.965  1.3871  0.1780 -0.6013
   19MOL0     C 2457   9.274   8.569   0.915  0.9044 -0.7021 -0.7956
   19MOL0     C 2458   9.173   8.532   1.020 -0.1407  1.5110  0.0700
   19MOL0     C 2459   9.234   8.603   0.785 -0.2462  0.0104  0.7922
   19MOL0     C 2460   9.098   8.579   0.730 -0.0623  0.4091  0.0948
   19MOL0     O 2461   9.007   8.515   0.800  0.2212  0.1918  0.0797
   19MOL0     C 2462   8.873   8.489   0.755  0.6950  0.9914  0.4402
   19MOL0     C 2463   8.823   8.351   0.773  0.4541 -0.9351 -0.7039
   19MOL0     C 2464   8.683   8.333   0.756 -0.2848 -0.4136 -0.5680
   19MOL0     C 2465   8.590   8.426   0.713  0.0156  0.4087  0.7915
   19MOL0     O 2466   8.466   8.398   0.676  0.7227  0.6488 -0.2901
   19MOL0     C 2467   8.414   8.266   0.671  0.5385  0.3653  0.1866
   19MOL0     C 2468   8.261   8.265   0.619  0.0466 -0.4078 -1.2016
   19MOL0     C 2469   8.241   8.333   0.476 -0.6346 -0.5422  0.5343
   19MOL0     C 2470   8.303   8.235   0.376  1.1862 -0.3028 -0.7333
   19MOL0     C 2471   8.297   8.288   0.231 -0.2412 -1.2233  0.6858
   19MOL0     C 2472   8.338   8.436   0.216 -0.3859  1.2593 -0.6668
   19MOL0     C 2473   8.364   8.471   0.065 -0.3709  0.6603  0.0304
   19MOL0     C 2474   8.409   8.620   0.057  0.2135  1.0040  0.2225
   19MOL0    Cl 2475   8.262   8.730   0.084  0.1376 -0.2732 -0.8221
   19MOL0     C 2476   8.637   8.556   0.693  0.5993  0.2464  0.4261
   19MOL0     C 2477   8.776   8.580   0.705 -0.5231  0.3626 -0.5059
   19MOL0     O 2478   9.079   8.623   0.614  1.1413  0.3444 -0.1186
   19MOL0     C 2479   9.340   8.644   0.696  0.4966  0.8504 -0.2987
   19MOL0     C 2480   9.476   8.653   0.742  0.2598  1.0167 -0.1953
   19MOL0     N 2481   9.978   9.097   0.984 -0.1671 -0.5919  0.7124
   19MOL0     N 2482  10.044   9.091   0.870  0.9929 -0.6883  0.8968
   19MOL0     C 2483   9.930   8.147   1.178 -1.1921  0.1682 -0.3581
   19MOL0     C 2484   9.930   8.059   1.283 -0.0442  0.9810  0.4954
   19MOL0     C 2485  10.027   7.841   1.674 -0.0472 -0.4542  0.3601
   19MOL0     C 2486  10.117   7.776   1.756 -0.0415 -0.1391 -0.1609
   19MOL0     C 2487  10.071   7.669   1.838  1.2752 -0.0356  0.1686
   19MOL0     C 2488   9.939   7.629   1.848 -0.2723  0.2494  0.4760
   19MOL0     O 2489   9.892   7.535   1.942 -0.3341  0.2553 -0.5208
   19MOL0     C 2490   9.752   7.495   1.948 -0.6202  0.2743  0.7434
   19MOL0     C 2491   9.727   7.403   1.827 -0.2797 -0.5169 -0.0985
   19MOL0     C 2492   9.827   7.291   1.793  0.0224 -0.3733 -0.3791
   19MOL0     C 2493   9.848   7.185   1.900  0.0693  0.9503 -0.7116
   19MOL0     C 2494   9.980   7.116   1.873 -0.6981 -0.2160 -0.4710
   19MOL0     C 2495  10.073   7.037   1.852  0.8989  0.2179 -0.2920
   19MOL0     C 2496   9.847   7.701   1.769  0.5704 -0.1445 -0.2506
   19MOL0     C 2497   9.886   7.804   1.682 -1.3495  0.6141  0.3269
   19MOL0     H 2498  10.142   8.214   1.508 -0.6708 -0.2204  1.0597
   19MOL0     H 2499  10.163   8.362   1.289 -0.5527  0.3746  0.2836
   19MOL0     H 2500  10.118   8.512   1.092  1.5651  1.5730 -0.2563
   19MOL0     H 2501  10.228   8.374   1.066  0.7269  3.5526 -1.4500
   19MOL0     H 2502  10.262   8.492   0.883  0.0857 -0.0902  1.4390
   19MOL0     H 2503  10.151   8.354   0.845 -1.3553  0.8754 -2.0572
   19MOL0     H 2504   9.962   8.518   0.866 -0.6446 -0.2236 -1.8109
   19MOL0     H 2505  10.076   8.649   0.879 -0.9622  1.1325 -0.9303
   19MOL0     H 2506  10.080   8.470   0.646 -0.4946 -0.7135  1.8971
   19MOL0     H 2507   9.974   8.597   0.638  0.0760 -0.1979  1.2791
   19MOL0     H 2508  10.272   8.640   0.696 -1.1792  1.5094  1.4054
   19MOL0     H 2509  10.188   8.654   0.538 -2.4473 -0.9784 -0.1074
   19MOL0     H 2510  10.133   8.829   0.784 -2.7404  0.7330  0.1353
   19MOL0     H 2511  10.241   8.885   0.664 -0.8326  1.0734  4.0127
   19MOL0     H 2512  10.058   8.884   0.488 -4.1065  6.9128 -0.9869
   19MOL0     H 2513   9.947   8.833   0.606 -1.2476  1.9557  2.0700
   19MOL0     H 2514   9.919   9.083   0.572  0.8851  0.1626 -0.9853
   19MOL0     H 2515  10.085   9.102   0.610  0.7565 -0.5266 -2.1128
   19MOL0     H 2516   9.760   8.985   0.767 -1.0633 -1.1274  1.8820
   19MOL0     H 2517   9.814   9.036   1.156  2.9460 -0.7391 -2.7721
   19MOL0     H 2518   9.682   9.125   1.070 -0.0450  0.1691  1.8131
   19MOL0     H 2519   9.624   8.910   0.962  0.6395 -0.7116 -0.6694
   19MOL0     H 2520   9.601   8.903   1.147 -2.8514  1.4768 -1.5204
   19MOL0     H 2521   9.824   8.776   1.161 -4.1792 -1.2761  2.4770
   19MOL0     H 2522   9.852   8.808   0.993  0.3869 -1.1760  0.0660
   19MOL0     H 2523   9.641   8.621   1.127 -0.8397  1.1174 -1.0846
   19MOL0     H 2524   9.776   8.567   1.034 -0.3995  0.8500 -0.8666
   19MOL0     H 2525   9.438   8.576   1.069  1.2218 -0.6706 -0.6957
   19MOL0     H 2526   9.215   8.553   1.119 -1.4755  2.6154  0.4240
   19MOL0     H 2527   9.085   8.596   1.009 -1.4878 -0.5817 -2.9566
   19MOL0     H 2528   9.154   8.425   1.007 -2.0842  1.5849  1.7261
   19MOL0     H 2529   8.893   8.281   0.817  0.5657 -0.5742 -0.2961
   19MOL0     H 2530   8.647   8.233   0.778  3.3923 -1.4866  1.2835
   19MOL0     H 2531   8.481   8.200   0.614  2.9451  3.6804 -1.1258
   19MOL0     H 2532   8.418   8.234   0.775 -2.4401  1.3761  0.6920
   19MOL0     H 2533   8.234   8.159   0.612 -1.3066 -0.3835  2.2188
   19MOL0     H 2534   8.189   8.312   0.685  1.8743  0.8639 -0.0320
   19MOL0     H 2535   8.290   8.430   0.471 -1.7135 -0.0107 -0.0675
   19MOL0     H 2536   8.135   8.341   0.452 -0.1294 -1.7036 -2.4773
   19MOL0     H 2537   8.410   8.215   0.390  1.2597 -0.4508 -1.5102
   19MOL0     H 2538   8.253   8.138   0.384 -2.3455  1.4839  3.3693
   19MOL0     H 2539   8.197   8.272   0.190  0.1483  0.5208 -1.0774
   19MOL0     H 2540   8.358   8.226   0.164  0.8272  1.8036 -1.3153
   19MOL0     H 2541   8.261   8.504   0.252  0.3927  2.0091 -0.3832
   19MOL0     H 2542   8.427   8.459   0.275  0.1694  0.0758 -1.0089
   19MOL0     H 2543   8.272   8.470   0.005 -1.3288 -2.3770  1.3534
   19MOL0     H 2544   8.443   8.419   0.010 -1.1135  1.1381 -1.5442
   19MOL0     H 2545   8.434   8.640  -0.048 -2.4038 -0.5664 -0.7963
   19MOL0     H 2546   8.496   8.632   0.123  0.9948 -1.6095 -0.2180
   19MOL0     H 2547   8.573   8.622   0.636  0.5349  0.6355  0.9421
   19MOL0     H 2548   8.825   8.665   0.657  1.2495 -0.5463 -0.3597
   19MOL0     H 2549   9.326   8.663   0.590 -2.9154  2.5157  0.3159
   19MOL0     H 2550   9.555   8.669   0.669 -0.1731  0.8855 -0.6954
   19MOL0     H 2551   9.883   8.126   1.082 -0.1555 -2.7379 -0.3333
   19MOL0     H 2552   9.862   7.975   1.294  3.2589 -2.7128 -3.7732
   19MOL0     H 2553  10.225   7.788   1.750  0.1750 -1.2734  1.0577
   19MOL0     H 2554  10.146   7.611   1.890  2.7925 -0.4422 -2.2672
   19MOL0     H 2555   9.747   7.429   2.036  4.3750  0.3106  1.3208
   19MOL0     H 2556   9.679   7.576   1.957 -0.9953 -0.0402  0.5900
   19MOL0     H 2557   9.717   7.462   1.735  1.2309 -2.9468 -1.9582
   19MOL0     H 2558   9.632   7.352   1.844 -1.3378  1.8839  1.9126
   19MOL0     H 2559   9.922   7.339   1.764 -0.4668 -1.3685 -4.2424
   19MOL0     H 2560   9.789   7.236   1.706  0.4361 -1.2156 -0.0404
   19MOL0     H 2561   9.759   7.122   1.912  0.2699  0.7258 -0.3747
   19MOL0     H 2562   9.862   7.229   1.999 -0.0757  0.8753 -0.6574
   19MOL0     H 2563  10.136   6.955   1.826  0.1008  0.1761 -2.3407
   19MOL0     H 2564   9.739   7.699   1.780  0.4278  0.6564 -1.3457
   19MOL0     H 2565   9.808   7.851   1.624 -0.8894  2.2804  0.9822
   20MOL0     O 2566   3.794   4.303   6.254 -0.4019 -0.3522 -0.5794
   20MOL0     C 2567   3.843   4.407   6.212 -1.6636  0.7288  0.5297
   20MOL0     O 2568   3.867   4.524   6.279 -0.0901 -0.6340 -0.7153
   20MOL0     C 2569   3.854   4.546   6.413 -0.7281  0.9308 -0.4959
   20MOL0     C 2570   3.759   4.481   6.491  0.8287  0.4741 -0.9428
   20MOL0     C 2571   3.766   4.497   6.634  0.2940  0.0464 -0.3379
   20MOL0     C 2572   3.842   4.598   6.686 -0.2272 -0.4021 -0.4887
   20MOL0     O 2573   3.838   4.646   6.818 -0.3241 -0.1621  0.3856
   20MOL0     C 2574   3.743   4.585   6.912 -0.2590 -0.1473  0.7829
   20MOL0     C 2575   3.748   4.676   7.036  0.7824  0.9536 -0.0847
   20MOL0     C 2576   3.721   4.580   7.155  0.0427  0.0423  0.8254
   20MOL0     C 2577   3.844   4.491   7.185 -0.0454 -0.4797  0.0854
   20MOL0     C 2578   3.816   4.395   7.304  0.1506  0.4394  0.4549
   20MOL0     C 2579   3.952   4.367   7.374 -0.6519  0.6854 -0.1309
   20MOL0     C 2580   3.942   4.302   7.508 -0.3466  0.1662 -0.1340
   20MOL0     C 2581   4.081   4.265   7.568 -0.2011 -0.2898  1.6493
   20MOL0     N 2582   4.058   4.223   7.707 -1.5223  0.6958 -0.0326
   20MOL0     C 2583   3.974   4.270   7.805  1.0547 -0.7183 -0.5749
   20MOL0     C 2584   4.009   4.214   7.920  0.5017 -0.3746  0.0743
   20MOL0     C 2585   3.918   4.222   8.042  0.2743 -0.0594  0.0140
   20MOL0     C 2586   3.969   4.310   8.155 -0.9742  0.0411  0.2539
   20MOL0     C 2587   3.895   4.306   8.288 -0.0581 -0.2252  0.1740
   20MOL0     C 2588   3.891   4.436   8.364 -0.3038  0.2292 -0.6772
   20MOL0     O 2589   3.804   4.411   8.471 -0.4399  0.6394 -0.1501
   20MOL0     C 2590   3.754   4.512   8.545 -0.1850 -0.1399  0.2948
   20MOL0     C 2591   3.803   4.647   8.533  0.3396 -0.0605  0.0389
   20MOL0     C 2592   3.765   4.747   8.628 -0.2381  0.9741 -0.0235
   20MOL0     C 2593   3.812   4.892   8.612  0.0519  0.5032 -0.2376
   20MOL0     C 2594   3.677   4.707   8.738 -0.8416  0.2826  0.3325
   20MOL0     C 2595   3.635   4.786   8.853 -0.2644  0.4159 -0.4989
   20MOL0     O 2596   3.499   4.768   8.890  0.1623 -0.1884 -0.2440
   20MOL0     C 2597   3.461   4.848   9.002  0.4979  0.9741  0.8995
   20MOL0     C 2598   3.477   4.992   9.003  0.7231  0.1323  0.5436
   20MOL0     C 2599   3.416   5.072   9.097 -0.2282  0.2448 -0.5899
   20MOL0     C 2600   3.340   5.013   9.204 -0.2456 -0.1132  0.4310
   20MOL0     O 2601   3.262   5.091   9.285 -0.1197 -0.1700 -0.1073
   20MOL0     C 2602   3.251   5.234   9.266  0.1135 -0.1646 -0.6202
   20MOL0     C 2603   3.173   5.310   9.380  0.6749  0.0904  0.7646
   20MOL0     C 2604   3.025   5.272   9.355 -0.1936  0.4306  0.7320
   20MOL0     C 2605   2.963   5.361   9.242 -0.0718  0.1134  0.0338
   20MOL0     C 2606   2.810   5.362   9.269 -0.5878 -0.6707  0.0268
   20MOL0     C 2607   2.722   5.425   9.160 -0.7846  0.3789  0.1103
   20MOL0     C 2608   2.776   5.576   9.138 -1.0264  0.3570  1.0700
   20MOL0     C 2609   2.692   5.662   9.045 -0.0030 -0.3698 -0.3667
   20MOL0    Cl 2610   2.525   5.671   9.113  0.1297  0.2359 -0.4425
   20MOL0     C 2611   3.325   4.872   9.197  0.9589 -0.2210 -0.4480
   20MOL0     C 2612   3.391   4.789   9.107  0.7960 -0.5054  0.2249
   20MOL0     O 2613   3.722   4.870   8.884  0.4231  0.5382 -0.3140
   20MOL0     C 2614   3.640   4.569   8.742  0.2445  0.0570 -0.5362
   20MOL0     C 2615   3.684   4.468   8.652  1.2132 -0.0339  0.4526
   20MOL0     N 2616   4.119   4.130   7.895  1.2428 -0.5893 -0.1342
   20MOL0     N 2617   4.154   4.147   7.771 -0.1124 -0.2865  1.0544
   20MOL0     C 2618   3.924   4.677   6.600  0.2145  0.4177  0.5929
   20MOL0     C 2619   3.921   4.650   6.461 -0.7653 -0.4767 -1.3312
   20MOL0     C 2620   3.886   4.395   6.072 -1.4671  0.0233  0.3345
   20MOL0     C 2621   3.979   4.489   6.018  0.3759  0.6640 -0.6733
   20MOL0     C 2622   4.023   4.484   5.893  0.1918 -0.2852 -0.9283
   20MOL0     C 2623   3.989   4.384   5.801  0.0566 -0.5085 -1.2470
   20MOL0     O 2624   4.045   4.380   5.679  0.2462 -0.4095  0.0744
   20MOL0     C 2625   3.969   4.309   5.575 -0.3585  0.3815 -0.2277
   20MOL0     C 2626   3.834   4.372   5.535 -0.1927  0.8327 -0.0223
   20MOL0     C 2627   3.854   4.508   5.473 -0.5071 -1.0041  0.0758
   20MOL0     C 2628   3.739   4.600   5.461  1.4821  0.2098 -0.7594
   20MOL0     C 2629   3.710   4.680   5.586 -0.6632 -0.3309 -0.4431
   20MOL0     C 2630   3.698   4.728   5.694 -0.2855 -0.1936  0.2419
   20MOL0     C 2631   3.909   4.278   5.856  1.1411  0.0490  0.4284
   20MOL0     C 2632   3.851   4.282   5.987 -0.0128 -0.7403  0.2468
   20MOL0     H 2633   3.691   4.407   6.450  0.6004 -1.7997  3.0612
   20MOL0     H 2634   3.697   4.437   6.693  2.6628 -1.7528  0.7670
   20MOL0     H 2635   3.640   4.585   6.874 -0.8038  0.2043  2.1785
   20MOL0     H 2636   3.777   4.481   6.921  0.5384 -0.0665 -1.0237
   20MOL0     H 2637   3.836   4.741   7.040  1.6349  0.1927 -3.5010
   20MOL0     H 2638   3.673   4.756   7.038 -1.5496 -1.0245 -1.7542
   20MOL0     H 2639   3.717   4.647   7.242 -0.1374  0.2118  0.6885
   20MOL0     H 2640   3.632   4.518   7.148  0.1253  0.0820 -1.2159
   20MOL0     H 2641   3.886   4.438   7.100  2.1358  3.2846 -1.4236
   20MOL0     H 2642   3.919   4.562   7.222  2.0326 -1.6128 -1.7437
   20MOL0     H 2643   3.749   4.427   7.384 -1.6115 -6.3046  2.3553
   20MOL0     H 2644   3.784   4.301   7.258 -0.0562  1.1121 -0.7920
   20MOL0     H 2645   4.004   4.296   7.308 -3.6877 -1.3437 -0.5237
   20MOL0     H 2646   4.013   4.456   7.391 -1.7660  1.5480 -0.6034
   20MOL0     H 2647   3.902   4.378   7.577  2.7605  0.0146  2.0221
   20MOL0     H 2648   3.888   4.208   7.519  0.0328 -0.3371 -2.2038
   20MOL0     H 2649   4.158   4.342   7.559 -0.0111 -0.6656 -0.9552
   20MOL0     H 2650   4.112   4.190   7.494  0.1432  0.6590  0.8149
   20MOL0     H 2651   3.882   4.326   7.792  1.2424 -0.3569 -0.3516
   20MOL0     H 2652   3.819   4.255   8.010  0.5460 -0.3199 -1.1440
   20MOL0     H 2653   3.912   4.118   8.075  1.5838 -0.4846 -1.0091
   20MOL0     H 2654   3.955   4.413   8.118 -1.5481 -0.1965 -0.2140
   20MOL0     H 2655   4.076   4.298   8.171 -1.2067 -1.2530  0.9657
   20MOL0     H 2656   3.942   4.229   8.349 -0.2024 -1.4920 -1.2421
   20MOL0     H 2657   3.790   4.279   8.271  0.5744 -2.2305 -0.8890
   20MOL0     H 2658   3.851   4.515   8.299 -0.4496  0.3724 -0.4120
   20MOL0     H 2659   3.994   4.463   8.388 -0.2649  0.4956 -1.1211
   20MOL0     H 2660   3.874   4.675   8.456  3.0897 -0.7745  2.1473
   20MOL0     H 2661   3.722   4.953   8.625 -0.0098  0.0563  1.7274
   20MOL0     H 2662   3.882   4.907   8.694  2.1525  1.0819 -2.0394
   20MOL0     H 2663   3.857   4.903   8.513  0.2635  0.7512 -0.1131
   20MOL0     H 2664   3.521   5.045   8.918  1.7797  1.5758  1.9332
   20MOL0     H 2665   3.442   5.177   9.094  1.9998 -0.2973 -1.8284
   20MOL0     H 2666   3.354   5.268   9.282 -0.4608  0.9736  0.8387
   20MOL0     H 2667   3.204   5.262   9.171 -1.0704 -0.0526 -0.0135
   20MOL0     H 2668   3.213   5.277   9.477  3.0524 -2.0458 -0.7958
   20MOL0     H 2669   3.182   5.418   9.389  0.6743  0.1327  0.2925
   20MOL0     H 2670   2.975   5.290   9.451 -0.0823  0.1219  0.8482
   20MOL0     H 2671   3.008   5.167   9.332  1.7441  0.0391  0.9500
   20MOL0     H 2672   3.003   5.463   9.244 -0.5310  0.3172 -0.7713
   20MOL0     H 2673   2.986   5.314   9.146 -0.3040 -0.8994  0.4555
   20MOL0     H 2674   2.797   5.428   9.356 -2.8217  0.7414 -1.2863
   20MOL0     H 2675   2.770   5.260   9.273 -1.8010 -0.2563 -0.9174
   20MOL0     H 2676   2.739   5.367   9.069  3.4044  1.7320 -0.1661
   20MOL0     H 2677   2.620   5.424   9.199 -0.9964  0.3237 -0.4396
   20MOL0     H 2678   2.877   5.572   9.098 -1.4112  2.2389 -0.2455
   20MOL0     H 2679   2.781   5.631   9.233  0.4059 -0.5828  1.5622
   20MOL0     H 2680   2.691   5.617   8.945  1.1814 -0.4146 -0.3787
   20MOL0     H 2681   2.730   5.764   9.033  1.6368 -0.9849 -0.7604
   20MOL0     H 2682   3.264   4.832   9.278  0.1924  1.9167  0.0987
   20MOL0     H 2683   3.378   4.681   9.103 -3.5406 -0.1788  1.0991
   20MOL0     H 2684   3.588   4.532   8.830 -1.2659  0.2393 -1.3301
   20MOL0     H 2685   3.663   4.362   8.661  1.3952 -0.1821 -0.7418
   20MOL0     H 2686   3.984   4.762   6.631 -0.6544  1.9827 -1.7142
   20MOL0     H 2687   3.985   4.699   6.388  1.7212 -0.3579  0.7914
   20MOL0     H 2688   4.003   4.570   6.086 -3.2736  1.6441 -0.3008
   20MOL0     H 2689   4.089   4.565   5.864 -0.2379 -0.2927 -1.9544
   20MOL0     H 2690   4.033   4.314   5.486  0.5930 -1.2390  0.3220
   20MOL0     H 2691   3.953   4.203   5.593  1.0471  0.0326 -0.8292
   20MOL0     H 2692   3.766   4.375   5.621  1.5288 -3.0569  1.6999
   20MOL0     H 2693   3.800   4.315   5.448 -0.1136  1.9613 -0.8299
   20MOL0     H 2694   3.883   4.488   5.369 -0.6348 -0.0675 -0.1465
   20MOL0     H 2695   3.935   4.568   5.517 -3.6091  2.6996  1.2380
   20MOL0     H 2696   3.641   4.560   5.433 -0.9994  1.9035  4.2342
   20MOL0     H 2697   3.752   4.668   5.376 -2.9260  1.4289 -0.6835
   20MOL0     H 2698   3.692   4.785   5.785  2.7543 -0.4690  0.7153
   20MOL0     H 2699   3.867   4.199   5.794 -4.2365  0.5613  2.8981
   20MOL0     H 2700   3.779   4.208   6.022 -3.0513  0.8664 -2.1884
   21MOL0     O 2701   3.028   4.310   6.433 -0.1514 -0.7392  0.6068
   21MOL0     C 2702   3.146   4.343   6.436  0.2198  0.3190  0.1428
   21MOL0     O 2703   3.248   4.275   6.366 -0.4189  0.2078 -0.6389
   21MOL0     C 2704   3.215   4.165   6.293  0.4351 -0.2516 -0.1011
   21MOL0     C 2705   3.254   4.031   6.323 -0.0400 -0.2918 -0.0905
   21MOL0     C 2706   3.216   3.920   6.240 -0.1080 -0.2691  0.3096
   21MOL0     C 2707   3.156   3.939   6.117  0.2000  0.2154 -0.4438
   21MOL0     O 2708   3.138   3.825   6.042  0.1365  0.1791  0.9465
   21MOL0     C 2709   3.120   3.839   5.902  0.0986 -0.2867  0.0980
   21MOL0     C 2710   3.054   3.708   5.843  0.7870 -0.9144  0.4525
   21MOL0     C 2711   2.977   3.624   5.953 -1.3638 -0.2772 -0.2708
   21MOL0     C 2712   2.897   3.507   5.903  0.5052  1.0268  0.2379
   21MOL0     C 2713   2.782   3.551   5.809 -0.2928 -0.7884 -0.0439
   21MOL0     C 2714   2.694   3.443   5.747  0.0992 -0.4505  0.4116
   21MOL0     C 2715   2.617   3.495   5.626 -0.6717  0.6533  1.1554
   21MOL0     C 2716   2.697   3.481   5.488 -1.3333  0.1977  0.4953
   21MOL0     N 2717   2.622   3.425   5.379  0.5544  0.6021  0.2099
   21MOL0     C 2718   2.676   3.406   5.257 -0.6101  0.1100 -0.2527
   21MOL0     C 2719   2.569   3.392   5.176  1.0925 -0.4994 -0.3320
   21MOL0     C 2720   2.567   3.400   5.019 -0.6709 -0.0009  0.0954
   21MOL0     C 2721   2.468   3.303   4.958 -0.3618  0.1069 -0.1721
   21MOL0     C 2722   2.498   3.153   4.987  0.2549  0.2291  0.1795
   21MOL0     C 2723   2.417   3.050   4.914  0.0029  0.9324  0.3800
   21MOL0     O 2724   2.468   2.922   4.934 -0.4006  0.4912 -0.2746
   21MOL0     C 2725   2.426   2.850   5.048  0.5742 -0.5184  0.3450
   21MOL0     C 2726   2.489   2.725   5.064  0.4060  0.2458  0.2117
   21MOL0     C 2727   2.477   2.652   5.189  0.1867  1.5104  0.7648
   21MOL0     C 2728   2.521   2.503   5.169 -0.0860  0.3977 -0.2629
   21MOL0     C 2729   2.385   2.694   5.295 -0.9613 -0.6107 -0.6582
   21MOL0     C 2730   2.356   2.618   5.420 -0.1895  0.2233  0.2210
   21MOL0     O 2731   2.403   2.494   5.438  1.0142  0.2643  0.4686
   21MOL0     C 2732   2.361   2.425   5.556  0.6009 -0.5318  0.7791
   21MOL0     C 2733   2.444   2.399   5.667  0.6710 -0.3220 -0.5325
   21MOL0     C 2734   2.386   2.342   5.786  0.2771 -0.2157  0.2059
   21MOL0     C 2735   2.244   2.297   5.782 -0.0995  0.0825  0.3012
   21MOL0     O 2736   2.179   2.226   5.881 -0.2516  0.5069 -0.4065
   21MOL0     C 2737   2.255   2.123   5.940 -0.4021  0.0034 -0.3948
   21MOL0     C 2738   2.172   2.051   6.050  0.1429  0.9130 -0.7967
   21MOL0     C 2739   2.248   1.937   6.123  0.2308  0.4183 -0.5653
   21MOL0     C 2740   2.190   1.805   6.058 -0.2004 -0.6359  0.6323
   21MOL0     C 2741   2.249   1.672   6.091 -0.7093  0.2747 -0.1407
   21MOL0     C 2742   2.201   1.554   6.008  0.0002  0.0319 -0.6958
   21MOL0     C 2743   2.305   1.440   6.032 -0.9958  0.2187  0.7860
   21MOL0     C 2744   2.300   1.383   6.176  0.5530 -0.1241  0.3465
   21MOL0    Cl 2745   2.407   1.248   6.149  0.1049 -0.4529 -0.2274
   21MOL0     C 2746   2.175   2.311   5.664 -0.4993 -0.5814 -0.6328
   21MOL0     C 2747   2.223   2.376   5.556 -0.0983 -0.5157 -0.8325
   21MOL0     O 2748   2.292   2.675   5.503  0.4601  0.8211 -0.4941
   21MOL0     C 2749   2.332   2.820   5.271  0.1197  0.0629  0.4384
   21MOL0     C 2750   2.348   2.894   5.154 -0.0715  0.1004  0.9279
   21MOL0     N 2751   2.453   3.377   5.254 -0.3714  0.3336 -0.3721
   21MOL0     N 2752   2.485   3.397   5.377 -0.5964  0.9332 -0.2316
   21MOL0     C 2753   3.118   4.070   6.083  0.3361 -0.6254  0.0538
   21MOL0     C 2754   3.140   4.176   6.172 -0.4921 -0.3473 -0.7872
   21MOL0     C 2755   3.185   4.458   6.520  0.9221  0.1789  0.2454
   21MOL0     C 2756   3.319   4.482   6.536 -0.4554  0.2382  0.5632
   21MOL0     C 2757   3.361   4.582   6.621  0.0915 -0.2055 -1.1878
   21MOL0     C 2758   3.262   4.658   6.690 -0.0332 -0.0182 -0.4793
   21MOL0     O 2759   3.284   4.756   6.786  0.5751 -0.3727 -0.4122
   21MOL0     C 2760   3.408   4.822   6.781  0.4924 -0.4273  0.7183
   21MOL0     C 2761   3.446   4.900   6.659  0.6181 -0.3993  0.0461
   21MOL0     C 2762   3.599   4.888   6.640 -0.6780  0.2269 -0.3763
   21MOL0     C 2763   3.691   4.938   6.767 -0.0630 -0.6091  1.0090
   21MOL0     C 2764   3.654   5.074   6.827  0.0069  1.4027  0.2845
   21MOL0     C 2765   3.616   5.166   6.898 -0.7192 -0.3857 -0.1700
   21MOL0     C 2766   3.125   4.637   6.670  0.9266  0.3956  0.7566
   21MOL0     C 2767   3.085   4.535   6.585 -0.2720 -0.2245  0.6268
   21MOL0     H 2768   3.301   4.003   6.417 -0.8153  1.2062  0.7955
   21MOL0     H 2769   3.238   3.817   6.263 -4.8232 -1.0835  2.3144
   21MOL0     H 2770   3.037   3.910   5.892  0.9092  0.4609 -1.5920
   21MOL0     H 2771   3.211   3.865   5.848  0.8438 -2.5959  0.1214
   21MOL0     H 2772   2.988   3.731   5.759  1.6613  1.5598  0.3575
   21MOL0     H 2773   3.141   3.657   5.801  1.6083  1.3533 -0.8281
   21MOL0     H 2774   3.049   3.580   6.023 -4.6116 -4.3864  0.8788
   21MOL0     H 2775   2.915   3.704   5.992 -1.4711 -0.2145 -0.5650
   21MOL0     H 2776   2.952   3.431   5.847  0.2080  1.8756 -1.2720
   21MOL0     H 2777   2.855   3.462   5.993 -1.4097 -1.6106 -1.8301
   21MOL0     H 2778   2.717   3.619   5.865  2.3454  1.8447  0.0878
   21MOL0     H 2779   2.810   3.616   5.725 -2.6003  2.7421  1.6806
   21MOL0     H 2780   2.754   3.353   5.730 -0.8590 -1.0521  0.1945
   21MOL0     H 2781   2.620   3.420   5.823  0.7449  1.3726  1.6681
   21MOL0     H 2782   2.522   3.441   5.618 -0.9680  1.3797 -0.7334
   21MOL0     H 2783   2.590   3.597   5.654 -1.7245  0.6154  0.3231
   21MOL0     H 2784   2.789   3.427   5.514 -2.4036 -2.1120 -0.2188
   21MOL0     H 2785   2.731   3.579   5.454  2.1539 -1.3812 -1.0034
   21MOL0     H 2786   2.779   3.430   5.229 -1.3836  4.2646 -0.1529
   21MOL0     H 2787   2.522   3.498   5.000 -0.0647  1.0112  3.2144
   21MOL0     H 2788   2.668   3.386   4.981 -1.2784 -5.2073 -0.3421
   21MOL0     H 2789   2.485   3.319   4.851 -3.7654  1.8849 -0.5926
   21MOL0     H 2790   2.360   3.314   4.975 -0.2167 -1.9682  2.6820
   21MOL0     H 2791   2.489   3.145   5.095  3.3792  1.8168  0.6755
   21MOL0     H 2792   2.604   3.137   4.964  0.8700 -0.8414  3.2733
   21MOL0     H 2793   2.410   3.063   4.806  2.6260  0.0178  0.0304
   21MOL0     H 2794   2.312   3.050   4.945 -0.5757  0.9737 -1.4432
   21MOL0     H 2795   2.538   2.696   4.971 -1.2919 -2.2106 -0.0070
   21MOL0     H 2796   2.575   2.462   5.255  2.3438 -0.1141 -1.9427
   21MOL0     H 2797   2.432   2.440   5.160 -1.5862  2.1998  1.0821
   21MOL0     H 2798   2.586   2.496   5.081 -1.7785  0.3363 -1.5532
   21MOL0     H 2799   2.550   2.422   5.663  1.0990 -2.1939 -1.3746
   21MOL0     H 2800   2.440   2.313   5.876  0.3908  0.0857  0.2335
   21MOL0     H 2801   2.279   2.053   5.860 -1.2101  2.2610 -2.7425
   21MOL0     H 2802   2.348   2.156   5.988 -0.8451  0.2876  0.2869
   21MOL0     H 2803   2.159   2.140   6.114 -0.4095  0.5103 -0.3405
   21MOL0     H 2804   2.073   2.017   6.020 -0.1626 -1.2281  2.2112
   21MOL0     H 2805   2.239   1.946   6.232 -0.3025 -1.8071 -0.3913
   21MOL0     H 2806   2.356   1.943   6.108  0.5758 -0.3102  1.3229
   21MOL0     H 2807   2.086   1.809   6.091  0.2735  0.4039  2.1085
   21MOL0     H 2808   2.199   1.818   5.950 -1.0673  0.8696  0.7111
   21MOL0     H 2809   2.227   1.654   6.197 -1.1364 -1.8213 -0.5273
   21MOL0     H 2810   2.358   1.682   6.082 -0.5046 -1.0235  0.6474
   21MOL0     H 2811   2.108   1.519   6.054  1.0853 -1.3326  0.5425
   21MOL0     H 2812   2.196   1.576   5.901 -0.9193  1.0879 -0.4584
   21MOL0     H 2813   2.402   1.482   6.005 -1.3645 -1.0662 -3.1717
   21MOL0     H 2814   2.277   1.367   5.955  4.1245  0.3180 -1.5626
   21MOL0     H 2815   2.198   1.359   6.208  0.9514  0.5478  2.2410
   21MOL0     H 2816   2.342   1.445   6.255  1.2082 -2.3281  1.8217
   21MOL0     H 2817   2.075   2.270   5.649 -0.6257 -0.5344  0.0312
   21MOL0     H 2818   2.165   2.401   5.467  3.2024 -0.3106 -3.1129
   21MOL0     H 2819   2.261   2.858   5.344 -1.0397 -0.0151 -0.6179
   21MOL0     H 2820   2.299   2.991   5.150 -0.3500 -0.0029  1.7248
   21MOL0     H 2821   3.076   4.088   5.985  3.2965  2.2877 -0.8946
   21MOL0     H 2822   3.127   4.279   6.140  1.0657 -1.0528 -4.1014
   21MOL0     H 2823   3.396   4.424   6.486 -1.4903 -1.7115  1.1347
   21MOL0     H 2824   3.467   4.597   6.638 -0.0136  1.2676 -1.7076
   21MOL0     H 2825   3.402   4.890   6.867  2.1212  0.2963  0.3010
   21MOL0     H 2826   3.482   4.745   6.804  0.7736  0.4381  3.1260
   21MOL0     H 2827   3.420   5.003   6.682  0.3453 -1.3164  4.7480
   21MOL0     H 2828   3.384   4.875   6.572  0.5574  1.0791 -0.3655
   21MOL0     H 2829   3.627   4.941   6.549 -0.5625  0.3298 -0.2806
   21MOL0     H 2830   3.628   4.784   6.620  0.1901 -0.0789  2.0987
   21MOL0     H 2831   3.794   4.937   6.731 -0.0503 -0.4414  1.0400
   21MOL0     H 2832   3.674   4.870   6.851 -1.3264  0.8060  1.9652
   21MOL0     H 2833   3.582   5.250   6.955  3.5952  1.4653  0.0377
   21MOL0     H 2834   3.054   4.707   6.713 -1.7093 -0.4274 -1.8701
   21MOL0     H 2835   2.980   4.520   6.559 -0.4400 -0.7781  1.5610
   22MOL0     O 2836   1.995   7.738   4.898 -0.3709 -0.3104  0.0763
   22MOL0     C 2837   1.981   7.717   5.017 -0.2147 -1.1339 -0.3683
   22MOL0     O 2838   2.005   7.803   5.121 -0.6811 -0.6188 -0.6260
   22MOL0     C 2839   2.039   7.937   5.099  0.3671 -0.3393 -0.5563
   22MOL0     C 2840   2.116   7.998   5.189 -0.0872 -1.3600 -0.1111
   22MOL0     C 2841   2.151   8.140   5.167 -0.4456  0.1511  0.2386
   22MOL0     C 2842   2.094   8.215   5.057  0.0035 -1.0941  0.4429
   22MOL0     O 2843   2.126   8.347   5.037 -0.4387  0.5928 -0.1276
   22MOL0     C 2844   2.030   8.429   4.967 -0.6967 -0.0842 -0.0181
   22MOL0     C 2845   2.060   8.577   4.970  0.0419  0.5600  0.5526
   22MOL0     C 2846   2.077   8.644   5.106 -0.6417  0.4241 -0.0836
   22MOL0     C 2847   1.952   8.620   5.197 -0.2827  0.1289 -0.4533
   22MOL0     C 2848   1.977   8.695   5.332 -0.4690  0.4000 -0.6460
   22MOL0     C 2849   1.957   8.844   5.337 -0.7369 -0.5685  0.3873
   22MOL0     C 2850   1.968   8.887   5.481 -1.0586  0.2271  0.0950
   22MOL0     C 2851   1.981   9.041   5.507 -0.4366  0.9217 -0.5680
   22MOL0     N 2852   1.888   9.121   5.428 -0.0653  0.4069  0.1695
   22MOL0     C 2853   1.916   9.219   5.333  0.8969  0.3850  0.2104
   22MOL0     C 2854   1.793   9.240   5.273 -1.0842 -0.2722  0.3356
   22MOL0     C 2855   1.770   9.329   5.149  0.0412  0.3573 -0.2437
   22MOL0     C 2856   1.790   9.479   5.183  0.2174 -0.0867  1.3051
   22MOL0     C 2857   1.734   9.561   5.065 -0.7703  0.1475 -0.1506
   22MOL0     C 2858   1.781   9.531   4.916 -0.2104  0.2875 -0.4666
   22MOL0     O 2859   1.741   9.644   4.846 -0.2315  0.1015  0.6670
   22MOL0     C 2860   1.789   9.697   4.728  0.3887 -1.2897 -0.1989
   22MOL0     C 2861   1.886   9.635   4.638  0.4790 -0.2186  0.1549
   22MOL0     C 2862   1.928   9.694   4.520  0.3287  0.1456 -0.4899
   22MOL0     C 2863   2.032   9.627   4.439  0.1826  0.1312 -0.1949
   22MOL0     C 2864   1.859   9.810   4.478 -0.7138  0.3251  0.8810
   22MOL0     C 2865   1.895   9.886   4.352  0.1051 -0.1396  0.0338
   22MOL0     O 2866   1.877   9.813   4.244 -0.2450  0.5203 -0.4110
   22MOL0     C 2867   1.927   9.846   4.125  0.6864  0.1361  0.7006
   22MOL0     C 2868   1.895   9.970   4.063 -0.8197  0.2939 -1.0115
   22MOL0     C 2869   1.956  10.001   3.942  0.0244  0.6164  0.2948
   22MOL0     C 2870   2.035   9.896   3.874 -0.1454 -1.1294 -0.3087
   22MOL0     O 2871   2.099   9.934   3.760  0.5694  0.1205 -0.4783
   22MOL0     C 2872   2.243   9.898   3.757 -0.2175  0.3075  0.1630
   22MOL0     C 2873   2.309   9.965   3.646  0.0104 -0.0737  0.1851
   22MOL0     C 2874   2.311  10.118   3.664 -0.2131 -0.3854 -0.6358
   22MOL0     C 2875   2.389  10.162   3.540 -0.0748 -0.3288 -0.0327
   22MOL0     C 2876   2.391  10.312   3.544  0.5476 -0.4795 -0.0520
   22MOL0     C 2877   2.456  10.358   3.414 -0.2498  0.7405  1.1223
   22MOL0     C 2878   2.486  10.507   3.417  0.6750 -0.0158  0.0007
   22MOL0     C 2879   2.559  10.566   3.296  0.2298 -0.2669  0.2642
   22MOL0    Cl 2880   2.733  10.528   3.270  0.3024  0.0007  0.0326
   22MOL0     C 2881   2.049   9.774   3.928  0.3767 -0.1005  0.8591
   22MOL0     C 2882   2.005   9.749   4.056  0.3762 -0.9620 -0.0162
   22MOL0     O 2883   1.950   9.999   4.355 -0.0148  0.4271  0.3997
   22MOL0     C 2884   1.761   9.873   4.560 -0.6990 -0.8837  0.2192
   22MOL0     C 2885   1.739   9.822   4.689 -0.3011  0.1763 -0.4083
   22MOL0     N 2886   1.695   9.172   5.346  0.1487 -0.7021 -0.3192
   22MOL0     N 2887   1.761   9.114   5.446 -0.3788  0.9206 -0.2579
   22MOL0     C 2888   2.012   8.148   4.966  0.3228  0.1051 -0.4437
   22MOL0     C 2889   1.984   8.014   4.995 -0.9843 -0.0109 -0.1730
   22MOL0     C 2890   1.903   7.602   5.058  0.3659  0.0053  0.3873
   22MOL0     C 2891   1.844   7.600   5.192  0.2671 -0.4836 -0.0203
   22MOL0     C 2892   1.796   7.475   5.243 -0.1722  0.6767 -0.0743
   22MOL0     C 2893   1.805   7.353   5.167 -0.0700  0.0439 -0.2623
   22MOL0     O 2894   1.737   7.248   5.215 -0.1725 -0.1984  0.2102
   22MOL0     C 2895   1.819   7.161   5.291 -0.5534 -0.3515 -0.7829
   22MOL0     C 2896   1.745   7.030   5.321 -0.0036 -0.2436  0.0917
   22MOL0     C 2897   1.636   7.058   5.425  0.3302 -0.0993 -0.3119
   22MOL0     C 2898   1.609   6.939   5.509  0.3716 -0.4280  0.4574
   22MOL0     C 2899   1.485   6.950   5.584  0.1606 -0.7085  0.1467
   22MOL0     C 2900   1.391   6.975   5.659 -0.5248 -0.4179 -0.6891
   22MOL0     C 2901   1.864   7.360   5.034 -0.2478  0.7977  0.1363
   22MOL0     C 2902   1.908   7.479   4.978 -0.3837 -1.4061 -0.4861
   22MOL0     H 2903   2.148   7.922   5.259  0.4078 -3.2907 -2.3094
   22MOL0     H 2904   2.217   8.199   5.228  1.7394 -0.5344 -1.3289
   22MOL0     H 2905   2.043   8.394   4.865 -0.3706  2.3962 -0.8943
   22MOL0     H 2906   1.926   8.412   4.997 -2.3378  1.7505 -4.0391
   22MOL0     H 2907   2.142   8.592   4.900 -1.6752 -0.5332 -1.8243
   22MOL0     H 2908   1.962   8.606   4.931  0.3605  0.2715 -0.4827
   22MOL0     H 2909   2.163   8.603   5.160  0.8850  0.4867 -2.3529
   22MOL0     H 2910   2.095   8.751   5.091  5.2417 -0.5936 -3.3417
   22MOL0     H 2911   1.856   8.651   5.153 -2.5166 -2.9666  1.7754
   22MOL0     H 2912   1.931   8.515   5.221 -0.3773  0.2791  0.1362
   22MOL0     H 2913   1.897   8.657   5.396 -0.8165  0.0894 -1.2575
   22MOL0     H 2914   2.072   8.670   5.379 -1.2461 -0.2918  0.5900
   22MOL0     H 2915   2.025   8.894   5.266 -2.6034  1.7298  0.1038
   22MOL0     H 2916   1.859   8.869   5.296 -0.6241  1.9382  1.4513
   22MOL0     H 2917   1.877   8.856   5.532 -3.6851  1.8195 -3.2372
   22MOL0     H 2918   2.050   8.834   5.530  0.8811  1.9920 -1.0656
   22MOL0     H 2919   2.085   9.066   5.485  0.3861 -0.6201  1.2897
   22MOL0     H 2920   1.963   9.054   5.614 -1.3946  0.9803 -0.7318
   22MOL0     H 2921   2.009   9.265   5.302 -0.4638  1.7926 -2.0460
   22MOL0     H 2922   1.831   9.299   5.063  1.1893  0.3689  0.5501
   22MOL0     H 2923   1.667   9.308   5.117  0.5870 -0.5971 -1.4729
   22MOL0     H 2924   1.897   9.497   5.193  0.4165  1.8122 -2.4007
   22MOL0     H 2925   1.735   9.505   5.273 -0.4184 -2.2670  1.6066
   22MOL0     H 2926   1.770   9.662   5.086  1.0240 -0.5987  0.6098
   22MOL0     H 2927   1.626   9.558   5.075 -0.5884  0.8730  3.0025
   22MOL0     H 2928   1.718   9.444   4.894 -1.9342  1.4508 -0.3442
   22MOL0     H 2929   1.888   9.510   4.911 -0.5460 -2.2779  1.0415
   22MOL0     H 2930   1.924   9.534   4.652  2.2362  0.6175  1.8288
   22MOL0     H 2931   2.078   9.705   4.378  0.0014  0.2205 -0.2148
   22MOL0     H 2932   2.103   9.580   4.508 -2.1217  0.4875  2.6116
   22MOL0     H 2933   1.993   9.547   4.376  0.8073 -0.4042  0.0757
   22MOL0     H 2934   1.838  10.046   4.117  1.3423  1.1281  0.2159
   22MOL0     H 2935   1.946  10.084   3.873  0.2286  2.0094  1.8765
   22MOL0     H 2936   2.289   9.927   3.852 -0.8666 -1.6347  1.1213
   22MOL0     H 2937   2.242   9.791   3.734 -1.5909  0.7829 -2.4673
   22MOL0     H 2938   2.409   9.920   3.638 -1.0620 -2.4721 -0.6239
   22MOL0     H 2939   2.253   9.945   3.554 -1.6752  1.0116  0.9302
   22MOL0     H 2940   2.356  10.144   3.760  1.9646 -2.7666 -0.8963
   22MOL0     H 2941   2.205  10.147   3.661 -0.9142 -2.7298 -0.4423
   22MOL0     H 2942   2.484  10.108   3.543  0.2062 -0.0295 -2.0354
   22MOL0     H 2943   2.330  10.132   3.453 -1.0887  0.1552  0.4709
   22MOL0     H 2944   2.459  10.349   3.622  0.5205 -1.2181  0.3366
   22MOL0     H 2945   2.294  10.359   3.560 -0.4882 -2.4765 -0.1796
   22MOL0     H 2946   2.544  10.299   3.388 -0.3209  0.2570  1.9526
   22MOL0     H 2947   2.383  10.351   3.333 -2.0555  1.0447  2.6480
   22MOL0     H 2948   2.553  10.526   3.501  1.2882  0.5912 -0.6147
   22MOL0     H 2949   2.394  10.566   3.429  0.9157  0.1108  1.5019
   22MOL0     H 2950   2.545  10.674   3.307 -2.2769  0.0314 -3.7359
   22MOL0     H 2951   2.507  10.539   3.204 -1.1592 -0.8328  1.1713
   22MOL0     H 2952   2.093   9.694   3.869  1.7717 -1.0744  3.0702
   22MOL0     H 2953   2.034   9.656   4.103  1.0711 -0.5407  0.4082
   22MOL0     H 2954   1.717   9.964   4.519 -1.2907 -2.0324 -1.8497
   22MOL0     H 2955   1.670   9.879   4.749  0.1714  0.5397 -0.1997
   22MOL0     H 2956   1.960   8.198   4.885 -2.3295  1.8075  2.0836
   22MOL0     H 2957   1.918   7.971   4.922  2.3065 -0.9905 -2.8091
   22MOL0     H 2958   1.844   7.683   5.262  1.1260  2.0967 -2.8543
   22MOL0     H 2959   1.764   7.468   5.346  3.4100  0.5538  1.1678
   22MOL0     H 2960   1.900   7.142   5.220 -0.2615  1.2464 -0.9248
   22MOL0     H 2961   1.857   7.212   5.380 -0.7257 -0.7594 -0.4729
   22MOL0     H 2962   1.817   6.960   5.364 -0.0519 -1.2867 -1.4453
   22MOL0     H 2963   1.704   6.987   5.229  0.4153 -2.1356  0.7602
   22MOL0     H 2964   1.543   7.091   5.379  1.9418  1.8827 -2.3819
   22MOL0     H 2965   1.672   7.141   5.487  3.3540 -2.1843  0.9898
   22MOL0     H 2966   1.690   6.927   5.581 -0.5902  1.1846  1.8662
   22MOL0     H 2967   1.590   6.850   5.448  0.7732  0.1375 -0.5190
   22MOL0     H 2968   1.299   6.982   5.714 -3.9491 -3.1605 -5.3081
   22MOL0     H 2969   1.878   7.274   4.968  3.0251 -0.0217  1.7246
   22MOL0     H 2970   1.950   7.473   4.878 -1.4146 -0.7262 -0.9739
   23MOL0     O 2971   7.189   8.994   8.275 -0.4942 -0.6467 -1.0617
   23MOL0     C 2972   7.313   8.975   8.258  0.1169  0.3552  0.2121
   23MOL0     O 2973   7.391   8.878   8.325 -0.6104 -0.1888  0.6116
   23MOL0     C 2974   7.341   8.787   8.422  0.2981 -0.8360  0.5293
   23MOL0     C 2975   7.238   8.805   8.505  0.1331  0.0129 -0.4468
   23MOL0     C 2976   7.222   8.718   8.614 -0.1918  0.0037 -0.1702
   23MOL0     C 2977   7.292   8.597   8.623 -0.1805 -0.0998 -0.4253
   23MOL0     O 2978   7.273   8.528   8.743 -0.4941  0.1986  0.4960
   23MOL0     C 2979   7.343   8.403   8.749  0.8095 -0.1552 -0.0983
   23MOL0     C 2980   7.342   8.357   8.885 -0.3308  0.8633 -0.5175
   23MOL0     C 2981   7.454   8.243   8.904  0.2711  0.2530  0.3224
   23MOL0     C 2982   7.488   8.209   9.040  0.1714  0.1562 -0.7522
   23MOL0     C 2983   7.483   8.056   9.066  0.1312  1.0448 -0.8696
   23MOL0     C 2984   7.522   8.033   9.210  0.4347 -0.6180 -0.5347
   23MOL0     C 2985   7.504   7.887   9.264  0.4113  0.2550 -0.4564
   23MOL0     C 2986   7.525   7.876   9.416  0.1835  0.1624 -0.4279
   23MOL0     N 2987   7.459   7.987   9.492 -0.0044 -0.0965  0.7953
   23MOL0     C 2988   7.334   8.041   9.466 -0.9475  0.3317 -0.0439
   23MOL0     C 2989   7.326   8.147   9.552  0.2004  0.5688 -0.2162
   23MOL0     C 2990   7.224   8.253   9.577  0.7338 -0.1778  0.0205
   23MOL0     C 2991   7.088   8.243   9.500 -0.2048 -0.8163  0.5225
   23MOL0     C 2992   7.004   8.133   9.555 -0.2585  0.5029  0.1127
   23MOL0     C 2993   6.884   8.129   9.472  0.3761  0.2392  0.2402
   23MOL0     O 2994   6.810   8.036   9.555 -0.9060 -0.4343  0.1223
   23MOL0     C 2995   6.681   8.061   9.536  0.4513  1.8123 -0.7659
   23MOL0     C 2996   6.607   8.127   9.636  0.3566  0.0300  0.4224
   23MOL0     C 2997   6.478   8.165   9.605 -0.3992 -0.2803  0.3461
   23MOL0     C 2998   6.391   8.225   9.715 -0.2411  0.2072 -0.1542
   23MOL0     C 2999   6.412   8.130   9.482  1.0363 -1.3441  0.3433
   23MOL0     C 3000   6.270   8.161   9.449 -0.0670 -0.3939 -0.1306
   23MOL0     O 3001   6.222   8.072   9.356  0.2248 -0.0874 -0.5495
   23MOL0     C 3002   6.094   8.078   9.301  0.5686 -0.5939  0.3910
   23MOL0     C 3003   5.986   8.108   9.382 -0.1369  0.1421 -0.1879
   23MOL0     C 3004   5.864   8.128   9.324  0.4607 -0.0211 -0.5975
   23MOL0     C 3005   5.838   8.088   9.192 -0.5338 -0.6430  0.4370
   23MOL0     O 3006   5.707   8.078   9.158  0.7595 -0.0092  0.3916
   23MOL0     C 3007   5.669   8.064   9.024  0.0560 -0.0299  0.5889
   23MOL0     C 3008   5.543   7.973   9.033 -0.4254  0.0939  0.3933
   23MOL0     C 3009   5.495   7.944   8.886 -0.9138 -0.3848 -0.3143
   23MOL0     C 3010   5.381   7.855   8.871  0.3178  0.3093 -0.8174
   23MOL0     C 3011   5.342   7.843   8.723 -0.5757 -0.5245  0.6669
   23MOL0     C 3012   5.199   7.764   8.727 -0.3899 -0.9923  0.0700
   23MOL0     C 3013   5.080   7.830   8.787 -0.0722 -0.0427 -0.3762
   23MOL0     C 3014   5.052   7.958   8.734  0.9319  0.1501  0.8506
   23MOL0    Cl 3015   4.997   7.919   8.563  0.7340  0.4249  0.0961
   23MOL0     C 3016   5.945   8.057   9.108 -0.1071  0.2040  0.5786
   23MOL0     C 3017   6.075   8.059   9.163  0.0333  0.2610 -0.4467
   23MOL0     O 3018   6.214   8.259   9.481 -0.9946  1.4492 -0.5690
   23MOL0     C 3019   6.482   8.050   9.384 -1.3307  0.2517  0.9775
   23MOL0     C 3020   6.617   8.025   9.415 -0.5120  0.5581  0.4800
   23MOL0     N 3021   7.440   8.158   9.624 -0.1552  0.2503 -0.4031
   23MOL0     N 3022   7.513   8.057   9.588 -0.5736 -0.2665 -0.6048
   23MOL0     C 3023   7.378   8.564   8.517  0.6212 -0.5917 -0.2737
   23MOL0     C 3024   7.408   8.668   8.420  0.0951  1.1109  0.1129
   23MOL0     C 3025   7.374   9.065   8.166  0.1515 -0.0183 -0.2882
   23MOL0     C 3026   7.303   9.182   8.117  0.2871  0.4702 -0.3806
   23MOL0     C 3027   7.356   9.269   8.028 -0.3482  0.8363 -0.4161
   23MOL0     C 3028   7.479   9.237   7.959  1.0825 -0.7593  0.0278
   23MOL0     O 3029   7.529   9.315   7.851 -0.4125 -0.2955  0.0940
   23MOL0     C 3030   7.434   9.404   7.795  0.5141 -0.6299  0.9122
   23MOL0     C 3031   7.312   9.351   7.714  0.7762 -1.6755 -0.3956
   23MOL0     C 3032   7.219   9.476   7.683  0.0439  0.6718 -0.0627
   23MOL0     C 3033   7.286   9.593   7.602  0.6260  0.5691 -0.2234
   23MOL0     C 3034   7.169   9.667   7.556  0.7059  0.5376  0.4931
   23MOL0     C 3035   7.077   9.738   7.522 -0.7795  0.4061 -0.3610
   23MOL0     C 3036   7.552   9.124   8.000 -0.0585 -0.4996 -0.5630
   23MOL0     C 3037   7.498   9.044   8.105  0.5183  0.0695 -0.0428
   23MOL0     H 3038   7.185   8.900   8.496 -0.6753 -0.3421  0.3486
   23MOL0     H 3039   7.155   8.741   8.696 -0.9594  2.3969 -1.3848
   23MOL0     H 3040   7.288   8.337   8.681 -3.2635 -0.0876  2.7383
   23MOL0     H 3041   7.450   8.410   8.728  0.8696  2.7849  0.8339
   23MOL0     H 3042   7.379   8.433   8.954  3.2475 -1.3292  0.2013
   23MOL0     H 3043   7.248   8.314   8.921 -0.5603  0.9801 -0.9665
   23MOL0     H 3044   7.430   8.151   8.850 -0.7529  1.8001 -2.0798
   23MOL0     H 3045   7.547   8.284   8.864  0.6591 -0.1941  0.7700
   23MOL0     H 3046   7.588   8.246   9.065 -1.9674  3.9649  3.4363
   23MOL0     H 3047   7.413   8.254   9.105  0.6047 -0.5000  0.2254
   23MOL0     H 3048   7.378   8.028   9.057  0.5617 -3.1618  3.2125
   23MOL0     H 3049   7.542   7.989   9.003 -0.4862  1.0787 -1.5000
   23MOL0     H 3050   7.627   8.055   9.230 -0.5404  2.2969  2.3452
   23MOL0     H 3051   7.470   8.116   9.258  0.7998 -0.8653  0.2988
   23MOL0     H 3052   7.404   7.852   9.235  0.6290  0.5709 -1.6388
   23MOL0     H 3053   7.575   7.816   9.219 -2.7237 -2.7976 -1.0388
   23MOL0     H 3054   7.632   7.878   9.441  0.2500 -0.6935 -0.6055
   23MOL0     H 3055   7.490   7.784   9.463  1.3614 -0.0586  0.0538
   23MOL0     H 3056   7.263   8.011   9.390  0.0800 -3.8445  0.3988
   23MOL0     H 3057   7.199   8.259   9.683 -2.5889  1.0290 -0.7263
   23MOL0     H 3058   7.269   8.350   9.557  0.1996  0.4300  1.6570
   23MOL0     H 3059   7.110   8.218   9.395  3.0963 -1.6733  1.3190
   23MOL0     H 3060   7.039   8.341   9.506 -1.9977 -1.5732 -0.6358
   23MOL0     H 3061   6.976   8.146   9.660 -1.0713 -1.4698  0.1827
   23MOL0     H 3062   7.048   8.033   9.554  1.7764  1.2746  2.4637
   23MOL0     H 3063   6.910   8.093   9.372  0.1124  2.4910 -0.7092
   23MOL0     H 3064   6.831   8.224   9.460  2.1631  0.9978 -2.7996
   23MOL0     H 3065   6.656   8.185   9.713  1.5608  3.3552 -2.5243
   23MOL0     H 3066   6.376   8.333   9.702 -2.0698 -0.0447 -0.4558
   23MOL0     H 3067   6.297   8.169   9.720 -0.0689 -0.0033  1.0788
   23MOL0     H 3068   6.436   8.199   9.811  1.1372  2.7445 -0.0002
   23MOL0     H 3069   6.002   8.111   9.489 -1.0133 -1.0174 -0.0081
   23MOL0     H 3070   5.783   8.156   9.390  0.6391 -3.3062  1.2253
   23MOL0     H 3071   5.644   8.164   8.990 -4.6947 -1.0388  0.4074
   23MOL0     H 3072   5.743   8.012   8.962 -1.7233  0.6968 -2.2873
   23MOL0     H 3073   5.564   7.877   9.081 -2.2604  0.7134  2.6229
   23MOL0     H 3074   5.461   8.025   9.084 -3.6824 -1.2521 -3.0192
   23MOL0     H 3075   5.583   7.914   8.828  2.3478  1.8029  3.0302
   23MOL0     H 3076   5.476   8.044   8.847  0.4852 -1.2147 -3.3937
   23MOL0     H 3077   5.410   7.757   8.909 -5.1854 -0.3637  2.8356
   23MOL0     H 3078   5.295   7.890   8.929 -1.1849 -0.3636 -2.5322
   23MOL0     H 3079   5.415   7.780   8.673  2.6812  0.9593  3.2195
   23MOL0     H 3080   5.343   7.939   8.670  1.8470 -0.8913 -0.0326
   23MOL0     H 3081   5.182   7.752   8.620 -3.4417  3.1738 -0.1717
   23MOL0     H 3082   5.217   7.661   8.759 -2.3547 -1.6571 -0.7765
   23MOL0     H 3083   5.092   7.828   8.896 -0.7647 -0.6241 -0.3062
   23MOL0     H 3084   4.992   7.774   8.755  1.6594 -1.5848 -2.7602
   23MOL0     H 3085   5.140   8.023   8.730  1.7149 -0.8940  0.2429
   23MOL0     H 3086   4.982   8.010   8.800  1.2054  1.3659  0.2169
   23MOL0     H 3087   5.932   8.020   9.007 -1.5294  0.7030  0.5525
   23MOL0     H 3088   6.165   8.056   9.102 -0.7296  2.2215 -1.7974
   23MOL0     H 3089   6.442   8.012   9.291 -0.2298  1.6006 -0.0981
   23MOL0     H 3090   6.677   7.975   9.339 -0.9330 -0.4657  0.7998
   23MOL0     H 3091   7.425   8.466   8.513 -1.3673 -1.5971 -0.3143
   23MOL0     H 3092   7.495   8.662   8.356 -1.5933  0.0328 -2.2545
   23MOL0     H 3093   7.203   9.201   8.153  0.5930  0.8265  0.3052
   23MOL0     H 3094   7.302   9.361   8.003 -0.6509  0.7741 -0.0057
   23MOL0     H 3095   7.409   9.479   7.871  2.9735 -0.3559  1.5442
   23MOL0     H 3096   7.494   9.463   7.725 -3.5614 -1.2561 -3.6483
   23MOL0     H 3097   7.244   9.282   7.765 -0.6392 -0.9070 -1.1719
   23MOL0     H 3098   7.340   9.302   7.620  2.7570 -0.1500 -0.6679
   23MOL0     H 3099   7.195   9.510   7.785 -1.9546  4.3741 -1.5763
   23MOL0     H 3100   7.131   9.441   7.630 -0.7316  0.2850  1.4137
   23MOL0     H 3101   7.343   9.555   7.517  1.0584 -1.1117  0.7827
   23MOL0     H 3102   7.356   9.646   7.667  0.6990  0.5392 -0.2782
   23MOL0     H 3103   7.003   9.809   7.490 -2.2895 -0.9251  0.0745
   23MOL0     H 3104   7.644   9.103   7.946  1.1716  2.6612  0.0855
   23MOL0     H 3105   7.565   8.963   8.132  0.2717 -0.0289  0.2668
   24MOL0     O 3106   6.682   9.177  11.392  0.3799 -0.0831  0.0038
   24MOL0     C 3107   6.784   9.173  11.334 -0.6789 -0.1444 -0.2466
   24MOL0     O 3108   6.814   9.235  11.213  0.5433 -0.4656  0.0925
   24MOL0     C 3109   6.706   9.268  11.133 -0.4658  0.7107  0.3987
   24MOL0     C 3110   6.597   9.179  11.107 -0.3124  0.4670  0.1602
   24MOL0     C 3111   6.499   9.218  11.014 -0.1871  0.2778  0.0529
   24MOL0     C 3112   6.501   9.347  10.959  0.4953 -0.1180  0.5852
   24MOL0     O 3113   6.380   9.385  10.892  0.1103  0.5474 -0.9896
   24MOL0     C 3114   6.366   9.503  10.814  0.0205 -0.8503  0.2656
   24MOL0     C 3115   6.277   9.604  10.895 -0.7682 -0.3375  0.4615
   24MOL0     C 3116   6.229   9.726  10.802  0.4593  0.8420 -0.4267
   24MOL0     C 3117   6.180   9.836  10.890  0.5172  0.2173  0.3810
   24MOL0     C 3118   6.124   9.957  10.806  0.5052  0.0249  0.2278
   24MOL0     C 3119   6.043  10.045  10.881  0.3603 -0.0586  0.3834
   24MOL0     C 3120   6.044  10.196  10.823 -0.1567  0.5607  0.2716
   24MOL0     C 3121   6.015  10.192  10.677  0.7907 -0.3621 -0.2540
   24MOL0     N 3122   5.887  10.137  10.635  0.6488  0.3549 -1.6407
   24MOL0     C 3123   5.759  10.172  10.661  0.3760  0.1397  0.1592
   24MOL0     C 3124   5.687  10.106  10.574 -0.0893 -0.4240 -0.1397
   24MOL0     C 3125   5.535  10.103  10.554 -0.4660 -0.1398  0.4606
   24MOL0     C 3126   5.475  10.243  10.556  0.0207 -0.4083 -0.5406
   24MOL0     C 3127   5.535  10.321  10.439  0.9707  0.1194 -0.5451
   24MOL0     C 3128   5.486  10.471  10.444 -0.4336 -0.1977  0.2332
   24MOL0     O 3129   5.521  10.545  10.323  0.6500 -0.0440  0.3893
   24MOL0     C 3130   5.471  10.668  10.299  0.9369  0.6479 -0.0260
   24MOL0     C 3131   5.389  10.743  10.393 -0.7729  0.0709 -0.1775
   24MOL0     C 3132   5.333  10.866  10.360 -0.1245  0.5065  0.0763
   24MOL0     C 3133   5.232  10.918  10.457  0.8345  0.3988  0.5405
   24MOL0     C 3134   5.370  10.933  10.237 -0.0088  0.0225 -0.2998
   24MOL0     C 3135   5.329  11.066  10.191  0.9218 -0.6052 -0.0401
   24MOL0     O 3136   5.225  11.128  10.249 -0.0343 -0.5182 -0.0125
   24MOL0     C 3137   5.170  11.234  10.180 -0.8317 -0.2003  0.0006
   24MOL0     C 3138   5.072  11.219  10.085 -0.5269 -0.0933 -0.3505
   24MOL0     C 3139   4.997  11.326  10.055  0.4808 -0.3467  0.5611
   24MOL0     C 3140   5.040  11.457  10.089  0.5064  0.1215  0.0233
   24MOL0     O 3141   4.965  11.557  10.043  0.3020  0.3248 -0.2191
   24MOL0     C 3142   4.998  11.684  10.103 -0.5922 -0.0457  0.4054
   24MOL0     C 3143   4.891  11.781  10.053 -0.1072 -0.1691 -0.4233
   24MOL0     C 3144   4.898  11.922  10.100  0.4611 -0.3302 -0.5490
   24MOL0     C 3145   4.761  11.986  10.122 -0.0881  0.7184 -0.1052
   24MOL0     C 3146   4.770  12.128  10.163  0.6735 -0.0973 -0.9146
   24MOL0     C 3147   4.640  12.198  10.208  0.2615  0.2063 -0.2967
   24MOL0     C 3148   4.665  12.336  10.260 -0.2261  0.4113  0.3190
   24MOL0     C 3149   4.539  12.416  10.256 -0.9736  0.0346 -0.2477
   24MOL0    Cl 3150   4.586  12.593  10.286 -0.2478  0.2603 -0.3144
   24MOL0     C 3151   5.152  11.470  10.175  0.3569  0.3728  0.1049
   24MOL0     C 3152   5.221  11.356  10.222  0.3271  0.2673  0.1143
   24MOL0     O 3153   5.390  11.117  10.098 -1.2185  0.2993 -0.3308
   24MOL0     C 3154   5.458  10.856  10.151  0.3301  0.1999 -0.4889
   24MOL0     C 3155   5.496  10.728  10.176  0.5112 -0.7261 -1.0027
   24MOL0     N 3156   5.776  10.021  10.510  0.1079  0.5862  0.5048
   24MOL0     N 3157   5.893  10.043  10.538 -0.4828  0.0092 -0.8187
   24MOL0     C 3158   6.611   9.428  10.980 -0.0856  0.3676  0.7133
   24MOL0     C 3159   6.711   9.387  11.064 -0.2217  0.2799 -0.8003
   24MOL0     C 3160   6.878   9.077  11.374 -1.0272 -0.4116 -0.0475
   24MOL0     C 3161   7.007   9.076  11.324 -0.3039  0.5892 -0.7672
   24MOL0     C 3162   7.100   8.982  11.376 -0.2374 -0.7693 -0.3215
   24MOL0     C 3163   7.069   8.882  11.464 -0.2562 -0.2830 -0.5266
   24MOL0     O 3164   7.173   8.799  11.499 -0.5686 -0.4286 -0.0976
   24MOL0     C 3165   7.142   8.680  11.575  0.7764  0.5913 -0.5645
   24MOL0     C 3166   7.263   8.621  11.643 -0.7501  0.3334 -0.6079
   24MOL0     C 3167   7.311   8.716  11.754  0.4519 -0.5432  0.2905
   24MOL0     C 3168   7.450   8.674  11.809 -0.3404  0.7943  0.0205
   24MOL0     C 3169   7.431   8.556  11.888 -0.9354  0.0861  0.7432
   24MOL0     C 3170   7.418   8.460  11.962  0.9029 -1.4409  0.3248
   24MOL0     C 3171   6.936   8.884  11.519  0.3305  0.2715 -0.3304
   24MOL0     C 3172   6.846   8.983  11.475 -0.3784 -1.0940  1.2322
   24MOL0     H 3173   6.586   9.083  11.157 -3.7076 -0.1016 -1.3883
   24MOL0     H 3174   6.414   9.151  11.004 -2.8808  3.2543  1.1487
   24MOL0     H 3175   6.464   9.547  10.795 -1.3792  1.3499 -2.5893
   24MOL0     H 3176   6.318   9.468  10.723 -1.2812 -0.6039  0.8368
   24MOL0     H 3177   6.194   9.559  10.950 -1.2602 -0.7137 -0.5612
   24MOL0     H 3178   6.345   9.632  10.975  1.3197 -1.4357 -0.8592
   24MOL0     H 3179   6.322   9.761  10.757  2.3012 -2.3757  0.6220
   24MOL0     H 3180   6.155   9.695  10.727  1.9562  0.1030 -1.6351
   24MOL0     H 3181   6.092   9.797  10.941  1.3171 -0.0726  1.5732
   24MOL0     H 3182   6.257   9.852  10.966 -0.7571 -1.9160  2.2435
   24MOL0     H 3183   6.205  10.023  10.774 -0.1109  1.1441  0.9073
   24MOL0     H 3184   6.070   9.917  10.719 -1.7396  0.0457  1.5424
   24MOL0     H 3185   5.939  10.010  10.880 -0.5653  2.4802 -0.0619
   24MOL0     H 3186   6.079  10.054  10.984  1.7901  1.0026 -0.1702
   24MOL0     H 3187   5.984  10.270  10.876  1.8537  1.0518  2.0087
   24MOL0     H 3188   6.148  10.226  10.839  0.1941  1.0065 -2.4834
   24MOL0     H 3189   6.093  10.136  10.625 -0.0223 -0.5282 -1.3465
   24MOL0     H 3190   6.023  10.290  10.628  1.5214 -0.0622  0.4467
   24MOL0     H 3191   5.721  10.257  10.717 -2.3404 -0.7921 -0.1257
   24MOL0     H 3192   5.505  10.044  10.467  0.7936  0.0821 -0.1529
   24MOL0     H 3193   5.504  10.053  10.646 -0.6235 -1.6124 -0.3489
   24MOL0     H 3194   5.499  10.286  10.654  1.4542 -1.1878 -0.5213
   24MOL0     H 3195   5.366  10.239  10.556 -0.2558  1.1726  3.9190
   24MOL0     H 3196   5.484  10.279  10.351 -2.7855  0.2443  1.3654
   24MOL0     H 3197   5.644  10.318  10.433  0.9514  0.9031 -1.5786
   24MOL0     H 3198   5.529  10.516  10.534 -1.6757  0.7941  0.3494
   24MOL0     H 3199   5.377  10.477  10.447 -0.3518  1.1554  1.2842
   24MOL0     H 3200   5.379  10.706  10.494  1.9060  3.9375  1.7581
   24MOL0     H 3201   5.251  11.026  10.463  0.0660  0.4760  2.4539
   24MOL0     H 3202   5.133  10.896  10.417  1.1189 -0.3593  0.2405
   24MOL0     H 3203   5.236  10.873  10.557 -0.9063 -1.2533 -0.0891
   24MOL0     H 3204   5.045  11.115  10.069 -2.0216  0.5778 -2.7153
   24MOL0     H 3205   4.904  11.316  10.000  0.3043 -0.1841  0.8302
   24MOL0     H 3206   4.982  11.685  10.211 -0.1725  0.3227  0.4627
   24MOL0     H 3207   5.094  11.714  10.061 -0.8313 -0.5788 -0.5528
   24MOL0     H 3208   4.903  11.784   9.944  2.0915 -1.4955 -0.2890
   24MOL0     H 3209   4.794  11.732  10.067 -0.0073  0.4898  3.7636
   24MOL0     H 3210   4.965  11.979  10.035  2.0042 -2.0418 -0.5209
   24MOL0     H 3211   4.944  11.919  10.199  0.5791 -4.1077 -0.5896
   24MOL0     H 3212   4.703  11.972  10.030  0.0648 -2.1923  0.1317
   24MOL0     H 3213   4.720  11.927  10.205  2.7190 -2.1174 -0.5372
   24MOL0     H 3214   4.817  12.191  10.087  1.2978 -0.4728 -0.8503
   24MOL0     H 3215   4.838  12.133  10.248 -0.4243 -3.3600  0.3064
   24MOL0     H 3216   4.570  12.198  10.124  0.6522 -3.0636 -0.7549
   24MOL0     H 3217   4.596  12.142  10.291  0.2168 -1.2313 -1.2621
   24MOL0     H 3218   4.745  12.380  10.200 -0.5829 -0.9365 -1.2060
   24MOL0     H 3219   4.701  12.328  10.363  0.5307 -1.7398 -0.0600
   24MOL0     H 3220   4.470  12.376  10.332  0.3283  2.0302  2.1323
   24MOL0     H 3221   4.496  12.414  10.156 -1.9088  2.4273  0.0504
   24MOL0     H 3222   5.196  11.562  10.213 -0.4421  0.7633  0.0936
   24MOL0     H 3223   5.310  11.357  10.284 -0.6182  2.0298  1.5250
   24MOL0     H 3224   5.483  10.897  10.054 -0.4085 -1.2744 -1.3387
   24MOL0     H 3225   5.538  10.672  10.093 -1.6477 -0.5301 -2.2934
   24MOL0     H 3226   6.625   9.522  10.928  1.7643 -0.5875 -0.6313
   24MOL0     H 3227   6.794   9.448  11.098  1.1257 -1.6377 -0.5080
   24MOL0     H 3228   7.045   9.127  11.236  0.6549 -2.1270 -2.0515
   24MOL0     H 3229   7.205   8.995  11.348 -0.2036 -0.9004 -0.2538
   24MOL0     H 3230   7.061   8.693  11.647  2.1932  1.6977  0.9145
   24MOL0     H 3231   7.108   8.602  11.505  0.5143  2.8917 -3.1693
   24MOL0     H 3232   7.347   8.605  11.575  0.4844  2.7836  0.1963
   24MOL0     H 3233   7.231   8.526  11.685 -0.4290  0.2914 -0.4548
   24MOL0     H 3234   7.243   8.702  11.838 -0.2923 -1.8028 -0.4864
   24MOL0     H 3235   7.317   8.818  11.717  2.4212 -1.1357 -1.2323
   24MOL0     H 3236   7.487   8.756  11.871  3.4892 -0.9808  0.3540
   24MOL0     H 3237   7.519   8.656  11.727  0.3239  0.1380  0.7029
   24MOL0     H 3238   7.407   8.368  12.016 -0.6302 -1.2321  0.4042
   24MOL0     H 3239   6.900   8.805  11.584  1.0299  1.5068  1.6294
   24MOL0     H 3240   6.751   8.987  11.528  0.0714 -3.9021  2.4417
   25MOL0     O 3241   7.020   6.664   8.839  0.5628  0.2816 -0.6808
   25MOL0     C 3242   6.959   6.683   8.733 -0.8306 -0.4463 -0.4162
   25MOL0     O 3243   6.926   6.598   8.633  0.2986 -0.1671  0.5767
   25MOL0     C 3244   6.937   6.462   8.650 -0.7490 -0.0969  0.4357
   25MOL0     C 3245   6.902   6.393   8.765 -0.6537 -0.2513 -0.0344
   25MOL0     C 3246   6.891   6.253   8.784 -0.1601 -0.6028  0.6813
   25MOL0     C 3247   6.930   6.182   8.669  0.1420  0.9384 -0.2561
   25MOL0     O 3248   6.944   6.048   8.664  0.2674  0.0875 -0.0695
   25MOL0     C 3249   7.028   5.981   8.763  0.3020 -0.7066  0.5355
   25MOL0     C 3250   7.022   5.833   8.743  0.4192  0.1377 -0.0327
   25MOL0     C 3251   6.909   5.768   8.793  0.3592 -0.2364  0.2457
   25MOL0     C 3252   6.936   5.615   8.779  0.5700  1.1460  0.2536
   25MOL0     C 3253   6.807   5.534   8.764  0.5458  0.6104  0.4389
   25MOL0     C 3254   6.744   5.525   8.908 -0.1207  0.2432  0.0846
   25MOL0     C 3255   6.609   5.449   8.903  0.7122  0.2675  0.1944
   25MOL0     C 3256   6.566   5.431   9.048 -0.1730  0.2442 -0.6330
   25MOL0     N 3257   6.624   5.309   9.115  0.4261  0.9853 -0.1693
   25MOL0     C 3258   6.608   5.270   9.250 -0.7921 -0.0431  0.0031
   25MOL0     C 3259   6.679   5.150   9.251  0.2136  0.0205 -0.4419
   25MOL0     C 3260   6.701   5.055   9.367  0.1342 -0.0059 -1.0125
   25MOL0     C 3261   6.580   4.969   9.408  0.1461 -0.7512  0.0567
   25MOL0     C 3262   6.622   4.874   9.526  0.5749  0.2305  0.6983
   25MOL0     C 3263   6.524   4.760   9.541  0.1304  1.0539  0.6372
   25MOL0     O 3264   6.569   4.656   9.635 -0.1751  0.6737  0.9400
   25MOL0     C 3265   6.647   4.558   9.581 -0.2916  0.5550  0.9137
   25MOL0     C 3266   6.699   4.544   9.454 -0.1116 -0.4881 -0.4549
   25MOL0     C 3267   6.774   4.436   9.421 -0.0135 -0.9786 -0.9894
   25MOL0     C 3268   6.824   4.434   9.278 -0.6580 -0.1336  0.2755
   25MOL0     C 3269   6.818   4.342   9.521 -0.2599 -1.1251  0.0201
   25MOL0     C 3270   6.908   4.225   9.487 -0.5393  0.1381  0.1000
   25MOL0     O 3271   6.928   4.148   9.593  1.0308  0.2601  0.2281
   25MOL0     C 3272   7.022   4.048   9.581  0.0658  0.3363 -0.1822
   25MOL0     C 3273   7.150   4.070   9.632 -0.3491  0.4725 -0.1227
   25MOL0     C 3274   7.254   3.977   9.609 -0.0264 -0.7112  0.2850
   25MOL0     C 3275   7.229   3.862   9.524  0.1681 -0.2054  0.2126
   25MOL0     O 3276   7.330   3.768   9.485 -0.4864 -0.3024  0.1427
   25MOL0     C 3277   7.464   3.797   9.529  0.6167  0.0159  0.0662
   25MOL0     C 3278   7.548   3.667   9.517 -0.1840  0.7666  0.1239
   25MOL0     C 3279   7.482   3.553   9.615  0.2936  0.2059  0.9152
   25MOL0     C 3280   7.553   3.421   9.598 -0.3210  0.0824  0.6717
   25MOL0     C 3281   7.677   3.398   9.682 -0.1717 -0.1901 -0.2481
   25MOL0     C 3282   7.723   3.250   9.655 -0.3878 -0.0708 -0.0839
   25MOL0     C 3283   7.871   3.217   9.693 -0.1327 -0.4164 -0.2809
   25MOL0     C 3284   7.888   3.069   9.642 -0.4233  0.3158  0.0507
   25MOL0    Cl 3285   7.998   3.006   9.768 -0.0893  0.4618  0.1947
   25MOL0     C 3286   7.098   3.843   9.482  0.8210  0.1578  0.1015
   25MOL0     C 3287   6.991   3.933   9.511  0.8323 -0.4840 -0.6726
   25MOL0     O 3288   6.943   4.200   9.373 -0.7145 -0.3040 -0.7832
   25MOL0     C 3289   6.770   4.362   9.651 -0.9297  0.3626 -0.2469
   25MOL0     C 3290   6.683   4.468   9.683  0.2696 -0.4491  0.1699
   25MOL0     N 3291   6.730   5.124   9.122 -0.1561 -0.4517  0.3518
   25MOL0     N 3292   6.694   5.220   9.047  0.0371  0.0379 -0.4112
   25MOL0     C 3293   6.973   6.245   8.555  0.1356  0.3152  0.3279
   25MOL0     C 3294   6.976   6.384   8.537 -0.2280 -0.2145 -0.2778
   25MOL0     C 3295   6.932   6.825   8.712  0.3146 -0.0745 -0.6608
   25MOL0     C 3296   7.019   6.931   8.757 -0.1218 -0.6716  0.5952
   25MOL0     C 3297   7.011   7.061   8.709  0.0099 -0.1122  1.6501
   25MOL0     C 3298   6.902   7.092   8.622  0.1518 -1.3709  0.4153
   25MOL0     O 3299   6.891   7.220   8.562  0.1737  0.3726 -0.6092
   25MOL0     C 3300   7.002   7.305   8.554 -0.6447 -0.2913  0.3081
   25MOL0     C 3301   6.977   7.413   8.457 -0.4490  0.8514 -0.9497
   25MOL0     C 3302   7.095   7.485   8.387  0.1977  1.0574 -0.0472
   25MOL0     C 3303   7.057   7.608   8.309  1.1933 -0.4592  0.5309
   25MOL0     C 3304   7.171   7.669   8.234  0.3054 -0.7961 -0.3060
   25MOL0     C 3305   7.254   7.734   8.177 -0.3620  0.1431  0.2226
   25MOL0     C 3306   6.803   7.005   8.600  0.0005 -0.0848 -0.0734
   25MOL0     C 3307   6.820   6.871   8.641 -0.2939  0.3632 -0.4551
   25MOL0     H 3308   6.877   6.439   8.860 -0.1965 -1.5584  0.7469
   25MOL0     H 3309   6.871   6.210   8.882  0.1145  1.8039  1.8890
   25MOL0     H 3310   7.133   6.010   8.754 -0.7577  3.5011 -0.5044
   25MOL0     H 3311   6.977   6.008   8.856 -6.1983 -1.8840 -2.1384
   25MOL0     H 3312   7.032   5.829   8.634 -0.7855  1.9445 -0.2483
   25MOL0     H 3313   7.113   5.787   8.782 -1.3388 -1.5239  2.3896
   25MOL0     H 3314   6.900   5.791   8.900  2.7482  0.7359  0.2853
   25MOL0     H 3315   6.818   5.801   8.741  0.1147 -0.9622  0.1954
   25MOL0     H 3316   7.006   5.601   8.696  0.3580  3.7801 -0.4573
   25MOL0     H 3317   6.986   5.584   8.871  1.3000  0.0155 -0.4972
   25MOL0     H 3318   6.736   5.557   8.684 -1.5708 -0.0455  2.0122
   25MOL0     H 3319   6.844   5.434   8.742 -0.2250  0.9428 -2.7873
   25MOL0     H 3320   6.821   5.469   8.961  1.3896  0.7547 -1.4745
   25MOL0     H 3321   6.724   5.624   8.949 -2.2659 -0.1466  0.1090
   25MOL0     H 3322   6.531   5.515   8.866  0.6499  0.6836  1.0262
   25MOL0     H 3323   6.599   5.353   8.853  0.6414  0.4214 -0.0869
   25MOL0     H 3324   6.462   5.397   9.050  0.2724 -1.1511  0.2307
   25MOL0     H 3325   6.588   5.513   9.117  1.9225 -0.2028 -0.7157
   25MOL0     H 3326   6.546   5.306   9.331 -1.1005 -2.0338  0.7079
   25MOL0     H 3327   6.784   4.986   9.348 -0.5920 -1.5970  1.1704
   25MOL0     H 3328   6.740   5.111   9.453  0.2603 -3.3785  1.3293
   25MOL0     H 3329   6.530   4.918   9.325  2.3559 -1.4202 -0.9345
   25MOL0     H 3330   6.515   5.050   9.443  0.9215 -0.3253  0.5480
   25MOL0     H 3331   6.624   4.941   9.612  2.2716  1.3731 -0.1711
   25MOL0     H 3332   6.721   4.838   9.495  0.0267  1.3755 -2.8397
   25MOL0     H 3333   6.495   4.709   9.448  1.1587  2.4459 -0.4915
   25MOL0     H 3334   6.431   4.806   9.575 -0.1812  1.4891 -0.7265
   25MOL0     H 3335   6.665   4.611   9.376 -1.7675  0.5015  1.0494
   25MOL0     H 3336   6.804   4.526   9.223  0.1539 -0.0477  0.1026
   25MOL0     H 3337   6.933   4.425   9.265 -0.4442  2.0888  0.1810
   25MOL0     H 3338   6.778   4.353   9.220  0.3391 -0.5056 -0.0368
   25MOL0     H 3339   7.163   4.150   9.704  4.1667  1.0958 -1.3380
   25MOL0     H 3340   7.350   3.998   9.656 -0.9529 -0.9988  2.3791
   25MOL0     H 3341   7.518   3.872   9.470  0.3068  2.8525  3.1186
   25MOL0     H 3342   7.478   3.834   9.631  3.4254 -1.3477  0.2700
   25MOL0     H 3343   7.541   3.633   9.413  2.0947  0.1724  0.1111
   25MOL0     H 3344   7.646   3.695   9.557  0.2256  2.2319 -1.7448
   25MOL0     H 3345   7.379   3.535   9.585  0.8807  0.2097 -1.2891
   25MOL0     H 3346   7.485   3.598   9.715  3.1114 -3.0358  2.5219
   25MOL0     H 3347   7.481   3.345   9.630  0.3471 -0.2468  1.4093
   25MOL0     H 3348   7.561   3.408   9.490  0.6391 -1.5556  0.9038
   25MOL0     H 3349   7.660   3.422   9.787  1.0932  2.1017 -0.4964
   25MOL0     H 3350   7.752   3.470   9.648 -0.2038  0.8520  1.7569
   25MOL0     H 3351   7.644   3.193   9.706 -1.1702  3.3826  2.9938
   25MOL0     H 3352   7.730   3.228   9.548  1.1001 -0.2839  0.0422
   25MOL0     H 3353   7.895   3.221   9.800 -0.9184  4.1699 -0.0683
   25MOL0     H 3354   7.938   3.284   9.637 -0.3292 -0.3943 -0.4892
   25MOL0     H 3355   7.930   3.074   9.541  0.5633  3.8474  0.5301
   25MOL0     H 3356   7.798   3.006   9.642  2.3007 -3.9977  0.0617
   25MOL0     H 3357   7.070   3.762   9.414 -0.1272  1.4921 -1.1598
   25MOL0     H 3358   6.893   3.917   9.468 -1.2626  3.1582  2.2379
   25MOL0     H 3359   6.788   4.289   9.729 -2.5458  0.5519  0.3509
   25MOL0     H 3360   6.657   4.507   9.781 -0.0432  1.7933 -0.7398
   25MOL0     H 3361   7.019   6.173   8.488 -1.6088  1.1243 -1.8935
   25MOL0     H 3362   7.024   6.430   8.451 -1.1103  1.0642 -0.1292
   25MOL0     H 3363   7.109   6.915   8.815 -1.7379  0.5396  3.6760
   25MOL0     H 3364   7.090   7.124   8.747 -0.4746 -0.0414  2.5783
   25MOL0     H 3365   7.011   7.350   8.654 -0.6248 -1.3641  0.8035
   25MOL0     H 3366   7.091   7.247   8.527 -1.4970 -1.7860  0.5981
   25MOL0     H 3367   6.914   7.490   8.502 -1.4911 -1.2723  1.5100
   25MOL0     H 3368   6.916   7.363   8.381 -1.2333 -0.2932  0.3809
   25MOL0     H 3369   7.143   7.411   8.322  0.3952  1.1755 -0.0368
   25MOL0     H 3370   7.161   7.516   8.469 -0.3381 -0.1521  0.8947
   25MOL0     H 3371   7.010   7.683   8.373  1.9138  1.0286 -0.6213
   25MOL0     H 3372   6.981   7.575   8.238  1.3530  2.3957 -1.1079
   25MOL0     H 3373   7.320   7.800   8.124 -0.7607 -0.4055 -0.9950
   25MOL0     H 3374   6.718   7.037   8.541 -2.1287 -1.5997  2.0042
   25MOL0     H 3375   6.751   6.791   8.613 -0.7304 -0.7594  3.2290
   26MOL0     O 3376   5.407   9.111   9.825 -0.6063  0.6256 -0.2567
   26MOL0     C 3377   5.352   9.047   9.918  0.4186 -0.7891 -0.0176
   26MOL0     O 3378   5.381   8.924   9.966 -0.1766 -0.3972 -0.3038
   26MOL0     C 3379   5.507   8.870   9.950 -0.9459  0.1375  0.6054
   26MOL0     C 3380   5.624   8.951   9.964  0.3582 -0.2430 -0.5478
   26MOL0     C 3381   5.753   8.897   9.970 -0.2485 -0.1775  0.0563
   26MOL0     C 3382   5.766   8.758   9.957  1.0460  0.3073 -0.5129
   26MOL0     O 3383   5.893   8.709   9.974 -0.1395 -0.8883 -0.3061
   26MOL0     C 3384   5.927   8.577   9.925 -0.0451  0.1862  0.4882
   26MOL0     C 3385   6.081   8.559   9.953  0.0821 -0.8153  0.5640
   26MOL0     C 3386   6.172   8.675   9.896 -0.2182 -0.3436 -0.6832
   26MOL0     C 3387   6.315   8.630   9.868 -0.3371 -0.1661  0.7598
   26MOL0     C 3388   6.409   8.745   9.816 -0.4149  0.2300 -0.2516
   26MOL0     C 3389   6.358   8.817   9.686  0.2187 -0.3791 -0.4668
   26MOL0     C 3390   6.336   8.727   9.564 -0.4608  0.4675  0.9410
   26MOL0     C 3391   6.448   8.651   9.513 -0.3844  1.3037 -0.1706
   26MOL0     N 3392   6.419   8.620   9.369  0.5667  0.6400  0.1333
   26MOL0     C 3393   6.441   8.495   9.331  0.6210 -0.1867  0.2249
   26MOL0     C 3394   6.470   8.508   9.197  0.4908  0.7247 -0.2886
   26MOL0     C 3395   6.485   8.389   9.099 -0.8037 -0.4839  1.0897
   26MOL0     C 3396   6.356   8.327   9.046  1.1730  0.6319  0.9526
   26MOL0     C 3397   6.289   8.420   8.948 -0.1193 -0.2993 -0.0981
   26MOL0     C 3398   6.144   8.396   8.923  0.3631  0.0120 -0.5172
   26MOL0     O 3399   6.112   8.264   8.871 -0.4112 -0.3781 -0.0816
   26MOL0     C 3400   5.991   8.236   8.807 -0.6826  0.1087  0.0982
   26MOL0     C 3401   5.980   8.111   8.746 -1.4449  0.4499 -0.3754
   26MOL0     C 3402   5.864   8.065   8.685  0.9535  0.0237  0.3558
   26MOL0     C 3403   5.863   7.922   8.631  0.8769  1.8676 -0.5971
   26MOL0     C 3404   5.752   8.151   8.672 -0.2499  0.2236  0.4763
   26MOL0     C 3405   5.615   8.111   8.616  0.6867 -0.0560 -0.0966
   26MOL0     O 3406   5.603   8.005   8.528  0.4583 -0.2575  0.2141
   26MOL0     C 3407   5.486   8.006   8.455 -0.3232  0.0439  0.2246
   26MOL0     C 3408   5.419   8.122   8.400  0.2065  1.2184 -1.0431
   26MOL0     C 3409   5.305   8.094   8.316 -0.6338  0.2319 -0.0837
   26MOL0     C 3410   5.259   7.965   8.283  0.7408  0.6718 -0.2763
   26MOL0     O 3411   5.160   7.953   8.192 -0.3512  0.1278  0.3163
   26MOL0     C 3412   5.082   7.832   8.199 -0.6000 -0.7576 -0.5276
   26MOL0     C 3413   4.964   7.829   8.099  0.7515 -0.2845 -0.1006
   26MOL0     C 3414   4.869   7.717   8.131  0.3007 -0.5222  0.5312
   26MOL0     C 3415   4.932   7.576   8.132  0.2899 -0.4681 -0.1546
   26MOL0     C 3416   4.829   7.464   8.130  0.3868  0.2438  0.8467
   26MOL0     C 3417   4.876   7.322   8.106  0.4488 -0.0223  0.2562
   26MOL0     C 3418   4.965   7.270   8.219 -0.0258  0.2587  0.6163
   26MOL0     C 3419   5.014   7.126   8.170 -0.3570 -0.8166 -0.4195
   26MOL0    Cl 3420   5.018   7.032   8.327 -0.4131 -0.1631 -0.3974
   26MOL0     C 3421   5.321   7.857   8.344  0.5755  0.5844  0.2506
   26MOL0     C 3422   5.437   7.876   8.426 -0.1718  0.0986  0.9023
   26MOL0     O 3423   5.524   8.191   8.653 -0.3509  0.5719 -0.7479
   26MOL0     C 3424   5.773   8.285   8.721 -1.2112 -0.1183  0.5604
   26MOL0     C 3425   5.885   8.325   8.786  0.0801 -0.7542 -0.4560
   26MOL0     N 3426   6.469   8.644   9.160 -0.5109  0.4920  0.1860
   26MOL0     N 3427   6.444   8.703   9.268 -0.4402  0.4313 -0.1063
   26MOL0     C 3428   5.651   8.678   9.951  0.2982  0.0172 -0.3608
   26MOL0     C 3429   5.522   8.737   9.951  0.4692 -0.7844 -0.0701
   26MOL0     C 3430   5.235   9.111   9.984 -0.7014  0.3864 -0.5810
   26MOL0     C 3431   5.146   9.033  10.057  0.4533 -0.7303 -0.4242
   26MOL0     C 3432   5.041   9.089  10.129 -0.3148 -0.1728 -0.0970
   26MOL0     C 3433   5.006   9.229  10.109  0.9091 -0.1513  0.0283
   26MOL0     O 3434   4.884   9.272  10.164 -0.3999  0.4975  1.2637
   26MOL0     C 3435   4.855   9.416  10.173 -0.4760  0.7607 -0.0577
   26MOL0     C 3436   4.744   9.443  10.268  0.5828 -0.6884 -0.0484
   26MOL0     C 3437   4.767   9.405  10.416  0.6969  0.1283 -1.1816
   26MOL0     C 3438   4.631   9.432  10.500  0.2210 -0.0397  1.2317
   26MOL0     C 3439   4.611   9.575  10.519 -0.2026  0.5370 -0.1679
   26MOL0     C 3440   4.578   9.689  10.533  0.0385 -0.2774 -0.0482
   26MOL0     C 3441   5.097   9.310  10.034 -0.1307  0.1417 -0.0470
   26MOL0     C 3442   5.210   9.253   9.974 -0.2308  1.3209  0.4568
   26MOL0     H 3443   5.620   9.059   9.979 -1.2273 -0.5800  2.1521
   26MOL0     H 3444   5.837   8.965   9.969  0.2945 -0.8197  0.7758
   26MOL0     H 3445   5.874   8.500   9.980 -1.6165  2.0467  1.6989
   26MOL0     H 3446   5.911   8.569   9.817  0.9017  0.4549  0.3178
   26MOL0     H 3447   6.085   8.556  10.062 -1.9296  4.4440  1.0802
   26MOL0     H 3448   6.121   8.468   9.908  3.5882  1.0198 -0.3999
   26MOL0     H 3449   6.123   8.721   9.810 -1.2403  0.9732  0.5581
   26MOL0     H 3450   6.187   8.751   9.973  3.1662 -0.9330 -0.6171
   26MOL0     H 3451   6.364   8.573   9.947  0.2692 -2.1188 -0.9292
   26MOL0     H 3452   6.298   8.563   9.783 -1.1712 -1.1275  1.6636
   26MOL0     H 3453   6.420   8.815   9.899  0.6286  1.0300 -1.0285
   26MOL0     H 3454   6.506   8.700   9.794  0.7313  1.2428  2.3163
   26MOL0     H 3455   6.264   8.866   9.710  2.5508  3.0488  2.8674
   26MOL0     H 3456   6.433   8.894   9.663 -2.5431  2.2811 -1.0901
   26MOL0     H 3457   6.261   8.651   9.587 -1.7794  1.8995  1.5569
   26MOL0     H 3458   6.311   8.792   9.479  3.9548  1.4836  0.1573
   26MOL0     H 3459   6.472   8.568   9.579  2.3229  1.2708 -1.0513
   26MOL0     H 3460   6.540   8.711   9.509  1.3404 -1.2256 -0.4037
   26MOL0     H 3461   6.413   8.408   9.390 -2.6177  1.0170  0.6971
   26MOL0     H 3462   6.544   8.414   9.010 -2.6901  0.1629 -0.0457
   26MOL0     H 3463   6.533   8.309   9.156  2.6333  1.0619  0.6280
   26MOL0     H 3464   6.291   8.311   9.132  1.7367 -1.0835  1.1020
   26MOL0     H 3465   6.375   8.231   8.998 -2.8273  1.3392 -2.6098
   26MOL0     H 3466   6.336   8.419   8.849 -1.1361 -0.9852 -0.5958
   26MOL0     H 3467   6.306   8.522   8.983  0.7224 -0.8008  0.9984
   26MOL0     H 3468   6.115   8.466   8.843 -0.9082 -2.1677 -2.0938
   26MOL0     H 3469   6.084   8.424   9.010 -1.1554  0.1774 -1.5783
   26MOL0     H 3470   6.065   8.045   8.732 -1.1075  0.4785  1.3243
   26MOL0     H 3471   5.768   7.873   8.657  1.4690  0.9714 -0.0817
   26MOL0     H 3472   5.886   7.920   8.524  0.5275 -0.7485 -0.6892
   26MOL0     H 3473   5.926   7.854   8.688 -1.6800  0.9262  1.3403
   26MOL0     H 3474   5.443   8.224   8.427 -1.3955  1.6310 -1.0860
   26MOL0     H 3475   5.243   8.174   8.276 -6.8858 -4.0684 -0.4196
   26MOL0     H 3476   5.142   7.743   8.176 -1.1995 -0.5922 -3.1213
   26MOL0     H 3477   5.051   7.823   8.303 -2.1603  0.9117 -0.8081
   26MOL0     H 3478   4.916   7.926   8.105 -0.6496 -0.8913 -0.9875
   26MOL0     H 3479   5.002   7.825   7.997  0.8141 -4.1386 -0.0858
   26MOL0     H 3480   4.783   7.734   8.066  2.4436 -0.0278 -2.3986
   26MOL0     H 3481   4.828   7.729   8.231 -1.3720  0.3282 -0.2232
   26MOL0     H 3482   4.999   7.556   8.048  2.7734 -1.1219  1.8845
   26MOL0     H 3483   4.994   7.576   8.222 -0.5039  0.1639  0.4042
   26MOL0     H 3484   4.745   7.482   8.063 -0.4616 -1.4243  1.4007
   26MOL0     H 3485   4.789   7.470   8.232  0.8061  1.3283  0.9594
   26MOL0     H 3486   4.783   7.267   8.093  1.1575 -1.7051  1.7652
   26MOL0     H 3487   4.920   7.304   8.008 -1.4524 -1.5707 -0.3713
   26MOL0     H 3488   4.902   7.259   8.308 -2.6546 -1.4784 -1.3344
   26MOL0     H 3489   5.048   7.339   8.236 -1.7368  2.1315  1.8367
   26MOL0     H 3490   5.096   7.138   8.099  0.6458 -2.0297  0.4805
   26MOL0     H 3491   4.932   7.084   8.112  0.0796 -0.6456 -1.1806
   26MOL0     H 3492   5.285   7.755   8.334 -0.3196  1.0904 -2.6377
   26MOL0     H 3493   5.493   7.797   8.475  0.4943  0.4817  0.7761
   26MOL0     H 3494   5.689   8.354   8.720 -1.0030  0.1451  0.9824
   26MOL0     H 3495   5.887   8.425   8.828  0.1511 -0.7287 -0.5215
   26MOL0     H 3496   5.651   8.570   9.949 -2.2863 -0.0685 -2.6390
   26MOL0     H 3497   5.434   8.676   9.935 -1.2514  1.2777  1.1131
   26MOL0     H 3498   5.145   8.925  10.068 -3.3220 -0.9673 -1.7053
   26MOL0     H 3499   4.979   9.033  10.198  0.1134  1.6783  1.9090
   26MOL0     H 3500   4.946   9.465  10.209 -0.6938  0.8537  0.3775
   26MOL0     H 3501   4.832   9.455  10.073 -0.1176  1.1050 -0.0088
   26MOL0     H 3502   4.651   9.392  10.239 -1.4259  1.2816  2.3896
   26MOL0     H 3503   4.710   9.547  10.267 -1.5644 -1.3320 -1.4022
   26MOL0     H 3504   4.852   9.459  10.458  0.1805  0.4265 -0.5121
   26MOL0     H 3505   4.795   9.300  10.423 -1.2776 -0.3448  0.5980
   26MOL0     H 3506   4.627   9.383  10.599  0.0500 -0.4985  1.0028
   26MOL0     H 3507   4.543   9.391  10.449  0.8819 -1.1974  0.9878
   26MOL0     H 3508   4.542   9.786  10.560 -0.7727 -0.7456  0.6221
   26MOL0     H 3509   5.076   9.415  10.015 -0.1859  0.0314 -0.6395
   26MOL0     H 3510   5.285   9.309   9.920  1.1631 -1.2027 -0.3974
   27MOL0     O 3511   4.438   9.273   0.512 -0.4863  0.0533  1.1135
   27MOL0     C 3512   4.371   9.176   0.517 -0.8582 -0.1357 -0.9822
   27MOL0     O 3513   4.274   9.138   0.437  0.8171  0.0109 -0.3687
   27MOL0     C 3514   4.226   9.214   0.330 -0.0215  0.0840  0.1570
   27MOL0     C 3515   4.108   9.167   0.270  0.1524  0.2093 -0.0242
   27MOL0     C 3516   4.040   9.244   0.172 -0.1198  0.9929  0.2522
   27MOL0     C 3517   4.082   9.373   0.134 -0.0210  0.0961 -0.3023
   27MOL0     O 3518   4.014   9.437   0.036  0.6040  0.5042 -0.5717
   27MOL0     C 3519   4.002   9.575   0.044 -0.1924  0.7382  1.0685
   27MOL0     C 3520   3.881   9.622  -0.036 -0.5463 -0.1177  0.1320
   27MOL0     C 3521   3.867   9.777  -0.071 -0.6574  1.1325  0.6894
   27MOL0     C 3522   3.790   9.827  -0.193 -0.2959  0.0897  0.4960
   27MOL0     C 3523   3.825   9.970  -0.218 -0.0335  0.1946 -0.3960
   27MOL0     C 3524   3.763  10.025  -0.352 -0.2735  0.1166 -0.1359
   27MOL0     C 3525   3.822  10.167  -0.390  0.3830 -0.5768 -0.8893
   27MOL0     C 3526   3.794  10.206  -0.542  0.3339  0.4493 -0.4325
   27MOL0     N 3527   3.650  10.246  -0.566 -0.6171  0.2622 -0.4612
   27MOL0     C 3528   3.532  10.236  -0.491  0.7350 -0.2268  0.0952
   27MOL0     C 3529   3.442  10.335  -0.533 -0.7889 -0.5585 -0.3120
   27MOL0     C 3530   3.302  10.340  -0.478 -0.4283 -0.2396  0.3401
   27MOL0     C 3531   3.290  10.468  -0.396  0.7561  0.0660 -0.2906
   27MOL0     C 3532   3.225  10.578  -0.490 -0.5216 -0.0844 -0.0930
   27MOL0     C 3533   3.211  10.714  -0.422 -0.1197  0.5446  0.3717
   27MOL0     O 3534   3.100  10.792  -0.489 -0.2734  0.5105 -1.0590
   27MOL0     C 3535   2.968  10.752  -0.480 -0.4166  0.3532 -0.5341
   27MOL0     C 3536   2.914  10.664  -0.379  0.5239 -0.0975  0.3551
   27MOL0     C 3537   2.775  10.654  -0.359 -0.6305  0.2199 -0.9550
   27MOL0     C 3538   2.732  10.557  -0.255  0.7705  0.1113  0.1817
   27MOL0     C 3539   2.682  10.710  -0.453  0.2339 -1.0248  0.2879
   27MOL0     C 3540   2.535  10.691  -0.445 -0.3016  0.3690  0.1776
   27MOL0     O 3541   2.465  10.767  -0.544 -0.0901  0.5413 -0.0969
   27MOL0     C 3542   2.334  10.750  -0.571  0.0436  0.0138  0.2293
   27MOL0     C 3543   2.257  10.853  -0.625  0.1638 -0.2253  0.3249
   27MOL0     C 3544   2.136  10.842  -0.685  0.0546  1.2423  0.6034
   27MOL0     C 3545   2.076  10.714  -0.682  0.0788  0.1943 -0.3453
   27MOL0     O 3546   1.947  10.692  -0.723  0.3850  0.0787  0.0609
   27MOL0     C 3547   1.863  10.795  -0.788  0.1633  0.5175  0.5602
   27MOL0     C 3548   1.726  10.806  -0.733  0.0595  0.5388  0.8461
   27MOL0     C 3549   1.694  10.936  -0.659 -0.7773  0.1480 -0.2333
   27MOL0     C 3550   1.578  10.907  -0.554 -0.4005 -0.4238  0.3223
   27MOL0     C 3551   1.524  11.029  -0.485  0.4888  0.4458 -0.1894
   27MOL0     C 3552   1.622  11.098  -0.397 -0.1465  0.9366  0.2019
   27MOL0     C 3553   1.667  11.009  -0.288 -0.2923 -0.0002  0.2959
   27MOL0     C 3554   1.660  11.071  -0.144  0.9401 -0.3715  0.4748
   27MOL0    Cl 3555   1.783  11.202  -0.151  0.4334  0.3077 -0.0501
   27MOL0     C 3556   2.139  10.605  -0.613 -0.2938  0.3195  0.0481
   27MOL0     C 3557   2.270  10.626  -0.554  1.0371  0.8770 -0.3781
   27MOL0     O 3558   2.485  10.626  -0.359  0.6565  0.7442  0.5318
   27MOL0     C 3559   2.737  10.795  -0.552  0.2156  0.5091  0.4975
   27MOL0     C 3560   2.875  10.812  -0.563  0.2932  0.4929 -0.4248
   27MOL0     N 3561   3.500  10.389  -0.642  0.1630  0.6999 -0.2067
   27MOL0     N 3562   3.624  10.336  -0.659  0.9633 -0.1411  1.2064
   27MOL0     C 3563   4.205   9.411   0.179 -0.6520  0.1988 -0.1550
   27MOL0     C 3564   4.279   9.336   0.274  0.2095  0.5390  0.0332
   27MOL0     C 3565   4.403   9.093   0.636  0.2893 -0.0387 -0.1976
   27MOL0     C 3566   4.352   8.960   0.645 -0.2986  0.0953  0.6549
   27MOL0     C 3567   4.385   8.885   0.756  0.0792  0.1560  0.4641
   27MOL0     C 3568   4.473   8.921   0.858  0.3976 -0.3456  0.8600
   27MOL0     O 3569   4.495   8.847   0.970  0.6006  0.4591 -0.1458
   27MOL0     C 3570   4.627   8.862   1.042 -0.2151 -0.6683  1.2967
   27MOL0     C 3571   4.657   8.749   1.141  0.2216  0.5588  0.7745
   27MOL0     C 3572   4.548   8.718   1.246  0.1714 -0.2118 -0.5082
   27MOL0     C 3573   4.440   8.623   1.194  0.3184 -0.1176  0.6279
   27MOL0     C 3574   4.502   8.492   1.185 -0.9749 -0.3359 -0.0168
   27MOL0     C 3575   4.542   8.382   1.154  0.0896  0.1000  0.1453
   27MOL0     C 3576   4.540   9.039   0.835  0.7766  0.1223 -0.0201
   27MOL0     C 3577   4.502   9.131   0.733 -0.2405  0.7403  0.1358
   27MOL0     H 3578   4.073   9.068   0.298  2.4044 -0.6180  0.0832
   27MOL0     H 3579   3.948   9.205   0.127 -0.1050  0.3618  0.7564
   27MOL0     H 3580   4.008   9.620   0.143  3.8248  2.5737  0.2075
   27MOL0     H 3581   4.097   9.610   0.002 -0.8642  0.6107 -0.6357
   27MOL0     H 3582   3.898   9.576  -0.134  2.5501 -2.0171  1.3889
   27MOL0     H 3583   3.787   9.574  -0.011 -1.4671  0.6942 -1.6007
   27MOL0     H 3584   3.851   9.838   0.018 -1.2858  2.1723 -0.1103
   27MOL0     H 3585   3.972   9.797  -0.097 -0.5713  1.2175  1.0906
   27MOL0     H 3586   3.832   9.771  -0.278 -3.5787  0.5414 -1.6018
   27MOL0     H 3587   3.684   9.800  -0.197 -0.0611 -0.8393  0.3126
   27MOL0     H 3588   3.786  10.025  -0.131  1.2192  0.7298 -0.1561
   27MOL0     H 3589   3.933   9.982  -0.224  0.3089 -1.0796  1.9842
   27MOL0     H 3590   3.797   9.954  -0.428  2.5731  1.6153 -0.4068
   27MOL0     H 3591   3.654  10.028  -0.344 -0.5589 -3.2483 -1.4117
   27MOL0     H 3592   3.768  10.243  -0.333  3.5268  0.8429  0.4278
   27MOL0     H 3593   3.927  10.180  -0.362  0.5559 -2.4082 -0.5678
   27MOL0     H 3594   3.817  10.121  -0.607 -0.4226  0.8639 -1.2698
   27MOL0     H 3595   3.861  10.281  -0.584 -1.2948  1.2083 -1.8097
   27MOL0     H 3596   3.515  10.165  -0.410 -4.2874  0.3424 -0.1375
   27MOL0     H 3597   3.222  10.338  -0.553  0.0935  0.7281 -0.2725
   27MOL0     H 3598   3.298  10.259  -0.405  3.1200 -3.3212 -2.5060
   27MOL0     H 3599   3.385  10.504  -0.354 -0.7326  2.0063  1.6813
   27MOL0     H 3600   3.220  10.442  -0.316  0.4803 -1.4562 -0.9940
   27MOL0     H 3601   3.123  10.550  -0.519 -1.5940  0.5827  2.7570
   27MOL0     H 3602   3.281  10.580  -0.584 -0.2951  1.7416  0.0358
   27MOL0     H 3603   3.304  10.772  -0.421 -0.2299  0.7479 -0.5707
   27MOL0     H 3604   3.173  10.710  -0.319  0.3515  0.4250  0.5486
   27MOL0     H 3605   2.981  10.617  -0.308  2.5391 -0.2066 -1.5212
   27MOL0     H 3606   2.811  10.508  -0.197 -1.2568 -1.2188  2.0032
   27MOL0     H 3607   2.654  10.595  -0.189  1.7600  0.3643  1.2349
   27MOL0     H 3608   2.687  10.475  -0.313 -1.1583  2.4008 -1.7413
   27MOL0     H 3609   2.300  10.952  -0.625 -0.2646 -0.0355 -0.3825
   27MOL0     H 3610   2.104  10.932  -0.736  0.6619  0.2989 -1.5842
   27MOL0     H 3611   1.907  10.895  -0.789  0.3785  0.4372 -0.9995
   27MOL0     H 3612   1.856  10.775  -0.895  1.1464  0.8955  0.4156
   27MOL0     H 3613   1.646  10.786  -0.805 -1.2342 -1.7323  2.7408
   27MOL0     H 3614   1.720  10.725  -0.659  2.1704 -1.0952 -0.6371
   27MOL0     H 3615   1.676  11.017  -0.731  3.8144  0.9517 -0.7491
   27MOL0     H 3616   1.789  10.951  -0.609 -0.4962 -0.2665 -0.6280
   27MOL0     H 3617   1.502  10.847  -0.605  1.4833 -3.0157  0.3658
   27MOL0     H 3618   1.616  10.833  -0.482 -1.8543  0.7483  2.3821
   27MOL0     H 3619   1.438  10.986  -0.433  0.6337  0.4991  0.0898
   27MOL0     H 3620   1.495  11.103  -0.560  2.3412 -1.1449 -2.6360
   27MOL0     H 3621   1.717  11.117  -0.449  1.2690  0.4164  2.4748
   27MOL0     H 3622   1.571  11.189  -0.364 -2.0107  0.9211 -2.2945
   27MOL0     H 3623   1.766  10.966  -0.304 -1.8659 -3.8449 -0.1053
   27MOL0     H 3624   1.599  10.924  -0.281  1.6751 -1.6720  0.1711
   27MOL0     H 3625   1.692  10.994  -0.074  0.9257  0.3097  1.2433
   27MOL0     H 3626   1.556  11.100  -0.129 -0.2806  0.3024 -6.2137
   27MOL0     H 3627   2.076  10.517  -0.601 -0.0469 -0.1440 -1.7603
   27MOL0     H 3628   2.323  10.551  -0.495  2.0975 -0.2007 -2.5844
   27MOL0     H 3629   2.672  10.849  -0.620 -0.8452 -1.1017  0.1594
   27MOL0     H 3630   2.926  10.884  -0.626  1.2406  1.1412  1.0224
   27MOL0     H 3631   4.257   9.493   0.130 -1.7175  0.0584 -1.5943
   27MOL0     H 3632   4.379   9.372   0.297  0.6671 -0.0068 -1.0618
   27MOL0     H 3633   4.298   8.903   0.571  0.5630  0.2048 -0.0806
   27MOL0     H 3634   4.328   8.794   0.774  0.2860  0.2266  1.5368
   27MOL0     H 3635   4.706   8.855   0.967  1.0124  1.0894  2.3443
   27MOL0     H 3636   4.625   8.963   1.085  1.5054  2.3816 -4.7593
   27MOL0     H 3637   4.746   8.791   1.190  0.6676 -0.0887  0.5404
   27MOL0     H 3638   4.687   8.657   1.090 -1.3506  0.1199  0.5872
   27MOL0     H 3639   4.491   8.809   1.266  0.3691 -0.3758  0.9113
   27MOL0     H 3640   4.587   8.679   1.340  0.7070  1.4847 -0.0089
   27MOL0     H 3641   4.410   8.658   1.095  0.9828  1.6933  1.0425
   27MOL0     H 3642   4.354   8.621   1.260 -0.6020 -1.8401 -0.5322
   27MOL0     H 3643   4.571   8.282   1.128  0.1232  0.0841  0.2418
   27MOL0     H 3644   4.605   9.072   0.915  1.2428 -1.2715  0.2058
   27MOL0     H 3645   4.553   9.226   0.724  0.6432  0.1568 -1.5524
   28MOL0     O 3646   6.167   5.293  11.437 -0.0012 -0.0855  0.3446
   28MOL0     C 3647   6.114   5.322  11.329 -0.7435 -0.1298  0.7264
   28MOL0     O 3648   6.006   5.260  11.272  0.3892  0.6187 -0.5325
   28MOL0     C 3649   5.972   5.137  11.323 -0.0381  0.0060 -0.3194
   28MOL0     C 3650   5.942   5.118  11.458  0.3075  0.0866 -0.6359
   28MOL0     C 3651   5.910   4.986  11.500  0.3068  1.9505 -0.8860
   28MOL0     C 3652   5.887   4.888  11.403 -0.9637 -0.6063 -0.3004
   28MOL0     O 3653   5.840   4.767  11.453  0.1931  0.5919  0.2876
   28MOL0     C 3654   5.733   4.703  11.387  0.0757 -0.8183  1.4554
   28MOL0     C 3655   5.616   4.804  11.377 -0.2407  0.4154 -0.1537
   28MOL0     C 3656   5.478   4.749  11.341 -0.7550 -0.7837 -0.3994
   28MOL0     C 3657   5.474   4.620  11.265 -0.6545  0.3648  0.0473
   28MOL0     C 3658   5.342   4.593  11.207 -0.2386  0.4605 -1.2255
   28MOL0     C 3659   5.254   4.542  11.325  0.0314  0.3595 -0.3748
   28MOL0     C 3660   5.101   4.517  11.289 -0.9896  0.3152  0.2733
   28MOL0     C 3661   5.088   4.411  11.182 -0.5550  0.2533  0.0116
   28MOL0     N 3662   5.121   4.279  11.241  0.6091 -0.1532  0.5801
   28MOL0     C 3663   5.046   4.209  11.335  0.4182 -0.3838 -0.4148
   28MOL0     C 3664   5.130   4.104  11.378  0.6667 -0.9709  0.2197
   28MOL0     C 3665   5.097   4.005  11.480  0.0385 -0.1689 -0.7639
   28MOL0     C 3666   4.947   3.979  11.488  0.3703  0.3375 -0.1944
   28MOL0     C 3667   4.887   3.907  11.366 -0.0592 -0.1078  0.2610
   28MOL0     C 3668   4.734   3.877  11.391  0.7479  0.0520 -0.9742
   28MOL0     O 3669   4.660   3.884  11.274 -0.6172 -0.2142  0.1697
   28MOL0     C 3670   4.640   3.770  11.202 -0.1788  0.2971  0.1511
   28MOL0     C 3671   4.713   3.647  11.218 -0.8588  0.2364  0.3374
   28MOL0     C 3672   4.691   3.534  11.138 -0.2934 -0.9476 -0.3938
   28MOL0     C 3673   4.778   3.408  11.168 -0.5511 -0.6680 -0.6717
   28MOL0     C 3674   4.580   3.534  11.056  0.8342  0.0711 -0.3803
   28MOL0     C 3675   4.548   3.420  10.967 -0.7154  0.9035 -0.1911
   28MOL0     O 3676   4.629   3.320  10.963  0.3033  0.5105  0.0325
   28MOL0     C 3677   4.604   3.220  10.877 -0.9574 -0.1468 -0.8101
   28MOL0     C 3678   4.479   3.156  10.865 -0.6838 -0.4051 -0.7588
   28MOL0     C 3679   4.467   3.047  10.784  0.1345  0.4065  0.9349
   28MOL0     C 3680   4.570   3.001  10.702  0.6283 -0.3071 -0.2604
   28MOL0     O 3681   4.538   2.910  10.604 -0.1557  0.8582  0.3871
   28MOL0     C 3682   4.618   2.906  10.482  0.0543  0.3379 -0.3122
   28MOL0     C 3683   4.556   2.823  10.370  0.3082 -0.2947  0.0185
   28MOL0     C 3684   4.640   2.804  10.246 -0.1941 -0.2857 -0.1364
   28MOL0     C 3685   4.668   2.926  10.166  0.1882  0.3650  0.7511
   28MOL0     C 3686   4.763   2.888  10.052 -0.2583  0.8494  1.1115
   28MOL0     C 3687   4.773   3.015   9.962  0.5210  0.2201  0.6467
   28MOL0     C 3688   4.882   2.998   9.846  0.5058  0.1214 -0.1207
   28MOL0     C 3689   4.866   3.116   9.750 -0.4215  0.3907  0.7489
   28MOL0    Cl 3690   4.964   3.069   9.618  0.2461 -0.0476 -0.0945
   28MOL0     C 3691   4.689   3.067  10.714  0.3280 -0.3874 -0.3781
   28MOL0     C 3692   4.706   3.174  10.800  0.6655  0.6468  0.6429
   28MOL0     O 3693   4.445   3.428  10.894  0.0422  0.4176  0.1986
   28MOL0     C 3694   4.501   3.657  11.039  0.4257 -0.4274 -0.1358
   28MOL0     C 3695   4.531   3.773  11.105 -0.1103 -0.2950 -0.5075
   28MOL0     N 3696   5.251   4.115  11.311 -0.7346 -0.7886  0.3197
   28MOL0     N 3697   5.241   4.212  11.228  0.5377  0.0097  0.5015
   28MOL0     C 3698   5.925   4.912  11.270 -0.1490 -0.1884 -0.1543
   28MOL0     C 3699   5.967   5.039  11.233 -0.4628 -1.2502  1.0496
   28MOL0     C 3700   6.192   5.411  11.241  0.3236 -0.5099 -0.0298
   28MOL0     C 3701   6.329   5.398  11.236  1.2528 -0.4159  0.5662
   28MOL0     C 3702   6.406   5.493  11.172 -0.2647 -0.1072  0.3220
   28MOL0     C 3703   6.344   5.598  11.099  0.2980  0.5421  0.3997
   28MOL0     O 3704   6.416   5.691  11.036 -0.3004 -0.1812 -0.3356
   28MOL0     C 3705   6.560   5.710  11.049  0.0604 -0.3777 -0.0098
   28MOL0     C 3706   6.608   5.751  11.198  0.0022  0.0219  0.0287
   28MOL0     C 3707   6.580   5.903  11.217 -0.2654  0.1079 -0.2629
   28MOL0     C 3708   6.636   5.949  11.361  0.4398 -0.1123  0.4870
   28MOL0     C 3709   6.647   6.093  11.368  0.1538 -0.3209 -1.0172
   28MOL0     C 3710   6.665   6.209  11.380 -0.9251 -0.3929 -0.2231
   28MOL0     C 3711   6.202   5.597  11.089 -0.3489 -0.8257 -0.1467
   28MOL0     C 3712   6.122   5.508  11.165  0.3461 -0.7192  0.0886
   28MOL0     H 3713   5.938   5.208  11.517 -1.9139 -0.6284  0.4130
   28MOL0     H 3714   5.895   4.947  11.600  0.9497 -2.3075 -2.2770
   28MOL0     H 3715   5.759   4.671  11.286 -4.0983 -1.1931  0.2810
   28MOL0     H 3716   5.687   4.623  11.447 -0.1918 -0.8392  1.2242
   28MOL0     H 3717   5.598   4.855  11.473 -0.9226 -0.8215  0.4019
   28MOL0     H 3718   5.641   4.881  11.304  1.5980  0.9802  1.0005
   28MOL0     H 3719   5.417   4.750  11.431  0.8994 -1.8474  0.7811
   28MOL0     H 3720   5.425   4.831  11.290  1.5529 -0.2827 -2.1775
   28MOL0     H 3721   5.542   4.616  11.180  1.7001 -0.0269  1.8275
   28MOL0     H 3722   5.497   4.533  11.327 -0.2132  1.3807  1.3823
   28MOL0     H 3723   5.303   4.686  11.166 -0.6210  0.7321 -0.2630
   28MOL0     H 3724   5.349   4.513  11.132 -0.6156 -1.4159  0.6359
   28MOL0     H 3725   5.289   4.445  11.363 -3.8389 -1.6850 -1.4896
   28MOL0     H 3726   5.251   4.612  11.409  1.9160 -0.4800  0.4353
   28MOL0     H 3727   5.047   4.484  11.378  0.6447 -2.3405  0.3708
   28MOL0     H 3728   5.062   4.614  11.254 -0.4836  0.3585 -0.1788
   28MOL0     H 3729   5.154   4.433  11.098 -2.5285  4.2657 -0.7167
   28MOL0     H 3730   4.985   4.409  11.143 -0.2008 -1.6883 -0.9612
   28MOL0     H 3731   4.941   4.226  11.354  0.3808  2.1601 -2.2790
   28MOL0     H 3732   5.148   3.910  11.461 -1.3093 -1.1667  0.3744
   28MOL0     H 3733   5.115   4.036  11.583  1.1443 -3.5174  0.1980
   28MOL0     H 3734   4.895   4.073  11.505  1.1168  1.5831 -3.9691
   28MOL0     H 3735   4.922   3.917  11.575 -0.5822  0.5223 -0.3349
   28MOL0     H 3736   4.933   3.811  11.342  2.9160  1.5270 -1.0564
   28MOL0     H 3737   4.907   3.974  11.282  0.6121 -1.1413 -0.4094
   28MOL0     H 3738   4.690   3.949  11.461 -2.6164 -1.7611 -1.0178
   28MOL0     H 3739   4.724   3.785  11.448  0.8853 -0.7497 -2.2006
   28MOL0     H 3740   4.791   3.641  11.294 -1.2855 -3.6266  0.6562
   28MOL0     H 3741   4.844   3.439  11.250  1.2303 -1.4348 -1.7491
   28MOL0     H 3742   4.717   3.326  11.207 -2.9580  1.0587 -0.5690
   28MOL0     H 3743   4.840   3.373  11.085  3.6176 -0.0992  1.8664
   28MOL0     H 3744   4.384   3.176  10.915 -1.8587  0.1286 -3.0729
   28MOL0     H 3745   4.369   3.003  10.770 -0.6706  2.5180 -0.5819
   28MOL0     H 3746   4.642   3.009  10.452 -2.1223  1.3727  1.2224
   28MOL0     H 3747   4.716   2.865  10.507 -0.0376  1.1171  1.4748
   28MOL0     H 3748   4.523   2.727  10.409  0.3742  0.3385  1.7376
   28MOL0     H 3749   4.465   2.878  10.343  0.3502 -0.6526 -0.8567
   28MOL0     H 3750   4.582   2.734  10.185  0.7362 -2.1549  1.0317
   28MOL0     H 3751   4.727   2.746  10.278 -0.0160  1.3025  2.5023
   28MOL0     H 3752   4.574   2.955  10.118 -0.7931 -1.2297  1.6435
   28MOL0     H 3753   4.703   3.013  10.223 -0.4381  1.1572 -0.0445
   28MOL0     H 3754   4.711   2.809   9.998  2.0134 -0.6177  0.9435
   28MOL0     H 3755   4.859   2.839  10.070 -0.6580 -1.0449 -1.4195
   28MOL0     H 3756   4.681   3.027   9.904  2.1815 -5.6363 -4.2360
   28MOL0     H 3757   4.802   3.098  10.028  0.6561 -0.2552  1.1850
   28MOL0     H 3758   4.875   2.905   9.790 -0.7465 -0.6551  1.2619
   28MOL0     H 3759   4.973   3.006   9.905 -1.8059  1.0324  3.6644
   28MOL0     H 3760   4.889   3.210   9.800  1.4138  0.1076  0.4816
   28MOL0     H 3761   4.759   3.105   9.728  0.0491 -0.5055 -1.2325
   28MOL0     H 3762   4.776   3.049  10.651  1.2680  1.9164  0.1435
   28MOL0     H 3763   4.805   3.216  10.783 -0.0767  2.0173 -0.5025
   28MOL0     H 3764   4.415   3.646  10.974  0.1946 -1.8918  0.3638
   28MOL0     H 3765   4.462   3.856  11.094 -2.0516 -1.8861 -0.7480
   28MOL0     H 3766   5.903   4.825  11.209 -3.1134 -0.2116  0.7812
   28MOL0     H 3767   5.992   5.058  11.129  2.1929 -2.9009  1.2819
   28MOL0     H 3768   6.368   5.313  11.292 -0.0186 -1.4950 -0.1208
   28MOL0     H 3769   6.514   5.491  11.184  0.3513  1.6949 -3.4934
   28MOL0     H 3770   6.619   5.625  11.013  1.5410  0.9559 -0.8898
   28MOL0     H 3771   6.595   5.778  10.971 -0.0890 -2.1993 -1.7399
   28MOL0     H 3772   6.716   5.737  11.205  0.0666  0.4908 -0.0404
   28MOL0     H 3773   6.550   5.689  11.266 -2.2798  0.8946 -1.0231
   28MOL0     H 3774   6.472   5.918  11.217 -0.3402 -0.1619  1.9824
   28MOL0     H 3775   6.609   5.977  11.142 -1.2837  0.8839  0.0865
   28MOL0     H 3776   6.733   5.902  11.380  0.0333 -4.0182 -4.6635
   28MOL0     H 3777   6.574   5.905  11.440  3.3368 -1.7371  1.9941
   28MOL0     H 3778   6.700   6.309  11.394 -1.6991 -0.0820 -0.4283
   28MOL0     H 3779   6.153   5.669  11.024 -1.7304 -2.9284 -1.5223
   28MOL0     H 3780   6.015   5.519  11.173  0.4782  2.6054 -1.2560
   29MOL0     O 3781  10.053   5.058   9.263  0.2315 -0.2330 -0.4723
   29MOL0     C 3782   9.990   5.030   9.361  0.7478 -0.7618 -0.2023
   29MOL0     O 3783  10.017   4.926   9.448  0.1507 -0.9789 -0.3666
   29MOL0     C 3784  10.130   4.864   9.426 -0.8872  0.0735  0.3867
   29MOL0     C 3785  10.138   4.748   9.346 -0.0082  0.5262 -0.1644
   29MOL0     C 3786  10.265   4.701   9.296  0.5665 -0.3657  0.3870
   29MOL0     C 3787  10.385   4.756   9.333  0.0568 -0.0732  0.4874
   29MOL0     O 3788  10.496   4.689   9.296 -0.1879  0.3506  0.2827
   29MOL0     C 3789  10.625   4.749   9.332  0.6097 -0.1118  0.0029
   29MOL0     C 3790  10.657   4.880   9.255  0.3899  0.8923  0.1572
   29MOL0     C 3791  10.807   4.899   9.258  0.6805  0.2450  0.1817
   29MOL0     C 3792  10.845   5.051   9.247  0.1167  0.6608  0.6429
   29MOL0     C 3793  10.859   5.120   9.386 -0.4373  0.8696 -0.0636
   29MOL0     C 3794  10.913   5.261   9.374 -0.5272  0.7476  0.0072
   29MOL0     C 3795  10.956   5.319   9.509 -0.1819  0.3306 -0.4877
   29MOL0     C 3796  10.938   5.468   9.509  0.2277 -0.1633 -0.4372
   29MOL0     N 3797  11.036   5.540   9.421  0.5431  0.7645  0.5117
   29MOL0     C 3798  11.043   5.537   9.281 -0.9490  0.2965  0.8352
   29MOL0     C 3799  11.171   5.578   9.251  0.2384 -0.4852 -0.4314
   29MOL0     C 3800  11.238   5.592   9.116 -0.2014  0.2045  0.0039
   29MOL0     C 3801  11.185   5.715   9.043  0.5748 -0.1977  0.4325
   29MOL0     C 3802  11.189   5.724   8.891 -0.1044 -0.6453 -0.1112
   29MOL0     C 3803  11.299   5.823   8.844 -0.1432  0.7707 -0.8352
   29MOL0     O 3804  11.333   5.780   8.710 -0.0482  0.2905  0.0014
   29MOL0     C 3805  11.425   5.857   8.647  0.4323  0.4379 -0.2761
   29MOL0     C 3806  11.508   5.953   8.705 -0.3730  0.3376 -0.1867
   29MOL0     C 3807  11.609   6.017   8.634 -1.4254 -0.8724  0.3467
   29MOL0     C 3808  11.689   6.123   8.713 -0.0537 -0.0113 -0.7294
   29MOL0     C 3809  11.628   5.984   8.498  1.1741  0.2141 -0.5713
   29MOL0     C 3810  11.768   6.016   8.440 -1.2796 -0.2892 -0.5415
   29MOL0     O 3811  11.765   6.029   8.303 -0.3180  0.3914 -0.0820
   29MOL0     C 3812  11.853   6.117   8.250 -0.0954 -0.0573  0.2962
   29MOL0     C 3813  11.839   6.250   8.290 -0.9810  0.1237 -1.1246
   29MOL0     C 3814  11.938   6.348   8.249  0.3481 -0.9551  0.4405
   29MOL0     C 3815  12.040   6.303   8.171  0.0391 -0.7462  0.6831
   29MOL0     O 3816  12.142   6.373   8.119  0.7045 -0.0904 -0.1481
   29MOL0     C 3817  12.152   6.514   8.133 -0.4682  0.3324  0.0307
   29MOL0     C 3818  12.288   6.555   8.065  0.1359 -0.6397 -0.3187
   29MOL0     C 3819  12.306   6.707   8.060  0.2275  0.4254  0.4916
   29MOL0     C 3820  12.288   6.778   8.199  0.7070 -0.2718 -0.1692
   29MOL0     C 3821  12.327   6.925   8.185 -0.0118 -0.0456 -0.5467
   29MOL0     C 3822  12.263   7.009   8.304 -0.6380  0.3367 -0.4094
   29MOL0     C 3823  12.261   7.166   8.273  0.5034  0.1030 -0.1192
   29MOL0     C 3824  12.170   7.259   8.358  0.4948  0.0863  0.3151
   29MOL0    Cl 3825  12.252   7.297   8.512  0.2230  0.4263 -0.3285
   29MOL0     C 3826  12.041   6.170   8.124 -0.0376 -0.5130 -0.6758
   29MOL0     C 3827  11.950   6.073   8.159 -0.0974 -0.6981 -0.5959
   29MOL0     O 3828  11.869   6.004   8.507 -0.3676  0.2366  0.4346
   29MOL0     C 3829  11.549   5.891   8.438  0.4725  0.7942  0.5599
   29MOL0     C 3830  11.444   5.833   8.512  0.8655 -0.3352  0.3240
   29MOL0     N 3831  11.233   5.611   9.370 -0.3681  1.3465 -0.7502
   29MOL0     N 3832  11.158   5.589   9.470  0.7588 -0.3394  0.0928
   29MOL0     C 3833  10.383   4.869   9.414 -0.1738 -0.1700 -1.0861
   29MOL0     C 3834  10.258   4.924   9.458  0.5045 -0.2650 -0.3413
   29MOL0     C 3835   9.866   5.104   9.373 -0.7240 -0.4251  0.2607
   29MOL0     C 3836   9.839   5.219   9.288  0.8724  0.5384 -0.5852
   29MOL0     C 3837   9.722   5.290   9.320  0.0368 -0.2758 -0.1645
   29MOL0     C 3838   9.624   5.258   9.421 -0.2206  0.3145 -0.2004
   29MOL0     O 3839   9.521   5.340   9.465 -0.1306  0.7244  0.9014
   29MOL0     C 3840   9.443   5.414   9.371  0.1013 -0.6576  0.1189
   29MOL0     C 3841   9.346   5.329   9.286  0.9140 -0.3817 -0.1890
   29MOL0     C 3842   9.214   5.299   9.372 -0.0891 -0.4798  0.6742
   29MOL0     C 3843   9.121   5.204   9.289 -0.4210 -0.3052  0.1488
   29MOL0     C 3844   8.998   5.263   9.243  0.6391 -0.3515 -0.0018
   29MOL0     C 3845   8.892   5.315   9.213  0.2583  0.8710 -0.1810
   29MOL0     C 3846   9.653   5.142   9.491  0.3221  0.5040  0.5955
   29MOL0     C 3847   9.770   5.065   9.469  0.4420 -1.3285 -0.0411
   29MOL0     H 3848  10.042   4.701   9.326 -0.4217  0.0712  2.5398
   29MOL0     H 3849  10.261   4.613   9.233 -0.9979  1.0411 -1.6253
   29MOL0     H 3850  10.622   4.792   9.433 -0.4781  0.7873 -0.3957
   29MOL0     H 3851  10.699   4.670   9.346  0.6367  0.1573  1.5221
   29MOL0     H 3852  10.616   4.872   9.154 -1.7402  1.6738  0.8924
   29MOL0     H 3853  10.593   4.961   9.292  0.1416  0.8915 -0.2595
   29MOL0     H 3854  10.856   4.857   9.346  2.9502 -0.1525 -1.2029
   29MOL0     H 3855  10.852   4.846   9.173  0.6951  0.0467  0.3142
   29MOL0     H 3856  10.939   5.051   9.190 -0.1137  1.5268  0.2520
   29MOL0     H 3857  10.770   5.103   9.187 -0.2158  0.0711  0.5417
   29MOL0     H 3858  10.764   5.123   9.439 -1.6063  2.2815 -2.1267
   29MOL0     H 3859  10.936   5.060   9.437 -0.8694  0.3518 -0.0067
   29MOL0     H 3860  10.998   5.259   9.306  0.5984 -1.0442  1.3865
   29MOL0     H 3861  10.833   5.325   9.334 -1.3217  0.2740  0.7969
   29MOL0     H 3862  10.892   5.271   9.585 -2.1010  2.0641 -0.9222
   29MOL0     H 3863  11.062   5.296   9.519  0.1651  0.1978 -3.6305
   29MOL0     H 3864  10.961   5.495   9.613 -1.6415 -2.2135  0.5906
   29MOL0     H 3865  10.834   5.502   9.498 -1.3018 -3.6728  1.4487
   29MOL0     H 3866  10.984   5.501   9.198  0.3726  2.9319 -1.3957
   29MOL0     H 3867  11.344   5.605   9.140 -0.4681  1.8055  0.4372
   29MOL0     H 3868  11.227   5.499   9.058  0.5707  0.0546  0.0959
   29MOL0     H 3869  11.232   5.805   9.084  1.4962  0.2319 -1.4408
   29MOL0     H 3870  11.079   5.725   9.069 -0.2241  1.4158 -2.8649
   29MOL0     H 3871  11.093   5.760   8.854 -0.4512  0.0900  1.4224
   29MOL0     H 3872  11.211   5.626   8.848  0.4039 -0.0995 -1.1349
   29MOL0     H 3873  11.387   5.814   8.909  0.5572 -1.0552 -1.9415
   29MOL0     H 3874  11.269   5.928   8.839 -1.5303  0.3752 -0.9816
   29MOL0     H 3875  11.493   5.987   8.807  0.2908  1.0394 -0.3087
   29MOL0     H 3876  11.628   6.214   8.716 -1.9285 -1.2276 -0.1011
   29MOL0     H 3877  11.706   6.076   8.810  1.8955 -1.8429 -1.8762
   29MOL0     H 3878  11.783   6.143   8.661  0.2359  2.0583  0.4676
   29MOL0     H 3879  11.765   6.281   8.363  1.4556 -1.2017  2.1196
   29MOL0     H 3880  11.902   6.450   8.261  2.2287 -0.1116 -0.5611
   29MOL0     H 3881  12.054   6.548   8.098 -2.9030 -3.1449  2.7127
   29MOL0     H 3882  12.170   6.539   8.238 -0.5044  1.3979 -0.2068
   29MOL0     H 3883  12.365   6.520   8.134 -1.3436  0.1778  1.8720
   29MOL0     H 3884  12.296   6.501   7.971 -0.6685  0.0651 -0.8041
   29MOL0     H 3885  12.226   6.739   7.993 -0.3696  0.6136  1.2800
   29MOL0     H 3886  12.402   6.738   8.018  0.6364 -3.7201 -2.2441
   29MOL0     H 3887  12.181   6.778   8.220  0.8924  0.7971  0.8803
   29MOL0     H 3888  12.340   6.730   8.283 -1.2901 -2.4504 -0.0633
   29MOL0     H 3889  12.282   6.961   8.092 -2.4399  1.0338  0.9531
   29MOL0     H 3890  12.435   6.937   8.176  0.4159 -1.1608  2.1222
   29MOL0     H 3891  12.163   6.976   8.333 -0.1608  0.1821  1.1360
   29MOL0     H 3892  12.318   6.993   8.397 -1.1621 -0.2472 -0.1898
   29MOL0     H 3893  12.232   7.174   8.168 -1.4544 -1.2736  0.2843
   29MOL0     H 3894  12.364   7.205   8.279  1.2720 -1.5031 -1.8182
   29MOL0     H 3895  12.070   7.223   8.382  0.1159  1.9881  1.7832
   29MOL0     H 3896  12.169   7.353   8.301  0.0197  0.0494  0.2579
   29MOL0     H 3897  12.122   6.142   8.057  0.7173 -1.4366  0.5667
   29MOL0     H 3898  11.965   5.965   8.150 -0.1266 -0.7588  0.0599
   29MOL0     H 3899  11.561   5.874   8.332  0.6133 -0.8596  0.8125
   29MOL0     H 3900  11.384   5.757   8.463 -2.0665  0.5994  2.2038
   29MOL0     H 3901  10.461   4.923   9.466  0.7704 -2.3655 -0.0975
   29MOL0     H 3902  10.262   5.016   9.516  3.8243 -1.2551  1.2547
   29MOL0     H 3903   9.902   5.264   9.212  0.6795 -0.4026 -1.3221
   29MOL0     H 3904   9.694   5.383   9.271 -1.0280 -0.0443  0.8376
   29MOL0     H 3905   9.394   5.485   9.438  0.1810 -0.5748  0.0887
   29MOL0     H 3906   9.510   5.471   9.307  0.2095 -0.3751  0.4801
   29MOL0     H 3907   9.398   5.235   9.267 -0.6855 -1.6453  1.2864
   29MOL0     H 3908   9.320   5.377   9.191 -0.6707 -2.6348 -0.9856
   29MOL0     H 3909   9.168   5.393   9.404 -0.6635 -1.3851  2.6427
   29MOL0     H 3910   9.233   5.235   9.458 -1.1895 -0.2817  1.0826
   29MOL0     H 3911   9.078   5.114   9.334 -0.2619 -1.6581 -2.2326
   29MOL0     H 3912   9.171   5.169   9.198  2.6631  1.7425  0.9071
   29MOL0     H 3913   8.801   5.356   9.173 -0.4857 -1.0824 -0.5801
   29MOL0     H 3914   9.583   5.101   9.563  0.9298 -0.2404  0.7742
   29MOL0     H 3915   9.785   4.985   9.542  4.9670  0.8782  1.8386
   30MOL0     O 3916   9.230  10.318   5.465  0.0280  0.4096  0.1964
   30MOL0     C 3917   9.198  10.201   5.474 -0.6766  0.0344 -0.0622
   30MOL0     O 3918   9.260  10.099   5.416 -0.2456  0.7583  0.6424
   30MOL0     C 3919   9.377  10.137   5.362  0.7815 -0.0636  0.3289
   30MOL0     C 3920   9.501  10.115   5.424 -0.6392 -0.4501 -0.9038
   30MOL0     C 3921   9.615  10.155   5.362  0.2105 -0.1668  0.3827
   30MOL0     C 3922   9.607  10.216   5.231  0.5715  1.0832 -0.1127
   30MOL0     O 3923   9.721  10.251   5.173 -0.1079 -1.3065  0.0313
   30MOL0     C 3924   9.772  10.160   5.074 -0.9840 -0.8151 -0.3146
   30MOL0     C 3925   9.908  10.210   5.009  0.1310 -0.2559 -0.1908
   30MOL0     C 3926  10.012  10.195   5.111  0.2715  0.6190 -0.2481
   30MOL0     C 3927  10.149  10.235   5.049 -0.0810  0.3298 -0.4122
   30MOL0     C 3928  10.183  10.386   5.020  0.6682  0.0902  0.1923
   30MOL0     C 3929  10.145  10.442   4.877 -0.1116  0.5602  0.8919
   30MOL0     C 3930  10.212  10.579   4.842  0.1810  0.0641  0.5497
   30MOL0     C 3931  10.356  10.591   4.896 -0.3737 -0.3625  0.2026
   30MOL0     N 3932  10.461  10.494   4.860 -0.2704 -0.4734  0.5925
   30MOL0     C 3933  10.517  10.403   4.938 -0.2117 -0.1249 -0.4207
   30MOL0     C 3934  10.595  10.331   4.857 -0.3111  1.8325 -0.3142
   30MOL0     C 3935  10.676  10.203   4.892  0.3243 -0.5878  0.7994
   30MOL0     C 3936  10.775  10.224   5.005 -0.1141 -0.6434 -1.1328
   30MOL0     C 3937  10.854  10.089   5.025  0.3903 -0.0844  0.2384
   30MOL0     C 3938  10.963  10.117   5.137 -0.2743 -0.2104 -1.1008
   30MOL0     O 3939  11.062  10.202   5.084 -0.0291  0.0681 -0.9192
   30MOL0     C 3940  11.184  10.216   5.139  0.1198 -0.2079  0.7437
   30MOL0     C 3941  11.241  10.142   5.243 -1.1614 -1.0364 -0.6501
   30MOL0     C 3942  11.372  10.167   5.291 -0.2320 -1.6048 -0.0582
   30MOL0     C 3943  11.430  10.087   5.406 -0.1725  0.2920 -0.0526
   30MOL0     C 3944  11.440  10.283   5.240 -0.1091 -0.5786  0.8097
   30MOL0     C 3945  11.571  10.325   5.297 -0.6967 -0.9927  0.2979
   30MOL0     O 3946  11.635  10.415   5.209 -0.4756  0.2009 -0.7670
   30MOL0     C 3947  11.755  10.474   5.254  0.2838  0.4855 -0.5338
   30MOL0     C 3948  11.869  10.454   5.172 -0.0398  0.5366 -0.0890
   30MOL0     C 3949  11.999  10.492   5.219 -0.3912 -0.5545  0.1170
   30MOL0     C 3950  12.019  10.566   5.337 -0.1781 -0.3173 -0.0073
   30MOL0     O 3951  12.137  10.603   5.391  0.2105  0.1502 -0.4591
   30MOL0     C 3952  12.202  10.707   5.305  0.1253 -0.3723  0.0711
   30MOL0     C 3953  12.291  10.790   5.396 -0.1092  0.1279  0.3672
   30MOL0     C 3954  12.212  10.897   5.468 -0.2466 -0.1808 -0.1837
   30MOL0     C 3955  12.308  10.986   5.553  0.0362 -1.3430 -0.6674
   30MOL0     C 3956  12.231  11.081   5.642  0.6675  0.8406 -0.1065
   30MOL0     C 3957  12.319  11.183   5.706  0.2731 -0.5350  0.4696
   30MOL0     C 3958  12.238  11.288   5.779 -0.5449  0.4119  0.0272
   30MOL0     C 3959  12.316  11.403   5.835  0.1162 -0.5094  0.4213
   30MOL0    Cl 3960  12.195  11.522   5.888 -0.0318 -0.5484 -0.2107
   30MOL0     C 3961  11.897  10.586   5.408 -0.8644 -0.0132 -0.8363
   30MOL0     C 3962  11.770  10.542   5.371  0.6634 -0.7547  0.3307
   30MOL0     O 3963  11.613  10.299   5.404 -0.5014  0.3112  0.3820
   30MOL0     C 3964  11.378  10.355   5.144 -0.2681 -0.6652  0.5850
   30MOL0     C 3965  11.255  10.327   5.086  0.1827  0.9355  0.0025
   30MOL0     N 3966  10.602  10.394   4.731 -0.5400  0.5074 -0.1478
   30MOL0     N 3967  10.507  10.482   4.728  0.2156 -0.6016 -0.5520
   30MOL0     C 3968   9.482  10.226   5.165 -0.4544 -1.1336  0.2069
   30MOL0     C 3969   9.372  10.188   5.227  0.0509  0.3116  0.0248
   30MOL0     C 3970   9.077  10.156   5.543 -0.2040  0.6414 -1.3994
   30MOL0     C 3971   9.003  10.242   5.626  0.4383 -0.7696 -0.0296
   30MOL0     C 3972   8.898  10.188   5.707  0.6650  0.0712 -0.1048
   30MOL0     C 3973   8.869  10.053   5.705  0.4423  0.5482  0.2059
   30MOL0     O 3974   8.772  10.009   5.787  0.0010  0.0024 -0.2405
   30MOL0     C 3975   8.717   9.878   5.780  0.3435  0.0021 -0.2081
   30MOL0     C 3976   8.613   9.872   5.668  0.3549  0.1606 -0.0938
   30MOL0     C 3977   8.498   9.985   5.690 -1.0603  0.3171 -0.1394
   30MOL0     C 3978   8.392   9.972   5.576 -0.4105 -0.3634  0.0026
   30MOL0     C 3979   8.430  10.057   5.459 -0.6976  0.3036 -0.2508
   30MOL0     C 3980   8.462  10.132   5.371 -0.2581  0.8031 -0.4863
   30MOL0     C 3981   8.944   9.972   5.621  0.7826  0.2519 -0.8891
   30MOL0     C 3982   9.035  10.025   5.527  0.0164  0.4422 -0.4061
   30MOL0     H 3983   9.496  10.084   5.528 -1.2580  2.5126  0.0376
   30MOL0     H 3984   9.713  10.137   5.405  0.3620 -1.3861 -0.4154
   30MOL0     H 3985   9.784  10.062   5.120 -3.5073  0.1366  2.6678
   30MOL0     H 3986   9.696  10.157   4.996 -1.9030  1.4853  0.4197
   30MOL0     H 3987   9.929  10.162   4.914  1.8139  0.6881 -0.3383
   30MOL0     H 3988   9.901  10.315   4.978 -0.3724 -0.1878  0.1455
   30MOL0     H 3989   9.994  10.262   5.196  2.2070  1.8338 -0.7371
   30MOL0     H 3990  10.017  10.092   5.147 -1.7182  0.2418 -0.9410
   30MOL0     H 3991  10.219  10.207   5.129  2.3809  2.4479 -1.6995
   30MOL0     H 3992  10.184  10.180   4.962 -1.8070 -0.2567 -0.7859
   30MOL0     H 3993  10.132  10.448   5.094 -0.9426 -0.1283 -0.6785
   30MOL0     H 3994  10.292  10.391   5.019  0.7206  0.8621  3.0321
   30MOL0     H 3995  10.176  10.364   4.807  0.9316 -1.2298  3.2287
   30MOL0     H 3996  10.036  10.457   4.873 -0.1927 -0.2078 -1.3353
   30MOL0     H 3997  10.214  10.605   4.736  1.3914  0.5796  0.6877
   30MOL0     H 3998  10.151  10.656   4.890  0.9481  0.7383  0.4589
   30MOL0     H 3999  10.357  10.581   5.005  0.7897 -3.4940  0.0227
   30MOL0     H 4000  10.393  10.689   4.865 -1.7985 -0.0747 -0.6368
   30MOL0     H 4001  10.503  10.371   5.041  2.3124 -0.8218 -0.2165
   30MOL0     H 4002  10.600  10.130   4.919 -0.6459  0.2559  0.3997
   30MOL0     H 4003  10.731  10.170   4.803  2.3813  1.2641  1.2844
   30MOL0     H 4004  10.727  10.256   5.097  0.4838 -3.9690  0.4926
   30MOL0     H 4005  10.830  10.312   4.968  1.0898 -0.3236  1.2523
   30MOL0     H 4006  10.897  10.060   4.929  0.3313 -0.2484  0.2610
   30MOL0     H 4007  10.788  10.006   5.052  0.8574  0.0121  1.7612
   30MOL0     H 4008  11.012  10.020   5.153  0.5381  0.3732  0.0132
   30MOL0     H 4009  10.919  10.148   5.232  1.1723  1.9728 -1.0771
   30MOL0     H 4010  11.185  10.057   5.280 -2.3444 -1.0209 -2.3156
   30MOL0     H 4011  11.366  10.001   5.429  2.0785 -1.1905  1.0469
   30MOL0     H 4012  11.532  10.061   5.379 -0.8197 -2.2870 -0.3521
   30MOL0     H 4013  11.432  10.139   5.502 -2.5455  3.3817 -1.5039
   30MOL0     H 4014  11.839  10.393   5.088 -0.1824  2.5003 -1.5355
   30MOL0     H 4015  12.080  10.447   5.162 -0.8761 -2.4878  0.8659
   30MOL0     H 4016  12.256  10.661   5.222 -2.0373 -3.2297  0.1155
   30MOL0     H 4017  12.129  10.768   5.251 -1.8127 -1.4575  1.3546
   30MOL0     H 4018  12.353  10.729   5.463 -3.0829 -2.3674  1.0366
   30MOL0     H 4019  12.359  10.854   5.338  1.7673 -1.0474  1.1589
   30MOL0     H 4020  12.133  10.849   5.525  0.3175 -1.7156 -0.6464
   30MOL0     H 4021  12.155  10.962   5.401 -1.5457  0.4046  1.4229
   30MOL0     H 4022  12.389  10.936   5.608  1.3789  0.1473 -1.2110
   30MOL0     H 4023  12.365  11.048   5.484 -2.0420  3.5697  1.6093
   30MOL0     H 4024  12.181  11.024   5.721 -0.0262  0.8180 -0.5417
   30MOL0     H 4025  12.147  11.136   5.598  0.2222  2.4041  2.5321
   30MOL0     H 4026  12.389  11.136   5.776 -1.2638 -1.1225  1.6658
   30MOL0     H 4027  12.377  11.227   5.624  1.6395  1.4444  2.4062
   30MOL0     H 4028  12.183  11.240   5.860  3.1712  0.0694  2.5982
   30MOL0     H 4029  12.158  11.318   5.711 -1.2499 -2.1149 -0.3496
   30MOL0     H 4030  12.377  11.462   5.767 -0.6857 -0.9537 -0.7069
   30MOL0     H 4031  12.366  11.374   5.928  2.0348 -1.2789 -0.7878
   30MOL0     H 4032  11.911  10.645   5.498 -0.2286  1.5992 -1.9513
   30MOL0     H 4033  11.682  10.558   5.433  0.9378  1.4700  0.2591
   30MOL0     H 4034  11.430  10.436   5.093  0.1170 -1.5033 -0.3967
   30MOL0     H 4035  11.239  10.381   4.993  1.0687 -1.9915 -1.9842
   30MOL0     H 4036   9.475  10.260   5.062  0.2698  0.3208  0.6099
   30MOL0     H 4037   9.274  10.196   5.181 -0.5027 -0.7586  0.9743
   30MOL0     H 4038   9.031  10.346   5.640  1.5873 -1.3766  2.8585
   30MOL0     H 4039   8.839  10.258   5.765 -0.0398  0.7258 -1.5602
   30MOL0     H 4040   8.792   9.801   5.761  2.9236  2.3750 -0.2548
   30MOL0     H 4041   8.678   9.865   5.881  0.4578  2.5532  0.2423
   30MOL0     H 4042   8.556   9.779   5.674 -0.3593  0.6829  1.8476
   30MOL0     H 4043   8.653   9.894   5.568 -1.2190  0.2391 -0.7459
   30MOL0     H 4044   8.541  10.083   5.709 -0.2752 -0.5176  2.8919
   30MOL0     H 4045   8.452   9.940   5.778  0.4817 -1.8031 -0.3378
   30MOL0     H 4046   8.296   9.998   5.621  1.4314  2.6153  2.6662
   30MOL0     H 4047   8.388   9.865   5.557  2.7867 -0.9998  2.0949
   30MOL0     H 4048   8.475  10.216   5.305 -2.3696  1.7388  0.2094
   30MOL0     H 4049   8.913   9.868   5.617  0.2163  0.2773  1.4345
   30MOL0     H 4050   9.091   9.956   5.466  2.3144  1.0490  0.8962
   31MOL0     O 4051   5.502   5.987   7.590 -0.4379 -0.0236 -0.5121
   31MOL0     C 4052   5.527   5.938   7.696  0.1700  0.1512 -0.0561
   31MOL0     O 4053   5.436   5.880   7.781 -0.1503  0.3067 -0.4856
   31MOL0     C 4054   5.309   5.892   7.756  0.9106 -0.2811  0.9021
   31MOL0     C 4055   5.250   6.011   7.737  0.1283 -0.9074 -0.3440
   31MOL0     C 4056   5.124   6.020   7.675 -0.3422  1.5420 -0.7980
   31MOL0     C 4057   5.054   5.903   7.649  0.5875 -0.5339 -0.8882
   31MOL0     O 4058   4.925   5.908   7.608  0.0339 -0.0205  0.3370
   31MOL0     C 4059   4.866   6.037   7.568 -0.1334  0.1064  0.4094
   31MOL0     C 4060   4.738   6.034   7.490  0.0699 -0.2928 -0.6712
   31MOL0     C 4061   4.625   5.949   7.541 -0.6376 -0.1959 -0.0651
   31MOL0     C 4062   4.638   5.800   7.523  0.1252  0.6024 -0.2913
   31MOL0     C 4063   4.558   5.727   7.622  0.9151 -1.4536 -0.5717
   31MOL0     C 4064   4.590   5.577   7.623 -0.2901 -0.0763  0.9343
   31MOL0     C 4065   4.516   5.488   7.741 -0.6447 -0.2423  0.2741
   31MOL0     C 4066   4.378   5.462   7.687  0.2228 -0.4983 -1.0486
   31MOL0     N 4067   4.289   5.561   7.747 -0.3673  0.2020  0.4555
   31MOL0     C 4068   4.258   5.556   7.879  0.2408 -0.0120 -0.4125
   31MOL0     C 4069   4.138   5.615   7.894 -0.4799 -0.7206  0.3646
   31MOL0     C 4070   4.069   5.659   8.015 -0.1324  0.2721  0.8619
   31MOL0     C 4071   4.115   5.796   8.066 -0.0011 -0.6275  0.2651
   31MOL0     C 4072   4.261   5.805   8.125  1.0392  0.0008 -0.2855
   31MOL0     C 4073   4.294   5.953   8.153 -0.1669  0.4130  0.5036
   31MOL0     O 4074   4.249   6.010   8.278  0.6795  1.0490 -0.2816
   31MOL0     C 4075   4.330   6.002   8.391 -0.4529 -0.6438 -0.6328
   31MOL0     C 4076   4.297   6.086   8.497 -0.6553 -0.4661 -0.1559
   31MOL0     C 4077   4.363   6.081   8.628 -0.6812 -0.2511  0.7157
   31MOL0     C 4078   4.310   6.172   8.738  0.1054 -0.0132  0.3768
   31MOL0     C 4079   4.471   5.984   8.634  0.2909 -0.6554  0.0254
   31MOL0     C 4080   4.566   5.993   8.753  0.3207  0.1508  0.4255
   31MOL0     O 4081   4.585   6.117   8.813 -0.1752  0.0391 -0.8027
   31MOL0     C 4082   4.647   6.125   8.935 -0.9922  0.7413 -0.0861
   31MOL0     C 4083   4.581   6.177   9.048  0.5112 -0.3500 -0.5355
   31MOL0     C 4084   4.647   6.177   9.174  0.0767 -0.3054 -0.2750
   31MOL0     C 4085   4.770   6.116   9.192  0.1942  0.6146  0.6517
   31MOL0     O 4086   4.834   6.121   9.316 -0.0197  0.7420 -0.1807
   31MOL0     C 4087   4.975   6.132   9.315 -0.3471  0.1387  0.3187
   31MOL0     C 4088   5.022   6.189   9.451 -0.0006  0.0189 -0.1635
   31MOL0     C 4089   5.168   6.135   9.490  0.3257  0.4724  0.7650
   31MOL0     C 4090   5.219   6.208   9.608 -0.6374  0.0006 -1.0939
   31MOL0     C 4091   5.363   6.187   9.647  0.1433  0.7905  0.3960
   31MOL0     C 4092   5.391   6.230   9.788  0.0920  0.3878 -0.0656
   31MOL0     C 4093   5.540   6.212   9.837  0.2635  0.6958 -0.3717
   31MOL0     C 4094   5.618   6.335   9.784  0.1545 -0.1653 -1.1243
   31MOL0    Cl 4095   5.772   6.360   9.873  0.2314  0.1094  0.2073
   31MOL0     C 4096   4.829   6.058   9.083  0.9450 -0.1582 -0.0365
   31MOL0     C 4097   4.777   6.074   8.951  0.4259  0.1048 -0.5966
   31MOL0     O 4098   4.627   5.889   8.784  0.0852 -0.3465  0.4176
   31MOL0     C 4099   4.503   5.902   8.530 -0.3999 -0.0749  0.4073
   31MOL0     C 4100   4.443   5.912   8.405  0.7952  0.3782 -0.5148
   31MOL0     N 4101   4.094   5.641   7.764  0.1106  0.1054 -0.4969
   31MOL0     N 4102   4.189   5.626   7.680  1.2472  0.6410  0.7588
   31MOL0     C 4103   5.107   5.783   7.687  0.3410  0.5263  0.1101
   31MOL0     C 4104   5.241   5.775   7.723 -0.2318 -1.1862 -0.5852
   31MOL0     C 4105   5.667   5.924   7.734  0.2951  0.3667 -0.0707
   31MOL0     C 4106   5.768   5.923   7.643 -0.2173 -0.8889 -0.6090
   31MOL0     C 4107   5.902   5.894   7.671 -0.4148 -0.0329  0.2327
   31MOL0     C 4108   5.942   5.866   7.804  1.2975  0.1238 -0.2305
   31MOL0     O 4109   6.077   5.832   7.817  0.6293  0.8547 -1.0552
   31MOL0     C 4110   6.124   5.836   7.958 -0.1694  0.6300  0.0489
   31MOL0     C 4111   6.233   5.951   7.964 -0.2179 -0.1771  0.0060
   31MOL0     C 4112   6.356   5.905   7.890 -0.5825 -0.1550  0.3375
   31MOL0     C 4113   6.489   5.957   7.951  0.1554 -0.9821  0.2420
   31MOL0     C 4114   6.488   6.101   7.927  0.1948  0.3772  0.7359
   31MOL0     C 4115   6.471   6.224   7.918  0.1293 -0.2847  0.4304
   31MOL0     C 4116   5.832   5.875   7.896 -0.5799  0.1784  0.3553
   31MOL0     C 4117   5.695   5.902   7.862  0.2520 -0.1548 -0.1811
   31MOL0     H 4118   5.302   6.100   7.771 -1.8767  0.6393 -1.1188
   31MOL0     H 4119   5.073   6.115   7.665  0.3125  1.7867 -1.9983
   31MOL0     H 4120   4.864   6.108   7.651 -0.6066 -0.1351  0.6087
   31MOL0     H 4121   4.925   6.075   7.485 -0.4234  2.4876  1.2319
   31MOL0     H 4122   4.706   6.137   7.474  0.6668 -0.1414 -0.8899
   31MOL0     H 4123   4.772   6.005   7.390 -0.6364  0.6904 -1.2130
   31MOL0     H 4124   4.614   5.980   7.646 -0.9884  0.3438 -0.2540
   31MOL0     H 4125   4.536   5.987   7.490 -0.6827  1.8510  1.4006
   31MOL0     H 4126   4.607   5.779   7.421 -0.0965  1.3676 -0.3872
   31MOL0     H 4127   4.742   5.765   7.530 -0.1294 -1.2831 -3.9097
   31MOL0     H 4128   4.575   5.776   7.718  2.3601  0.1383 -1.5972
   31MOL0     H 4129   4.452   5.743   7.598  0.9065  1.0316  0.8472
   31MOL0     H 4130   4.577   5.522   7.529 -1.1564  1.3605  0.1714
   31MOL0     H 4131   4.698   5.573   7.636  0.5813 -0.4336 -4.0872
   31MOL0     H 4132   4.576   5.399   7.763 -0.2678 -0.4112 -1.3133
   31MOL0     H 4133   4.509   5.546   7.833 -0.9639  2.1423 -1.1693
   31MOL0     H 4134   4.343   5.361   7.709 -0.0129  0.0952  1.6329
   31MOL0     H 4135   4.388   5.466   7.578  1.7632  1.3167 -0.8929
   31MOL0     H 4136   4.312   5.514   7.964 -3.2901 -2.0614  1.0383
   31MOL0     H 4137   3.962   5.650   7.992  0.3249  0.8979 -1.8572
   31MOL0     H 4138   4.089   5.574   8.082 -1.5392 -2.4222 -1.8992
   31MOL0     H 4139   4.051   5.820   8.151  0.0994 -2.1920  0.8189
   31MOL0     H 4140   4.097   5.870   7.988 -0.9226 -1.1620 -0.0478
   31MOL0     H 4141   4.331   5.778   8.045 -2.0085  4.3999 -5.1536
   31MOL0     H 4142   4.276   5.740   8.212  2.1256  0.3594 -0.1945
   31MOL0     H 4143   4.259   6.024   8.077  0.5618 -0.2841 -0.5138
   31MOL0     H 4144   4.402   5.962   8.138 -0.3874  0.9052 -1.0321
   31MOL0     H 4145   4.219   6.160   8.482 -0.0016  0.0176 -1.2346
   31MOL0     H 4146   4.370   6.263   8.740 -0.4461  0.3481  1.5830
   31MOL0     H 4147   4.210   6.208   8.711  0.6372  1.0793 -0.2003
   31MOL0     H 4148   4.331   6.125   8.835  4.3656 -0.4190 -0.5709
   31MOL0     H 4149   4.489   6.230   9.029  1.0599  0.2224 -1.6333
   31MOL0     H 4150   4.605   6.233   9.257  1.8363  0.0708  0.4009
   31MOL0     H 4151   5.022   6.036   9.292  0.3085  0.1421  1.5252
   31MOL0     H 4152   5.010   6.210   9.247 -1.5939 -0.4354 -1.0223
   31MOL0     H 4153   5.028   6.298   9.439 -0.3186  0.1070  0.4439
   31MOL0     H 4154   4.956   6.175   9.537 -2.2380  2.9461 -1.2294
   31MOL0     H 4155   5.243   6.153   9.412  0.8346  1.5528  1.4779
   31MOL0     H 4156   5.154   6.027   9.504 -1.6262  0.7237  1.0311
   31MOL0     H 4157   5.204   6.316   9.612  1.9924  0.3819  2.0993
   31MOL0     H 4158   5.156   6.178   9.692  0.7851  2.2886  0.9071
   31MOL0     H 4159   5.438   6.235   9.583  0.7330 -0.2648  0.2728
   31MOL0     H 4160   5.378   6.079   9.631 -0.4816  0.3086  2.6934
   31MOL0     H 4161   5.353   6.329   9.814 -0.3602 -0.0773  1.1307
   31MOL0     H 4162   5.328   6.171   9.856  0.9688 -0.2230  0.2329
   31MOL0     H 4163   5.582   6.120   9.796 -0.4384 -0.4905  1.4587
   31MOL0     H 4164   5.540   6.203   9.946  0.1415 -1.6338 -0.5196
   31MOL0     H 4165   5.553   6.423   9.784 -0.4816 -0.5537  1.6518
   31MOL0     H 4166   5.645   6.317   9.680 -0.3447 -3.5443 -0.7725
   31MOL0     H 4167   4.926   6.014   9.103  1.0165 -0.1420 -0.3312
   31MOL0     H 4168   4.838   6.058   8.863  1.9921 -1.9319  0.7779
   31MOL0     H 4169   4.598   5.851   8.535 -0.5493 -0.5526 -1.0071
   31MOL0     H 4170   4.476   5.851   8.321  0.1504 -1.4144  0.4996
   31MOL0     H 4171   5.059   5.689   7.668 -0.4768  1.2999 -1.8726
   31MOL0     H 4172   5.290   5.679   7.724  0.5099 -0.8178 -0.5964
   31MOL0     H 4173   5.747   5.949   7.540  2.2876  1.5491 -0.6242
   31MOL0     H 4174   5.984   5.896   7.600 -0.5859 -4.6756 -0.4006
   31MOL0     H 4175   6.051   5.855   8.037 -1.0301  2.0563 -1.0395
   31MOL0     H 4176   6.170   5.740   7.983 -1.9755 -0.4656 -0.6565
   31MOL0     H 4177   6.256   5.972   8.068  2.4654  3.3990 -1.0895
   31MOL0     H 4178   6.181   6.032   7.911 -0.6558 -1.1121 -1.0479
   31MOL0     H 4179   6.346   5.939   7.787 -0.6535 -0.0114  0.3913
   31MOL0     H 4180   6.372   5.797   7.887 -0.7240 -0.1567 -0.4117
   31MOL0     H 4181   6.570   5.909   7.896  1.9054  0.7061  1.2334
   31MOL0     H 4182   6.493   5.935   8.058 -1.5066 -3.4030 -0.1184
   31MOL0     H 4183   6.454   6.329   7.903 -0.9854 -0.3020  1.3851
   31MOL0     H 4184   5.860   5.881   8.001  1.0069  1.6055 -0.1082
   31MOL0     H 4185   5.615   5.907   7.936  1.3913 -0.3118  1.0989
   32MOL0     O 4186   6.274   8.937   7.135 -0.4272  0.7392  0.0885
   32MOL0     C 4187   6.342   8.857   7.200 -0.4909  0.4314 -0.7795
   32MOL0     O 4188   6.359   8.726   7.165  0.0039  0.0317  0.3086
   32MOL0     C 4189   6.272   8.682   7.069  0.2329 -0.4099  0.1195
   32MOL0     C 4190   6.320   8.626   6.950 -0.2908 -0.1382 -0.1418
   32MOL0     C 4191   6.232   8.587   6.850  0.1133 -0.3975 -0.4630
   32MOL0     C 4192   6.093   8.591   6.868  0.1934 -0.7259 -1.3794
   32MOL0     O 4193   5.996   8.556   6.771  0.2304  0.1711  0.0907
   32MOL0     C 4194   6.033   8.441   6.698 -0.4210 -0.0388  0.6972
   32MOL0     C 4195   5.934   8.425   6.580  0.3100  0.5874 -0.1941
   32MOL0     C 4196   5.801   8.339   6.624 -0.2038  0.1080  0.6330
   32MOL0     C 4197   5.656   8.416   6.636  0.4607 -0.1460 -0.8385
   32MOL0     C 4198   5.618   8.493   6.770 -0.0795 -0.4270  0.4803
   32MOL0     C 4199   5.652   8.410   6.894 -0.3918 -0.3845  0.3645
   32MOL0     C 4200   5.593   8.447   7.030  0.2116 -0.6879 -0.0218
   32MOL0     C 4201   5.441   8.470   7.039  0.5817  0.3684 -0.5458
   32MOL0     N 4202   5.369   8.356   7.000  0.6057 -0.1129  0.2044
   32MOL0     C 4203   5.266   8.350   6.905  0.7582 -0.0568 -0.3324
   32MOL0     C 4204   5.260   8.216   6.897  0.7077  0.9718  0.5357
   32MOL0     C 4205   5.163   8.157   6.798 -0.0818 -0.1199  0.1612
   32MOL0     C 4206   5.232   8.054   6.706  0.0475  1.2454  0.5605
   32MOL0     C 4207   5.364   8.114   6.646 -0.2624 -0.7513 -0.4388
   32MOL0     C 4208   5.393   8.031   6.528 -0.4627 -0.0962 -0.3220
   32MOL0     O 4209   5.450   7.903   6.572  0.7712  0.5453 -0.8326
   32MOL0     C 4210   5.586   7.915   6.581 -1.4219  0.0360  0.2333
   32MOL0     C 4211   5.659   7.886   6.466  0.0239 -0.7270 -1.1716
   32MOL0     C 4212   5.793   7.913   6.448  0.5057  0.2262 -0.4132
   32MOL0     C 4213   5.856   7.899   6.311  1.1502 -0.4253  0.0174
   32MOL0     C 4214   5.867   7.963   6.559 -0.0176 -0.8652  0.6696
   32MOL0     C 4215   6.011   7.993   6.554 -1.2773 -0.3487  0.5369
   32MOL0     O 4216   6.057   8.091   6.641  0.3141  0.6956 -0.0044
   32MOL0     C 4217   6.184   8.129   6.626  1.1859 -0.0100 -0.4291
   32MOL0     C 4218   6.243   8.170   6.500 -0.4541  0.6003  0.2251
   32MOL0     C 4219   6.376   8.206   6.490 -0.2342 -0.0318  0.0656
   32MOL0     C 4220   6.458   8.213   6.603  0.0792 -0.9471  0.2086
   32MOL0     O 4221   6.591   8.234   6.610 -0.0482  0.7623 -0.6066
   32MOL0     C 4222   6.655   8.246   6.485 -0.7843  0.3687  1.3945
   32MOL0     C 4223   6.787   8.316   6.479  0.3773 -0.5675  0.7184
   32MOL0     C 4224   6.848   8.289   6.338  0.8469  0.4641 -0.2739
   32MOL0     C 4225   6.782   8.382   6.225 -0.2153 -0.0665 -0.3522
   32MOL0     C 4226   6.868   8.369   6.105  0.3823 -0.4842  0.4995
   32MOL0     C 4227   6.783   8.372   5.973 -1.0365  0.8468  0.0543
   32MOL0     C 4228   6.682   8.268   5.933 -0.5440  0.3081 -0.8215
   32MOL0     C 4229   6.720   8.131   5.992  0.3616 -0.1870 -0.2264
   32MOL0    Cl 4230   6.622   8.004   5.911 -0.5502 -0.0028 -0.2875
   32MOL0     C 4231   6.397   8.182   6.728  0.4886 -0.1750  0.3186
   32MOL0     C 4232   6.265   8.139   6.737  0.3382  0.5572 -0.0009
   32MOL0     O 4233   6.086   7.919   6.493  0.4877  0.3259 -0.3640
   32MOL0     C 4234   5.798   7.983   6.683 -0.3525 -0.1342  0.4711
   32MOL0     C 4235   5.662   7.956   6.698 -0.0070 -0.4169 -0.0058
   32MOL0     N 4236   5.346   8.146   6.974 -0.0897 -0.5440 -0.3356
   32MOL0     N 4237   5.407   8.234   7.036 -0.7919 -0.4157 -0.1406
   32MOL0     C 4238   6.039   8.645   6.989 -0.8180  0.2006  0.3246
   32MOL0     C 4239   6.133   8.696   7.085 -0.6456 -0.5708 -0.0978
   32MOL0     C 4240   6.416   8.906   7.319 -0.7538  0.1693  0.2262
   32MOL0     C 4241   6.468   8.812   7.415  0.7681  0.4929  0.3527
   32MOL0     C 4242   6.554   8.855   7.522  0.2021 -0.3812  1.2508
   32MOL0     C 4243   6.601   8.985   7.520 -0.2200 -0.0088 -0.2589
   32MOL0     O 4244   6.697   9.013   7.622  0.1234  0.0050  0.7012
   32MOL0     C 4245   6.773   9.136   7.620 -0.7499 -0.0912  0.3340
   32MOL0     C 4246   6.909   9.119   7.706  0.2723 -0.0607 -0.1910
   32MOL0     C 4247   6.879   9.064   7.847  0.9629 -0.3596 -0.2850
   32MOL0     C 4248   7.020   9.050   7.922  0.7023  0.0420 -0.2764
   32MOL0     C 4249   7.094   8.931   7.882  0.4922 -1.0988 -0.2403
   32MOL0     C 4250   7.165   8.837   7.861 -0.0728 -0.5582  0.5896
   32MOL0     C 4251   6.547   9.085   7.428  1.1840  0.5661 -0.2859
   32MOL0     C 4252   6.452   9.043   7.330  0.0549 -0.5028 -0.6350
   32MOL0     H 4253   6.427   8.632   6.932 -0.0650  0.7850  1.4050
   32MOL0     H 4254   6.266   8.566   6.749 -0.7220  0.2719 -0.8893
   32MOL0     H 4255   6.126   8.461   6.644 -0.3631  1.8253  1.4114
   32MOL0     H 4256   6.042   8.357   6.767 -0.6664  0.8262  1.8153
   32MOL0     H 4257   5.897   8.524   6.551  0.5111  0.0637 -2.3656
   32MOL0     H 4258   5.982   8.377   6.495 -1.0673  1.9783 -1.8279
   32MOL0     H 4259   5.801   8.270   6.539  1.5603  0.5706  0.2112
   32MOL0     H 4260   5.822   8.291   6.720 -1.1550  0.0715  0.8331
   32MOL0     H 4261   5.644   8.479   6.547  1.8766 -0.6997 -1.4511
   32MOL0     H 4262   5.579   8.341   6.616 -3.3072  2.7840  1.1312
   32MOL0     H 4263   5.665   8.592   6.770 -0.8443 -0.0511 -0.0361
   32MOL0     H 4264   5.509   8.502   6.765 -0.2787 -1.7069  1.8451
   32MOL0     H 4265   5.617   8.309   6.874 -2.2873 -0.6934  4.1945
   32MOL0     H 4266   5.761   8.408   6.897 -0.1359 -0.6843 -3.8859
   32MOL0     H 4267   5.614   8.370   7.106  2.1244  0.0672  0.2869
   32MOL0     H 4268   5.626   8.543   7.070 -4.4358 -0.0327  3.0514
   32MOL0     H 4269   5.421   8.562   6.983 -2.2934 -0.8921 -1.7363
   32MOL0     H 4270   5.434   8.494   7.145 -0.5132  0.1188 -0.5512
   32MOL0     H 4271   5.236   8.439   6.851  5.2564  1.6440 -0.4740
   32MOL0     H 4272   5.081   8.110   6.853 -1.5374  1.1139 -0.8830
   32MOL0     H 4273   5.116   8.237   6.740 -0.1941 -1.3098 -1.4773
   32MOL0     H 4274   5.174   8.013   6.623  2.1473  2.5315 -1.6628
   32MOL0     H 4275   5.256   7.974   6.776 -1.2498  2.0365  1.9580
   32MOL0     H 4276   5.445   8.125   6.719 -0.4855  0.3934 -0.3479
   32MOL0     H 4277   5.345   8.215   6.609 -0.4829 -0.2432  1.0152
   32MOL0     H 4278   5.461   8.090   6.467 -0.0244 -0.3239 -0.0610
   32MOL0     H 4279   5.303   8.026   6.467 -1.8522  2.4172  1.3467
   32MOL0     H 4280   5.610   7.854   6.374 -3.6886 -0.2427  0.4490
   32MOL0     H 4281   5.932   7.819   6.310  1.3516 -0.2389  0.2089
   32MOL0     H 4282   5.788   7.869   6.231 -0.2570  1.4008  0.4648
   32MOL0     H 4283   5.915   7.986   6.282  1.5480 -1.1988 -1.6031
   32MOL0     H 4284   6.183   8.189   6.411  1.7824 -1.0358 -1.7440
   32MOL0     H 4285   6.409   8.225   6.389 -0.8476 -0.9085 -0.3108
   32MOL0     H 4286   6.673   8.151   6.434  1.5461  1.2872  0.3583
   32MOL0     H 4287   6.591   8.314   6.427 -1.1047 -0.0473  1.2576
   32MOL0     H 4288   6.786   8.424   6.500 -0.7355 -0.4107 -0.0620
   32MOL0     H 4289   6.851   8.272   6.556  0.4855  1.1120  1.6275
   32MOL0     H 4290   6.853   8.182   6.319  1.4852 -0.3517  3.7034
   32MOL0     H 4291   6.952   8.323   6.334  0.5850  1.2685 -0.3939
   32MOL0     H 4292   6.680   8.349   6.204 -0.3513  1.4326 -2.2207
   32MOL0     H 4293   6.779   8.483   6.266 -1.4663  0.1845 -1.0390
   32MOL0     H 4294   6.925   8.276   6.111 -0.1520 -0.7392  1.9590
   32MOL0     H 4295   6.946   8.447   6.102 -2.0772  2.2664 -4.1374
   32MOL0     H 4296   6.726   8.466   5.977 -1.4705  0.6164 -0.5717
   32MOL0     H 4297   6.868   8.366   5.905  0.6870 -1.2553  2.2006
   32MOL0     H 4298   6.679   8.247   5.826 -1.9423 -3.1475 -0.2592
   32MOL0     H 4299   6.584   8.300   5.971 -0.5302 -0.2222 -0.3184
   32MOL0     H 4300   6.701   8.118   6.099  2.6879 -1.2785  0.1195
   32MOL0     H 4301   6.827   8.126   5.974  0.4546 -1.0819  0.4722
   32MOL0     H 4302   6.458   8.212   6.812  2.7974 -0.6972 -1.0742
   32MOL0     H 4303   6.219   8.102   6.828  1.1947 -1.2364 -0.2667
   32MOL0     H 4304   5.851   8.028   6.766 -0.4965  1.7670 -0.4061
   32MOL0     H 4305   5.619   7.970   6.796 -1.3448  1.0852 -0.7710
   32MOL0     H 4306   5.932   8.660   6.989 -1.3026 -2.6380  0.7163
   32MOL0     H 4307   6.080   8.731   7.173 -1.1832  1.1187 -1.0564
   32MOL0     H 4308   6.439   8.708   7.417 -1.7910  0.9603 -3.3196
   32MOL0     H 4309   6.601   8.793   7.598  1.2868 -1.7655 -0.4607
   32MOL0     H 4310   6.807   9.182   7.527 -2.7221  0.0536 -0.3678
   32MOL0     H 4311   6.714   9.207   7.680 -0.8915 -0.7869  1.0384
   32MOL0     H 4312   6.968   9.211   7.702  0.1914  0.0193  0.3695
   32MOL0     H 4313   6.964   9.048   7.644  0.8023 -0.6514  0.9326
   32MOL0     H 4314   6.821   8.971   7.846 -5.0066  2.7521  2.7727
   32MOL0     H 4315   6.806   9.132   7.891  1.4271  0.1881 -0.3363
   32MOL0     H 4316   6.991   9.057   8.027  2.2196  1.8519  0.0687
   32MOL0     H 4317   7.077   9.143   7.915  0.3789  0.3492  0.9240
   32MOL0     H 4318   7.228   8.752   7.844 -1.7020 -2.0710  1.8191
   32MOL0     H 4319   6.582   9.187   7.434 -0.8133  1.2382  3.7316
   32MOL0     H 4320   6.422   9.122   7.261 -1.3214 -0.9619 -0.5982
   33MOL0     O 4321   7.772   6.111   1.271  0.2682 -0.4924 -0.1808
   33MOL0     C 4322   7.850   6.156   1.353 -0.9415 -0.5041 -1.1732
   33MOL0     O 4323   7.986   6.166   1.333  1.0928 -0.7853 -0.8995
   33MOL0     C 4324   8.059   6.132   1.226 -0.3116  1.2130 -0.3786
   33MOL0     C 4325   8.008   6.066   1.108  0.2449  0.1067  0.1377
   33MOL0     C 4326   8.099   6.006   1.016  0.6373 -0.0085 -0.9476
   33MOL0     C 4327   8.236   5.997   1.036  0.0662  0.1386 -0.6357
   33MOL0     O 4328   8.333   5.956   0.944  0.1904  0.4257 -0.0866
   33MOL0     C 4329   8.300   5.864   0.843  0.4393  0.4095  0.0117
   33MOL0     C 4330   8.371   5.907   0.713 -0.0212  0.0241  0.1034
   33MOL0     C 4331   8.358   5.811   0.587  1.0842 -0.1488  0.8290
   33MOL0     C 4332   8.435   5.869   0.462 -0.0947  0.1128  0.8302
   33MOL0     C 4333   8.345   5.866   0.335 -0.8348  0.1975  0.3058
   33MOL0     C 4334   8.249   5.981   0.317 -0.6481  0.8927  0.2709
   33MOL0     C 4335   8.203   5.986   0.170 -0.0648 -0.2246 -0.2180
   33MOL0     C 4336   8.097   6.091   0.142 -0.6947 -0.3027 -0.1788
   33MOL0     N 4337   8.059   6.104  -0.001  0.5112 -0.6766  0.2112
   33MOL0     C 4338   8.044   5.998  -0.091 -0.8093 -0.2189 -0.6205
   33MOL0     C 4339   7.980   6.060  -0.197 -1.0830 -0.1238 -0.9004
   33MOL0     C 4340   7.932   5.992  -0.317 -0.2921  0.3466  0.3086
   33MOL0     C 4341   8.041   5.975  -0.420  0.5865  0.3607  1.3408
   33MOL0     C 4342   8.058   6.102  -0.504 -0.5652  0.0016 -0.5461
   33MOL0     C 4343   8.124   6.061  -0.630  0.5383  0.0527  0.0285
   33MOL0     O 4344   8.266   6.062  -0.606  0.2247 -0.3305 -0.4342
   33MOL0     C 4345   8.327   6.185  -0.607  0.3652  0.9329 -0.3076
   33MOL0     C 4346   8.466   6.173  -0.623  0.7210  0.0139 -0.0546
   33MOL0     C 4347   8.550   6.284  -0.648  0.1625 -0.1237 -0.5079
   33MOL0     C 4348   8.698   6.259  -0.655  0.6216  0.1194  0.4158
   33MOL0     C 4349   8.497   6.413  -0.667  0.3491 -0.1185  0.1656
   33MOL0     C 4350   8.577   6.541  -0.701  0.1288 -0.8783 -1.0106
   33MOL0     O 4351   8.532   6.679  -0.678  0.1839  0.1165 -0.6507
   33MOL0     C 4352   8.597   6.773  -0.745  1.1324  0.2723 -0.1559
   33MOL0     C 4353   8.718   6.825  -0.694 -0.6856  0.2329  0.6090
   33MOL0     C 4354   8.786   6.931  -0.760 -0.3253 -0.1414 -0.3355
   33MOL0     C 4355   8.726   6.980  -0.874  0.0998 -0.1155  0.1758
   33MOL0     O 4356   8.788   7.092  -0.908 -0.2323  0.0380 -0.2077
   33MOL0     C 4357   8.782   7.154  -1.036 -1.1671 -0.5938 -0.2875
   33MOL0     C 4358   8.867   7.287  -1.041 -0.3024 -0.0395  1.1750
   33MOL0     C 4359   8.808   7.401  -0.964 -0.0772 -0.5977 -0.4098
   33MOL0     C 4360   8.930   7.508  -0.940  0.3100 -0.1960 -0.2017
   33MOL0     C 4361   8.949   7.593  -1.054 -0.1155 -0.3494  1.4127
   33MOL0     C 4362   9.082   7.677  -1.022  0.2229  0.2404  0.7888
   33MOL0     C 4363   9.102   7.802  -1.107 -0.6502  0.1510  0.6479
   33MOL0     C 4364   9.195   7.768  -1.225 -0.3443  0.0426  0.6318
   33MOL0    Cl 4365   9.099   7.679  -1.350 -0.1192  0.5107  0.2279
   33MOL0     C 4366   8.604   6.936  -0.930 -0.6727  0.3855 -0.3426
   33MOL0     C 4367   8.539   6.825  -0.864  1.1806 -1.0319  0.2063
   33MOL0     O 4368   8.687   6.511  -0.731  0.9655 -0.5920  0.2293
   33MOL0     C 4369   8.360   6.426  -0.649 -1.3535 -0.1678  0.3483
   33MOL0     C 4370   8.279   6.315  -0.624  0.1431 -0.4439  0.5723
   33MOL0     N 4371   7.978   6.194  -0.173 -0.0950  0.0392 -0.8502
   33MOL0     N 4372   8.022   6.220  -0.053 -0.4083 -0.6417  0.4661
   33MOL0     C 4373   8.283   6.059   1.154 -0.3941 -0.1997  0.1363
   33MOL0     C 4374   8.200   6.127   1.245  0.2774  0.6251  0.2828
   33MOL0     C 4375   7.803   6.229   1.470  0.6076  0.1471 -0.0833
   33MOL0     C 4376   7.688   6.309   1.451 -0.4928  1.1097  0.5180
   33MOL0     C 4377   7.625   6.368   1.557  0.2898 -0.9600  1.4174
   33MOL0     C 4378   7.672   6.358   1.688  0.2506  0.5787 -0.1136
   33MOL0     O 4379   7.602   6.415   1.793  0.1227  0.0819 -0.5172
   33MOL0     C 4380   7.617   6.363   1.923 -0.7037 -0.0425 -0.3775
   33MOL0     C 4381   7.469   6.371   1.971 -0.0571  0.7837 -0.5781
   33MOL0     C 4382   7.455   6.354   2.121  0.3739  0.4488 -0.6806
   33MOL0     C 4383   7.452   6.209   2.166  0.0624  0.1785 -0.1127
   33MOL0     C 4384   7.589   6.146   2.155  0.6228 -0.6695  0.8591
   33MOL0     C 4385   7.693   6.087   2.180  0.0177 -0.2405  0.1717
   33MOL0     C 4386   7.803   6.298   1.700 -0.7580 -0.1318 -0.8501
   33MOL0     C 4387   7.865   6.228   1.596 -0.3435 -0.4647 -0.3017
   33MOL0     H 4388   7.904   6.057   1.081  0.6281 -2.0006 -0.8092
   33MOL0     H 4389   8.053   5.965   0.927  0.0994 -0.9078 -0.2698
   33MOL0     H 4390   8.332   5.765   0.877  0.0731 -0.6956 -2.5951
   33MOL0     H 4391   8.192   5.856   0.826  0.3571  0.2785  0.5794
   33MOL0     H 4392   8.330   6.004   0.684 -0.1319 -0.0930 -0.1297
   33MOL0     H 4393   8.479   5.917   0.727  0.5500  0.3022 -3.4451
   33MOL0     H 4394   8.390   5.708   0.603 -0.8304 -1.2632 -1.8459
   33MOL0     H 4395   8.254   5.804   0.554  0.7473  3.1380  0.7655
   33MOL0     H 4396   8.468   5.973   0.474 -1.1742  0.3098  2.3339
   33MOL0     H 4397   8.525   5.816   0.427 -0.1779  0.1102  0.6152
   33MOL0     H 4398   8.408   5.845   0.248 -1.0385  1.1800 -0.0854
   33MOL0     H 4399   8.285   5.775   0.343  0.5334 -0.7341  0.3668
   33MOL0     H 4400   8.158   5.963   0.374 -0.3979 -0.4946  0.2676
   33MOL0     H 4401   8.290   6.075   0.356 -2.1357  0.7321  2.3471
   33MOL0     H 4402   8.288   5.991   0.102  0.8085  0.6642  0.8854
   33MOL0     H 4403   8.157   5.891   0.142  0.2303  0.2364 -2.4334
   33MOL0     H 4404   8.133   6.188   0.178 -2.7190  1.0324 -1.5707
   33MOL0     H 4405   8.012   6.073   0.207 -0.4601 -2.0144 -0.3092
   33MOL0     H 4406   8.082   5.896  -0.088  0.1172  0.0830 -1.3841
   33MOL0     H 4407   7.882   5.898  -0.290 -1.8535  0.4627 -1.8773
   33MOL0     H 4408   7.846   6.053  -0.344 -0.7182  0.6933  2.2943
   33MOL0     H 4409   8.007   5.890  -0.480 -1.8675 -0.9814  4.3496
   33MOL0     H 4410   8.131   5.937  -0.372 -0.7079 -3.8783  0.8840
   33MOL0     H 4411   8.111   6.184  -0.455  1.3477  0.3405 -2.9704
   33MOL0     H 4412   7.962   6.151  -0.523 -1.8826 -1.9883  0.6583
   33MOL0     H 4413   8.096   6.129  -0.711 -1.1223  0.3467  0.7965
   33MOL0     H 4414   8.102   5.958  -0.663  1.6208 -0.4911  0.9633
   33MOL0     H 4415   8.514   6.076  -0.616 -1.1337 -0.8749  1.8516
   33MOL0     H 4416   8.744   6.325  -0.582  1.0457  3.4246 -2.5762
   33MOL0     H 4417   8.717   6.153  -0.635 -4.1804 -1.3968 -1.4084
   33MOL0     H 4418   8.738   6.270  -0.756 -1.5133  0.4851 -0.4509
   33MOL0     H 4419   8.761   6.786  -0.603  1.1777  0.3466 -0.1615
   33MOL0     H 4420   8.884   6.967  -0.729 -0.4448  0.5145 -0.6845
   33MOL0     H 4421   8.822   7.090  -1.115 -0.0390  3.0497 -2.9245
   33MOL0     H 4422   8.678   7.178  -1.060 -0.4706  1.3690 -1.5177
   33MOL0     H 4423   8.967   7.257  -1.009 -0.5772 -0.9395  1.2424
   33MOL0     H 4424   8.881   7.319  -1.145  0.9220 -0.4628  1.1965
   33MOL0     H 4425   8.754   7.356  -0.880 -1.6581  0.3116 -0.8935
   33MOL0     H 4426   8.736   7.446  -1.033  2.4396  2.2073 -1.4064
   33MOL0     H 4427   8.915   7.572  -0.852  1.0710 -1.3906  0.8173
   33MOL0     H 4428   9.024   7.454  -0.925  0.4970 -0.1163 -1.0301
   33MOL0     H 4429   8.856   7.650  -1.055 -0.4793 -0.8739  2.9950
   33MOL0     H 4430   8.966   7.534  -1.144 -0.5941  1.0274  0.3782
   33MOL0     H 4431   9.086   7.691  -0.913  0.9705 -2.7319  1.2238
   33MOL0     H 4432   9.173   7.617  -1.030  0.2992  0.6332 -2.4107
   33MOL0     H 4433   9.147   7.879  -1.043  0.8245  0.4191 -0.6619
   33MOL0     H 4434   9.008   7.848  -1.137  0.6605  1.9436 -0.9249
   33MOL0     H 4435   9.284   7.711  -1.197  0.8701  2.7298  2.6609
   33MOL0     H 4436   9.225   7.866  -1.264  0.3319 -1.0218 -1.6932
   33MOL0     H 4437   8.551   6.979  -1.014 -0.1121  3.1392  0.5970
   33MOL0     H 4438   8.447   6.786  -0.906 -1.0318  2.0582  1.7817
   33MOL0     H 4439   8.316   6.523  -0.669 -1.0851  0.9501  4.4363
   33MOL0     H 4440   8.172   6.333  -0.621 -0.0861 -1.7162  0.3263
   33MOL0     H 4441   8.387   6.046   1.182 -0.4367 -5.3899 -1.0447
   33MOL0     H 4442   8.238   6.177   1.334  0.1366  2.9427 -0.8765
   33MOL0     H 4443   7.652   6.308   1.349  1.6725 -1.4009 -0.3440
   33MOL0     H 4444   7.539   6.432   1.545  1.0533 -0.2047 -0.4280
   33MOL0     H 4445   7.646   6.258   1.912  1.2689  0.7079 -3.2653
   33MOL0     H 4446   7.685   6.434   1.971 -1.4324 -0.3914  1.2629
   33MOL0     H 4447   7.404   6.302   1.916 -2.1966  0.6012  1.9629
   33MOL0     H 4448   7.421   6.468   1.954 -1.7324 -0.4565 -3.8261
   33MOL0     H 4449   7.358   6.400   2.140  0.6668  0.6129  0.4429
   33MOL0     H 4450   7.538   6.415   2.156 -0.9328  1.3988  0.8923
   33MOL0     H 4451   7.382   6.152   2.103 -0.2732  1.6652 -1.1394
   33MOL0     H 4452   7.412   6.213   2.268 -0.5588 -2.3491 -0.1825
   33MOL0     H 4453   7.789   6.044   2.201 -0.1983 -1.0723 -0.4879
   33MOL0     H 4454   7.848   6.287   1.798 -1.5783  0.2633 -0.4197
   33MOL0     H 4455   7.959   6.175   1.609 -1.1673 -1.8328  0.3192
   34MOL0     O 4456   2.965   3.509  10.692 -1.1151 -0.3166 -0.1072
   34MOL0     C 4457   2.862   3.454  10.675  0.6850  0.4641  0.8443
   34MOL0     O 4458   2.840   3.329  10.729 -0.1740 -0.1266 -0.8397
   34MOL0     C 4459   2.916   3.277  10.828  0.8164 -0.0564  0.5366
   34MOL0     C 4460   2.908   3.144  10.834 -0.0751  0.1756  0.1327
   34MOL0     C 4461   2.977   3.071  10.931 -0.3133  0.0276 -0.4116
   34MOL0     C 4462   3.057   3.141  11.017  0.8486  1.2354  0.2709
   34MOL0     O 4463   3.133   3.084  11.112 -0.7253 -0.2305  0.0876
   34MOL0     C 4464   3.071   2.968  11.179  0.5295 -0.5030 -0.0825
   34MOL0     C 4465   3.035   2.994  11.323  1.2119  0.7022  0.4075
   34MOL0     C 4466   3.159   3.047  11.391 -0.3437  0.4414  0.4572
   34MOL0     C 4467   3.272   2.952  11.398 -0.3979  0.1894  0.2803
   34MOL0     C 4468   3.371   2.996  11.495 -0.2630 -0.6493  0.3137
   34MOL0     C 4469   3.345   2.962  11.644 -0.7845  0.0035 -0.2555
   34MOL0     C 4470   3.400   2.824  11.690  0.0727  0.5196  0.1394
   34MOL0     C 4471   3.550   2.802  11.674 -0.0064 -0.4606 -0.7825
   34MOL0     N 4472   3.593   2.681  11.761 -0.0163 -0.4842 -0.5578
   34MOL0     C 4473   3.596   2.673  11.899 -0.3174  0.1858  0.2047
   34MOL0     C 4474   3.660   2.554  11.930 -0.2998  0.2787  0.2218
   34MOL0     C 4475   3.703   2.496  12.068  0.3203  0.0419 -0.2536
   34MOL0     C 4476   3.592   2.402  12.135  0.2997 -0.5999  0.2059
   34MOL0     C 4477   3.629   2.389  12.280 -0.5201  0.2540  0.8862
   34MOL0     C 4478   3.523   2.304  12.353  0.9442 -0.1104  0.3655
   34MOL0     O 4479   3.507   2.186  12.266  0.2384  0.0057 -0.4721
   34MOL0     C 4480   3.464   2.065  12.320  0.5197 -1.0434 -0.7144
   34MOL0     C 4481   3.392   2.064  12.440 -0.5088  0.1071  0.2152
   34MOL0     C 4482   3.335   1.952  12.496  0.3321  0.0774 -0.0057
   34MOL0     C 4483   3.269   1.972  12.634 -0.0095  0.1991  0.0131
   34MOL0     C 4484   3.348   1.825  12.433  0.4104  0.6048  0.2045
   34MOL0     C 4485   3.293   1.692  12.476  0.5289  0.2986  0.1085
   34MOL0     O 4486   3.272   1.598  12.375  0.8809 -0.3740  0.1585
   34MOL0     C 4487   3.290   1.470  12.421 -1.4121  0.2223 -0.1104
   34MOL0     C 4488   3.428   1.427  12.427 -0.5258 -0.9399 -0.8430
   34MOL0     C 4489   3.467   1.297  12.464  0.4919  0.2264  0.0062
   34MOL0     C 4490   3.363   1.204  12.490 -0.1811 -0.3139  1.0808
   34MOL0     O 4491   3.388   1.076  12.528 -0.3132 -0.7710 -0.6125
   34MOL0     C 4492   3.505   1.048  12.597 -0.9106 -0.8692 -0.5291
   34MOL0     C 4493   3.485   0.899  12.625  0.4016 -0.0537 -0.1757
   34MOL0     C 4494   3.599   0.827  12.683 -0.2821 -0.4766  0.5546
   34MOL0     C 4495   3.673   0.906  12.797  0.0018  0.3015 -1.3563
   34MOL0     C 4496   3.776   0.823  12.871  0.1507  1.0021 -0.2973
   34MOL0     C 4497   3.862   0.914  12.953 -0.8579 -0.8303 -0.5709
   34MOL0     C 4498   3.972   0.846  13.032 -0.3204  0.3158  1.2989
   34MOL0     C 4499   4.086   0.782  12.950  1.1930  0.7139  0.3268
   34MOL0    Cl 4500   4.208   0.912  12.893  0.4771 -0.2184  0.4862
   34MOL0     C 4501   3.231   1.246  12.488 -0.1565 -1.1027 -0.2706
   34MOL0     C 4502   3.192   1.375  12.457 -0.0201 -0.8014 -0.1586
   34MOL0     O 4503   3.266   1.681  12.596  0.0800 -0.0775  0.3776
   34MOL0     C 4504   3.419   1.829  12.314 -1.0649  0.1567  0.9497
   34MOL0     C 4505   3.466   1.948  12.249 -1.2356 -1.8782  0.1137
   34MOL0     N 4506   3.693   2.491  11.811  0.6211  0.0278 -0.7474
   34MOL0     N 4507   3.650   2.565  11.717 -0.0796 -0.6559 -0.5844
   34MOL0     C 4508   3.062   3.283  11.017  0.1364  0.5874 -0.6090
   34MOL0     C 4509   2.982   3.352  10.932  0.3228  1.3161  0.3800
   34MOL0     C 4510   2.750   3.519  10.598  0.2289  0.0791 -1.0800
   34MOL0     C 4511   2.619   3.468  10.599  0.8034 -0.5959  0.4695
   34MOL0     C 4512   2.516   3.527  10.527 -0.2755 -0.1985  0.0298
   34MOL0     C 4513   2.543   3.645  10.451  0.5232  0.3175  0.1873
   34MOL0     O 4514   2.428   3.711  10.407 -0.0302  0.1884 -0.1491
   34MOL0     C 4515   2.439   3.844  10.347  0.3254  0.2300 -0.0759
   34MOL0     C 4516   2.302   3.893  10.307 -0.6736  0.3251  0.5880
   34MOL0     C 4517   2.220   3.938  10.431  0.2667 -0.1337 -0.0545
   34MOL0     C 4518   2.071   3.931  10.423  0.2634  0.8076 -0.7664
   34MOL0     C 4519   2.021   4.036  10.329 -0.7262 -0.3378  0.3701
   34MOL0     C 4520   1.992   4.130  10.253  0.7944  0.3750  0.1315
   34MOL0     C 4521   2.669   3.700  10.456 -0.7455 -0.3522 -0.9178
   34MOL0     C 4522   2.771   3.640  10.534 -0.5613 -0.5981  0.0848
   34MOL0     H 4523   2.866   3.099  10.745  0.4491  5.0225 -2.8776
   34MOL0     H 4524   2.972   2.963  10.936  2.4762 -0.1447  0.9643
   34MOL0     H 4525   2.979   2.931  11.132  1.5871 -1.1768 -1.7254
   34MOL0     H 4526   3.136   2.881  11.181 -0.5040 -1.2967  1.8528
   34MOL0     H 4527   2.948   3.059  11.337  1.5752  1.8152 -1.9115
   34MOL0     H 4528   3.014   2.899  11.372  0.4836 -1.0525 -3.0353
   34MOL0     H 4529   3.195   3.136  11.338 -2.5288 -0.3177 -2.5760
   34MOL0     H 4530   3.125   3.072  11.492 -0.6373 -0.0026  0.4716
   34MOL0     H 4531   3.228   2.860  11.439 -0.4907 -0.4469 -1.1984
   34MOL0     H 4532   3.313   2.914  11.304 -0.7959 -1.1068  0.6101
   34MOL0     H 4533   3.468   2.955  11.464 -0.6531 -0.7796 -0.7707
   34MOL0     H 4534   3.376   3.105  11.499  0.3988 -0.5180 -2.3200
   34MOL0     H 4535   3.383   3.039  11.712 -0.3119  0.8385 -1.4273
   34MOL0     H 4536   3.236   2.963  11.656 -0.8386  1.4681 -0.6922
   34MOL0     H 4537   3.378   2.813  11.797  3.1574 -1.7395  0.6859
   34MOL0     H 4538   3.356   2.742  11.632 -1.8286  0.4563  1.5704
   34MOL0     H 4539   3.613   2.887  11.700  1.0067 -1.4369  0.0565
   34MOL0     H 4540   3.578   2.771  11.573  3.0384 -0.0696 -0.1528
   34MOL0     H 4541   3.558   2.740  11.975 -2.6494  0.1926 -0.8770
   34MOL0     H 4542   3.806   2.459  12.057  0.6731  0.9828 -0.2274
   34MOL0     H 4543   3.716   2.583  12.133 -0.1198 -0.0534 -0.0335
   34MOL0     H 4544   3.592   2.303  12.088 -2.4649 -1.2110  1.2810
   34MOL0     H 4545   3.494   2.450  12.135 -0.9978 -2.9088  2.8266
   34MOL0     H 4546   3.639   2.489  12.323  0.9874 -0.3500  2.0209
   34MOL0     H 4547   3.724   2.336  12.286  0.4041  1.0320 -3.4930
   34MOL0     H 4548   3.431   2.361  12.367  0.2548 -1.7348  3.0833
   34MOL0     H 4549   3.554   2.267  12.451  1.6649 -0.4354  0.0258
   34MOL0     H 4550   3.373   2.156  12.495 -2.2204  0.8320 -1.4678
   34MOL0     H 4551   3.163   1.951  12.621 -0.0201  1.5746 -3.2158
   34MOL0     H 4552   3.312   1.908  12.711 -1.3034 -0.7123  0.0110
   34MOL0     H 4553   3.284   2.075  12.669 -0.9339  0.9234 -1.6060
   34MOL0     H 4554   3.516   1.481  12.394  1.6482 -3.8279 -0.1097
   34MOL0     H 4555   3.570   1.264  12.455  0.6995  0.9710 -0.3967
   34MOL0     H 4556   3.601   1.064  12.546 -0.8628 -1.1389 -0.5254
   34MOL0     H 4557   3.504   1.102  12.692 -1.1383 -2.5130  0.4350
   34MOL0     H 4558   3.406   0.889  12.700  0.3283 -0.9692 -0.3651
   34MOL0     H 4559   3.455   0.851  12.532 -0.5188  1.3917 -0.6591
   34MOL0     H 4560   3.651   0.830  12.586 -3.0461  1.4753 -0.9732
   34MOL0     H 4561   3.588   0.721  12.709  1.6710 -0.7286  0.5173
   34MOL0     H 4562   3.714   0.997  12.753 -0.7703  0.5659 -1.5458
   34MOL0     H 4563   3.607   0.941  12.878  1.9754  0.3735  0.3116
   34MOL0     H 4564   3.836   0.781  12.790 -1.2298  0.0116 -0.8526
   34MOL0     H 4565   3.737   0.744  12.936  1.5622  0.0601 -0.5478
   34MOL0     H 4566   3.896   0.994  12.887 -1.8656 -0.9021 -1.2028
   34MOL0     H 4567   3.802   0.963  13.030 -0.0200 -2.8295  1.4863
   34MOL0     H 4568   3.925   0.768  13.092  0.5966 -0.6330  0.8156
   34MOL0     H 4569   4.005   0.922  13.103  0.2581 -1.4284  2.9641
   34MOL0     H 4570   4.050   0.728  12.862 -0.2256  0.7746  0.8429
   34MOL0     H 4571   4.143   0.717  13.017  0.4012  1.8950  2.2406
   34MOL0     H 4572   3.162   1.172  12.528 -0.4854 -0.8607 -0.3824
   34MOL0     H 4573   3.086   1.398  12.464  0.1019 -0.3581  0.2690
   34MOL0     H 4574   3.428   1.737  12.256  1.4290  0.2119  1.1469
   34MOL0     H 4575   3.524   1.941  12.158 -1.2992 -1.6466  0.0557
   34MOL0     H 4576   3.138   3.334  11.076  2.3352 -1.9631 -1.0661
   34MOL0     H 4577   2.960   3.459  10.931 -1.4600  0.9835 -0.3314
   34MOL0     H 4578   2.590   3.380  10.656 -0.0718 -1.3251 -1.0420
   34MOL0     H 4579   2.412   3.496  10.532 -0.9845  2.2252  2.7094
   34MOL0     H 4580   2.479   3.911  10.424 -1.0463 -0.1082  0.9748
   34MOL0     H 4581   2.512   3.853  10.266 -0.5209 -3.8742 -1.5353
   34MOL0     H 4582   2.254   3.821  10.240 -0.7338 -1.6339  2.6159
   34MOL0     H 4583   2.319   3.984  10.250  0.9872 -2.5547 -4.0823
   34MOL0     H 4584   2.249   4.039  10.460 -2.0717 -0.2403  3.1875
   34MOL0     H 4585   2.251   3.873  10.514  0.0137  0.1677  0.2784
   34MOL0     H 4586   2.029   3.932  10.524 -0.7067 -2.0767 -1.0394
   34MOL0     H 4587   2.024   3.836  10.395  0.2419  0.4301  0.4495
   34MOL0     H 4588   1.951   4.197  10.180  0.7377  2.0005  1.6079
   34MOL0     H 4589   2.691   3.802  10.427  1.3046  0.1554  1.9455
   34MOL0     H 4590   2.861   3.700  10.541 -1.6636  1.0055  1.3953
   35MOL0     O 4591   5.779   7.052   5.542  0.1393  0.3384  0.6858
   35MOL0     C 4592   5.663   7.025   5.578  1.2560 -0.6184  0.3186
   35MOL0     O 4593   5.608   7.048   5.700  0.1917 -0.3802  0.2381
   35MOL0     C 4594   5.680   7.149   5.763  0.3518 -0.4904 -0.3472
   35MOL0     C 4595   5.743   7.105   5.873 -0.5520 -0.5317  0.5006
   35MOL0     C 4596   5.825   7.192   5.946 -0.0720 -0.1304 -1.3132
   35MOL0     C 4597   5.827   7.328   5.914 -0.4874  0.0248  0.2012
   35MOL0     O 4598   5.899   7.428   5.969 -1.0208 -0.1225 -0.2036
   35MOL0     C 4599   6.013   7.394   6.055 -0.1465  0.0930 -0.8161
   35MOL0     C 4600   6.105   7.514   6.092 -1.1022 -0.1957  0.2466
   35MOL0     C 4601   6.170   7.571   5.969 -0.1561 -0.4810  0.0593
   35MOL0     C 4602   6.303   7.642   5.992  0.6072 -0.4118  0.8029
   35MOL0     C 4603   6.304   7.754   6.100 -0.1812 -0.1904  0.2553
   35MOL0     C 4604   6.253   7.883   6.034 -1.3008 -1.3023 -0.1046
   35MOL0     C 4605   6.284   8.013   6.119  0.3372  0.0453 -0.3151
   35MOL0     C 4606   6.280   8.150   6.031  0.3847  0.1354  0.3757
   35MOL0     N 4607   6.146   8.200   5.996 -0.2315 -0.2540 -0.1166
   35MOL0     C 4608   6.038   8.125   5.944 -0.0863  0.2334  0.1333
   35MOL0     C 4609   5.932   8.214   5.957 -0.6468  0.1272  0.7762
   35MOL0     C 4610   5.792   8.210   5.912  0.2612  1.0743 -0.0035
   35MOL0     C 4611   5.707   8.180   6.036  0.0962  0.1304 -0.3888
   35MOL0     C 4612   5.649   8.305   6.102  0.2905 -0.7184 -0.4023
   35MOL0     C 4613   5.514   8.270   6.173  0.2164 -0.7013 -0.3633
   35MOL0     O 4614   5.482   8.375   6.258  0.2174 -0.0464  0.3503
   35MOL0     C 4615   5.355   8.368   6.321 -0.7982  0.6866  0.2755
   35MOL0     C 4616   5.257   8.269   6.294 -0.7596  0.1518 -0.6397
   35MOL0     C 4617   5.134   8.269   6.358  0.0446 -0.0502 -0.8937
   35MOL0     C 4618   5.047   8.152   6.329 -0.4104  0.5925 -0.8562
   35MOL0     C 4619   5.108   8.380   6.453  0.2372  0.7721  0.0054
   35MOL0     C 4620   4.980   8.397   6.520  0.9697 -0.5146 -0.7986
   35MOL0     O 4621   4.903   8.284   6.552  0.2579 -0.1101  1.0588
   35MOL0     C 4622   4.771   8.318   6.569 -0.1962  0.4849  0.0567
   35MOL0     C 4623   4.674   8.306   6.470 -0.3713 -0.6570 -0.4819
   35MOL0     C 4624   4.543   8.331   6.506  1.0617 -0.2142 -0.0945
   35MOL0     C 4625   4.491   8.363   6.630  0.0809  0.1099 -0.0258
   35MOL0     O 4626   4.359   8.396   6.635 -0.5711 -0.0312 -0.5475
   35MOL0     C 4627   4.336   8.515   6.707 -0.0404  0.9234  0.2758
   35MOL0     C 4628   4.273   8.473   6.839 -0.0215 -0.5254 -1.3505
   35MOL0     C 4629   4.133   8.394   6.825 -0.5742 -0.3658  0.8680
   35MOL0     C 4630   4.035   8.427   6.937  0.1174 -1.1725  0.4575
   35MOL0     C 4631   4.066   8.358   7.072  0.7438  0.6471 -0.1191
   35MOL0     C 4632   3.965   8.401   7.183  1.0944  0.8664 -0.9210
   35MOL0     C 4633   3.846   8.293   7.180 -0.5485 -0.4029  0.2498
   35MOL0     C 4634   3.727   8.362   7.250 -0.5981  0.3940 -0.6039
   35MOL0    Cl 4635   3.594   8.256   7.189 -0.0249  0.2166 -0.3472
   35MOL0     C 4636   4.590   8.373   6.729 -1.4662 -0.3954 -0.2810
   35MOL0     C 4637   4.728   8.352   6.692  0.1407  0.1187 -1.2013
   35MOL0     O 4638   4.938   8.516   6.539 -0.3595  0.2218 -0.1036
   35MOL0     C 4639   5.209   8.472   6.476 -0.4539 -0.1537  0.3559
   35MOL0     C 4640   5.330   8.465   6.409  1.0181 -0.2748 -0.0375
   35MOL0     N 4641   5.976   8.327   6.027 -0.6492  0.4159  0.7803
   35MOL0     N 4642   6.101   8.315   6.043 -0.9375  0.7468 -0.5503
   35MOL0     C 4643   5.751   7.370   5.811 -0.0337  0.8919 -0.3350
   35MOL0     C 4644   5.677   7.286   5.734  0.2040  1.1901  1.2148
   35MOL0     C 4645   5.566   6.957   5.480 -0.0293 -0.6316  0.0868
   35MOL0     C 4646   5.444   6.913   5.528 -0.2085 -0.3266 -0.3512
   35MOL0     C 4647   5.370   6.827   5.444  0.7659  0.1135  0.5895
   35MOL0     C 4648   5.395   6.804   5.312  0.2485  0.2016  1.3892
   35MOL0     O 4649   5.328   6.719   5.231 -0.4420  0.1558  0.4762
   35MOL0     C 4650   5.190   6.751   5.215 -0.0027 -1.0511 -0.2563
   35MOL0     C 4651   5.133   6.627   5.164 -0.5834  0.9643  0.0347
   35MOL0     C 4652   4.981   6.650   5.147  0.3457 -0.6620 -0.3871
   35MOL0     C 4653   4.919   6.537   5.076  0.2991 -0.5238  0.3511
   35MOL0     C 4654   4.972   6.507   4.936  0.2765  0.0996 -0.5949
   35MOL0     C 4655   5.003   6.485   4.824 -0.3673  0.7560 -0.0832
   35MOL0     C 4656   5.520   6.853   5.262  0.5760 -0.5118  0.9213
   35MOL0     C 4657   5.610   6.920   5.352 -0.3591  0.6062  0.1993
   35MOL0     H 4658   5.740   6.998   5.894 -0.5706 -0.6409 -0.0434
   35MOL0     H 4659   5.884   7.156   6.030  0.5657  2.2806 -0.6649
   35MOL0     H 4660   5.989   7.345   6.150 -0.0457 -1.5068 -1.5862
   35MOL0     H 4661   6.077   7.323   6.003  1.6947  0.1464  1.2043
   35MOL0     H 4662   6.043   7.586   6.146  0.6577 -0.5701  2.9791
   35MOL0     H 4663   6.181   7.489   6.166 -1.8010  0.4930  1.2246
   35MOL0     H 4664   6.207   7.493   5.903  1.0116 -0.6529  0.8915
   35MOL0     H 4665   6.104   7.639   5.914  1.4850  1.2013  0.0667
   35MOL0     H 4666   6.377   7.571   6.033 -1.4478 -2.6828  0.8237
   35MOL0     H 4667   6.350   7.663   5.896 -3.5344  1.8580 -0.9709
   35MOL0     H 4668   6.250   7.733   6.192  0.5878 -3.6188  0.0619
   35MOL0     H 4669   6.405   7.773   6.138 -0.5870  0.4310  1.0497
   35MOL0     H 4670   6.311   7.894   5.942 -1.4338 -1.8388 -0.2583
   35MOL0     H 4671   6.145   7.882   6.019 -1.2517  0.5630 -0.7618
   35MOL0     H 4672   6.223   8.027   6.209 -0.3793  2.2826 -1.1036
   35MOL0     H 4673   6.386   7.999   6.157  1.0585 -2.4301 -2.8209
   35MOL0     H 4674   6.344   8.141   5.943  1.4703  3.2270  0.7435
   35MOL0     H 4675   6.327   8.230   6.088  1.1488 -1.5748  2.3008
   35MOL0     H 4676   6.038   8.025   5.901  4.8165  0.1026 -0.1032
   35MOL0     H 4677   5.759   8.305   5.870 -0.9327  1.8882  2.5757
   35MOL0     H 4678   5.787   8.120   5.849  1.3031 -1.6257  3.4482
   35MOL0     H 4679   5.765   8.114   6.101  0.6197 -1.4692 -2.3768
   35MOL0     H 4680   5.628   8.111   6.006  1.0128 -1.9762  1.7272
   35MOL0     H 4681   5.607   8.375   6.029 -2.7799 -1.4364  0.5331
   35MOL0     H 4682   5.723   8.350   6.169  0.4852 -1.9587  0.2423
   35MOL0     H 4683   5.521   8.175   6.227  1.7586 -0.5771 -0.2886
   35MOL0     H 4684   5.432   8.264   6.101 -0.6614  4.7192 -0.2285
   35MOL0     H 4685   5.281   8.196   6.218  0.8634  1.2330 -1.2209
   35MOL0     H 4686   5.103   8.085   6.263  0.2734  0.7784 -0.4661
   35MOL0     H 4687   4.997   8.105   6.414  1.6139  1.5583  0.9309
   35MOL0     H 4688   4.964   8.198   6.273 -0.6884  1.0125 -0.1078
   35MOL0     H 4689   4.699   8.274   6.369  0.1469  1.5970 -1.1319
   35MOL0     H 4690   4.464   8.312   6.434  0.1964  1.3070  0.4076
   35MOL0     H 4691   4.427   8.563   6.742  1.1071  0.2213 -1.6182
   35MOL0     H 4692   4.279   8.586   6.647  3.0883  1.9039 -1.7678
   35MOL0     H 4693   4.344   8.412   6.895  0.0247  1.7846  1.2999
   35MOL0     H 4694   4.257   8.564   6.897 -0.5586  0.0842 -2.4192
   35MOL0     H 4695   4.153   8.287   6.811 -0.4129 -0.4687  1.8557
   35MOL0     H 4696   4.086   8.426   6.731 -0.2335  1.8412  1.3873
   35MOL0     H 4697   4.029   8.535   6.949  1.0714 -1.3444  2.9267
   35MOL0     H 4698   3.941   8.390   6.894  0.9240 -1.2182 -1.3837
   35MOL0     H 4699   4.172   8.376   7.090  0.9088  0.2146 -0.6183
   35MOL0     H 4700   4.054   8.251   7.053  0.2799 -0.1247  3.7220
   35MOL0     H 4701   4.014   8.393   7.281 -1.0798  0.2783  0.1858
   35MOL0     H 4702   3.920   8.497   7.156 -3.5822 -1.1457 -1.2632
   35MOL0     H 4703   3.861   8.197   7.229  0.2721  0.7755  2.4596
   35MOL0     H 4704   3.838   8.269   7.074 -0.0504  3.2525 -0.7829
   35MOL0     H 4705   3.696   8.464   7.225  1.1933  0.9909 -0.5510
   35MOL0     H 4706   3.751   8.363   7.357  1.2486  1.9591 -0.9768
   35MOL0     H 4707   4.567   8.386   6.834  1.3396 -0.3587  0.4239
   35MOL0     H 4708   4.800   8.358   6.773 -0.8573 -4.9255  0.4085
   35MOL0     H 4709   5.205   8.566   6.531  1.3260  1.6096 -2.2446
   35MOL0     H 4710   5.390   8.552   6.432 -0.3266  0.7090 -0.1164
   35MOL0     H 4711   5.776   7.468   5.771 -1.9108  0.8521 -1.7844
   35MOL0     H 4712   5.624   7.314   5.643  0.3234 -1.1175  0.3586
   35MOL0     H 4713   5.398   6.938   5.623 -1.4186  1.9754 -1.4879
   35MOL0     H 4714   5.283   6.782   5.492  1.4488 -1.2269  0.6197
   35MOL0     H 4715   5.135   6.775   5.307 -1.1370  0.7841 -1.3613
   35MOL0     H 4716   5.182   6.823   5.133  0.8598 -1.0218 -0.3306
   35MOL0     H 4717   5.141   6.547   5.238 -1.2949  0.8228 -0.0353
   35MOL0     H 4718   5.187   6.587   5.078 -1.4169 -0.6277  0.2116
   35MOL0     H 4719   4.951   6.745   5.102 -1.6674 -0.7711  0.6236
   35MOL0     H 4720   4.935   6.663   5.245  0.8307 -2.1644  0.0690
   35MOL0     H 4721   4.812   6.558   5.077  0.5556  0.8889  0.6802
   35MOL0     H 4722   4.938   6.447   5.135 -0.7613 -1.2361 -0.3645
   35MOL0     H 4723   5.024   6.456   4.723  1.8876 -1.5909  0.9550
   35MOL0     H 4724   5.551   6.840   5.159 -1.6288  1.3550 -0.0565
   35MOL0     H 4725   5.701   6.940   5.296 -0.2015  0.4411  0.3953
   36MOL0     O 4726   1.309   0.311  10.654  0.7323 -0.5320 -0.0678
   36MOL0     C 4727   1.409   0.383  10.655  1.2285  0.1793  0.6773
   36MOL0     O 4728   1.491   0.407  10.549  0.2419  0.9825 -0.0112
   36MOL0     C 4729   1.451   0.374  10.420  1.0573 -0.3705 -0.2876
   36MOL0     C 4730   1.319   0.410  10.377  0.2005  0.4647  0.2735
   36MOL0     C 4731   1.290   0.366  10.242 -0.3915  0.6349 -0.5115
   36MOL0     C 4732   1.372   0.288  10.156  0.2547 -0.3961  0.2018
   36MOL0     O 4733   1.344   0.254  10.031  0.2316 -0.1584  1.3960
   36MOL0     C 4734   1.225   0.292   9.966  0.5604  0.7623 -0.4589
   36MOL0     C 4735   1.206   0.218   9.834  0.1043 -0.8688  0.2100
   36MOL0     C 4736   1.190   0.067   9.850  1.6566  0.0653  0.2102
   36MOL0     C 4737   1.184   0.011   9.708 -0.1299 -0.0537  0.2948
   36MOL0     C 4738   1.146  -0.136   9.698 -0.2119 -0.2536 -0.4419
   36MOL0     C 4739   1.194  -0.194   9.565 -0.3126 -0.0832 -0.0547
   36MOL0     C 4740   1.187  -0.349   9.566 -0.5640  0.6489 -0.2141
   36MOL0     C 4741   1.046  -0.400   9.600 -0.1546 -0.0950  0.3211
   36MOL0     N 4742   0.952  -0.399   9.489 -0.5491 -0.7848 -0.7840
   36MOL0     C 4743   0.890  -0.506   9.422 -0.3799  0.2766  0.3201
   36MOL0     C 4744   0.793  -0.449   9.343 -0.8617  0.5726 -0.3403
   36MOL0     C 4745   0.696  -0.512   9.250 -0.8671  0.3968  0.5246
   36MOL0     C 4746   0.595  -0.597   9.326  0.5678  0.0907 -0.6125
   36MOL0     C 4747   0.550  -0.532   9.466  0.2039  0.8652 -0.6939
   36MOL0     C 4748   0.424  -0.591   9.520 -0.4587 -1.0779  0.9231
   36MOL0     O 4749   0.319  -0.585   9.420 -0.0257 -0.5184 -0.0605
   36MOL0     C 4750   0.184  -0.621   9.437 -0.2789  0.7328 -0.7545
   36MOL0     C 4751   0.138  -0.663   9.558 -0.0704 -0.5561 -1.5548
   36MOL0     C 4752   0.005  -0.712   9.583  0.0386  0.0504  0.0146
   36MOL0     C 4753  -0.029  -0.761   9.717  0.7529  0.1221 -0.9189
   36MOL0     C 4754  -0.076  -0.734   9.460 -0.3549 -0.1209 -0.2428
   36MOL0     C 4755  -0.218  -0.793   9.468 -0.4863  0.0566 -0.0570
   36MOL0     O 4756  -0.271  -0.834   9.346  0.5465  0.3520 -1.5225
   36MOL0     C 4757  -0.350  -0.939   9.343  0.5325 -0.5037  0.1969
   36MOL0     C 4758  -0.303  -1.072   9.349 -0.0495 -0.7829 -0.7312
   36MOL0     C 4759  -0.380  -1.185   9.348  0.1781 -0.8790 -0.4028
   36MOL0     C 4760  -0.519  -1.169   9.339 -0.0111  0.6662  0.8007
   36MOL0     O 4761  -0.607  -1.271   9.339  0.0884 -0.8688 -0.6775
   36MOL0     C 4762  -0.601  -1.356   9.451  0.1390 -0.9303 -0.4049
   36MOL0     C 4763  -0.743  -1.359   9.508 -0.8950  0.4336  0.2354
   36MOL0     C 4764  -0.854  -1.375   9.411  0.2237 -0.2210  0.5138
   36MOL0     C 4765  -0.988  -1.388   9.502 -0.6066 -0.1611 -0.2809
   36MOL0     C 4766  -1.117  -1.410   9.418 -0.5638  0.7134  0.1847
   36MOL0     C 4767  -1.237  -1.378   9.502 -1.0073 -0.2124  0.3109
   36MOL0     C 4768  -1.367  -1.410   9.432 -0.4014  0.2932 -0.0863
   36MOL0     C 4769  -1.485  -1.371   9.502 -0.4227 -0.1375 -0.2336
   36MOL0    Cl 4770  -1.483  -1.429   9.672  0.1923 -0.0900  0.2509
   36MOL0     C 4771  -0.566  -1.034   9.334 -0.5933 -0.1566  0.1381
   36MOL0     C 4772  -0.492  -0.919   9.327 -0.8846  0.8051 -0.3662
   36MOL0     O 4773  -0.271  -0.805   9.577  0.2588 -0.2450  0.5679
   36MOL0     C 4774  -0.018  -0.700   9.338 -1.0592 -0.3957  0.0304
   36MOL0     C 4775   0.102  -0.634   9.324 -1.1122 -0.8467 -0.3884
   36MOL0     N 4776   0.808  -0.309   9.359  0.1310  0.2394  0.5177
   36MOL0     N 4777   0.899  -0.283   9.443 -0.1146 -0.8253 -0.0525
   36MOL0     C 4778   1.499   0.252  10.212 -0.3826 -0.5040 -0.3546
   36MOL0     C 4779   1.540   0.298  10.349 -0.1489  0.8516  0.7329
   36MOL0     C 4780   1.460   0.418  10.795  0.1886  0.0337  0.0293
   36MOL0     C 4781   1.559   0.515  10.797 -0.3518 -0.1228  0.1534
   36MOL0     C 4782   1.622   0.547  10.921  0.3595  0.0288 -0.5650
   36MOL0     C 4783   1.572   0.495  11.041 -0.3744  0.3863  0.1377
   36MOL0     O 4784   1.624   0.516  11.170  0.4815  0.1502  0.4147
   36MOL0     C 4785   1.759   0.571  11.190 -0.1689 -0.0533 -0.4761
   36MOL0     C 4786   1.769   0.618  11.335  0.1352 -0.6465  0.1030
   36MOL0     C 4787   1.905   0.681  11.360 -1.3812 -0.8591  0.3155
   36MOL0     C 4788   1.969   0.704  11.496 -0.4543  0.1000  0.4193
   36MOL0     C 4789   2.088   0.629  11.517 -0.0679 -0.1757  0.9713
   36MOL0     C 4790   2.197   0.587  11.548 -0.1017  0.2675  0.6237
   36MOL0     C 4791   1.458   0.412  11.033  0.1161  0.0778  0.2101
   36MOL0     C 4792   1.406   0.370  10.912 -0.1566 -0.5700  0.0774
   36MOL0     H 4793   1.244   0.463  10.436  1.0267 -1.3100  3.1436
   36MOL0     H 4794   1.189   0.379  10.206 -0.3670 -0.1695 -0.8857
   36MOL0     H 4795   1.141   0.266  10.031 -1.2374  0.5396 -2.7436
   36MOL0     H 4796   1.240   0.399   9.950  0.2340  0.8626 -0.1059
   36MOL0     H 4797   1.121   0.266   9.784  2.2146  0.1941 -2.6324
   36MOL0     H 4798   1.298   0.239   9.779  0.3805 -0.4703  0.8222
   36MOL0     H 4799   1.282   0.030   9.897  1.3109 -1.8154 -0.4877
   36MOL0     H 4800   1.098   0.042   9.905  2.7029 -3.1128  0.7531
   36MOL0     H 4801   1.125   0.076   9.643 -0.1643 -0.2473  0.1293
   36MOL0     H 4802   1.286   0.021   9.668  0.0900 -1.9778  0.2918
   36MOL0     H 4803   1.195  -0.195   9.777  0.3612  2.2872  1.2150
   36MOL0     H 4804   1.038  -0.151   9.710 -0.1234  0.3242  1.3844
   36MOL0     H 4805   1.142  -0.152   9.478 -1.0373  1.2845  0.9885
   36MOL0     H 4806   1.298  -0.166   9.547 -0.2412 -0.9859 -1.1116
   36MOL0     H 4807   1.214  -0.387   9.467 -0.7782 -4.7825  1.4876
   36MOL0     H 4808   1.269  -0.387   9.629  2.2101  0.5299 -3.5751
   36MOL0     H 4809   1.007  -0.352   9.690  2.0603 -1.7730  2.3041
   36MOL0     H 4810   1.057  -0.507   9.623  3.9240 -0.5108 -2.5338
   36MOL0     H 4811   0.913  -0.611   9.432 -0.8810 -0.0099 -1.2275
   36MOL0     H 4812   0.644  -0.437   9.190  1.0098  1.5476  0.2615
   36MOL0     H 4813   0.748  -0.579   9.181 -0.0970 -0.0717  1.5393
   36MOL0     H 4814   0.637  -0.695   9.350  0.2907  0.3012  0.8258
   36MOL0     H 4815   0.509  -0.611   9.260  0.2080  1.1165 -0.3810
   36MOL0     H 4816   0.536  -0.424   9.457 -2.4293  0.5238 -1.5292
   36MOL0     H 4817   0.630  -0.544   9.539 -2.4135 -2.3058  1.9549
   36MOL0     H 4818   0.409  -0.554   9.622  0.2756 -0.0507  0.6738
   36MOL0     H 4819   0.445  -0.696   9.542  1.3340 -0.5564  1.8504
   36MOL0     H 4820   0.208  -0.670   9.641 -0.3637  2.3687 -0.9532
   36MOL0     H 4821   0.045  -0.724   9.789  0.0582  0.3109 -0.2887
   36MOL0     H 4822  -0.120  -0.715   9.757  0.6416 -2.5954  2.3806
   36MOL0     H 4823  -0.038  -0.869   9.724 -1.6585  0.3196  4.4509
   36MOL0     H 4824  -0.196  -1.085   9.366  0.0365 -0.0955 -0.7017
   36MOL0     H 4825  -0.344  -1.287   9.342 -2.5261 -1.9533  0.0765
   36MOL0     H 4826  -0.574  -1.451   9.405  0.8792 -0.4097 -1.0753
   36MOL0     H 4827  -0.529  -1.327   9.528 -0.1908 -0.7338 -0.1670
   36MOL0     H 4828  -0.741  -1.447   9.573  1.2583 -0.2948 -0.7468
   36MOL0     H 4829  -0.762  -1.261   9.552 -1.9764  0.2173  0.2943
   36MOL0     H 4830  -0.847  -1.468   9.353 -1.7651  0.9314 -1.7303
   36MOL0     H 4831  -0.865  -1.286   9.349 -0.2258  0.7799  1.9669
   36MOL0     H 4832  -0.986  -1.458   9.586  0.5702  1.1390  0.8445
   36MOL0     H 4833  -1.005  -1.290   9.546  0.6702  0.7459 -1.7043
   36MOL0     H 4834  -1.110  -1.510   9.373 -1.1795  1.0128 -0.6064
   36MOL0     H 4835  -1.111  -1.337   9.336  0.2213 -1.0574 -1.4188
   36MOL0     H 4836  -1.241  -1.412   9.605 -0.2937  0.3961  0.5532
   36MOL0     H 4837  -1.237  -1.268   9.501  0.8196 -0.1537 -1.8989
   36MOL0     H 4838  -1.369  -1.519   9.421  3.1725  0.2407 -1.4313
   36MOL0     H 4839  -1.376  -1.358   9.336 -0.9721 -0.5715 -0.5209
   36MOL0     H 4840  -1.581  -1.410   9.467 -1.5954  1.1237  1.4044
   36MOL0     H 4841  -1.502  -1.263   9.506 -1.3963 -0.2570 -0.7101
   36MOL0     H 4842  -0.673  -1.016   9.335 -0.5965 -0.1099  1.8232
   36MOL0     H 4843  -0.543  -0.823   9.325 -1.0119  0.8627  2.2436
   36MOL0     H 4844  -0.088  -0.718   9.257 -1.5594  0.0647  0.3563
   36MOL0     H 4845   0.126  -0.594   9.226  2.6177  2.0351  1.4521
   36MOL0     H 4846   1.556   0.178  10.156 -3.2711  0.0753 -4.5441
   36MOL0     H 4847   1.622   0.248  10.401  4.3896  2.1684 -4.1729
   36MOL0     H 4848   1.584   0.570  10.706 -2.1465 -1.0021 -0.9290
   36MOL0     H 4849   1.702   0.621  10.928  1.9458 -1.6537 -0.1272
   36MOL0     H 4850   1.840   0.503  11.164  1.1113  0.4434  1.9341
   36MOL0     H 4851   1.774   0.652  11.119  0.9789 -0.6258 -0.9050
   36MOL0     H 4852   1.765   0.535  11.405 -1.0244  0.0402  0.8640
   36MOL0     H 4853   1.688   0.684  11.366 -1.2458 -2.0075 -0.4747
   36MOL0     H 4854   1.900   0.781  11.316  1.2599 -0.7552  0.1115
   36MOL0     H 4855   1.970   0.619  11.298 -1.7425 -1.5779  0.6424
   36MOL0     H 4856   1.893   0.681  11.571 -1.8118 -1.8420 -1.4470
   36MOL0     H 4857   2.008   0.806  11.513  2.0337 -0.6282 -0.4181
   36MOL0     H 4858   2.295   0.554  11.577  0.6285  1.5768 -0.2434
   36MOL0     H 4859   1.409   0.377  11.123  1.0933  2.2895  1.6774
   36MOL0     H 4860   1.316   0.311  10.897 -1.2460  0.4627  2.0919
   37MOL0     O 4861   5.482   0.736  10.634 -1.0338  0.1044  0.6317
   37MOL0     C 4862   5.520   0.763  10.740 -0.1799 -0.1335 -0.3242
   37MOL0     O 4863   5.485   0.693  10.855 -0.6006  0.5743  0.6441
   37MOL0     C 4864   5.436   0.567  10.847  0.1783  0.5297  0.3968
   37MOL0     C 4865   5.372   0.521  10.959 -0.5996 -0.3134 -0.3438
   37MOL0     C 4866   5.311   0.397  10.972  0.3013  0.2967  0.3343
   37MOL0     C 4867   5.323   0.313  10.867  1.0120  0.7591  0.6639
   37MOL0     O 4868   5.268   0.192  10.875  0.4720  0.8270  0.1007
   37MOL0     C 4869   5.354   0.089  10.924 -0.1077 -0.5811  0.2773
   37MOL0     C 4870   5.307  -0.037  10.862  0.0653 -0.2227 -0.2259
   37MOL0     C 4871   5.376  -0.053  10.725  1.2742  0.1658 -0.1053
   37MOL0     C 4872   5.325  -0.179  10.649 -0.2620  0.8298 -0.9749
   37MOL0     C 4873   5.380  -0.316  10.718 -0.6544 -0.1583  0.6361
   37MOL0     C 4874   5.529  -0.325  10.708 -0.9383 -0.1356 -0.1835
   37MOL0     C 4875   5.593  -0.456  10.761 -0.5676 -0.1495 -0.4913
   37MOL0     C 4876   5.575  -0.561  10.644 -0.0848  0.7207 -0.3351
   37MOL0     N 4877   5.626  -0.688  10.703 -0.5585  1.0467 -0.1030
   37MOL0     C 4878   5.753  -0.717  10.729 -0.6175  0.8355 -0.5957
   37MOL0     C 4879   5.750  -0.844  10.779  0.1461  1.1210  0.5749
   37MOL0     C 4880   5.870  -0.923  10.837 -0.6945  0.0270 -0.0360
   37MOL0     C 4881   5.927  -0.861  10.963 -0.1194  0.0951 -1.0194
   37MOL0     C 4882   5.835  -0.873  11.082 -0.5528 -0.0937  0.9152
   37MOL0     C 4883   5.836  -0.745  11.160 -0.2183  0.4520 -0.2916
   37MOL0     O 4884   5.754  -0.641  11.099 -0.2701  0.7011  0.1356
   37MOL0     C 4885   5.733  -0.531  11.174  0.3635  0.0928  0.4737
   37MOL0     C 4886   5.761  -0.520  11.316  0.8135  0.2532 -0.4237
   37MOL0     C 4887   5.738  -0.400  11.382 -0.6713 -0.4405 -0.5141
   37MOL0     C 4888   5.767  -0.405  11.531  0.1620  0.1155 -0.0078
   37MOL0     C 4889   5.690  -0.288  11.313 -0.3618  0.8028  0.1865
   37MOL0     C 4890   5.683  -0.151  11.376  1.2963 -0.5330 -0.5650
   37MOL0     O 4891   5.752  -0.119  11.482 -0.1807 -0.6423 -0.4069
   37MOL0     C 4892   5.740   0.013  11.533 -0.1011  1.2311  0.7769
   37MOL0     C 4893   5.773   0.125  11.465  0.0517 -1.0718 -1.1331
   37MOL0     C 4894   5.738   0.241  11.525 -0.7608  0.3474  0.6168
   37MOL0     C 4895   5.693   0.250  11.658  0.6008 -0.0415  0.1606
   37MOL0     O 4896   5.657   0.377  11.701 -0.2380 -0.0490  0.5278
   37MOL0     C 4897   5.560   0.411  11.811  0.2189  1.2565  0.3519
   37MOL0     C 4898   5.564   0.554  11.854 -1.1935 -0.5050  0.2164
   37MOL0     C 4899   5.457   0.591  11.956  0.7292 -0.3970 -0.5352
   37MOL0     C 4900   5.446   0.744  11.981 -0.5538 -0.2574 -1.1681
   37MOL0     C 4901   5.339   0.780  12.083  0.9792  0.6503  0.8060
   37MOL0     C 4902   5.369   0.917  12.130  0.1085 -0.9622 -0.0991
   37MOL0     C 4903   5.273   0.961  12.244 -0.6968  0.8434  0.1131
   37MOL0     C 4904   5.308   1.093  12.293 -0.2152 -0.2893 -0.0298
   37MOL0    Cl 4905   5.193   1.120  12.421 -0.2281 -0.3737  0.3676
   37MOL0     C 4906   5.680   0.132  11.722  0.5708  0.9491  0.1167
   37MOL0     C 4907   5.702   0.015  11.660  0.7822  0.0701 -0.7262
   37MOL0     O 4908   5.599  -0.079  11.319 -0.1210 -0.0749 -0.1196
   37MOL0     C 4909   5.659  -0.300  11.180 -0.5736 -0.9750 -0.3576
   37MOL0     C 4910   5.689  -0.415  11.112  0.6666  0.7003  0.5245
   37MOL0     N 4911   5.618  -0.895  10.768 -0.1784  0.2432 -0.0818
   37MOL0     N 4912   5.551  -0.785  10.749  1.2288 -0.0566 -0.1824
   37MOL0     C 4913   5.381   0.340  10.749  0.0287 -0.4908  0.3673
   37MOL0     C 4914   5.444   0.467  10.740  0.2574  0.1956  0.4034
   37MOL0     C 4915   5.606   0.879  10.756  0.0162  0.2984 -0.5397
   37MOL0     C 4916   5.612   0.985  10.667  1.1428 -0.2878 -0.4525
   37MOL0     C 4917   5.713   1.081  10.684  0.3996  0.1895  0.0524
   37MOL0     C 4918   5.801   1.084  10.790 -0.5602  0.2965 -0.6037
   37MOL0     O 4919   5.889   1.182  10.826  0.0693 -1.0330 -0.6560
   37MOL0     C 4920   5.883   1.297  10.746 -0.5757  0.1276  0.1338
   37MOL0     C 4921   5.934   1.408  10.839 -0.4955 -0.3403 -0.5153
   37MOL0     C 4922   6.067   1.374  10.904  0.1333 -0.5709  0.0858
   37MOL0     C 4923   6.114   1.483  11.003  0.8219 -0.2686  0.1483
   37MOL0     C 4924   6.256   1.465  11.051  0.6100  0.1349 -0.2214
   37MOL0     C 4925   6.362   1.481  11.091 -0.0069 -0.8505  0.3058
   37MOL0     C 4926   5.805   0.971  10.866 -0.2904  0.5052  0.2702
   37MOL0     C 4927   5.707   0.867  10.856 -0.1129 -0.0242  0.9809
   37MOL0     H 4928   5.359   0.592  11.040  0.3548  1.8981 -2.0200
   37MOL0     H 4929   5.258   0.356  11.058  1.1551  1.6558  1.5645
   37MOL0     H 4930   5.456   0.116  10.894  0.3152 -1.0339  1.2440
   37MOL0     H 4931   5.339   0.083  11.032 -0.6059  1.0219  0.3277
   37MOL0     H 4932   5.336  -0.123  10.923  0.9433  1.0089  1.1693
   37MOL0     H 4933   5.199  -0.032  10.851 -0.1407 -2.2754  0.4204
   37MOL0     H 4934   5.346   0.035  10.667  1.2165 -0.7241 -1.4653
   37MOL0     H 4935   5.485  -0.061  10.728  1.1700 -1.2256  2.1409
   37MOL0     H 4936   5.217  -0.194  10.645 -0.1102 -0.6540 -0.2754
   37MOL0     H 4937   5.363  -0.159  10.548  1.0237 -3.6896 -1.6028
   37MOL0     H 4938   5.360  -0.304  10.824  0.5867  2.8732  0.6146
   37MOL0     H 4939   5.336  -0.407  10.676 -0.7619 -0.6985  1.8967
   37MOL0     H 4940   5.560  -0.295  10.607 -1.1414 -0.1355 -0.2465
   37MOL0     H 4941   5.568  -0.245  10.773  0.9913 -0.7519 -0.5237
   37MOL0     H 4942   5.700  -0.447  10.782 -0.5325 -0.0263 -0.7221
   37MOL0     H 4943   5.545  -0.485  10.855 -0.4940  2.0616  0.2873
   37MOL0     H 4944   5.627  -0.540  10.550 -0.0660  0.4157 -0.3912
   37MOL0     H 4945   5.470  -0.576  10.617 -0.5770  2.9272  0.1313
   37MOL0     H 4946   5.840  -0.653  10.729 -0.3024  0.7152  3.5956
   37MOL0     H 4947   5.842  -1.027  10.859 -3.2403  0.1843 -2.0222
   37MOL0     H 4948   5.939  -0.915  10.752 -1.9134  2.9779 -0.8552
   37MOL0     H 4949   5.939  -0.754  10.942 -2.1771  0.5244 -0.2381
   37MOL0     H 4950   6.023  -0.908  10.988  0.4936  0.3008 -2.8527
   37MOL0     H 4951   5.859  -0.955  11.151 -0.4816 -1.3569 -0.5741
   37MOL0     H 4952   5.733  -0.888  11.046  1.0442 -0.5226 -4.1093
   37MOL0     H 4953   5.934  -0.721  11.202 -0.6019  0.6671  0.4792
   37MOL0     H 4954   5.780  -0.783  11.246 -1.5594 -0.3321 -1.4693
   37MOL0     H 4955   5.793  -0.609  11.368  1.5436  2.4531  3.2843
   37MOL0     H 4956   5.870  -0.369  11.539 -0.1972  1.6093 -1.5567
   37MOL0     H 4957   5.690  -0.345  11.581  0.2117  1.0460 -0.9923
   37MOL0     H 4958   5.763  -0.506  11.571  3.5424 -0.0996  0.0849
   37MOL0     H 4959   5.808   0.119  11.362 -1.1010 -1.2831 -1.5255
   37MOL0     H 4960   5.765   0.325  11.463  1.6000 -0.3381  0.6202
   37MOL0     H 4961   5.458   0.399  11.773  0.3618  2.8292 -0.6116
   37MOL0     H 4962   5.572   0.346  11.898  2.2315 -1.2874 -1.6586
   37MOL0     H 4963   5.663   0.569  11.899 -1.1475 -0.6395  0.1623
   37MOL0     H 4964   5.561   0.622  11.768  0.7367 -0.3099  0.2712
   37MOL0     H 4965   5.480   0.538  12.049  2.7497 -0.7041 -1.1529
   37MOL0     H 4966   5.362   0.548  11.922 -0.2280  0.9557  0.3359
   37MOL0     H 4967   5.542   0.779  12.018  0.0689 -2.6318 -0.3303
   37MOL0     H 4968   5.426   0.794  11.886 -0.3522  3.7896  0.7172
   37MOL0     H 4969   5.341   0.705  12.163 -1.3412  1.3785  1.6296
   37MOL0     H 4970   5.240   0.778  12.036  1.2340  0.9693  0.2582
   37MOL0     H 4971   5.469   0.933  12.173  0.0038  0.8101 -0.4632
   37MOL0     H 4972   5.355   0.985  12.046  1.7347  0.9770  1.1191
   37MOL0     H 4973   5.276   0.897  12.332  1.7982  1.1826  0.3532
   37MOL0     H 4974   5.170   0.962  12.208 -1.1325 -1.8310  1.1133
   37MOL0     H 4975   5.296   1.166  12.213  1.8977 -1.3483 -1.4038
   37MOL0     H 4976   5.406   1.103  12.340 -0.0055  4.8626 -0.9879
   37MOL0     H 4977   5.652   0.135  11.826  0.4185  1.2425  0.0657
   37MOL0     H 4978   5.709  -0.074  11.721  0.2831 -1.1449 -2.3653
   37MOL0     H 4979   5.624  -0.211  11.129  0.2998 -1.5823 -2.1369
   37MOL0     H 4980   5.671  -0.415  11.005 -3.8905  2.2438  1.0649
   37MOL0     H 4981   5.374   0.275  10.662  3.7193 -2.6778  1.4414
   37MOL0     H 4982   5.498   0.475  10.646 -1.7179 -3.1447 -1.2052
   37MOL0     H 4983   5.537   0.995  10.589 -1.1642  2.8306  1.8633
   37MOL0     H 4984   5.721   1.158  10.608  1.6297  0.3179  0.2922
   37MOL0     H 4985   5.938   1.301  10.652 -0.9921  3.1685 -0.1033
   37MOL0     H 4986   5.778   1.321  10.727 -1.2923 -2.1864  0.8654
   37MOL0     H 4987   5.866   1.433  10.921  2.3128  0.4063  1.7224
   37MOL0     H 4988   5.949   1.501  10.783 -0.5224 -0.0863 -0.1045
   37MOL0     H 4989   6.147   1.375  10.830  0.2821  2.7567  0.1719
   37MOL0     H 4990   6.072   1.269  10.936 -1.0340 -0.4685  0.6833
   37MOL0     H 4991   6.044   1.485  11.087 -0.2530 -0.6700 -0.7014
   37MOL0     H 4992   6.116   1.584  10.961  0.1016 -0.9589 -1.6388
   37MOL0     H 4993   6.463   1.498  11.124 -0.4651  0.4017  1.1374
   37MOL0     H 4994   5.886   0.957  10.937  0.3943  1.2010 -0.3577
   37MOL0     H 4995   5.706   0.791  10.933  0.9801  1.8360  2.9627
   38MOL0     O 4996   4.809   6.809  11.388  0.3806 -0.5869 -0.7216
   38MOL0     C 4997   4.717   6.730  11.366 -0.4613  0.1378  1.0854
   38MOL0     O 4998   4.595   6.760  11.319  0.4565  0.4985  0.0127
   38MOL0     C 4999   4.564   6.886  11.294  0.7486 -0.0895  0.3043
   38MOL0     C 5000   4.559   6.965  11.408 -0.0789 -0.3187  1.1674
   38MOL0     C 5001   4.551   7.101  11.384 -0.2227  0.6567 -0.4730
   38MOL0     C 5002   4.529   7.162  11.257  0.5860  0.2757 -0.7722
   38MOL0     O 5003   4.509   7.306  11.242  0.0109  0.3483  0.2801
   38MOL0     C 5004   4.483   7.394  11.347  0.2302 -0.4678 -1.2293
   38MOL0     C 5005   4.328   7.385  11.390 -0.0966 -0.8310 -0.1796
   38MOL0     C 5006   4.236   7.462  11.289 -1.0235 -0.2653  0.1826
   38MOL0     C 5007   4.093   7.476  11.339 -0.2022 -0.3204  0.6731
   38MOL0     C 5008   4.008   7.585  11.271 -0.0519 -0.6271  1.0291
   38MOL0     C 5009   4.048   7.742  11.281  0.5734  0.2446 -0.9145
   38MOL0     C 5010   3.941   7.840  11.226  0.9366  0.3467 -0.1939
   38MOL0     C 5011   3.969   7.988  11.237  0.3710  0.4233 -0.7892
   38MOL0     N 5012   4.083   8.017  11.142  0.7593  0.0533 -0.3940
   38MOL0     C 5013   4.222   8.020  11.167  0.5624 -0.7619  0.7827
   38MOL0     C 5014   4.275   8.051  11.053  0.0035  0.6034  0.4898
   38MOL0     C 5015   4.420   8.051  11.034  0.0229  0.2256  0.6140
   38MOL0     C 5016   4.495   8.179  11.072  0.2217  0.4726 -0.5994
   38MOL0     C 5017   4.641   8.183  11.028 -0.1618  0.5458  0.5820
   38MOL0     C 5018   4.732   8.061  11.084  0.6733  0.0383  1.2467
   38MOL0     O 5019   4.691   7.932  11.038 -0.4274  0.3209 -0.1911
   38MOL0     C 5020   4.758   7.827  11.097 -0.6723  0.2238 -0.2479
   38MOL0     C 5021   4.902   7.833  11.120  0.6071 -0.2246 -0.5931
   38MOL0     C 5022   4.976   7.746  11.192 -0.1205 -0.4014  1.0879
   38MOL0     C 5023   5.119   7.781  11.217 -0.6648  0.0394  0.3234
   38MOL0     C 5024   4.915   7.619  11.214 -0.3755  1.1482 -0.3912
   38MOL0     C 5025   4.988   7.503  11.275  0.1897 -0.2843  0.6261
   38MOL0     O 5026   4.918   7.439  11.369  0.1764  0.8144 -0.1646
   38MOL0     C 5027   4.960   7.318  11.428  0.2205 -0.3504  0.7032
   38MOL0     C 5028   5.077   7.314  11.503  0.1152  0.7386  0.3838
   38MOL0     C 5029   5.104   7.191  11.565  0.8068  0.3635  0.4053
   38MOL0     C 5030   5.002   7.090  11.565  0.2959  1.1904 -0.1860
   38MOL0     O 5031   5.033   6.959  11.615  0.1595  0.1099  0.3286
   38MOL0     C 5032   5.095   6.870  11.518  0.5195  0.2984  0.9637
   38MOL0     C 5033   5.137   6.742  11.597 -0.1766  0.0484 -0.7224
   38MOL0     C 5034   5.181   6.622  11.512 -0.0604  0.4942 -0.4789
   38MOL0     C 5035   5.314   6.565  11.553  0.0660 -0.0789 -0.0462
   38MOL0     C 5036   5.358   6.453  11.472  0.0518  0.9857 -0.6653
   38MOL0     C 5037   5.498   6.411  11.531 -0.6412  0.3093 -0.5735
   38MOL0     C 5038   5.555   6.280  11.465  0.0320 -0.6068  0.2359
   38MOL0     C 5039   5.702   6.258  11.501  0.5135 -0.4730  0.2632
   38MOL0    Cl 5040   5.752   6.146  11.371 -0.1698  0.8599  0.1325
   38MOL0     C 5041   4.889   7.100  11.496  0.2519 -0.0327  0.0345
   38MOL0     C 5042   4.868   7.212  11.429  0.8597 -0.6260  0.2234
   38MOL0     O 5043   5.101   7.477  11.234  0.9113  0.0752 -0.3493
   38MOL0     C 5044   4.778   7.606  11.176 -0.6547  0.0778 -0.9892
   38MOL0     C 5045   4.699   7.699  11.114  0.0900 -0.5450 -0.6616
   38MOL0     N 5046   4.182   8.087  10.960  0.1720 -0.1148  0.1882
   38MOL0     N 5047   4.065   8.074  11.018  0.2760 -0.0286  0.1601
   38MOL0     C 5048   4.524   7.076  11.155  0.1661  0.3649  0.5627
   38MOL0     C 5049   4.548   6.940  11.167  1.2620  0.1423 -0.9393
   38MOL0     C 5050   4.764   6.584  11.345  0.5032 -0.5486  0.1829
   38MOL0     C 5051   4.903   6.549  11.326 -0.7121  0.3062 -1.0360
   38MOL0     C 5052   4.948   6.423  11.300  0.6894  0.6559 -1.0629
   38MOL0     C 5053   4.849   6.315  11.296  0.2607 -0.3417  0.2534
   38MOL0     O 5054   4.874   6.189  11.252 -0.3241  0.3403  0.0606
   38MOL0     C 5055   5.003   6.157  11.203  0.4527 -0.5143 -0.0380
   38MOL0     C 5056   5.092   6.127  11.323  0.1478 -0.3405  0.2188
   38MOL0     C 5057   5.228   6.077  11.280 -1.0186 -0.3064 -0.7638
   38MOL0     C 5058   5.292   5.996  11.399 -1.1280 -0.9155 -0.2349
   38MOL0     C 5059   5.419   5.927  11.365  0.5661 -0.8808  0.6038
   38MOL0     C 5060   5.522   5.859  11.342  0.2681 -0.6494 -0.0452
   38MOL0     C 5061   4.713   6.349  11.325 -0.0026  0.6929  0.1009
   38MOL0     C 5062   4.679   6.480  11.350 -0.1119 -0.0922  0.0467
   38MOL0     H 5063   4.598   6.923  11.500  0.7905  1.7066  1.7607
   38MOL0     H 5064   4.564   7.157  11.476 -3.2635  0.0791  0.4092
   38MOL0     H 5065   4.557   7.383  11.427 -0.7918  0.3250 -0.1397
   38MOL0     H 5066   4.491   7.494  11.304 -2.7123  0.3214 -0.1995
   38MOL0     H 5067   4.293   7.282  11.389 -1.4337 -0.4068 -1.8407
   38MOL0     H 5068   4.319   7.433  11.488  1.2320  0.8063 -0.7916
   38MOL0     H 5069   4.273   7.564  11.272 -1.6411 -0.4220 -2.5588
   38MOL0     H 5070   4.236   7.401  11.199 -1.5628  2.4289 -1.7713
   38MOL0     H 5071   4.035   7.383  11.342  0.3535 -0.6716  0.7174
   38MOL0     H 5072   4.093   7.511  11.443  1.7331  3.5067 -0.4071
   38MOL0     H 5073   3.999   7.573  11.163  2.4076  1.9247  0.4413
   38MOL0     H 5074   3.908   7.572  11.314 -2.2408  2.9856 -2.2813
   38MOL0     H 5075   4.085   7.782  11.376  1.1334  3.0339 -2.2021
   38MOL0     H 5076   4.135   7.752  11.215  3.4364  2.6207  2.7850
   38MOL0     H 5077   3.909   7.823  11.123 -0.6738 -1.2006  0.4983
   38MOL0     H 5078   3.851   7.806  11.279  0.3046  1.0285 -0.7995
   38MOL0     H 5079   4.015   8.027  11.328  0.8369  0.8482 -1.1977
   38MOL0     H 5080   3.876   8.043  11.227  1.3209  2.3090  0.2899
   38MOL0     H 5081   4.263   8.005  11.266 -0.9825 -0.1267  1.5568
   38MOL0     H 5082   4.455   7.973  11.102 -3.7661 -0.6214  1.8120
   38MOL0     H 5083   4.448   8.021  10.933  2.1277 -0.4197  1.3363
   38MOL0     H 5084   4.483   8.195  11.180  1.3847  2.4416 -0.7202
   38MOL0     H 5085   4.449   8.263  11.020 -2.0598  0.3381  1.0436
   38MOL0     H 5086   4.690   8.278  11.052  2.0160  0.0827 -1.6945
   38MOL0     H 5087   4.639   8.197  10.920 -3.4647  3.0700  0.8050
   38MOL0     H 5088   4.731   8.054  11.193 -0.0556 -1.2813  1.1704
   38MOL0     H 5089   4.835   8.072  11.047 -0.3693  2.5747 -1.2748
   38MOL0     H 5090   4.957   7.924  11.098  1.7995 -0.3417  1.5949
   38MOL0     H 5091   5.169   7.766  11.121 -3.2229 -0.7276 -0.9750
   38MOL0     H 5092   5.124   7.886  11.248 -0.0227 -0.0069  0.3951
   38MOL0     H 5093   5.171   7.727  11.296 -0.4925 -0.3574 -0.0638
   38MOL0     H 5094   5.143   7.400  11.498 -0.5776  1.3112  0.9249
   38MOL0     H 5095   5.183   7.178  11.639  0.4852  1.9683  1.0706
   38MOL0     H 5096   5.020   6.846  11.442 -0.6771 -0.4707  2.3264
   38MOL0     H 5097   5.187   6.909  11.475  0.4321 -1.1663 -0.6800
   38MOL0     H 5098   5.210   6.767  11.674 -2.3491 -1.5480  2.0583
   38MOL0     H 5099   5.054   6.704  11.658 -0.2096 -0.2757 -0.9636
   38MOL0     H 5100   5.189   6.661  11.410 -1.4368  1.4561 -0.2571
   38MOL0     H 5101   5.095   6.554  11.514 -0.8168  1.4061 -0.9267
   38MOL0     H 5102   5.399   6.632  11.566 -1.9879  2.5540  0.7476
   38MOL0     H 5103   5.297   6.520  11.652  0.5885 -1.8157 -0.7093
   38MOL0     H 5104   5.357   6.487  11.368 -3.9884 -0.9339 -1.4345
   38MOL0     H 5105   5.290   6.369  11.487  2.9813 -1.3813  0.3880
   38MOL0     H 5106   5.575   6.488  11.537 -0.4978  0.0674  1.1179
   38MOL0     H 5107   5.478   6.381  11.634 -1.5860 -3.8541 -1.7795
   38MOL0     H 5108   5.537   6.293  11.358 -1.8507  1.4696  0.7435
   38MOL0     H 5109   5.489   6.201  11.501  0.4481 -0.8162  0.5509
   38MOL0     H 5110   5.706   6.221  11.604 -0.7944  1.1400  0.9345
   38MOL0     H 5111   5.771   6.343  11.494  1.5356 -1.3806 -1.5328
   38MOL0     H 5112   4.818   7.019  11.490 -0.3041  0.4769 -0.4936
   38MOL0     H 5113   4.774   7.221  11.375  1.4774  2.6568 -0.5289
   38MOL0     H 5114   4.724   7.515  11.200 -1.4350  0.9030  0.5792
   38MOL0     H 5115   4.596   7.678  11.088 -0.3433  0.8968 -0.1972
   38MOL0     H 5116   4.498   7.116  11.058  0.4031 -0.6281  0.0892
   38MOL0     H 5117   4.551   6.893  11.070 -2.8514 -2.2136 -0.1760
   38MOL0     H 5118   4.962   6.640  11.327 -1.4276  0.7924  0.8156
   38MOL0     H 5119   5.052   6.409  11.273  1.1912  1.6124  0.2508
   38MOL0     H 5120   5.004   6.088  11.118  4.4007  0.5354 -1.0406
   38MOL0     H 5121   5.039   6.245  11.149 -1.9099 -0.8616 -2.3974
   38MOL0     H 5122   5.052   6.048  11.388  0.7770 -2.3804 -1.7211
   38MOL0     H 5123   5.098   6.216  11.386 -4.8568 -2.2618  4.1038
   38MOL0     H 5124   5.301   6.154  11.253  0.0682 -1.0892 -0.1224
   38MOL0     H 5125   5.230   6.003  11.198  0.5108  1.6904 -2.6463
   38MOL0     H 5126   5.232   5.914  11.438  2.0082 -4.0470 -1.4335
   38MOL0     H 5127   5.316   6.061  11.484 -3.2961  1.1428 -1.0857
   38MOL0     H 5128   5.614   5.805  11.329 -0.6764 -3.2879  2.7909
   38MOL0     H 5129   4.643   6.267  11.326 -0.7956  1.2401 -2.3931
   38MOL0     H 5130   4.575   6.504  11.374 -0.1569 -1.1039  0.9282
   39MOL0     O 5131   6.243   0.797  11.395 -0.1740  0.3531  0.1115
   39MOL0     C 5132   6.192   0.724  11.475 -0.8300 -0.1237 -0.2544
   39MOL0     O 5133   6.247   0.615  11.527 -0.3361  0.6443  0.9315
   39MOL0     C 5134   6.357   0.576  11.453 -0.0421 -0.8197 -0.3236
   39MOL0     C 5135   6.500   0.615  11.459 -0.5191  0.0089 -0.2524
   39MOL0     C 5136   6.595   0.554  11.375 -0.2424 -0.3748  0.7724
   39MOL0     C 5137   6.555   0.459  11.278 -0.1996  0.2154 -0.3516
   39MOL0     O 5138   6.644   0.403  11.190  0.3035  0.5731 -0.2665
   39MOL0     C 5139   6.717   0.498  11.113  0.6191  0.2096  0.4796
   39MOL0     C 5140   6.791   0.407  11.012  0.8463  0.2770  0.6390
   39MOL0     C 5141   6.700   0.384  10.888 -0.0298 -0.4741  0.3819
   39MOL0     C 5142   6.784   0.341  10.760  0.1856  0.4929  0.3655
   39MOL0     C 5143   6.705   0.387  10.631 -0.9670  0.7221 -0.1528
   39MOL0     C 5144   6.556   0.347  10.608  0.2566  0.4345 -0.8172
   39MOL0     C 5145   6.523   0.193  10.623 -0.3289 -0.3814 -0.3492
   39MOL0     C 5146   6.615   0.104  10.538 -0.6014 -0.2438 -0.8883
   39MOL0     N 5147   6.622   0.129  10.399  1.1323  0.7947  0.5793
   39MOL0     C 5148   6.521   0.157  10.309 -0.5216  0.9589 -0.4491
   39MOL0     C 5149   6.572   0.146  10.182 -0.7804  0.0753 -0.1620
   39MOL0     C 5150   6.494   0.172  10.056  0.6592  0.5722 -0.6112
   39MOL0     C 5151   6.559   0.122   9.931  0.3466  0.4825 -0.7105
   39MOL0     C 5152   6.492   0.176   9.804 -0.2291 -0.3655  0.6928
   39MOL0     C 5153   6.523   0.096   9.681 -0.8905  0.7666 -1.0627
   39MOL0     O 5154   6.403   0.014   9.661  0.3392 -0.0403  0.2096
   39MOL0     C 5155   6.319   0.065   9.558 -0.4824 -0.0808 -0.9894
   39MOL0     C 5156   6.366   0.088   9.426 -0.2043  0.0322  0.6286
   39MOL0     C 5157   6.276   0.128   9.328 -0.0263 -0.2464  0.4128
   39MOL0     C 5158   6.319   0.154   9.183  0.5477  0.3971 -0.1217
   39MOL0     C 5159   6.147   0.181   9.372 -0.0606  0.1685  0.0543
   39MOL0     C 5160   6.037   0.240   9.298 -0.3926  0.8050 -0.0756
   39MOL0     O 5161   5.911   0.224   9.345  0.3063  0.1966 -0.4172
   39MOL0     C 5162   5.807   0.305   9.300 -0.2118  0.5776  0.9003
   39MOL0     C 5163   5.819   0.441   9.335  0.7826 -0.6642 -0.3603
   39MOL0     C 5164   5.713   0.528   9.311 -0.1489 -0.2330 -0.2735
   39MOL0     C 5165   5.591   0.484   9.254  0.3757  0.4587 -0.3938
   39MOL0     O 5166   5.480   0.559   9.267  0.5578  0.0898  0.1990
   39MOL0     C 5167   5.390   0.550   9.155 -0.0804 -0.0666 -0.3102
   39MOL0     C 5168   5.299   0.670   9.163 -0.2174  0.6914 -0.3171
   39MOL0     C 5169   5.219   0.682   9.031  0.0362 -1.2261 -0.4687
   39MOL0     C 5170   5.292   0.783   8.937  0.5266 -0.0615 -0.5500
   39MOL0     C 5171   5.224   0.780   8.799 -0.1274  0.5267  0.8255
   39MOL0     C 5172   5.076   0.825   8.798  0.1976  0.2645  0.1850
   39MOL0     C 5173   5.030   0.836   8.650  0.0869 -0.0586 -0.1636
   39MOL0     C 5174   4.940   0.950   8.638  0.1469  0.5522  0.5222
   39MOL0    Cl 5175   4.791   0.922   8.729  0.2059  0.6715  0.3350
   39MOL0     C 5176   5.586   0.348   9.207  0.3341 -0.9676  0.3135
   39MOL0     C 5177   5.698   0.261   9.231  0.1022 -0.2569 -0.6934
   39MOL0     O 5178   6.073   0.325   9.210 -0.0763 -0.1132  0.0643
   39MOL0     C 5179   6.117   0.174   9.509 -0.8355  0.0337  0.2204
   39MOL0     C 5180   6.200   0.109   9.592  0.6867  0.2338  0.0523
   39MOL0     N 5181   6.709   0.113  10.202  0.2735 -0.3903  0.2983
   39MOL0     N 5182   6.734   0.104  10.324  0.2056  0.5681  0.3117
   39MOL0     C 5183   6.429   0.404  11.289  0.3209 -0.6207 -0.7731
   39MOL0     C 5184   6.326   0.464  11.367 -0.2829  0.4413 -1.4467
   39MOL0     C 5185   6.064   0.782  11.537  0.1888 -0.2230 -0.1812
   39MOL0     C 5186   6.045   0.918  11.545 -0.2132 -0.6516 -0.3763
   39MOL0     C 5187   5.938   0.972  11.624 -0.3238  0.4681  0.2205
   39MOL0     C 5188   5.856   0.884  11.693  0.1546 -0.1625 -0.3073
   39MOL0     O 5189   5.752   0.916  11.781  0.2336 -0.0457  0.0641
   39MOL0     C 5190   5.735   1.055  11.806  0.2203  0.4658  0.3916
   39MOL0     C 5191   5.614   1.065  11.900  0.0814 -0.1480  0.4690
   39MOL0     C 5192   5.584   1.206  11.947 -0.5251  0.3725 -0.4298
   39MOL0     C 5193   5.575   1.303  11.829  0.2513  0.3932  0.5006
   39MOL0     C 5194   5.489   1.417  11.870 -0.5504 -1.1508 -0.6262
   39MOL0     C 5195   5.410   1.497  11.910  0.6426  0.6309 -0.0268
   39MOL0     C 5196   5.879   0.745  11.686 -0.6230 -0.6033  0.1901
   39MOL0     C 5197   5.991   0.698  11.613 -0.2312  0.1657  0.0040
   39MOL0     H 5198   6.531   0.685  11.536  1.4192 -3.3369  2.2505
   39MOL0     H 5199   6.702   0.564  11.386 -0.4514  1.3409  1.6923
   39MOL0     H 5200   6.657   0.575  11.062  2.5080  1.8013  0.5635
   39MOL0     H 5201   6.785   0.555  11.177 -1.3578  0.1654  2.7382
   39MOL0     H 5202   6.869   0.478  10.981 -2.4405  3.7383 -0.5350
   39MOL0     H 5203   6.819   0.310  11.053 -1.1724  0.0330  1.5408
   39MOL0     H 5204   6.624   0.304  10.891  0.1612 -0.6202  1.6607
   39MOL0     H 5205   6.659   0.483  10.864  0.4225 -0.2996  0.3203
   39MOL0     H 5206   6.878   0.396  10.759 -1.0433  2.7134 -0.3953
   39MOL0     H 5207   6.794   0.232  10.759  0.8274  0.5437 -1.4805
   39MOL0     H 5208   6.701   0.497  10.627 -0.0086  0.8651  1.8598
   39MOL0     H 5209   6.767   0.351  10.549 -2.4977  0.1909 -1.1338
   39MOL0     H 5210   6.491   0.401  10.677 -0.2880 -0.0854 -0.9119
   39MOL0     H 5211   6.521   0.381  10.510 -1.3939 -1.0505 -0.7929
   39MOL0     H 5212   6.545   0.149  10.721 -1.0884  0.2578  0.1228
   39MOL0     H 5213   6.415   0.186  10.607 -0.5866  1.3445  0.3284
   39MOL0     H 5214   6.585   0.001  10.557  0.2999 -0.8877 -2.7304
   39MOL0     H 5215   6.719   0.109  10.571 -0.3942 -1.0619 -1.3898
   39MOL0     H 5216   6.419   0.189  10.326 -0.4934  0.6114  0.4083
   39MOL0     H 5217   6.397   0.124  10.072  1.3534 -0.7929 -0.3615
   39MOL0     H 5218   6.456   0.275  10.053 -1.3677 -0.1537 -2.7781
   39MOL0     H 5219   6.548   0.014   9.939 -0.3658  0.7090  3.1458
   39MOL0     H 5220   6.664   0.148   9.922  0.3416  0.4464 -0.8811
   39MOL0     H 5221   6.541   0.273   9.787  2.8306 -1.0564  4.3569
   39MOL0     H 5222   6.384   0.189   9.820  0.1267  2.7053  1.3495
   39MOL0     H 5223   6.610   0.032   9.697  1.3631  3.6905 -0.8682
   39MOL0     H 5224   6.554   0.165   9.602  1.9756 -1.0252 -1.6331
   39MOL0     H 5225   6.464   0.060   9.388  0.2832 -0.0986  1.9426
   39MOL0     H 5226   6.415   0.104   9.168  0.9458  0.2193  2.4442
   39MOL0     H 5227   6.246   0.100   9.122  0.1057  1.2595 -0.3730
   39MOL0     H 5228   6.310   0.257   9.148  2.8419  1.0108  0.9033
   39MOL0     H 5229   5.906   0.483   9.385 -0.7339  3.3190 -0.6656
   39MOL0     H 5230   5.718   0.626   9.358  0.1954 -1.5659  2.6545
   39MOL0     H 5231   5.441   0.547   9.058  0.4875  0.6347 -0.0496
   39MOL0     H 5232   5.327   0.461   9.154  2.0286 -1.6518  0.4366
   39MOL0     H 5233   5.233   0.658   9.249  1.2319  2.6054  1.1328
   39MOL0     H 5234   5.362   0.759   9.172 -2.7327  2.8072 -2.1695
   39MOL0     H 5235   5.116   0.711   9.051  0.3056 -1.5423  1.5814
   39MOL0     H 5236   5.206   0.582   8.987 -2.9623 -2.0642  2.0245
   39MOL0     H 5237   5.290   0.889   8.967 -1.7382  0.3728 -2.0235
   39MOL0     H 5238   5.392   0.740   8.933 -0.3638 -2.1440 -2.0397
   39MOL0     H 5239   5.229   0.677   8.762 -0.5864  0.8807 -0.2493
   39MOL0     H 5240   5.286   0.842   8.734 -1.3308  2.4662  1.4772
   39MOL0     H 5241   5.028   0.750   8.861  0.6551 -0.8080 -0.7114
   39MOL0     H 5242   5.064   0.918   8.854 -0.6958 -0.9018  2.0294
   39MOL0     H 5243   4.978   0.745   8.618  1.3850 -1.3461  1.1889
   39MOL0     H 5244   5.112   0.860   8.582  0.4762 -1.0239 -0.0447
   39MOL0     H 5245   4.917   0.963   8.532  2.3754 -1.1651 -0.2366
   39MOL0     H 5246   4.986   1.044   8.671  0.6718 -0.0461  1.5417
   39MOL0     H 5247   5.496   0.311   9.158  1.2737 -1.8838 -0.7817
   39MOL0     H 5248   5.699   0.154   9.209  1.2272 -0.8026  1.6986
   39MOL0     H 5249   6.030   0.219   9.554 -0.5250  1.4437 -0.5058
   39MOL0     H 5250   6.173   0.108   9.697  3.2382  0.6696  0.7866
   39MOL0     H 5251   6.399   0.318  11.229 -2.7967 -2.5852  3.1133
   39MOL0     H 5252   6.221   0.437  11.370 -0.1444 -0.0656 -0.9432
   39MOL0     H 5253   6.128   0.971  11.498  1.0166 -2.6818 -0.6371
   39MOL0     H 5254   5.917   1.077  11.642  1.2677  0.8007  0.2485
   39MOL0     H 5255   5.824   1.105  11.845  0.2275 -0.0834  1.1090
   39MOL0     H 5256   5.713   1.089  11.705  0.6454 -0.0693  0.1110
   39MOL0     H 5257   5.617   0.993  11.983 -1.0684 -3.0088 -1.8047
   39MOL0     H 5258   5.529   1.032  11.840 -0.6959  0.4481  1.2228
   39MOL0     H 5259   5.661   1.236  12.020 -0.5780 -1.6860  0.5286
   39MOL0     H 5260   5.488   1.189  11.996 -2.2077  0.9073 -3.3285
   39MOL0     H 5261   5.537   1.259  11.736  0.5212  0.8441  0.1701
   39MOL0     H 5262   5.676   1.339  11.808  1.0602 -0.7335  2.1911
   39MOL0     H 5263   5.339   1.566  11.951  0.1548  0.4500 -0.5497
   39MOL0     H 5264   5.815   0.669  11.731 -0.1518 -0.6247  0.8233
   39MOL0     H 5265   6.016   0.594  11.593  3.3156  1.1529 -1.4226
   40MOL0     O 5266   3.547   7.950   4.145 -0.5870 -0.3950  0.1741
   40MOL0     C 5267   3.568   8.055   4.082  0.8083 -1.0640  0.5622
   40MOL0     O 5268   3.686   8.114   4.049 -0.4719  0.2642 -0.4437
   40MOL0     C 5269   3.800   8.028   4.052 -0.0157  0.1761  0.1062
   40MOL0     C 5270   3.804   7.897   3.999  0.9837  0.4123 -1.0488
   40MOL0     C 5271   3.920   7.816   4.015  0.0426 -0.0470 -0.4666
   40MOL0     C 5272   4.042   7.880   4.064 -0.4463  0.3358 -0.9977
   40MOL0     O 5273   4.161   7.805   4.069  0.4644  0.1762  0.0653
   40MOL0     C 5274   4.171   7.694   4.159  0.3337  0.1222  0.1526
   40MOL0     C 5275   4.237   7.743   4.290  0.1561 -0.0870  0.1640
   40MOL0     C 5276   4.295   7.636   4.385  0.2746  0.8772  0.0685
   40MOL0     C 5277   4.378   7.706   4.500  0.0051  0.0559  0.2446
   40MOL0     C 5278   4.457   7.601   4.567 -0.6761  0.7035 -1.2848
   40MOL0     C 5279   4.509   7.616   4.711  0.8917 -0.0891  0.1045
   40MOL0     C 5280   4.565   7.492   4.771  0.5752  0.2699 -0.5644
   40MOL0     C 5281   4.699   7.457   4.723  0.4152  0.7407  0.2038
   40MOL0     N 5282   4.723   7.319   4.785 -0.2439 -0.6082  0.1627
   40MOL0     C 5283   4.666   7.193   4.747  0.8595 -0.5357 -0.0585
   40MOL0     C 5284   4.720   7.101   4.827  0.3704 -0.1390  0.1708
   40MOL0     C 5285   4.675   6.960   4.839 -0.0974  0.7336  0.1213
   40MOL0     C 5286   4.522   6.959   4.865  0.2611  0.3139  0.4875
   40MOL0     C 5287   4.468   6.819   4.847  0.0613  0.0273 -0.9996
   40MOL0     C 5288   4.336   6.811   4.909  0.7332 -0.1270 -0.0878
   40MOL0     O 5289   4.269   6.691   4.869  0.4464  0.2232 -0.7406
   40MOL0     C 5290   4.156   6.665   4.929  0.3577  0.3339 -0.4793
   40MOL0     C 5291   4.101   6.548   4.895 -0.5163  0.7551  0.1237
   40MOL0     C 5292   3.984   6.494   4.948  0.6328  0.4523  0.7528
   40MOL0     C 5293   3.933   6.357   4.898 -0.6107  0.0729  0.4556
   40MOL0     C 5294   3.922   6.578   5.044  0.3626  0.4032  0.2996
   40MOL0     C 5295   3.789   6.531   5.105 -0.8766 -0.5839  1.1395
   40MOL0     O 5296   3.694   6.625   5.116  0.5469 -0.4828  0.3849
   40MOL0     C 5297   3.563   6.579   5.143  0.4853 -0.6696  0.3848
   40MOL0     C 5298   3.489   6.640   5.248 -0.5961 -0.3887 -0.4310
   40MOL0     C 5299   3.369   6.575   5.291 -0.0264  0.1726 -0.9561
   40MOL0     C 5300   3.316   6.470   5.213 -0.1158  0.3761 -0.4572
   40MOL0     O 5301   3.208   6.401   5.265  0.6277  0.6267  0.1634
   40MOL0     C 5302   3.082   6.398   5.195  0.2834  0.4441 -0.0045
   40MOL0     C 5303   3.003   6.271   5.239 -0.7469  0.6025  0.2790
   40MOL0     C 5304   2.866   6.276   5.167 -0.4278  0.0422 -0.2848
   40MOL0     C 5305   2.771   6.177   5.237 -0.0122 -0.9436  0.6401
   40MOL0     C 5306   2.654   6.145   5.136  0.2289  0.1688 -1.1718
   40MOL0     C 5307   2.568   6.036   5.205 -0.4935 -0.1403 -0.3615
   40MOL0     C 5308   2.463   5.978   5.106  0.4790 -0.2952  0.7163
   40MOL0     C 5309   2.445   5.832   5.111 -0.3805 -0.1818 -0.0753
   40MOL0    Cl 5310   2.331   5.779   5.237 -0.0185 -0.3699 -0.5870
   40MOL0     C 5311   3.384   6.426   5.094 -0.4410  1.0389  0.2030
   40MOL0     C 5312   3.509   6.482   5.062 -0.2795 -0.5789  0.0348
   40MOL0     O 5313   3.789   6.414   5.143  0.6606 -0.2645 -0.0854
   40MOL0     C 5314   3.969   6.706   5.081 -0.3047  0.4720 -0.4246
   40MOL0     C 5315   4.086   6.748   5.024 -0.7503 -0.7090  0.7745
   40MOL0     N 5316   4.818   7.165   4.910  0.5678  0.5211  0.7900
   40MOL0     N 5317   4.818   7.295   4.883  0.5155 -0.3723 -0.0047
   40MOL0     C 5318   4.045   8.013   4.100  0.0017  0.2610  0.5489
   40MOL0     C 5319   3.922   8.089   4.096 -0.6135  0.4414  0.1556
   40MOL0     C 5320   3.448   8.125   4.032  0.6049 -0.0026  0.4873
   40MOL0     C 5321   3.448   8.259   4.017  0.6347 -1.2522  0.5265
   40MOL0     C 5322   3.325   8.327   3.966 -0.7293 -0.9006 -0.1508
   40MOL0     C 5323   3.210   8.254   3.942  0.4393 -0.3604  0.5764
   40MOL0     O 5324   3.089   8.307   3.896  0.6692  1.6962  0.5599
   40MOL0     C 5325   3.084   8.411   3.802  0.1740  0.2214  0.5913
   40MOL0     C 5326   3.078   8.346   3.658  0.8333 -0.7584 -0.4695
   40MOL0     C 5327   3.031   8.450   3.555 -0.0100  0.4165 -0.7337
   40MOL0     C 5328   2.986   8.376   3.420  0.1638  0.2743  0.3675
   40MOL0     C 5329   2.954   8.462   3.308  0.7910  0.1779  0.0573
   40MOL0     C 5330   2.920   8.558   3.238 -0.3189  0.1896 -0.2292
   40MOL0     C 5331   3.216   8.111   3.955 -0.1083 -0.2244  0.3027
   40MOL0     C 5332   3.335   8.051   3.991 -0.4345  0.3611  0.5274
   40MOL0     H 5333   3.718   7.853   3.950 -0.7338  0.7132  1.4578
   40MOL0     H 5334   3.930   7.716   3.973 -2.2459 -1.3672  1.8118
   40MOL0     H 5335   4.073   7.647   4.171  0.0284  1.1672  2.0002
   40MOL0     H 5336   4.238   7.611   4.131 -0.9770  0.0761 -3.3203
   40MOL0     H 5337   4.321   7.807   4.261 -2.2763  2.5528 -1.6579
   40MOL0     H 5338   4.159   7.805   4.335 -0.2756 -0.2867 -0.2919
   40MOL0     H 5339   4.217   7.565   4.416 -2.0407  3.0964 -0.3397
   40MOL0     H 5340   4.358   7.583   4.313 -0.5091 -0.8651  0.5936
   40MOL0     H 5341   4.454   7.770   4.455  0.8315 -0.4674  0.8664
   40MOL0     H 5342   4.315   7.762   4.570  1.2429  1.4081  0.3420
   40MOL0     H 5343   4.401   7.507   4.567  2.4115 -1.5801  3.9238
   40MOL0     H 5344   4.547   7.580   4.509 -0.7797 -2.6065 -0.4620
   40MOL0     H 5345   4.583   7.696   4.724  1.4721 -0.8820  1.8637
   40MOL0     H 5346   4.421   7.641   4.771  0.6102 -2.0174  0.5419
   40MOL0     H 5347   4.581   7.493   4.879 -0.6883 -4.7811 -0.0869
   40MOL0     H 5348   4.487   7.418   4.752 -1.0402  1.9392 -0.7837
   40MOL0     H 5349   4.775   7.532   4.744 -1.1799  3.7702 -3.6024
   40MOL0     H 5350   4.696   7.456   4.613 -0.4969 -1.4825  0.1827
   40MOL0     H 5351   4.592   7.181   4.669  0.7475  0.0474 -0.0497
   40MOL0     H 5352   4.697   6.895   4.754 -2.2431 -0.0569  0.1149
   40MOL0     H 5353   4.724   6.909   4.922  1.2644 -0.5237 -1.3896
   40MOL0     H 5354   4.473   7.023   4.791  0.9511  0.5428  0.2292
   40MOL0     H 5355   4.494   6.997   4.964 -0.7983  0.2187  0.2446
   40MOL0     H 5356   4.526   6.740   4.896  0.9128  1.0828 -0.2410
   40MOL0     H 5357   4.460   6.802   4.740  3.0913 -1.1205 -1.1371
   40MOL0     H 5358   4.280   6.904   4.891  2.5691  1.6222  2.5335
   40MOL0     H 5359   4.345   6.802   5.018 -0.1486 -1.7639 -0.1125
   40MOL0     H 5360   4.159   6.489   4.825 -0.4867  3.7629 -2.6284
   40MOL0     H 5361   3.907   6.288   4.978 -0.7781 -1.0403 -0.5346
   40MOL0     H 5362   3.837   6.355   4.844 -0.1985  0.6504 -0.3107
   40MOL0     H 5363   4.012   6.315   4.836 -2.0360 -2.6371  0.3054
   40MOL0     H 5364   3.532   6.724   5.301 -0.4276 -1.2171  0.8041
   40MOL0     H 5365   3.327   6.604   5.387 -3.6843 -3.3913 -1.2057
   40MOL0     H 5366   3.029   6.487   5.228  3.9059  2.8010  0.0872
   40MOL0     H 5367   3.089   6.392   5.086 -1.5472  2.3392 -0.2882
   40MOL0     H 5368   3.064   6.185   5.213  1.1046  1.7196  0.7623
   40MOL0     H 5369   2.977   6.273   5.346 -3.9838  2.1611 -0.4145
   40MOL0     H 5370   2.882   6.248   5.063 -0.7420 -0.5621 -0.1713
   40MOL0     H 5371   2.816   6.373   5.163  0.9236  0.7705  0.0512
   40MOL0     H 5372   2.826   6.084   5.257  0.5676 -0.8002 -0.1989
   40MOL0     H 5373   2.726   6.208   5.331  1.5139 -2.3148  1.8833
   40MOL0     H 5374   2.699   6.105   5.044  3.5693 -1.1464  0.8549
   40MOL0     H 5375   2.605   6.239   5.108  1.2062  1.7451  1.9433
   40MOL0     H 5376   2.628   5.958   5.252 -1.0538  0.1018  0.7757
   40MOL0     H 5377   2.496   6.078   5.275 -2.7324 -0.6249 -2.2497
   40MOL0     H 5378   2.500   6.004   5.006  1.3866  0.4003  1.2136
   40MOL0     H 5379   2.364   6.019   5.128 -0.0821 -0.6819 -0.9894
   40MOL0     H 5380   2.542   5.782   5.116  1.0780  2.3695 -0.8411
   40MOL0     H 5381   2.403   5.812   5.012  2.4907  2.0820 -1.9152
   40MOL0     H 5382   3.332   6.356   5.029  0.3383 -0.5520  1.2356
   40MOL0     H 5383   3.566   6.445   4.977 -0.6321  0.8885 -0.8817
   40MOL0     H 5384   3.932   6.764   5.165  0.0330  0.9031 -0.5690
   40MOL0     H 5385   4.135   6.843   5.041  0.0432 -1.0206  0.2974
   40MOL0     H 5386   4.143   8.041   4.136  0.4515 -1.5193  0.8060
   40MOL0     H 5387   3.927   8.193   4.126  1.9742 -0.0984  1.8708
   40MOL0     H 5388   3.536   8.319   4.039 -0.9592  0.4494  2.6790
   40MOL0     H 5389   3.326   8.433   3.945 -5.9804 -0.7053 -0.5734
   40MOL0     H 5390   2.989   8.461   3.824  0.3520  0.5688  0.5850
   40MOL0     H 5391   3.161   8.489   3.807 -0.7576  1.6383 -3.3306
   40MOL0     H 5392   3.011   8.259   3.654 -0.1366 -0.0048 -2.3485
   40MOL0     H 5393   3.183   8.323   3.642  0.1667 -3.9817 -0.8639
   40MOL0     H 5394   3.122   8.505   3.529 -0.3654  0.6989 -1.4100
   40MOL0     H 5395   2.950   8.513   3.593 -1.5481 -0.7407 -1.9338
   40MOL0     H 5396   2.895   8.316   3.434 -0.3321  1.5480  3.2261
   40MOL0     H 5397   3.071   8.314   3.390 -0.7464 -0.3250 -1.0901
   40MOL0     H 5398   2.883   8.640   3.179 -0.3833  0.1136 -0.2945
   40MOL0     H 5399   3.128   8.049   3.940 -0.4614  0.1109  0.9028
   40MOL0     H 5400   3.340   7.943   3.995 -0.3628  0.3923  1.6594
   41MOL0     O 5401  10.409  10.206   0.384 -0.3848 -1.3226  0.3185
   41MOL0     C 5402  10.496  10.136   0.439 -0.2046 -0.2770 -0.5552
   41MOL0     O 5403  10.486  10.094   0.578 -0.2112 -0.2336 -0.1568
   41MOL0     C 5404  10.371  10.102   0.650 -0.2702  0.2553 -0.4742
   41MOL0     C 5405  10.243  10.077   0.585  1.1816  0.9610  0.1093
   41MOL0     C 5406  10.133  10.060   0.669 -0.3644 -0.0291  0.5621
   41MOL0     C 5407  10.134  10.100   0.803 -0.3445 -1.6576  0.3105
   41MOL0     O 5408  10.018  10.082   0.867 -0.3308 -1.0514 -0.7254
   41MOL0     C 5409   9.975  10.184   0.960  0.0584  0.4106 -0.4638
   41MOL0     C 5410   9.846  10.139   1.024 -0.0252  0.6738  0.7557
   41MOL0     C 5411   9.730  10.127   0.921 -0.1070 -0.6460 -0.2765
   41MOL0     C 5412   9.666   9.990   0.938  0.1736  0.5416  0.2351
   41MOL0     C 5413   9.753   9.859   0.917  0.4366 -0.6609  0.3910
   41MOL0     C 5414   9.667   9.746   0.875 -1.2373  0.4329 -0.8065
   41MOL0     C 5415   9.613   9.672   1.003  0.4708  0.2383  0.5547
   41MOL0     C 5416   9.469   9.646   0.978 -0.5180  0.1402 -0.2613
   41MOL0     N 5417   9.377   9.749   1.036 -0.7012 -0.5423 -0.6184
   41MOL0     C 5418   9.348   9.863   0.976  0.5290 -0.4547 -0.1729
   41MOL0     C 5419   9.271   9.929   1.062  0.8634 -0.8245 -0.0202
   41MOL0     C 5420   9.190  10.060   1.034  1.0648  0.6532  0.0170
   41MOL0     C 5421   9.200  10.155   1.152 -0.3343 -0.5143  0.6532
   41MOL0     C 5422   9.182  10.317   1.121 -0.1230  0.2895  0.9402
   41MOL0     C 5423   9.163  10.399   1.247 -0.4004  0.4629 -0.2019
   41MOL0     O 5424   9.113  10.522   1.218  0.0260 -0.7879  0.0390
   41MOL0     C 5425   8.970  10.541   1.209  0.0302  0.7300 -0.2795
   41MOL0     C 5426   8.860  10.447   1.229 -0.4731 -0.6324  0.4587
   41MOL0     C 5427   8.728  10.497   1.248 -0.4658  0.1297 -0.4509
   41MOL0     C 5428   8.628  10.401   1.318  0.1367 -0.4707  0.4614
   41MOL0     C 5429   8.686  10.634   1.205 -0.1811  1.3673  0.4530
   41MOL0     C 5430   8.544  10.696   1.217 -0.2792  0.3183  0.7440
   41MOL0     O 5431   8.531  10.826   1.187  0.2143 -0.7186  0.3464
   41MOL0     C 5432   8.402  10.872   1.169  0.7984 -1.0602  0.6872
   41MOL0     C 5433   8.352  10.949   1.273  0.4504  0.0951 -0.5495
   41MOL0     C 5434   8.223  10.994   1.264 -0.5134 -0.8308  0.5443
   41MOL0     C 5435   8.136  10.975   1.153  0.3693 -0.4589  1.0241
   41MOL0     O 5436   8.008  11.025   1.156  0.2109 -0.0976 -0.2898
   41MOL0     C 5437   7.903  10.986   1.069  0.2289  0.8536  0.5626
   41MOL0     C 5438   7.773  11.004   1.136 -0.3139  0.6086 -0.4693
   41MOL0     C 5439   7.749  10.896   1.242 -0.8133 -0.5343  0.2423
   41MOL0     C 5440   7.608  10.894   1.273  0.1922  0.6848 -0.2176
   41MOL0     C 5441   7.539  11.022   1.331 -0.4902 -0.4567 -0.7774
   41MOL0     C 5442   7.403  10.990   1.397 -0.4289 -0.2849 -0.1635
   41MOL0     C 5443   7.292  10.928   1.303  0.5269  0.3135 -0.3033
   41MOL0     C 5444   7.253  11.028   1.194 -0.6769 -0.7757  0.2337
   41MOL0    Cl 5445   7.134  10.950   1.090 -0.2612  0.4226  0.3132
   41MOL0     C 5446   8.196  10.916   1.040 -0.5378  0.0048 -0.0349
   41MOL0     C 5447   8.321  10.865   1.046 -0.5751  0.4119  0.3355
   41MOL0     O 5448   8.453  10.623   1.251  0.3267  1.0032 -0.1844
   41MOL0     C 5449   8.795  10.709   1.160  1.4060 -0.0989  0.0881
   41MOL0     C 5450   8.923  10.671   1.174 -1.1195 -0.2381  1.1203
   41MOL0     N 5451   9.270   9.852   1.182 -0.5534  1.1177 -0.4195
   41MOL0     N 5452   9.333   9.743   1.164 -0.0064  0.0173 -0.5664
   41MOL0     C 5453  10.250  10.163   0.851 -0.4112 -0.4660  0.0382
   41MOL0     C 5454  10.376  10.144   0.782  0.8909  0.9681  0.2409
   41MOL0     C 5455  10.626  10.109   0.365  0.1100  0.3301 -0.6615
   41MOL0     C 5456  10.723  10.027   0.425 -0.4285 -0.6016 -0.6844
   41MOL0     C 5457  10.837  10.007   0.349  0.5442 -0.4995 -0.5740
   41MOL0     C 5458  10.863  10.073   0.225  0.3168  0.4811  0.0648
   41MOL0     O 5459  10.971  10.044   0.145  0.3158  0.0329 -0.3580
   41MOL0     C 5460  11.105  10.073   0.200  1.3878 -0.0491 -0.3179
   41MOL0     C 5461  11.191   9.941   0.219 -0.2139 -0.9207 -0.0233
   41MOL0     C 5462  11.287   9.915   0.098  0.3213 -0.0517  0.1900
   41MOL0     C 5463  11.311   9.765   0.061 -0.6652 -0.0849 -0.3564
   41MOL0     C 5464  11.452   9.732   0.090  0.5781 -0.0059 -0.2388
   41MOL0     C 5465  11.569   9.727   0.104 -0.1026  0.1048  0.5469
   41MOL0     C 5466  10.764  10.155   0.181  0.4280 -0.0721  0.2843
   41MOL0     C 5467  10.642  10.171   0.245  0.0146 -0.4773 -0.2364
   41MOL0     H 5468  10.232  10.039   0.484  1.9523 -1.8226  0.9904
   41MOL0     H 5469  10.049  10.011   0.623  1.6382 -1.8282 -1.4138
   41MOL0     H 5470  10.050  10.198   1.038  0.9736  0.2965 -1.3065
   41MOL0     H 5471   9.957  10.279   0.908 -0.4429  0.4403 -0.2438
   41MOL0     H 5472   9.862  10.046   1.078 -3.1811 -0.6107 -0.2628
   41MOL0     H 5473   9.816  10.212   1.100 -0.0424  1.7959 -0.2892
   41MOL0     H 5474   9.659  10.209   0.935 -0.5204 -0.8951 -0.8806
   41MOL0     H 5475   9.769  10.154   0.823 -0.6208 -0.2681 -0.3838
   41MOL0     H 5476   9.606   9.982   1.029 -0.1318 -0.3813 -0.0361
   41MOL0     H 5477   9.590   9.981   0.860  0.8353  0.8088 -0.4427
   41MOL0     H 5478   9.828   9.876   0.839  1.9718 -0.2957  1.8706
   41MOL0     H 5479   9.812   9.833   1.006  2.3340 -0.7927 -0.8337
   41MOL0     H 5480   9.585   9.784   0.813 -2.5158  5.1271  3.0824
   41MOL0     H 5481   9.728   9.668   0.829 -1.3485  1.0942 -2.1285
   41MOL0     H 5482   9.659   9.573   0.999 -1.3065 -0.5932 -2.6309
   41MOL0     H 5483   9.633   9.728   1.095 -0.6262  0.6714  0.5427
   41MOL0     H 5484   9.449   9.547   1.018  1.0162  0.0975  0.4625
   41MOL0     H 5485   9.459   9.636   0.869  1.1868  1.2877 -0.5721
   41MOL0     H 5486   9.360   9.875   0.869  0.1492  0.9447 -0.0844
   41MOL0     H 5487   9.220  10.109   0.941 -1.9274 -1.0032 -2.0081
   41MOL0     H 5488   9.088  10.026   1.013  2.1795 -0.0463 -5.8163
   41MOL0     H 5489   9.299  10.146   1.198 -0.8891  1.2433  2.3108
   41MOL0     H 5490   9.130  10.133   1.233  2.2433 -2.8674  2.4581
   41MOL0     H 5491   9.098  10.333   1.053 -0.1065  0.3494  0.9341
   41MOL0     H 5492   9.265  10.348   1.057 -0.3816 -1.5384 -0.3378
   41MOL0     H 5493   9.258  10.399   1.301  0.2078 -2.3507 -1.0616
   41MOL0     H 5494   9.105  10.345   1.322 -0.6325  4.4115  2.7450
   41MOL0     H 5495   8.877  10.346   1.263 -3.5963 -0.7360  2.0713
   41MOL0     H 5496   8.588  10.452   1.406 -3.5648  2.7964 -2.6986
   41MOL0     H 5497   8.542  10.390   1.251  0.3873 -3.8743  0.5637
   41MOL0     H 5498   8.684  10.310   1.339  2.2238  0.7232  0.3654
   41MOL0     H 5499   8.404  10.965   1.367 -2.6109  3.0764  0.8833
   41MOL0     H 5500   8.176  11.042   1.349  2.4169  2.7881  0.3528
   41MOL0     H 5501   7.907  11.025   0.967  0.2875 -0.1280  0.1751
   41MOL0     H 5502   7.911  10.880   1.044 -1.7977  0.8760 -0.3081
   41MOL0     H 5503   7.747  11.100   1.181 -0.3804  0.2830  0.2116
   41MOL0     H 5504   7.704  11.003   1.051 -1.3014  0.6390  0.3074
   41MOL0     H 5505   7.809  10.917   1.331 -0.7429 -0.2347  0.1251
   41MOL0     H 5506   7.772  10.795   1.205  2.8316  0.1849  0.2245
   41MOL0     H 5507   7.542  10.870   1.189 -0.7407 -0.9137  0.9290
   41MOL0     H 5508   7.596  10.816   1.348  0.4319 -0.5324 -1.4123
   41MOL0     H 5509   7.515  11.089   1.248 -1.4661 -0.6164 -0.6281
   41MOL0     H 5510   7.606  11.065   1.406 -1.8474 -0.3855  0.4411
   41MOL0     H 5511   7.433  10.916   1.473 -1.9014 -0.9850 -0.2338
   41MOL0     H 5512   7.368  11.085   1.437 -0.8036  1.4373 -4.1441
   41MOL0     H 5513   7.194  10.899   1.343  0.6852 -0.3407 -0.3667
   41MOL0     H 5514   7.327  10.830   1.267 -2.5299 -1.1640  0.3706
   41MOL0     H 5515   7.344  11.055   1.139 -0.5993  1.3177  1.2794
   41MOL0     H 5516   7.222  11.123   1.239  1.2006  1.2917 -2.4582
   41MOL0     H 5517   8.156  10.905   0.940  0.9394 -1.4177 -0.5298
   41MOL0     H 5518   8.377  10.824   0.963 -2.1071  0.2402 -0.6396
   41MOL0     H 5519   8.787  10.805   1.110  0.0376 -0.4030 -0.3021
   41MOL0     H 5520   8.996  10.745   1.141  1.2314 -1.8048  2.5871
   41MOL0     H 5521  10.250  10.193   0.956  0.2482 -0.0132 -0.0885
   41MOL0     H 5522  10.465  10.150   0.844  2.8339  0.0870 -2.3346
   41MOL0     H 5523  10.700   9.980   0.520 -0.3077 -0.1685 -0.4366
   41MOL0     H 5524  10.910   9.940   0.392  0.5355  0.5679  1.1883
   41MOL0     H 5525  11.162  10.151   0.148  0.2124  0.0021 -1.5913
   41MOL0     H 5526  11.094  10.120   0.298 -1.3936 -1.0876 -0.0359
   41MOL0     H 5527  11.135   9.850   0.243 -2.9511  1.0613  1.7447
   41MOL0     H 5528  11.259   9.962   0.302  0.5775 -1.1881 -0.5885
   41MOL0     H 5529  11.379   9.972   0.112  1.0692 -1.3679  0.8694
   41MOL0     H 5530  11.236   9.964   0.015  0.3184  1.9204  1.3107
   41MOL0     H 5531  11.293   9.750  -0.046  6.4206 -1.1534 -1.9007
   41MOL0     H 5532  11.250   9.688   0.108  1.3950  0.1744  3.0540
   41MOL0     H 5533  11.676   9.737   0.109 -0.1196  0.7311 -0.0568
   41MOL0     H 5534  10.773  10.209   0.088  2.3503 -0.7824  0.0026
   41MOL0     H 5535  10.565  10.235   0.203  1.0446 -0.2798 -1.9108
   42MOL0     O 5536   4.651   2.109   5.954 -0.5002  0.5043  0.0032
   42MOL0     C 5537   4.538   2.139   6.000 -0.0294  0.9179  0.0653
   42MOL0     O 5538   4.432   2.189   5.925 -0.2614 -0.1157  0.1287
   42MOL0     C 5539   4.452   2.250   5.802 -0.4357  0.9516 -0.0350
   42MOL0     C 5540   4.574   2.302   5.756 -0.3252 -0.5195 -0.2809
   42MOL0     C 5541   4.589   2.400   5.657 -0.1577 -0.3367 -0.0372
   42MOL0     C 5542   4.471   2.440   5.595 -0.0896 -0.4633 -0.4385
   42MOL0     O 5543   4.464   2.532   5.495  0.2606 -0.5894  0.2402
   42MOL0     C 5544   4.576   2.544   5.400  0.1159 -0.0772  0.1471
   42MOL0     C 5545   4.509   2.637   5.289  0.2067 -0.4030 -0.1923
   42MOL0     C 5546   4.594   2.658   5.166 -0.5454  0.9338  0.4098
   42MOL0     C 5547   4.534   2.741   5.051 -0.4572 -0.6061  0.2353
   42MOL0     C 5548   4.634   2.777   4.945  0.0153  0.7201  0.5620
   42MOL0     C 5549   4.568   2.865   4.830 -1.2558 -0.1513  0.2106
   42MOL0     C 5550   4.684   2.906   4.741 -1.2500 -0.1161  0.1518
   42MOL0     C 5551   4.648   2.982   4.618 -1.3957  0.2322 -0.0242
   42MOL0     N 5552   4.555   3.091   4.640 -0.3955  0.4671  0.5639
   42MOL0     C 5553   4.425   3.090   4.587 -0.7076 -0.4852  0.4072
   42MOL0     C 5554   4.373   3.211   4.632  0.5546  0.2549  1.3941
   42MOL0     C 5555   4.225   3.241   4.605  0.0099 -1.0183 -0.1110
   42MOL0     C 5556   4.227   3.320   4.472  0.1236 -0.0147  0.5228
   42MOL0     C 5557   4.089   3.389   4.449  0.4276 -0.8050  0.1477
   42MOL0     C 5558   4.048   3.483   4.568  0.2251  0.3382  0.0733
   42MOL0     O 5559   3.940   3.565   4.519  0.3981  0.8927  0.0378
   42MOL0     C 5560   3.957   3.696   4.557  0.5552  0.2702  0.4573
   42MOL0     C 5561   3.879   3.749   4.669 -0.0832 -0.4049 -0.1995
   42MOL0     C 5562   3.872   3.886   4.704 -0.2806  0.2831 -0.3092
   42MOL0     C 5563   3.783   3.944   4.813 -0.3508  0.5685 -0.0405
   42MOL0     C 5564   3.954   3.970   4.627 -0.7941  0.1401  0.8781
   42MOL0     C 5565   3.967   4.114   4.650  0.8124 -0.4109  0.3425
   42MOL0     O 5566   4.085   4.148   4.684 -0.0859 -0.8534 -0.1919
   42MOL0     C 5567   4.122   4.282   4.680 -0.4303 -0.4157 -0.0643
   42MOL0     C 5568   4.043   4.388   4.630 -0.1328 -0.4178 -0.6082
   42MOL0     C 5569   4.097   4.518   4.601 -0.3096 -0.0653  0.9400
   42MOL0     C 5570   4.234   4.543   4.628  0.1859  0.6619 -0.2337
   42MOL0     O 5571   4.285   4.670   4.600 -0.4962 -0.6948 -0.5000
   42MOL0     C 5572   4.422   4.710   4.619  0.2092 -0.5803 -0.5087
   42MOL0     C 5573   4.415   4.859   4.590 -0.6556  0.2619 -1.0994
   42MOL0     C 5574   4.386   4.908   4.449 -0.1553 -0.3426  0.1773
   42MOL0     C 5575   4.514   4.958   4.386 -0.6261  0.3547 -0.0752
   42MOL0     C 5576   4.488   5.031   4.247  1.0067  0.2766 -0.0075
   42MOL0     C 5577   4.612   5.104   4.202 -0.9391 -0.7241  1.1587
   42MOL0     C 5578   4.595   5.220   4.099  0.0366 -0.1813  0.5382
   42MOL0     C 5579   4.523   5.183   3.966 -0.4428 -0.8373 -0.2181
   42MOL0    Cl 5580   4.350   5.144   3.977  0.1088 -0.4383 -0.1033
   42MOL0     C 5581   4.306   4.439   4.693 -0.1721 -0.6524 -0.7784
   42MOL0     C 5582   4.258   4.315   4.707 -0.5506  0.1413  0.5851
   42MOL0     O 5583   3.861   4.188   4.642 -0.1218  0.4957 -0.8246
   42MOL0     C 5584   4.029   3.920   4.517  0.1747 -0.7450  0.2506
   42MOL0     C 5585   4.039   3.781   4.486 -0.9883 -0.3572  0.0127
   42MOL0     N 5586   4.465   3.270   4.711  0.5024  0.5324 -0.0023
   42MOL0     N 5587   4.575   3.205   4.711 -0.1328  1.0840 -0.1322
   42MOL0     C 5588   4.343   2.391   5.645  0.7489  0.0913  0.1801
   42MOL0     C 5589   4.335   2.301   5.741  0.3071 -0.2859  0.4530
   42MOL0     C 5590   4.512   2.104   6.133 -0.3480 -0.4810 -0.4552
   42MOL0     C 5591   4.389   2.089   6.193 -0.4568  0.0912 -0.2806
   42MOL0     C 5592   4.378   2.028   6.319 -0.0852  0.2960  0.4011
   42MOL0     C 5593   4.490   1.996   6.392 -0.3209 -1.2184 -0.9279
   42MOL0     O 5594   4.474   1.931   6.517  0.0511 -0.4577 -0.9482
   42MOL0     C 5595   4.540   1.986   6.634 -0.5160  0.0421  1.2802
   42MOL0     C 5596   4.437   1.994   6.745  0.5803 -0.5106  0.2847
   42MOL0     C 5597   4.469   2.086   6.869 -0.2293  0.1556  0.0366
   42MOL0     C 5598   4.486   2.229   6.824 -0.1430 -0.0454  0.9707
   42MOL0     C 5599   4.515   2.319   6.931  0.7798  0.3864  0.2768
   42MOL0     C 5600   4.533   2.397   7.019  0.0523  0.1237 -0.4645
   42MOL0     C 5601   4.616   2.019   6.338 -0.1063 -0.4478  0.1561
   42MOL0     C 5602   4.630   2.082   6.216 -0.6500 -0.0077  0.4862
   42MOL0     H 5603   4.673   2.276   5.792 -0.9550  0.8695  2.8120
   42MOL0     H 5604   4.687   2.441   5.633  2.3341 -4.7794  1.3436
   42MOL0     H 5605   4.661   2.597   5.445  0.5076  0.7196 -1.4532
   42MOL0     H 5606   4.603   2.446   5.359 -0.3170  1.1211 -3.3320
   42MOL0     H 5607   4.404   2.616   5.266 -1.1817  5.6769 -1.0815
   42MOL0     H 5608   4.502   2.741   5.323 -0.7143 -0.7590  0.7256
   42MOL0     H 5609   4.690   2.704   5.189 -1.4303  3.7467 -1.0664
   42MOL0     H 5610   4.606   2.555   5.130  0.7383  1.9211 -2.3131
   42MOL0     H 5611   4.444   2.690   5.017 -2.0056  0.8465  1.9545
   42MOL0     H 5612   4.501   2.829   5.107 -1.3521 -1.1412  0.5702
   42MOL0     H 5613   4.723   2.824   4.988  1.2635 -0.6731 -0.3813
   42MOL0     H 5614   4.659   2.679   4.902  0.9975  0.4906  1.5967
   42MOL0     H 5615   4.501   2.812   4.762  0.2505 -0.7213 -0.8843
   42MOL0     H 5616   4.512   2.943   4.883 -0.3137 -0.2928  1.4447
   42MOL0     H 5617   4.745   2.964   4.810  0.7822 -0.2890 -1.4111
   42MOL0     H 5618   4.738   2.813   4.722  0.2982  1.0222 -1.2961
   42MOL0     H 5619   4.601   2.912   4.548  1.7996 -1.8648 -0.2846
   42MOL0     H 5620   4.731   3.033   4.568 -1.1018  0.0389  0.2627
   42MOL0     H 5621   4.384   3.025   4.510  0.3898  1.8974 -2.3707
   42MOL0     H 5622   4.168   3.147   4.605  0.1941 -1.1888 -2.3452
   42MOL0     H 5623   4.183   3.295   4.690  1.6145 -0.1345  0.1549
   42MOL0     H 5624   4.256   3.252   4.391  2.0275 -0.7403  1.7427
   42MOL0     H 5625   4.300   3.402   4.479  0.5028 -0.4513  2.1977
   42MOL0     H 5626   4.008   3.316   4.437 -1.1605  0.1803  3.4922
   42MOL0     H 5627   4.102   3.452   4.361  0.8429  0.1752  0.8965
   42MOL0     H 5628   4.131   3.551   4.588  0.1337  1.2871 -2.4490
   42MOL0     H 5629   3.998   3.440   4.656 -4.3527  0.2633 -2.2588
   42MOL0     H 5630   3.829   3.665   4.715  1.1605 -0.7855  0.5278
   42MOL0     H 5631   3.718   3.861   4.844  0.1312 -0.5098 -1.8158
   42MOL0     H 5632   3.835   3.975   4.904 -2.3749  2.1539  0.6498
   42MOL0     H 5633   3.720   4.026   4.777 -0.3189  0.5969 -0.0317
   42MOL0     H 5634   3.939   4.392   4.602 -0.0100  2.7659 -1.0215
   42MOL0     H 5635   4.027   4.592   4.563 -0.0977 -0.0563  0.5642
   42MOL0     H 5636   4.441   4.694   4.725 -1.9583 -0.3737 -0.0386
   42MOL0     H 5637   4.483   4.649   4.552  0.4996 -1.1620  0.2708
   42MOL0     H 5638   4.339   4.898   4.657  1.1295  0.3035  1.0128
   42MOL0     H 5639   4.506   4.908   4.626 -0.6529  0.4182 -1.3165
   42MOL0     H 5640   4.309   4.985   4.452  0.7851  0.5889  0.9855
   42MOL0     H 5641   4.350   4.823   4.389  2.4054  0.8772 -3.4520
   42MOL0     H 5642   4.566   5.024   4.456 -0.7134 -0.9531  1.2755
   42MOL0     H 5643   4.593   4.883   4.373  0.0875  1.2201 -0.9361
   42MOL0     H 5644   4.400   5.095   4.248 -0.8634 -2.1431  1.7587
   42MOL0     H 5645   4.465   4.952   4.174 -2.9953  0.1432  1.1833
   42MOL0     H 5646   4.653   5.149   4.293  2.4090  0.0438 -0.5809
   42MOL0     H 5647   4.695   5.039   4.173 -0.2007 -0.0182  1.6498
   42MOL0     H 5648   4.694   5.246   4.062 -0.0541 -1.6458 -0.8946
   42MOL0     H 5649   4.547   5.310   4.138  0.9387  0.2719  0.6270
   42MOL0     H 5650   4.586   5.105   3.921  1.8573  1.0864 -0.5194
   42MOL0     H 5651   4.537   5.268   3.898 -2.2234  1.3706  1.9992
   42MOL0     H 5652   4.406   4.469   4.724 -0.7746  0.7701 -0.1638
   42MOL0     H 5653   4.336   4.248   4.743  2.1535  1.4122 -2.3880
   42MOL0     H 5654   4.074   3.990   4.447  0.0230 -2.3949 -1.5713
   42MOL0     H 5655   4.098   3.749   4.400  1.1139 -1.8018  1.8566
   42MOL0     H 5656   4.264   2.443   5.592  1.9364  0.9128 -0.8703
   42MOL0     H 5657   4.238   2.287   5.787 -0.1772 -0.3676 -0.5710
   42MOL0     H 5658   4.300   2.097   6.133 -0.0230  1.3682 -0.7948
   42MOL0     H 5659   4.287   2.010   6.376 -0.5358  0.3569 -0.2947
   42MOL0     H 5660   4.618   1.915   6.662 -0.6129  0.1479  1.8272
   42MOL0     H 5661   4.586   2.084   6.618  0.6006 -0.6750 -0.1836
   42MOL0     H 5662   4.410   1.894   6.781 -1.6679 -0.1275 -0.1741
   42MOL0     H 5663   4.342   2.031   6.705 -0.2339 -1.2600  1.4739
   42MOL0     H 5664   4.546   2.040   6.931  0.1992 -0.3666 -0.8510
   42MOL0     H 5665   4.384   2.080   6.937 -0.3812 -0.9096 -0.2236
   42MOL0     H 5666   4.401   2.268   6.766 -1.7014 -2.4382  1.5020
   42MOL0     H 5667   4.573   2.237   6.758 -0.7963 -0.5633  0.0225
   42MOL0     H 5668   4.527   2.465   7.101 -0.1374  0.2179 -0.5533
   42MOL0     H 5669   4.704   1.973   6.381 -1.6062 -3.1448  0.5405
   42MOL0     H 5670   4.735   2.092   6.191  0.6137 -3.4031  3.6378
   43MOL0     O 5671   1.755   3.596  10.672 -0.5942  0.3594  0.7893
   43MOL0     C 5672   1.811   3.703  10.693  0.2787  0.3189  0.0735
   43MOL0     O 5673   1.775   3.830  10.641  0.0199  0.1463 -0.1410
   43MOL0     C 5674   1.670   3.839  10.553  0.2829  1.0773 -0.2125
   43MOL0     C 5675   1.697   3.920  10.442  0.3675  0.3865  0.5745
   43MOL0     C 5676   1.602   3.932  10.334  0.3694  0.4447  0.0315
   43MOL0     C 5677   1.474   3.884  10.359  0.7898  0.8763  0.7274
   43MOL0     O 5678   1.364   3.902  10.272 -0.4676 -0.3992 -0.8115
   43MOL0     C 5679   1.336   3.776  10.206  0.0047  0.4906  0.2769
   43MOL0     C 5680   1.266   3.820  10.068 -0.0857 -0.3556 -0.7671
   43MOL0     C 5681   1.135   3.894  10.081  0.7323 -0.1147  0.7930
   43MOL0     C 5682   1.010   3.815  10.120  1.4602 -0.4000 -0.6020
   43MOL0     C 5683   0.879   3.900  10.134 -0.4485  0.0970 -0.8325
   43MOL0     C 5684   0.756   3.814  10.124 -0.3660 -0.6034  0.7384
   43MOL0     C 5685   0.753   3.750   9.979  0.0729  0.0296 -0.5135
   43MOL0     C 5686   0.637   3.654   9.974 -0.7463  0.0417 -0.5279
   43MOL0     N 5687   0.508   3.728   9.992  0.0398 -0.1827  0.2896
   43MOL0     C 5688   0.458   3.820   9.905  0.2753 -0.4468 -0.2383
   43MOL0     C 5689   0.339   3.857   9.959  0.1303 -0.1761 -0.1055
   43MOL0     C 5690   0.240   3.957   9.891 -0.7498 -0.5087  1.1703
   43MOL0     C 5691   0.301   4.111   9.883  1.1270 -0.5965 -0.1094
   43MOL0     C 5692   0.172   4.212   9.869  0.1075 -0.2106  0.6991
   43MOL0     C 5693   0.207   4.355   9.819 -1.0503  0.4953 -0.7405
   43MOL0     O 5694   0.310   4.410   9.911  0.1114 -0.5423  0.1048
   43MOL0     C 5695   0.338   4.543   9.906 -0.7294 -0.6509  0.6392
   43MOL0     C 5696   0.415   4.608  10.007  0.8972  0.5349  0.5376
   43MOL0     C 5697   0.453   4.749  10.003 -0.0880  0.5678 -0.6203
   43MOL0     C 5698   0.514   4.806  10.129  0.2331 -0.7575 -0.0297
   43MOL0     C 5699   0.426   4.822   9.881  0.5093 -0.0967 -0.4953
   43MOL0     C 5700   0.462   4.969   9.874 -0.6046 -0.9225  1.0412
   43MOL0     O 5701   0.478   5.024   9.746  0.1984 -0.8323  0.6958
   43MOL0     C 5702   0.504   5.156   9.720  0.0530  0.5479 -0.0382
   43MOL0     C 5703   0.609   5.189   9.632  0.5727  1.0083 -0.2828
   43MOL0     C 5704   0.632   5.322   9.601  0.5827  0.4178  0.2780
   43MOL0     C 5705   0.541   5.416   9.636  0.0142  1.0702  0.4373
   43MOL0     O 5706   0.570   5.542   9.590  0.1687  0.2895  0.0560
   43MOL0     C 5707   0.462   5.634   9.570  0.4317 -0.5718 -0.9868
   43MOL0     C 5708   0.537   5.766   9.531  0.0984  0.5508 -0.4416
   43MOL0     C 5709   0.605   5.755   9.399 -0.7113  0.1478  0.8938
   43MOL0     C 5710   0.587   5.904   9.345 -0.2174 -0.7066 -0.2325
   43MOL0     C 5711   0.645   5.918   9.201  0.2261 -0.1068 -0.2018
   43MOL0     C 5712   0.586   6.044   9.127  0.2606  0.6088 -0.0568
   43MOL0     C 5713   0.625   6.053   8.982 -0.1000 -0.8842 -0.5816
   43MOL0     C 5714   0.774   6.051   8.952  0.6672 -1.3838  0.3435
   43MOL0    Cl 5715   0.835   6.204   9.023  0.0180 -0.1474 -0.6893
   43MOL0     C 5716   0.436   5.384   9.718 -0.6521  0.0134  0.7582
   43MOL0     C 5717   0.417   5.257   9.764  0.8033  0.1727 -0.0906
   43MOL0     O 5718   0.471   5.038   9.979  0.0110  0.1395 -0.3304
   43MOL0     C 5719   0.373   4.752   9.775 -0.3449  0.2972  0.8377
   43MOL0     C 5720   0.317   4.623   9.789  1.2772 -0.4896  0.8789
   43MOL0     N 5721   0.304   3.774  10.063 -0.8960  0.0186  0.3425
   43MOL0     N 5722   0.410   3.701  10.081 -0.1728  0.5403  0.4656
   43MOL0     C 5723   1.448   3.809  10.479  0.0547 -0.0164  0.4337
   43MOL0     C 5724   1.551   3.779  10.566  0.0262  0.8011 -0.5997
   43MOL0     C 5725   1.931   3.700  10.781 -0.6730 -0.3057 -0.6681
   43MOL0     C 5726   1.992   3.823  10.811  0.2852 -0.0761  0.0156
   43MOL0     C 5727   2.111   3.820  10.884  0.1848  0.1612 -0.2507
   43MOL0     C 5728   2.174   3.701  10.917  1.5972  0.2944 -1.1871
   43MOL0     O 5729   2.297   3.692  10.978  0.6764  0.0399 -0.3651
   43MOL0     C 5730   2.402   3.778  10.927  0.1272  0.3581  0.6328
   43MOL0     C 5731   2.523   3.714  10.996  0.4889  0.1119  0.0743
   43MOL0     C 5732   2.661   3.745  10.932  0.1016  0.3262 -0.6082
   43MOL0     C 5733   2.777   3.705  11.031 -0.0089  0.3979 -0.2471
   43MOL0     C 5734   2.903   3.730  10.967 -0.6119  0.6436  0.1866
   43MOL0     C 5735   3.004   3.751  10.906  0.0070 -1.2190  0.9314
   43MOL0     C 5736   2.103   3.589  10.901 -0.6747 -0.0047  0.2093
   43MOL0     C 5737   1.986   3.577  10.823  0.0172  0.2640  0.5030
   43MOL0     H 5738   1.800   3.948  10.425  0.3956 -1.2356 -2.6201
   43MOL0     H 5739   1.635   3.979  10.241 -0.5869  0.6559 -0.2085
   43MOL0     H 5740   1.434   3.730  10.190 -1.1330 -2.6357  1.4920
   43MOL0     H 5741   1.278   3.719  10.280  1.0300  0.6514  1.2184
   43MOL0     H 5742   1.340   3.872  10.006  0.9137 -3.0389 -1.9672
   43MOL0     H 5743   1.244   3.733  10.005  0.0372 -1.6874  0.9556
   43MOL0     H 5744   1.146   3.966  10.163  1.5437  0.0218  0.5778
   43MOL0     H 5745   1.111   3.949   9.989  1.0232 -2.0144 -0.4755
   43MOL0     H 5746   1.003   3.741  10.039  0.3676 -0.1655 -0.7381
   43MOL0     H 5747   1.024   3.767  10.217 -2.8844 -1.2769 -0.2241
   43MOL0     H 5748   0.880   3.945  10.234  1.6419  0.0106 -0.7781
   43MOL0     H 5749   0.862   3.991  10.074 -2.9483 -0.3247 -0.8648
   43MOL0     H 5750   0.768   3.735  10.198  1.3038 -1.2331 -0.1347
   43MOL0     H 5751   0.667   3.873  10.149 -0.7388 -0.4428 -0.8529
   43MOL0     H 5752   0.750   3.831   9.906 -1.5051 -0.7936 -1.4058
   43MOL0     H 5753   0.830   3.674   9.959 -2.0853 -1.6770 -2.9854
   43MOL0     H 5754   0.632   3.578  10.052  1.4496  0.5040  0.1243
   43MOL0     H 5755   0.644   3.586   9.888 -0.9765 -0.6031 -0.0429
   43MOL0     H 5756   0.508   3.860   9.817 -2.2839  1.1581 -1.0678
   43MOL0     H 5757   0.218   3.931   9.787  1.6898 -0.0453  0.4824
   43MOL0     H 5758   0.144   3.959   9.943 -2.3397  2.9158 -1.5390
   43MOL0     H 5759   0.358   4.123   9.790 -3.4146  3.2538 -2.8706
   43MOL0     H 5760   0.353   4.138   9.976  0.6512  4.1034 -0.9362
   43MOL0     H 5761   0.121   4.214   9.966  1.8085 -0.5499  1.6445
   43MOL0     H 5762   0.089   4.168   9.814 -1.0070  1.0989  1.2685
   43MOL0     H 5763   0.125   4.427   9.816 -0.9710  0.6106 -0.1570
   43MOL0     H 5764   0.250   4.343   9.719 -2.1498 -0.0891 -1.1564
   43MOL0     H 5765   0.437   4.540  10.088  0.3230 -4.1457 -2.8376
   43MOL0     H 5766   0.447   4.887  10.157  2.1942  0.0214  2.9463
   43MOL0     H 5767   0.517   4.735  10.212  0.3849 -1.8233 -0.9205
   43MOL0     H 5768   0.612   4.852  10.114  0.0547 -0.6970 -1.0644
   43MOL0     H 5769   0.665   5.097   9.615 -1.2178 -1.0705  3.6831
   43MOL0     H 5770   0.712   5.363   9.540 -3.4736  3.7598 -3.4411
   43MOL0     H 5771   0.410   5.604   9.479  0.6262  1.6816 -1.8829
   43MOL0     H 5772   0.399   5.656   9.657  0.8262  1.3701 -1.1459
   43MOL0     H 5773   0.451   5.834   9.533  0.7616  1.3928  0.4780
   43MOL0     H 5774   0.620   5.780   9.601 -1.0881 -0.2494  1.2010
   43MOL0     H 5775   0.547   5.686   9.336 -3.4175  3.5307 -0.6800
   43MOL0     H 5776   0.710   5.726   9.395 -0.6988  0.2443  0.3211
   43MOL0     H 5777   0.480   5.928   9.342 -0.8897 -2.6439  3.2776
   43MOL0     H 5778   0.628   5.974   9.418  1.0381 -0.0874 -1.4695
   43MOL0     H 5779   0.631   5.826   9.144  1.3746 -1.2930  1.3390
   43MOL0     H 5780   0.754   5.921   9.208  0.2354  0.0173 -0.3856
   43MOL0     H 5781   0.478   6.034   9.137  0.5221 -2.1302  0.8073
   43MOL0     H 5782   0.620   6.134   9.180 -2.9833  1.3707  0.9468
   43MOL0     H 5783   0.581   6.136   8.925 -3.2423 -1.6301  0.5429
   43MOL0     H 5784   0.576   5.976   8.920 -2.1587  1.9120 -2.7424
   43MOL0     H 5785   0.803   6.055   8.847 -0.2548 -2.9139  0.0143
   43MOL0     H 5786   0.821   5.964   8.998  3.0252 -0.9728 -1.1042
   43MOL0     H 5787   0.367   5.467   9.737 -1.0987  1.2781 -4.7786
   43MOL0     H 5788   0.328   5.231   9.820  0.9116  5.0361  2.9338
   43MOL0     H 5789   0.370   4.809   9.682  2.1641  0.0131  0.5322
   43MOL0     H 5790   0.275   4.583   9.697  1.0932 -1.4005  1.3411
   43MOL0     H 5791   1.347   3.771  10.491  0.0083 -0.5496 -1.3923
   43MOL0     H 5792   1.525   3.711  10.647 -0.4462  0.6450 -0.8787
   43MOL0     H 5793   1.950   3.919  10.782  0.2899 -0.2462 -0.5631
   43MOL0     H 5794   2.158   3.904  10.934 -0.4916 -1.2250  2.9877
   43MOL0     H 5795   2.411   3.761  10.820  1.6183  0.8010  0.6656
   43MOL0     H 5796   2.389   3.886  10.940 -1.3712  0.4119 -1.0455
   43MOL0     H 5797   2.511   3.606  11.000  2.4567 -0.1943 -1.2317
   43MOL0     H 5798   2.530   3.759  11.096  0.5629 -0.1296  0.1762
   43MOL0     H 5799   2.674   3.854  10.934 -1.4829  0.5361  1.0344
   43MOL0     H 5800   2.680   3.685  10.843 -0.9814 -1.9333  0.6008
   43MOL0     H 5801   2.767   3.602  11.066  1.9916  0.2512  0.0485
   43MOL0     H 5802   2.777   3.774  11.116 -0.4871  2.4738 -1.8597
   43MOL0     H 5803   3.091   3.793  10.859 -0.0795 -1.6572  0.3725
   43MOL0     H 5804   2.149   3.504  10.949  0.1357 -0.1333 -0.7587
   43MOL0     H 5805   1.943   3.477  10.814  0.4313  0.2543 -2.4882
   44MOL0     O 5806   7.446  10.070   7.313  0.1474 -0.4959  0.5303
   44MOL0     C 5807   7.556  10.021   7.274  0.4587  0.4601  1.2394
   44MOL0     O 5808   7.638  10.070   7.175  0.6671  0.8605 -0.0915
   44MOL0     C 5809   7.595  10.178   7.111  0.0522 -1.1869  0.1484
   44MOL0     C 5810   7.543  10.296   7.173 -0.6813  0.1584  0.1852
   44MOL0     C 5811   7.490  10.407   7.104 -0.8245 -0.3495  0.2187
   44MOL0     C 5812   7.476  10.400   6.966 -0.1986 -0.4755  0.2286
   44MOL0     O 5813   7.409  10.486   6.886 -0.0399 -0.2890 -0.0167
   44MOL0     C 5814   7.371  10.611   6.945 -0.1390 -0.0651  0.0394
   44MOL0     C 5815   7.304  10.699   6.837 -0.3198  0.1547  0.1319
   44MOL0     C 5816   7.162  10.647   6.811  0.3010  1.3052 -1.0317
   44MOL0     C 5817   7.069  10.732   6.901  0.0224 -0.1702 -0.4478
   44MOL0     C 5818   6.936  10.662   6.907 -0.2120 -0.4537  1.4307
   44MOL0     C 5819   6.845  10.724   7.003  0.8429 -0.7585  0.2993
   44MOL0     C 5820   6.737  10.632   7.062 -0.1322 -0.3419  0.9439
   44MOL0     C 5821   6.776  10.578   7.205  0.3818 -0.4334 -0.4143
   44MOL0     N 5822   6.903  10.505   7.204 -0.2478  0.2822  0.0148
   44MOL0     C 5823   6.916  10.368   7.168  0.8837  0.8610  0.1125
   44MOL0     C 5824   7.052  10.348   7.159 -0.4902 -0.3842  0.6687
   44MOL0     C 5825   7.141  10.249   7.107 -0.0785 -0.4722 -0.2648
   44MOL0     C 5826   7.068  10.115   7.085 -0.5817 -0.6491  0.6818
   44MOL0     C 5827   7.052  10.038   7.217 -0.2463 -0.1299  0.8523
   44MOL0     C 5828   6.977   9.910   7.200 -0.3948  0.0126  0.0358
   44MOL0     O 5829   6.830   9.925   7.216 -0.3355 -1.1287  0.3923
   44MOL0     C 5830   6.754   9.814   7.192  0.7791  0.2083 -0.2732
   44MOL0     C 5831   6.806   9.684   7.212  0.4966  0.2672  0.5378
   44MOL0     C 5832   6.721   9.575   7.210 -1.1069 -0.5059  0.4622
   44MOL0     C 5833   6.779   9.446   7.244 -0.4650  0.9671 -0.1337
   44MOL0     C 5834   6.587   9.593   7.175  0.1936 -0.1655 -0.1609
   44MOL0     C 5835   6.489   9.487   7.175  0.0299  0.2239 -0.5205
   44MOL0     O 5836   6.375   9.508   7.099  0.4002  0.0236 -0.3033
   44MOL0     C 5837   6.277   9.410   7.096 -0.5720  0.2895 -0.8084
   44MOL0     C 5838   6.282   9.288   7.031  0.2226 -0.6339 -0.3407
   44MOL0     C 5839   6.181   9.199   7.034 -0.6048  0.2383 -0.6797
   44MOL0     C 5840   6.064   9.236   7.097  1.0792  0.6521  0.1100
   44MOL0     O 5841   5.938   9.165   7.096  0.1158 -0.4540  0.7678
   44MOL0     C 5842   5.916   9.058   6.993 -1.1562  0.1182 -0.8125
   44MOL0     C 5843   5.771   9.016   6.992  0.3710  0.1041  1.2157
   44MOL0     C 5844   5.745   8.960   6.853 -1.4396  0.1973  0.0726
   44MOL0     C 5845   5.602   8.927   6.840  0.6608  0.1610  0.8230
   44MOL0     C 5846   5.579   8.877   6.690 -0.7842  0.1830 -1.4195
   44MOL0     C 5847   5.433   8.839   6.655 -0.1985 -0.2323 -0.6995
   44MOL0     C 5848   5.325   8.936   6.603  0.1295 -1.0245  0.2126
   44MOL0     C 5849   5.184   8.915   6.672  0.2271  0.0919 -0.3654
   44MOL0    Cl 5850   5.154   8.740   6.706  0.0769  0.7534  0.4400
   44MOL0     C 5851   6.060   9.351   7.178 -0.4547  0.5589  0.3699
   44MOL0     C 5852   6.166   9.444   7.171  1.5214 -0.3044  0.1695
   44MOL0     O 5853   6.503   9.394   7.245 -0.4033  0.5129 -0.1603
   44MOL0     C 5854   6.539   9.727   7.152  0.2260  0.3479 -0.1163
   44MOL0     C 5855   6.622   9.829   7.162  0.2760  0.3064 -0.3457
   44MOL0     N 5856   7.105  10.468   7.203  0.2948 -0.0515 -0.2623
   44MOL0     N 5857   7.026  10.560   7.226  0.4670  0.4528 -0.7084
   44MOL0     C 5858   7.521  10.280   6.907 -0.2053 -0.1811  1.5260
   44MOL0     C 5859   7.593  10.184   6.975  0.8777  0.4264 -0.4095
   44MOL0     C 5860   7.598   9.899   7.349  0.0183 -0.4121 -0.0150
   44MOL0     C 5861   7.698   9.809   7.303 -0.2121  0.5865  0.1050
   44MOL0     C 5862   7.739   9.701   7.384  0.6202  0.4633  0.4118
   44MOL0     C 5863   7.685   9.684   7.509 -0.6465  0.1459 -0.2818
   44MOL0     O 5864   7.718   9.584   7.592 -0.2657  0.9489 -0.3870
   44MOL0     C 5865   7.837   9.504   7.574  0.9247 -1.1175  0.0263
   44MOL0     C 5866   7.864   9.421   7.693  0.4225 -0.1380  0.4719
   44MOL0     C 5867   7.954   9.292   7.670 -0.2183  0.6528 -0.7591
   44MOL0     C 5868   8.067   9.266   7.779  0.5150  0.3279  0.4591
   44MOL0     C 5869   8.011   9.271   7.907  0.3612  0.4331 -1.1288
   44MOL0     C 5870   7.949   9.273   8.012 -0.5221 -0.1662  0.4887
   44MOL0     C 5871   7.589   9.765   7.557  0.2298 -0.3202 -0.6620
   44MOL0     C 5872   7.539   9.870   7.477  0.1972  0.1790 -0.5260
   44MOL0     H 5873   7.533  10.293   7.281 -1.1358  0.3328  0.1521
   44MOL0     H 5874   7.458  10.493   7.161 -0.8104 -1.3782  1.8310
   44MOL0     H 5875   7.299  10.577   7.020  0.9802  1.0788  1.7235
   44MOL0     H 5876   7.455  10.669   6.985  0.2294  1.8617 -3.1901
   44MOL0     H 5877   7.303  10.805   6.866 -0.1031  0.0173  0.6406
   44MOL0     H 5878   7.349  10.686   6.738  0.8381  2.0796  0.3516
   44MOL0     H 5879   7.141  10.668   6.706  1.1230  0.2469 -1.4135
   44MOL0     H 5880   7.132  10.544   6.832  0.6004  1.5475  0.7301
   44MOL0     H 5881   7.107  10.750   7.002  2.0786  1.7112 -1.4548
   44MOL0     H 5882   7.066  10.836   6.867  2.3809 -0.2134 -0.9916
   44MOL0     H 5883   6.888  10.647   6.810 -1.4734 -0.1479  1.9929
   44MOL0     H 5884   6.952  10.557   6.931 -0.0345 -1.3179 -1.9657
   44MOL0     H 5885   6.898  10.763   7.091  3.9264  0.2500 -1.8378
   44MOL0     H 5886   6.791  10.804   6.952  0.4366 -0.3889  1.2718
   44MOL0     H 5887   6.642  10.683   7.076 -0.7835 -2.3349  5.4356
   44MOL0     H 5888   6.723  10.541   7.002  3.0657 -0.2788 -0.1255
   44MOL0     H 5889   6.707  10.502   7.243  0.1598 -0.8664 -1.6084
   44MOL0     H 5890   6.781  10.661   7.276  0.1205 -2.5259  2.2057
   44MOL0     H 5891   6.835  10.310   7.124  1.1160  0.5946  0.0351
   44MOL0     H 5892   7.197  10.279   7.018  3.6554 -1.0458  1.6447
   44MOL0     H 5893   7.209  10.216   7.186 -0.4819 -5.0008 -1.5441
   44MOL0     H 5894   7.128  10.047   7.024 -1.2329  0.0445 -0.8019
   44MOL0     H 5895   6.971  10.132   7.038  0.8327  2.5302 -1.4419
   44MOL0     H 5896   6.993  10.100   7.285 -1.7030 -0.3873 -0.1369
   44MOL0     H 5897   7.148  10.010   7.261 -0.1868 -0.2322  0.6569
   44MOL0     H 5898   7.017   9.850   7.282  0.6683  0.6305 -0.0089
   44MOL0     H 5899   7.008   9.869   7.103  0.4604 -0.4548  0.4935
   44MOL0     H 5900   6.910   9.659   7.229  1.1931  2.0395 -0.8609
   44MOL0     H 5901   6.758   9.367   7.173  1.5539 -0.1355  0.4081
   44MOL0     H 5902   6.885   9.442   7.272 -0.7502  0.2073  0.9156
   44MOL0     H 5903   6.725   9.430   7.338 -2.0032  2.2469 -0.7615
   44MOL0     H 5904   6.365   9.253   6.970 -0.6645 -2.2489 -0.6587
   44MOL0     H 5905   6.195   9.114   6.968  4.9886  0.4722 -0.2571
   44MOL0     H 5906   5.944   9.107   6.899  0.9135 -0.2316 -0.4275
   44MOL0     H 5907   5.978   8.970   7.006 -0.0978  0.5837 -2.4284
   44MOL0     H 5908   5.761   8.931   7.060 -0.9741 -0.9361 -0.2154
   44MOL0     H 5909   5.704   9.089   7.039  0.8612  0.9183  0.6770
   44MOL0     H 5910   5.812   8.875   6.835 -1.3776 -0.1257  1.7349
   44MOL0     H 5911   5.769   9.037   6.779  0.7074 -1.7155 -1.4002
   44MOL0     H 5912   5.588   8.840   6.905  3.3237 -0.8788  0.1517
   44MOL0     H 5913   5.540   9.011   6.869  2.7178  1.4539  1.6745
   44MOL0     H 5914   5.636   8.784   6.693  1.2393  1.3822  0.7719
   44MOL0     H 5915   5.623   8.951   6.622 -0.7987  1.6899  0.1347
   44MOL0     H 5916   5.431   8.752   6.588 -0.5023  1.3637 -2.8665
   44MOL0     H 5917   5.407   8.793   6.750  2.6234 -1.3014 -0.3466
   44MOL0     H 5918   5.318   8.920   6.495  0.6101  2.2994 -0.4042
   44MOL0     H 5919   5.355   9.040   6.622 -2.3409 -0.6493  2.8234
   44MOL0     H 5920   5.108   8.951   6.602  2.4689  0.3596 -2.8028
   44MOL0     H 5921   5.181   8.978   6.761 -3.1196  0.6600 -0.7153
   44MOL0     H 5922   5.969   9.379   7.231 -0.1894 -0.7835  1.5890
   44MOL0     H 5923   6.146   9.542   7.213  0.2646 -0.7559  0.6620
   44MOL0     H 5924   6.441   9.756   7.118 -1.1297 -1.6708  1.7699
   44MOL0     H 5925   6.595   9.934   7.158 -0.1870  0.1500 -2.9449
   44MOL0     H 5926   7.498  10.272   6.801 -0.5265 -0.8956  1.6432
   44MOL0     H 5927   7.626  10.099   6.915  4.8132  1.7584 -0.3679
   44MOL0     H 5928   7.733   9.819   7.202 -2.3281  0.4659 -0.6978
   44MOL0     H 5929   7.821   9.636   7.356 -1.1865 -1.5786 -0.4932
   44MOL0     H 5930   7.804   9.434   7.497 -0.1062 -1.7959  1.0635
   44MOL0     H 5931   7.925   9.556   7.533 -2.5752  3.6871 -2.3578
   44MOL0     H 5932   7.763   9.387   7.719  1.0671 -2.6630 -0.0245
   44MOL0     H 5933   7.909   9.490   7.764 -3.7906  0.1694  3.2246
   44MOL0     H 5934   8.009   9.301   7.576  2.1219  0.2790  0.5071
   44MOL0     H 5935   7.893   9.201   7.665  0.2871  0.3024 -0.6242
   44MOL0     H 5936   8.131   9.353   7.760 -0.4015  1.2061  1.2547
   44MOL0     H 5937   8.113   9.171   7.751  0.7967  0.8304 -0.8547
   44MOL0     H 5938   7.896   9.258   8.104 -1.4891 -0.7668 -0.1480
   44MOL0     H 5939   7.550   9.744   7.656  0.7785 -3.4690 -0.9935
   44MOL0     H 5940   7.458   9.933   7.514 -0.3535 -0.0593 -1.2895
   45MOL0     O 5941   5.235   0.115   8.466  0.6035  0.7105  0.2008
   45MOL0     C 5942   5.237   0.187   8.365 -0.2563  0.8624 -0.2051
   45MOL0     O 5943   5.134   0.198   8.276  0.6953 -0.0526 -0.5025
   45MOL0     C 5944   5.013   0.142   8.302  0.1571  0.1301 -0.1783
   45MOL0     C 5945   4.895   0.217   8.285 -0.1164  1.4564 -0.7795
   45MOL0     C 5946   4.774   0.151   8.304 -0.5748  0.1065  0.2100
   45MOL0     C 5947   4.757   0.016   8.323  0.0314 -0.7110 -0.5220
   45MOL0     O 5948   4.628  -0.038   8.326 -0.5268 -0.5385 -0.5424
   45MOL0     C 5949   4.594  -0.127   8.222  0.8269  0.1893  0.0571
   45MOL0     C 5950   4.442  -0.131   8.219  1.0931 -0.3450  1.1741
   45MOL0     C 5951   4.365  -0.145   8.091 -0.2627  0.5786 -0.2124
   45MOL0     C 5952   4.408  -0.049   7.989 -0.8280  0.3591  0.2536
   45MOL0     C 5953   4.307  -0.015   7.877 -0.4931 -0.1195  0.1332
   45MOL0     C 5954   4.243  -0.115   7.778 -0.2631 -0.3304  0.2806
   45MOL0     C 5955   4.344  -0.156   7.673  0.8506 -0.1438  0.8355
   45MOL0     C 5956   4.283  -0.246   7.569 -0.6910 -0.1428  0.6630
   45MOL0     N 5957   4.174  -0.179   7.515  0.1709 -0.5711  0.0011
   45MOL0     C 5958   4.186  -0.067   7.441  0.3391  0.1386  0.3291
   45MOL0     C 5959   4.064  -0.016   7.434  0.3986  0.5081 -0.0510
   45MOL0     C 5960   4.029   0.104   7.347  0.2795 -0.4007 -0.7777
   45MOL0     C 5961   3.938   0.198   7.414  0.4074  0.5330 -0.3976
   45MOL0     C 5962   3.886   0.295   7.313 -0.2711 -0.5793  0.2312
   45MOL0     C 5963   3.813   0.407   7.374 -0.2905  0.0132 -1.0707
   45MOL0     O 5964   3.700   0.348   7.449  0.4351 -0.0984  0.1324
   45MOL0     C 5965   3.600   0.434   7.481  0.2813 -1.0810  0.0855
   45MOL0     C 5966   3.503   0.389   7.567 -0.3092 -0.6056 -0.0681
   45MOL0     C 5967   3.394   0.464   7.609 -0.6014  0.0961  0.9646
   45MOL0     C 5968   3.292   0.411   7.702  0.4649  0.7868  0.1397
   45MOL0     C 5969   3.388   0.603   7.558  1.0455  0.7746  0.3645
   45MOL0     C 5970   3.297   0.707   7.624 -0.1550 -0.0343 -0.0852
   45MOL0     O 5971   3.283   0.820   7.554  0.6067  0.4022 -0.2049
   45MOL0     C 5972   3.235   0.919   7.625 -0.1495  0.2089 -1.7018
   45MOL0     C 5973   3.313   0.995   7.719  0.3785  0.0897 -0.0223
   45MOL0     C 5974   3.263   1.117   7.769  0.2324  0.1267 -1.3182
   45MOL0     C 5975   3.134   1.173   7.731 -1.1590  0.0507  0.1532
   45MOL0     O 5976   3.071   1.285   7.774  0.2531 -0.2079  0.6486
   45MOL0     C 5977   3.109   1.343   7.901 -0.0924 -0.6017 -0.1027
   45MOL0     C 5978   2.978   1.414   7.961 -1.0032  1.3757  0.6511
   45MOL0     C 5979   2.887   1.304   8.021  0.6611  0.1708 -0.8560
   45MOL0     C 5980   2.773   1.255   7.940  0.0934  0.1442  0.0954
   45MOL0     C 5981   2.675   1.174   8.022 -0.8570 -0.7720  0.6683
   45MOL0     C 5982   2.737   1.077   8.111  0.0221  0.2827  0.0539
   45MOL0     C 5983   2.634   0.988   8.186  0.0991 -0.5488  0.6326
   45MOL0     C 5984   2.714   0.902   8.289 -0.2206  0.2685  0.0308
   45MOL0    Cl 5985   2.597   0.777   8.336  0.0252  0.4174 -0.3736
   45MOL0     C 5986   3.061   1.093   7.643 -0.2603  1.2037 -0.3784
   45MOL0     C 5987   3.107   0.969   7.588  0.3524 -1.9625  0.7650
   45MOL0     O 5988   3.250   0.688   7.736 -0.3275 -0.2123 -0.2712
   45MOL0     C 5989   3.482   0.648   7.463  0.1947  0.6300  0.2727
   45MOL0     C 5990   3.589   0.567   7.439 -1.0599 -0.1239  0.8603
   45MOL0     N 5991   3.977  -0.091   7.512 -0.7315 -0.1280  0.1341
   45MOL0     N 5992   4.047  -0.191   7.561 -1.0797 -0.1202 -0.0898
   45MOL0     C 5993   4.875  -0.062   8.337 -0.0577  1.0385 -0.2727
   45MOL0     C 5994   4.998   0.005   8.339 -0.0829 -0.4168 -0.1712
   45MOL0     C 5995   5.374   0.254   8.348  0.0648  0.1856  0.1243
   45MOL0     C 5996   5.394   0.329   8.227  0.4905 -0.1106  0.2995
   45MOL0     C 5997   5.514   0.394   8.198 -0.1202  0.2102  0.4244
   45MOL0     C 5998   5.629   0.373   8.275 -0.6590 -0.3750  0.0329
   45MOL0     O 5999   5.742   0.447   8.241 -0.3517 -0.1988 -0.2651
   45MOL0     C 6000   5.864   0.408   8.314 -0.5875  0.6493 -0.1829
   45MOL0     C 6001   5.982   0.500   8.276 -0.0075 -0.0221  0.1433
   45MOL0     C 6002   6.107   0.431   8.329 -0.0537  0.8470 -1.4098
   45MOL0     C 6003   6.224   0.532   8.342  0.1631  0.7792  0.0674
   45MOL0     C 6004   6.354   0.469   8.362 -0.0717  0.2502  0.7281
   45MOL0     C 6005   6.460   0.412   8.375 -0.3156  0.4621 -0.5407
   45MOL0     C 6006   5.608   0.298   8.394  0.0791 -1.2472 -0.3827
   45MOL0     C 6007   5.483   0.239   8.432 -1.9035 -0.0365  0.0458
   45MOL0     H 6008   4.895   0.325   8.278  3.1284  1.5063 -1.4116
   45MOL0     H 6009   4.679   0.198   8.280 -0.7706 -1.0174 -1.4146
   45MOL0     H 6010   4.638  -0.091   8.129  0.9113 -0.1194 -0.0223
   45MOL0     H 6011   4.639  -0.223   8.248 -1.5748 -0.1683  3.6009
   45MOL0     H 6012   4.405  -0.213   8.282 -0.3476 -0.8082 -0.2058
   45MOL0     H 6013   4.404  -0.036   8.257 -2.8536 -0.5468 -1.6236
   45MOL0     H 6014   4.365  -0.247   8.053  1.4119  0.1773  0.7792
   45MOL0     H 6015   4.267  -0.122   8.134  0.5412  0.1833  1.9818
   45MOL0     H 6016   4.435   0.048   8.033  0.4289  1.3365 -2.4129
   45MOL0     H 6017   4.501  -0.080   7.941 -0.1036 -1.8101  2.7978
   45MOL0     H 6018   4.236   0.049   7.931  1.3378  0.2195  2.2890
   45MOL0     H 6019   4.359   0.050   7.806 -0.5558 -0.9471 -0.6845
   45MOL0     H 6020   4.214  -0.205   7.833 -2.0699 -0.5078 -0.8878
   45MOL0     H 6021   4.155  -0.066   7.735  1.7733  1.2116 -2.4522
   45MOL0     H 6022   4.391  -0.065   7.634  0.4257  1.0996  3.0900
   45MOL0     H 6023   4.416  -0.224   7.719 -2.4509 -2.4991  2.9780
   45MOL0     H 6024   4.243  -0.340   7.610 -2.5181  0.5740  0.6355
   45MOL0     H 6025   4.357  -0.261   7.490 -2.4367 -1.0928 -0.8558
   45MOL0     H 6026   4.275  -0.020   7.400 -0.7735  0.9359 -1.2812
   45MOL0     H 6027   4.120   0.152   7.311 -1.4386  3.0939 -0.8128
   45MOL0     H 6028   3.981   0.063   7.258 -1.0023  0.1973 -0.3880
   45MOL0     H 6029   4.002   0.247   7.488  1.4120 -0.9003 -0.2557
   45MOL0     H 6030   3.855   0.155   7.471 -1.8216  2.4040 -2.0516
   45MOL0     H 6031   3.817   0.236   7.252 -1.2244 -0.0635  0.7789
   45MOL0     H 6032   3.974   0.330   7.258  0.4195 -1.3462  0.8033
   45MOL0     H 6033   3.789   0.471   7.289 -0.3668 -1.9934 -2.6194
   45MOL0     H 6034   3.867   0.467   7.449 -3.1191  1.7224 -0.2224
   45MOL0     H 6035   3.512   0.285   7.596  0.3468 -0.2828  0.9619
   45MOL0     H 6036   3.300   0.303   7.720 -2.3324  0.4753 -0.0937
   45MOL0     H 6037   3.303   0.441   7.806  2.2710 -3.6094  1.4783
   45MOL0     H 6038   3.197   0.446   7.660  0.1982 -1.1473 -1.0033
   45MOL0     H 6039   3.412   0.966   7.753  0.8460  1.4098 -0.1782
   45MOL0     H 6040   3.328   1.167   7.840 -1.0297 -1.4873  1.0898
   45MOL0     H 6041   3.154   1.272   7.970 -1.7708  0.0392  1.7510
   45MOL0     H 6042   3.186   1.417   7.878  0.8334 -2.4032 -3.3212
   45MOL0     H 6043   3.008   1.484   8.040 -0.3339  2.4533 -0.5147
   45MOL0     H 6044   2.940   1.474   7.878 -0.6429 -0.3811 -0.8505
   45MOL0     H 6045   2.842   1.327   8.117 -1.8074 -2.6274 -1.1736
   45MOL0     H 6046   2.934   1.207   8.037 -0.1383 -0.1327 -0.2456
   45MOL0     H 6047   2.714   1.333   7.890 -0.8605 -0.4341  0.2878
   45MOL0     H 6048   2.811   1.186   7.864  2.2495  2.5369 -1.1661
   45MOL0     H 6049   2.606   1.120   7.956  0.0263  1.2946 -2.1519
   45MOL0     H 6050   2.615   1.237   8.088 -0.7964 -1.2528  1.1873
   45MOL0     H 6051   2.795   1.009   8.049 -2.9817 -2.4372 -0.0038
   45MOL0     H 6052   2.807   1.115   8.186 -0.3462 -0.9542  1.0517
   45MOL0     H 6053   2.578   0.927   8.115 -3.5398  1.6981  1.3199
   45MOL0     H 6054   2.562   1.060   8.226  1.1730  1.3696 -0.7166
   45MOL0     H 6055   2.736   0.965   8.375  1.0982 -4.1610  3.3268
   45MOL0     H 6056   2.802   0.852   8.246 -0.4697  0.2607 -0.4742
   45MOL0     H 6057   2.968   1.133   7.602  0.5237  0.5295 -3.0662
   45MOL0     H 6058   3.052   0.929   7.503 -0.1832  1.7038 -0.8234
   45MOL0     H 6059   3.485   0.752   7.433 -1.2188  0.5737 -0.1588
   45MOL0     H 6060   3.664   0.599   7.368 -2.6946 -0.7784 -1.2705
   45MOL0     H 6061   4.880  -0.168   8.360 -2.3807  0.9898  0.3234
   45MOL0     H 6062   5.091  -0.049   8.355 -0.2993 -1.1137 -1.1635
   45MOL0     H 6063   5.300   0.345   8.176 -1.8224 -0.6134  3.9849
   45MOL0     H 6064   5.529   0.463   8.115  1.2869  0.2322  0.6802
   45MOL0     H 6065   5.854   0.410   8.423  2.9390 -0.4504  0.2709
   45MOL0     H 6066   5.879   0.304   8.283  0.3968  0.4426  0.9458
   45MOL0     H 6067   5.973   0.600   8.319  0.6326  0.4981 -0.8866
   45MOL0     H 6068   5.993   0.494   8.167  0.8270  2.4300  0.0381
   45MOL0     H 6069   6.130   0.353   8.256 -0.9905  1.1659 -2.0623
   45MOL0     H 6070   6.077   0.395   8.428  2.2925 -0.3685 -1.0708
   45MOL0     H 6071   6.203   0.602   8.423 -3.3698 -0.5934  0.5044
   45MOL0     H 6072   6.241   0.585   8.248 -3.1224 -0.2011 -1.2427
   45MOL0     H 6073   6.559   0.380   8.400  0.4344  2.9635 -0.0166
   45MOL0     H 6074   5.692   0.276   8.459  0.0165 -0.7866 -0.1406
   45MOL0     H 6075   5.483   0.182   8.524 -0.1376  2.1744  1.5388
   46MOL0     O 6076   9.821   9.707  10.556 -0.1087 -0.2073  0.1131
   46MOL0     C 6077   9.905   9.756  10.481  0.9752 -0.5092  0.6427
   46MOL0     O 6078  10.042   9.754  10.494 -0.6549  0.1044 -0.0394
   46MOL0     C 6079  10.106   9.670  10.586  1.5223  0.1798 -0.4661
   46MOL0     C 6080  10.059   9.660  10.719  0.1132 -0.0020 -0.0271
   46MOL0     C 6081  10.124   9.579  10.810  0.4190 -0.3272  0.4943
   46MOL0     C 6082  10.234   9.502  10.769 -0.1727 -0.4680  0.0438
   46MOL0     O 6083  10.301   9.447  10.876  0.4183  0.2787  0.9727
   46MOL0     C 6084  10.402   9.359  10.844  0.0694  0.2862 -0.1038
   46MOL0     C 6085  10.446   9.303  10.975 -0.1991 -0.8589 -0.8461
   46MOL0     C 6086  10.563   9.206  10.963  0.0234  0.0092 -0.1829
   46MOL0     C 6087  10.676   9.230  11.067 -0.0192  0.2683 -0.0240
   46MOL0     C 6088  10.784   9.121  11.064 -0.4721 -0.8936 -0.5051
   46MOL0     C 6089  10.849   9.077  10.930  0.5377 -0.1450  0.2984
   46MOL0     C 6090  10.964   8.979  10.936 -0.1019  0.7246  0.2341
   46MOL0     C 6091  11.018   8.941  10.798  0.0922  0.1993  0.3294
   46MOL0     N 6092  11.110   9.045  10.740  0.1122  0.7693  0.1198
   46MOL0     C 6093  11.074   9.131  10.638  0.2839 -0.1674 -0.0485
   46MOL0     C 6094  11.179   9.210  10.621 -0.2226 -1.0283 -0.3669
   46MOL0     C 6095  11.173   9.327  10.525  0.1273 -0.6286  0.5409
   46MOL0     C 6096  11.207   9.282  10.378  1.3541 -1.0797 -0.3848
   46MOL0     C 6097  11.180   9.395  10.279 -0.4976  0.2154 -0.6591
   46MOL0     C 6098  11.260   9.366  10.150  0.6357  0.2159 -0.1667
   46MOL0     O 6099  11.402   9.396  10.173 -0.1469  0.8096 -0.0336
   46MOL0     C 6100  11.453   9.517  10.210 -0.6945  0.4633  0.3024
   46MOL0     C 6101  11.392   9.638  10.191  0.5152  0.1967 -0.5317
   46MOL0     C 6102  11.449   9.758  10.231  0.2144 -0.5715 -0.5684
   46MOL0     C 6103  11.374   9.878  10.190  0.2813 -0.8495  0.1743
   46MOL0     C 6104  11.573   9.761  10.287  0.2690  0.1374  0.5005
   46MOL0     C 6105  11.639   9.887  10.322 -0.5066  0.1567 -0.2567
   46MOL0     O 6106  11.565   9.988  10.368 -0.6850  0.2328 -0.1653
   46MOL0     C 6107  11.630  10.102  10.394  0.7377 -0.4929 -0.9316
   46MOL0     C 6108  11.591  10.218  10.327 -0.2916 -0.5108 -0.2292
   46MOL0     C 6109  11.657  10.338  10.348  0.4884  0.1650  1.0674
   46MOL0     C 6110  11.763  10.352  10.446  0.1162  0.2086  0.1831
   46MOL0     O 6111  11.819  10.476  10.462 -0.8855 -0.1042 -0.4984
   46MOL0     C 6112  11.848  10.499  10.605  0.0377  0.0783  1.1368
   46MOL0     C 6113  11.880  10.644  10.634  0.2320 -0.2703 -0.3330
   46MOL0     C 6114  11.898  10.673  10.785 -0.3875 -0.1981  0.0437
   46MOL0     C 6115  12.037  10.639  10.822 -0.3420  1.0810  0.8886
   46MOL0     C 6116  12.086  10.713  10.946 -0.3518  0.2627  0.1947
   46MOL0     C 6117  12.235  10.676  10.977 -0.4205  0.5317  0.4146
   46MOL0     C 6118  12.281  10.715  11.118  0.2328 -1.1875  0.1818
   46MOL0     C 6119  12.430  10.696  11.151 -0.4809  0.0172  0.3430
   46MOL0    Cl 6120  12.470  10.524  11.151  0.1944  0.5679  0.1388
   46MOL0     C 6121  11.804  10.231  10.518  0.2627  0.1165 -1.2304
   46MOL0     C 6122  11.730  10.112  10.495 -0.2390  0.6977 -0.4417
   46MOL0     O 6123  11.760   9.869  10.353 -0.2602 -0.3797 -0.3673
   46MOL0     C 6124  11.643   9.639  10.301  0.0231  0.9100 -0.7966
   46MOL0     C 6125  11.580   9.522  10.267  1.7735  0.6632  0.3105
   46MOL0     N 6126  11.286   9.164  10.699  0.6315  0.1120 -0.9604
   46MOL0     N 6127  11.236   9.070  10.777 -0.3851  0.6219 -0.5709
   46MOL0     C 6128  10.272   9.502  10.637  0.3063  0.5735  0.3326
   46MOL0     C 6129  10.202   9.584  10.548  0.1134 -0.0395  0.3807
   46MOL0     C 6130   9.843   9.823  10.364 -1.0391  0.0227 -0.4200
   46MOL0     C 6131   9.914   9.839  10.249 -0.3908 -0.1838 -0.1271
   46MOL0     C 6132   9.860   9.887  10.130 -0.7281  0.6073  0.1076
   46MOL0     C 6133   9.722   9.926  10.121 -1.0448  0.5565  0.2825
   46MOL0     O 6134   9.648   9.982  10.013 -0.4287  0.8922 -0.1460
   46MOL0     C 6135   9.721  10.017   9.899 -0.1147 -0.1999 -0.3744
   46MOL0     C 6136   9.635  10.042   9.786  0.7587 -0.4645  0.4906
   46MOL0     C 6137   9.548   9.918   9.737 -0.5967 -0.8422  0.6890
   46MOL0     C 6138   9.451   9.867   9.841  0.0122  0.9378 -0.0295
   46MOL0     C 6139   9.350   9.764   9.793 -0.4201  0.2835 -0.2505
   46MOL0     C 6140   9.272   9.681   9.741  0.3317 -0.6784 -0.2781
   46MOL0     C 6141   9.654   9.929  10.247 -0.5030 -0.1271 -0.3184
   46MOL0     C 6142   9.710   9.869  10.370  0.5974 -0.2102 -0.4245
   46MOL0     H 6143   9.977   9.725  10.749 -2.0926 -1.5208 -2.3231
   46MOL0     H 6144  10.078   9.589  10.908 -2.9488  0.1420 -0.9763
   46MOL0     H 6145  10.357   9.281  10.780 -1.5965  0.8207  0.3599
   46MOL0     H 6146  10.483   9.413  10.795  1.5238 -0.2293  1.6388
   46MOL0     H 6147  10.473   9.388  11.039 -1.2535 -2.6713  2.2261
   46MOL0     H 6148  10.356   9.260  11.021 -0.5733  0.7242 -0.0033
   46MOL0     H 6149  10.521   9.105  10.975 -1.7665  0.2132 -3.4850
   46MOL0     H 6150  10.600   9.216  10.860  0.3433  2.2343  0.1095
   46MOL0     H 6151  10.723   9.325  11.038  1.1938  0.3031  1.8791
   46MOL0     H 6152  10.641   9.243  11.170 -0.1761  1.8608 -0.2527
   46MOL0     H 6153  10.864   9.155  11.130 -1.1616 -1.3689  0.6128
   46MOL0     H 6154  10.736   9.038  11.118 -0.1035 -1.2419 -0.7035
   46MOL0     H 6155  10.780   9.033  10.858  0.2814 -1.1992  1.1598
   46MOL0     H 6156  10.887   9.171  10.888  4.3603 -2.1914 -1.3059
   46MOL0     H 6157  11.043   9.035  10.987 -0.0147 -0.6248  1.6726
   46MOL0     H 6158  10.940   8.892  10.997  1.2174 -0.4910 -0.9120
   46MOL0     H 6159  10.927   8.932  10.739  0.5030 -2.3789 -0.0042
   46MOL0     H 6160  11.072   8.846  10.800 -0.9260 -0.3931  1.3688
   46MOL0     H 6161  10.979   9.130  10.586 -0.2807 -2.3708  0.8755
   46MOL0     H 6162  11.074   9.373  10.533  1.7270  3.5468 -0.8087
   46MOL0     H 6163  11.242   9.407  10.556 -0.9091  0.6188 -0.2428
   46MOL0     H 6164  11.151   9.192  10.352 -0.4268  0.3182 -1.6884
   46MOL0     H 6165  11.315   9.270  10.370  1.2018 -2.5477 -0.3592
   46MOL0     H 6166  11.203   9.486  10.335 -0.9502 -1.4839  2.4755
   46MOL0     H 6167  11.076   9.381  10.247  0.3640  0.0750 -3.7281
   46MOL0     H 6168  11.226   9.433  10.071  0.4163  2.8675  2.0367
   46MOL0     H 6169  11.254   9.258  10.131  1.1175  0.6405 -3.2378
   46MOL0     H 6170  11.307   9.634  10.124  0.9565 -3.3835 -1.0984
   46MOL0     H 6171  11.437   9.953  10.143  0.0344 -1.4928 -1.2504
   46MOL0     H 6172  11.308   9.859  10.105  1.4550  1.9590 -1.4994
   46MOL0     H 6173  11.307   9.913  10.269 -0.6358 -0.7973 -0.5993
   46MOL0     H 6174  11.526  10.200  10.242  1.1210 -2.2969 -1.0121
   46MOL0     H 6175  11.634  10.434  10.302  1.0218 -1.1775 -2.3163
   46MOL0     H 6176  11.756  10.473  10.657  1.0185 -0.5097  2.6432
   46MOL0     H 6177  11.923  10.432  10.649 -1.1450 -0.9036  1.7321
   46MOL0     H 6178  11.970  10.679  10.582 -0.5450  1.9573 -0.3154
   46MOL0     H 6179  11.796  10.700  10.593 -0.4499 -0.3020  0.9654
   46MOL0     H 6180  11.827  10.613  10.843  1.2210 -3.3668 -0.9967
   46MOL0     H 6181  11.877  10.779  10.798 -1.6805 -0.4603  0.2085
   46MOL0     H 6182  12.024  10.533  10.844 -2.4326  0.8378 -1.1811
   46MOL0     H 6183  12.101  10.645  10.734 -1.2509  1.1843  0.2251
   46MOL0     H 6184  12.026  10.675  11.029 -0.4152 -3.7678 -1.4547
   46MOL0     H 6185  12.083  10.822  10.933  3.5548  0.4528 -0.1281
   46MOL0     H 6186  12.249  10.568  10.966  4.3578  1.1535 -2.6327
   46MOL0     H 6187  12.300  10.706  10.894 -2.7159 -0.1535 -1.7818
   46MOL0     H 6188  12.219  10.668  11.195  0.1152  1.5743  1.9162
   46MOL0     H 6189  12.267  10.824  11.117 -0.3778 -1.2228 -2.3743
   46MOL0     H 6190  12.457  10.745  11.245 -0.4513  0.5995  0.0333
   46MOL0     H 6191  12.494  10.747  11.079 -0.2385 -2.1486 -1.0783
   46MOL0     H 6192  11.887  10.232  10.587 -1.4799  2.8911  1.0800
   46MOL0     H 6193  11.776  10.026  10.541 -1.1290  1.0154  1.1086
   46MOL0     H 6194  11.741   9.628  10.345 -1.0170 -0.8618  1.2672
   46MOL0     H 6195  11.629   9.429  10.294  0.8950  0.2658  0.5699
   46MOL0     H 6196  10.345   9.438  10.589  0.8665  1.7546 -0.4292
   46MOL0     H 6197  10.237   9.579  10.446  2.6632 -1.4431  1.2547
   46MOL0     H 6198  10.010   9.792  10.235  0.2386  0.6467  1.2319
   46MOL0     H 6199   9.933   9.893  10.049 -1.3368  1.6569 -0.3923
   46MOL0     H 6200   9.773  10.111   9.920 -1.6368  0.2583  1.6066
   46MOL0     H 6201   9.797   9.944   9.870  3.5790  3.0988  0.0875
   46MOL0     H 6202   9.706  10.068   9.706  1.0384 -2.0796  0.1788
   46MOL0     H 6203   9.568  10.127   9.797  0.9382 -0.0761 -1.1034
   46MOL0     H 6204   9.614   9.849   9.684  2.2591  3.0612 -1.3314
   46MOL0     H 6205   9.475   9.968   9.674  1.2219  0.3443 -0.5946
   46MOL0     H 6206   9.396   9.949   9.888 -2.7679 -0.0815 -1.3481
   46MOL0     H 6207   9.514   9.813   9.913  0.2705 -0.8178 -1.5177
   46MOL0     H 6208   9.203   9.606   9.710 -3.1511  0.9935  2.6287
   46MOL0     H 6209   9.550   9.962  10.249 -0.2408  1.4292 -4.2693
   46MOL0     H 6210   9.645   9.864  10.457 -0.0484  0.0182 -0.8843
   47MOL0     O 6211   4.325   3.642  10.366  0.4168 -0.3176  0.5103
   47MOL0     C 6212   4.384   3.673  10.268  0.6498 -0.0216 -0.2944
   47MOL0     O 6213   4.461   3.784  10.254  0.2741  0.2345  0.1569
   47MOL0     C 6214   4.493   3.851  10.372 -0.1032  0.5052  0.5178
   47MOL0     C 6215   4.626   3.832  10.414  0.0276 -0.4101  0.2908
   47MOL0     C 6216   4.682   3.907  10.522  0.8070  0.4172  0.6761
   47MOL0     C 6217   4.588   3.973  10.605  0.7768  0.4340 -0.1445
   47MOL0     O 6218   4.634   4.042  10.712  0.3747  0.3470 -1.2192
   47MOL0     C 6219   4.692   3.952  10.813 -0.2863 -0.5650 -0.7330
   47MOL0     C 6220   4.748   4.033  10.934  0.0209  0.1946 -0.0010
   47MOL0     C 6221   4.653   4.128  10.996  0.5455  0.7223 -0.3791
   47MOL0     C 6222   4.731   4.209  11.091  0.8587 -0.4016 -0.0883
   47MOL0     C 6223   4.643   4.300  11.172  0.4526  0.0564 -0.1803
   47MOL0     C 6224   4.591   4.227  11.300 -0.5423  0.0771 -0.5009
   47MOL0     C 6225   4.550   4.331  11.410  0.0111 -0.0210 -0.2149
   47MOL0     C 6226   4.494   4.262  11.532  0.6245 -0.1993 -0.0767
   47MOL0     N 6227   4.477   4.366  11.643 -0.3515  0.1066 -0.3715
   47MOL0     C 6228   4.576   4.444  11.703 -0.2933  1.0128  0.1127
   47MOL0     C 6229   4.510   4.532  11.780 -0.5818  0.1030  0.6401
   47MOL0     C 6230   4.573   4.635  11.881  0.0446 -1.2972  0.1389
   47MOL0     C 6231   4.573   4.594  12.027  1.2262 -0.2441 -0.3838
   47MOL0     C 6232   4.430   4.559  12.074 -0.0994 -0.0410  0.6366
   47MOL0     C 6233   4.406   4.514  12.227 -0.0302  0.6688  0.2121
   47MOL0     O 6234   4.446   4.614  12.314  0.3846 -0.8170 -0.7735
   47MOL0     C 6235   4.411   4.605  12.447 -0.2610  0.5338  0.1090
   47MOL0     C 6236   4.327   4.498  12.489 -0.2215  0.7235 -0.1778
   47MOL0     C 6237   4.287   4.493  12.623  0.8124  0.4376 -1.0194
   47MOL0     C 6238   4.186   4.381  12.658 -0.4712  0.0626 -0.2011
   47MOL0     C 6239   4.312   4.602  12.710 -1.0976 -0.5644  0.4192
   47MOL0     C 6240   4.252   4.620  12.839 -0.5328 -0.9521 -1.0553
   47MOL0     O 6241   4.202   4.748  12.866  0.4210 -0.2752 -0.2556
   47MOL0     C 6242   4.126   4.761  12.975 -0.2685 -0.0186  0.1883
   47MOL0     C 6243   4.185   4.804  13.091 -0.3638  0.0182 -0.0844
   47MOL0     C 6244   4.101   4.832  13.204  0.4634  0.3419  0.7186
   47MOL0     C 6245   3.963   4.829  13.191  1.5365  0.0727 -0.2370
   47MOL0     O 6246   3.864   4.860  13.288 -0.1240 -0.5918 -0.0541
   47MOL0     C 6247   3.891   4.855  13.426 -0.0728  0.4601  0.9408
   47MOL0     C 6248   3.775   4.777  13.498  0.5819 -0.0240 -0.8966
   47MOL0     C 6249   3.715   4.669  13.414  0.4439 -0.1840  0.4627
   47MOL0     C 6250   3.616   4.584  13.492  0.8803 -0.1566 -0.0683
   47MOL0     C 6251   3.592   4.449  13.420  0.5123  1.3006 -0.9264
   47MOL0     C 6252   3.484   4.371  13.498 -0.2973  0.2896 -0.2753
   47MOL0     C 6253   3.343   4.422  13.466 -0.2057 -0.3662  0.6736
   47MOL0     C 6254   3.240   4.354  13.550  0.1558  0.2274  1.3016
   47MOL0    Cl 6255   3.234   4.180  13.535  0.1618  0.4175 -0.1177
   47MOL0     C 6256   3.902   4.782  13.072  0.5887 -0.6048 -0.6101
   47MOL0     C 6257   3.979   4.742  12.958 -0.2609 -0.0332  0.4026
   47MOL0     O 6258   4.277   4.525  12.921 -0.2603 -0.0095  0.9289
   47MOL0     C 6259   4.406   4.698  12.665  0.8334  0.8335 -0.4142
   47MOL0     C 6260   4.463   4.693  12.534  0.1697 -0.7583  0.0501
   47MOL0     N 6261   4.376   4.520  11.750  0.1944  0.7304  0.1803
   47MOL0     N 6262   4.356   4.418  11.679 -0.7604  0.1499  0.3769
   47MOL0     C 6263   4.454   3.985  10.572  0.3106  0.3078  0.2406
   47MOL0     C 6264   4.409   3.930  10.453  0.3839  0.3378 -0.6117
   47MOL0     C 6265   4.341   3.602  10.146  0.1784 -0.2645  0.0246
   47MOL0     C 6266   4.238   3.510  10.141  0.7778  0.3516  0.5502
   47MOL0     C 6267   4.190   3.453  10.024  0.3761 -0.0398  0.3205
   47MOL0     C 6268   4.239   3.483   9.902  0.2608 -0.2221  0.0669
   47MOL0     O 6269   4.194   3.424   9.789  0.1811  0.4775 -0.4921
   47MOL0     C 6270   4.060   3.437   9.749 -0.1130 -0.4586  0.3001
   47MOL0     C 6271   4.055   3.442   9.593 -0.2424 -0.4467 -1.4003
   47MOL0     C 6272   4.123   3.558   9.524 -0.7420 -0.1216 -0.9858
   47MOL0     C 6273   4.129   3.552   9.374 -0.2165 -0.2433 -0.7060
   47MOL0     C 6274   4.001   3.572   9.294  0.1164 -0.4702 -0.6839
   47MOL0     C 6275   3.905   3.598   9.217 -0.7617  0.1617  0.4887
   47MOL0     C 6276   4.348   3.573   9.904  0.0140  1.0235  0.2187
   47MOL0     C 6277   4.403   3.624  10.019  0.7535 -0.3739 -0.7353
   47MOL0     H 6278   4.700   3.769  10.364  0.5509  1.5371 -1.5069
   47MOL0     H 6279   4.788   3.889  10.535  0.7354 -2.4462 -1.5608
   47MOL0     H 6280   4.620   3.878  10.848 -0.7302  0.9108  1.7400
   47MOL0     H 6281   4.782   3.905  10.773 -0.4263  0.8184 -2.8368
   47MOL0     H 6282   4.782   3.957  11.005  0.9527  1.6008  1.0989
   47MOL0     H 6283   4.835   4.091  10.903  1.7251  0.8074  5.0619
   47MOL0     H 6284   4.609   4.198  10.925 -0.2888  3.0128  2.1817
   47MOL0     H 6285   4.568   4.071  11.036  0.4752  0.5005 -0.8417
   47MOL0     H 6286   4.789   4.152  11.164  0.0435 -0.1695  0.7553
   47MOL0     H 6287   4.795   4.278  11.035  1.7422  0.5465  1.9957
   47MOL0     H 6288   4.697   4.391  11.199 -0.4217  0.3579  0.5934
   47MOL0     H 6289   4.551   4.327  11.120 -0.5308 -0.1737  1.3850
   47MOL0     H 6290   4.514   4.151  11.287  0.6311 -1.5056  1.3176
   47MOL0     H 6291   4.676   4.169  11.335  0.8756  1.5305 -1.3690
   47MOL0     H 6292   4.638   4.392  11.435  2.1279 -2.3280 -1.5609
   47MOL0     H 6293   4.484   4.410  11.375  0.2757 -0.5060 -1.9053
   47MOL0     H 6294   4.564   4.186  11.570  0.8575 -0.0921 -0.2902
   47MOL0     H 6295   4.395   4.221  11.512  1.7851 -2.5355 -1.5077
   47MOL0     H 6296   4.684   4.438  11.692 -0.4232 -0.4958 -0.6143
   47MOL0     H 6297   4.677   4.656  11.854 -0.0156  0.9404  1.4333
   47MOL0     H 6298   4.517   4.727  11.860 -0.5181 -1.1665  2.0817
   47MOL0     H 6299   4.612   4.674  12.091  0.0440 -0.5176  0.7217
   47MOL0     H 6300   4.651   4.519  12.046  2.7573  1.5051  0.5266
   47MOL0     H 6301   4.390   4.476  12.016 -1.6244  1.4822 -0.5754
   47MOL0     H 6302   4.362   4.644  12.060 -1.0717 -0.1653  3.7901
   47MOL0     H 6303   4.462   4.422  12.249 -0.2241  0.9825  2.1861
   47MOL0     H 6304   4.299   4.494  12.237 -0.1149  0.6645 -0.6289
   47MOL0     H 6305   4.299   4.415  12.425  3.1485 -0.5411 -0.1787
   47MOL0     H 6306   4.236   4.283  12.662 -0.0389  0.2908  0.1645
   47MOL0     H 6307   4.133   4.400  12.752  1.0397  1.0464  0.5014
   47MOL0     H 6308   4.115   4.367  12.577  0.1780 -1.5254 -0.5441
   47MOL0     H 6309   4.291   4.825  13.099 -0.5256  1.9251 -2.0196
   47MOL0     H 6310   4.138   4.869  13.299  0.5311 -0.2103  0.9114
   47MOL0     H 6311   3.985   4.800  13.433  0.6833  0.9293 -2.8850
   47MOL0     H 6312   3.901   4.953  13.473  1.8682  1.2008 -0.8432
   47MOL0     H 6313   3.810   4.749  13.598 -1.7785 -1.6054 -0.4348
   47MOL0     H 6314   3.699   4.850  13.525  1.2070  0.0625  0.7325
   47MOL0     H 6315   3.792   4.603  13.373 -0.7583 -2.9285  2.3095
   47MOL0     H 6316   3.660   4.708  13.328  0.2104  0.4178  0.8743
   47MOL0     H 6317   3.643   4.579  13.597 -1.4040 -0.7398  0.5563
   47MOL0     H 6318   3.522   4.640  13.483 -0.1077 -1.9989 -3.1454
   47MOL0     H 6319   3.687   4.397  13.408  0.4471  1.4543 -2.2737
   47MOL0     H 6320   3.556   4.467  13.318  0.6184  2.6657 -0.7425
   47MOL0     H 6321   3.494   4.266  13.472 -1.5581 -0.5986  2.4626
   47MOL0     H 6322   3.502   4.378  13.606  2.1637 -1.0859 -0.5305
   47MOL0     H 6323   3.325   4.401  13.360 -0.0167 -1.3454  0.8193
   47MOL0     H 6324   3.340   4.531  13.472  0.0564 -0.1750 -1.6924
   47MOL0     H 6325   3.146   4.403  13.523  0.8922  1.9345  1.7225
   47MOL0     H 6326   3.258   4.363  13.657 -2.2847 -2.1665  2.0381
   47MOL0     H 6327   3.794   4.781  13.073  0.4067  3.2442  1.5859
   47MOL0     H 6328   3.945   4.720  12.858  2.7299  0.1258 -0.7323
   47MOL0     H 6329   4.429   4.773  12.740 -1.9269 -0.7183  2.1857
   47MOL0     H 6330   4.532   4.773  12.511 -0.3771 -0.0862  0.7039
   47MOL0     H 6331   4.388   4.028  10.646 -0.7557  2.0142 -1.5939
   47MOL0     H 6332   4.304   3.918  10.428 -0.4586  1.7385  1.8366
   47MOL0     H 6333   4.187   3.481  10.232 -0.5741 -4.6156 -1.4851
   47MOL0     H 6334   4.102   3.389  10.025 -0.4157  1.0287  1.3725
   47MOL0     H 6335   3.995   3.357   9.786 -0.4221  1.1123  3.4575
   47MOL0     H 6336   4.021   3.532   9.786  1.4370  0.7703 -1.0735
   47MOL0     H 6337   3.948   3.444   9.571 -0.4602 -1.9842 -0.6408
   47MOL0     H 6338   4.084   3.344   9.553 -1.9130 -0.6268 -2.2643
   47MOL0     H 6339   4.228   3.558   9.554 -1.3300  1.3353  1.4681
   47MOL0     H 6340   4.091   3.658   9.555 -0.7492  0.9905 -4.2664
   47MOL0     H 6341   4.168   3.455   9.340 -1.5233 -1.3611  0.8433
   47MOL0     H 6342   4.194   3.629   9.331 -2.2285  1.5844 -0.6505
   47MOL0     H 6343   3.813   3.619   9.167 -0.6676  1.9655  1.0032
   47MOL0     H 6344   4.400   3.589   9.810  1.8569 -1.8731  0.6213
   47MOL0     H 6345   4.487   3.689  10.000  2.3047 -1.9196  0.5144
   48MOL0     O 6346   2.072   2.200   8.113  0.0800 -0.2055  0.3381
   48MOL0     C 6347   2.140   2.146   8.031  0.1167 -0.3328 -0.0770
   48MOL0     O 6348   2.089   2.079   7.928  0.2252  0.1725  1.1083
   48MOL0     C 6349   1.955   2.061   7.921  1.0250  0.3207 -0.2962
   48MOL0     C 6350   1.894   1.979   8.020  0.3319  0.1419  0.5645
   48MOL0     C 6351   1.752   1.960   8.026 -0.6006  0.3885 -0.5120
   48MOL0     C 6352   1.672   1.996   7.925  0.3077 -1.1526 -0.4002
   48MOL0     O 6353   1.538   1.970   7.949 -0.4158  0.3104  0.2633
   48MOL0     C 6354   1.471   1.932   7.825 -0.1112  0.0569  0.3602
   48MOL0     C 6355   1.342   1.854   7.856 -0.3033  0.9709 -0.5446
   48MOL0     C 6356   1.230   1.957   7.899 -0.2472 -0.2767 -0.4461
   48MOL0     C 6357   1.143   2.027   7.790  0.0035  0.0817 -0.1650
   48MOL0     C 6358   1.023   2.104   7.854 -0.0579  0.4617  0.0984
   48MOL0     C 6359   0.910   2.003   7.889  0.4549 -0.0469 -0.5257
   48MOL0     C 6360   0.804   1.996   7.775 -0.6326 -0.2709 -0.0531
   48MOL0     C 6361   0.729   2.123   7.771  0.6905  0.0829 -0.0971
   48MOL0     N 6362   0.593   2.110   7.717  0.6879  0.0252  0.1896
   48MOL0     C 6363   0.481   2.091   7.799 -1.0907  0.2510  0.3212
   48MOL0     C 6364   0.379   2.117   7.722  0.0868  0.2341 -0.3535
   48MOL0     C 6365   0.235   2.124   7.771  1.2171  0.2413  0.4653
   48MOL0     C 6366   0.166   1.988   7.745 -0.4879 -0.3055 -0.5942
   48MOL0     C 6367   0.029   1.998   7.789  0.5973  0.3473 -0.3065
   48MOL0     C 6368  -0.044   1.858   7.801 -0.2447 -0.1278 -0.9663
   48MOL0     O 6369  -0.166   1.867   7.862  0.4834 -0.7665  0.2086
   48MOL0     C 6370  -0.234   1.744   7.888 -0.3161 -0.6411 -0.5833
   48MOL0     C 6371  -0.180   1.615   7.859  0.5285  0.1566  0.1363
   48MOL0     C 6372  -0.264   1.502   7.869 -1.1955  0.3088  0.8097
   48MOL0     C 6373  -0.190   1.370   7.867  0.1301  0.4101  0.0725
   48MOL0     C 6374  -0.401   1.512   7.903 -0.5544 -0.4025 -0.0235
   48MOL0     C 6375  -0.493   1.395   7.914 -0.4281  0.9671  0.1873
   48MOL0     O 6376  -0.443   1.276   7.963 -0.0902  0.6933  0.8901
   48MOL0     C 6377  -0.531   1.173   7.961 -0.0416 -0.6484  0.8536
   48MOL0     C 6378  -0.536   1.082   7.853 -0.4980 -1.0659 -0.0226
   48MOL0     C 6379  -0.640   0.989   7.847  0.4374  1.1200 -0.5561
   48MOL0     C 6380  -0.720   0.964   7.961  0.0502 -0.2951  1.2121
   48MOL0     O 6381  -0.807   0.862   7.960 -0.4446 -0.6981  0.9617
   48MOL0     C 6382  -0.765   0.735   7.902 -0.1268  0.0188 -1.2871
   48MOL0     C 6383  -0.816   0.622   7.992  0.2210  0.1246 -0.1086
   48MOL0     C 6384  -0.977   0.626   8.001 -0.5322  0.9145  0.2712
   48MOL0     C 6385  -1.035   0.563   8.137 -1.2171 -0.2989  0.4273
   48MOL0     C 6386  -1.016   0.651   8.268 -0.8095 -0.8374 -0.7113
   48MOL0     C 6387  -1.022   0.588   8.407  0.6943 -0.3500  0.2385
   48MOL0     C 6388  -0.988   0.692   8.520 -0.3767 -0.5501 -1.1357
   48MOL0     C 6389  -0.930   0.635   8.646 -0.1906  0.0673  0.4858
   48MOL0    Cl 6390  -1.000   0.468   8.681  0.2623  0.4602 -0.5787
   48MOL0     C 6391  -0.716   1.055   8.062 -0.2628 -0.2347  0.0636
   48MOL0     C 6392  -0.625   1.160   8.062  0.2449  1.2786 -0.9095
   48MOL0     O 6393  -0.615   1.412   7.886  0.2461  0.1160  0.4565
   48MOL0     C 6394  -0.457   1.639   7.923 -0.3492 -0.1122  0.2497
   48MOL0     C 6395  -0.366   1.748   7.920  0.7502 -0.4830 -0.5325
   48MOL0     N 6396   0.417   2.159   7.597 -0.5567 -0.1691  0.8795
   48MOL0     N 6397   0.549   2.147   7.592 -1.2750 -0.0530  1.0901
   48MOL0     C 6398   1.735   2.077   7.822 -0.0119  0.9887  0.0154
   48MOL0     C 6399   1.869   2.113   7.821 -0.3151 -1.1118 -0.4659
   48MOL0     C 6400   2.290   2.161   8.060  1.3489  0.5949  0.3466
   48MOL0     C 6401   2.337   2.247   8.150  0.0232 -0.0311 -0.4364
   48MOL0     C 6402   2.476   2.267   8.166  0.3538 -0.7264 -0.3734
   48MOL0     C 6403   2.561   2.193   8.087 -0.4348 -0.2072  0.3367
   48MOL0     O 6404   2.697   2.199   8.092 -0.2753 -0.1754 -0.3826
   48MOL0     C 6405   2.744   2.335   8.101  0.1394  0.5519 -0.2838
   48MOL0     C 6406   2.876   2.333   8.032 -0.1173 -0.1022  0.0151
   48MOL0     C 6407   2.857   2.385   7.889  0.8703  0.1297 -0.6755
   48MOL0     C 6408   3.005   2.416   7.839 -0.3638 -0.2670  0.3214
   48MOL0     C 6409   3.090   2.294   7.823  0.2644 -0.2184 -0.0427
   48MOL0     C 6410   3.164   2.196   7.808 -0.7925 -0.6899 -0.3788
   48MOL0     C 6411   2.515   2.112   7.992 -0.1003  0.3794 -0.0962
   48MOL0     C 6412   2.379   2.095   7.979  0.4421  0.3934  0.8075
   48MOL0     H 6413   1.947   1.916   8.090  1.2495 -2.0995 -1.9679
   48MOL0     H 6414   1.708   1.894   8.100  1.9552 -2.3309 -1.2138
   48MOL0     H 6415   1.441   2.018   7.764 -4.1368 -1.6626 -0.4707
   48MOL0     H 6416   1.547   1.872   7.775 -0.1933 -0.6433  1.0558
   48MOL0     H 6417   1.304   1.784   7.781 -1.4337  2.1732 -1.1438
   48MOL0     H 6418   1.375   1.792   7.939 -2.0394  1.8705  0.9142
   48MOL0     H 6419   1.169   1.901   7.970  0.9998 -1.1600 -0.0366
   48MOL0     H 6420   1.278   2.035   7.958  0.1219 -0.6725 -0.2189
   48MOL0     H 6421   1.194   2.111   7.744 -1.1577 -0.2856 -2.2617
   48MOL0     H 6422   1.113   1.950   7.719  3.5592 -0.0891 -1.6770
   48MOL0     H 6423   1.061   2.145   7.948 -1.7133 -3.5935  2.8103
   48MOL0     H 6424   0.995   2.190   7.793  2.2996  0.2748 -1.3948
   48MOL0     H 6425   0.957   1.911   7.926 -0.3769  1.0399  3.8484
   48MOL0     H 6426   0.865   2.034   7.984 -2.6705  0.7501 -2.1234
   48MOL0     H 6427   0.846   1.969   7.678  2.9653  1.1567  0.9386
   48MOL0     H 6428   0.730   1.917   7.787  0.4869 -0.8914  5.7975
   48MOL0     H 6429   0.805   2.190   7.729  0.7700  1.5315  2.2294
   48MOL0     H 6430   0.718   2.173   7.867  1.9491  2.7241 -1.2057
   48MOL0     H 6431   0.480   2.063   7.904 -1.1571  0.2561  0.3221
   48MOL0     H 6432   0.227   2.164   7.873 -1.9066  1.1446 -0.0291
   48MOL0     H 6433   0.178   2.199   7.716 -1.2082 -1.5165  0.4163
   48MOL0     H 6434   0.228   1.920   7.803  2.2694  0.4201 -2.5070
   48MOL0     H 6435   0.168   1.949   7.643  1.4847 -3.8580  0.6416
   48MOL0     H 6436  -0.018   2.054   7.708  1.1428 -1.0346 -1.6181
   48MOL0     H 6437   0.018   2.034   7.892 -0.8853  0.3010 -0.4190
   48MOL0     H 6438   0.020   1.792   7.861 -2.9186 -1.4048  0.6279
   48MOL0     H 6439  -0.050   1.820   7.698  1.7994 -3.4523 -0.0281
   48MOL0     H 6440  -0.072   1.609   7.849  0.7244  0.0792  1.9540
   48MOL0     H 6441  -0.171   1.345   7.972 -3.6719 -0.5333  0.6903
   48MOL0     H 6442  -0.247   1.294   7.811  2.8677 -1.1176 -0.8090
   48MOL0     H 6443  -0.097   1.384   7.811  0.0399 -0.6046 -0.3610
   48MOL0     H 6444  -0.470   1.088   7.767  0.6793 -1.0092  0.8573
   48MOL0     H 6445  -0.639   0.915   7.768  0.8738  0.4925  0.0192
   48MOL0     H 6446  -0.778   0.733   7.793 -1.0429  0.6603 -1.1999
   48MOL0     H 6447  -0.657   0.737   7.920 -0.2003  0.9454 -0.9051
   48MOL0     H 6448  -0.773   0.531   7.950  0.2456 -1.5805  3.2364
   48MOL0     H 6449  -0.781   0.621   8.096 -1.1577 -3.1236  0.4647
   48MOL0     H 6450  -1.012   0.573   7.912  0.3633 -0.0382  0.4608
   48MOL0     H 6451  -1.006   0.731   7.999  2.9057  2.0065  0.3743
   48MOL0     H 6452  -1.143   0.546   8.128 -0.8647 -1.6600 -2.0528
   48MOL0     H 6453  -0.981   0.470   8.155  2.6864  1.5356 -0.7484
   48MOL0     H 6454  -1.091   0.730   8.258  1.8986  1.8443 -1.4102
   48MOL0     H 6455  -0.916   0.694   8.256 -1.8436  1.6309 -1.1874
   48MOL0     H 6456  -1.117   0.542   8.433  1.3020  0.4952  4.6985
   48MOL0     H 6457  -0.942   0.514   8.422 -0.2166 -1.1004  1.5151
   48MOL0     H 6458  -1.084   0.736   8.548  1.1233  2.1967  0.0456
   48MOL0     H 6459  -0.920   0.768   8.481  4.0199 -2.9550  1.0927
   48MOL0     H 6460  -0.960   0.703   8.727 -2.2816  0.7225 -0.7372
   48MOL0     H 6461  -0.822   0.639   8.659 -0.1554  0.5247  0.0871
   48MOL0     H 6462  -0.782   1.037   8.146 -1.2614  3.3059  0.1904
   48MOL0     H 6463  -0.627   1.230   8.145 -3.9671  0.5044 -0.1021
   48MOL0     H 6464  -0.558   1.657   7.958 -0.0259  2.1321  0.1475
   48MOL0     H 6465  -0.407   1.847   7.939  0.5234 -1.0436  2.3194
   48MOL0     H 6466   1.673   2.104   7.737  2.5431 -1.8427 -3.0094
   48MOL0     H 6467   1.900   2.152   7.724  1.9118 -1.5830 -0.0053
   48MOL0     H 6468   2.275   2.329   8.185  2.1930  1.5343 -0.0136
   48MOL0     H 6469   2.519   2.337   8.238  2.0205 -1.7942 -0.2596
   48MOL0     H 6470   2.679   2.416   8.066 -1.9811 -1.2363 -0.6890
   48MOL0     H 6471   2.766   2.363   8.204  1.1262 -2.3743  0.3768
   48MOL0     H 6472   2.920   2.233   8.039 -0.3560 -0.1464  0.9150
   48MOL0     H 6473   2.945   2.401   8.083 -1.1447  1.1440 -0.1997
   48MOL0     H 6474   2.796   2.476   7.886  1.1230  0.3195 -0.2384
   48MOL0     H 6475   2.812   2.305   7.830 -0.3031 -0.7587  1.3274
   48MOL0     H 6476   3.045   2.490   7.909 -2.0120  0.8797  0.1327
   48MOL0     H 6477   3.003   2.464   7.741  0.1874  0.2003  0.5361
   48MOL0     H 6478   3.241   2.121   7.810 -1.5754 -1.5213  1.5528
   48MOL0     H 6479   2.586   2.058   7.931  1.1430  1.1227  0.6581
   48MOL0     H 6480   2.342   2.022   7.908  0.0616 -0.6367  2.0289
   49MOL0     O 6481   4.542   3.139   3.234 -0.2089 -0.4740  0.2384
   49MOL0     C 6482   4.636   3.095   3.170 -0.1471 -0.1992 -0.4654
   49MOL0     O 6483   4.750   3.168   3.125  0.0769 -0.2456 -0.4277
   49MOL0     C 6484   4.738   3.310   3.143  0.7132  0.4006  0.1961
   49MOL0     C 6485   4.833   3.382   3.214 -0.6447 -0.4850 -0.0989
   49MOL0     C 6486   4.821   3.521   3.226  0.5801 -0.8837 -1.1964
   49MOL0     C 6487   4.719   3.594   3.145 -0.5465 -0.3159 -1.0512
   49MOL0     O 6488   4.706   3.724   3.137  0.0447  0.3199 -0.2159
   49MOL0     C 6489   4.704   3.800   3.256  0.8070  0.3779  0.7057
   49MOL0     C 6490   4.638   3.938   3.227 -0.2152  0.8867 -0.4998
   49MOL0     C 6491   4.647   4.031   3.347 -0.2042  0.2528  0.3462
   49MOL0     C 6492   4.787   4.094   3.365 -0.1523 -0.3257 -0.5679
   49MOL0     C 6493   4.802   4.182   3.492 -0.8281 -0.0498  0.4776
   49MOL0     C 6494   4.944   4.216   3.537 -0.7253 -0.5532 -0.2443
   49MOL0     C 6495   4.949   4.310   3.669  0.7153  0.1012  0.7685
   49MOL0     C 6496   4.930   4.456   3.646 -0.9502  0.5889  0.1514
   49MOL0     N 6497   4.942   4.541   3.763 -0.1238 -0.4475 -0.1206
   49MOL0     C 6498   5.057   4.548   3.844 -0.4312 -0.1415 -0.6249
   49MOL0     C 6499   5.019   4.640   3.937 -0.5129 -0.2559  0.1040
   49MOL0     C 6500   5.098   4.697   4.058 -0.4758  0.0541 -0.2354
   49MOL0     C 6501   5.159   4.591   4.144 -0.8953  0.6198  0.3403
   49MOL0     C 6502   5.196   4.659   4.279  0.1317 -0.4057 -0.0909
   49MOL0     C 6503   5.313   4.576   4.351  1.1180 -0.4159 -0.1589
   49MOL0     O 6504   5.370   4.657   4.447 -0.2414  0.0149 -0.4871
   49MOL0     C 6505   5.497   4.624   4.499  0.0243 -0.3662 -0.0348
   49MOL0     C 6506   5.588   4.529   4.451 -0.0441 -0.9854  0.3564
   49MOL0     C 6507   5.722   4.518   4.507 -0.4574  0.2717  0.4073
   49MOL0     C 6508   5.827   4.435   4.431 -0.2278 -0.1079 -0.2386
   49MOL0     C 6509   5.750   4.586   4.625  0.3298  0.2842 -0.1332
   49MOL0     C 6510   5.884   4.580   4.696  0.7101 -0.0544  0.2787
   49MOL0     O 6511   5.914   4.699   4.763  0.5001 -0.2753 -0.2301
   49MOL0     C 6512   6.039   4.694   4.827  0.3032 -1.0763  0.6483
   49MOL0     C 6513   6.072   4.609   4.933  0.1113  0.8368  0.2551
   49MOL0     C 6514   6.200   4.605   4.987 -0.1614  0.2519  0.5204
   49MOL0     C 6515   6.296   4.692   4.936 -0.8839 -0.2451 -0.0061
   49MOL0     O 6516   6.419   4.700   4.989  0.3540 -0.5533  0.1844
   49MOL0     C 6517   6.519   4.618   4.931 -1.0710 -0.1116 -0.8224
   49MOL0     C 6518   6.626   4.570   5.031 -0.6999 -0.6156  0.1900
   49MOL0     C 6519   6.660   4.422   5.023 -0.0838  0.2966  0.4221
   49MOL0     C 6520   6.734   4.398   4.886 -0.2844  0.4390 -0.2717
   49MOL0     C 6521   6.814   4.260   4.905  0.1861  0.1154 -0.4602
   49MOL0     C 6522   6.935   4.289   5.002  0.4853  0.4654  0.3313
   49MOL0     C 6523   7.060   4.210   5.002  0.5241  0.2291 -0.9186
   49MOL0     C 6524   7.181   4.262   5.086  0.2119  0.0138  0.0390
   49MOL0    Cl 6525   7.190   4.434   5.074 -0.0384  0.2541  0.2654
   49MOL0     C 6526   6.258   4.786   4.848 -0.4643 -0.1357  0.5800
   49MOL0     C 6527   6.137   4.783   4.783  0.3257  0.0667 -0.3981
   49MOL0     O 6528   5.926   4.472   4.723  0.0449  0.3205  0.4358
   49MOL0     C 6529   5.655   4.672   4.682 -0.2760 -0.1674 -0.3650
   49MOL0     C 6530   5.542   4.697   4.611  0.0984 -0.2895 -0.4803
   49MOL0     N 6531   4.895   4.682   3.910 -0.0398  0.5081  0.4409
   49MOL0     N 6532   4.841   4.615   3.813  0.5914 -1.1161 -0.4850
   49MOL0     C 6533   4.633   3.516   3.060 -0.8536  0.7670 -0.4941
   49MOL0     C 6534   4.652   3.373   3.051  0.0858  0.5087 -0.1342
   49MOL0     C 6535   4.643   2.938   3.130  0.3696 -0.5969  0.0861
   49MOL0     C 6536   4.761   2.874   3.088  0.1630  0.8329  0.2131
   49MOL0     C 6537   4.763   2.737   3.067  0.6178 -0.0137 -0.4291
   49MOL0     C 6538   4.658   2.651   3.094 -0.0169  0.5728  0.8159
   49MOL0     O 6539   4.690   2.519   3.099 -0.4850  0.0322 -0.4733
   49MOL0     C 6540   4.585   2.426   3.081 -0.4023 -1.1865  0.4005
   49MOL0     C 6541   4.532   2.418   2.933 -0.4861  0.7076 -0.3832
   49MOL0     C 6542   4.641   2.393   2.822 -0.5404  0.4719 -0.7125
   49MOL0     C 6543   4.578   2.313   2.703 -1.1932 -0.3697 -0.1473
   49MOL0     C 6544   4.582   2.165   2.714 -0.2113 -1.0615  0.0740
   49MOL0     C 6545   4.609   2.049   2.721 -0.8675  0.1680 -0.7522
   49MOL0     C 6546   4.537   2.722   3.125 -0.0443 -0.1703 -0.9052
   49MOL0     C 6547   4.524   2.864   3.135  0.3954  0.2275 -0.2669
   49MOL0     H 6548   4.919   3.338   3.262 -0.2799 -0.3892 -0.6432
   49MOL0     H 6549   4.890   3.566   3.296 -3.1373  2.3147  0.7953
   49MOL0     H 6550   4.647   3.744   3.330  0.2043 -1.8316 -1.2902
   49MOL0     H 6551   4.810   3.810   3.281  0.6353  1.0863  1.1593
   49MOL0     H 6552   4.688   3.993   3.147  1.9672  0.8517  0.7502
   49MOL0     H 6553   4.531   3.924   3.209 -0.5298 -1.2736  2.2865
   49MOL0     H 6554   4.562   4.099   3.347 -1.0863 -0.8148  0.8338
   49MOL0     H 6555   4.622   3.963   3.428 -1.9468  2.8137  2.0831
   49MOL0     H 6556   4.865   4.017   3.363 -2.5025 -2.8633 -1.6793
   49MOL0     H 6557   4.814   4.152   3.277 -1.8403 -2.0983 -2.3620
   49MOL0     H 6558   4.749   4.276   3.475  2.5298  1.5421 -2.1082
   49MOL0     H 6559   4.754   4.122   3.571  0.1013 -1.8183 -0.2313
   49MOL0     H 6560   4.989   4.123   3.571  3.9133  0.6232 -2.3114
   49MOL0     H 6561   4.999   4.256   3.451 -1.5791  0.4948 -0.3195
   49MOL0     H 6562   4.878   4.267   3.740  1.0006 -0.9346  0.4475
   49MOL0     H 6563   5.045   4.296   3.719  2.2375 -2.8773 -2.4920
   49MOL0     H 6564   4.824   4.460   3.618 -0.6732  1.2160 -0.8833
   49MOL0     H 6565   4.986   4.487   3.557  2.5625  0.0675  2.0293
   49MOL0     H 6566   5.152   4.495   3.844 -2.1996 -3.6949  1.5889
   49MOL0     H 6567   5.185   4.754   4.025  1.4257 -1.9040  1.1088
   49MOL0     H 6568   5.034   4.764   4.117  3.0451  3.1842  0.4169
   49MOL0     H 6569   5.241   4.551   4.084 -1.0284  0.5680  0.1930
   49MOL0     H 6570   5.086   4.511   4.161 -1.4146  0.7102 -1.3258
   49MOL0     H 6571   5.106   4.668   4.340 -1.0183 -1.1615 -1.6048
   49MOL0     H 6572   5.233   4.762   4.272 -0.7484  0.1752  2.7178
   49MOL0     H 6573   5.391   4.550   4.279  0.4109  0.4757 -1.2890
   49MOL0     H 6574   5.260   4.492   4.398 -3.1346  1.6773 -0.7775
   49MOL0     H 6575   5.545   4.475   4.367 -1.4790 -1.2212  1.2104
   49MOL0     H 6576   5.816   4.455   4.324  2.3551  1.0428 -0.3508
   49MOL0     H 6577   5.931   4.463   4.450 -0.3363  0.4575 -0.4370
   49MOL0     H 6578   5.827   4.328   4.451  0.2438 -0.4077 -1.7395
   49MOL0     H 6579   5.992   4.546   4.970 -0.1988  2.0723  1.8316
   49MOL0     H 6580   6.233   4.533   5.061  1.6115 -2.5574 -2.7534
   49MOL0     H 6581   6.463   4.534   4.888 -0.2823 -0.7759 -0.5853
   49MOL0     H 6582   6.572   4.666   4.848 -3.4678 -1.2417 -3.1655
   49MOL0     H 6583   6.714   4.631   5.007 -0.9059  0.9022  2.8763
   49MOL0     H 6584   6.605   4.599   5.134  4.0280 -1.2032  1.5593
   49MOL0     H 6585   6.569   4.361   5.036 -2.0568  2.2728 -2.7873
   49MOL0     H 6586   6.723   4.393   5.108 -0.8094 -1.8898  0.2897
   49MOL0     H 6587   6.661   4.381   4.807 -1.2906 -1.1118  0.9298
   49MOL0     H 6588   6.807   4.471   4.848  2.3935 -2.7416 -1.7624
   49MOL0     H 6589   6.851   4.231   4.807 -1.8842  0.1058 -1.2832
   49MOL0     H 6590   6.746   4.182   4.940  0.2569 -0.5127 -1.6927
   49MOL0     H 6591   6.964   4.390   4.972 -0.9736 -0.0015 -3.0991
   49MOL0     H 6592   6.903   4.291   5.107 -1.2449  1.6041 -0.1685
   49MOL0     H 6593   7.091   4.198   4.898  0.0182 -2.0017 -0.8530
   49MOL0     H 6594   7.034   4.111   5.041 -2.0709  1.2187  0.1746
   49MOL0     H 6595   7.280   4.227   5.054 -0.5785 -0.9447 -1.5422
   49MOL0     H 6596   7.166   4.240   5.192  2.0761  0.0858  0.3394
   49MOL0     H 6597   6.335   4.859   4.824 -2.0590  0.3763 -4.2019
   49MOL0     H 6598   6.119   4.846   4.696  2.1628 -2.1492 -2.5232
   49MOL0     H 6599   5.673   4.725   4.774  0.6476 -0.4946 -0.3447
   49MOL0     H 6600   5.478   4.772   4.656 -0.5893 -1.7329  1.0478
   49MOL0     H 6601   4.551   3.563   3.007 -0.8114  1.5527  0.1229
   49MOL0     H 6602   4.590   3.323   2.978  0.7268 -1.2247  0.4567
   49MOL0     H 6603   4.858   2.918   3.068 -0.9328  2.6278 -1.4676
   49MOL0     H 6604   4.852   2.687   3.031  1.0205  0.4938 -0.1416
   49MOL0     H 6605   4.624   2.327   3.106 -1.3271 -1.6237  0.1735
   49MOL0     H 6606   4.507   2.451   3.154 -1.5449 -0.5830 -0.9709
   49MOL0     H 6607   4.481   2.513   2.913 -2.3725  0.1499  1.4859
   49MOL0     H 6608   4.453   2.343   2.934  0.3770 -0.3115  2.9440
   49MOL0     H 6609   4.729   2.341   2.861  0.4687  1.9589 -0.9321
   49MOL0     H 6610   4.676   2.494   2.800 -1.2295  0.3206 -2.6266
   49MOL0     H 6611   4.641   2.342   2.619  0.0990 -2.7343 -0.0972
   49MOL0     H 6612   4.479   2.352   2.679 -0.3361  2.1202  0.0294
   49MOL0     H 6613   4.633   1.945   2.712  2.1190  0.7128 -0.1643
   49MOL0     H 6614   4.448   2.660   3.124  0.5510 -1.0384 -1.5168
   49MOL0     H 6615   4.431   2.910   3.165  0.0808 -1.2722  1.2470
   50MOL0     O 6616   2.387  10.666   9.813  0.0787  0.3527  0.3190
   50MOL0     C 6617   2.392  10.781   9.824  0.3072  0.4038  0.0918
   50MOL0     O 6618   2.509  10.839   9.850 -0.1623 -0.3691 -0.0153
   50MOL0     C 6619   2.624  10.773   9.847  0.0587 -0.7361  0.3353
   50MOL0     C 6620   2.702  10.791   9.966  0.4712  0.4409 -0.2287
   50MOL0     C 6621   2.822  10.719   9.979  0.2231  0.6503 -0.0446
   50MOL0     C 6622   2.861  10.640   9.869  0.2279  1.0013  0.5310
   50MOL0     O 6623   2.979  10.571   9.895 -0.0843  0.1295  0.6073
   50MOL0     C 6624   3.005  10.447   9.830  0.0407  0.1139  0.7992
   50MOL0     C 6625   3.091  10.352   9.915  0.7339 -0.2674 -0.2958
   50MOL0     C 6626   3.029  10.306  10.050 -0.0416 -0.3144  0.6996
   50MOL0     C 6627   3.138  10.287  10.151  0.0322  0.4438 -0.1639
   50MOL0     C 6628   3.078  10.204  10.271 -0.3706 -0.3504  0.5608
   50MOL0     C 6629   2.953  10.276  10.334  0.4590  0.8433 -0.9748
   50MOL0     C 6630   2.925  10.244  10.480 -0.0512  0.0003  0.1254
   50MOL0     C 6631   2.910  10.095  10.498 -0.3934  0.1061 -0.0370
   50MOL0     N 6632   2.965  10.031  10.620 -0.4871 -1.0874  0.3553
   50MOL0     C 6633   3.049  10.077  10.720  0.1180  0.3018  0.4457
   50MOL0     C 6634   3.071   9.968  10.799 -0.0228  0.4823 -0.4491
   50MOL0     C 6635   3.158   9.968  10.919  0.1936  0.1570 -0.1697
   50MOL0     C 6636   3.301  10.002  10.885 -0.1199 -0.6917  0.0287
   50MOL0     C 6637   3.378   9.915  10.785 -0.0594  0.7000  0.7863
   50MOL0     C 6638   3.373   9.769  10.808  0.1965 -0.8093  0.4644
   50MOL0     O 6639   3.395   9.721  10.938 -0.1069 -0.4498 -0.0558
   50MOL0     C 6640   3.429   9.587  10.961  0.7952 -0.2236  0.8573
   50MOL0     C 6641   3.519   9.562  11.060  0.7047  1.2735 -0.3301
   50MOL0     C 6642   3.579   9.429  11.078  0.6838  0.1078 -0.4041
   50MOL0     C 6643   3.683   9.408  11.175 -0.3756  0.2528  0.2564
   50MOL0     C 6644   3.519   9.323  11.003 -0.6615 -0.3866  0.6022
   50MOL0     C 6645   3.540   9.186  11.030 -0.0389  0.1848 -0.2717
   50MOL0     O 6646   3.479   9.101  10.947 -0.0558  0.3059  0.2238
   50MOL0     C 6647   3.507   8.967  10.941  0.3763  0.2876 -0.5420
   50MOL0     C 6648   3.399   8.886  10.901  0.4675  0.1815  1.0565
   50MOL0     C 6649   3.425   8.743  10.900 -0.7097  1.2200  0.3847
   50MOL0     C 6650   3.552   8.690  10.941  1.3050 -0.4631  0.3594
   50MOL0     O 6651   3.551   8.552  10.935  0.6387  0.2053 -0.6985
   50MOL0     C 6652   3.669   8.478  10.962 -0.4159  1.4327 -0.7249
   50MOL0     C 6653   3.669   8.339  10.893 -0.3947 -0.3723 -0.1757
   50MOL0     C 6654   3.567   8.247  10.959  0.7830 -0.0517  0.5412
   50MOL0     C 6655   3.610   8.103  10.910 -0.1215  0.4363 -0.5329
   50MOL0     C 6656   3.649   8.018  11.028  0.9658  0.1426  0.2404
   50MOL0     C 6657   3.601   7.878  11.017  0.1211  0.5035 -0.5087
   50MOL0     C 6658   3.652   7.808  10.889 -0.0519  0.1566  0.5392
   50MOL0     C 6659   3.620   7.661  10.900 -0.1421  0.8116  0.3332
   50MOL0    Cl 6660   3.710   7.557  11.014  0.1775  0.4294  0.2281
   50MOL0     C 6661   3.652   8.777  10.969  0.1369 -0.0820  0.1728
   50MOL0     C 6662   3.630   8.912  10.965  0.6260  0.9984 -0.4471
   50MOL0     O 6663   3.588   9.153  11.137 -0.5473 -0.3845  0.2233
   50MOL0     C 6664   3.425   9.357  10.906  0.6332  0.1851 -0.2907
   50MOL0     C 6665   3.381   9.487  10.880 -0.7639 -0.8116  0.5647
   50MOL0     N 6666   3.006   9.859  10.750 -0.2542 -0.3394 -0.8219
   50MOL0     N 6667   2.937   9.898  10.647  0.1330 -0.2577 -0.1776
   50MOL0     C 6668   2.790  10.632   9.748 -0.6397 -1.1609 -0.3002
   50MOL0     C 6669   2.670  10.696   9.746 -0.4549  0.2527 -0.0632
   50MOL0     C 6670   2.260  10.848   9.826 -0.9374 -0.4666  0.5311
   50MOL0     C 6671   2.239  10.968   9.900  0.8984  0.4083  0.1218
   50MOL0     C 6672   2.121  11.031   9.904 -0.3201 -0.5023  1.4892
   50MOL0     C 6673   2.010  10.975   9.839 -0.1405  0.4434  0.9499
   50MOL0     O 6674   1.888  11.041   9.841 -0.0993 -0.7747 -0.2117
   50MOL0     C 6675   1.760  11.007   9.788  0.3625 -0.4225 -0.2179
   50MOL0     C 6676   1.718  11.085   9.668  1.0624  0.2733  0.5750
   50MOL0     C 6677   1.706  11.233   9.697 -0.7721 -0.2901  0.1578
   50MOL0     C 6678   1.597  11.262   9.798  0.0618 -0.4985  0.6844
   50MOL0     C 6679   1.549  11.391   9.792  0.2174  0.0141 -0.7315
   50MOL0     C 6680   1.516  11.507   9.793  0.0654 -0.4197 -0.2513
   50MOL0     C 6681   2.025  10.852   9.767  0.1261 -0.8984  0.9695
   50MOL0     C 6682   2.148  10.786   9.763 -0.3790 -0.1323 -0.0529
   50MOL0     H 6683   2.675  10.841  10.059  0.6151 -0.7619  0.4871
   50MOL0     H 6684   2.877  10.740  10.070 -1.4218 -0.7296  1.3532
   50MOL0     H 6685   2.910  10.395   9.811 -0.3150  1.9107 -3.2854
   50MOL0     H 6686   3.050  10.462   9.732  0.3052 -2.2486  0.4941
   50MOL0     H 6687   3.107  10.267   9.848  1.7169 -0.2034 -0.1662
   50MOL0     H 6688   3.183  10.409   9.937  0.6151 -0.4729  0.7944
   50MOL0     H 6689   2.959  10.378  10.093 -0.6984  0.1415 -1.0696
   50MOL0     H 6690   2.979  10.211  10.033 -3.4000  1.2029  1.2585
   50MOL0     H 6691   3.215  10.230  10.099 -0.4304 -0.7042  0.3862
   50MOL0     H 6692   3.166  10.387  10.186 -1.0024  0.3080  1.0977
   50MOL0     H 6693   3.055  10.103  10.239  0.1343 -1.1786  2.6037
   50MOL0     H 6694   3.154  10.177  10.346  0.0062  0.3312  0.4367
   50MOL0     H 6695   2.973  10.383  10.336  1.2175  0.8725  4.4076
   50MOL0     H 6696   2.869  10.237  10.274  1.3363  0.2267 -1.8376
   50MOL0     H 6697   3.009  10.272  10.544 -0.1488 -1.7805  1.1163
   50MOL0     H 6698   2.836  10.295  10.518 -1.4229 -1.3760 -1.1085
   50MOL0     H 6699   2.949  10.047  10.408 -1.2775  1.1892 -1.0326
   50MOL0     H 6700   2.801  10.085  10.491 -1.0176  2.0769  3.8066
   50MOL0     H 6701   3.095  10.175  10.723  0.6218  0.0556  1.4965
   50MOL0     H 6702   3.121  10.045  10.987  0.6572  1.1700 -1.0380
   50MOL0     H 6703   3.163   9.869  10.966  1.9761  1.4825  2.7192
   50MOL0     H 6704   3.358   9.995  10.979 -1.1435  0.7344  0.8043
   50MOL0     H 6705   3.312  10.105  10.848  0.4432 -0.2823  1.2645
   50MOL0     H 6706   3.479   9.957  10.782  0.2549 -0.0565 -2.2915
   50MOL0     H 6707   3.343   9.925  10.682  0.7043  0.9432  0.5404
   50MOL0     H 6708   3.448   9.728  10.740 -1.3776 -4.9927  0.9966
   50MOL0     H 6709   3.274   9.737  10.772  1.1903 -1.3887 -1.9150
   50MOL0     H 6710   3.569   9.643  11.112  0.6494  1.0095  0.1471
   50MOL0     H 6711   3.737   9.502  11.191 -2.0311  1.2774  0.0335
   50MOL0     H 6712   3.647   9.382  11.275 -0.4345  1.5534  0.5851
   50MOL0     H 6713   3.756   9.331  11.148 -1.9715 -1.3277  0.2889
   50MOL0     H 6714   3.300   8.923  10.878  0.9779  1.4057  0.7674
   50MOL0     H 6715   3.341   8.680  10.873 -2.1320  2.6726  1.2170
   50MOL0     H 6716   3.756   8.531  10.922  1.3521 -1.3522 -0.8267
   50MOL0     H 6717   3.668   8.471  11.071  1.0821  0.2809 -0.7583
   50MOL0     H 6718   3.643   8.355  10.788 -0.5571  0.9624  0.0543
   50MOL0     H 6719   3.769   8.296  10.899 -0.5842 -1.0670 -1.5386
   50MOL0     H 6720   3.469   8.267  10.914  1.5394  0.5208 -0.9360
   50MOL0     H 6721   3.566   8.256  11.068 -2.1345 -0.6138  0.6455
   50MOL0     H 6722   3.532   8.049  10.856  0.8407 -0.0977 -1.4488
   50MOL0     H 6723   3.686   8.112  10.831 -1.6694  4.3289 -1.8385
   50MOL0     H 6724   3.610   8.054  11.124  1.0618  1.1404 -0.0789
   50MOL0     H 6725   3.758   8.025  11.038  0.9164  0.0214  0.8968
   50MOL0     H 6726   3.639   7.817  11.099 -1.5517 -2.2526 -1.6297
   50MOL0     H 6727   3.492   7.877  11.011  0.1455 -1.9293 -2.7026
   50MOL0     H 6728   3.759   7.830  10.877  0.3146 -0.5761  2.1675
   50MOL0     H 6729   3.597   7.839  10.800 -0.8999  0.6615  1.2272
   50MOL0     H 6730   3.633   7.621  10.799 -1.0681 -0.4924  0.6914
   50MOL0     H 6731   3.517   7.644  10.935  0.9089 -1.1764  2.7701
   50MOL0     H 6732   3.753   8.744  10.991  0.2666  0.2798  0.1355
   50MOL0     H 6733   3.713   8.972  11.000  1.0052  0.9342 -1.2205
   50MOL0     H 6734   3.376   9.274  10.855 -0.3239  0.0412  0.8411
   50MOL0     H 6735   3.315   9.506  10.796  0.5345  0.5172 -0.2090
   50MOL0     H 6736   2.821  10.579   9.659  0.7995 -1.3662  0.2957
   50MOL0     H 6737   2.609  10.681   9.657  0.2344 -4.5164  0.0102
   50MOL0     H 6738   2.325  11.015   9.947  0.2172  2.3450 -0.4341
   50MOL0     H 6739   2.118  11.132   9.945 -0.6122 -0.5307  1.5423
   50MOL0     H 6740   1.765  10.901   9.760  1.1407 -1.2952  2.8274
   50MOL0     H 6741   1.679  11.011   9.862 -0.5441  1.9615 -1.2437
   50MOL0     H 6742   1.628  11.040   9.625  0.7632  1.2435  0.1533
   50MOL0     H 6743   1.778  11.066   9.578 -0.8385 -0.3596 -0.6126
   50MOL0     H 6744   1.685  11.285   9.603 -0.6145  0.1339  0.3519
   50MOL0     H 6745   1.804  11.251   9.741 -1.0200  1.2048  0.1388
   50MOL0     H 6746   1.617  11.236   9.903 -0.7832 -1.8782  0.5218
   50MOL0     H 6747   1.522  11.197   9.753  2.8610 -1.0461 -3.7337
   50MOL0     H 6748   1.471  11.604   9.800  0.1432 -0.2994 -1.3771
   50MOL0     H 6749   1.936  10.802   9.730 -0.6130  2.0951 -1.6626
   50MOL0     H 6750   2.135  10.695   9.707 -1.3929  0.2579 -0.4740
   51MOL0     O 6751   1.983  10.441   6.776 -0.4529 -0.0020  0.3108
   51MOL0     C 6752   2.057  10.348   6.738 -0.1035  0.0872  0.1150
   51MOL0     O 6753   2.099  10.245   6.816  0.6085  1.0699  0.3868
   51MOL0     C 6754   2.011  10.210   6.909 -0.1749 -0.4317 -0.4068
   51MOL0     C 6755   2.068  10.215   7.035  0.3540 -0.4593 -0.9318
   51MOL0     C 6756   1.988  10.164   7.139 -0.2454  0.2298 -0.5000
   51MOL0     C 6757   1.855  10.114   7.114  0.7459  0.5315 -1.1692
   51MOL0     O 6758   1.768  10.063   7.208  0.0796 -0.0062 -0.1106
   51MOL0     C 6759   1.793  10.079   7.349  0.4892  0.3854  0.1967
   51MOL0     C 6760   1.732  10.209   7.400  0.4053 -0.0176  0.2964
   51MOL0     C 6761   1.795  10.336   7.336  0.1233  0.4535  0.4408
   51MOL0     C 6762   1.752  10.458   7.421 -0.1126 -0.7991 -0.6030
   51MOL0     C 6763   1.825  10.586   7.367  0.2589 -0.5261 -0.0503
   51MOL0     C 6764   1.733  10.702   7.317  0.3556 -0.3824  0.2867
   51MOL0     C 6765   1.628  10.660   7.217  0.3604 -0.6237  0.8529
   51MOL0     C 6766   1.544  10.782   7.172  0.2011  0.3540 -0.4277
   51MOL0     N 6767   1.474  10.739   7.046 -1.2370 -0.3621  0.8388
   51MOL0     C 6768   1.360  10.656   7.057 -0.6219 -0.0761  0.3825
   51MOL0     C 6769   1.320  10.646   6.919  0.2825 -0.3060 -0.6495
   51MOL0     C 6770   1.216  10.549   6.862 -0.7763 -0.4240 -0.3070
   51MOL0     C 6771   1.082  10.627   6.842 -0.3815 -0.1602  0.3729
   51MOL0     C 6772   0.964  10.533   6.814  0.2406  0.2482 -0.0965
   51MOL0     C 6773   0.986  10.431   6.704  0.0924 -0.0202  0.9865
   51MOL0     O 6774   0.963  10.507   6.583 -0.2962 -0.0067  0.5384
   51MOL0     C 6775   0.952  10.440   6.464  0.1423 -0.6921  1.5215
   51MOL0     C 6776   0.916  10.512   6.349 -0.5922 -0.3056 -0.0927
   51MOL0     C 6777   0.920  10.457   6.221  0.7391 -0.4107 -0.5758
   51MOL0     C 6778   0.889  10.551   6.104  0.0175  0.3063 -0.0820
   51MOL0     C 6779   0.953  10.317   6.212  0.7801  0.3174 -0.2865
   51MOL0     C 6780   0.956  10.243   6.080  0.2407 -0.1266 -1.0961
   51MOL0     O 6781   1.027  10.126   6.070 -0.4920 -0.3529 -0.1060
   51MOL0     C 6782   1.067  10.090   5.942  0.3153  0.6754  0.0131
   51MOL0     C 6783   1.105  10.183   5.841 -0.5578 -0.0076 -0.2098
   51MOL0     C 6784   1.161  10.132   5.718 -0.1298  0.1884  0.2395
   51MOL0     C 6785   1.176   9.997   5.690 -0.1465  0.3135  0.8053
   51MOL0     O 6786   1.223   9.951   5.569  0.3203  0.1447  0.0614
   51MOL0     C 6787   1.227  10.055   5.462 -0.1606  0.4514  1.0019
   51MOL0     C 6788   1.284  10.000   5.325  0.8131 -0.4731 -0.7436
   51MOL0     C 6789   1.364   9.873   5.329 -0.7647  1.1872 -0.1833
   51MOL0     C 6790   1.516   9.893   5.370  0.6483  0.2832 -0.1008
   51MOL0     C 6791   1.582   9.749   5.390  0.3700 -0.9317  0.3190
   51MOL0     C 6792   1.725   9.755   5.446 -0.6954  0.2328 -1.0044
   51MOL0     C 6793   1.784   9.870   5.532 -0.4848 -0.9869  0.4630
   51MOL0     C 6794   1.826   9.989   5.455 -0.8563 -0.5701 -0.1092
   51MOL0    Cl 6795   1.969   9.972   5.367  0.2120  0.0390 -0.0702
   51MOL0     C 6796   1.153   9.909   5.794 -0.3535 -0.2658 -0.5518
   51MOL0     C 6797   1.103   9.957   5.918  0.2934 -0.9661  0.6320
   51MOL0     O 6798   0.864  10.281   6.006 -0.1099 -0.6080 -0.2612
   51MOL0     C 6799   0.971  10.243   6.325 -0.6053  0.5306 -0.3369
   51MOL0     C 6800   0.981  10.305   6.451 -0.3188  0.1727 -0.4323
   51MOL0     N 6801   1.394  10.738   6.841  0.4447  0.1223  0.0456
   51MOL0     N 6802   1.484  10.786   6.918 -0.0140  0.2350 -0.2643
   51MOL0     C 6803   1.804  10.112   6.984  0.2690  0.3715  0.8344
   51MOL0     C 6804   1.888  10.156   6.890 -0.2699 -1.2560  0.5352
   51MOL0     C 6805   2.110  10.340   6.600  0.2280  0.4371 -0.7105
   51MOL0     C 6806   2.230  10.267   6.583 -0.5473  0.6803  0.1867
   51MOL0     C 6807   2.279  10.250   6.456  0.3969  1.0648  0.4125
   51MOL0     C 6808   2.217  10.298   6.343  0.5430  0.0323  0.0804
   51MOL0     O 6809   2.262  10.260   6.227 -0.8479 -0.1729 -0.0817
   51MOL0     C 6810   2.201  10.305   6.115 -0.5521  0.2266  0.6762
   51MOL0     C 6811   2.294  10.255   6.008 -1.0115 -1.2907  0.0260
   51MOL0     C 6812   2.275  10.105   5.989 -0.4906 -1.0719 -0.3119
   51MOL0     C 6813   2.369  10.061   5.881 -0.2279  0.1177  0.6880
   51MOL0     C 6814   2.347   9.918   5.839 -1.2360  0.3630  0.2474
   51MOL0     C 6815   2.326   9.805   5.807 -0.5386  0.1820 -0.3048
   51MOL0     C 6816   2.109  10.388   6.361 -0.5069  0.0491 -0.6683
   51MOL0     C 6817   2.054  10.404   6.494 -0.0629  0.0847  0.1657
   51MOL0     H 6818   2.163  10.261   7.059  1.0003 -1.1956 -1.9869
   51MOL0     H 6819   2.028  10.153   7.239 -1.5348  0.1256  0.0223
   51MOL0     H 6820   1.744   9.996   7.401 -0.1021  1.1089  0.8209
   51MOL0     H 6821   1.898  10.065   7.375  0.8640  1.1497 -0.8442
   51MOL0     H 6822   1.626  10.213   7.371  1.4182  2.4079 -3.7517
   51MOL0     H 6823   1.740  10.212   7.509 -0.8872  1.9054  0.3820
   51MOL0     H 6824   1.904  10.330   7.329  0.0601  0.9353 -1.4080
   51MOL0     H 6825   1.755  10.355   7.236 -0.9839  1.9651  1.1434
   51MOL0     H 6826   1.643  10.472   7.427  0.2060  1.6660  0.5442
   51MOL0     H 6827   1.775  10.449   7.528 -0.8286  0.7454 -0.2899
   51MOL0     H 6828   1.884  10.633   7.446 -1.1372  0.0947  0.6632
   51MOL0     H 6829   1.893  10.552   7.288  0.3948  2.3621 -1.3008
   51MOL0     H 6830   1.670  10.748   7.394 -1.9939  2.1491 -2.8820
   51MOL0     H 6831   1.812  10.764   7.275  2.3034 -4.0902 -2.0952
   51MOL0     H 6832   1.688  10.635   7.128 -1.2201 -0.1240 -0.4030
   51MOL0     H 6833   1.559  10.579   7.239 -1.2066  0.2141 -0.6581
   51MOL0     H 6834   1.607  10.870   7.160  2.1366 -1.0583 -1.1827
   51MOL0     H 6835   1.473  10.800   7.253 -0.9219 -3.0348 -0.5011
   51MOL0     H 6836   1.329  10.602   7.145  0.2034  0.7684  1.2184
   51MOL0     H 6837   1.257  10.511   6.768 -0.7794 -0.1923 -0.4035
   51MOL0     H 6838   1.204  10.468   6.934 -0.6461 -1.0463 -0.9852
   51MOL0     H 6839   1.086  10.695   6.756  0.4170 -2.6982 -1.7522
   51MOL0     H 6840   1.072  10.687   6.933  1.7369 -1.0000  1.2385
   51MOL0     H 6841   0.884  10.604   6.793  0.5166  0.9630  1.1519
   51MOL0     H 6842   0.927  10.479   6.902 -1.0764 -1.9240 -1.8767
   51MOL0     H 6843   0.914  10.349   6.716  1.6725 -1.1186  3.9629
   51MOL0     H 6844   1.084  10.384   6.702  0.4464  0.5990 -2.1433
   51MOL0     H 6845   0.885  10.614   6.373  1.4716  0.2122  0.5964
   51MOL0     H 6846   0.886  10.655   6.138 -0.7679  1.4050 -3.1759
   51MOL0     H 6847   0.973  10.541   6.035  0.6276  0.3138  0.6434
   51MOL0     H 6848   0.788  10.531   6.066 -0.4541 -1.1786  1.7932
   51MOL0     H 6849   1.091  10.291   5.842  1.2456  0.3692  3.6574
   51MOL0     H 6850   1.177  10.207   5.642 -0.2380  1.1087  1.1095
   51MOL0     H 6851   1.132  10.108   5.453 -1.0608 -1.1698  0.4962
   51MOL0     H 6852   1.299  10.130   5.496 -2.0452  2.4829  0.7024
   51MOL0     H 6853   1.198   9.968   5.264  0.1365  1.7164 -1.0367
   51MOL0     H 6854   1.330  10.075   5.260 -1.2008  0.7914 -0.8093
   51MOL0     H 6855   1.362   9.836   5.226 -1.9823 -1.6383  0.7464
   51MOL0     H 6856   1.312   9.793   5.384 -3.3257  0.6367 -3.1328
   51MOL0     H 6857   1.565   9.952   5.292 -0.0180 -3.9333 -4.1892
   51MOL0     H 6858   1.514   9.952   5.462 -4.2648 -1.5416  1.2719
   51MOL0     H 6859   1.578   9.690   5.298 -1.4141 -2.6097  1.3738
   51MOL0     H 6860   1.518   9.689   5.456  0.0925 -0.7416  0.2266
   51MOL0     H 6861   1.736   9.676   5.521  2.5204 -1.8571 -3.4005
   51MOL0     H 6862   1.797   9.743   5.365  1.3203  2.1176  0.3863
   51MOL0     H 6863   1.880   9.842   5.577  1.9631  2.4483 -1.9961
   51MOL0     H 6864   1.718   9.912   5.609 -1.9099  0.4156 -1.4327
   51MOL0     H 6865   1.850  10.067   5.527  0.5687  1.0258 -2.1728
   51MOL0     H 6866   1.738  10.016   5.395  0.2880  1.9362 -0.7759
   51MOL0     H 6867   1.168   9.802   5.786 -1.7648 -0.8343  2.6942
   51MOL0     H 6868   1.097   9.870   5.982  2.6379 -1.3899  0.3940
   51MOL0     H 6869   0.992  10.137   6.328  1.8716  0.9556 -0.5956
   51MOL0     H 6870   1.014  10.239   6.531  1.8034 -1.2585 -2.3418
   51MOL0     H 6871   1.708  10.066   6.963  1.7390 -2.1570 -0.9431
   51MOL0     H 6872   1.844  10.152   6.791  0.6090 -0.6083  0.0996
   51MOL0     H 6873   2.296  10.225   6.658  0.2817 -0.9967 -1.3926
   51MOL0     H 6874   2.374  10.202   6.432 -0.1441  0.3221 -0.3014
   51MOL0     H 6875   2.095  10.278   6.108 -1.9167  4.0262  3.2228
   51MOL0     H 6876   2.201  10.415   6.119  1.8301  0.2568  3.1646
   51MOL0     H 6877   2.400  10.282   6.011 -0.9299 -1.6549  0.5877
   51MOL0     H 6878   2.258  10.297   5.914 -1.3494 -1.9264 -0.1298
   51MOL0     H 6879   2.168  10.080   5.984 -1.2172  1.3532  1.4450
   51MOL0     H 6880   2.306  10.050   6.078 -0.8252  2.6615  2.3436
   51MOL0     H 6881   2.470  10.065   5.923  1.3728  2.7782 -2.9084
   51MOL0     H 6882   2.376  10.126   5.794 -0.4227 -1.7971 -0.8366
   51MOL0     H 6883   2.292   9.709   5.775 -0.5934  0.1487 -0.1437
   51MOL0     H 6884   2.052  10.424   6.276  0.0807  1.8706 -0.3395
   51MOL0     H 6885   1.966  10.465   6.506  0.5040  0.7538  1.0592
   52MOL0     O 6886   3.207   7.004   2.656  0.3224  0.0003  0.1725
   52MOL0     C 6887   3.154   7.104   2.613  0.0204  0.0017 -0.0090
   52MOL0     O 6888   3.219   7.231   2.583  0.4875  0.6604  0.4487
   52MOL0     C 6889   3.347   7.235   2.609 -0.3939 -0.2991 -0.9776
   52MOL0     C 6890   3.445   7.178   2.523  0.4189 -0.7141 -0.2101
   52MOL0     C 6891   3.584   7.184   2.554  0.0998  0.0027 -0.1199
   52MOL0     C 6892   3.635   7.245   2.669  0.0709 -0.3649 -0.6129
   52MOL0     O 6893   3.773   7.242   2.686  0.2533 -0.0616  0.9738
   52MOL0     C 6894   3.834   7.312   2.790 -0.6836  0.1294  0.4229
   52MOL0     C 6895   3.980   7.298   2.755 -0.8665 -0.0611  0.1855
   52MOL0     C 6896   4.031   7.159   2.806  0.0915 -1.2374  0.1288
   52MOL0     C 6897   4.185   7.132   2.784 -0.2019  0.9008  1.1939
   52MOL0     C 6898   4.229   6.996   2.840 -1.0541 -0.3280 -0.2756
   52MOL0     C 6899   4.374   6.969   2.787 -0.1653 -0.1281 -0.9243
   52MOL0     C 6900   4.424   6.839   2.843  0.3036 -0.0939  0.0169
   52MOL0     C 6901   4.367   6.725   2.755  0.0820  0.7109 -0.3738
   52MOL0     N 6902   4.480   6.620   2.739 -1.1340 -0.6277  0.0212
   52MOL0     C 6903   4.555   6.565   2.848 -0.2019 -0.9298  0.7058
   52MOL0     C 6904   4.644   6.489   2.784  0.6482 -0.3840  0.6291
   52MOL0     C 6905   4.744   6.402   2.856  0.0965 -1.1772 -0.3848
   52MOL0     C 6906   4.838   6.501   2.923  0.5228  0.1619  0.4289
   52MOL0     C 6907   4.976   6.442   2.931  0.0558 -1.0928  0.3368
   52MOL0     C 6908   5.040   6.456   2.795  0.6670  0.2925 -0.0547
   52MOL0     O 6909   5.181   6.421   2.779  0.1289 -0.6500 -1.0564
   52MOL0     C 6910   5.274   6.522   2.800 -0.1640  0.2969 -0.6206
   52MOL0     C 6911   5.266   6.639   2.875  0.4009  0.1759  0.2786
   52MOL0     C 6912   5.370   6.723   2.917 -0.7741  0.3194 -0.2543
   52MOL0     C 6913   5.343   6.835   3.012 -0.6121 -0.6763  0.3520
   52MOL0     C 6914   5.499   6.697   2.863  0.3385  0.2015  0.2442
   52MOL0     C 6915   5.620   6.775   2.913  0.2036 -0.8774 -0.1987
   52MOL0     O 6916   5.727   6.743   2.833 -0.0578  0.6334 -1.5232
   52MOL0     C 6917   5.848   6.775   2.877 -0.0437 -0.4460 -0.6172
   52MOL0     C 6918   5.927   6.672   2.920  0.4244  0.6013 -0.5001
   52MOL0     C 6919   6.054   6.695   2.967  0.8836  0.1990  0.1513
   52MOL0     C 6920   6.109   6.821   2.967  1.0165  0.2725 -0.2356
   52MOL0     O 6921   6.249   6.840   2.971  0.6802  0.2975  0.1407
   52MOL0     C 6922   6.334   6.739   3.030 -0.5669 -0.0275 -0.5619
   52MOL0     C 6923   6.480   6.771   3.043 -0.0690 -0.3903 -0.2959
   52MOL0     C 6924   6.511   6.881   3.135 -0.0402 -0.1287 -0.4366
   52MOL0     C 6925   6.638   6.954   3.092  0.5966  0.2163 -0.1300
   52MOL0     C 6926   6.684   7.067   3.179  0.5683  0.8295  0.5215
   52MOL0     C 6927   6.811   7.131   3.133  0.4175  0.0805 -0.2190
   52MOL0     C 6928   6.934   7.043   3.167  0.2158 -0.7368 -0.3678
   52MOL0     C 6929   7.070   7.100   3.129  0.5522 -0.4045 -0.0400
   52MOL0    Cl 6930   7.097   7.062   2.955 -0.1309 -0.2686 -0.7387
   52MOL0     C 6931   6.021   6.931   2.935  0.3366  0.4954 -0.7673
   52MOL0     C 6932   5.890   6.908   2.896  0.2127  0.6177  0.0254
   52MOL0     O 6933   5.626   6.845   3.014 -0.1375  0.1932 -0.1666
   52MOL0     C 6934   5.520   6.574   2.795 -0.1987 -0.6705  0.0822
   52MOL0     C 6935   5.410   6.487   2.773 -0.0769  0.0446 -0.2547
   52MOL0     N 6936   4.645   6.508   2.648  0.7441 -0.1576  0.8109
   52MOL0     N 6937   4.550   6.588   2.622  0.7489 -0.0019 -1.0305
   52MOL0     C 6938   3.539   7.306   2.754 -0.6199  0.2391 -1.2258
   52MOL0     C 6939   3.400   7.299   2.725  0.1966  0.3664 -0.6653
   52MOL0     C 6940   3.016   7.103   2.587  0.4036 -0.6346 -0.7494
   52MOL0     C 6941   2.946   6.986   2.596 -0.1565 -0.0385 -0.4727
   52MOL0     C 6942   2.807   6.983   2.576  0.4877 -0.5127  0.1628
   52MOL0     C 6943   2.730   7.098   2.548 -0.0931 -0.6214 -0.2441
   52MOL0     O 6944   2.596   7.079   2.543 -0.3647 -0.1387  0.7228
   52MOL0     C 6945   2.513   7.189   2.514  0.5786 -0.1268 -0.6002
   52MOL0     C 6946   2.407   7.134   2.421  0.3114 -0.4911  1.1722
   52MOL0     C 6947   2.452   7.189   2.280 -0.0574 -0.3770 -0.0524
   52MOL0     C 6948   2.348   7.153   2.176  1.0144  0.6632 -1.0858
   52MOL0     C 6949   2.353   7.243   2.059  0.3347 -0.6069  0.3220
   52MOL0     C 6950   2.344   7.343   1.993 -1.0518 -0.2836 -0.0121
   52MOL0     C 6951   2.801   7.215   2.527 -0.4008 -0.5579 -0.5744
   52MOL0     C 6952   2.939   7.214   2.539  0.0771 -0.6142  0.0416
   52MOL0     H 6953   3.399   7.147   2.430  0.6991  0.5460 -0.8017
   52MOL0     H 6954   3.650   7.122   2.493 -1.7523  0.1816 -2.4769
   52MOL0     H 6955   3.807   7.418   2.782  0.0911  0.2181 -1.6921
   52MOL0     H 6956   3.796   7.275   2.885 -2.8383  1.8533  0.3254
   52MOL0     H 6957   3.992   7.306   2.647  0.5265  0.7140  0.3760
   52MOL0     H 6958   4.042   7.374   2.804  0.2695  0.3265 -1.7674
   52MOL0     H 6959   4.007   7.157   2.913 -1.2392 -0.6792 -0.1533
   52MOL0     H 6960   3.988   7.074   2.752 -1.7471 -0.8560  0.9189
   52MOL0     H 6961   4.197   7.137   2.676 -0.1479  0.4734  1.1768
   52MOL0     H 6962   4.242   7.216   2.825  2.3312 -0.0196 -0.2336
   52MOL0     H 6963   4.234   7.029   2.945 -0.2984  2.2804 -1.0314
   52MOL0     H 6964   4.157   6.916   2.825  0.7546 -2.1424  0.3042
   52MOL0     H 6965   4.383   6.960   2.679  2.3850 -2.0907 -0.6411
   52MOL0     H 6966   4.436   7.052   2.824  0.9669 -0.7946 -1.2818
   52MOL0     H 6967   4.534   6.838   2.838  0.4317  1.0458  1.6890
   52MOL0     H 6968   4.390   6.824   2.946 -0.3937 -0.2072 -0.2239
   52MOL0     H 6969   4.337   6.755   2.654 -0.7204 -0.3090 -0.4566
   52MOL0     H 6970   4.283   6.675   2.804  1.3440  1.0450  2.3576
   52MOL0     H 6971   4.545   6.570   2.956  1.2818 -3.4287  1.0394
   52MOL0     H 6972   4.691   6.341   2.930 -0.7735 -0.2590 -0.2296
   52MOL0     H 6973   4.794   6.339   2.782  0.9747 -0.6552 -0.2452
   52MOL0     H 6974   4.794   6.531   3.018  0.6377  0.3054  0.4386
   52MOL0     H 6975   4.845   6.586   2.854 -0.3957 -2.0057 -2.5543
   52MOL0     H 6976   4.970   6.339   2.968  0.6779 -0.8336  1.1903
   52MOL0     H 6977   5.030   6.504   3.003 -2.7356  0.8531  0.9193
   52MOL0     H 6978   5.016   6.551   2.747 -1.7413 -1.0288 -1.6812
   52MOL0     H 6979   4.983   6.380   2.741  0.5948 -0.8719  1.5889
   52MOL0     H 6980   5.173   6.657   2.928 -1.5172 -2.2300 -2.0250
   52MOL0     H 6981   5.390   6.812   3.108 -0.7064 -1.2047  0.2758
   52MOL0     H 6982   5.393   6.925   2.977  1.0295 -0.5732  2.7409
   52MOL0     H 6983   5.237   6.855   3.032 -0.0100 -0.9347  4.8320
   52MOL0     H 6984   5.893   6.569   2.928 -1.8287  1.3776  0.7072
   52MOL0     H 6985   6.120   6.611   2.987 -0.7880 -1.0568  0.6344
   52MOL0     H 6986   6.294   6.725   3.131  0.8141 -0.9651 -0.1279
   52MOL0     H 6987   6.336   6.644   2.976 -1.5113  0.1511 -0.9364
   52MOL0     H 6988   6.549   6.687   3.055 -0.0400 -0.3539 -0.2069
   52MOL0     H 6989   6.511   6.807   2.944  0.7699 -1.2426 -0.3577
   52MOL0     H 6990   6.522   6.845   3.238  0.1158  3.1078  0.8209
   52MOL0     H 6991   6.432   6.956   3.140 -0.8940 -1.0989  2.0735
   52MOL0     H 6992   6.723   6.885   3.080 -0.3085 -1.0318  0.3744
   52MOL0     H 6993   6.638   6.997   2.992  1.8132 -1.1661 -0.7632
   52MOL0     H 6994   6.689   7.038   3.285  1.2571  0.4566  0.3906
   52MOL0     H 6995   6.609   7.147   3.174  0.3117  0.6090  0.7716
   52MOL0     H 6996   6.810   7.151   3.025  1.1309  0.3664 -0.1815
   52MOL0     H 6997   6.825   7.223   3.190  2.8644 -1.5116  1.9995
   52MOL0     H 6998   6.932   6.948   3.114 -1.7289 -0.5459 -0.7023
   52MOL0     H 6999   6.935   7.030   3.276  1.2239 -0.4376 -0.3221
   52MOL0     H 7000   7.147   7.050   3.189  0.7795  1.1373  1.0190
   52MOL0     H 7001   7.096   7.204   3.151 -1.2386  0.1287 -0.3184
   52MOL0     H 7002   6.059   7.032   2.947  3.5022 -0.6931  0.2425
   52MOL0     H 7003   5.832   6.996   2.873  0.4587 -0.0709 -3.8894
   52MOL0     H 7004   5.613   6.530   2.761 -0.2785 -3.3504  2.8385
   52MOL0     H 7005   5.423   6.394   2.718 -0.0250 -0.4487  0.5682
   52MOL0     H 7006   3.580   7.363   2.836 -0.4054  2.5558 -2.8316
   52MOL0     H 7007   3.330   7.322   2.805 -1.9139  0.0838 -2.3335
   52MOL0     H 7008   2.994   6.897   2.636  0.3792  0.4191 -0.0777
   52MOL0     H 7009   2.749   6.892   2.589  1.5722 -1.5727 -1.8593
   52MOL0     H 7010   2.453   7.210   2.603  1.6446  0.8759 -0.0936
   52MOL0     H 7011   2.558   7.281   2.476 -1.7902  1.7930  0.9145
   52MOL0     H 7012   2.314   7.175   2.461 -0.5337  0.8216 -1.8103
   52MOL0     H 7013   2.393   7.026   2.419 -1.0311 -0.3554  2.2599
   52MOL0     H 7014   2.553   7.155   2.252  0.1635 -2.5658  2.9069
   52MOL0     H 7015   2.472   7.296   2.283 -2.4233  0.0975  0.5406
   52MOL0     H 7016   2.254   7.154   2.231  1.6567 -1.1316  0.1246
   52MOL0     H 7017   2.365   7.047   2.153  1.9109  0.2752  1.1699
   52MOL0     H 7018   2.306   7.428   1.942  0.2779  0.8274  0.7792
   52MOL0     H 7019   2.753   7.309   2.503  1.0714  0.3169 -0.1752
   52MOL0     H 7020   3.002   7.302   2.529  1.1397 -0.6267  4.5639
   53MOL0     O 7021   1.049   3.356   2.440  0.0197  0.0985  0.8666
   53MOL0     C 7022   1.042   3.361   2.564  1.0571  0.0706 -0.9149
   53MOL0     O 7023   0.960   3.276   2.648 -0.4264 -0.7459  0.6845
   53MOL0     C 7024   0.883   3.193   2.570 -0.7217  0.3311 -0.4605
   53MOL0     C 7025   0.927   3.055   2.554 -0.6165  0.1571  0.6684
   53MOL0     C 7026   0.856   2.963   2.474  0.3325  1.1106 -0.6871
   53MOL0     C 7027   0.759   3.005   2.390  0.8501  0.3808 -0.0294
   53MOL0     O 7028   0.698   2.908   2.303 -1.4713 -0.4636  0.0982
   53MOL0     C 7029   0.580   2.947   2.229 -1.0428 -0.9828 -0.6875
   53MOL0     C 7030   0.529   2.823   2.157 -0.4525  0.1271 -0.0643
   53MOL0     C 7031   0.635   2.778   2.041 -0.3069  0.9272 -0.8187
   53MOL0     C 7032   0.581   2.693   1.931  0.4784 -0.7712  1.0777
   53MOL0     C 7033   0.532   2.556   1.981 -0.3963  0.9558  0.2088
   53MOL0     C 7034   0.650   2.458   1.985 -0.0829 -0.1361 -0.8823
   53MOL0     C 7035   0.614   2.308   2.024  0.5110  0.4615 -0.6348
   53MOL0     C 7036   0.567   2.301   2.173  0.8130  0.7951  0.0866
   53MOL0     N 7037   0.517   2.164   2.196  0.1238 -0.4196  0.3485
   53MOL0     C 7038   0.583   2.039   2.178 -0.8849 -0.3795  0.5430
   53MOL0     C 7039   0.512   1.941   2.240  0.2487  0.9909 -0.3493
   53MOL0     C 7040   0.549   1.793   2.237  0.8444  0.0717  0.2252
   53MOL0     C 7041   0.622   1.752   2.364 -0.4143  1.2101  0.8428
   53MOL0     C 7042   0.671   1.610   2.352 -0.0208 -0.7851 -0.1843
   53MOL0     C 7043   0.746   1.569   2.471 -0.3920  0.1845 -0.3363
   53MOL0     O 7044   0.679   1.567   2.596 -0.0152 -0.1406 -0.2963
   53MOL0     C 7045   0.632   1.447   2.644 -0.3056  0.1703 -0.0136
   53MOL0     C 7046   0.609   1.432   2.781 -0.9767 -0.8509  0.3701
   53MOL0     C 7047   0.575   1.313   2.854 -0.6643 -0.2127  0.3236
   53MOL0     C 7048   0.573   1.328   3.011 -0.3178 -0.3636  0.1286
   53MOL0     C 7049   0.533   1.206   2.776 -0.5173 -1.3335  0.7635
   53MOL0     C 7050   0.482   1.073   2.820  0.1443  1.6263 -0.1149
   53MOL0     O 7051   0.528   1.023   2.939  0.4723 -0.1057 -0.5248
   53MOL0     C 7052   0.467   0.914   2.994  1.5340 -0.4658  0.5101
   53MOL0     C 7053   0.553   0.821   3.044  0.0359  1.4003 -0.6323
   53MOL0     C 7054   0.503   0.698   3.105  0.3366 -0.6196 -0.3347
   53MOL0     C 7055   0.365   0.668   3.094  0.5040  0.5915 -0.5722
   53MOL0     O 7056   0.306   0.556   3.150  0.1039 -0.3664  0.3008
   53MOL0     C 7057   0.384   0.436   3.147  0.2144  0.5386 -0.3673
   53MOL0     C 7058   0.291   0.310   3.125 -0.3159  0.3583  0.1578
   53MOL0     C 7059   0.368   0.177   3.130 -0.5788  0.3130  0.1358
   53MOL0     C 7060   0.286   0.054   3.148  0.4268 -0.5749  0.8930
   53MOL0     C 7061   0.373  -0.073   3.154 -0.1754 -0.2636  0.4069
   53MOL0     C 7062   0.379  -0.134   3.017 -0.1443  0.3927  0.0041
   53MOL0     C 7063   0.260  -0.214   2.969 -0.4988  0.9293 -0.0125
   53MOL0     C 7064   0.297  -0.331   2.875 -0.5626 -0.4752 -0.1197
   53MOL0    Cl 7065   0.398  -0.455   2.959 -0.4483  0.0953  0.1120
   53MOL0     C 7066   0.283   0.767   3.041 -0.4337  0.7193  0.2927
   53MOL0     C 7067   0.324   0.894   3.002  0.1579 -0.1382  0.5699
   53MOL0     O 7068   0.404   1.014   2.741 -0.7175  0.3032 -0.9417
   53MOL0     C 7069   0.560   1.211   2.634  0.0821  0.0941 -0.2328
   53MOL0     C 7070   0.605   1.333   2.571  0.7701 -0.2106 -0.4804
   53MOL0     N 7071   0.397   2.008   2.285  0.4963 -0.3475 -1.1954
   53MOL0     N 7072   0.401   2.127   2.260 -0.0230 -0.8183 -0.8873
   53MOL0     C 7073   0.719   3.142   2.397  0.1279 -0.3038 -0.2418
   53MOL0     C 7074   0.777   3.234   2.485  0.2088 -0.5600 -0.3251
   53MOL0     C 7075   1.117   3.481   2.625 -0.4705  0.3720  0.2843
   53MOL0     C 7076   1.224   3.529   2.548  1.2063 -0.9683  1.0186
   53MOL0     C 7077   1.297   3.637   2.595 -0.0102 -1.8641  0.3774
   53MOL0     C 7078   1.265   3.708   2.717  1.0012 -0.1059 -0.3598
   53MOL0     O 7079   1.337   3.817   2.748  0.0566  0.8176 -0.3439
   53MOL0     C 7080   1.315   3.888   2.871  0.8347  0.1362  0.6924
   53MOL0     C 7081   1.219   3.998   2.841 -0.1133 -0.1401  0.5331
   53MOL0     C 7082   1.247   4.108   2.937 -0.0269  0.3100 -0.8355
   53MOL0     C 7083   1.172   4.239   2.915 -0.1224  0.1017  0.1531
   53MOL0     C 7084   1.203   4.283   2.784  0.5323 -0.4478  1.2528
   53MOL0     C 7085   1.215   4.344   2.680 -0.2376  0.9210  0.4939
   53MOL0     C 7086   1.171   3.642   2.801  1.0013  0.5457 -1.2181
   53MOL0     C 7087   1.094   3.535   2.752  0.6514  0.2213  0.0068
   53MOL0     H 7088   1.024   3.029   2.596 -0.0685 -0.7166 -1.0228
   53MOL0     H 7089   0.901   2.865   2.475 -2.8640 -0.5043 -1.6062
   53MOL0     H 7090   0.508   2.978   2.305  1.3768  2.0314  0.6082
   53MOL0     H 7091   0.596   3.030   2.160  1.3786  0.3160  1.2606
   53MOL0     H 7092   0.522   2.742   2.231 -1.5593 -1.3574 -1.7030
   53MOL0     H 7093   0.428   2.838   2.116 -1.7320 -0.1656  2.7622
   53MOL0     H 7094   0.687   2.857   1.986 -1.3373  1.5917 -0.8638
   53MOL0     H 7095   0.714   2.717   2.086 -1.4536 -2.0705 -2.6568
   53MOL0     H 7096   0.493   2.752   1.902 -1.0754 -1.4727  3.9673
   53MOL0     H 7097   0.650   2.690   1.846 -0.6096 -2.3751  0.2000
   53MOL0     H 7098   0.490   2.578   2.080  0.2903 -3.7324  1.8110
   53MOL0     H 7099   0.449   2.508   1.928  1.1997 -1.4956 -0.2055
   53MOL0     H 7100   0.698   2.455   1.886 -0.0655  1.1596 -0.9290
   53MOL0     H 7101   0.726   2.501   2.051  0.8590  2.8401 -3.6114
   53MOL0     H 7102   0.528   2.266   1.970 -0.7633  0.7019  1.1178
   53MOL0     H 7103   0.703   2.246   2.027 -0.9072 -1.6739  2.4524
   53MOL0     H 7104   0.489   2.374   2.195 -0.1435 -0.7894  2.3768
   53MOL0     H 7105   0.648   2.315   2.245  0.2154  1.4214  0.6526
   53MOL0     H 7106   0.683   2.031   2.138 -0.8677 -3.3522  0.9529
   53MOL0     H 7107   0.463   1.725   2.232 -1.1592  2.1243  3.2414
   53MOL0     H 7108   0.612   1.774   2.150  2.0270  2.3014  0.5444
   53MOL0     H 7109   0.555   1.752   2.450 -0.4819 -3.2222  1.0215
   53MOL0     H 7110   0.703   1.822   2.384 -2.5161  3.7070  1.2325
   53MOL0     H 7111   0.743   1.608   2.270  2.4409 -0.1820  1.8378
   53MOL0     H 7112   0.588   1.539   2.344  0.6969 -1.8975  1.6490
   53MOL0     H 7113   0.830   1.638   2.480 -1.0787  0.8778  1.1920
   53MOL0     H 7114   0.787   1.471   2.447 -1.0159  0.0044 -0.6858
   53MOL0     H 7115   0.635   1.519   2.841 -3.6258  1.3415 -1.4342
   53MOL0     H 7116   0.509   1.249   3.052  2.0092 -2.1957  0.4655
   53MOL0     H 7117   0.674   1.316   3.052  0.1116  3.5133  0.5736
   53MOL0     H 7118   0.541   1.428   3.040  2.2317  0.5587  0.0436
   53MOL0     H 7119   0.659   0.840   3.034 -0.1566  1.6201 -2.7962
   53MOL0     H 7120   0.575   0.627   3.142  2.5215  0.9169 -1.4260
   53MOL0     H 7121   0.462   0.439   3.071 -0.8696  2.7960 -1.4834
   53MOL0     H 7122   0.440   0.429   3.240  0.6124  2.2690 -0.4495
   53MOL0     H 7123   0.213   0.307   3.201 -3.2108 -2.5991 -2.6358
   53MOL0     H 7124   0.235   0.317   3.031 -2.9950 -3.1856  1.2843
   53MOL0     H 7125   0.446   0.180   3.206  1.0823 -1.3285 -1.4094
   53MOL0     H 7126   0.434   0.189   3.044 -0.1536  2.4862  0.7063
   53MOL0     H 7127   0.232   0.056   3.243  1.6985 -1.0288  1.6404
   53MOL0     H 7128   0.208   0.044   3.071  1.1215  2.0795 -0.2608
   53MOL0     H 7129   0.319  -0.146   3.216 -1.1484 -2.0218 -2.3475
   53MOL0     H 7130   0.471  -0.053   3.198  0.4709 -3.2457  0.5727
   53MOL0     H 7131   0.398  -0.070   2.930 -2.2965 -0.9764 -1.5616
   53MOL0     H 7132   0.459  -0.209   3.017  1.2833  1.8591 -0.2818
   53MOL0     H 7133   0.187  -0.150   2.919 -2.5863  0.2549  2.0087
   53MOL0     H 7134   0.205  -0.256   3.053 -2.7635  1.6348 -1.0764
   53MOL0     H 7135   0.339  -0.295   2.781 -1.7880  0.3080 -0.3891
   53MOL0     H 7136   0.203  -0.381   2.852 -1.6470 -1.3678  4.9967
   53MOL0     H 7137   0.177   0.746   3.034  0.0304 -1.4599 -1.6982
   53MOL0     H 7138   0.246   0.959   2.964  0.8783 -0.1592 -1.0414
   53MOL0     H 7139   0.521   1.132   2.570  0.1845 -0.1995  0.0675
   53MOL0     H 7140   0.616   1.336   2.463  1.9534  1.1662 -0.3481
   53MOL0     H 7141   0.639   3.183   2.337  0.1280  0.4362  0.2488
   53MOL0     H 7142   0.740   3.336   2.486 -0.0834 -0.6256  2.2414
   53MOL0     H 7143   1.256   3.485   2.454  0.8539  0.7810  0.0375
   53MOL0     H 7144   1.382   3.671   2.537 -0.3337 -1.7790 -0.0514
   53MOL0     H 7145   1.269   3.816   2.940 -0.1716 -0.3362 -0.4297
   53MOL0     H 7146   1.407   3.922   2.919  2.1865 -1.6243 -0.5182
   53MOL0     H 7147   1.112   3.975   2.837  0.2158 -1.8484  1.0067
   53MOL0     H 7148   1.229   4.031   2.737 -0.4936 -3.6190 -0.7254
   53MOL0     H 7149   1.353   4.134   2.939 -0.1488  0.7713  0.6787
   53MOL0     H 7150   1.216   4.076   3.037  3.1137 -2.2145 -0.5426
   53MOL0     H 7151   1.189   4.315   2.991 -0.1510  1.8023 -1.4778
   53MOL0     H 7152   1.064   4.221   2.925 -0.5884  2.4749 -0.0561
   53MOL0     H 7153   1.246   4.415   2.606  0.2119  0.7603  0.5246
   53MOL0     H 7154   1.136   3.663   2.902 -1.0765 -0.2046 -1.7323
   53MOL0     H 7155   1.028   3.483   2.821  2.3459 -0.5574  1.1266
   54MOL0     O 7156   5.825   0.321   4.161  0.1131 -0.0303  0.7917
   54MOL0     C 7157   5.947   0.324   4.182  0.1198  0.6650  0.9675
   54MOL0     O 7158   6.014   0.437   4.215  0.0975  0.0537 -0.1966
   54MOL0     C 7159   5.947   0.556   4.231 -0.1721 -0.0932 -0.9882
   54MOL0     C 7160   6.000   0.671   4.174 -0.1143  0.0840 -0.4933
   54MOL0     C 7161   5.944   0.795   4.217  0.3822 -0.3627 -0.9494
   54MOL0     C 7162   5.836   0.811   4.307  0.5355  0.6054 -0.2063
   54MOL0     O 7163   5.776   0.933   4.330 -0.5046  0.3018 -0.2097
   54MOL0     C 7164   5.708   0.974   4.455 -0.2985  0.7125  0.5722
   54MOL0     C 7165   5.824   0.988   4.559 -0.7037 -0.6074 -0.2456
   54MOL0     C 7166   5.753   1.055   4.678 -0.5320 -0.3369 -0.5137
   54MOL0     C 7167   5.651   0.971   4.749  0.5358 -1.0649  0.6038
   54MOL0     C 7168   5.590   1.041   4.856 -0.5572  0.0075  0.6130
   54MOL0     C 7169   5.457   0.975   4.886  0.2244  0.5674  0.1211
   54MOL0     C 7170   5.402   1.032   5.022 -0.7158  0.4131  0.1921
   54MOL0     C 7171   5.255   0.982   5.011 -0.9578  0.1311  0.0497
   54MOL0     N 7172   5.200   0.998   5.146  0.1483 -0.3962  0.1420
   54MOL0     C 7173   5.226   1.095   5.246  0.7336 -0.2799  0.0496
   54MOL0     C 7174   5.172   1.044   5.358  0.9291 -0.3929 -0.4710
   54MOL0     C 7175   5.159   1.120   5.492 -0.0462  0.1157  0.7468
   54MOL0     C 7176   5.263   1.062   5.594  0.6065 -0.4824 -0.3371
   54MOL0     C 7177   5.415   1.107   5.557  0.4882  0.2574 -0.2166
   54MOL0     C 7178   5.430   1.265   5.574  0.5316 -0.6214  0.4071
   54MOL0     O 7179   5.404   1.331   5.448  0.7239 -0.1898  0.4686
   54MOL0     C 7180   5.502   1.341   5.353  0.1325  0.7749 -0.4398
   54MOL0     C 7181   5.610   1.252   5.339  0.3834  0.1967  0.6666
   54MOL0     C 7182   5.698   1.268   5.239  0.2541 -0.9033 -0.2330
   54MOL0     C 7183   5.825   1.182   5.240  0.6703  0.3348 -0.5924
   54MOL0     C 7184   5.675   1.366   5.140  0.3992  0.5264  0.7319
   54MOL0     C 7185   5.763   1.387   5.017  0.5259  0.5726 -0.0205
   54MOL0     O 7186   5.761   1.510   4.977  0.1709  0.0316  0.1069
   54MOL0     C 7187   5.826   1.537   4.861 -0.4130 -0.5304 -0.4798
   54MOL0     C 7188   5.759   1.607   4.761 -0.2188  0.9640  0.0438
   54MOL0     C 7189   5.840   1.646   4.650 -0.6461  0.4724 -0.4008
   54MOL0     C 7190   5.978   1.603   4.629  0.7486  0.0353  0.0583
   54MOL0     O 7191   6.049   1.647   4.521  0.1302  1.0337 -0.4312
   54MOL0     C 7192   5.993   1.740   4.429  0.0271 -0.1209  0.2277
   54MOL0     C 7193   6.083   1.737   4.301  0.0205  0.2180 -0.2600
   54MOL0     C 7194   6.058   1.861   4.214 -0.0281  0.3330  1.1448
   54MOL0     C 7195   6.183   1.934   4.174  0.8392  0.4135  0.2657
   54MOL0     C 7196   6.155   2.077   4.121 -0.2569  0.3297  0.1048
   54MOL0     C 7197   6.086   2.088   3.984  0.1318  0.5464 -0.0303
   54MOL0     C 7198   6.014   2.228   3.970  0.3983 -0.2106 -1.1205
   54MOL0     C 7199   5.889   2.215   4.058  0.0137 -0.3799 -0.2472
   54MOL0    Cl 7200   5.786   2.364   4.025 -0.8518  0.5085 -0.1980
   54MOL0     C 7201   6.040   1.545   4.739 -0.7173  0.5853 -0.1824
   54MOL0     C 7202   5.966   1.523   4.853 -0.0047 -0.1029 -0.7327
   54MOL0     O 7203   5.828   1.290   4.971  0.3293 -0.4149  0.0044
   54MOL0     C 7204   5.565   1.451   5.161 -0.5371 -0.0381  0.0173
   54MOL0     C 7205   5.475   1.440   5.265 -0.0961  0.2405  0.6712
   54MOL0     N 7206   5.122   0.923   5.332  0.2404  0.4728  0.0633
   54MOL0     N 7207   5.135   0.898   5.206 -0.0600  0.9164 -0.1245
   54MOL0     C 7208   5.785   0.697   4.360 -0.3303  0.0910 -0.1700
   54MOL0     C 7209   5.827   0.571   4.323  0.1495  0.1349 -0.1078
   54MOL0     C 7210   6.026   0.192   4.191  0.2482 -0.4281  0.1978
   54MOL0     C 7211   5.967   0.066   4.161 -0.7962 -1.1591 -0.5853
   54MOL0     C 7212   6.046  -0.053   4.185  0.1035  0.5778 -0.2755
   54MOL0     C 7213   6.176  -0.040   4.244  0.1710  0.0277  0.3056
   54MOL0     O 7214   6.246  -0.155   4.272 -0.3829  0.1331 -0.1323
   54MOL0     C 7215   6.372  -0.178   4.195 -0.0143 -0.2729 -0.8375
   54MOL0     C 7216   6.368  -0.314   4.115 -0.0842  0.0009 -0.1259
   54MOL0     C 7217   6.330  -0.445   4.199  0.3643  0.7540 -0.2710
   54MOL0     C 7218   6.363  -0.581   4.119  0.3351 -0.1637  0.3103
   54MOL0     C 7219   6.306  -0.683   4.202  0.1704 -0.4219  0.3836
   54MOL0     C 7220   6.242  -0.754   4.276  0.1977 -0.6290 -0.5606
   54MOL0     C 7221   6.232   0.079   4.272 -0.0109  0.0148 -0.2152
   54MOL0     C 7222   6.159   0.194   4.244 -0.1908 -0.0520 -0.1363
   54MOL0     H 7223   6.085   0.668   4.108 -1.4468  1.2788 -2.3784
   54MOL0     H 7224   5.973   0.891   4.175 -3.8970  1.6474  0.1595
   54MOL0     H 7225   5.658   1.071   4.444 -0.3684  0.8453  1.9594
   54MOL0     H 7226   5.627   0.904   4.475  0.6789 -1.2805 -1.8313
   54MOL0     H 7227   5.865   0.890   4.582 -4.0504 -2.1696 -0.4538
   54MOL0     H 7228   5.900   1.051   4.511  0.3208 -0.1739  1.8176
   54MOL0     H 7229   5.830   1.091   4.747 -1.8006 -1.9297  1.9160
   54MOL0     H 7230   5.694   1.142   4.651 -3.2300 -2.0372 -0.5120
   54MOL0     H 7231   5.568   0.940   4.685 -0.6948  1.4506  0.8684
   54MOL0     H 7232   5.697   0.882   4.794  0.8400 -0.7440  0.9348
   54MOL0     H 7233   5.651   1.035   4.947 -2.4392  0.6292  1.9855
   54MOL0     H 7234   5.575   1.144   4.824  1.9631  0.2568  0.0218
   54MOL0     H 7235   5.384   0.985   4.805 -0.4196  1.3686  0.7828
   54MOL0     H 7236   5.471   0.867   4.894 -0.3050  0.3713 -1.2751
   54MOL0     H 7237   5.458   0.991   5.106 -2.1701  0.8061  1.4006
   54MOL0     H 7238   5.400   1.141   5.028 -0.1183  0.4052  0.6488
   54MOL0     H 7239   5.235   0.885   4.966 -0.5636  0.8236 -1.7457
   54MOL0     H 7240   5.203   1.055   4.948 -0.1996 -0.4964 -1.3448
   54MOL0     H 7241   5.295   1.179   5.236  0.5214 -0.3640 -2.9610
   54MOL0     H 7242   5.182   1.226   5.479  2.6035 -0.4501  0.2382
   54MOL0     H 7243   5.059   1.108   5.534  0.0056 -0.8802  0.6185
   54MOL0     H 7244   5.264   0.953   5.603  2.8078 -0.5308 -0.5551
   54MOL0     H 7245   5.243   1.112   5.689 -0.9749  0.0439 -0.9065
   54MOL0     H 7246   5.439   1.068   5.457 -2.3577  1.4797 -1.4729
   54MOL0     H 7247   5.490   1.069   5.627  0.7883 -0.9008 -1.1324
   54MOL0     H 7248   5.533   1.279   5.607  0.1657  2.3518  0.5359
   54MOL0     H 7249   5.365   1.301   5.654 -0.5802  1.9022 -1.5170
   54MOL0     H 7250   5.629   1.173   5.412  2.2051 -0.9628 -0.9688
   54MOL0     H 7251   5.801   1.090   5.186  0.0200 -0.4371  0.9288
   54MOL0     H 7252   5.910   1.237   5.200  1.2009 -0.4575 -0.5701
   54MOL0     H 7253   5.845   1.148   5.342  0.4824 -0.5203 -0.8354
   54MOL0     H 7254   5.654   1.628   4.781  0.0267  1.9168  0.3728
   54MOL0     H 7255   5.779   1.693   4.574 -3.5976 -2.8155 -0.3082
   54MOL0     H 7256   5.888   1.728   4.400  0.1802  0.2165 -0.5020
   54MOL0     H 7257   6.005   1.840   4.471  1.3643  0.0077 -0.4007
   54MOL0     H 7258   6.189   1.745   4.327 -0.0589  0.4701 -0.0183
   54MOL0     H 7259   6.064   1.641   4.252 -3.6114  0.3091  0.6947
   54MOL0     H 7260   6.002   1.936   4.270 -0.1219  2.5140 -1.6719
   54MOL0     H 7261   6.004   1.829   4.125  0.5299  1.5840  0.3331
   54MOL0     H 7262   6.245   1.951   4.263 -0.3726  1.5970  0.9367
   54MOL0     H 7263   6.236   1.875   4.099  1.6885  0.9728  0.4123
   54MOL0     H 7264   6.255   2.121   4.111 -0.5080  1.5514  2.3356
   54MOL0     H 7265   6.115   2.136   4.204  0.9315 -0.9829  1.6833
   54MOL0     H 7266   6.169   2.092   3.913 -0.2801 -1.5030 -0.7005
   54MOL0     H 7267   6.025   2.002   3.957  0.7923 -0.3003  1.1038
   54MOL0     H 7268   5.975   2.260   3.873 -0.1929  2.3270 -0.1227
   54MOL0     H 7269   6.061   2.318   4.010 -3.2913  2.7434 -2.8532
   54MOL0     H 7270   5.914   2.202   4.164 -0.5553  0.5374  0.0096
   54MOL0     H 7271   5.825   2.131   4.031  0.9320 -0.7687 -1.2999
   54MOL0     H 7272   6.146   1.523   4.723 -1.2593 -0.9048 -2.1581
   54MOL0     H 7273   6.019   1.488   4.941  2.8798  2.1334 -1.4298
   54MOL0     H 7274   5.546   1.530   5.088  2.1016 -0.5658 -1.3348
   54MOL0     H 7275   5.385   1.497   5.285 -0.0556  0.5911 -0.1182
   54MOL0     H 7276   5.718   0.682   4.443  1.5979 -1.2679  1.2177
   54MOL0     H 7277   5.780   0.485   4.368  1.7872  0.7177  3.0005
   54MOL0     H 7278   5.868   0.048   4.120 -0.8832  0.8297 -1.3641
   54MOL0     H 7279   6.017  -0.155   4.166  0.3422  0.1788  1.3175
   54MOL0     H 7280   6.400  -0.093   4.132  0.1686 -0.5210 -1.0938
   54MOL0     H 7281   6.455  -0.189   4.265  0.8222  0.4055 -1.6840
   54MOL0     H 7282   6.465  -0.330   4.069 -0.9153 -1.2773 -1.4921
   54MOL0     H 7283   6.302  -0.292   4.031  1.1625 -0.0089 -1.1280
   54MOL0     H 7284   6.223  -0.444   4.223 -0.1171  1.5902 -2.2373
   54MOL0     H 7285   6.385  -0.447   4.293 -0.7130 -1.7758  0.3843
   54MOL0     H 7286   6.469  -0.602   4.106  0.5283  0.5119  0.7545
   54MOL0     H 7287   6.306  -0.583   4.026 -2.3698  2.9821  1.6923
   54MOL0     H 7288   6.174  -0.817   4.329 -0.8073  1.3951  0.6729
   54MOL0     H 7289   6.331   0.078   4.317 -0.1500  0.5863  0.1173
   54MOL0     H 7290   6.200   0.293   4.263  1.1376 -0.2790 -1.6397
   55MOL0     O 7291   5.496   3.089   7.293 -0.4619 -0.3795  0.7032
   55MOL0     C 7292   5.407   3.088   7.213  1.1001 -1.0491 -0.2625
   55MOL0     O 7293   5.400   3.161   7.102  0.3411 -0.3131  0.7149
   55MOL0     C 7294   5.496   3.250   7.081 -0.3414 -0.0941  0.0076
   55MOL0     C 7295   5.471   3.385   7.067  0.4546  0.0025 -0.2609
   55MOL0     C 7296   5.575   3.475   7.036 -0.4015 -0.2245 -0.5040
   55MOL0     C 7297   5.703   3.427   7.005 -0.2798 -0.6576 -0.1435
   55MOL0     O 7298   5.820   3.496   6.982  0.0339 -0.1135  0.1143
   55MOL0     C 7299   5.814   3.613   6.901 -0.3511  0.0612  0.9669
   55MOL0     C 7300   5.953   3.671   6.878  0.0001  0.0482 -1.2713
   55MOL0     C 7301   6.023   3.731   7.001  0.0357  0.1353  0.2208
   55MOL0     C 7302   6.142   3.806   6.946  0.1573 -0.1519 -0.2289
   55MOL0     C 7303   6.198   3.889   7.067 -0.5223 -0.6787 -0.1777
   55MOL0     C 7304   6.342   3.938   7.048 -0.3014  0.4997  0.0834
   55MOL0     C 7305   6.360   4.035   6.926 -0.1052 -0.1790  0.5172
   55MOL0     C 7306   6.500   4.101   6.894  0.2785  0.1912  0.0665
   55MOL0     N 7307   6.499   4.204   6.789  0.7834 -0.7389  0.5343
   55MOL0     C 7308   6.501   4.344   6.806 -0.2011  0.6120 -0.6901
   55MOL0     C 7309   6.505   4.389   6.683 -0.4009 -0.1206 -0.2230
   55MOL0     C 7310   6.493   4.533   6.641  0.1722  0.1667 -0.3080
   55MOL0     C 7311   6.617   4.589   6.573 -0.2317  0.0102  0.2224
   55MOL0     C 7312   6.585   4.728   6.514 -0.1665  0.0122  0.7157
   55MOL0     C 7313   6.702   4.801   6.448 -0.4606 -0.4937 -0.8951
   55MOL0     O 7314   6.790   4.854   6.552 -0.2961  0.5319 -0.0711
   55MOL0     C 7315   6.916   4.890   6.510 -0.2504 -0.8212 -0.3694
   55MOL0     C 7316   7.014   4.894   6.616 -0.1982 -0.7710  0.3881
   55MOL0     C 7317   7.144   4.928   6.601 -0.0950  0.7635 -0.0809
   55MOL0     C 7318   7.222   4.954   6.730 -0.0994 -0.4237  0.3358
   55MOL0     C 7319   7.188   4.972   6.469  0.3472  0.7297 -0.3470
   55MOL0     C 7320   7.315   5.039   6.428 -0.0071 -1.0168 -0.6713
   55MOL0     O 7321   7.311   5.105   6.313 -0.7164  0.7111  1.0728
   55MOL0     C 7322   7.429   5.141   6.253  0.2073 -0.0841  0.0941
   55MOL0     C 7323   7.481   5.274   6.270  0.2256  0.0011  0.2118
   55MOL0     C 7324   7.596   5.310   6.208 -0.4638 -0.3887 -0.0127
   55MOL0     C 7325   7.661   5.213   6.123 -0.1382 -0.1626  0.4112
   55MOL0     O 7326   7.773   5.255   6.055 -0.2713 -0.2783 -0.5048
   55MOL0     C 7327   7.820   5.192   5.934  1.2808  0.3658 -0.7297
   55MOL0     C 7328   7.920   5.293   5.868  0.7005  0.2240  0.0107
   55MOL0     C 7329   7.878   5.439   5.876 -0.1857 -1.0637 -0.2810
   55MOL0     C 7330   7.948   5.504   6.002 -0.1305  0.7710 -0.9609
   55MOL0     C 7331   7.910   5.660   5.995 -0.4296  0.4377 -0.0308
   55MOL0     C 7332   7.931   5.735   6.128 -0.4719 -1.2046  0.2648
   55MOL0     C 7333   7.861   5.869   6.123 -0.3298  0.2911 -1.3319
   55MOL0     C 7334   7.897   5.962   5.994 -0.4896 -0.2297 -0.3977
   55MOL0    Cl 7335   7.896   6.131   6.051 -0.3154 -0.7030  0.1123
   55MOL0     C 7336   7.610   5.079   6.095  0.4615 -0.3742  0.4443
   55MOL0     C 7337   7.495   5.049   6.166  1.3470 -0.3645 -1.1027
   55MOL0     O 7338   7.419   5.028   6.495 -0.4025 -0.5589 -0.7608
   55MOL0     C 7339   7.095   4.959   6.366  0.2580  0.6007 -0.0479
   55MOL0     C 7340   6.962   4.927   6.384 -0.2308 -0.1882  0.2453
   55MOL0     N 7341   6.515   4.287   6.587  0.1304  0.5175  0.0641
   55MOL0     N 7342   6.527   4.173   6.652 -0.2722  0.2477 -0.6371
   55MOL0     C 7343   5.727   3.290   7.015  0.2775  0.0788 -1.2178
   55MOL0     C 7344   5.622   3.203   7.041 -0.4094  0.3346  0.3182
   55MOL0     C 7345   5.293   3.001   7.251  0.3012 -0.8669 -0.3098
   55MOL0     C 7346   5.293   2.906   7.351 -0.1281  0.6183  0.6502
   55MOL0     C 7347   5.190   2.818   7.366 -1.6004  0.4281 -0.7620
   55MOL0     C 7348   5.074   2.829   7.294 -0.3082  0.6009  0.2602
   55MOL0     O 7349   4.985   2.723   7.306 -0.0870  0.0853 -0.1630
   55MOL0     C 7350   4.856   2.727   7.241 -0.0435  0.4314 -0.5613
   55MOL0     C 7351   4.830   2.584   7.200  0.3859  0.0738 -0.3365
   55MOL0     C 7352   4.909   2.476   7.284  0.0704 -0.3660 -0.0716
   55MOL0     C 7353   4.863   2.330   7.248  0.4197 -0.5560 -0.6368
   55MOL0     C 7354   4.921   2.226   7.340  0.2434 -0.0828 -0.0999
   55MOL0     C 7355   4.968   2.136   7.409 -0.2920 -0.6044  0.4248
   55MOL0     C 7356   5.061   2.928   7.202 -0.0036 -0.3057  0.1234
   55MOL0     C 7357   5.169   3.009   7.182  0.4582  0.1051 -0.8542
   55MOL0     H 7358   5.369   3.420   7.078  0.5147  0.1195 -0.0755
   55MOL0     H 7359   5.565   3.582   7.028 -0.8189 -0.2224 -0.0017
   55MOL0     H 7360   5.765   3.590   6.805 -1.1084  0.7776  1.1685
   55MOL0     H 7361   5.750   3.688   6.948 -0.2290  0.0040  1.2213
   55MOL0     H 7362   6.015   3.589   6.841  0.5106  0.0938 -0.5444
   55MOL0     H 7363   5.950   3.744   6.796 -0.2919  1.0941 -0.3472
   55MOL0     H 7364   5.955   3.801   7.051 -3.4793 -1.1139 -2.4094
   55MOL0     H 7365   6.055   3.648   7.065 -0.0442 -0.1337 -0.0880
   55MOL0     H 7366   6.219   3.736   6.910  0.8975  1.0333 -1.0231
   55MOL0     H 7367   6.114   3.867   6.859  2.6566 -1.7707 -2.3417
   55MOL0     H 7368   6.127   3.972   7.080 -1.9633 -1.8473 -0.2187
   55MOL0     H 7369   6.191   3.833   7.161  0.2547 -2.3685 -1.0792
   55MOL0     H 7370   6.369   3.991   7.140 -2.2988  0.5573  0.6935
   55MOL0     H 7371   6.408   3.852   7.040 -0.2200  0.6519 -0.9557
   55MOL0     H 7372   6.325   3.983   6.836  0.5001  0.3257 -0.0188
   55MOL0     H 7373   6.287   4.113   6.950 -1.1173 -1.6010  2.3071
   55MOL0     H 7374   6.568   4.021   6.865 -1.1032 -0.5474 -1.2600
   55MOL0     H 7375   6.528   4.145   6.991  2.3717 -0.4358 -0.2024
   55MOL0     H 7376   6.496   4.409   6.893 -0.2503 -0.4988  0.1617
   55MOL0     H 7377   6.409   4.534   6.571 -0.8984 -0.8971  0.8928
   55MOL0     H 7378   6.466   4.603   6.722 -1.9308  2.7089 -2.9771
   55MOL0     H 7379   6.637   4.531   6.482 -2.4658  0.7726 -0.8236
   55MOL0     H 7380   6.708   4.574   6.631 -0.6670 -1.6767  0.5534
   55MOL0     H 7381   6.551   4.787   6.600 -2.1715  0.1175 -0.0984
   55MOL0     H 7382   6.508   4.737   6.437 -0.6041  1.2648  1.2826
   55MOL0     H 7383   6.669   4.888   6.390 -1.8052 -0.1224  0.3672
   55MOL0     H 7384   6.758   4.736   6.381 -2.4056 -0.3377 -2.7820
   55MOL0     H 7385   6.976   4.870   6.715  0.5779 -1.2277  0.5912
   55MOL0     H 7386   7.184   4.889   6.810  0.4781  0.6959  1.5686
   55MOL0     H 7387   7.322   4.913   6.717  0.6660  2.0119 -2.2640
   55MOL0     H 7388   7.237   5.058   6.761  2.5835  0.1871 -2.6107
   55MOL0     H 7389   7.421   5.336   6.335 -0.8611 -0.6594 -0.1318
   55MOL0     H 7390   7.642   5.404   6.236 -1.3520  0.0744 -0.0539
   55MOL0     H 7391   7.879   5.114   5.982  0.7874 -0.2632 -1.1379
   55MOL0     H 7392   7.750   5.163   5.855  0.5237  3.2161 -1.2353
   55MOL0     H 7393   8.018   5.276   5.912 -0.4079 -0.5698  2.3601
   55MOL0     H 7394   7.922   5.261   5.764  0.2112  0.4540 -0.0732
   55MOL0     H 7395   7.769   5.442   5.874 -0.1714  1.7134 -0.9213
   55MOL0     H 7396   7.910   5.493   5.786  0.4642  1.7539  1.4980
   55MOL0     H 7397   7.920   5.458   6.097  2.3717 -0.2879 -0.6448
   55MOL0     H 7398   8.054   5.478   5.994 -0.4948 -1.8939  1.3596
   55MOL0     H 7399   7.809   5.676   5.957 -0.4070  1.6717  0.3798
   55MOL0     H 7400   7.981   5.701   5.922 -1.7056  0.2276 -1.4537
   55MOL0     H 7401   7.890   5.667   6.204  0.8191 -0.6345  1.5165
   55MOL0     H 7402   8.035   5.755   6.155 -0.2422  3.6254 -3.1003
   55MOL0     H 7403   7.878   5.910   6.223  1.2309  0.7457 -1.7538
   55MOL0     H 7404   7.754   5.846   6.118 -0.2962  0.3521 -3.5930
   55MOL0     H 7405   7.822   5.930   5.921 -1.6260 -1.0327  1.0561
   55MOL0     H 7406   8.000   5.943   5.962 -1.1397 -3.1569 -1.0650
   55MOL0     H 7407   7.662   5.015   6.025  0.4652 -1.3996  1.3657
   55MOL0     H 7408   7.454   4.949   6.175 -2.6608  1.1570 -0.3280
   55MOL0     H 7409   7.126   4.972   6.263 -4.7502  1.2494 -1.7738
   55MOL0     H 7410   6.897   4.925   6.297  1.2017  1.7384 -0.9709
   55MOL0     H 7411   5.829   3.258   6.998  1.4583 -1.0479  5.3030
   55MOL0     H 7412   5.641   3.097   7.059 -1.5499  0.0832  0.0802
   55MOL0     H 7413   5.382   2.902   7.413 -0.6304  2.7280  1.5698
   55MOL0     H 7414   5.191   2.739   7.441 -0.6449  1.1003 -0.0269
   55MOL0     H 7415   4.791   2.769   7.319 -2.1703 -0.0660 -1.9662
   55MOL0     H 7416   4.843   2.791   7.152 -1.1861 -0.6222 -1.1894
   55MOL0     H 7417   4.840   2.564   7.092 -3.3430  0.0969 -0.7992
   55MOL0     H 7418   4.728   2.550   7.219  0.2948 -0.2004 -1.2543
   55MOL0     H 7419   4.895   2.491   7.392  1.2949 -2.1258  0.3784
   55MOL0     H 7420   5.012   2.474   7.246  0.5559  0.4285  1.1344
   55MOL0     H 7421   4.884   2.315   7.141  4.0622  2.2284 -0.5062
   55MOL0     H 7422   4.757   2.334   7.272  0.6131  1.1622  0.0559
   55MOL0     H 7423   5.009   2.048   7.453  0.9240 -0.6949 -0.8173
   55MOL0     H 7424   4.977   2.942   7.134  1.3152 -0.0174 -1.5030
   55MOL0     H 7425   5.171   3.087   7.106  1.9708  1.7223  0.7597
   56MOL0     O 7426   3.927   5.927   4.595  0.6032 -0.7095  0.3536
   56MOL0     C 7427   4.011   5.963   4.681 -0.1899 -0.8972  0.9737
   56MOL0     O 7428   3.996   5.979   4.819 -0.5084  0.8023  0.8919
   56MOL0     C 7429   3.900   5.916   4.897 -1.5411  0.4289  0.3283
   56MOL0     C 7430   3.852   5.783   4.868 -0.1992  0.2951  1.3468
   56MOL0     C 7431   3.765   5.718   4.955  1.2664  1.0202 -0.9638
   56MOL0     C 7432   3.746   5.782   5.081  0.7250 -0.7395 -0.1132
   56MOL0     O 7433   3.681   5.727   5.190  0.1130  1.0009  0.0038
   56MOL0     C 7434   3.573   5.637   5.172 -0.0288 -0.5416 -0.2584
   56MOL0     C 7435   3.519   5.576   5.299 -0.1311 -1.0808  0.1964
   56MOL0     C 7436   3.417   5.663   5.383  0.0873  0.3153 -0.0772
   56MOL0     C 7437   3.381   5.610   5.518  0.1037  0.3595 -0.0325
   56MOL0     C 7438   3.495   5.602   5.616  0.3156  0.3005 -0.1847
   56MOL0     C 7439   3.441   5.614   5.762 -0.7942  0.6883  0.0710
   56MOL0     C 7440   3.434   5.476   5.826 -0.5982 -0.7541 -0.0805
   56MOL0     C 7441   3.567   5.424   5.870 -0.2620 -1.0451 -0.1748
   56MOL0     N 7442   3.571   5.289   5.930  1.0620  0.2834  0.6387
   56MOL0     C 7443   3.487   5.233   6.020 -0.8446  0.1979  0.3755
   56MOL0     C 7444   3.530   5.100   6.023 -0.2040  0.1381  0.6326
   56MOL0     C 7445   3.478   5.001   6.134 -1.4333 -1.0719  0.1313
   56MOL0     C 7446   3.580   4.932   6.225 -0.5347  0.0228  0.1451
   56MOL0     C 7447   3.670   4.834   6.144  0.1219  0.4753 -0.4150
   56MOL0     C 7448   3.599   4.746   6.033 -0.2546 -0.8740 -0.9089
   56MOL0     O 7449   3.503   4.660   6.094 -0.0426 -0.1488 -0.6399
   56MOL0     C 7450   3.495   4.534   6.034  0.2344 -0.0990  0.5016
   56MOL0     C 7451   3.489   4.532   5.887  0.7844  0.3648  0.6610
   56MOL0     C 7452   3.456   4.412   5.830 -0.1027  0.3171 -0.4884
   56MOL0     C 7453   3.459   4.411   5.679  1.0586 -0.6522  0.1825
   56MOL0     C 7454   3.449   4.293   5.905  0.8414  0.3782  0.3666
   56MOL0     C 7455   3.446   4.166   5.843 -0.1049  0.5763  0.0954
   56MOL0     O 7456   3.512   4.070   5.911  0.5264 -0.5096 -0.2151
   56MOL0     C 7457   3.496   3.942   5.879 -0.8709  0.7547  0.5449
   56MOL0     C 7458   3.530   3.885   5.755  0.8665 -0.9972  1.0220
   56MOL0     C 7459   3.526   3.751   5.740  0.4190  0.4064 -0.1165
   56MOL0     C 7460   3.493   3.661   5.851  0.5631 -0.5382  0.4595
   56MOL0     O 7461   3.488   3.525   5.843  0.2916 -0.6622  0.0453
   56MOL0     C 7462   3.594   3.471   5.770  0.2171 -0.0617 -0.7982
   56MOL0     C 7463   3.626   3.318   5.805  0.1609  0.1872  0.3840
   56MOL0     C 7464   3.487   3.236   5.829 -0.6099  0.0284  0.0095
   56MOL0     C 7465   3.522   3.093   5.870  0.9652 -0.7379 -0.3097
   56MOL0     C 7466   3.525   2.985   5.764 -0.2225  0.5137 -0.4392
   56MOL0     C 7467   3.587   2.853   5.821  0.0480 -0.4396 -0.3742
   56MOL0     C 7468   3.524   2.792   5.944 -0.1217 -0.3510 -0.0294
   56MOL0     C 7469   3.527   2.639   5.939 -0.4911  0.2862  0.3624
   56MOL0    Cl 7470   3.481   2.573   6.100  0.2353 -0.1974  0.2502
   56MOL0     C 7471   3.458   3.725   5.974 -0.3847 -0.1166  1.1931
   56MOL0     C 7472   3.466   3.860   5.983  1.0356 -0.5109  0.3489
   56MOL0     O 7473   3.367   4.144   5.744 -0.2325  0.0885 -0.7769
   56MOL0     C 7474   3.454   4.298   6.050  0.0797 -0.0002 -0.6929
   56MOL0     C 7475   3.481   4.416   6.110  1.0009 -1.1056 -0.2668
   56MOL0     N 7476   3.625   5.072   5.923 -0.5583  0.1190 -0.3009
   56MOL0     N 7477   3.643   5.185   5.875 -0.1152 -0.2482  1.1317
   56MOL0     C 7478   3.803   5.898   5.113  0.1151  0.5002  0.4323
   56MOL0     C 7479   3.881   5.970   5.024 -0.1135  0.1447 -0.5096
   56MOL0     C 7480   4.143   6.007   4.634  0.4438  0.0873  0.1211
   56MOL0     C 7481   4.165   6.035   4.495 -0.4081 -0.3613  0.5453
   56MOL0     C 7482   4.295   6.062   4.445 -0.8795 -0.5275 -0.4805
   56MOL0     C 7483   4.402   6.064   4.531  0.9974  0.1736 -0.0407
   56MOL0     O 7484   4.534   6.072   4.488  0.4831 -0.0327 -0.7480
   56MOL0     C 7485   4.578   6.071   4.352 -0.1257 -0.1691  0.0908
   56MOL0     C 7486   4.726   6.098   4.336  0.2280 -0.4087 -0.0497
   56MOL0     C 7487   4.811   5.970   4.372  0.9352 -0.0586  0.2354
   56MOL0     C 7488   4.820   5.926   4.517  0.4284 -1.0667  0.0698
   56MOL0     C 7489   4.885   6.034   4.598  0.5454 -0.1072  1.1994
   56MOL0     C 7490   4.967   6.107   4.658  0.9454 -0.3096 -0.3280
   56MOL0     C 7491   4.382   6.035   4.673 -0.0526  0.1253 -0.0273
   56MOL0     C 7492   4.255   6.007   4.726 -0.3768  0.3055  0.6323
   56MOL0     H 7493   3.875   5.741   4.771  3.0415 -4.3943  3.8021
   56MOL0     H 7494   3.728   5.618   4.936  0.9640  1.1455 -1.0390
   56MOL0     H 7495   3.504   5.704   5.120  0.7626 -2.4281 -4.0591
   56MOL0     H 7496   3.603   5.561   5.100 -0.4437 -0.5543 -0.4235
   56MOL0     H 7497   3.461   5.486   5.277 -4.1228  1.5637 -1.2473
   56MOL0     H 7498   3.597   5.544   5.369  0.5115  1.8182  0.9604
   56MOL0     H 7499   3.464   5.760   5.403 -0.3611  0.7339 -0.9615
   56MOL0     H 7500   3.333   5.685   5.316  1.9144  1.4403 -2.1458
   56MOL0     H 7501   3.303   5.677   5.556 -0.3663 -0.2672  0.1241
   56MOL0     H 7502   3.326   5.516   5.512  1.6140 -0.5670 -0.0004
   56MOL0     H 7503   3.554   5.513   5.592 -0.8496  0.0030 -2.1857
   56MOL0     H 7504   3.557   5.690   5.598  0.0181  0.3649 -0.9462
   56MOL0     H 7505   3.515   5.685   5.797 -1.2956  0.2812  2.0663
   56MOL0     H 7506   3.340   5.656   5.770 -0.9850  0.1475  0.5156
   56MOL0     H 7507   3.360   5.487   5.905 -0.0767  2.2602  0.1154
   56MOL0     H 7508   3.390   5.414   5.748 -0.8780  0.9152 -1.2925
   56MOL0     H 7509   3.611   5.506   5.926 -1.5077 -0.9753  0.7510
   56MOL0     H 7510   3.638   5.409   5.789 -0.0462  0.4693 -0.2934
   56MOL0     H 7511   3.411   5.287   6.075  0.4818  1.1310  1.3834
   56MOL0     H 7512   3.423   5.070   6.200 -0.3311  0.0503 -0.0933
   56MOL0     H 7513   3.403   4.933   6.091 -0.2668 -2.2178 -0.1490
   56MOL0     H 7514   3.521   4.887   6.306  2.3249 -2.9315  0.7902
   56MOL0     H 7515   3.644   5.014   6.260 -0.3787  0.4974 -1.2206
   56MOL0     H 7516   3.705   4.769   6.225 -1.7734  0.3092  0.3112
   56MOL0     H 7517   3.750   4.896   6.102  1.4267  1.2858  2.9392
   56MOL0     H 7518   3.680   4.690   5.984  0.5784 -1.4965  1.0958
   56MOL0     H 7519   3.536   4.803   5.964  0.2397 -2.6624 -2.9498
   56MOL0     H 7520   3.479   4.617   5.820 -2.7993  0.4006  1.0455
   56MOL0     H 7521   3.502   4.500   5.632  2.1627 -1.0240  0.4491
   56MOL0     H 7522   3.523   4.329   5.644 -1.0601 -3.3365  2.1333
   56MOL0     H 7523   3.357   4.406   5.641 -0.1562  1.5925  2.8431
   56MOL0     H 7524   3.561   3.950   5.673 -0.6033 -0.0115  1.2154
   56MOL0     H 7525   3.548   3.714   5.641  0.5991 -1.1147  0.4649
   56MOL0     H 7526   3.567   3.490   5.666 -0.5352 -0.4544 -0.6846
   56MOL0     H 7527   3.678   3.536   5.794  1.2974 -1.5030 -0.5255
   56MOL0     H 7528   3.670   3.280   5.713 -1.3514  1.7902 -1.0601
   56MOL0     H 7529   3.695   3.299   5.888 -0.4430 -2.6342  0.3185
   56MOL0     H 7530   3.431   3.238   5.735  1.0180 -0.4615 -1.0216
   56MOL0     H 7531   3.432   3.297   5.902  3.4943  4.9988 -0.4491
   56MOL0     H 7532   3.623   3.096   5.912  0.5074  0.9305  0.7455
   56MOL0     H 7533   3.454   3.050   5.943 -0.5687 -2.1117 -2.4368
   56MOL0     H 7534   3.589   3.027   5.686 -0.7997  1.4898 -0.4157
   56MOL0     H 7535   3.423   2.966   5.729 -0.3567  2.4894 -1.2773
   56MOL0     H 7536   3.601   2.788   5.734 -1.0614 -0.3158 -0.6641
   56MOL0     H 7537   3.690   2.886   5.840 -0.7470  1.8956  0.2535
   56MOL0     H 7538   3.420   2.825   5.953 -1.6910 -4.8583  1.2021
   56MOL0     H 7539   3.576   2.824   6.035 -0.7747  2.0683 -0.4322
   56MOL0     H 7540   3.626   2.607   5.906 -0.0219  1.6679  0.3663
   56MOL0     H 7541   3.453   2.605   5.867  1.0141 -1.3180 -0.5193
   56MOL0     H 7542   3.433   3.670   6.064  3.4278 -2.3621  1.0859
   56MOL0     H 7543   3.454   3.916   6.075 -1.9141 -2.4571  1.2781
   56MOL0     H 7544   3.425   4.208   6.104 -2.0376  1.2902  0.4797
   56MOL0     H 7545   3.472   4.418   6.218  1.2630  1.6005 -0.2396
   56MOL0     H 7546   3.773   5.937   5.209  0.2399 -1.6346  1.4040
   56MOL0     H 7547   3.919   6.065   5.059 -1.1605  0.6777 -0.7547
   56MOL0     H 7548   4.091   6.022   4.417 -2.5461  0.5842  2.3067
   56MOL0     H 7549   4.313   6.072   4.339 -2.4453 -2.2964 -0.9603
   56MOL0     H 7550   4.535   5.981   4.308 -0.8195  1.3866 -2.6408
   56MOL0     H 7551   4.532   6.154   4.299  2.0756  1.6393  0.8307
   56MOL0     H 7552   4.759   6.179   4.401 -2.2891  0.9665 -0.3632
   56MOL0     H 7553   4.744   6.139   4.236  2.9312  3.2242  1.7180
   56MOL0     H 7554   4.915   5.985   4.342  1.0400  0.1410  0.6874
   56MOL0     H 7555   4.770   5.884   4.318 -1.6530  2.7701 -2.7276
   56MOL0     H 7556   4.876   5.834   4.537 -1.0953 -1.8988  0.7388
   56MOL0     H 7557   4.717   5.909   4.549  0.1875 -0.1776 -0.1995
   56MOL0     H 7558   5.052   6.155   4.703  0.7098  0.3880 -0.6115
   56MOL0     H 7559   4.462   6.007   4.741  1.1179  0.0700 -1.3819
   56MOL0     H 7560   4.233   5.990   4.830 -0.2590  5.2598  1.7358
   57MOL0     O 7561   0.174   0.866   0.183 -0.2792  0.6517  0.0749
   57MOL0     C 7562   0.166   0.785   0.086  0.2189  0.3052 -0.7268
   57MOL0     O 7563   0.254   0.691   0.053  0.2746 -0.2574 -0.5805
   57MOL0     C 7564   0.354   0.673   0.149 -0.1740 -0.7799  0.1338
   57MOL0     C 7565   0.330   0.601   0.267 -0.0283 -0.0326 -0.7574
   57MOL0     C 7566   0.437   0.589   0.367 -0.0530 -0.2092  0.1664
   57MOL0     C 7567   0.560   0.659   0.349  0.0227  1.0016  0.7400
   57MOL0     O 7568   0.673   0.657   0.436  0.2865  0.3398 -0.3125
   57MOL0     C 7569   0.665   0.564   0.546  0.8867  0.6896 -0.5881
   57MOL0     C 7570   0.800   0.521   0.600 -0.0293  0.7838 -0.1532
   57MOL0     C 7571   0.797   0.396   0.683  0.1154 -0.4147 -1.0067
   57MOL0     C 7572   0.947   0.350   0.685 -0.0275  0.5894 -1.3250
   57MOL0     C 7573   0.968   0.214   0.758 -0.0788  0.2547  0.3247
   57MOL0     C 7574   1.016   0.224   0.904  0.5191  0.3421  0.1045
   57MOL0     C 7575   0.954   0.334   0.999  0.6499  0.8843  0.5948
   57MOL0     C 7576   1.062   0.360   1.117  0.3874 -0.0369  0.5184
   57MOL0     N 7577   1.100   0.237   1.189  0.0098 -0.3915  0.8498
   57MOL0     C 7578   1.043   0.197   1.305 -0.6058  0.3875 -0.6007
   57MOL0     C 7579   1.126   0.106   1.355 -0.7351  0.3608  0.1535
   57MOL0     C 7580   1.130   0.059   1.498 -0.1339 -0.6107 -0.7742
   57MOL0     C 7581   1.168   0.182   1.584 -0.2473  0.8056 -0.5263
   57MOL0     C 7582   1.313   0.223   1.590 -0.9447  0.0107  0.0301
   57MOL0     C 7583   1.393   0.125   1.663 -0.8303  0.6123 -0.8508
   57MOL0     O 7584   1.535   0.150   1.663 -0.8218  0.0168 -0.3972
   57MOL0     C 7585   1.608   0.095   1.764  0.3959  0.5385 -0.6670
   57MOL0     C 7586   1.580  -0.035   1.815  0.4196  0.6978 -0.5504
   57MOL0     C 7587   1.652  -0.087   1.921 -0.1385  0.1746 -0.0066
   57MOL0     C 7588   1.597  -0.225   1.964 -0.2732 -0.5491 -0.0827
   57MOL0     C 7589   1.750  -0.014   1.984 -0.2741  0.1363  0.4488
   57MOL0     C 7590   1.830  -0.070   2.101  0.0262 -0.1966  0.0362
   57MOL0     O 7591   1.891   0.026   2.184  0.5900  0.0939  0.1490
   57MOL0     C 7592   1.949  -0.022   2.303 -0.9383 -0.0670  0.1153
   57MOL0     C 7593   1.899   0.019   2.430 -0.4851 -0.1239  0.0043
   57MOL0     C 7594   1.965  -0.020   2.545 -0.6378 -0.4267 -0.3832
   57MOL0     C 7595   2.082  -0.096   2.547 -0.8394 -0.0781 -0.9689
   57MOL0     O 7596   2.137  -0.110   2.672  0.0694 -0.9510  0.4410
   57MOL0     C 7597   2.072  -0.208   2.742  0.1905  1.1544  0.1566
   57MOL0     C 7598   2.177  -0.308   2.793  0.1196  0.4252  0.8895
   57MOL0     C 7599   2.240  -0.385   2.672  0.0139  0.3418 -0.5050
   57MOL0     C 7600   2.128  -0.463   2.581 -0.7218  0.6874 -0.1038
   57MOL0     C 7601   2.192  -0.561   2.489 -0.2537 -0.5725  0.1128
   57MOL0     C 7602   2.084  -0.663   2.433  0.1278  0.2420  0.6825
   57MOL0     C 7603   2.095  -0.791   2.512  0.9524  0.3379 -0.7541
   57MOL0     C 7604   2.209  -0.891   2.461 -0.4774  0.4439 -0.5567
   57MOL0    Cl 7605   2.169  -1.060   2.510 -0.2631 -0.2253 -0.1208
   57MOL0     C 7606   2.141  -0.120   2.425  0.0219  0.2284 -0.1188
   57MOL0     C 7607   2.073  -0.081   2.310 -1.2979 -0.0196 -0.7380
   57MOL0     O 7608   1.830  -0.193   2.132  0.2626 -0.2852  0.0214
   57MOL0     C 7609   1.783   0.112   1.929 -0.2831  0.4051  0.1033
   57MOL0     C 7610   1.716   0.164   1.819  0.5638  0.5112  0.6351
   57MOL0     N 7611   1.231   0.096   1.264 -0.2555 -0.1711 -0.1920
   57MOL0     N 7612   1.202   0.160   1.159 -0.2733 -0.5964 -0.0232
   57MOL0     C 7613   0.571   0.741   0.238  0.6243 -0.3700 -0.2221
   57MOL0     C 7614   0.475   0.756   0.140 -0.3802  0.2352 -0.1524
   57MOL0     C 7615   0.037   0.801   0.005  0.7359  0.0532  1.2208
   57MOL0     C 7616   0.036   0.745  -0.122 -1.1450  0.2736  0.5510
   57MOL0     C 7617  -0.061   0.779  -0.208  0.5208  0.7082  0.4144
   57MOL0     C 7618  -0.186   0.836  -0.165  0.5439 -0.3288 -0.4889
   57MOL0     O 7619  -0.285   0.854  -0.261 -0.1738 -0.1270 -0.0252
   57MOL0     C 7620  -0.410   0.905  -0.205 -0.2775  0.0295 -0.1230
   57MOL0     C 7621  -0.519   0.925  -0.319 -1.0662 -0.2423 -0.8786
   57MOL0     C 7622  -0.645   1.008  -0.277 -0.6269 -0.7190  0.4107
   57MOL0     C 7623  -0.755   0.994  -0.380  0.2190  0.0411 -0.7184
   57MOL0     C 7624  -0.814   0.859  -0.382 -0.5760  0.5130  0.0595
   57MOL0     C 7625  -0.840   0.743  -0.366  0.1945  0.1489 -0.4187
   57MOL0     C 7626  -0.196   0.865  -0.024 -1.1158  0.3249 -1.0344
   57MOL0     C 7627  -0.081   0.855   0.055  0.4654  0.5742 -0.2113
   57MOL0     H 7628   0.241   0.540   0.268  0.7906 -1.2630  0.2118
   57MOL0     H 7629   0.429   0.511   0.442 -0.6274  1.4510  1.9087
   57MOL0     H 7630   0.594   0.584   0.628  1.3908 -2.8945  0.9426
   57MOL0     H 7631   0.628   0.471   0.501  1.7699 -0.2035  0.4546
   57MOL0     H 7632   0.859   0.486   0.514  1.7814  0.0867  1.3102
   57MOL0     H 7633   0.846   0.607   0.650 -0.6426  2.3912 -2.1692
   57MOL0     H 7634   0.757   0.415   0.783 -1.3226 -1.7711 -1.2827
   57MOL0     H 7635   0.745   0.312   0.636  0.7457 -0.8986 -0.8427
   57MOL0     H 7636   0.988   0.347   0.584 -2.0379 -2.0863 -2.1874
   57MOL0     H 7637   1.002   0.428   0.737 -0.3675 -0.6446  1.0273
   57MOL0     H 7638   0.871   0.163   0.750 -2.6900  4.7213 -0.0067
   57MOL0     H 7639   1.042   0.150   0.709  0.4739 -0.0922  1.5575
   57MOL0     H 7640   1.000   0.124   0.945  0.8481 -0.1098 -0.8456
   57MOL0     H 7641   1.122   0.251   0.905  0.2442  1.4685  0.9011
   57MOL0     H 7642   0.917   0.427   0.957  1.8047 -0.1267 -3.0305
   57MOL0     H 7643   0.859   0.299   1.040 -0.5296  1.6565 -1.3756
   57MOL0     H 7644   1.029   0.424   1.200 -1.4850 -0.7185  0.3514
   57MOL0     H 7645   1.161   0.387   1.081  0.7556 -1.3633  0.5043
   57MOL0     H 7646   0.960   0.238   1.361  1.1746  1.4396  1.4240
   57MOL0     H 7647   1.027   0.025   1.514 -0.7787  0.7136 -1.8781
   57MOL0     H 7648   1.190  -0.031   1.513 -0.5346 -0.8743 -0.7290
   57MOL0     H 7649   1.117   0.171   1.680  0.5304  2.7663  0.1683
   57MOL0     H 7650   1.114   0.268   1.545  2.3796  2.0524 -1.6349
   57MOL0     H 7651   1.325   0.325   1.627 -1.7521  0.3419 -0.6029
   57MOL0     H 7652   1.351   0.216   1.487 -0.8490 -2.5465  0.1716
   57MOL0     H 7653   1.385   0.025   1.618 -0.5698 -0.3773  1.1576
   57MOL0     H 7654   1.363   0.121   1.768  3.5409  0.7693  0.6122
   57MOL0     H 7655   1.499  -0.088   1.767 -1.2621  3.0696 -0.5404
   57MOL0     H 7656   1.491  -0.213   1.991 -0.6249  2.4415 -2.2491
   57MOL0     H 7657   1.591  -0.286   1.873 -2.3258  1.0326 -1.1011
   57MOL0     H 7658   1.638  -0.288   2.043 -2.7392 -0.5378  1.3344
   57MOL0     H 7659   1.819   0.091   2.442  0.8872  1.2635  1.0995
   57MOL0     H 7660   1.931   0.026   2.637  1.3545  1.5895 -0.5757
   57MOL0     H 7661   2.017  -0.171   2.829  0.5537  1.3260  0.3190
   57MOL0     H 7662   2.003  -0.266   2.681  2.3570 -2.6819  1.0316
   57MOL0     H 7663   2.253  -0.252   2.849 -0.5712  2.6369 -0.2446
   57MOL0     H 7664   2.130  -0.385   2.855 -1.0803 -0.5379 -1.1086
   57MOL0     H 7665   2.323  -0.446   2.709  0.8998  1.4255 -0.6755
   57MOL0     H 7666   2.285  -0.313   2.604  1.6973 -0.5482 -0.3738
   57MOL0     H 7667   2.045  -0.502   2.639 -1.4267  1.8944 -0.2683
   57MOL0     H 7668   2.078  -0.391   2.516  1.3696  2.2201 -0.1094
   57MOL0     H 7669   2.267  -0.612   2.551  0.3822  3.1972  2.8415
   57MOL0     H 7670   2.242  -0.513   2.404  1.3883 -0.4145  1.1080
   57MOL0     H 7671   1.983  -0.622   2.425  0.2389  0.2235 -1.1466
   57MOL0     H 7672   2.127  -0.682   2.335 -1.1503  1.0360 -0.0503
   57MOL0     H 7673   2.000  -0.844   2.502  0.5712  0.9802 -0.6283
   57MOL0     H 7674   2.122  -0.775   2.617 -1.3226 -3.7217  0.6535
   57MOL0     H 7675   2.304  -0.854   2.501 -1.2607  3.3548 -1.1022
   57MOL0     H 7676   2.204  -0.881   2.352 -0.5766 -1.1903 -0.7219
   57MOL0     H 7677   2.242  -0.156   2.410 -0.8334 -3.5031  1.8740
   57MOL0     H 7678   2.114  -0.120   2.217 -4.0114 -2.4638 -1.0433
   57MOL0     H 7679   1.863   0.159   1.986 -1.0599  0.1895  1.3887
   57MOL0     H 7680   1.763   0.252   1.776 -0.7519 -0.0823 -2.2306
   57MOL0     H 7681   0.668   0.788   0.222 -0.3342  1.0186 -2.4066
   57MOL0     H 7682   0.490   0.820   0.054  1.1049  2.6766  1.7981
   57MOL0     H 7683   0.122   0.688  -0.153 -1.7299 -1.7002  2.3107
   57MOL0     H 7684  -0.041   0.765  -0.314  0.8274  1.2580  0.3963
   57MOL0     H 7685  -0.445   0.824  -0.140  4.7260 -2.5032 -0.1163
   57MOL0     H 7686  -0.386   0.993  -0.145 -0.7577  0.0732  0.0077
   57MOL0     H 7687  -0.550   0.824  -0.345 -0.4849 -1.1939  1.8565
   57MOL0     H 7688  -0.467   0.974  -0.401 -0.4750 -0.8258 -0.8539
   57MOL0     H 7689  -0.630   1.116  -0.271  0.5757 -0.7923 -0.7403
   57MOL0     H 7690  -0.683   0.968  -0.182  1.6128 -1.1951  1.1703
   57MOL0     H 7691  -0.731   1.018  -0.484 -1.5900 -0.7683 -1.3642
   57MOL0     H 7692  -0.836   1.061  -0.349 -0.3026 -0.3952 -1.1131
   57MOL0     H 7693  -0.834   0.642  -0.333  0.7232 -0.2958 -1.8175
   57MOL0     H 7694  -0.286   0.914   0.010 -0.2340  3.0924 -2.3876
   57MOL0     H 7695  -0.077   0.891   0.157 -1.0405  0.2252 -0.0044
   58MOL0     O 7696   4.198   6.927   6.945  0.4041  0.7961  0.9829
   58MOL0     C 7697   4.207   6.852   6.844 -0.2511  0.2036 -0.3509
   58MOL0     O 7698   4.285   6.880   6.735  0.0009  0.0019 -0.7898
   58MOL0     C 7699   4.326   7.014   6.735  0.0565  0.2048  0.1195
   58MOL0     C 7700   4.460   7.052   6.755 -0.1213  0.7753  0.2376
   58MOL0     C 7701   4.495   7.194   6.773 -1.6792 -0.7789 -0.7138
   58MOL0     C 7702   4.398   7.289   6.750  0.8526 -0.3770 -0.6493
   58MOL0     O 7703   4.418   7.427   6.754 -0.4270  0.4918 -0.3637
   58MOL0     C 7704   4.482   7.495   6.648 -0.6428  0.5659 -0.2647
   58MOL0     C 7705   4.630   7.465   6.648  0.3883  0.0651 -0.3399
   58MOL0     C 7706   4.688   7.537   6.529 -0.8414 -0.6455  0.6414
   58MOL0     C 7707   4.845   7.531   6.526  0.8025  0.1142 -0.2123
   58MOL0     C 7708   4.917   7.596   6.410  0.2986  0.0949  0.0443
   58MOL0     C 7709   5.059   7.584   6.445  0.8566  0.2325  0.3281
   58MOL0     C 7710   5.126   7.678   6.344 -0.0944  0.3729  0.4964
   58MOL0     C 7711   5.275   7.661   6.359 -0.2524 -0.3470 -0.5050
   58MOL0     N 7712   5.328   7.715   6.232  0.2891 -0.2733 -0.0040
   58MOL0     C 7713   5.335   7.643   6.112 -0.6455  0.2113 -0.3541
   58MOL0     C 7714   5.442   7.695   6.053 -1.2162  0.4681  1.2075
   58MOL0     C 7715   5.488   7.633   5.930  0.2899 -0.4070 -0.3337
   58MOL0     C 7716   5.397   7.644   5.810  0.4251  0.4711 -0.4243
   58MOL0     C 7717   5.493   7.661   5.696 -0.4045 -0.0622  0.1808
   58MOL0     C 7718   5.435   7.645   5.553  0.2084  0.6360 -0.2109
   58MOL0     O 7719   5.526   7.631   5.442  0.3182 -0.2196 -0.6295
   58MOL0     C 7720   5.470   7.608   5.327 -0.4880 -0.6673  1.1624
   58MOL0     C 7721   5.336   7.633   5.282 -0.9219  0.0483 -0.3434
   58MOL0     C 7722   5.303   7.600   5.149 -0.1972  0.3771 -0.4524
   58MOL0     C 7723   5.164   7.635   5.113  0.3320 -0.2541  0.0795
   58MOL0     C 7724   5.405   7.551   5.052  0.2915 -0.3216 -0.6387
   58MOL0     C 7725   5.376   7.533   4.907  0.0631  0.1331 -0.4659
   58MOL0     O 7726   5.251   7.542   4.862  0.7044 -0.3485 -0.1034
   58MOL0     C 7727   5.241   7.536   4.725 -0.7333 -0.2892  0.2471
   58MOL0     C 7728   5.164   7.430   4.666 -0.7371  0.5089 -0.1024
   58MOL0     C 7729   5.152   7.418   4.531 -0.1528 -0.0800  0.1121
   58MOL0     C 7730   5.217   7.506   4.447 -1.0263 -0.1410  1.0024
   58MOL0     O 7731   5.214   7.494   4.306 -0.5477 -0.1172 -0.5194
   58MOL0     C 7732   5.116   7.410   4.244 -0.2800 -0.2791  0.0403
   58MOL0     C 7733   5.150   7.405   4.099  0.2711 -0.1137  0.7829
   58MOL0     C 7734   5.054   7.304   4.036  0.2126 -0.6611  0.2513
   58MOL0     C 7735   5.056   7.291   3.883 -0.0255  0.5240  0.7025
   58MOL0     C 7736   4.962   7.188   3.829  0.3271 -0.0730  0.2658
   58MOL0     C 7737   4.951   7.194   3.677 -1.0591  0.9794 -1.2191
   58MOL0     C 7738   4.870   7.079   3.621  0.4516 -0.2920 -0.1592
   58MOL0     C 7739   4.737   7.114   3.560 -0.4212 -0.1202 -0.6068
   58MOL0    Cl 7740   4.628   7.213   3.671 -0.5618  0.1405  0.2436
   58MOL0     C 7741   5.297   7.601   4.498 -0.2242 -0.1946 -0.7921
   58MOL0     C 7742   5.303   7.628   4.640  0.7570 -1.1084  0.2286
   58MOL0     O 7743   5.478   7.513   4.836 -0.0085  0.3217 -0.2817
   58MOL0     C 7744   5.538   7.528   5.102  0.6698  0.0633  0.8895
   58MOL0     C 7745   5.568   7.565   5.236 -0.7258  0.7736  0.0802
   58MOL0     N 7746   5.484   7.813   6.118  0.8648  0.1102 -0.8148
   58MOL0     N 7747   5.417   7.814   6.227  0.0496  0.5778 -0.7479
   58MOL0     C 7748   4.272   7.250   6.710 -0.0923  1.1951  0.4029
   58MOL0     C 7749   4.241   7.117   6.713 -0.2099  0.7951  0.2595
   58MOL0     C 7750   4.134   6.719   6.845  0.7157 -0.1612  0.1823
   58MOL0     C 7751   4.149   6.633   6.733 -0.5401  0.8530 -0.1142
   58MOL0     C 7752   4.066   6.524   6.718 -0.6518 -0.3220  0.8256
   58MOL0     C 7753   3.986   6.480   6.818  0.6627 -0.2224 -0.6649
   58MOL0     O 7754   3.903   6.373   6.813  0.6766  0.1049  0.1865
   58MOL0     C 7755   3.847   6.355   6.689  0.6057 -0.1466  0.2046
   58MOL0     C 7756   3.886   6.219   6.652 -0.2954  0.7852  0.2930
   58MOL0     C 7757   3.819   6.193   6.514 -0.3660 -0.1986  0.0126
   58MOL0     C 7758   3.852   6.050   6.461 -0.3484 -0.8016 -0.0326
   58MOL0     C 7759   3.748   5.951   6.502  0.0232  0.0648 -0.6807
   58MOL0     C 7760   3.655   5.902   6.561  0.2245 -0.5743 -0.3070
   58MOL0     C 7761   3.986   6.551   6.940  0.3221  0.6965 -0.8715
   58MOL0     C 7762   4.056   6.671   6.950 -0.5302 -0.2469  0.6794
   58MOL0     H 7763   4.537   6.978   6.770 -0.4359 -0.0440 -1.8958
   58MOL0     H 7764   4.595   7.227   6.797 -0.8312 -2.2944 -1.9961
   58MOL0     H 7765   4.426   7.463   6.560 -4.7424  0.9319  1.9321
   58MOL0     H 7766   4.469   7.601   6.672  0.6460  0.1495  2.7441
   58MOL0     H 7767   4.668   7.502   6.744 -1.2051  1.6469 -0.2613
   58MOL0     H 7768   4.649   7.358   6.645  2.7337  0.3131  1.8428
   58MOL0     H 7769   4.658   7.485   6.437  2.2141 -3.1711  0.9143
   58MOL0     H 7770   4.656   7.642   6.537  1.4505 -0.0420  2.8092
   58MOL0     H 7771   4.873   7.574   6.623  3.4524 -1.0252 -0.3690
   58MOL0     H 7772   4.872   7.426   6.541 -2.0099 -0.4242  1.8987
   58MOL0     H 7773   4.883   7.550   6.317  1.1567  1.3614 -0.9357
   58MOL0     H 7774   4.882   7.698   6.390 -3.3220 -1.3141 -1.5661
   58MOL0     H 7775   5.082   7.611   6.548 -2.7555 -0.9684  1.5889
   58MOL0     H 7776   5.102   7.485   6.428  0.3995  0.3754 -1.9703
   58MOL0     H 7777   5.084   7.657   6.245 -2.7291  2.2423  1.1276
   58MOL0     H 7778   5.100   7.781   6.370 -0.2086  0.5104 -0.1539
   58MOL0     H 7779   5.297   7.554   6.355 -0.8940 -0.6135  1.6207
   58MOL0     H 7780   5.312   7.712   6.448 -0.1337  0.4595 -1.0076
   58MOL0     H 7781   5.287   7.547   6.097  0.3755 -0.2843 -0.5151
   58MOL0     H 7782   5.585   7.675   5.903 -0.3624  0.4858 -1.3791
   58MOL0     H 7783   5.517   7.531   5.959  1.7246  0.7450  2.7282
   58MOL0     H 7784   5.343   7.739   5.809 -1.2388 -0.2686  2.8153
   58MOL0     H 7785   5.338   7.552   5.801  0.5818 -0.0467  2.7538
   58MOL0     H 7786   5.570   7.584   5.701 -0.7968 -0.4342  0.5988
   58MOL0     H 7787   5.542   7.759   5.691  4.1544 -2.0698  0.7949
   58MOL0     H 7788   5.367   7.730   5.539 -0.5691  0.4270  1.9402
   58MOL0     H 7789   5.366   7.560   5.550  0.9792 -0.1228  1.9055
   58MOL0     H 7790   5.260   7.670   5.350 -0.5293  2.0785 -0.9487
   58MOL0     H 7791   5.149   7.677   5.013 -4.3896  2.1654  1.5008
   58MOL0     H 7792   5.098   7.548   5.111 -1.3374  0.9644 -2.2923
   58MOL0     H 7793   5.118   7.703   5.186  1.1182 -1.2646  1.5781
   58MOL0     H 7794   5.114   7.357   4.728 -2.6620  0.4405 -1.6464
   58MOL0     H 7795   5.100   7.325   4.508  2.5179 -2.0146  1.3490
   58MOL0     H 7796   5.114   7.307   4.281 -3.4942 -0.1977  0.3474
   58MOL0     H 7797   5.018   7.450   4.270  0.5531  0.1170  2.9583
   58MOL0     H 7798   5.138   7.507   4.059 -2.1074 -0.3667  0.6972
   58MOL0     H 7799   5.251   7.368   4.082 -0.1686 -1.0798  0.1555
   58MOL0     H 7800   4.956   7.342   4.066 -0.2516  0.2568 -2.1751
   58MOL0     H 7801   5.071   7.205   4.080 -0.0300 -0.0580  1.7365
   58MOL0     H 7802   5.028   7.383   3.831  1.9206  0.7982  0.0539
   58MOL0     H 7803   5.156   7.254   3.860  0.4585 -1.1361  4.6524
   58MOL0     H 7804   4.860   7.200   3.866  0.3206 -1.3946  0.7315
   58MOL0     H 7805   5.002   7.088   3.851 -3.4179 -1.6024  0.9222
   58MOL0     H 7806   4.912   7.290   3.640  0.1923  2.0374  0.0813
   58MOL0     H 7807   5.053   7.195   3.636 -1.1341  2.7972 -1.4507
   58MOL0     H 7808   4.840   7.003   3.693  0.4405 -3.0003 -2.8408
   58MOL0     H 7809   4.924   7.029   3.541 -2.0594 -3.2001 -0.1986
   58MOL0     H 7810   4.690   7.021   3.528  1.0929 -0.7999 -0.9443
   58MOL0     H 7811   4.763   7.173   3.471  0.4482 -0.5985 -0.6815
   58MOL0     H 7812   5.343   7.677   4.435 -0.7413  0.3545 -0.5176
   58MOL0     H 7813   5.370   7.698   4.689 -0.3751 -0.2073  0.5141
   58MOL0     H 7814   5.624   7.497   5.044 -0.1381  0.0233 -0.3109
   58MOL0     H 7815   5.670   7.570   5.273 -1.0489  0.9440  0.9699
   58MOL0     H 7816   4.198   7.329   6.699 -0.6305  1.0291  2.4233
   58MOL0     H 7817   4.142   7.080   6.687 -0.1515  1.4211 -0.9252
   58MOL0     H 7818   4.223   6.661   6.658  3.1575 -1.5511  2.3181
   58MOL0     H 7819   4.062   6.474   6.622 -3.2324 -1.8530  1.6091
   58MOL0     H 7820   3.738   6.365   6.698  0.7073  0.0536  1.2822
   58MOL0     H 7821   3.876   6.420   6.606 -2.6300 -0.7697 -1.6224
   58MOL0     H 7822   3.852   6.148   6.728  3.0931 -2.4276 -0.9288
   58MOL0     H 7823   3.995   6.228   6.650 -0.1936 -0.3297 -1.1808
   58MOL0     H 7824   3.856   6.274   6.451  0.0001 -1.0000 -0.8082
   58MOL0     H 7825   3.712   6.205   6.536 -0.6904 -1.8597 -0.5045
   58MOL0     H 7826   3.949   6.031   6.508  1.4492  0.0501 -3.1180
   58MOL0     H 7827   3.859   6.039   6.352  1.0866  0.6883 -0.1424
   58MOL0     H 7828   3.572   5.856   6.611  1.6587 -1.7179  1.1492
   58MOL0     H 7829   3.920   6.518   7.019  1.1738 -0.4520 -0.6131
   58MOL0     H 7830   4.047   6.734   7.038 -0.6423 -0.8911  1.1405
   59MOL0     O 7831   4.281   1.664   9.539 -0.4195 -0.3008  0.6659
   59MOL0     C 7832   4.277   1.634   9.416 -1.0599 -0.2216 -0.2797
   59MOL0     O 7833   4.165   1.649   9.330 -0.0680  0.1547 -0.3616
   59MOL0     C 7834   4.036   1.676   9.376 -0.0615  0.5712  0.0067
   59MOL0     C 7835   3.925   1.625   9.311 -0.7166 -0.1933  0.0310
   59MOL0     C 7836   3.801   1.645   9.361 -0.0674 -0.3039 -0.3160
   59MOL0     C 7837   3.763   1.708   9.477 -0.3910  0.4639  0.2508
   59MOL0     O 7838   3.636   1.719   9.536 -0.0417  0.2073  0.3880
   59MOL0     C 7839   3.532   1.629   9.489  0.1560 -0.0227 -1.0249
   59MOL0     C 7840   3.565   1.485   9.546 -0.0884  0.7592  0.1883
   59MOL0     C 7841   3.458   1.375   9.538 -0.2172  0.0223  1.0782
   59MOL0     C 7842   3.315   1.412   9.507  0.0084 -1.0112  0.5148
   59MOL0     C 7843   3.251   1.470   9.634  0.0888 -0.1215 -0.5173
   59MOL0     C 7844   3.105   1.510   9.626  0.2152 -0.1129  1.1842
   59MOL0     C 7845   3.005   1.413   9.577 -0.1179 -0.4346 -0.2234
   59MOL0     C 7846   2.961   1.314   9.679 -0.2697 -0.9518 -0.3721
   59MOL0     N 7847   2.824   1.271   9.661  1.0422  0.7102 -0.7459
   59MOL0     C 7848   2.785   1.162   9.590  0.5999 -0.4007  0.1560
   59MOL0     C 7849   2.650   1.173   9.593  0.6066  0.4359  0.2113
   59MOL0     C 7850   2.544   1.092   9.520 -0.9897 -0.4631 -0.2658
   59MOL0     C 7851   2.524   0.954   9.594 -0.3088  0.2481 -0.3326
   59MOL0     C 7852   2.492   0.953   9.739 -0.9893 -0.1776 -0.6745
   59MOL0     C 7853   2.507   0.814   9.805 -0.1014 -0.8527 -0.6343
   59MOL0     O 7854   2.477   0.835   9.938 -0.8230  0.4709  0.6680
   59MOL0     C 7855   2.529   0.743  10.020 -0.0171 -0.5125  0.0259
   59MOL0     C 7856   2.621   0.785  10.110  0.1702 -0.6563 -0.3741
   59MOL0     C 7857   2.667   0.693  10.212  0.3694 -1.1367 -0.6753
   59MOL0     C 7858   2.781   0.746  10.303 -0.1059 -0.9869  0.0665
   59MOL0     C 7859   2.629   0.556  10.220  0.3724  0.7355  0.1908
   59MOL0     C 7860   2.675   0.456  10.321 -0.2854 -0.2516 -0.7680
   59MOL0     O 7861   2.631   0.328  10.295  0.5854  0.8512  0.4859
   59MOL0     C 7862   2.682   0.227  10.375  0.2313  0.8705 -0.7184
   59MOL0     C 7863   2.746   0.116  10.316 -0.4524  0.3626  0.2606
   59MOL0     C 7864   2.804   0.015  10.393  0.0583  0.4590 -0.3538
   59MOL0     C 7865   2.790   0.019  10.532 -0.4232  0.4274 -0.8165
   59MOL0     O 7866   2.861  -0.081  10.597  0.5940  0.2120  0.1141
   59MOL0     C 7867   2.801  -0.128  10.723 -0.1573 -0.6391 -0.0826
   59MOL0     C 7868   2.863  -0.253  10.759  0.4542 -0.5158  0.5591
   59MOL0     C 7869   2.811  -0.372  10.656  0.3637 -2.1523  0.2909
   59MOL0     C 7870   2.881  -0.384  10.521 -0.3476 -0.2487  1.2604
   59MOL0     C 7871   2.802  -0.487  10.424 -0.5685 -0.1565  0.1786
   59MOL0     C 7872   2.653  -0.452  10.393 -0.1762  0.6570  0.3899
   59MOL0     C 7873   2.626  -0.314  10.348 -0.5429  0.8027 -0.5276
   59MOL0     C 7874   2.485  -0.314  10.293  0.6180  0.2449 -0.0150
   59MOL0    Cl 7875   2.372  -0.320  10.430  0.0575  0.1768 -0.7434
   59MOL0     C 7876   2.732   0.123  10.603  0.4756  0.2588  0.3513
   59MOL0     C 7877   2.677   0.227  10.521 -0.2043 -0.0310 -0.4820
   59MOL0     O 7878   2.731   0.496  10.422  0.0862 -0.1113 -0.1220
   59MOL0     C 7879   2.529   0.523  10.118 -0.0795  0.9332  0.3413
   59MOL0     C 7880   2.488   0.612  10.018 -0.3483  0.9269 -0.1663
   59MOL0     N 7881   2.612   1.282   9.672  0.7679  0.0508  1.0794
   59MOL0     N 7882   2.717   1.339   9.717 -0.1939 -0.8271  0.1365
   59MOL0     C 7883   3.872   1.764   9.545  0.3950 -0.0345  0.3789
   59MOL0     C 7884   4.003   1.751   9.495 -0.0949 -0.2802 -0.0561
   59MOL0     C 7885   4.395   1.558   9.363  0.5547  0.0707  1.0131
   59MOL0     C 7886   4.401   1.526   9.226  0.8342 -0.3909  0.1264
   59MOL0     C 7887   4.513   1.458   9.178 -0.3078  0.3937  0.2834
   59MOL0     C 7888   4.616   1.422   9.261 -0.3342  1.3361 -1.0234
   59MOL0     O 7889   4.739   1.360   9.234 -0.4654  0.0710 -0.1682
   59MOL0     C 7890   4.778   1.344   9.098  1.3087 -0.6099 -0.2187
   59MOL0     C 7891   4.924   1.310   9.111  0.1685  0.5158  0.2141
   59MOL0     C 7892   4.970   1.264   8.970 -0.6307  0.1167 -0.5406
   59MOL0     C 7893   5.128   1.251   8.956  0.7661  0.3341  0.8828
   59MOL0     C 7894   5.169   1.235   8.818  0.6242 -0.8710  0.2716
   59MOL0     C 7895   5.216   1.223   8.710 -0.2901  0.7089  1.3926
   59MOL0     C 7896   4.602   1.445   9.400 -0.1794 -0.9080 -0.7697
   59MOL0     C 7897   4.489   1.511   9.450 -0.6252  0.3604 -0.1375
   59MOL0     H 7898   3.940   1.571   9.218 -4.2914  2.0250 -2.0967
   59MOL0     H 7899   3.721   1.614   9.295 -1.3657  1.5162  0.3310
   59MOL0     H 7900   3.434   1.667   9.520 -0.2222  1.2057 -3.4969
   59MOL0     H 7901   3.519   1.636   9.380  1.5850  0.2663 -1.1921
   59MOL0     H 7902   3.655   1.443   9.500 -1.5911 -2.7769  0.1516
   59MOL0     H 7903   3.576   1.499   9.654  0.6975 -0.8478  0.3395
   59MOL0     H 7904   3.494   1.308   9.459  0.4128  1.7496 -0.1837
   59MOL0     H 7905   3.466   1.320   9.632 -2.4069 -2.1247  0.1161
   59MOL0     H 7906   3.307   1.479   9.420 -0.1055 -0.8085  0.6795
   59MOL0     H 7907   3.254   1.322   9.491  1.4593 -1.3302 -5.0517
   59MOL0     H 7908   3.246   1.393   9.712 -0.2727 -0.2853 -0.7019
   59MOL0     H 7909   3.310   1.550   9.681 -0.7778  0.8340 -1.0286
   59MOL0     H 7910   3.074   1.546   9.725  1.3044  0.4437  1.3388
   59MOL0     H 7911   3.104   1.599   9.563  4.2929 -0.4225  0.3966
   59MOL0     H 7912   2.913   1.467   9.556 -0.5155 -1.4949 -1.3209
   59MOL0     H 7913   3.037   1.363   9.485 -1.0026 -0.5967 -0.4465
   59MOL0     H 7914   2.968   1.364   9.777  0.0036 -1.2408 -0.2421
   59MOL0     H 7915   3.032   1.232   9.696  0.6931  0.5789  4.8371
   59MOL0     H 7916   2.840   1.089   9.532 -0.6261 -1.1966 -0.0642
   59MOL0     H 7917   2.452   1.152   9.524 -0.8388 -0.2828  1.9654
   59MOL0     H 7918   2.580   1.079   9.418 -0.4638 -0.2878 -0.1011
   59MOL0     H 7919   2.602   0.881   9.569 -1.4299 -2.9523  4.2218
   59MOL0     H 7920   2.436   0.909   9.546 -0.4772  0.9396 -0.6899
   59MOL0     H 7921   2.384   0.969   9.745 -1.4284 -2.4521 -1.5118
   59MOL0     H 7922   2.549   1.023   9.799  1.5402 -2.9834  0.4657
   59MOL0     H 7923   2.608   0.776   9.788 -1.2712 -3.3871 -2.5016
   59MOL0     H 7924   2.444   0.742   9.753  0.2609 -2.4208  1.0195
   59MOL0     H 7925   2.663   0.883  10.090  0.6461 -0.2744  2.1386
   59MOL0     H 7926   2.870   0.683  10.313 -0.8245 -2.1213 -0.5170
   59MOL0     H 7927   2.832   0.841  10.285  0.1213 -1.6424 -3.2814
   59MOL0     H 7928   2.748   0.752  10.407 -0.6435  2.8170 -0.2037
   59MOL0     H 7929   2.759   0.100  10.210 -0.7364  1.5396  0.0261
   59MOL0     H 7930   2.852  -0.068  10.343  0.4944  2.2396 -3.1202
   59MOL0     H 7931   2.830  -0.046  10.789  1.6322 -1.3882  0.1234
   59MOL0     H 7932   2.692  -0.129  10.718 -0.2266 -0.4489  1.0513
   59MOL0     H 7933   2.971  -0.237  10.755  0.1870  1.1551 -1.1018
   59MOL0     H 7934   2.826  -0.292  10.854 -1.3632 -2.7382 -0.9392
   59MOL0     H 7935   2.704  -0.356  10.638  0.7876  1.0991  0.0930
   59MOL0     H 7936   2.825  -0.475  10.691  0.4336 -2.4812 -0.6749
   59MOL0     H 7937   2.871  -0.287  10.471 -0.2147 -0.0737  1.5715
   59MOL0     H 7938   2.988  -0.403  10.529 -0.0243  0.4581 -0.6468
   59MOL0     H 7939   2.796  -0.586  10.472  1.2571 -0.2126  0.3384
   59MOL0     H 7940   2.856  -0.500  10.330 -1.1254  1.6975 -0.4358
   59MOL0     H 7941   2.613  -0.522  10.320 -0.8739  1.1951  0.2387
   59MOL0     H 7942   2.598  -0.461  10.487  1.8694  0.6763  1.6481
   59MOL0     H 7943   2.705  -0.286  10.278  2.3360 -3.1518  0.8034
   59MOL0     H 7944   2.630  -0.248  10.435 -1.3389 -0.8436  0.8188
   59MOL0     H 7945   2.463  -0.392  10.220 -2.6333  2.4516 -1.6800
   59MOL0     H 7946   2.466  -0.227  10.229 -1.8975  2.5052  3.4890
   59MOL0     H 7947   2.742   0.118  10.710  4.0002 -0.5141  0.1097
   59MOL0     H 7948   2.621   0.305  10.572  0.2042  0.5630 -0.9319
   59MOL0     H 7949   2.501   0.419  10.106  0.1972  0.8279  0.6123
   59MOL0     H 7950   2.416   0.589   9.939 -0.1605  0.5223 -0.2166
   59MOL0     H 7951   3.845   1.800   9.644 -3.0706  3.5192 -1.5443
   59MOL0     H 7952   4.082   1.798   9.554 -1.1253  0.8743  0.4422
   59MOL0     H 7953   4.335   1.555   9.145  2.4554 -0.0337 -1.1058
   59MOL0     H 7954   4.529   1.434   9.073  5.4084  1.5387  0.5488
   59MOL0     H 7955   4.717   1.257   9.073  0.0417 -0.5713  2.3608
   59MOL0     H 7956   4.754   1.429   9.033  1.8732 -0.2633  0.0067
   59MOL0     H 7957   4.947   1.231   9.182 -1.1461  0.2270  0.3452
   59MOL0     H 7958   4.980   1.399   9.142  0.8174  0.8050 -1.6772
   59MOL0     H 7959   4.921   1.320   8.890 -3.0343 -1.5284 -0.3249
   59MOL0     H 7960   4.939   1.160   8.955  0.1678  0.2583 -4.0234
   59MOL0     H 7961   5.147   1.158   9.011 -0.2550 -0.6418 -0.3484
   59MOL0     H 7962   5.182   1.338   8.994  1.7023 -0.0250  0.4062
   59MOL0     H 7963   5.261   1.200   8.616 -0.7151 -2.8309  1.9118
   59MOL0     H 7964   4.692   1.434   9.459  1.4023  1.1670 -2.6032
   59MOL0     H 7965   4.491   1.525   9.558  1.8675 -1.2747  0.1081
   60MOL0     O 7966   4.125   9.233   2.440  0.6174  0.2696 -0.3798
   60MOL0     C 7967   4.187   9.249   2.331 -0.4816  0.3283 -0.0596
   60MOL0     O 7968   4.285   9.343   2.290 -0.1279  0.3133  0.0648
   60MOL0     C 7969   4.330   9.424   2.390 -0.7973 -0.0986  0.2042
   60MOL0     C 7970   4.475   9.436   2.405  0.3192 -0.6147  0.4436
   60MOL0     C 7971   4.527   9.515   2.511  0.3463  0.8880 -0.0336
   60MOL0     C 7972   4.436   9.591   2.584  0.9809 -0.0872 -0.4020
   60MOL0     O 7973   4.495   9.679   2.673  0.0088 -0.4498 -0.0886
   60MOL0     C 7974   4.578   9.784   2.620  0.4953  0.2039 -0.2776
   60MOL0     C 7975   4.519   9.914   2.660 -0.4067  0.4456 -0.2065
   60MOL0     C 7976   4.610  10.026   2.623  0.8244  0.4386 -0.8956
   60MOL0     C 7977   4.553  10.150   2.697 -0.4775 -0.8022 -0.6728
   60MOL0     C 7978   4.602  10.285   2.654  0.6682 -0.7526 -0.0502
   60MOL0     C 7979   4.547  10.396   2.752 -0.5463  0.5352  0.3512
   60MOL0     C 7980   4.609  10.535   2.721  0.3175  0.3830  0.7945
   60MOL0     C 7981   4.756  10.550   2.767 -0.3472 -0.5143  0.1685
   60MOL0     N 7982   4.851  10.501   2.662 -0.1926 -0.3814 -0.1934
   60MOL0     C 7983   4.856  10.531   2.524  0.0516 -0.8590  0.3739
   60MOL0     C 7984   4.936  10.434   2.467 -0.2678 -0.0914 -1.0838
   60MOL0     C 7985   4.959  10.426   2.323  0.3689 -0.3960  0.3220
   60MOL0     C 7986   4.864  10.314   2.257 -0.4626 -0.5916  0.8048
   60MOL0     C 7987   4.880  10.300   2.103 -0.0993  0.5602 -0.2111
   60MOL0     C 7988   4.767  10.223   2.035 -0.1811  0.1158  0.7962
   60MOL0     O 7989   4.800  10.216   1.893  0.0910 -0.6615 -0.2633
   60MOL0     C 7990   4.750  10.107   1.824  0.4992 -0.4379 -0.5960
   60MOL0     C 7991   4.822  10.049   1.718 -0.9849 -1.0949  1.0223
   60MOL0     C 7992   4.808   9.921   1.669  0.2915  0.5633  0.0785
   60MOL0     C 7993   4.899   9.880   1.563  0.8486  0.0034  0.5271
   60MOL0     C 7994   4.703   9.838   1.726 -0.3751  0.4941  0.4182
   60MOL0     C 7995   4.676   9.694   1.684 -0.5415 -0.3466 -0.4833
   60MOL0     O 7996   4.551   9.653   1.710  0.4954  0.5478 -0.5308
   60MOL0     C 7997   4.509   9.520   1.705  0.4373  0.4312  1.1407
   60MOL0     C 7998   4.377   9.503   1.651  0.2341 -0.3602 -0.8830
   60MOL0     C 7999   4.312   9.384   1.647 -0.2275  0.6671  0.7319
   60MOL0     C 8000   4.378   9.274   1.708 -1.5708 -0.2474  0.0220
   60MOL0     O 8001   4.310   9.155   1.722 -0.1564  0.4035  0.0951
   60MOL0     C 8002   4.390   9.046   1.673 -0.1975 -0.7791  0.5238
   60MOL0     C 8003   4.287   8.939   1.669 -1.2793  0.3251 -0.1038
   60MOL0     C 8004   4.350   8.806   1.647 -0.1398  0.2231 -0.2799
   60MOL0     C 8005   4.434   8.756   1.768 -0.0237  0.4218 -0.4558
   60MOL0     C 8006   4.505   8.631   1.718  0.8885  0.0837 -0.3581
   60MOL0     C 8007   4.590   8.557   1.818 -0.3084 -0.2016  0.2146
   60MOL0     C 8008   4.511   8.515   1.948  0.5154 -0.0377  1.1921
   60MOL0     C 8009   4.391   8.418   1.930 -0.2801  0.1030  0.2404
   60MOL0    Cl 8010   4.458   8.256   1.908  0.1357 -0.3861 -0.4857
   60MOL0     C 8011   4.506   9.294   1.773  1.0309  0.0122 -0.4839
   60MOL0     C 8012   4.575   9.416   1.763 -0.1408 -0.1931 -0.4176
   60MOL0     O 8013   4.762   9.636   1.621  0.1461  0.0721  0.3853
   60MOL0     C 8014   4.625   9.893   1.832  0.2620  0.3831 -0.6334
   60MOL0     C 8015   4.654  10.020   1.880 -0.7113 -0.7775 -0.3552
   60MOL0     N 8016   4.993  10.354   2.571 -0.7847  0.4777 -0.2720
   60MOL0     N 8017   4.930  10.387   2.681 -0.7113 -0.1585 -0.0640
   60MOL0     C 8018   4.298   9.588   2.564  0.1306 -0.2939  0.7339
   60MOL0     C 8019   4.244   9.502   2.480 -0.3248  0.0850  0.5012
   60MOL0     C 8020   4.172   9.149   2.226  0.1118  0.4874  0.2661
   60MOL0     C 8021   4.055   9.083   2.229  0.3618  0.2288 -0.2545
   60MOL0     C 8022   4.027   8.968   2.142 -0.1364  0.1022  0.6931
   60MOL0     C 8023   4.124   8.924   2.052  0.6617  0.2668 -0.0160
   60MOL0     O 8024   4.108   8.825   1.960  0.4852  0.9273 -0.3332
   60MOL0     C 8025   4.016   8.720   1.987  0.3184  0.3098 -0.0984
   60MOL0     C 8026   3.892   8.708   1.896 -0.3998  0.4614  0.1323
   60MOL0     C 8027   3.913   8.635   1.755 -0.4606  1.4990 -0.1837
   60MOL0     C 8028   3.797   8.649   1.655  0.2447 -0.3333 -0.2299
   60MOL0     C 8029   3.821   8.571   1.538 -0.2515  0.1952  0.2391
   60MOL0     C 8030   3.848   8.503   1.438 -0.6948 -0.3144 -0.2929
   60MOL0     C 8031   4.243   8.998   2.047  0.5851 -0.1122 -0.6362
   60MOL0     C 8032   4.260   9.114   2.129  0.2856  0.2178 -0.1758
   60MOL0     H 8033   4.548   9.388   2.341 -0.4303 -1.0790 -0.0747
   60MOL0     H 8034   4.625   9.514   2.557 -0.6705 -0.3227  2.2992
   60MOL0     H 8035   4.677   9.777   2.665 -0.2270  2.8862  1.9666
   60MOL0     H 8036   4.577   9.784   2.510 -0.8333  0.6249 -0.2725
   60MOL0     H 8037   4.420   9.922   2.612 -0.4512 -0.0447 -0.2009
   60MOL0     H 8038   4.506   9.914   2.769 -0.3956 -1.4052 -0.1628
   60MOL0     H 8039   4.712   9.998   2.650  1.1402  0.0122 -2.3913
   60MOL0     H 8040   4.593  10.048   2.517  1.7331  0.5021 -1.0278
   60MOL0     H 8041   4.444  10.138   2.700 -0.4619 -0.9428 -0.6293
   60MOL0     H 8042   4.582  10.147   2.802  1.2353  3.3801 -0.8143
   60MOL0     H 8043   4.710  10.275   2.645  0.6420 -2.8053  1.1718
   60MOL0     H 8044   4.569  10.318   2.555  3.1021  1.3565 -0.2779
   60MOL0     H 8045   4.439  10.404   2.737 -0.5729  0.2589  0.4079
   60MOL0     H 8046   4.581  10.376   2.854 -1.1324  1.2377  0.6917
   60MOL0     H 8047   4.591  10.568   2.618 -1.9411 -1.5763  0.4619
   60MOL0     H 8048   4.558  10.602   2.790  1.0738  1.9817 -0.1444
   60MOL0     H 8049   4.759  10.496   2.863 -2.8056 -0.7569  0.1859
   60MOL0     H 8050   4.783  10.655   2.781 -0.7445 -0.5795  1.5957
   60MOL0     H 8051   4.794  10.608   2.479 -1.4196 -1.7412  0.8258
   60MOL0     H 8052   4.941  10.525   2.280 -3.1127  0.9655  4.1712
   60MOL0     H 8053   5.060  10.393   2.297  0.2484 -1.1658  0.7979
   60MOL0     H 8054   4.759  10.333   2.277 -0.3977  1.8608 -0.7782
   60MOL0     H 8055   4.897  10.220   2.304 -0.0176 -1.1500 -0.5632
   60MOL0     H 8056   4.977  10.255   2.083 -0.4473 -1.8436  2.8981
   60MOL0     H 8057   4.871  10.395   2.048 -0.4715 -0.2048 -1.5208
   60MOL0     H 8058   4.670  10.273   2.040  0.9003  2.4491 -0.0679
   60MOL0     H 8059   4.765  10.119   2.071 -2.7439 -1.4284 -3.0772
   60MOL0     H 8060   4.889  10.102   1.651 -1.5037 -3.5602 -1.6609
   60MOL0     H 8061   4.965   9.810   1.615 -0.2635 -1.5595 -0.0790
   60MOL0     H 8062   4.847   9.830   1.480  0.9548 -0.4508  0.7342
   60MOL0     H 8063   4.952   9.963   1.516  0.6742 -0.4908 -0.5800
   60MOL0     H 8064   4.338   9.594   1.606  0.2514 -0.9479 -2.1294
   60MOL0     H 8065   4.215   9.379   1.599  0.9662 -0.7445 -1.7688
   60MOL0     H 8066   4.444   9.074   1.583  1.7947 -0.0254  1.8983
   60MOL0     H 8067   4.469   9.019   1.744 -0.1203  1.5398  1.4145
   60MOL0     H 8068   4.222   8.938   1.757 -1.8293  0.6546 -0.4989
   60MOL0     H 8069   4.219   8.976   1.592 -2.1203 -1.0768 -0.0563
   60MOL0     H 8070   4.402   8.803   1.551  2.8275 -0.9519  1.2668
   60MOL0     H 8071   4.270   8.734   1.625  1.2713 -1.7865  0.8395
   60MOL0     H 8072   4.510   8.824   1.805 -1.0502 -0.4084  3.6580
   60MOL0     H 8073   4.357   8.745   1.845 -0.4470 -0.1184 -0.9440
   60MOL0     H 8074   4.562   8.666   1.631 -1.1452  2.1393 -0.9807
   60MOL0     H 8075   4.427   8.557   1.698  2.0696 -1.6325  1.1273
   60MOL0     H 8076   4.629   8.468   1.768 -2.8619 -0.3586 -1.7144
   60MOL0     H 8077   4.675   8.622   1.842  0.3114 -0.3242 -1.4729
   60MOL0     H 8078   4.474   8.604   2.000  2.1901  1.4909 -0.0905
   60MOL0     H 8079   4.588   8.483   2.019  0.4200  0.3807  1.4896
   60MOL0     H 8080   4.319   8.450   1.854 -1.4791 -1.6828  0.5499
   60MOL0     H 8081   4.339   8.422   2.026  0.5898 -3.8004  1.0505
   60MOL0     H 8082   4.543   9.212   1.834  0.9020 -0.8490 -1.5236
   60MOL0     H 8083   4.678   9.432   1.792  0.6727  1.4817 -3.7001
   60MOL0     H 8084   4.553   9.824   1.875  0.3273  1.2382  0.9399
   60MOL0     H 8085   4.602  10.049   1.971 -0.2816  3.0854 -1.1623
   60MOL0     H 8086   4.242   9.662   2.620 -1.9144  0.1289 -1.6938
   60MOL0     H 8087   4.137   9.504   2.462 -0.2099 -1.4983 -0.6051
   60MOL0     H 8088   3.972   9.104   2.297  0.2187  0.3189 -0.4557
   60MOL0     H 8089   3.930   8.920   2.137  0.5237 -1.1879  0.0300
   60MOL0     H 8090   4.061   8.620   1.990  0.0709  0.1481 -1.2453
   60MOL0     H 8091   3.994   8.729   2.094  1.0466 -1.9192  0.3059
   60MOL0     H 8092   3.833   8.800   1.888  0.3809  1.2213  2.3261
   60MOL0     H 8093   3.831   8.639   1.954  0.7658 -1.0056 -0.3262
   60MOL0     H 8094   3.931   8.530   1.781 -3.5176  1.2463  1.3517
   60MOL0     H 8095   4.007   8.673   1.714  1.3572 -2.2818  0.0576
   60MOL0     H 8096   3.780   8.757   1.644  1.4338 -0.0880  0.2048
   60MOL0     H 8097   3.707   8.615   1.708  0.2566 -0.1439 -0.0847
   60MOL0     H 8098   3.886   8.450   1.352 -1.8153  1.1656 -1.7714
   60MOL0     H 8099   4.326   8.974   1.982 -1.2712 -1.7784 -2.5516
   60MOL0     H 8100   4.347   9.176   2.114 -1.0652  1.6522 -2.7307
   61MOL0     O 8101   5.316   7.276  10.852 -0.0894 -0.2185 -0.7241
   61MOL0     C 8102   5.312   7.353  10.753 -0.5842 -0.5692  0.0770
   61MOL0     O 8103   5.402   7.340  10.637  0.1554  0.1301  0.7744
   61MOL0     C 8104   5.468   7.211  10.623  1.0369 -0.6095  0.5134
   61MOL0     C 8105   5.606   7.196  10.652  0.9357 -0.7649  0.4507
   61MOL0     C 8106   5.672   7.075  10.638 -0.6304  0.3120  0.0516
   61MOL0     C 8107   5.594   6.964  10.619 -0.0019 -0.1426  0.1965
   61MOL0     O 8108   5.661   6.850  10.590  0.3712 -0.2483 -0.0334
   61MOL0     C 8109   5.692   6.832  10.446  0.2421 -0.0479  0.1022
   61MOL0     C 8110   5.843   6.802  10.419  0.1658 -0.3094 -0.4722
   61MOL0     C 8111   5.885   6.781  10.276  0.0757  1.3453  0.6573
   61MOL0     C 8112   6.000   6.675  10.279  0.2272  0.2019 -0.9032
   61MOL0     C 8113   6.019   6.609  10.135  0.1499  0.1188  0.0186
   61MOL0     C 8114   6.127   6.509  10.123 -0.3300 -0.1486 -0.9357
   61MOL0     C 8115   6.265   6.578  10.106 -0.7572  0.6663  0.3161
   61MOL0     C 8116   6.375   6.471  10.118  0.6637 -0.4842  0.3340
   61MOL0     N 8117   6.507   6.530  10.109 -0.2860  0.2162  0.1790
   61MOL0     C 8118   6.544   6.640  10.187  0.2095 -0.5757 -0.2045
   61MOL0     C 8119   6.669   6.654  10.151  0.1383 -0.4685 -0.3606
   61MOL0     C 8120   6.747   6.759  10.212  0.4583  0.7835  0.2859
   61MOL0     C 8121   6.819   6.726  10.341 -0.1456  0.5745 -1.0005
   61MOL0     C 8122   6.908   6.599  10.329 -0.2514  0.6935  0.0515
   61MOL0     C 8123   6.985   6.586  10.455  0.1353  0.5004  0.0370
   61MOL0     O 8124   7.085   6.696  10.465 -0.6331  1.0340 -0.5251
   61MOL0     C 8125   7.154   6.707  10.579 -0.4292  0.3506 -0.9587
   61MOL0     C 8126   7.181   6.601  10.664  0.7314  1.1784  0.2213
   61MOL0     C 8127   7.262   6.612  10.777 -0.4560  0.0362 -0.3004
   61MOL0     C 8128   7.273   6.481  10.866  0.5055 -0.3166  0.4025
   61MOL0     C 8129   7.333   6.732  10.801  0.8309  0.4831 -0.3444
   61MOL0     C 8130   7.425   6.759  10.914  0.6917 -0.5708 -0.3474
   61MOL0     O 8131   7.459   6.888  10.930  0.0932  0.1169  0.0978
   61MOL0     C 8132   7.564   6.916  11.020  0.7048  0.2046 -0.9476
   61MOL0     C 8133   7.671   6.989  10.964 -0.9926 -0.4140  1.0483
   61MOL0     C 8134   7.789   7.013  11.038  0.7576 -0.1527 -0.0543
   61MOL0     C 8135   7.800   6.961  11.170  0.1646  0.5867  0.1331
   61MOL0     O 8136   7.906   6.984  11.252 -0.9791  0.2445  0.4754
   61MOL0     C 8137   7.985   6.871  11.296  0.9221 -0.0355  0.3051
   61MOL0     C 8138   8.098   6.936  11.367  0.8723  0.0330  0.0893
   61MOL0     C 8139   8.148   7.060  11.298 -0.2699 -0.1816 -0.3993
   61MOL0     C 8140   8.295   7.085  11.349 -0.0040  0.3227 -0.2492
   61MOL0     C 8141   8.328   7.234  11.324  0.3738  0.5444  0.6526
   61MOL0     C 8142   8.469   7.282  11.356 -0.1560 -0.5724 -0.1494
   61MOL0     C 8143   8.516   7.257  11.496 -0.2786  0.5580  0.2191
   61MOL0     C 8144   8.669   7.275  11.506 -0.3264  0.1935  0.7970
   61MOL0    Cl 8145   8.735   7.428  11.418  0.1075 -0.2053  0.3850
   61MOL0     C 8146   7.690   6.882  11.220 -0.1754 -0.1711 -0.6135
   61MOL0     C 8147   7.570   6.870  11.153 -0.7462  0.7559  0.1619
   61MOL0     O 8148   7.477   6.663  10.968 -0.0814 -0.3262  0.4644
   61MOL0     C 8149   7.292   6.838  10.716 -0.1780  0.1736 -0.6601
   61MOL0     C 8150   7.207   6.832  10.604 -0.6615 -0.1019 -0.5353
   61MOL0     N 8151   6.711   6.574  10.052 -0.1665  0.2723  0.0553
   61MOL0     N 8152   6.600   6.493  10.026 -0.5634 -0.9522 -0.2767
   61MOL0     C 8153   5.456   6.965  10.611  0.2633 -0.4217  0.3824
   61MOL0     C 8154   5.389   7.090  10.606 -0.1443  0.0027  0.3726
   61MOL0     C 8155   5.227   7.473  10.746  0.2902  0.3099 -0.0228
   61MOL0     C 8156   5.232   7.574  10.645 -0.3423 -0.1748 -0.7285
   61MOL0     C 8157   5.134   7.676  10.629 -1.0367  0.0501 -0.7591
   61MOL0     C 8158   5.033   7.676  10.727 -0.2258  0.4612  1.0529
   61MOL0     O 8159   4.936   7.771  10.745  0.1071 -0.3243  0.2014
   61MOL0     C 8160   4.922   7.869  10.646 -0.0615 -0.0687 -0.0765
   61MOL0     C 8161   4.778   7.938  10.643  0.1098 -0.2364 -0.4871
   61MOL0     C 8162   4.671   7.850  10.587 -0.6307 -0.6769 -0.1936
   61MOL0     C 8163   4.530   7.913  10.619  0.0735  0.0573 -0.5150
   61MOL0     C 8164   4.436   7.815  10.569  0.0885 -0.1024  0.5939
   61MOL0     C 8165   4.366   7.726  10.535  0.3450  0.6580 -0.0195
   61MOL0     C 8166   5.041   7.590  10.834 -0.6088  0.8337 -0.0022
   61MOL0     C 8167   5.134   7.490  10.851  0.5915 -0.6041  0.5205
   61MOL0     H 8168   5.655   7.292  10.666  1.8640 -0.6842 -2.6339
   61MOL0     H 8169   5.777   7.056  10.660 -1.0583 -0.4730  1.5385
   61MOL0     H 8170   5.647   6.738  10.413 -0.9157 -0.7091  3.2498
   61MOL0     H 8171   5.659   6.910  10.377  1.3395  1.4301  1.1880
   61MOL0     H 8172   5.900   6.893  10.439 -4.3239  2.5258  1.0778
   61MOL0     H 8173   5.872   6.719  10.483 -3.3662 -1.2185  0.1924
   61MOL0     H 8174   5.806   6.737  10.216 -0.2040  1.7487  0.7258
   61MOL0     H 8175   5.914   6.871  10.220  0.0164 -1.0205 -3.5524
   61MOL0     H 8176   6.098   6.709  10.311 -0.6277  2.1116 -0.1696
   61MOL0     H 8177   5.972   6.598  10.353  3.6458  0.5802  1.0027
   61MOL0     H 8178   5.927   6.555  10.110  0.2279  0.2421 -0.5458
   61MOL0     H 8179   6.037   6.677  10.052 -0.4149  1.5150  0.9926
   61MOL0     H 8180   6.126   6.452  10.216 -4.1404  2.4590  0.8814
   61MOL0     H 8181   6.112   6.444  10.037  1.9678 -2.3362  0.1979
   61MOL0     H 8182   6.273   6.636  10.013 -2.6703 -1.8138 -1.5200
   61MOL0     H 8183   6.292   6.646  10.188  0.3890 -0.2082  0.6920
   61MOL0     H 8184   6.341   6.418  10.028 -2.4732  0.6767  0.6859
   61MOL0     H 8185   6.355   6.415  10.210  2.7623 -2.5625 -0.3710
   61MOL0     H 8186   6.490   6.707  10.253  1.1671  0.3183 -0.3024
   61MOL0     H 8187   6.829   6.776  10.141 -1.9330  0.9097 -2.6698
   61MOL0     H 8188   6.688   6.849  10.229 -0.6157  0.1911 -0.1578
   61MOL0     H 8189   6.742   6.715  10.418  1.5319  1.9523  0.9710
   61MOL0     H 8190   6.882   6.810  10.370 -2.8190  2.1208  0.6557
   61MOL0     H 8191   6.978   6.604  10.246  1.9611  2.1580  1.8828
   61MOL0     H 8192   6.845   6.509  10.321  0.5727 -0.0342  1.3244
   61MOL0     H 8193   7.044   6.494  10.451 -0.9521 -0.2008 -2.3399
   61MOL0     H 8194   6.922   6.598  10.543  1.5571 -2.2108  1.5422
   61MOL0     H 8195   7.150   6.503  10.629  1.9050  0.9565 -0.2373
   61MOL0     H 8196   7.217   6.392  10.837 -1.9809  1.6347 -1.1502
   61MOL0     H 8197   7.382   6.467  10.869  0.8771  1.8679 -0.9505
   61MOL0     H 8198   7.238   6.512  10.965  1.2610 -0.6080  0.7709
   61MOL0     H 8199   7.651   7.036  10.869 -2.0740 -1.8049  0.5591
   61MOL0     H 8200   7.869   7.073  10.996  1.6970 -1.3799 -0.0667
   61MOL0     H 8201   7.937   6.802  11.366  0.5720  0.3714  0.4690
   61MOL0     H 8202   8.012   6.810  11.209 -0.1594 -0.3621  0.1848
   61MOL0     H 8203   8.062   6.955  11.469 -1.3966 -1.8303 -0.2659
   61MOL0     H 8204   8.183   6.869  11.382 -1.1294 -3.0237 -1.1639
   61MOL0     H 8205   8.084   7.144  11.327  0.7947 -0.3120  2.8035
   61MOL0     H 8206   8.138   7.049  11.190 -0.4752 -1.4250 -0.2693
   61MOL0     H 8207   8.308   7.064  11.455 -1.1967 -1.2565 -0.3823
   61MOL0     H 8208   8.370   7.027  11.294  3.1087  3.5210  0.2663
   61MOL0     H 8209   8.259   7.286  11.392 -0.2673  1.0341 -0.3598
   61MOL0     H 8210   8.294   7.260  11.224  0.3622 -0.0806  0.4919
   61MOL0     H 8211   8.539   7.234  11.286 -2.7774 -1.9558 -2.0367
   61MOL0     H 8212   8.462   7.390  11.340 -5.8058 -0.9914 -2.9218
   61MOL0     H 8213   8.506   7.156  11.537 -1.1806  1.0433  1.2864
   61MOL0     H 8214   8.448   7.312  11.562 -3.5484 -1.1625 -1.4227
   61MOL0     H 8215   8.712   7.188  11.454 -2.2922 -0.9690  1.0221
   61MOL0     H 8216   8.702   7.271  11.610  1.1641  0.0849  0.3463
   61MOL0     H 8217   7.699   6.848  11.323 -2.3419  2.0462  0.4046
   61MOL0     H 8218   7.484   6.820  11.197  0.1544  1.2808  2.6719
   61MOL0     H 8219   7.329   6.939  10.731  0.7662 -0.3691  0.8419
   61MOL0     H 8220   7.202   6.903  10.522  0.9256 -1.2804 -1.7207
   61MOL0     H 8221   5.403   6.874  10.585  0.3298 -0.5523  0.6937
   61MOL0     H 8222   5.283   7.100  10.588 -0.0762 -1.1546 -0.8193
   61MOL0     H 8223   5.317   7.560  10.580  0.5616 -1.6028  0.6883
   61MOL0     H 8224   5.151   7.750  10.552  1.3364  0.1832 -0.1683
   61MOL0     H 8225   5.002   7.942  10.660 -0.1363  0.5551 -2.4409
   61MOL0     H 8226   4.931   7.823  10.547 -2.3492 -1.0062  0.0864
   61MOL0     H 8227   4.785   8.027  10.580 -1.0054  0.2096 -0.0104
   61MOL0     H 8228   4.754   7.973  10.744  2.0495  0.9996 -0.4088
   61MOL0     H 8229   4.683   7.747  10.620  1.5732 -0.9200 -1.5373
   61MOL0     H 8230   4.685   7.844  10.478 -0.6481 -2.0825 -0.1413
   61MOL0     H 8231   4.526   8.005  10.560 -0.6376 -0.0066 -0.5690
   61MOL0     H 8232   4.518   7.929  10.726  0.5816  2.0194 -0.7135
   61MOL0     H 8233   4.329   7.632  10.499  0.7943  1.2729 -2.2291
   61MOL0     H 8234   4.961   7.599  10.907 -3.0638 -1.2633 -2.1759
   61MOL0     H 8235   5.139   7.429  10.940 -0.5878 -0.6307  0.5887
   62MOL0     O 8236   4.225   1.352   0.841  0.4002  0.1462  1.0547
   62MOL0     C 8237   4.271   1.412   0.940 -0.8398 -0.5386 -0.6037
   62MOL0     O 8238   4.205   1.463   1.053 -0.4594 -0.3080 -0.0167
   62MOL0     C 8239   4.072   1.422   1.072 -0.3084 -0.3152  0.0874
   62MOL0     C 8240   4.038   1.344   1.178  0.0119 -0.0584 -0.3665
   62MOL0     C 8241   3.907   1.318   1.217  0.5067  0.7548 -0.7321
   62MOL0     C 8242   3.806   1.374   1.149  0.0661 -0.1046  0.6196
   62MOL0     O 8243   3.675   1.358   1.175  0.2669 -0.8140 -0.6298
   62MOL0     C 8244   3.636   1.387   1.313 -0.7746  0.1315 -0.1845
   62MOL0     C 8245   3.535   1.495   1.328 -0.6819 -0.8045 -0.1814
   62MOL0     C 8246   3.580   1.634   1.259 -0.3197  0.8794 -0.0217
   62MOL0     C 8247   3.690   1.700   1.344 -0.4992 -0.1955  0.0168
   62MOL0     C 8248   3.731   1.838   1.293 -0.6688 -0.1586  0.2698
   62MOL0     C 8249   3.762   1.853   1.146  1.1647 -0.6536  0.0026
   62MOL0     C 8250   3.844   1.978   1.109 -0.2405 -0.1316 -0.0835
   62MOL0     C 8251   3.772   2.102   1.074  0.7582 -0.0892 -0.1801
   62MOL0     N 8252   3.846   2.230   1.071 -0.7693  0.2569  0.0336
   62MOL0     C 8253   3.960   2.255   1.010 -0.8285 -0.7075 -0.3428
   62MOL0     C 8254   3.964   2.389   1.030 -0.2020  0.0504 -0.4502
   62MOL0     C 8255   4.060   2.470   0.956  0.1879  0.3152  0.0884
   62MOL0     C 8256   4.196   2.483   1.022 -0.2384 -0.3652 -0.9310
   62MOL0     C 8257   4.269   2.348   1.024  0.9431 -0.5771  0.0689
   62MOL0     C 8258   4.413   2.354   1.086  0.4687  0.1109  0.2168
   62MOL0     O 8259   4.494   2.443   0.999 -0.3415  0.2800  0.4120
   62MOL0     C 8260   4.623   2.407   0.983  0.0520 -0.0321 -0.2217
   62MOL0     C 8261   4.707   2.344   1.075 -0.4257  0.0626  1.0367
   62MOL0     C 8262   4.838   2.326   1.040 -0.3859  0.2052 -1.1351
   62MOL0     C 8263   4.922   2.265   1.147  0.0010  0.1333  0.6403
   62MOL0     C 8264   4.883   2.360   0.913  0.5353 -0.4326  0.3263
   62MOL0     C 8265   5.013   2.334   0.856  0.7518 -0.3539 -0.1407
   62MOL0     O 8266   5.114   2.355   0.946  0.3392  0.1521 -0.7257
   62MOL0     C 8267   5.244   2.307   0.924  0.1783  0.1817 -0.3005
   62MOL0     C 8268   5.321   2.290   1.039  0.7104 -0.5580  0.0786
   62MOL0     C 8269   5.457   2.257   1.035 -0.3497 -0.2243 -1.3687
   62MOL0     C 8270   5.521   2.240   0.912 -0.3091  0.1983  0.0910
   62MOL0     O 8271   5.657   2.201   0.898 -0.1777 -0.9725 -0.1459
   62MOL0     C 8272   5.723   2.273   0.787 -0.2705 -0.1553  0.2442
   62MOL0     C 8273   5.877   2.277   0.824 -0.2019  0.9774 -1.2384
   62MOL0     C 8274   5.944   2.143   0.868  0.4407 -0.0880 -0.1862
   62MOL0     C 8275   5.935   2.037   0.755  0.2676 -0.3365  0.8361
   62MOL0     C 8276   6.024   1.916   0.780 -0.6333 -0.0356  0.3959
   62MOL0     C 8277   6.006   1.841   0.910 -0.2519 -0.5389 -0.1355
   62MOL0     C 8278   5.902   1.731   0.900 -0.1016  0.0220  0.1306
   62MOL0     C 8279   5.872   1.678   1.040 -1.2525 -0.5379 -0.6017
   62MOL0    Cl 8280   5.738   1.566   1.017  0.1125  0.2852  0.4116
   62MOL0     C 8281   5.441   2.271   0.796 -0.3093 -0.1061 -0.5542
   62MOL0     C 8282   5.311   2.302   0.801  0.3852  0.5186  0.2212
   62MOL0     O 8283   5.031   2.305   0.734  0.4848 -0.1488 -0.2735
   62MOL0     C 8284   4.795   2.421   0.819  0.1874 -0.2014 -1.2672
   62MOL0     C 8285   4.661   2.432   0.852 -0.1105  0.0765  1.0362
   62MOL0     N 8286   3.862   2.441   1.105 -0.3372  0.4260 -0.7580
   62MOL0     N 8287   3.792   2.337   1.132 -0.1238 -0.2936 -0.3447
   62MOL0     C 8288   3.834   1.462   1.040  0.3726 -0.6061  0.8554
   62MOL0     C 8289   3.960   1.485   1.000  0.8429  0.4290  0.3257
   62MOL0     C 8290   4.415   1.454   0.947 -0.4096  1.3303  1.1275
   62MOL0     C 8291   4.505   1.391   0.857  0.1067  0.0029 -0.2070
   62MOL0     C 8292   4.636   1.414   0.860 -0.5404  0.0939 -0.5595
   62MOL0     C 8293   4.692   1.497   0.964  0.1620 -0.0006 -0.4113
   62MOL0     O 8294   4.829   1.520   0.977 -0.1959  0.4883 -0.3833
   62MOL0     C 8295   4.916   1.409   0.955  0.5662 -0.0510  0.2417
   62MOL0     C 8296   4.974   1.435   0.820 -0.1107  0.7302  0.7013
   62MOL0     C 8297   5.073   1.545   0.806 -0.4611 -0.2568  0.3872
   62MOL0     C 8298   5.220   1.490   0.827 -0.1065  0.2937 -0.4152
   62MOL0     C 8299   5.269   1.464   0.966 -0.7298  1.0339  0.5828
   62MOL0     C 8300   5.324   1.445   1.076  0.6820 -0.0564  0.3893
   62MOL0     C 8301   4.603   1.559   1.053 -0.4667  0.3003  0.4075
   62MOL0     C 8302   4.464   1.536   1.048  0.0164 -0.5163  0.1634
   62MOL0     H 8303   4.123   1.315   1.238 -0.4826  0.9027  0.8435
   62MOL0     H 8304   3.900   1.250   1.301  0.5881  0.2527 -1.1265
   62MOL0     H 8305   3.611   1.298   1.371 -1.3472  1.0342  1.0224
   62MOL0     H 8306   3.722   1.427   1.368 -0.3375 -1.0230 -0.0024
   62MOL0     H 8307   3.443   1.463   1.280 -1.5422 -2.0409  2.1324
   62MOL0     H 8308   3.511   1.511   1.434  2.2393 -0.8692  0.5932
   62MOL0     H 8309   3.611   1.618   1.155 -0.2513 -0.8314  0.2213
   62MOL0     H 8310   3.497   1.705   1.257 -1.1917 -0.1158 -1.7371
   62MOL0     H 8311   3.668   1.700   1.451  1.0213  0.0024  0.3458
   62MOL0     H 8312   3.774   1.632   1.337  0.7168  0.7145  3.7385
   62MOL0     H 8313   3.647   1.905   1.316 -0.0329  0.3177  1.2542
   62MOL0     H 8314   3.812   1.869   1.360  0.9029  0.6048 -1.8682
   62MOL0     H 8315   3.812   1.764   1.107  0.5810  0.0016 -2.3994
   62MOL0     H 8316   3.670   1.853   1.087  0.1348 -1.3995  1.5482
   62MOL0     H 8317   3.908   1.998   1.196  1.6068 -3.5101 -0.5126
   62MOL0     H 8318   3.909   1.952   1.026 -0.0879 -1.6083  0.4730
   62MOL0     H 8319   3.707   2.113   1.161  3.3725  1.3874  1.7401
   62MOL0     H 8320   3.714   2.089   0.983  0.9182  1.7274 -0.5857
   62MOL0     H 8321   4.021   2.196   0.942  1.3851  2.0999 -0.9871
   62MOL0     H 8322   4.102   2.414   0.872  3.1940 -2.1772  2.9513
   62MOL0     H 8323   4.015   2.562   0.919  2.0829  1.9709  1.6153
   62MOL0     H 8324   4.174   2.519   1.124 -0.6861 -2.0329 -0.4148
   62MOL0     H 8325   4.264   2.555   0.976 -0.1145  1.7891  2.2530
   62MOL0     H 8326   4.286   2.311   0.922 -2.0183  0.9669 -1.1107
   62MOL0     H 8327   4.208   2.279   1.083  0.8384 -0.6564 -0.1320
   62MOL0     H 8328   4.446   2.249   1.087  2.1118  0.5215 -2.1785
   62MOL0     H 8329   4.417   2.391   1.189  1.1614  1.9828 -0.4424
   62MOL0     H 8330   4.666   2.312   1.170 -2.4677 -1.1609 -0.1823
   62MOL0     H 8331   4.852   2.213   1.214 -1.2359 -2.0862 -2.1709
   62MOL0     H 8332   4.986   2.188   1.105 -2.3238 -1.9853  0.7198
   62MOL0     H 8333   4.984   2.335   1.204 -1.3904 -0.1279  2.5987
   62MOL0     H 8334   5.261   2.303   1.129  0.3690  1.1711 -0.3577
   62MOL0     H 8335   5.507   2.260   1.132 -0.1045  0.8579 -1.5110
   62MOL0     H 8336   5.712   2.208   0.699  3.3966  0.7641 -1.0988
   62MOL0     H 8337   5.682   2.374   0.772  2.1223  0.9318  0.5842
   62MOL0     H 8338   5.938   2.332   0.752  1.6567 -1.5856 -1.7463
   62MOL0     H 8339   5.895   2.347   0.907  0.6825  1.2852 -1.6723
   62MOL0     H 8340   5.894   2.101   0.956  1.8236  1.3030  1.3375
   62MOL0     H 8341   6.050   2.156   0.894  1.5831 -2.5760 -3.0683
   62MOL0     H 8342   5.837   1.996   0.728  1.9398 -3.8257 -0.6304
   62MOL0     H 8343   5.966   2.091   0.666 -0.1194 -1.5582 -0.0784
   62MOL0     H 8344   6.128   1.946   0.762 -0.1344 -2.5577 -1.3703
   62MOL0     H 8345   6.014   1.842   0.700  0.3034  0.9236 -0.6482
   62MOL0     H 8346   6.102   1.798   0.940 -0.5346 -1.3496 -0.3667
   62MOL0     H 8347   5.974   1.900   0.997 -0.4987 -1.5580  0.4804
   62MOL0     H 8348   5.934   1.651   0.833 -0.2853  1.8893 -2.3122
   62MOL0     H 8349   5.811   1.780   0.866  1.2747  1.8973 -0.9995
   62MOL0     H 8350   5.836   1.759   1.104  0.1844 -0.7285  0.5028
   62MOL0     H 8351   5.966   1.638   1.079 -1.1599 -0.3617 -0.6434
   62MOL0     H 8352   5.492   2.265   0.700 -0.9913 -2.0982 -0.8260
   62MOL0     H 8353   5.256   2.328   0.711 -1.6221 -3.0332  0.2469
   62MOL0     H 8354   4.836   2.452   0.723  0.2485 -2.7844 -2.1527
   62MOL0     H 8355   4.587   2.472   0.784 -0.2857  1.4132  1.9688
   62MOL0     H 8356   3.762   1.500   0.968  1.1576 -1.1913 -0.2689
   62MOL0     H 8357   3.982   1.550   0.916 -0.2407  0.5685  0.1312
   62MOL0     H 8358   4.461   1.327   0.781 -0.1431  0.0187 -0.0769
   62MOL0     H 8359   4.700   1.364   0.787 -1.5470 -1.1994 -0.5924
   62MOL0     H 8360   4.994   1.401   1.032  0.1788  0.2272  0.6687
   62MOL0     H 8361   4.864   1.313   0.958 -2.8718  1.6691  1.8351
   62MOL0     H 8362   4.890   1.462   0.757 -1.5560  2.5735  3.2191
   62MOL0     H 8363   5.019   1.343   0.780 -2.3019 -0.2168  0.2968
   62MOL0     H 8364   5.054   1.623   0.880 -1.1884 -0.0507 -0.0086
   62MOL0     H 8365   5.064   1.582   0.704  2.9053 -2.2596 -0.8105
   62MOL0     H 8366   5.287   1.564   0.783 -1.1605  3.0932  2.2607
   62MOL0     H 8367   5.235   1.398   0.770 -0.9789  0.0913 -0.3346
   62MOL0     H 8368   5.383   1.420   1.162  0.5489  2.4044  1.2723
   62MOL0     H 8369   4.636   1.620   1.137 -2.6335  0.4082  1.2335
   62MOL0     H 8370   4.400   1.585   1.121  1.9940  0.7796  1.1254
   63MOL0     O 8371   8.052   0.485   1.868  0.3450 -0.2323 -0.6176
   63MOL0     C 8372   7.966   0.546   1.928 -0.2645  0.1656 -0.3018
   63MOL0     O 8373   7.991   0.657   2.008 -0.0372 -0.3134 -0.2650
   63MOL0     C 8374   8.119   0.704   2.029  0.5287 -0.5463 -0.2932
   63MOL0     C 8375   8.234   0.619   2.049 -0.0134  0.6237  0.2413
   63MOL0     C 8376   8.364   0.680   2.065  0.2986  0.0013  0.5059
   63MOL0     C 8377   8.371   0.823   2.077 -0.2742  0.7841 -0.0556
   63MOL0     O 8378   8.503   0.874   2.099  0.2333  0.6204 -0.9847
   63MOL0     C 8379   8.516   1.019   2.130 -1.3566  0.3518  0.0104
   63MOL0     C 8380   8.652   1.049   2.184  0.2278  0.7107  0.6342
   63MOL0     C 8381   8.774   0.995   2.105 -0.5148  0.0587 -0.5099
   63MOL0     C 8382   8.792   1.072   1.968  0.0805  0.3487 -0.4308
   63MOL0     C 8383   8.928   1.034   1.911  0.6071 -0.8088 -1.1285
   63MOL0     C 8384   8.941   1.115   1.774 -0.0257  0.4891  0.0595
   63MOL0     C 8385   9.055   1.058   1.681  1.3555  0.7603  0.2007
   63MOL0     C 8386   9.017   1.066   1.539 -0.1584 -0.4297  0.4055
   63MOL0     N 8387   9.147   1.039   1.469  0.0309  0.8868  0.0707
   63MOL0     C 8388   9.191   0.916   1.407 -0.5488 -0.0768  0.4156
   63MOL0     C 8389   9.322   0.950   1.380  0.2574 -0.2085  0.1516
   63MOL0     C 8390   9.404   0.850   1.301  0.5883 -0.6111  0.3478
   63MOL0     C 8391   9.443   0.911   1.162 -0.2518  0.2958 -0.0203
   63MOL0     C 8392   9.340   0.856   1.056 -0.3337 -0.4269 -0.2523
   63MOL0     C 8393   9.199   0.919   1.063  0.1893 -0.2349 -0.3626
   63MOL0     O 8394   9.202   1.061   1.088  0.2096 -0.1904  0.8184
   63MOL0     C 8395   9.077   1.120   1.122  0.2753  0.9391 -0.0049
   63MOL0     C 8396   8.949   1.075   1.080 -0.0525 -0.0329 -0.8824
   63MOL0     C 8397   8.830   1.139   1.129  0.0933  0.8013  0.1886
   63MOL0     C 8398   8.702   1.069   1.104  1.1005 -0.2541 -0.5558
   63MOL0     C 8399   8.843   1.262   1.203 -0.3907  0.2448  0.6825
   63MOL0     C 8400   8.727   1.333   1.255  0.3100 -0.4746  0.1228
   63MOL0     O 8401   8.624   1.267   1.304 -0.1623  0.0120  0.6988
   63MOL0     C 8402   8.503   1.320   1.280  0.6406 -0.4368 -1.0993
   63MOL0     C 8403   8.428   1.354   1.390 -0.7885  0.2239  0.1828
   63MOL0     C 8404   8.298   1.404   1.382  0.7922  0.3706  0.0814
   63MOL0     C 8405   8.237   1.421   1.254 -0.1931 -0.1077  0.1619
   63MOL0     O 8406   8.120   1.479   1.232 -1.1455 -0.0410  0.3154
   63MOL0     C 8407   8.127   1.620   1.252 -0.5528  0.2851  1.1795
   63MOL0     C 8408   7.976   1.676   1.260 -0.0376 -0.7605  0.0064
   63MOL0     C 8409   7.957   1.822   1.308 -0.3212 -0.9460  0.5148
   63MOL0     C 8410   7.807   1.855   1.348 -1.6246 -0.0160  0.8352
   63MOL0     C 8411   7.760   1.998   1.318 -0.2125  0.7149 -0.3066
   63MOL0     C 8412   7.733   2.079   1.446 -0.0277 -1.3705  0.6539
   63MOL0     C 8413   7.644   2.198   1.428  0.4745 -0.5064  0.2314
   63MOL0     C 8414   7.714   2.314   1.360  0.6444  0.2130 -0.5104
   63MOL0    Cl 8415   7.750   2.443   1.471 -0.3721  0.4405 -0.7023
   63MOL0     C 8416   8.315   1.388   1.143  0.0533 -0.1798 -0.2158
   63MOL0     C 8417   8.444   1.341   1.153  0.8094  0.3582 -0.6454
   63MOL0     O 8418   8.722   1.454   1.238 -0.0051 -0.0848 -0.1828
   63MOL0     C 8419   8.966   1.312   1.236  0.2529 -0.1171  1.3005
   63MOL0     C 8420   9.085   1.249   1.180  0.9828 -0.4245  0.3339
   63MOL0     N 8421   9.346   1.079   1.417 -0.2875  0.1375  0.7185
   63MOL0     N 8422   9.245   1.136   1.462  1.3228  0.8590  1.0131
   63MOL0     C 8423   8.254   0.906   2.076  0.8924 -0.2889  0.7898
   63MOL0     C 8424   8.133   0.842   2.040 -0.1059  0.1827 -0.3311
   63MOL0     C 8425   7.833   0.496   1.904  0.4124  0.0162 -0.2284
   63MOL0     C 8426   7.799   0.375   1.838 -0.2566 -0.1087 -0.1936
   63MOL0     C 8427   7.671   0.340   1.810  0.4082 -1.2035  0.2232
   63MOL0     C 8428   7.561   0.411   1.858 -0.4177  0.0472  0.7534
   63MOL0     O 8429   7.427   0.376   1.839  0.4622  0.2443  0.0048
   63MOL0     C 8430   7.380   0.348   1.714  0.6596  0.9236  0.1078
   63MOL0     C 8431   7.232   0.380   1.680 -0.1366 -0.4824 -0.6030
   63MOL0     C 8432   7.184   0.519   1.740  0.3020  0.2284 -0.0643
   63MOL0     C 8433   7.122   0.496   1.880 -0.6394 -0.0632 -0.3625
   63MOL0     C 8434   7.006   0.406   1.888 -0.2029  0.3979 -0.5563
   63MOL0     C 8435   6.905   0.334   1.900 -0.3638  0.0592 -0.7648
   63MOL0     C 8436   7.589   0.528   1.932  0.0036  0.0386 -0.3653
   63MOL0     C 8437   7.719   0.562   1.965 -0.3228  0.4688 -0.7052
   63MOL0     H 8438   8.222   0.515   2.077  3.8186 -0.2055 -0.6349
   63MOL0     H 8439   8.460   0.634   2.085  0.0400  0.0164  1.9034
   63MOL0     H 8440   8.492   1.073   2.038 -0.9197 -1.1270 -0.9943
   63MOL0     H 8441   8.447   1.040   2.213 -0.1784  1.8746  0.6460
   63MOL0     H 8442   8.651   1.155   2.211  0.0784  0.4303  1.7868
   63MOL0     H 8443   8.660   0.986   2.273  0.7314 -2.0524 -1.2306
   63MOL0     H 8444   8.860   1.004   2.171 -0.4039  0.2352 -0.6801
   63MOL0     H 8445   8.758   0.887   2.100 -0.3499 -0.0709  1.0853
   63MOL0     H 8446   8.710   1.044   1.901 -0.3470  0.4048  0.0593
   63MOL0     H 8447   8.790   1.180   1.988 -2.1085  0.0717  1.3078
   63MOL0     H 8448   9.013   1.062   1.974  1.3919 -0.3673 -2.3388
   63MOL0     H 8449   8.929   0.926   1.897 -2.8596 -1.0298 -0.4103
   63MOL0     H 8450   8.851   1.121   1.713 -0.2518 -2.4882 -0.0605
   63MOL0     H 8451   8.974   1.218   1.789 -0.9788  0.9408 -0.9059
   63MOL0     H 8452   9.144   1.118   1.700  0.9032  1.7662 -0.7201
   63MOL0     H 8453   9.096   0.959   1.700  2.0708  1.0235  0.0430
   63MOL0     H 8454   8.980   1.162   1.503 -2.1782 -1.5912 -0.7990
   63MOL0     H 8455   8.937   0.993   1.527 -1.6360  1.1655  0.2623
   63MOL0     H 8456   9.132   0.835   1.366  0.1311 -0.9081  1.0519
   63MOL0     H 8457   9.494   0.822   1.357 -0.7485 -0.0063  2.9802
   63MOL0     H 8458   9.340   0.761   1.292 -2.1749  1.1754  1.0999
   63MOL0     H 8459   9.547   0.889   1.136 -0.2419  0.8128 -0.4208
   63MOL0     H 8460   9.434   1.020   1.161 -1.3178  0.2123 -0.1002
   63MOL0     H 8461   9.338   0.748   1.069 -0.8073 -0.8898 -3.4206
   63MOL0     H 8462   9.378   0.890   0.960  0.6595  0.1486  0.3211
   63MOL0     H 8463   9.135   0.865   1.133 -0.6637 -0.4216 -1.2695
   63MOL0     H 8464   9.153   0.899   0.965  2.7386 -1.8610 -1.3247
   63MOL0     H 8465   8.938   0.980   1.030  1.0402 -2.7067  3.3548
   63MOL0     H 8466   8.708   0.993   1.025 -0.5412  1.0172 -1.9861
   63MOL0     H 8467   8.676   1.031   1.204  1.6501 -1.6534 -0.9102
   63MOL0     H 8468   8.627   1.137   1.063 -0.9104 -1.5115  0.8463
   63MOL0     H 8469   8.463   1.319   1.487 -0.7278 -0.5825 -0.1222
   63MOL0     H 8470   8.241   1.431   1.470 -0.1867  0.0301 -0.4376
   63MOL0     H 8471   8.178   1.661   1.340  2.6938 -0.9158  0.0040
   63MOL0     H 8472   8.182   1.676   1.176  1.8648  2.3229  4.2011
   63MOL0     H 8473   7.946   1.661   1.156  4.0164 -0.4502 -1.4178
   63MOL0     H 8474   7.919   1.607   1.322 -1.8998  1.0245  0.3705
   63MOL0     H 8475   7.991   1.886   1.225  1.7232  1.2184  2.8539
   63MOL0     H 8476   8.028   1.841   1.389  0.8955  1.2355 -0.9199
   63MOL0     H 8477   7.752   1.792   1.278 -0.4715 -0.7217  0.5286
   63MOL0     H 8478   7.783   1.824   1.450 -1.4835 -2.8862  0.0775
   63MOL0     H 8479   7.669   1.988   1.257  1.3013  1.8330 -2.9374
   63MOL0     H 8480   7.831   2.054   1.256 -1.7529  1.8878 -1.0857
   63MOL0     H 8481   7.685   2.009   1.516  0.4555 -0.8150  1.5522
   63MOL0     H 8482   7.824   2.105   1.500 -1.8161  0.5831  2.9542
   63MOL0     H 8483   7.607   2.229   1.526 -0.9530 -0.1842 -0.3910
   63MOL0     H 8484   7.552   2.171   1.376 -0.3691 -0.5508  1.6898
   63MOL0     H 8485   7.656   2.360   1.279  1.5750 -1.0985 -1.9680
   63MOL0     H 8486   7.810   2.284   1.318  0.8498 -1.1951  0.8791
   63MOL0     H 8487   8.272   1.401   1.045 -1.9386  0.6179  0.6995
   63MOL0     H 8488   8.480   1.308   1.056  0.7176  2.8372 -1.6060
   63MOL0     H 8489   8.974   1.402   1.296 -2.0252  0.7662  0.4124
   63MOL0     H 8490   9.181   1.299   1.194  1.0759 -0.0629 -1.3688
   63MOL0     H 8491   8.257   1.013   2.093  1.6321 -0.0933 -0.4074
   63MOL0     H 8492   8.041   0.896   2.022 -0.4144  0.0696  0.8341
   63MOL0     H 8493   7.867   0.312   1.783 -1.9712  1.0694 -3.9689
   63MOL0     H 8494   7.642   0.256   1.747 -1.4639 -0.8995  0.6258
   63MOL0     H 8495   7.448   0.384   1.636  2.1714 -3.0565 -0.5974
   63MOL0     H 8496   7.395   0.242   1.696  0.1006  0.8424  0.0877
   63MOL0     H 8497   7.170   0.291   1.695  0.8624 -1.5291 -2.2569
   63MOL0     H 8498   7.222   0.388   1.571 -0.9935  0.1655 -0.4802
   63MOL0     H 8499   7.110   0.553   1.667  0.3939  0.7691  0.0923
   63MOL0     H 8500   7.265   0.592   1.734 -0.5082  1.0194 -3.4826
   63MOL0     H 8501   7.094   0.593   1.921  0.8953  1.5581 -2.8437
   63MOL0     H 8502   7.197   0.450   1.945 -1.7053 -0.2832  0.7359
   63MOL0     H 8503   6.814   0.283   1.926 -0.9101  1.4632  0.2550
   63MOL0     H 8504   7.508   0.583   1.979  0.4966 -0.4147  1.0667
   63MOL0     H 8505   7.739   0.652   2.023 -0.6586  0.1954 -0.1507
   64MOL0     O 8506   9.084  10.801   6.226 -0.1050 -0.3838  0.4456
   64MOL0     C 8507   9.078  10.688   6.270 -0.4243  0.1131  0.2534
   64MOL0     O 8508   8.973  10.622   6.322  0.0637 -0.3922 -0.5767
   64MOL0     C 8509   8.847  10.681   6.342 -0.8917 -0.0404 -0.5726
   64MOL0     C 8510   8.741  10.587   6.338 -0.0368  0.5612  0.1179
   64MOL0     C 8511   8.610  10.624   6.358 -0.9956 -0.1085 -0.3826
   64MOL0     C 8512   8.591  10.760   6.392 -0.5753 -0.4318 -0.7961
   64MOL0     O 8513   8.468  10.803   6.427 -0.7154 -0.2269  0.0959
   64MOL0     C 8514   8.358  10.721   6.458 -0.0305  0.0234 -0.2332
   64MOL0     C 8515   8.364  10.655   6.601  0.6451  0.6039 -0.0410
   64MOL0     C 8516   8.225  10.598   6.645 -0.6357  0.6182 -0.9254
   64MOL0     C 8517   8.173  10.693   6.757 -0.7789  0.5884  0.2533
   64MOL0     C 8518   8.049  10.626   6.837 -0.3437 -0.2284  0.3742
   64MOL0     C 8519   7.929  10.590   6.757  0.2065 -0.7257  0.3173
   64MOL0     C 8520   7.829  10.489   6.825 -0.0437 -0.2721  0.6000
   64MOL0     C 8521   7.768  10.569   6.948  0.2587  0.0777  0.9650
   64MOL0     N 8522   7.826  10.548   7.078  1.3341 -0.9169  0.1122
   64MOL0     C 8523   7.890  10.435   7.120 -0.5306  1.0672 -0.1640
   64MOL0     C 8524   7.916  10.454   7.252  0.1058  0.1197 -0.2750
   64MOL0     C 8525   7.982  10.344   7.340  0.4125  1.2752 -1.0325
   64MOL0     C 8526   7.896  10.281   7.444 -0.4397  0.3408 -1.3133
   64MOL0     C 8527   7.979  10.209   7.559  0.7402 -0.6376  0.2876
   64MOL0     C 8528   7.895  10.167   7.683 -0.7258 -0.7956  0.0013
   64MOL0     O 8529   7.802  10.275   7.725 -0.0221 -0.3629  0.2153
   64MOL0     C 8530   7.733  10.252   7.845  0.3801  0.2018  0.7830
   64MOL0     C 8531   7.780  10.172   7.947 -0.2442 -0.7548 -0.3143
   64MOL0     C 8532   7.693  10.142   8.050  1.3154  0.4776 -0.6805
   64MOL0     C 8533   7.744  10.069   8.170 -0.4734 -0.0195 -0.6136
   64MOL0     C 8534   7.556  10.196   8.054  0.3838 -0.4286  0.2001
   64MOL0     C 8535   7.456  10.164   8.156  0.0786 -0.7588  0.2417
   64MOL0     O 8536   7.459  10.039   8.212  0.0496  0.0988 -0.1419
   64MOL0     C 8537   7.356   9.998   8.296  0.5866  0.4685 -0.0815
   64MOL0     C 8538   7.364  10.014   8.430 -0.8287 -0.1169 -0.0979
   64MOL0     C 8539   7.260   9.975   8.514  0.0091  0.2713  0.9354
   64MOL0     C 8540   7.141   9.925   8.460 -0.3652  0.1229  0.2352
   64MOL0     O 8541   7.038   9.910   8.547 -1.2938 -0.5547  0.1639
   64MOL0     C 8542   6.973   9.787   8.550  0.2491  0.7909 -0.5785
   64MOL0     C 8543   6.902   9.764   8.680 -0.2772  0.3389 -0.1784
   64MOL0     C 8544   6.772   9.844   8.681 -0.2960 -0.4652 -0.1666
   64MOL0     C 8545   6.675   9.820   8.557 -0.8799 -0.3588  0.7014
   64MOL0     C 8546   6.539   9.789   8.613  0.7807  0.3746 -0.3929
   64MOL0     C 8547   6.412   9.820   8.527 -0.7356  0.3939 -0.1164
   64MOL0     C 8548   6.277   9.768   8.579 -0.1858 -0.0067  0.3349
   64MOL0     C 8549   6.172   9.847   8.503  0.9197 -0.0887  0.8123
   64MOL0    Cl 8550   6.170   9.769   8.345 -0.4194  0.0054 -0.0868
   64MOL0     C 8551   7.127   9.930   8.321 -0.3524 -0.2751  0.4376
   64MOL0     C 8552   7.234   9.965   8.237 -0.3606 -0.1892  0.8416
   64MOL0     O 8553   7.369  10.242   8.170 -0.2036 -0.1899 -0.0447
   64MOL0     C 8554   7.526  10.293   7.957 -0.1661  1.0698  0.5362
   64MOL0     C 8555   7.612  10.320   7.852  0.3915  0.1653  0.3216
   64MOL0     N 8556   7.854  10.565   7.291 -0.4090 -0.7177 -0.0763
   64MOL0     N 8557   7.805  10.629   7.188 -0.5991  0.0982  0.5040
   64MOL0     C 8558   8.701  10.845   6.399  0.6763 -1.1651  0.4307
   64MOL0     C 8559   8.829  10.803   6.374 -0.4669 -0.1775 -0.7157
   64MOL0     C 8560   9.208  10.613   6.262 -0.5112 -0.3513  0.2366
   64MOL0     C 8561   9.230  10.503   6.333 -0.1677  0.2489  0.0388
   64MOL0     C 8562   9.348  10.428   6.324 -0.2039  0.7269 -0.1251
   64MOL0     C 8563   9.456  10.472   6.244 -0.1868  0.8084  0.5834
   64MOL0     O 8564   9.581  10.425   6.256 -0.4860  0.1149  0.4354
   64MOL0     C 8565   9.609  10.319   6.166 -0.6404  0.2179  0.8060
   64MOL0     C 8566   9.756  10.268   6.186  0.1635 -0.6210 -0.2635
   64MOL0     C 8567   9.871  10.371   6.158  0.4320 -0.5741  0.6307
   64MOL0     C 8568  10.013  10.335   6.220  0.1498  0.1227  1.1975
   64MOL0     C 8569  10.075  10.226   6.149  0.0453 -0.5143 -1.1020
   64MOL0     C 8570  10.113  10.126   6.098 -0.6375 -0.3099  0.0394
   64MOL0     C 8571   9.431  10.595   6.179  0.1400  0.2869  1.0511
   64MOL0     C 8572   9.309  10.664   6.176  0.6978 -0.2456 -0.9066
   64MOL0     H 8573   8.763  10.485   6.309  1.7940  0.5161  1.4989
   64MOL0     H 8574   8.532  10.549   6.347  0.3682 -1.4454 -1.4480
   64MOL0     H 8575   8.263  10.776   6.457  0.7928  1.4922 -0.5428
   64MOL0     H 8576   8.353  10.647   6.378 -1.2299 -2.1410  1.7329
   64MOL0     H 8577   8.432  10.570   6.598  0.3810  0.4095 -0.9218
   64MOL0     H 8578   8.408  10.733   6.664  1.1394 -0.0959  0.5028
   64MOL0     H 8579   8.157  10.597   6.559  1.7655  3.7490 -3.1453
   64MOL0     H 8580   8.248  10.497   6.679  0.3576  1.7039  1.9784
   64MOL0     H 8581   8.247  10.725   6.830 -0.8337 -1.5548  1.3237
   64MOL0     H 8582   8.139  10.782   6.704 -0.9248  0.4098  0.0447
   64MOL0     H 8583   8.089  10.538   6.888 -2.1398 -0.0138  2.2778
   64MOL0     H 8584   8.025  10.709   6.904 -1.6749 -1.0950  1.0158
   64MOL0     H 8585   7.884  10.679   6.713  0.9496  0.0870  1.1773
   64MOL0     H 8586   7.975  10.526   6.681 -0.3442 -0.0723 -0.5827
   64MOL0     H 8587   7.740  10.468   6.764 -0.7123 -0.0852  1.4893
   64MOL0     H 8588   7.881  10.398   6.852 -0.8306  0.0855  3.6316
   64MOL0     H 8589   7.659  10.566   6.957  0.1632  3.5571  2.7948
   64MOL0     H 8590   7.779  10.677   6.930 -0.1603 -0.0137  0.0857
   64MOL0     H 8591   7.917  10.347   7.063 -0.7938  2.7166 -3.0496
   64MOL0     H 8592   8.033  10.266   7.282  1.2250 -0.1410  1.4650
   64MOL0     H 8593   8.068  10.395   7.384 -2.1858  1.4699  4.6974
   64MOL0     H 8594   7.838  10.208   7.387  0.0593 -1.1776  0.0580
   64MOL0     H 8595   7.837  10.359   7.494  3.0193  1.4220  1.4518
   64MOL0     H 8596   8.042  10.291   7.595 -2.3263  1.2477  1.7906
   64MOL0     H 8597   8.042  10.126   7.526 -0.4084 -1.9237  1.2042
   64MOL0     H 8598   7.969  10.139   7.758 -0.0391  0.8461 -0.0172
   64MOL0     H 8599   7.838  10.075   7.667  0.0681 -1.0560 -1.5190
   64MOL0     H 8600   7.873  10.117   7.948  0.1629 -0.1260  1.8854
   64MOL0     H 8601   7.744  10.143   8.250  0.3841  1.9275 -2.3085
   64MOL0     H 8602   7.689   9.980   8.201 -0.3052 -0.1901 -0.7902
   64MOL0     H 8603   7.844  10.033   8.145 -1.6243 -2.8216 -1.6121
   64MOL0     H 8604   7.453  10.052   8.479  0.3240 -0.6856 -1.6393
   64MOL0     H 8605   7.262   9.998   8.620  0.3321 -2.1794  1.5208
   64MOL0     H 8606   6.909   9.779   8.462  0.3562  1.5306 -0.7290
   64MOL0     H 8607   7.044   9.705   8.533 -0.6590  0.6171 -4.5196
   64MOL0     H 8608   6.873   9.660   8.697 -1.9288  1.1475  2.6767
   64MOL0     H 8609   6.957   9.786   8.772 -2.8151  3.3924  0.8201
   64MOL0     H 8610   6.794   9.951   8.688 -1.4476 -0.2814  0.9516
   64MOL0     H 8611   6.722   9.813   8.773 -0.7223  1.6336  0.3575
   64MOL0     H 8612   6.682   9.901   8.483 -0.2981  0.5759  1.7423
   64MOL0     H 8613   6.702   9.733   8.497  1.8489  0.7912  0.0865
   64MOL0     H 8614   6.519   9.841   8.707  1.3984  2.4567 -1.3611
   64MOL0     H 8615   6.542   9.681   8.634  2.6842  0.2999 -0.8762
   64MOL0     H 8616   6.408   9.929   8.521  2.7921  0.6616  0.0492
   64MOL0     H 8617   6.425   9.781   8.425 -1.0044 -0.0123  0.0036
   64MOL0     H 8618   6.267   9.801   8.683  2.7059  0.0406  0.6859
   64MOL0     H 8619   6.255   9.661   8.572  0.2573 -0.1263  0.6751
   64MOL0     H 8620   6.183   9.955   8.505  0.6785 -0.0659  1.0023
   64MOL0     H 8621   6.083   9.805   8.552 -0.0004  0.6202 -0.2087
   64MOL0     H 8622   7.029   9.901   8.285 -0.5989 -2.0164  2.3245
   64MOL0     H 8623   7.231   9.968   8.129 -0.1809 -2.1003  0.7494
   64MOL0     H 8624   7.430  10.343   7.963 -0.1127  1.2040  0.2937
   64MOL0     H 8625   7.584  10.386   7.771 -3.3351  0.8924  2.0001
   64MOL0     H 8626   8.700  10.952   6.415  2.4226 -0.3151 -3.7132
   64MOL0     H 8627   8.914  10.870   6.368  1.3679 -2.4214 -0.9137
   64MOL0     H 8628   9.150  10.461   6.393  0.8692  1.4297  2.4024
   64MOL0     H 8629   9.355  10.340   6.387  0.3634  2.2478  2.0705
   64MOL0     H 8630   9.545  10.236   6.198 -1.0317  1.3637  3.1900
   64MOL0     H 8631   9.587  10.338   6.060 -0.6113 -3.5827 -0.0565
   64MOL0     H 8632   9.760  10.183   6.117  0.7102 -2.4242  1.8825
   64MOL0     H 8633   9.763  10.224   6.286 -2.0190  3.2767  1.8784
   64MOL0     H 8634   9.850  10.472   6.195  5.6819  0.6924  0.9960
   64MOL0     H 8635   9.887  10.369   6.050  1.9392 -0.3225  0.8295
   64MOL0     H 8636  10.006  10.319   6.328  0.8713  0.3555  1.2837
   64MOL0     H 8637  10.082  10.416   6.196  0.8118  1.0494  5.3475
   64MOL0     H 8638  10.152  10.037   6.053 -1.6666 -1.8711  2.0533
   64MOL0     H 8639   9.516  10.644   6.133  0.6844 -0.9710  0.6853
   64MOL0     H 8640   9.293  10.746   6.108 -1.1889 -0.8602 -1.2616
   65MOL0     O 8641   6.476   7.471   0.269  0.5466  0.5421 -0.2120
   65MOL0     C 8642   6.357   7.419   0.269 -0.1280  0.0430  0.2322
   65MOL0     O 8643   6.322   7.303   0.337  0.1793 -0.2438  0.3601
   65MOL0     C 8644   6.393   7.258   0.439 -0.0843  0.2782 -0.2273
   65MOL0     C 8645   6.491   7.320   0.517 -0.4396  0.5822  0.1808
   65MOL0     C 8646   6.562   7.261   0.618 -0.4129 -0.2718 -0.7939
   65MOL0     C 8647   6.545   7.128   0.658  0.0635 -0.1967 -0.0058
   65MOL0     O 8648   6.619   7.067   0.760 -0.0886  0.3128  0.2559
   65MOL0     C 8649   6.737   7.137   0.799  0.4320  0.6486 -0.2572
   65MOL0     C 8650   6.807   7.052   0.908 -0.3003 -0.3504  0.5549
   65MOL0     C 8651   6.920   7.132   0.973  0.4061 -0.5729  0.4295
   65MOL0     C 8652   7.034   7.186   0.881 -0.2384 -0.1640  0.1269
   65MOL0     C 8653   7.151   7.091   0.882 -0.7089  1.0026 -0.0399
   65MOL0     C 8654   7.259   7.142   0.787  0.3145  0.1480  0.3607
   65MOL0     C 8655   7.388   7.062   0.821  1.1105 -0.4400  0.6321
   65MOL0     C 8656   7.398   6.908   0.778 -0.0350  0.1102  0.8836
   65MOL0     N 8657   7.538   6.873   0.767  0.5358  0.3039  0.8275
   65MOL0     C 8658   7.627   6.879   0.867 -0.1599 -0.8089  0.3797
   65MOL0     C 8659   7.728   6.801   0.830 -1.0991  0.2189  0.1645
   65MOL0     C 8660   7.857   6.790   0.908 -0.1569  0.1559  0.2645
   65MOL0     C 8661   7.981   6.829   0.825 -0.0371  1.4573  0.1862
   65MOL0     C 8662   8.110   6.814   0.893  0.0100  0.5374 -0.3257
   65MOL0     C 8663   8.231   6.846   0.798 -0.1517 -0.4335 -0.3703
   65MOL0     O 8664   8.246   6.735   0.710  0.0573  0.5359  0.3037
   65MOL0     C 8665   8.368   6.711   0.644  0.6235  0.6770 -0.3250
   65MOL0     C 8666   8.473   6.797   0.641  0.6315 -0.3860  0.7963
   65MOL0     C 8667   8.598   6.772   0.582  0.1876  0.3944  0.6350
   65MOL0     C 8668   8.703   6.872   0.593 -0.2024  0.2666 -0.1398
   65MOL0     C 8669   8.625   6.650   0.529  0.0137  0.0968  0.1120
   65MOL0     C 8670   8.747   6.616   0.459 -0.3089  0.6739  0.1964
   65MOL0     O 8671   8.859   6.655   0.501  0.2565 -0.8721  0.6151
   65MOL0     C 8672   8.979   6.641   0.436  0.4551  0.3091 -0.1204
   65MOL0     C 8673   8.994   6.604   0.303 -0.1801  0.0770 -0.9948
   65MOL0     C 8674   9.125   6.593   0.247  0.3834 -0.0814  0.2566
   65MOL0     C 8675   9.244   6.622   0.315  0.1347 -0.8055  0.9203
   65MOL0     O 8676   9.360   6.620   0.241  0.1331 -0.6608  0.4023
   65MOL0     C 8677   9.463   6.520   0.274 -0.2520 -0.1436  0.1118
   65MOL0     C 8678   9.430   6.399   0.197 -0.0680 -0.2202 -0.3737
   65MOL0     C 8679   9.544   6.298   0.203 -0.0294 -0.1818  0.2696
   65MOL0     C 8680   9.668   6.346   0.130 -0.4901 -0.2075 -0.4717
   65MOL0     C 8681   9.779   6.234   0.143 -0.6203 -0.0886  0.0414
   65MOL0     C 8682   9.921   6.254   0.071 -0.2470 -0.2803 -0.2372
   65MOL0     C 8683  10.003   6.129   0.120  0.1948  0.0338  0.2180
   65MOL0     C 8684  10.152   6.138   0.076  0.4975 -1.5251  0.7562
   65MOL0    Cl 8685  10.178   6.032  -0.053 -0.2222  0.1282  0.0619
   65MOL0     C 8686   9.229   6.662   0.448 -0.3535  0.3274 -0.3260
   65MOL0     C 8687   9.100   6.667   0.504 -0.7902  0.0777 -0.4791
   65MOL0     O 8688   8.729   6.533   0.373  0.0648 -0.3650  0.1937
   65MOL0     C 8689   8.517   6.558   0.532 -0.6301 -1.0509 -0.1007
   65MOL0     C 8690   8.391   6.592   0.589 -0.1164 -0.0440 -0.5250
   65MOL0     N 8691   7.699   6.751   0.699  0.6132 -0.2590 -0.5880
   65MOL0     N 8692   7.588   6.794   0.665  0.4510  0.4060  0.5095
   65MOL0     C 8693   6.434   7.065   0.586  0.1463 -0.0405  0.1958
   65MOL0     C 8694   6.362   7.128   0.482 -1.4611  0.6268 -0.3282
   65MOL0     C 8695   6.279   7.488   0.162  0.9253  1.0453  0.6588
   65MOL0     C 8696   6.268   7.629   0.153 -0.2176 -0.6593  0.4996
   65MOL0     C 8697   6.196   7.685   0.047  0.0898 -0.1051 -0.1647
   65MOL0     C 8698   6.133   7.610  -0.052  0.2129 -0.4040 -0.2337
   65MOL0     O 8699   6.066   7.663  -0.158 -0.3862 -0.7640 -0.6560
   65MOL0     C 8700   6.111   7.787  -0.220  0.1991  0.3604  1.1410
   65MOL0     C 8701   6.021   7.815  -0.340 -0.0862  0.0088 -0.8251
   65MOL0     C 8702   5.876   7.853  -0.289 -0.0035  0.3499  0.0940
   65MOL0     C 8703   5.779   7.791  -0.391  1.2225  0.3434  0.1402
   65MOL0     C 8704   5.775   7.878  -0.512  0.1491  0.0632  1.0983
   65MOL0     C 8705   5.762   7.940  -0.617 -0.5973  0.7211 -0.2250
   65MOL0     C 8706   6.133   7.476  -0.032 -0.1322  0.5446 -0.1633
   65MOL0     C 8707   6.212   7.417   0.066 -0.0951  0.0444 -0.0186
   65MOL0     H 8708   6.527   7.418   0.486 -0.4911  0.0450 -1.6906
   65MOL0     H 8709   6.640   7.317   0.667  1.0483 -2.0446 -0.9699
   65MOL0     H 8710   6.798   7.126   0.709  1.9150 -2.7898  0.9909
   65MOL0     H 8711   6.713   7.235   0.841 -1.9750 -0.8555  2.2484
   65MOL0     H 8712   6.735   7.008   0.978 -0.0293  0.2249  1.2107
   65MOL0     H 8713   6.856   6.966   0.862 -0.3164  1.2589 -2.7390
   65MOL0     H 8714   6.868   7.213   1.027  0.2027 -1.3245  1.3893
   65MOL0     H 8715   6.972   7.073   1.049  0.8037 -0.0500  0.5713
   65MOL0     H 8716   6.995   7.207   0.781  0.1262 -1.7269 -0.3709
   65MOL0     H 8717   7.070   7.285   0.913  0.3992  0.4307 -2.1814
   65MOL0     H 8718   7.201   7.095   0.979  1.1366 -3.4878 -0.5608
   65MOL0     H 8719   7.112   6.994   0.850 -2.9346  1.8013  0.0747
   65MOL0     H 8720   7.229   7.140   0.682  0.8825 -1.4997  0.2123
   65MOL0     H 8721   7.266   7.250   0.807 -2.8020  0.6615 -0.8155
   65MOL0     H 8722   7.466   7.118   0.768 -1.9244  1.7259 -1.9742
   65MOL0     H 8723   7.415   7.073   0.926  0.7249  3.9793  0.4703
   65MOL0     H 8724   7.353   6.897   0.679  2.0511 -1.6628  0.0717
   65MOL0     H 8725   7.350   6.845   0.853  0.8590 -0.6886  0.7949
   65MOL0     H 8726   7.626   6.931   0.963 -1.1518 -0.7671  0.3507
   65MOL0     H 8727   7.859   6.845   1.002  0.0621  3.2945 -1.4016
   65MOL0     H 8728   7.877   6.684   0.925  0.0429  0.1476 -0.0002
   65MOL0     H 8729   7.968   6.935   0.803 -2.5969  1.6355  2.0379
   65MOL0     H 8730   7.997   6.761   0.741  0.8291 -0.8219  2.1060
   65MOL0     H 8731   8.120   6.715   0.938 -0.6837  0.0570 -1.1993
   65MOL0     H 8732   8.095   6.891   0.969  0.0698  2.0960 -1.8116
   65MOL0     H 8733   8.316   6.867   0.864  0.9355 -0.5893 -1.6487
   65MOL0     H 8734   8.213   6.933   0.734 -0.4192 -1.0393 -1.1435
   65MOL0     H 8735   8.445   6.887   0.695  1.6139 -1.3077  2.9553
   65MOL0     H 8736   8.656   6.968   0.616 -1.6841 -0.7488  1.3863
   65MOL0     H 8737   8.785   6.839   0.658  0.9374  0.2091 -1.5465
   65MOL0     H 8738   8.754   6.878   0.497 -0.2423 -2.9238 -0.4802
   65MOL0     H 8739   8.913   6.582   0.233 -0.3561 -3.9159  0.2264
   65MOL0     H 8740   9.132   6.589   0.138 -2.9796 -0.4378 -0.0618
   65MOL0     H 8741   9.558   6.563   0.240 -0.6663 -0.7169 -1.8598
   65MOL0     H 8742   9.475   6.513   0.383 -0.2155  1.5344  0.2456
   65MOL0     H 8743   9.333   6.359   0.227  0.1316 -0.4769 -0.0615
   65MOL0     H 8744   9.404   6.436   0.097 -2.3408 -0.1583  0.1870
   65MOL0     H 8745   9.513   6.208   0.148  3.5111 -2.0078  0.9803
   65MOL0     H 8746   9.561   6.254   0.301 -1.7446  1.1760  1.2299
   65MOL0     H 8747   9.643   6.362   0.025  2.0832  0.1514 -1.1100
   65MOL0     H 8748   9.705   6.444   0.163 -1.2634  0.4356 -1.4570
   65MOL0     H 8749   9.735   6.139   0.112  0.2576  0.1957 -2.2755
   65MOL0     H 8750   9.810   6.223   0.247  0.7808 -3.4128 -0.5914
   65MOL0     H 8751   9.903   6.236  -0.036  1.9574  0.7011 -0.8291
   65MOL0     H 8752   9.966   6.346   0.109 -0.8411 -0.7601  1.7525
   65MOL0     H 8753   9.952   6.036   0.091 -1.7426  0.4679  2.0812
   65MOL0     H 8754  10.008   6.118   0.228 -2.6794  1.7649  0.6089
   65MOL0     H 8755  10.219   6.116   0.160  2.2855  0.9860  0.1055
   65MOL0     H 8756  10.171   6.242   0.049 -1.2182 -1.8241 -2.0121
   65MOL0     H 8757   9.306   6.669   0.523 -0.3680 -3.3539  0.2270
   65MOL0     H 8758   9.093   6.691   0.609  1.1359 -1.6887  0.1126
   65MOL0     H 8759   8.527   6.455   0.499 -3.0253 -1.8380  1.3406
   65MOL0     H 8760   8.326   6.507   0.575 -1.8789  0.9176  1.3555
   65MOL0     H 8761   6.396   6.972   0.628  0.3833 -1.6280 -2.8485
   65MOL0     H 8762   6.285   7.078   0.424  0.0641 -1.1664 -0.9198
   65MOL0     H 8763   6.306   7.691   0.234  1.0681  0.8508 -1.1891
   65MOL0     H 8764   6.181   7.792   0.050 -0.9541 -0.2429 -0.0932
   65MOL0     H 8765   6.112   7.874  -0.154  1.5766  0.8896  0.4491
   65MOL0     H 8766   6.216   7.777  -0.249  0.2496  1.1294  1.0360
   65MOL0     H 8767   6.028   7.731  -0.409 -2.6208 -1.2588  0.3385
   65MOL0     H 8768   6.062   7.903  -0.391  0.5257  0.0498 -0.2808
   65MOL0     H 8769   5.860   7.960  -0.279  4.0215  1.3266 -1.7571
   65MOL0     H 8770   5.858   7.810  -0.190  3.0144 -2.2585 -0.3165
   65MOL0     H 8771   5.680   7.798  -0.345  1.4968  3.2871  0.4593
   65MOL0     H 8772   5.786   7.685  -0.415  0.1620  0.2058  0.3937
   65MOL0     H 8773   5.753   7.985  -0.714  0.6494 -0.1865 -0.7824
   65MOL0     H 8774   6.071   7.409  -0.091  0.2796 -1.1631  1.2599
   65MOL0     H 8775   6.206   7.309   0.064 -2.9089  0.1113  0.4444
   66MOL0     O 8776   8.242   7.635   5.460 -0.3047 -0.8630 -0.2024
   66MOL0     C 8777   8.132   7.675   5.495 -0.7735  0.6902 -0.6708
   66MOL0     O 8778   8.037   7.602   5.570 -0.4007  1.0307  0.5897
   66MOL0     C 8779   8.071   7.478   5.623  0.0025  1.0687 -0.4282
   66MOL0     C 8780   8.172   7.390   5.589 -0.3041 -0.2017 -0.0884
   66MOL0     C 8781   8.210   7.274   5.655  0.4880 -0.1018  0.4811
   66MOL0     C 8782   8.115   7.238   5.755  0.7770  0.0076  0.1251
   66MOL0     O 8783   8.136   7.118   5.807 -1.2972 -0.5016  0.3270
   66MOL0     C 8784   8.064   7.071   5.928 -0.4378 -0.2748 -0.3077
   66MOL0     C 8785   8.117   7.128   6.057  0.5310 -0.4297 -0.2913
   66MOL0     C 8786   8.255   7.057   6.101  0.7786  0.2221 -0.1068
   66MOL0     C 8787   8.274   7.067   6.256 -0.0622 -0.5336  0.1360
   66MOL0     C 8788   8.411   7.019   6.305  0.2979  0.8882  0.1158
   66MOL0     C 8789   8.414   6.862   6.306  0.2719 -0.1018  0.6792
   66MOL0     C 8790   8.547   6.801   6.366  0.2529  0.7096 -0.6340
   66MOL0     C 8791   8.580   6.856   6.506 -0.4819  0.2510  0.0326
   66MOL0     N 8792   8.477   6.815   6.611 -0.1001 -0.4889  0.9350
   66MOL0     C 8793   8.390   6.709   6.606 -0.4180  0.1808  0.5580
   66MOL0     C 8794   8.306   6.713   6.715  0.5325 -1.0698  0.4309
   66MOL0     C 8795   8.183   6.622   6.731  0.4389 -0.0961  0.0576
   66MOL0     C 8796   8.124   6.619   6.878 -0.5790 -0.3452  0.7724
   66MOL0     C 8797   8.002   6.522   6.888  0.4346  1.0778  0.4137
   66MOL0     C 8798   7.965   6.512   7.040  0.1509 -0.1631 -0.3693
   66MOL0     O 8799   8.071   6.447   7.107 -0.2609  0.5058 -0.0222
   66MOL0     C 8800   8.088   6.314   7.129 -0.3561  0.1031  0.1959
   66MOL0     C 8801   8.023   6.220   7.056 -0.1874  0.3871 -0.3569
   66MOL0     C 8802   8.052   6.086   7.062 -0.8259 -0.4699 -0.7119
   66MOL0     C 8803   7.976   5.992   6.978 -0.3665  0.3880 -0.2199
   66MOL0     C 8804   8.153   6.045   7.160  0.0396  0.4053 -0.4751
   66MOL0     C 8805   8.172   5.906   7.201  0.0941  0.1681  0.1504
   66MOL0     O 8806   8.225   5.899   7.333  0.1306  0.4075  0.6598
   66MOL0     C 8807   8.271   5.780   7.375  0.3751 -0.6238 -0.8269
   66MOL0     C 8808   8.199   5.660   7.373  0.0555 -0.6098  0.7790
   66MOL0     C 8809   8.251   5.548   7.428  0.4910  0.3037  0.1461
   66MOL0     C 8810   8.375   5.547   7.497 -0.0145  0.2541 -0.1572
   66MOL0     O 8811   8.397   5.422   7.559 -0.0566 -0.3966  0.0425
   66MOL0     C 8812   8.526   5.399   7.632 -0.5650 -0.5464  0.0703
   66MOL0     C 8813   8.640   5.346   7.536  0.0060  0.1965  0.5833
   66MOL0     C 8814   8.769   5.331   7.618  1.1856  0.1446 -0.8622
   66MOL0     C 8815   8.841   5.469   7.630 -0.8313  0.0127  1.0790
   66MOL0     C 8816   8.974   5.448   7.691 -0.4287  0.4363  0.2587
   66MOL0     C 8817   9.063   5.571   7.660  0.2904  0.3737 -0.3840
   66MOL0     C 8818   9.052   5.680   7.774  0.2114  0.1102  0.3878
   66MOL0     C 8819   9.164   5.790   7.769 -0.5047  0.1098  0.1218
   66MOL0    Cl 8820   9.321   5.728   7.824  0.2420 -0.2842  0.3778
   66MOL0     C 8821   8.445   5.664   7.511  0.1681 -0.8736  0.1491
   66MOL0     C 8822   8.390   5.784   7.439  0.5463 -0.1956  0.0396
   66MOL0     O 8823   8.165   5.812   7.118 -0.3763  0.1431 -0.2434
   66MOL0     C 8824   8.218   6.143   7.240 -1.1791 -0.3037 -0.3781
   66MOL0     C 8825   8.190   6.273   7.220 -0.6093 -0.2135  0.1118
   66MOL0     N 8826   8.343   6.832   6.787  0.3377  0.6130  0.5026
   66MOL0     N 8827   8.444   6.893   6.720  1.1486  0.2089 -0.2561
   66MOL0     C 8828   8.006   7.324   5.792 -0.8414  0.0544  0.2511
   66MOL0     C 8829   7.984   7.435   5.720  0.5673  0.5752 -0.0345
   66MOL0     C 8830   8.083   7.810   5.465  0.2439  0.8467  0.6983
   66MOL0     C 8831   8.139   7.886   5.355 -0.1127 -0.0050  0.0922
   66MOL0     C 8832   8.081   8.011   5.325 -0.0309 -0.3043  0.0650
   66MOL0     C 8833   7.965   8.054   5.399 -0.7101  0.0735  0.0733
   66MOL0     O 8834   7.917   8.176   5.358 -0.2327  0.4815 -0.0731
   66MOL0     C 8835   7.773   8.207   5.375  0.2892  0.0941 -0.8436
   66MOL0     C 8836   7.732   8.312   5.280  0.4497  0.6943 -0.3458
   66MOL0     C 8837   7.767   8.282   5.133 -0.3245 -0.8359 -0.7188
   66MOL0     C 8838   7.739   8.410   5.061  0.1603 -0.9056  0.4756
   66MOL0     C 8839   7.594   8.448   5.056 -0.1435  0.2159  0.3318
   66MOL0     C 8840   7.483   8.492   5.064  1.1564  0.8779 -0.4172
   66MOL0     C 8841   7.915   7.985   5.509 -1.1496  0.1242 -0.4787
   66MOL0     C 8842   7.975   7.865   5.536 -0.0456 -0.3186 -0.5715
   66MOL0     H 8843   8.240   7.422   5.510  0.5029  1.0969  1.0894
   66MOL0     H 8844   8.269   7.201   5.599 -0.3012  1.8627 -3.2431
   66MOL0     H 8845   7.957   7.091   5.923 -0.9024 -1.2586  2.9588
   66MOL0     H 8846   8.062   6.961   5.934 -3.3653 -0.3009 -0.3657
   66MOL0     H 8847   8.127   7.236   6.055  1.2218 -0.5011 -2.0436
   66MOL0     H 8848   8.047   7.112   6.140  3.6691 -0.8445  2.4904
   66MOL0     H 8849   8.253   6.956   6.059  0.0452 -0.8530  2.3432
   66MOL0     H 8850   8.334   7.120   6.059  2.7709  0.1849  3.2289
   66MOL0     H 8851   8.266   7.167   6.300 -0.6718 -1.4716  2.3322
   66MOL0     H 8852   8.199   6.996   6.293  0.5226  0.3327  3.2595
   66MOL0     H 8853   8.487   7.058   6.237  1.5762 -0.7805  0.5197
   66MOL0     H 8854   8.434   7.051   6.407  4.4212  0.1307 -0.4200
   66MOL0     H 8855   8.335   6.831   6.374  1.1840 -1.1724  1.2671
   66MOL0     H 8856   8.397   6.841   6.200 -0.0446  4.9598 -0.5406
   66MOL0     H 8857   8.539   6.692   6.370  0.5408  0.6822 -0.7187
   66MOL0     H 8858   8.637   6.818   6.305  3.3635 -2.0351  2.7210
   66MOL0     H 8859   8.584   6.966   6.499  1.2530  0.3733  1.9982
   66MOL0     H 8860   8.682   6.827   6.532 -0.1369  1.0168 -0.4266
   66MOL0     H 8861   8.389   6.628   6.533 -1.2600  0.4152  0.2923
   66MOL0     H 8862   8.105   6.649   6.659  0.5542 -0.4594 -0.2046
   66MOL0     H 8863   8.206   6.519   6.702 -2.0039 -0.2422 -1.6959
   66MOL0     H 8864   8.088   6.717   6.909 -2.1970 -0.8306  0.4967
   66MOL0     H 8865   8.196   6.577   6.948 -2.0867 -4.3473  0.1768
   66MOL0     H 8866   8.021   6.416   6.865  0.9167  0.8908  1.6254
   66MOL0     H 8867   7.922   6.548   6.817 -0.3292  0.1736  0.9192
   66MOL0     H 8868   7.870   6.467   7.069  1.1889 -0.6568  2.6691
   66MOL0     H 8869   7.971   6.614   7.079  2.2842 -0.3078 -0.1793
   66MOL0     H 8870   7.944   6.238   6.983 -0.2341  3.4855  0.3272
   66MOL0     H 8871   8.032   5.934   6.905 -2.3318 -0.4498 -1.1461
   66MOL0     H 8872   7.925   5.915   7.037  0.2111 -1.8644 -2.4709
   66MOL0     H 8873   7.902   6.048   6.919  0.7121  1.9708 -0.1254
   66MOL0     H 8874   8.095   5.665   7.342  0.4698 -3.6236 -1.5633
   66MOL0     H 8875   8.183   5.463   7.434 -0.4250  1.0772  1.0760
   66MOL0     H 8876   8.555   5.485   7.692  1.4591  0.8117 -2.6279
   66MOL0     H 8877   8.516   5.320   7.707  0.1629 -0.5735  0.1463
   66MOL0     H 8878   8.612   5.247   7.499 -1.2982  0.2815  1.2477
   66MOL0     H 8879   8.647   5.415   7.452 -0.4075 -1.2321 -0.6678
   66MOL0     H 8880   8.825   5.251   7.569 -0.5730 -1.0072 -1.0984
   66MOL0     H 8881   8.752   5.315   7.725  0.4600  1.1003 -0.8230
   66MOL0     H 8882   8.853   5.507   7.528  1.0751 -0.3963  1.1090
   66MOL0     H 8883   8.776   5.538   7.684 -2.2688 -0.4593  0.0254
   66MOL0     H 8884   9.016   5.360   7.640 -1.5109  0.0757 -0.0357
   66MOL0     H 8885   8.964   5.426   7.798 -1.1581  0.2996  0.1690
   66MOL0     H 8886   9.167   5.537   7.661 -0.2997 -1.7510  2.3955
   66MOL0     H 8887   9.029   5.608   7.563 -0.4616  1.0433  0.1215
   66MOL0     H 8888   9.042   5.632   7.871 -1.5160 -4.3019 -1.6732
   66MOL0     H 8889   8.958   5.737   7.762  0.3567  0.1105 -0.8742
   66MOL0     H 8890   9.129   5.880   7.820 -2.5875  0.1300 -1.2093
   66MOL0     H 8891   9.190   5.814   7.665  0.2647  2.9802  0.8913
   66MOL0     H 8892   8.532   5.660   7.576  0.0713  3.5835  0.9236
   66MOL0     H 8893   8.439   5.880   7.439  0.5788 -0.2127 -0.1692
   66MOL0     H 8894   8.310   6.115   7.290 -0.0941 -1.2482 -2.7401
   66MOL0     H 8895   8.236   6.362   7.262 -2.5047  0.4345  0.9426
   66MOL0     H 8896   7.930   7.287   5.860 -2.4932  2.1989 -0.2963
   66MOL0     H 8897   7.893   7.492   5.735 -1.7048 -1.7455 -3.5505
   66MOL0     H 8898   8.224   7.849   5.299 -0.0835  0.2884 -0.0611
   66MOL0     H 8899   8.110   8.085   5.251 -0.4591  2.5616  2.5740
   66MOL0     H 8900   7.710   8.119   5.362 -1.5723  0.5711  3.2387
   66MOL0     H 8901   7.748   8.228   5.480 -2.7966 -0.4180 -1.3832
   66MOL0     H 8902   7.769   8.406   5.322 -1.1754  0.9804  0.5291
   66MOL0     H 8903   7.623   8.315   5.288  0.4431  1.7142 -0.6901
   66MOL0     H 8904   7.709   8.200   5.091 -2.3104  1.3619 -2.5995
   66MOL0     H 8905   7.874   8.261   5.134  0.1967  1.3693 -1.8632
   66MOL0     H 8906   7.763   8.400   4.954 -2.7854  1.5812 -0.5572
   66MOL0     H 8907   7.802   8.490   5.100 -0.9202 -1.5822  3.8723
   66MOL0     H 8908   7.382   8.526   5.065  0.9981  0.5842 -2.5218
   66MOL0     H 8909   7.829   8.005   5.572  1.0416 -2.2460  3.6745
   66MOL0     H 8910   7.923   7.815   5.617 -2.0933  0.7352 -1.1592
   67MOL0     O 8911   4.928   5.009   0.059  0.5586  0.2839 -0.0513
   67MOL0     C 8912   4.887   5.035   0.174  0.4995 -0.2614  0.2629
   67MOL0     O 8913   4.871   4.940   0.274 -0.5924  0.8831 -0.5869
   67MOL0     C 8914   4.903   4.804   0.255 -1.2387 -0.3301 -0.3814
   67MOL0     C 8915   4.857   4.737   0.145 -0.2383 -0.6726  0.5845
   67MOL0     C 8916   4.868   4.593   0.131 -0.5877  0.0131  0.6122
   67MOL0     C 8917   4.952   4.523   0.223  0.4791  0.3231 -0.0654
   67MOL0     O 8918   4.960   4.388   0.205 -0.5062 -0.3374 -0.2927
   67MOL0     C 8919   5.033   4.307   0.296 -0.4299 -0.5641  0.0919
   67MOL0     C 8920   4.969   4.272   0.431 -0.0843 -0.1826 -0.1863
   67MOL0     C 8921   4.823   4.216   0.418 -0.2330 -0.2598 -0.6120
   67MOL0     C 8922   4.773   4.170   0.551 -0.4467 -0.7536  0.1045
   67MOL0     C 8923   4.650   4.085   0.529 -0.3975 -0.3280 -0.5514
   67MOL0     C 8924   4.523   4.168   0.526 -0.1198 -0.3303 -0.0755
   67MOL0     C 8925   4.398   4.104   0.457  1.0942 -0.5636  0.6468
   67MOL0     C 8926   4.266   4.174   0.495  0.4260  0.2604 -0.1181
   67MOL0     N 8927   4.232   4.137   0.639 -0.1107  0.2543 -0.5798
   67MOL0     C 8928   4.171   4.021   0.679  0.0875  0.4933 -0.8440
   67MOL0     C 8929   4.158   4.043   0.813  0.2968 -0.4244  0.2962
   67MOL0     C 8930   4.075   3.965   0.920  0.1636  0.6537  0.5342
   67MOL0     C 8931   3.922   3.968   0.901 -0.4451  0.4857  0.6848
   67MOL0     C 8932   3.856   4.107   0.936  1.1067  0.0674  0.8434
   67MOL0     C 8933   3.863   4.143   1.087 -0.5564 -0.1443  0.7056
   67MOL0     O 8934   3.755   4.088   1.167  0.3602  0.1743  0.4154
   67MOL0     C 8935   3.756   4.108   1.305 -0.0232 -0.4510 -0.2240
   67MOL0     C 8936   3.846   4.194   1.388 -0.3810  0.8661  0.4367
   67MOL0     C 8937   3.843   4.193   1.527 -0.3694 -0.2054  0.1652
   67MOL0     C 8938   3.952   4.277   1.602  0.5561  0.3261 -0.2214
   67MOL0     C 8939   3.742   4.119   1.591 -0.2595 -0.5278  0.0622
   67MOL0     C 8940   3.717   4.107   1.734 -1.0660  0.5681  0.0919
   67MOL0     O 8941   3.629   4.013   1.783 -0.6269 -0.7571 -0.3148
   67MOL0     C 8942   3.631   3.979   1.918  0.1717 -0.1478 -0.1313
   67MOL0     C 8943   3.756   3.953   1.989  0.5566  0.4223  0.0983
   67MOL0     C 8944   3.755   3.896   2.112  0.4888  0.9111 -1.4802
   67MOL0     C 8945   3.629   3.861   2.173 -0.1208 -0.2509 -0.2766
   67MOL0     O 8946   3.640   3.816   2.299 -0.1986  0.3153 -0.4309
   67MOL0     C 8947   3.531   3.831   2.390  0.0193 -0.1571 -0.8554
   67MOL0     C 8948   3.581   3.833   2.535 -0.1830  0.2045 -0.4407
   67MOL0     C 8949   3.453   3.841   2.624 -0.1692  0.3858  0.3561
   67MOL0     C 8950   3.373   3.716   2.640  0.9657  1.1200  0.2666
   67MOL0     C 8951   3.440   3.605   2.719 -0.3710  0.7169 -0.0793
   67MOL0     C 8952   3.332   3.507   2.782  0.0098 -0.0948  1.1780
   67MOL0     C 8953   3.254   3.423   2.685 -0.4963  0.1716  0.2347
   67MOL0     C 8954   3.184   3.302   2.751 -0.3965  0.5870 -0.2316
   67MOL0    Cl 8955   3.116   3.204   2.607  0.0830 -0.0361 -0.1892
   67MOL0     C 8956   3.512   3.902   2.111  0.7638 -0.0408  0.1664
   67MOL0     C 8957   3.516   3.957   1.985 -0.2569 -0.1175 -0.2120
   67MOL0     O 8958   3.783   4.185   1.804  0.0317 -0.1264 -0.6770
   67MOL0     C 8959   3.652   4.040   1.507 -0.6881  0.1626 -1.1731
   67MOL0     C 8960   3.667   4.025   1.375 -0.2139  0.3536  0.4037
   67MOL0     N 8961   4.221   4.157   0.849  1.3228 -0.9734 -0.5769
   67MOL0     N 8962   4.263   4.215   0.745  0.6153 -0.3675 -0.1653
   67MOL0     C 8963   5.013   4.599   0.322 -0.6026 -0.6172  0.1345
   67MOL0     C 8964   4.982   4.731   0.345 -0.5404  0.8233 -0.5742
   67MOL0     C 8965   4.861   5.173   0.203 -0.6124  0.2929  0.1181
   67MOL0     C 8966   4.910   5.280   0.125  0.3061 -0.5772 -0.0984
   67MOL0     C 8967   4.868   5.414   0.144 -0.4015 -0.8880 -0.8791
   67MOL0     C 8968   4.796   5.444   0.264 -0.3525 -0.7283  0.3344
   67MOL0     O 8969   4.762   5.567   0.315 -0.4771 -0.2068 -0.1445
   67MOL0     C 8970   4.820   5.688   0.254  0.8670  0.7994  0.5260
   67MOL0     C 8971   4.761   5.817   0.323 -0.5486 -0.2169  0.2188
   67MOL0     C 8972   4.753   5.810   0.481  0.2313 -0.1772  0.2414
   67MOL0     C 8973   4.670   5.930   0.529  0.0023  0.1444 -0.1685
   67MOL0     C 8974   4.611   5.903   0.654 -0.5243  0.2702 -0.7361
   67MOL0     C 8975   4.571   5.879   0.762 -0.0358  0.6732 -0.7297
   67MOL0     C 8976   4.773   5.335   0.353 -0.7146  0.0083 -0.5985
   67MOL0     C 8977   4.790   5.203   0.318  0.1666 -0.5154 -0.7075
   67MOL0     H 8978   4.805   4.797   0.071  3.5619  0.8688 -1.1491
   67MOL0     H 8979   4.831   4.532   0.049  2.9849  1.1765 -2.0911
   67MOL0     H 8980   5.025   4.210   0.245 -1.2549  0.2313 -1.3474
   67MOL0     H 8981   5.133   4.345   0.317 -1.0316 -0.4494  3.2553
   67MOL0     H 8982   5.030   4.200   0.485 -1.7497 -2.3453 -1.0522
   67MOL0     H 8983   4.970   4.370   0.481  3.0292  0.4003 -1.1552
   67MOL0     H 8984   4.754   4.290   0.377  2.7341  3.1207  0.0611
   67MOL0     H 8985   4.831   4.136   0.344 -0.7533 -1.5543  0.6768
   67MOL0     H 8986   4.852   4.107   0.593 -1.3213 -1.6575  0.4292
   67MOL0     H 8987   4.761   4.245   0.630  2.1097  0.3374 -0.4272
   67MOL0     H 8988   4.663   4.033   0.433  2.8609 -1.5272  0.3891
   67MOL0     H 8989   4.644   4.003   0.602 -0.8296 -0.2490 -0.4979
   67MOL0     H 8990   4.503   4.197   0.629  1.3235 -3.6149  1.2541
   67MOL0     H 8991   4.533   4.249   0.452 -2.9313 -0.2286 -0.4596
   67MOL0     H 8992   4.411   4.093   0.349 -0.1495 -1.3044  0.5513
   67MOL0     H 8993   4.386   4.001   0.490  3.3989 -0.6067  1.4971
   67MOL0     H 8994   4.178   4.140   0.440  0.3360  1.5226 -0.8057
   67MOL0     H 8995   4.268   4.281   0.471 -1.2676  0.7565  1.6639
   67MOL0     H 8996   4.144   3.932   0.624  1.9896 -0.5431 -0.1983
   67MOL0     H 8997   4.116   3.863   0.917  1.5432  1.1074  2.3110
   67MOL0     H 8998   4.114   3.991   1.019  1.5341  0.9637 -0.0636
   67MOL0     H 8999   3.876   3.890   0.961 -0.2784  0.1465  0.3725
   67MOL0     H 9000   3.897   3.952   0.796  2.0367  1.2298 -0.0929
   67MOL0     H 9001   3.751   4.094   0.908  0.9586  1.0905  0.8685
   67MOL0     H 9002   3.905   4.192   0.888  0.0894  0.8821  1.2265
   67MOL0     H 9003   3.844   4.251   1.087 -0.9768 -0.0235 -3.7590
   67MOL0     H 9004   3.960   4.111   1.125  0.4170  1.0364 -0.6232
   67MOL0     H 9005   3.925   4.237   1.328  1.9671 -3.3927  0.0452
   67MOL0     H 9006   4.021   4.319   1.529 -0.4193  0.5659 -1.0325
   67MOL0     H 9007   3.903   4.360   1.655 -0.3379  1.0389 -2.0557
   67MOL0     H 9008   3.998   4.214   1.678  1.5152  3.0939  1.6598
   67MOL0     H 9009   3.850   3.980   1.944  0.6371  0.9964  0.5965
   67MOL0     H 9010   3.847   3.865   2.160 -1.0756  1.8906  2.6541
   67MOL0     H 9011   3.474   3.924   2.382 -1.7513 -1.0611  0.4783
   67MOL0     H 9012   3.456   3.757   2.360 -0.3675  0.8597 -2.5575
   67MOL0     H 9013   3.643   3.748   2.563  0.8133  1.5080  1.4887
   67MOL0     H 9014   3.636   3.925   2.556  0.1008 -0.3439  1.3542
   67MOL0     H 9015   3.382   3.911   2.578  0.5037  2.0575  1.7331
   67MOL0     H 9016   3.479   3.882   2.722  1.1974  2.3023 -0.7414
   67MOL0     H 9017   3.288   3.745   2.703  1.4332 -0.3606  1.6439
   67MOL0     H 9018   3.352   3.674   2.542  1.6984 -0.4983  0.7824
   67MOL0     H 9019   3.509   3.644   2.795  1.5817 -1.1480 -0.7639
   67MOL0     H 9020   3.513   3.550   2.659 -0.2493 -1.6236  2.0492
   67MOL0     H 9021   3.382   3.427   2.839  1.1444  0.7691  1.4246
   67MOL0     H 9022   3.259   3.560   2.844  1.5104  2.4906  0.8476
   67MOL0     H 9023   3.327   3.388   2.611  0.4934  1.5984  0.5028
   67MOL0     H 9024   3.179   3.485   2.636  0.1368  1.2304  0.5821
   67MOL0     H 9025   3.107   3.350   2.813  0.9187 -0.0783  2.0432
   67MOL0     H 9026   3.248   3.249   2.822  0.5413  0.6230 -1.0366
   67MOL0     H 9027   3.416   3.880   2.156  1.5172 -1.6127  1.0878
   67MOL0     H 9028   3.428   3.989   1.931 -1.0946  0.0472  1.1823
   67MOL0     H 9029   3.574   3.980   1.553  0.2298  1.3684  2.2548
   67MOL0     H 9030   3.607   3.951   1.322 -0.6850  0.1498  1.2006
   67MOL0     H 9031   5.088   4.555   0.387  0.9919 -0.5762 -1.5931
   67MOL0     H 9032   5.022   4.766   0.440 -0.6431  1.0697 -0.6203
   67MOL0     H 9033   4.970   5.249   0.041 -0.5654  0.5678 -1.1675
   67MOL0     H 9034   4.887   5.494   0.073 -2.1737 -0.5946 -1.0626
   67MOL0     H 9035   4.928   5.699   0.244  0.7513  0.4451 -1.6980
   67MOL0     H 9036   4.797   5.680   0.147  1.2477  0.6551  0.4538
   67MOL0     H 9037   4.658   5.832   0.290 -1.0345  0.6628  2.0188
   67MOL0     H 9038   4.821   5.898   0.279 -1.6197  0.3241 -0.2903
   67MOL0     H 9039   4.855   5.800   0.519  0.8997 -0.4820 -1.5298
   67MOL0     H 9040   4.688   5.725   0.500 -2.0938  0.7856 -2.6130
   67MOL0     H 9041   4.580   5.952   0.469 -1.4815  0.0052  1.8978
   67MOL0     H 9042   4.733   6.019   0.536  1.1691 -0.6932  0.0724
   67MOL0     H 9043   4.524   5.856   0.856  3.1665  2.1822  1.4470
   67MOL0     H 9044   4.731   5.358   0.450  1.7406  1.4473  0.2060
   67MOL0     H 9045   4.749   5.128   0.384 -1.9360  0.9763 -0.2174
   68MOL0     O 9046   9.735   1.072   8.470 -1.5903 -0.2521 -0.2992
   68MOL0     C 9047   9.701   1.151   8.558  0.2467  0.0304  0.0567
   68MOL0     O 9048   9.782   1.226   8.631  0.2072 -0.0386 -0.5090
   68MOL0     C 9049   9.912   1.251   8.590  0.7701  0.7899  0.0610
   68MOL0     C 9050   9.948   1.304   8.464  1.4136 -0.1439 -0.8218
   68MOL0     C 9051  10.080   1.314   8.417 -0.7863 -0.3917 -1.3336
   68MOL0     C 9052  10.182   1.273   8.501  0.7829 -0.4206  0.3800
   68MOL0     O 9053  10.304   1.279   8.445 -0.3442  0.5417 -0.5114
   68MOL0     C 9054  10.425   1.251   8.515 -0.1639  0.0567  0.0083
   68MOL0     C 9055  10.557   1.238   8.440 -0.5869  0.4294  0.2429
   68MOL0     C 9056  10.686   1.242   8.526  0.0683  0.0414  0.4220
   68MOL0     C 9057  10.816   1.266   8.448  0.1992  0.0714 -0.4440
   68MOL0     C 9058  10.841   1.415   8.434 -0.0901 -0.5041  0.6270
   68MOL0     C 9059  10.966   1.448   8.351 -0.4828  1.1385  0.6406
   68MOL0     C 9060  10.977   1.591   8.305  0.5860 -0.2930  0.1358
   68MOL0     C 9061  10.995   1.701   8.417 -1.0418  0.8722  0.0829
   68MOL0     N 9062  11.140   1.730   8.436 -0.3807  1.4530 -0.1743
   68MOL0     C 9063  11.220   1.827   8.380  0.3717 -0.1459  0.7119
   68MOL0     C 9064  11.345   1.789   8.431 -0.0223  0.3310 -0.6614
   68MOL0     C 9065  11.477   1.851   8.419  0.1563  0.0734 -0.2691
   68MOL0     C 9066  11.546   1.795   8.287 -0.6652  0.1584 -0.2937
   68MOL0     C 9067  11.676   1.878   8.263 -0.7442 -0.5922  0.3673
   68MOL0     C 9068  11.698   1.896   8.114  1.0589  0.1610 -0.7937
   68MOL0     O 9069  11.821   1.953   8.086 -0.2281  0.3292 -0.1627
   68MOL0     C 9070  11.930   1.870   8.097  0.0274  0.4116 -0.1972
   68MOL0     C 9071  11.950   1.761   8.003 -0.4742  0.2836 -0.9094
   68MOL0     C 9072  12.069   1.690   8.006  0.9859  0.4665 -0.1014
   68MOL0     C 9073  12.066   1.565   7.923  0.6783 -0.4631 -0.0323
   68MOL0     C 9074  12.168   1.720   8.095 -0.4791 -0.2729 -0.4532
   68MOL0     C 9075  12.306   1.666   8.083  0.5405 -0.1085 -0.0664
   68MOL0     O 9076  12.356   1.645   8.202 -0.1725 -0.3623  0.2785
   68MOL0     C 9077  12.489   1.626   8.231 -0.0963 -0.7349  0.3694
   68MOL0     C 9078  12.593   1.652   8.139 -0.7433  0.5604  1.1025
   68MOL0     C 9079  12.724   1.620   8.163  0.1848  0.1174  0.4538
   68MOL0     C 9080  12.762   1.548   8.275  0.2612 -0.7704 -0.5186
   68MOL0     O 9081  12.885   1.503   8.307 -0.5210 -0.3762 -0.1656
   68MOL0     C 9082  12.993   1.564   8.241  0.3305  0.6396  0.5791
   68MOL0     C 9083  13.124   1.515   8.305 -0.3835  0.5642  0.6014
   68MOL0     C 9084  13.243   1.566   8.219  0.0275  0.0297 -0.4401
   68MOL0     C 9085  13.367   1.540   8.312  0.0989  1.1859  0.4429
   68MOL0     C 9086  13.481   1.599   8.246 -1.3321 -0.9593  0.0314
   68MOL0     C 9087  13.575   1.507   8.180 -0.2762 -0.8836 -0.4901
   68MOL0     C 9088  13.697   1.580   8.117 -0.5615  0.3032  0.9763
   68MOL0     C 9089  13.808   1.488   8.065 -1.0850  0.5764  0.8449
   68MOL0    Cl 9090  13.895   1.418   8.208  0.7139 -0.4595 -0.2486
   68MOL0     C 9091  12.661   1.523   8.373 -0.1110 -0.3860 -0.0107
   68MOL0     C 9092  12.530   1.565   8.349 -1.1855 -0.4221  0.2864
   68MOL0     O 9093  12.354   1.637   7.967  0.2850 -0.3947  0.1798
   68MOL0     C 9094  12.145   1.813   8.203  0.1737 -0.0655  0.5050
   68MOL0     C 9095  12.020   1.883   8.204 -1.0259 -0.4809  0.3657
   68MOL0     N 9096  11.339   1.675   8.499  0.3236  0.6594  0.0182
   68MOL0     N 9097  11.221   1.638   8.507 -0.3470 -0.0659  0.1537
   68MOL0     C 9098  10.146   1.222   8.628  0.0063 -1.2948  0.3784
   68MOL0     C 9099  10.016   1.218   8.673  0.6436 -0.4283 -1.0695
   68MOL0     C 9100   9.563   1.132   8.610  0.0829  0.6049 -1.0648
   68MOL0     C 9101   9.524   1.163   8.737 -0.2089 -0.2750 -0.7383
   68MOL0     C 9102   9.410   1.121   8.796  0.1829  0.5238  1.0379
   68MOL0     C 9103   9.321   1.040   8.717  0.8635 -0.9121  0.5262
   68MOL0     O 9104   9.196   0.999   8.756  0.4720 -0.0933  0.1466
   68MOL0     C 9105   9.147   0.988   8.895  0.4228  0.1813  0.0485
   68MOL0     C 9106   9.155   1.105   8.991  0.8751 -0.3259  0.0657
   68MOL0     C 9107   9.023   1.157   9.057  0.3420 -0.3697 -0.0098
   68MOL0     C 9108   9.032   1.140   9.207 -0.7201 -0.2563  0.5186
   68MOL0     C 9109   9.142   1.208   9.262  0.9448 -0.1142 -0.4280
   68MOL0     C 9110   9.238   1.267   9.309 -0.0561 -0.6085 -0.5097
   68MOL0     C 9111   9.353   1.021   8.578  0.6743  1.0302  0.1586
   68MOL0     C 9112   9.472   1.068   8.527  1.1891  0.2617  0.1602
   68MOL0     H 9113   9.869   1.346   8.402  0.6742 -0.7131 -0.2805
   68MOL0     H 9114  10.103   1.335   8.314 -1.7018 -0.8762 -1.6514
   68MOL0     H 9115  10.445   1.325   8.592  2.8498  0.5512 -1.1443
   68MOL0     H 9116  10.414   1.153   8.564  0.6027 -1.2832 -2.3486
   68MOL0     H 9117  10.545   1.138   8.398 -6.9347 -0.3691  2.8419
   68MOL0     H 9118  10.554   1.316   8.362  0.1079  1.9309  1.6539
   68MOL0     H 9119  10.675   1.309   8.612  2.0730  0.4661  0.4020
   68MOL0     H 9120  10.708   1.150   8.582  1.5653  0.2246  0.1717
   68MOL0     H 9121  10.902   1.226   8.502 -0.1202  0.7077  0.5795
   68MOL0     H 9122  10.809   1.216   8.351 -0.6188  2.2296 -1.5687
   68MOL0     H 9123  10.748   1.459   8.396  1.0873  0.6801 -0.9689
   68MOL0     H 9124  10.845   1.464   8.532  0.1637 -1.4455  1.1081
   68MOL0     H 9125  11.059   1.418   8.400 -0.1276  0.2904 -0.5037
   68MOL0     H 9126  10.956   1.385   8.262  2.1195  0.5158  0.7054
   68MOL0     H 9127  11.063   1.602   8.238 -1.2275 -3.2478 -3.0422
   68MOL0     H 9128  10.887   1.613   8.248  1.7823  2.7055 -0.7733
   68MOL0     H 9129  10.954   1.667   8.513  0.4095 -1.4653 -0.0461
   68MOL0     H 9130  10.949   1.794   8.383  0.1875  2.0251  1.4374
   68MOL0     H 9131  11.188   1.907   8.314 -0.6192 -2.1863 -1.4333
   68MOL0     H 9132  11.473   1.959   8.435  2.7928  0.1035  0.5755
   68MOL0     H 9133  11.548   1.827   8.498  1.2716  1.1565 -0.8994
   68MOL0     H 9134  11.485   1.803   8.196  0.6872 -0.5414 -1.2928
   68MOL0     H 9135  11.558   1.688   8.307  0.5236  0.2942 -0.2338
   68MOL0     H 9136  11.761   1.819   8.300 -2.4705 -2.3770  1.6789
   68MOL0     H 9137  11.684   1.981   8.298 -0.7515 -0.5532  0.2542
   68MOL0     H 9138  11.629   1.972   8.076 -1.5006 -0.8933  1.4208
   68MOL0     H 9139  11.677   1.800   8.065 -0.4837 -0.0789  0.2385
   68MOL0     H 9140  11.871   1.752   7.929 -0.7093 -0.2590 -0.5915
   68MOL0     H 9141  12.104   1.473   7.968  0.6884  0.5834  2.2727
   68MOL0     H 9142  11.968   1.546   7.877  0.8314  2.0224 -1.5604
   68MOL0     H 9143  12.132   1.583   7.838 -1.0511  2.1978 -0.9115
   68MOL0     H 9144  12.560   1.712   8.055 -1.0248  0.8985  1.4506
   68MOL0     H 9145  12.805   1.649   8.097  0.2717  0.7006  0.8062
   68MOL0     H 9146  13.002   1.523   8.139 -1.7894  1.5113 -0.0124
   68MOL0     H 9147  12.987   1.673   8.235 -2.8053  0.4676 -2.9877
   68MOL0     H 9148  13.130   1.569   8.400  1.1281  1.7610 -0.1146
   68MOL0     H 9149  13.131   1.407   8.313  2.7112  0.6601  0.3398
   68MOL0     H 9150  13.233   1.671   8.192 -1.5081 -1.2171 -5.8572
   68MOL0     H 9151  13.242   1.510   8.125 -3.2313 -0.7094 -0.0954
   68MOL0     H 9152  13.365   1.566   8.418 -0.0889 -2.6654  1.5212
   68MOL0     H 9153  13.382   1.433   8.325 -4.4022  0.1030 -1.3538
   68MOL0     H 9154  13.540   1.646   8.326 -1.9560 -0.6897  0.3414
   68MOL0     H 9155  13.460   1.677   8.173  0.3611  0.2081  0.7137
   68MOL0     H 9156  13.622   1.458   8.265 -1.4847 -1.7653 -0.2913
   68MOL0     H 9157  13.526   1.427   8.122 -0.1111 -1.5261  0.2388
   68MOL0     H 9158  13.738   1.663   8.175 -2.5829  3.1014 -1.2836
   68MOL0     H 9159  13.659   1.632   8.028 -0.2867  2.7116  2.2011
   68MOL0     H 9160  13.886   1.538   8.007 -0.3231 -2.6550 -1.1655
   68MOL0     H 9161  13.773   1.408   7.999  0.1530  1.0200 -0.4063
   68MOL0     H 9162  12.698   1.468   8.459 -0.2454  0.9434  0.9067
   68MOL0     H 9163  12.465   1.542   8.432  2.4825 -0.9161  3.3291
   68MOL0     H 9164  12.214   1.837   8.283 -2.5977  1.5046  2.6007
   68MOL0     H 9165  12.001   1.947   8.289  4.0054 -0.5708  1.9024
   68MOL0     H 9166  10.225   1.187   8.693  0.6570  1.1060  0.9840
   68MOL0     H 9167   9.974   1.176   8.764 -1.7173  0.1942 -1.7788
   68MOL0     H 9168   9.591   1.198   8.815 -1.8663 -0.4513  0.8448
   68MOL0     H 9169   9.391   1.133   8.902  0.9619 -2.4762  1.6041
   68MOL0     H 9170   9.043   0.955   8.887  0.6853 -0.2566 -2.0725
   68MOL0     H 9171   9.204   0.913   8.949 -1.6391 -1.8821 -0.4632
   68MOL0     H 9172   9.176   1.196   8.933 -0.6902 -0.0856 -0.1615
   68MOL0     H 9173   9.241   1.093   9.057  1.0207  0.1507 -0.0324
   68MOL0     H 9174   8.929   1.108   9.031 -0.6877  1.8045 -0.6840
   68MOL0     H 9175   9.004   1.263   9.037 -2.4593 -0.8618 -0.4073
   68MOL0     H 9176   9.042   1.032   9.223 -0.0081 -0.5156 -1.3576
   68MOL0     H 9177   8.939   1.177   9.252  0.7200  1.7880  2.0231
   68MOL0     H 9178   9.324   1.321   9.345  1.0126 -0.7500 -2.6965
   68MOL0     H 9179   9.275   0.980   8.515  0.6078  3.6653 -1.6416
   68MOL0     H 9180   9.496   1.057   8.421 -0.1969  0.3002 -0.1902
   69MOL0     O 9181   3.400   4.405   2.850 -0.3603  0.5482  0.4470
   69MOL0     C 9182   3.468   4.378   2.744  0.0397  0.6339 -0.1747
   69MOL0     O 9183   3.475   4.254   2.680 -0.3676 -1.2971 -0.0230
   69MOL0     C 9184   3.374   4.172   2.724 -0.1579 -0.6860 -0.6059
   69MOL0     C 9185   3.386   4.102   2.845 -0.1647  0.0074 -0.1176
   69MOL0     C 9186   3.295   4.011   2.888 -0.1932 -0.2476 -0.7539
   69MOL0     C 9187   3.178   3.998   2.809 -0.4510 -0.4215 -0.0596
   69MOL0     O 9188   3.070   3.929   2.862 -1.1679  0.4661 -0.1407
   69MOL0     C 9189   2.997   4.021   2.938 -0.3341  0.1564  0.1678
   69MOL0     C 9190   2.866   3.945   2.974 -0.0036 -0.0246  0.0656
   69MOL0     C 9191   2.760   4.039   3.049  0.4423  0.1335 -0.9623
   69MOL0     C 9192   2.661   3.958   3.138  0.6155 -0.3573  1.3091
   69MOL0     C 9193   2.571   3.862   3.076 -0.9109 -0.5306 -0.1128
   69MOL0     C 9194   2.488   3.796   3.192 -0.6454  0.2969  0.0654
   69MOL0     C 9195   2.405   3.684   3.138 -0.1250  0.1679  1.4262
   69MOL0     C 9196   2.500   3.563   3.122 -0.1487  1.0342  0.1288
   69MOL0     N 9197   2.547   3.504   3.240  0.2214  0.6992 -0.1281
   69MOL0     C 9198   2.487   3.412   3.324 -0.5410 -0.0571  0.3036
   69MOL0     C 9199   2.576   3.377   3.420 -0.1088  0.3821 -0.9454
   69MOL0     C 9200   2.557   3.274   3.535  0.1432  0.1433 -0.2765
   69MOL0     C 9201   2.553   3.122   3.495  0.2619 -0.3561 -0.3654
   69MOL0     C 9202   2.484   3.033   3.594 -0.0191 -0.8593 -0.1460
   69MOL0     C 9203   2.452   2.896   3.518 -0.1910 -0.4569 -0.5968
   69MOL0     O 9204   2.568   2.812   3.484 -0.2694 -0.0800 -0.0234
   69MOL0     C 9205   2.546   2.713   3.389 -0.5492 -0.5089 -0.4503
   69MOL0     C 9206   2.424   2.649   3.372  0.5092 -0.1303 -0.7224
   69MOL0     C 9207   2.403   2.526   3.292 -0.1313  0.6430  1.0626
   69MOL0     C 9208   2.272   2.451   3.298 -1.7029 -0.1623 -0.5099
   69MOL0     C 9209   2.512   2.482   3.217 -1.2141  0.2837 -0.3353
   69MOL0     C 9210   2.506   2.373   3.119  0.1414  0.2364  0.2690
   69MOL0     O 9211   2.388   2.349   3.048  0.6282 -0.2702 -0.3026
   69MOL0     C 9212   2.374   2.249   2.952  0.6165 -0.1681  0.1079
   69MOL0     C 9213   2.322   2.279   2.828  0.4719 -0.0627 -0.2691
   69MOL0     C 9214   2.318   2.184   2.721 -0.1465 -0.0917 -1.5483
   69MOL0     C 9215   2.364   2.054   2.732 -1.2423 -0.5267 -0.2782
   69MOL0     O 9216   2.355   1.983   2.618  0.4074 -0.1961  0.5134
   69MOL0     C 9217   2.242   1.891   2.602  0.6030 -0.0634 -0.6304
   69MOL0     C 9218   2.289   1.747   2.570  0.8890 -0.1355  0.0127
   69MOL0     C 9219   2.406   1.699   2.666  0.0959 -1.1653  0.0171
   69MOL0     C 9220   2.458   1.562   2.637  0.6871  0.2966  0.3282
   69MOL0     C 9221   2.559   1.513   2.743  0.8780  0.5908  0.5117
   69MOL0     C 9222   2.618   1.377   2.725  0.9938  0.9525 -0.3152
   69MOL0     C 9223   2.706   1.343   2.846  0.2467 -0.3143 -0.2651
   69MOL0     C 9224   2.788   1.207   2.842 -0.2708 -0.4297 -0.1245
   69MOL0    Cl 9225   2.876   1.180   2.988 -0.3293  0.4501 -0.4686
   69MOL0     C 9226   2.424   2.020   2.855 -0.5682  0.1594  0.3242
   69MOL0     C 9227   2.420   2.113   2.964  0.7837  0.3407 -1.3529
   69MOL0     O 9228   2.608   2.302   3.108 -0.5211 -0.4597 -0.3448
   69MOL0     C 9229   2.644   2.537   3.240  0.2531  1.0355  0.4342
   69MOL0     C 9230   2.656   2.652   3.322  0.2796 -0.0998  1.2961
   69MOL0     N 9231   2.691   3.458   3.398 -0.0225 -0.4027 -0.2608
   69MOL0     N 9232   2.674   3.533   3.293  0.6158 -0.1688 -0.5242
   69MOL0     C 9233   3.168   4.063   2.686 -1.3010  0.4324  0.5300
   69MOL0     C 9234   3.268   4.155   2.644  0.7601  0.8910 -0.9939
   69MOL0     C 9235   3.534   4.492   2.693 -0.4733 -0.0798 -0.4584
   69MOL0     C 9236   3.550   4.494   2.550  0.1536  0.1960  0.2772
   69MOL0     C 9237   3.621   4.600   2.497 -0.2984 -0.2383 -0.1021
   69MOL0     C 9238   3.680   4.693   2.576  0.6953 -0.1719  0.8133
   69MOL0     O 9239   3.769   4.774   2.512  0.4417 -0.8423  0.4151
   69MOL0     C 9240   3.904   4.727   2.505 -0.2097 -0.2397  0.6306
   69MOL0     C 9241   3.961   4.755   2.364  0.2390  0.0214  0.0746
   69MOL0     C 9242   3.960   4.902   2.305 -0.3538  0.7183 -0.4146
   69MOL0     C 9243   4.036   4.999   2.404  0.3319 -1.1426 -1.1244
   69MOL0     C 9244   4.035   5.139   2.361  0.1927  0.7625 -0.5963
   69MOL0     C 9245   4.060   5.251   2.319  0.1670  0.6860  0.5890
   69MOL0     C 9246   3.646   4.703   2.712 -0.2147  0.4661 -1.2368
   69MOL0     C 9247   3.572   4.605   2.774  0.0895  0.1593 -0.3042
   69MOL0     H 9248   3.476   4.121   2.902  1.2825 -0.2481 -2.1958
   69MOL0     H 9249   3.300   3.979   2.992  0.9604  0.0724 -0.6926
   69MOL0     H 9250   3.055   4.036   3.029 -0.2974 -2.4718  0.6620
   69MOL0     H 9251   2.968   4.113   2.886 -0.1717 -0.6344 -1.3882
   69MOL0     H 9252   2.829   3.895   2.884  2.2870  0.5443 -1.2814
   69MOL0     H 9253   2.896   3.862   3.040  0.2236 -0.5123 -0.6405
   69MOL0     H 9254   2.812   4.112   3.113  0.6713 -1.1862  0.4202
   69MOL0     H 9255   2.706   4.099   2.975 -3.1943  0.1755  1.4887
   69MOL0     H 9256   2.712   3.906   3.220  0.5508 -0.7295  1.1192
   69MOL0     H 9257   2.592   4.021   3.194  0.7085  0.7831  0.1836
   69MOL0     H 9258   2.514   3.926   3.008  0.7717  2.8080  1.3214
   69MOL0     H 9259   2.629   3.788   3.020 -1.5940 -0.7920 -0.4791
   69MOL0     H 9260   2.563   3.759   3.263 -0.7292  0.2403  0.1253
   69MOL0     H 9261   2.431   3.876   3.241  1.4808 -0.0100  3.4001
   69MOL0     H 9262   2.344   3.635   3.215 -1.4204 -0.0108  0.3167
   69MOL0     H 9263   2.360   3.723   3.046  0.6730  1.2880  1.4783
   69MOL0     H 9264   2.586   3.577   3.056  0.2986 -3.2843 -0.5062
   69MOL0     H 9265   2.445   3.480   3.076  2.0962 -0.2904 -0.3005
   69MOL0     H 9266   2.389   3.370   3.308  0.5793 -2.1932 -1.4903
   69MOL0     H 9267   2.627   3.307   3.612  1.0756  4.2851 -2.6247
   69MOL0     H 9268   2.457   3.298   3.573 -1.2239  1.8461 -4.4481
   69MOL0     H 9269   2.656   3.090   3.476  0.3424 -1.8534  2.1144
   69MOL0     H 9270   2.497   3.106   3.402 -0.7206  1.4659 -0.1215
   69MOL0     H 9271   2.386   3.073   3.623  0.6942 -0.4590  1.8704
   69MOL0     H 9272   2.549   3.014   3.679  1.7401 -2.3558 -1.7469
   69MOL0     H 9273   2.391   2.910   3.428 -1.3449  2.1027  0.4844
   69MOL0     H 9274   2.389   2.842   3.590 -0.5835  1.6827  0.7465
   69MOL0     H 9275   2.339   2.692   3.423  0.9335  1.0116 -0.9560
   69MOL0     H 9276   2.233   2.452   3.195  0.8031 -1.1147 -1.5587
   69MOL0     H 9277   2.278   2.348   3.334 -1.4112 -0.8008 -2.2437
   69MOL0     H 9278   2.198   2.500   3.361  0.1618  3.1536 -0.6592
   69MOL0     H 9279   2.275   2.377   2.819  1.0359  0.3098  0.7561
   69MOL0     H 9280   2.285   2.232   2.629 -1.5966  0.6182 -0.6893
   69MOL0     H 9281   2.189   1.887   2.697  0.2803 -1.6718 -0.8565
   69MOL0     H 9282   2.175   1.937   2.529 -1.5101 -0.6265  0.8765
   69MOL0     H 9283   2.199   1.685   2.576  0.9820 -0.5486 -2.0595
   69MOL0     H 9284   2.315   1.748   2.463  1.0906  0.9420  0.0552
   69MOL0     H 9285   2.376   1.704   2.771  0.4872  1.5553  0.0802
   69MOL0     H 9286   2.494   1.765   2.661  0.0861 -1.2048 -0.8885
   69MOL0     H 9287   2.375   1.491   2.627  0.3616  0.9789 -3.1150
   69MOL0     H 9288   2.510   1.561   2.541  1.6435 -1.7999  0.8007
   69MOL0     H 9289   2.506   1.518   2.839 -0.2713  1.3156 -0.1412
   69MOL0     H 9290   2.642   1.583   2.755  0.5361  0.4954  5.0523
   69MOL0     H 9291   2.549   1.297   2.697  0.5810  1.6050 -1.2244
   69MOL0     H 9292   2.676   1.395   2.634  4.0338 -3.6285  0.3941
   69MOL0     H 9293   2.637   1.323   2.928 -0.6201  2.4929 -0.1947
   69MOL0     H 9294   2.764   1.431   2.876 -3.1194  1.1028  2.7495
   69MOL0     H 9295   2.846   1.205   2.750 -2.2510 -1.7059 -1.4067
   69MOL0     H 9296   2.720   1.125   2.819  1.0271 -0.8726 -2.6259
   69MOL0     H 9297   2.474   1.925   2.867  2.6185  1.7459  0.5858
   69MOL0     H 9298   2.458   2.085   3.061  1.6278  2.1590 -1.1026
   69MOL0     H 9299   2.731   2.497   3.189 -0.5748  1.6300 -1.5188
   69MOL0     H 9300   2.754   2.697   3.339 -0.2248  1.0458  1.2544
   69MOL0     H 9301   3.084   4.041   2.620 -0.7963  0.3794 -0.1079
   69MOL0     H 9302   3.264   4.213   2.552  0.5133 -0.0345 -1.5748
   69MOL0     H 9303   3.513   4.419   2.481  4.8880 -2.8236  0.5881
   69MOL0     H 9304   3.639   4.605   2.390 -2.3577  1.9959 -0.4337
   69MOL0     H 9305   3.976   4.782   2.567 -0.1178  1.2304 -0.6951
   69MOL0     H 9306   3.907   4.619   2.522 -4.1768 -0.2700  2.2024
   69MOL0     H 9307   3.910   4.683   2.300 -0.8376  0.7333  0.0943
   69MOL0     H 9308   4.065   4.721   2.356  0.8703  1.3705  1.9223
   69MOL0     H 9309   3.856   4.932   2.290 -0.5306  0.3838  0.1174
   69MOL0     H 9310   3.994   4.900   2.201  0.3290  1.4902 -0.2187
   69MOL0     H 9311   4.141   4.970   2.410  1.0417  1.2406  5.0688
   69MOL0     H 9312   3.990   5.004   2.503 -1.5835  3.8325 -1.9667
   69MOL0     H 9313   4.080   5.349   2.282  0.5205 -0.1105 -1.4288
   69MOL0     H 9314   3.689   4.782   2.772 -0.2488 -1.5589  1.6687
   69MOL0     H 9315   3.531   4.602   2.874 -4.0597 -4.0860 -1.7318
   70MOL0     O 9316   8.000   4.506   0.397  0.2273 -0.1396 -0.4348
   70MOL0     C 9317   7.989   4.556   0.505 -0.0511  0.5215  0.2522
   70MOL0     O 9318   7.874   4.620   0.550 -0.5379 -0.0111 -0.0025
   70MOL0     C 9319   7.766   4.638   0.473  0.1725 -0.2919  0.7095
   70MOL0     C 9320   7.657   4.543   0.482 -0.7309  0.2834 -0.2095
   70MOL0     C 9321   7.541   4.562   0.401 -0.2189  0.1519  0.3914
   70MOL0     C 9322   7.527   4.673   0.319  0.6084 -0.1028  1.0388
   70MOL0     O 9323   7.424   4.712   0.240 -0.4016 -2.0936  0.3678
   70MOL0     C 9324   7.304   4.626   0.224  0.4832 -0.0893 -1.1630
   70MOL0     C 9325   7.229   4.677   0.104  0.4334  0.2268  0.2256
   70MOL0     C 9326   7.136   4.560   0.044 -0.2483 -0.0281 -0.1252
   70MOL0     C 9327   7.089   4.608  -0.091  0.0438  0.2098  0.2530
   70MOL0     C 9328   6.972   4.527  -0.144  0.2769  0.9021 -0.4403
   70MOL0     C 9329   7.014   4.403  -0.223 -0.2512  0.3406 -0.6814
   70MOL0     C 9330   6.894   4.311  -0.249  0.1618 -1.1078  0.0233
   70MOL0     C 9331   6.928   4.187  -0.333 -0.5630  0.5825  1.0317
   70MOL0     N 9332   7.019   4.093  -0.263 -0.7398  0.1622 -0.5822
   70MOL0     C 9333   6.976   4.001  -0.170 -0.0906 -0.1808  0.2759
   70MOL0     C 9334   7.089   3.958  -0.102  0.4932  0.1163  0.5145
   70MOL0     C 9335   7.088   3.861   0.017  1.1263  0.4072 -0.4992
   70MOL0     C 9336   7.201   3.873   0.124  0.3522  0.1289 -0.1748
   70MOL0     C 9337   7.193   3.767   0.243 -0.8135  0.1059  0.3221
   70MOL0     C 9338   7.319   3.774   0.329 -0.0969 -0.2954  0.3067
   70MOL0     O 9339   7.318   3.681   0.440  1.2016  0.4192  0.1351
   70MOL0     C 9340   7.382   3.558   0.429  1.4315 -0.2575  0.3976
   70MOL0     C 9341   7.443   3.504   0.316 -0.2251 -1.0323 -0.5926
   70MOL0     C 9342   7.512   3.389   0.324 -0.2803  0.0949  0.4457
   70MOL0     C 9343   7.555   3.329   0.189 -0.7329 -0.1511 -1.2904
   70MOL0     C 9344   7.518   3.324   0.447 -1.1703 -0.7052  0.3744
   70MOL0     C 9345   7.605   3.198   0.456  1.4932  0.0344 -0.5523
   70MOL0     O 9346   7.559   3.107   0.545  0.4694 -0.2505  0.7324
   70MOL0     C 9347   7.662   3.017   0.581 -0.4246  0.2026  0.0569
   70MOL0     C 9348   7.719   3.031   0.703  0.3075 -0.1740  0.8391
   70MOL0     C 9349   7.821   2.944   0.751 -0.0527  0.1113  0.1630
   70MOL0     C 9350   7.878   2.849   0.657  0.4149  0.4108 -1.3717
   70MOL0     O 9351   7.977   2.752   0.683  0.2916  0.2574  0.4563
   70MOL0     C 9352   8.080   2.797   0.771 -0.5681  0.7009  0.1049
   70MOL0     C 9353   8.158   2.667   0.794  0.2380 -1.2568  0.1351
   70MOL0     C 9354   8.283   2.715   0.875  0.4120  0.2904  0.3705
   70MOL0     C 9355   8.402   2.735   0.788 -0.1782  0.0919  0.5395
   70MOL0     C 9356   8.502   2.823   0.860 -0.5897 -0.3459 -0.4892
   70MOL0     C 9357   8.566   2.760   0.987  0.2090 -0.3490 -0.3588
   70MOL0     C 9358   8.633   2.873   1.071 -0.8753  0.3983  0.3660
   70MOL0     C 9359   8.698   2.809   1.197  1.2512  0.8148  1.5272
   70MOL0    Cl 9360   8.728   2.920   1.331 -0.5040  0.0862 -0.0495
   70MOL0     C 9361   7.820   2.839   0.530  0.4423  0.7569 -1.0562
   70MOL0     C 9362   7.709   2.919   0.491  0.9912 -0.2699  0.8358
   70MOL0     O 9363   7.704   3.191   0.383 -0.2628  0.1046 -0.1635
   70MOL0     C 9364   7.458   3.373   0.562 -0.3481  0.3419 -0.4393
   70MOL0     C 9365   7.381   3.486   0.543  0.4328 -0.3534  0.4001
   70MOL0     N 9366   7.198   4.024  -0.157 -0.1194 -2.2413  0.0791
   70MOL0     N 9367   7.157   4.105  -0.255  0.8237  0.8825  0.3573
   70MOL0     C 9368   7.633   4.767   0.312 -0.7394  0.2857  0.2807
   70MOL0     C 9369   7.751   4.746   0.389  0.1832 -0.7988 -0.5539
   70MOL0     C 9370   8.106   4.558   0.595  0.4296 -0.3384 -0.0957
   70MOL0     C 9371   8.221   4.477   0.583  0.9211  0.2023  1.3559
   70MOL0     C 9372   8.325   4.479   0.673 -0.4018  0.0599  0.3559
   70MOL0     C 9373   8.325   4.569   0.782  0.6346 -0.7563  0.9467
   70MOL0     O 9374   8.415   4.588   0.886  0.3529 -0.1361  0.0982
   70MOL0     C 9375   8.527   4.500   0.883  0.7123 -0.3760 -0.5113
   70MOL0     C 9376   8.642   4.559   0.805  0.5089 -0.0637  0.6747
   70MOL0     C 9377   8.703   4.685   0.879 -1.1448  0.2451 -0.4104
   70MOL0     C 9378   8.840   4.723   0.816 -1.4159 -0.7187  1.1209
   70MOL0     C 9379   8.844   4.811   0.694 -0.7062 -0.0132 -0.8488
   70MOL0     C 9380   8.847   4.857   0.583 -0.3482 -0.4594 -0.5677
   70MOL0     C 9381   8.210   4.651   0.802  0.5092 -0.1825 -0.1222
   70MOL0     C 9382   8.104   4.641   0.714  0.0962 -0.1895 -0.8917
   70MOL0     H 9383   7.661   4.455   0.546  3.9378  0.8127  0.5912
   70MOL0     H 9384   7.467   4.483   0.406 -0.3802  0.3005  0.3574
   70MOL0     H 9385   7.328   4.520   0.216 -1.4573 -0.7774  1.1140
   70MOL0     H 9386   7.239   4.637   0.312  1.6032  0.9413 -0.4270
   70MOL0     H 9387   7.175   4.768   0.133 -2.3387 -1.0529 -0.5573
   70MOL0     H 9388   7.302   4.692   0.025 -0.3180  0.7392 -0.3822
   70MOL0     H 9389   7.195   4.468   0.033 -2.1059 -0.9793 -3.3998
   70MOL0     H 9390   7.047   4.534   0.102 -0.0507  0.7496  0.5599
   70MOL0     H 9391   7.061   4.712  -0.075  2.8793  0.9551  0.7175
   70MOL0     H 9392   7.182   4.606  -0.148  0.8478 -2.0637  1.4961
   70MOL0     H 9393   6.895   4.489  -0.076  1.6893 -0.5750  0.4247
   70MOL0     H 9394   6.909   4.591  -0.206 -1.2182  0.7937  0.8939
   70MOL0     H 9395   7.069   4.423  -0.315  1.8853 -3.1629 -0.3344
   70MOL0     H 9396   7.085   4.343  -0.165  1.9371  1.4483 -2.0910
   70MOL0     H 9397   6.855   4.273  -0.155  2.0386 -2.6834  0.2310
   70MOL0     H 9398   6.817   4.377  -0.290  1.8336  0.1751 -1.2445
   70MOL0     H 9399   6.975   4.219  -0.426 -0.0863 -1.9409  0.3413
   70MOL0     H 9400   6.830   4.146  -0.358  1.3392 -3.5086 -0.6065
   70MOL0     H 9401   6.884   3.950  -0.143  1.4416 -2.0004  2.4882
   70MOL0     H 9402   6.988   3.869   0.060  0.0148 -0.8194 -2.6587
   70MOL0     H 9403   7.116   3.760  -0.013  1.8120  0.4164  0.0710
   70MOL0     H 9404   7.187   3.973   0.166 -0.0668  0.2716 -0.6449
   70MOL0     H 9405   7.297   3.873   0.072  0.8710 -0.7721  0.7333
   70MOL0     H 9406   7.193   3.670   0.193 -1.3561  1.6471 -2.9096
   70MOL0     H 9407   7.102   3.770   0.304  0.0305 -3.5347  2.0923
   70MOL0     H 9408   7.319   3.875   0.372 -0.6707 -0.6920  1.2682
   70MOL0     H 9409   7.411   3.765   0.269  2.0565  1.2097  3.1475
   70MOL0     H 9410   7.414   3.554   0.224  1.8673  1.9980  0.2363
   70MOL0     H 9411   7.661   3.352   0.181 -0.6617  0.6787  1.3237
   70MOL0     H 9412   7.542   3.221   0.179  0.3127 -0.1637 -3.0033
   70MOL0     H 9413   7.496   3.386   0.116 -2.3318  2.7455  1.9877
   70MOL0     H 9414   7.663   3.102   0.763 -1.5473 -1.6112  0.9152
   70MOL0     H 9415   7.851   2.936   0.854 -0.5676 -0.1942  0.2964
   70MOL0     H 9416   8.126   2.885   0.725 -1.9678  1.9215  0.9462
   70MOL0     H 9417   8.031   2.831   0.863  1.6746  3.4861  0.4079
   70MOL0     H 9418   8.099   2.596   0.853 -3.4458  0.6158 -0.9830
   70MOL0     H 9419   8.189   2.619   0.701  0.2600 -0.4977 -0.2605
   70MOL0     H 9420   8.327   2.651   0.952  4.0407  0.2702 -1.5062
   70MOL0     H 9421   8.249   2.808   0.922 -2.8894  0.6737 -2.3924
   70MOL0     H 9422   8.446   2.640   0.756  0.6598  0.7879 -0.4374
   70MOL0     H 9423   8.387   2.784   0.691  1.7006 -2.3241 -1.0977
   70MOL0     H 9424   8.453   2.911   0.903  1.0980  0.8116 -0.8202
   70MOL0     H 9425   8.577   2.851   0.785  2.3565 -1.6928  1.7408
   70MOL0     H 9426   8.482   2.736   1.053 -0.4264  2.8613  0.1464
   70MOL0     H 9427   8.639   2.683   0.963  1.0578 -0.1471  1.4286
   70MOL0     H 9428   8.551   2.939   1.101 -2.1355 -1.7641  2.0519
   70MOL0     H 9429   8.717   2.918   1.018 -1.3905 -1.1367 -1.9185
   70MOL0     H 9430   8.794   2.764   1.167  0.9700 -0.3635  2.3359
   70MOL0     H 9431   8.636   2.731   1.241  2.5205 -0.3362  1.3348
   70MOL0     H 9432   7.839   2.760   0.457  0.8756 -2.8046  2.5671
   70MOL0     H 9433   7.661   2.896   0.396 -2.0039  0.1107  2.1313
   70MOL0     H 9434   7.457   3.319   0.656  2.0615  2.7361  1.1030
   70MOL0     H 9435   7.324   3.528   0.625  1.1829 -1.1455  1.3663
   70MOL0     H 9436   7.632   4.847   0.239 -0.6843 -0.0313 -0.0693
   70MOL0     H 9437   7.837   4.808   0.365 -1.4685  1.1858 -1.6709
   70MOL0     H 9438   8.242   4.403   0.506  3.1814 -1.4909  3.4293
   70MOL0     H 9439   8.405   4.408   0.660 -0.8809 -0.0884 -2.3991
   70MOL0     H 9440   8.557   4.485   0.988  0.3844 -1.3657 -0.5548
   70MOL0     H 9441   8.499   4.404   0.840  3.3122 -0.9294 -1.1700
   70MOL0     H 9442   8.604   4.585   0.706  0.0629  3.3752  1.6223
   70MOL0     H 9443   8.727   4.489   0.804  0.0181 -0.6847  1.3054
   70MOL0     H 9444   8.730   4.664   0.983  1.8652  1.5216 -0.8251
   70MOL0     H 9445   8.646   4.777   0.890  2.3679  2.6664 -0.6945
   70MOL0     H 9446   8.895   4.633   0.789 -1.1300  0.1562 -1.5483
   70MOL0     H 9447   8.891   4.784   0.891 -0.0395  0.5073 -0.7153
   70MOL0     H 9448   8.851   4.889   0.481  5.3886  1.2729 -0.1501
   70MOL0     H 9449   8.207   4.722   0.884  0.6566  0.1083 -0.3651
   70MOL0     H 9450   8.012   4.692   0.741 -1.0036 -2.2348 -0.6184
   71MOL0     O 9451  10.567  11.070   6.352  0.1819 -0.4612  0.0459
   71MOL0     C 9452  10.599  11.128   6.462  0.5311 -0.8894  0.7506
   71MOL0     O 9453  10.506  11.185   6.552  1.1092  1.1828 -0.1744
   71MOL0     C 9454  10.369  11.165   6.551 -0.7187 -0.1124  0.5943
   71MOL0     C 9455  10.322  11.042   6.521 -0.7024  0.5117 -0.1663
   71MOL0     C 9456  10.192  11.024   6.537 -0.0205  0.4545 -0.0818
   71MOL0     C 9457  10.102  11.132   6.559 -0.2493 -0.1544 -0.4532
   71MOL0     O 9458   9.974  11.100   6.559  0.2272 -0.3391  0.4286
   71MOL0     C 9459   9.875  11.204   6.586  0.2799  0.3913  0.0584
   71MOL0     C 9460   9.734  11.145   6.584 -0.3643 -0.8736 -0.0658
   71MOL0     C 9461   9.623  11.259   6.574 -0.7107 -0.3643  0.4107
   71MOL0     C 9462   9.489  11.193   6.544  0.0443 -1.0934 -0.2313
   71MOL0     C 9463   9.375  11.291   6.512  0.9447  0.4029  0.0344
   71MOL0     C 9464   9.241  11.218   6.471 -0.6383 -0.0858 -0.5568
   71MOL0     C 9465   9.166  11.166   6.594  0.0375 -0.2112 -0.4215
   71MOL0     C 9466   9.057  11.067   6.556 -0.1178 -0.7192 -0.3236
   71MOL0     N 9467   8.956  11.131   6.481 -0.1791 -0.7646 -0.0039
   71MOL0     C 9468   8.970  11.135   6.343 -0.2099  1.2195 -1.0487
   71MOL0     C 9469   8.855  11.179   6.293  0.1855 -0.4218 -0.9090
   71MOL0     C 9470   8.822  11.199   6.147 -1.3809  0.3517 -0.1440
   71MOL0     C 9471   8.675  11.181   6.102 -0.2065  0.3622 -0.4677
   71MOL0     C 9472   8.647  11.025   6.092  0.2904  0.1094 -0.5138
   71MOL0     C 9473   8.502  11.004   6.128 -0.3057 -0.7403  0.3001
   71MOL0     O 9474   8.423  11.094   6.046  1.0352  0.3959  0.7255
   71MOL0     C 9475   8.304  11.140   6.097 -0.1486  0.0890  1.1881
   71MOL0     C 9476   8.246  11.247   6.018 -0.3939  1.0787  0.8578
   71MOL0     C 9477   8.125  11.304   6.044 -0.9454 -0.5874 -0.0952
   71MOL0     C 9478   8.068  11.412   5.939  0.0179 -0.1947 -0.1499
   71MOL0     C 9479   8.047  11.260   6.156  0.6164 -0.6710 -0.9680
   71MOL0     C 9480   7.906  11.307   6.180 -0.3406 -0.7211  0.0942
   71MOL0     O 9481   7.834  11.313   6.068 -0.4754 -0.6928 -0.0340
   71MOL0     C 9482   7.702  11.335   6.067 -1.0724  0.0930  0.2838
   71MOL0     C 9483   7.609  11.233   6.097 -0.1681 -0.9401 -1.0332
   71MOL0     C 9484   7.477  11.260   6.088 -0.0126  1.3411 -0.1435
   71MOL0     C 9485   7.416  11.377   6.035  0.3812 -0.1059  1.6030
   71MOL0     O 9486   7.282  11.394   6.029  0.1230  0.4792  0.4506
   71MOL0     C 9487   7.241  11.477   5.923  0.0867 -0.3064  0.3848
   71MOL0     C 9488   7.093  11.451   5.889  0.4407 -0.3749 -0.9014
   71MOL0     C 9489   7.056  11.541   5.768 -0.1997 -0.9810 -0.0340
   71MOL0     C 9490   6.937  11.497   5.689  0.6265  0.1730  0.1622
   71MOL0     C 9491   6.826  11.605   5.671  0.0414  0.2199 -0.2547
   71MOL0     C 9492   6.732  11.567   5.559  0.0757 -0.4619  0.5385
   71MOL0     C 9493   6.599  11.641   5.559 -0.3180  0.7145  0.0499
   71MOL0     C 9494   6.592  11.739   5.452  0.4738  0.5108  0.6448
   71MOL0    Cl 9495   6.694  11.894   5.468  0.4250 -0.5561 -0.0099
   71MOL0     C 9496   7.512  11.472   5.998  0.4935 -0.5752  0.7552
   71MOL0     C 9497   7.647  11.453   6.006 -0.0521 -0.1891 -0.8087
   71MOL0     O 9498   7.869  11.331   6.293 -0.2556  0.4023 -0.0264
   71MOL0     C 9499   8.103  11.162   6.240  0.1548 -0.6021 -0.6534
   71MOL0     C 9500   8.229  11.106   6.206 -0.9942  0.5803 -0.2149
   71MOL0     N 9501   8.777  11.214   6.398  0.8087  0.3229  0.3897
   71MOL0     N 9502   8.838  11.192   6.510 -0.1437  0.3580 -0.3037
   71MOL0     C 9503  10.155  11.253   6.593  0.0071 -0.3190  0.0996
   71MOL0     C 9504  10.293  11.269   6.596 -1.4184 -0.1678 -0.6985
   71MOL0     C 9505  10.744  11.147   6.470  0.1253 -1.0836  0.1705
   71MOL0     C 9506  10.831  11.090   6.378 -0.4867  0.0848  0.7899
   71MOL0     C 9507  10.971  11.104   6.388  1.1058 -0.3636 -0.6786
   71MOL0     C 9508  11.025  11.186   6.493  0.2551  0.7058  0.4541
   71MOL0     O 9509  11.158  11.219   6.508 -0.0831 -0.1016 -0.3344
   71MOL0     C 9510  11.246  11.112   6.513 -0.1706  0.0797 -0.0870
   71MOL0     C 9511  11.317  11.099   6.371 -0.1996  0.1674 -0.8212
   71MOL0     C 9512  11.386  11.231   6.336 -0.6152  0.2301  0.3919
   71MOL0     C 9513  11.451  11.238   6.198  0.0276  0.7523  1.0978
   71MOL0     C 9514  11.584  11.185   6.202  0.3263 -0.2006  0.7973
   71MOL0     C 9515  11.695  11.144   6.205  0.2858 -0.8034 -0.2153
   71MOL0     C 9516  10.931  11.239   6.578  0.5607 -0.5561  0.2133
   71MOL0     C 9517  10.797  11.236   6.566  0.0015 -0.0617  0.4526
   71MOL0     H 9518  10.393  10.961   6.507 -1.4849 -0.8145  2.7521
   71MOL0     H 9519  10.146  10.928   6.516  0.3433  0.7387 -2.4054
   71MOL0     H 9520   9.893  11.245   6.686  0.4733  1.6004 -0.4614
   71MOL0     H 9521   9.885  11.282   6.510  0.2394 -0.9758 -1.4002
   71MOL0     H 9522   9.725  11.077   6.499  1.4177  2.5373 -3.3083
   71MOL0     H 9523   9.713  11.094   6.678  3.0131 -0.8312  0.8364
   71MOL0     H 9524   9.625  11.310   6.671 -0.8715  1.4442 -0.5000
   71MOL0     H 9525   9.653  11.319   6.488  1.3068 -0.9228  0.6710
   71MOL0     H 9526   9.502  11.119   6.464 -2.1219 -0.7052 -1.0024
   71MOL0     H 9527   9.457  11.136   6.632  4.5931 -0.8284  1.8740
   71MOL0     H 9528   9.343  11.358   6.592 -0.6403 -0.2129 -0.0446
   71MOL0     H 9529   9.404  11.358   6.431 -1.6138 -1.2417 -2.4384
   71MOL0     H 9530   9.176  11.293   6.424  0.9112  1.4885 -0.3084
   71MOL0     H 9531   9.266  11.132   6.409 -1.7979 -0.8470  0.0000
   71MOL0     H 9532   9.244  11.131   6.662  0.8474  1.9663 -0.1335
   71MOL0     H 9533   9.124  11.257   6.639  1.7620  1.0660 -1.2969
   71MOL0     H 9534   9.000  11.031   6.642 -3.0525  0.9152 -1.4355
   71MOL0     H 9535   9.101  10.978   6.511  0.8891 -0.0011 -0.7792
   71MOL0     H 9536   9.056  11.108   6.284  0.1047 -0.5408  0.1239
   71MOL0     H 9537   8.853  11.302   6.126  1.6019 -0.4568 -0.1993
   71MOL0     H 9538   8.886  11.129   6.092 -2.0641 -2.1206  2.0135
   71MOL0     H 9539   8.651  11.232   6.008  0.8033 -0.5430 -1.2264
   71MOL0     H 9540   8.604  11.228   6.171 -1.2677 -1.9191  0.0990
   71MOL0     H 9541   8.711  10.962   6.154  0.2098  0.1827 -0.3562
   71MOL0     H 9542   8.660  10.986   5.990  2.2430 -1.0750  0.1313
   71MOL0     H 9543   8.481  11.026   6.233  1.6044 -0.8412  0.7396
   71MOL0     H 9544   8.482  10.898   6.114 -1.1503 -0.7235  1.2615
   71MOL0     H 9545   8.299  11.269   5.927 -0.0783  0.9907  1.0197
   71MOL0     H 9546   8.007  11.370   5.860 -0.3285 -1.3411  0.7074
   71MOL0     H 9547   7.996  11.478   5.989 -1.2041  0.5720 -2.7428
   71MOL0     H 9548   8.147  11.473   5.894 -0.5078 -0.9778 -2.2489
   71MOL0     H 9549   7.638  11.142   6.149  0.0546  1.4847  3.5175
   71MOL0     H 9550   7.408  11.186   6.128  1.9863  0.3036  1.6102
   71MOL0     H 9551   7.267  11.583   5.930  0.2204 -0.2443 -0.9070
   71MOL0     H 9552   7.286  11.435   5.833  0.5810 -0.4397  0.6853
   71MOL0     H 9553   7.081  11.343   5.877  2.2443 -0.5922 -0.9058
   71MOL0     H 9554   7.017  11.477   5.964  1.4860  2.2229 -0.6255
   71MOL0     H 9555   7.137  11.562   5.697 -0.3395 -0.0991  0.0578
   71MOL0     H 9556   7.038  11.638   5.816 -0.6669 -0.2896 -1.5301
   71MOL0     H 9557   6.966  11.465   5.588  0.9206 -1.4500  0.7468
   71MOL0     H 9558   6.903  11.407   5.739  1.0338 -0.5518 -0.8194
   71MOL0     H 9559   6.868  11.704   5.647 -0.3760 -0.1166 -2.5935
   71MOL0     H 9560   6.767  11.609   5.762  1.3964  1.3669  0.6332
   71MOL0     H 9561   6.780  11.580   5.462 -0.2603  0.0277  0.4385
   71MOL0     H 9562   6.710  11.460   5.550  0.5811 -0.4996 -0.3283
   71MOL0     H 9563   6.571  11.683   5.656 -2.6709 -2.4215  0.8864
   71MOL0     H 9564   6.521  11.570   5.531  0.5876 -0.4434  0.3786
   71MOL0     H 9565   6.489  11.777   5.453  0.0354 -0.5668 -0.4876
   71MOL0     H 9566   6.606  11.688   5.356  0.2668  0.2336  0.7622
   71MOL0     H 9567   7.478  11.566   5.956 -1.4810 -1.8168 -0.5861
   71MOL0     H 9568   7.716  11.530   5.972  0.4072 -1.0755 -1.9448
   71MOL0     H 9569   8.039  11.130   6.322 -0.0147  0.7377 -0.2361
   71MOL0     H 9570   8.273  11.028   6.266 -0.3219 -0.6226 -2.1749
   71MOL0     H 9571  10.091  11.339   6.612 -2.4809 -1.5350 -1.9993
   71MOL0     H 9572  10.338  11.366   6.618  0.8286 -1.0954 -0.9198
   71MOL0     H 9573  10.800  11.035   6.290  2.0457  2.2201 -1.6210
   71MOL0     H 9574  11.025  11.066   6.302 -0.6727 -2.0810 -1.1248
   71MOL0     H 9575  11.332  11.127   6.579 -0.8945 -2.6968  1.6289
   71MOL0     H 9576  11.196  11.024   6.554  1.1469  0.2568  2.0656
   71MOL0     H 9577  11.244  11.077   6.293 -2.6008  1.4482  0.9321
   71MOL0     H 9578  11.385  11.013   6.367 -2.8713 -2.1243 -0.3764
   71MOL0     H 9579  11.467  11.249   6.408 -1.4656  0.7158  1.2479
   71MOL0     H 9580  11.313  11.312   6.346 -0.8956  0.0783 -0.3891
   71MOL0     H 9581  11.460  11.342   6.167  3.1328  0.0952 -0.6242
   71MOL0     H 9582  11.394  11.186   6.120 -0.7354  2.2724  0.6108
   71MOL0     H 9583  11.798  11.116   6.220  0.0100 -0.3869  3.4432
   71MOL0     H 9584  10.970  11.294   6.663 -0.7776  0.4005  0.2324
   71MOL0     H 9585  10.727  11.293   6.626 -2.0193 -2.0314  0.1046
   72MOL0     O 9586   1.028   7.325   1.408 -0.2212 -0.2822 -0.2082
   72MOL0     C 9587   1.100   7.340   1.312 -0.1804  0.0962  0.3817
   72MOL0     O 9588   1.230   7.296   1.304  0.0760 -0.1847  0.0593
   72MOL0     C 9589   1.281   7.257   1.425 -0.4493  1.3043  0.7256
   72MOL0     C 9590   1.246   7.129   1.484  0.0306 -0.0732 -0.5249
   72MOL0     C 9591   1.301   7.081   1.606 -0.2246 -0.1798  1.2676
   72MOL0     C 9592   1.384   7.170   1.667 -0.9411  0.1198  1.2910
   72MOL0     O 9593   1.432   7.118   1.785 -0.2827 -0.0145 -0.3214
   72MOL0     C 9594   1.538   7.183   1.855 -0.1630 -0.8419 -0.7281
   72MOL0     C 9595   1.570   7.102   1.981 -0.0431  0.5097 -0.0639
   72MOL0     C 9596   1.467   7.119   2.086 -0.5636  0.4861  0.2038
   72MOL0     C 9597   1.470   7.254   2.167 -0.7893 -0.7360  0.3090
   72MOL0     C 9598   1.376   7.243   2.288 -0.1361 -0.3401  0.0197
   72MOL0     C 9599   1.414   7.352   2.388 -0.2395  0.3468 -0.1624
   72MOL0     C 9600   1.369   7.312   2.530 -0.3320 -0.3121 -0.0358
   72MOL0     C 9601   1.419   7.422   2.632  0.0099 -0.3606  0.2078
   72MOL0     N 9602   1.373   7.386   2.765 -0.1558  0.2006  0.0091
   72MOL0     C 9603   1.453   7.326   2.859 -0.8195  0.5704  0.2159
   72MOL0     C 9604   1.361   7.302   2.967 -0.2953  1.0159 -1.3756
   72MOL0     C 9605   1.392   7.252   3.104 -0.6194  0.1098 -0.1818
   72MOL0     C 9606   1.374   7.350   3.219 -0.4058 -0.1431 -0.3119
   72MOL0     C 9607   1.443   7.486   3.197  0.5279  0.2379 -0.8688
   72MOL0     C 9608   1.443   7.571   3.328  1.1947  0.2562 -0.1078
   72MOL0     O 9609   1.530   7.509   3.417 -0.5575 -0.9306 -0.9329
   72MOL0     C 9610   1.524   7.564   3.550 -0.8659 -0.8518  0.1464
   72MOL0     C 9611   1.549   7.480   3.651 -0.0837  0.5138 -0.2561
   72MOL0     C 9612   1.557   7.525   3.786 -1.0949  0.1424  0.3447
   72MOL0     C 9613   1.581   7.406   3.886 -0.3530 -1.1906  0.5110
   72MOL0     C 9614   1.539   7.660   3.819  0.2879  0.0231 -0.9291
   72MOL0     C 9615   1.560   7.715   3.958 -0.5645  0.3818  0.9903
   72MOL0     O 9616   1.551   7.853   3.957 -0.0392  0.0390 -0.3238
   72MOL0     C 9617   1.595   7.918   4.075  0.4488 -0.7488 -0.3962
   72MOL0     C 9618   1.543   8.041   4.118 -0.0946  0.1835  0.1345
   72MOL0     C 9619   1.590   8.107   4.235 -0.7034  0.3997 -0.4673
   72MOL0     C 9620   1.700   8.063   4.310 -0.6108 -0.0576  0.1443
   72MOL0     O 9621   1.726   8.139   4.417  0.5649 -0.3768 -0.3273
   72MOL0     C 9622   1.821   8.101   4.517  0.2007  1.0051  1.6894
   72MOL0     C 9623   1.966   8.118   4.471  0.6138  0.0761  0.5832
   72MOL0     C 9624   2.057   8.088   4.585  0.2676  0.2610 -0.2903
   72MOL0     C 9625   2.195   8.071   4.527 -0.8071 -0.1853 -0.9229
   72MOL0     C 9626   2.293   8.034   4.643 -0.6997 -0.4024  0.2217
   72MOL0     C 9627   2.295   7.882   4.663 -0.2163 -0.6754 -0.4985
   72MOL0     C 9628   2.420   7.828   4.737  0.4549  0.7799 -0.4747
   72MOL0     C 9629   2.449   7.907   4.865 -0.2416 -0.0365  0.0943
   72MOL0    Cl 9630   2.582   7.843   4.958 -0.1473  0.4421 -0.8236
   72MOL0     C 9631   1.763   7.947   4.259 -0.1715  0.2535 -0.3620
   72MOL0     C 9632   1.710   7.881   4.149 -0.0784 -0.3702  0.6183
   72MOL0     O 9633   1.593   7.639   4.055  0.1235  0.3283  0.5513
   72MOL0     C 9634   1.497   7.746   3.718  0.3931  0.2245 -0.5040
   72MOL0     C 9635   1.493   7.700   3.583 -0.3901  0.0213 -0.1948
   72MOL0     N 9636   1.238   7.338   2.928  0.3122 -0.1707  0.1930
   72MOL0     N 9637   1.242   7.391   2.805 -0.3367 -0.5156 -0.6023
   72MOL0     C 9638   1.423   7.289   1.610 -0.6673  0.8852 -0.6224
   72MOL0     C 9639   1.372   7.339   1.490 -0.0470  0.7829  1.1459
   72MOL0     C 9640   1.035   7.387   1.186 -0.4172  0.0331 -0.8119
   72MOL0     C 9641   0.898   7.406   1.171 -0.4930  0.0950  0.1964
   72MOL0     C 9642   0.840   7.442   1.048  0.7162  0.2244 -0.3125
   72MOL0     C 9643   0.921   7.444   0.932  0.2033  1.2305 -0.4063
   72MOL0     O 9644   0.879   7.475   0.802  0.6072 -0.4851  0.2551
   72MOL0     C 9645   0.734   7.476   0.784 -0.2546  0.1976  0.2342
   72MOL0     C 9646   0.712   7.586   0.674  0.2822  0.1148 -0.1296
   72MOL0     C 9647   0.576   7.639   0.660 -0.9158  0.2367  0.5358
   72MOL0     C 9648   0.565   7.739   0.539 -0.0525 -0.6278 -0.9026
   72MOL0     C 9649   0.546   7.679   0.415 -0.9004 -0.4803  0.6375
   72MOL0     C 9650   0.543   7.637   0.301  0.0712 -0.4485 -0.0293
   72MOL0     C 9651   1.061   7.416   0.945 -0.8673 -0.0690 -0.3351
   72MOL0     C 9652   1.119   7.381   1.071  0.0771  0.1460 -0.6849
   72MOL0     H 9653   1.200   7.065   1.410 -0.0558 -1.5080  0.7334
   72MOL0     H 9654   1.283   6.984   1.650 -2.5401 -2.2801 -3.6409
   72MOL0     H 9655   1.631   7.198   1.799 -1.8349 -0.7742 -3.6624
   72MOL0     H 9656   1.514   7.286   1.884 -0.4422 -0.5194 -2.0535
   72MOL0     H 9657   1.582   6.995   1.962  1.9316  0.1910  2.4798
   72MOL0     H 9658   1.667   7.139   2.017  1.8106 -1.5564 -2.5105
   72MOL0     H 9659   1.373   7.106   2.031 -2.5762  0.8570  3.3069
   72MOL0     H 9660   1.477   7.042   2.163  4.7978  0.8275  0.1996
   72MOL0     H 9661   1.574   7.261   2.202 -0.9946  1.5221  0.5980
   72MOL0     H 9662   1.447   7.337   2.100 -2.4136 -2.4411 -1.3721
   72MOL0     H 9663   1.274   7.258   2.251  0.7938  2.5406 -1.7281
   72MOL0     H 9664   1.398   7.150   2.341 -2.3932  0.0276  1.7563
   72MOL0     H 9665   1.522   7.370   2.393 -0.3382  0.9051 -0.0077
   72MOL0     H 9666   1.371   7.446   2.354  0.5665  1.1804  1.0767
   72MOL0     H 9667   1.260   7.307   2.531 -0.3388 -0.5912 -1.1456
   72MOL0     H 9668   1.404   7.214   2.563  2.3407  0.7949  0.7541
   72MOL0     H 9669   1.372   7.519   2.609 -0.4007  0.6778  4.6218
   72MOL0     H 9670   1.526   7.443   2.623 -0.2894  1.5222  0.5546
   72MOL0     H 9671   1.557   7.299   2.846 -0.8629 -0.3412  1.4648
   72MOL0     H 9672   1.325   7.168   3.123 -0.8659  0.6826  1.6618
   72MOL0     H 9673   1.496   7.218   3.101 -0.5714 -0.3516  3.3723
   72MOL0     H 9674   1.406   7.310   3.316  3.5404 -0.4913 -1.5974
   72MOL0     H 9675   1.265   7.354   3.230 -0.2306  1.8774  1.4732
   72MOL0     H 9676   1.376   7.527   3.120 -0.2279  1.4277  0.3795
   72MOL0     H 9677   1.544   7.494   3.156 -0.0267  3.5361 -1.9496
   72MOL0     H 9678   1.346   7.596   3.373  1.6778  0.7319  0.6705
   72MOL0     H 9679   1.475   7.673   3.308  1.7043 -0.1905 -1.7977
   72MOL0     H 9680   1.580   7.378   3.633 -1.9973 -0.2460  0.5442
   72MOL0     H 9681   1.573   7.310   3.835  1.4565 -0.2035 -1.8204
   72MOL0     H 9682   1.676   7.432   3.933  0.3458 -0.1554 -1.3753
   72MOL0     H 9683   1.509   7.402   3.968  1.2281 -1.4445  1.9421
   72MOL0     H 9684   1.456   8.083   4.069  1.8345  1.1500 -2.7757
   72MOL0     H 9685   1.537   8.195   4.267 -0.0026  0.1542  1.5017
   72MOL0     H 9686   1.784   8.163   4.600 -3.7003  0.7608  0.3462
   72MOL0     H 9687   1.820   7.993   4.534 -0.7953  0.2330 -2.2861
   72MOL0     H 9688   1.987   8.047   4.390 -2.7607  0.5214 -0.8206
   72MOL0     H 9689   1.982   8.218   4.431  0.5134 -0.6240 -1.2965
   72MOL0     H 9690   2.032   7.996   4.638 -0.1854 -1.0926 -2.6862
   72MOL0     H 9691   2.045   8.165   4.662 -1.4336 -0.8459  0.6127
   72MOL0     H 9692   2.195   7.980   4.466 -2.8120 -1.1610  0.4398
   72MOL0     H 9693   2.230   8.156   4.468 -1.0849  2.4633  2.4305
   72MOL0     H 9694   2.271   8.092   4.734  0.6427 -0.5857  0.6902
   72MOL0     H 9695   2.394   8.060   4.611 -1.0543  2.8779  1.3837
   72MOL0     H 9696   2.208   7.847   4.719 -0.6878  0.5616 -0.4305
   72MOL0     H 9697   2.309   7.835   4.565 -0.8446 -2.5599  0.2672
   72MOL0     H 9698   2.509   7.844   4.676  0.5107 -0.9553 -0.8785
   72MOL0     H 9699   2.405   7.721   4.752  1.0713  0.7439 -0.0507
   72MOL0     H 9700   2.353   7.911   4.918 -0.4057  2.8269 -0.2861
   72MOL0     H 9701   2.469   8.013   4.851  1.2104  0.1551  2.8806
   72MOL0     H 9702   1.833   7.890   4.320  1.2585  1.6709 -0.6045
   72MOL0     H 9703   1.768   7.793   4.121  0.6093 -1.2905  4.3194
   72MOL0     H 9704   1.472   7.848   3.743  0.2738 -0.3519  1.9702
   72MOL0     H 9705   1.454   7.771   3.510 -0.0281  3.2616  2.5220
   72MOL0     H 9706   1.504   7.351   1.644  1.6359 -1.0132 -2.3125
   72MOL0     H 9707   1.413   7.423   1.436  2.7871 -0.3082  1.4229
   72MOL0     H 9708   0.827   7.391   1.252 -1.3023  0.9563 -0.3428
   72MOL0     H 9709   0.733   7.452   1.032  0.6935 -0.9949 -1.0341
   72MOL0     H 9710   0.703   7.381   0.741 -2.8747  2.3811 -3.2931
   72MOL0     H 9711   0.671   7.523   0.860  0.7483  0.8565  0.6793
   72MOL0     H 9712   0.739   7.534   0.581  2.2657  2.7627 -1.1751
   72MOL0     H 9713   0.778   7.673   0.676  0.4372 -0.0101  0.1722
   72MOL0     H 9714   0.560   7.687   0.756  0.5642 -0.7312  1.3178
   72MOL0     H 9715   0.515   7.553   0.632  1.6333 -0.4082 -4.1887
   72MOL0     H 9716   0.642   7.816   0.554  1.8328 -2.5212 -0.4263
   72MOL0     H 9717   0.473   7.798   0.550  0.6025  0.7825 -2.5826
   72MOL0     H 9718   0.539   7.605   0.199 -0.8490 -1.6699  0.3775
   72MOL0     H 9719   1.127   7.404   0.860  2.5837  0.5337  2.0427
   72MOL0     H 9720   1.223   7.352   1.072 -0.0352 -0.2665 -0.1246
   73MOL0     O 9721   2.621   7.144   3.364  0.3002  0.1036  0.3198
   73MOL0     C 9722   2.670   7.142   3.247 -0.3783  0.1433 -0.9096
   73MOL0     O 9723   2.792   7.173   3.208 -0.3042 -0.4377  0.2702
   73MOL0     C 9724   2.909   7.182   3.286  0.2017 -0.2314  0.6730
   73MOL0     C 9725   2.997   7.290   3.261 -0.0983 -0.1368 -0.1682
   73MOL0     C 9726   3.123   7.296   3.327 -0.7843  0.1243 -0.1277
   73MOL0     C 9727   3.150   7.203   3.429 -1.2117 -0.1906 -0.0335
   73MOL0     O 9728   3.254   7.225   3.512 -0.3334 -0.2676 -0.2397
   73MOL0     C 9729   3.363   7.151   3.459  0.1693 -0.1160  0.0206
   73MOL0     C 9730   3.481   7.155   3.555  1.2040 -0.3924  0.7407
   73MOL0     C 9731   3.595   7.077   3.505 -0.3252  0.1075  1.1511
   73MOL0     C 9732   3.725   7.117   3.572 -0.0287 -0.4537 -0.0088
   73MOL0     C 9733   3.840   7.028   3.520  0.3205  0.3814 -0.3804
   73MOL0     C 9734   3.962   7.036   3.619  0.0784  0.1224  0.2719
   73MOL0     C 9735   4.072   6.934   3.589 -0.6537  0.6938  0.0105
   73MOL0     C 9736   4.207   6.963   3.661  0.7140 -0.3545 -0.1490
   73MOL0     N 9737   4.312   6.880   3.600  0.2611  0.0279 -0.3266
   73MOL0     C 9738   4.315   6.737   3.608  0.1382 -0.2340  0.4227
   73MOL0     C 9739   4.429   6.716   3.538  0.6717  0.5625 -0.1848
   73MOL0     C 9740   4.486   6.579   3.523 -0.6497  0.2139  0.5555
   73MOL0     C 9741   4.594   6.539   3.623 -0.3121 -0.6000 -0.2813
   73MOL0     C 9742   4.693   6.657   3.653  0.6920  0.2570  0.0997
   73MOL0     C 9743   4.804   6.609   3.734  0.5549 -0.7604  0.2322
   73MOL0     O 9744   4.899   6.557   3.647  0.1459  0.4593  0.1159
   73MOL0     C 9745   5.031   6.574   3.696  0.4463  0.7651  0.7569
   73MOL0     C 9746   5.063   6.571   3.832 -0.4322  0.1955 -0.6583
   73MOL0     C 9747   5.193   6.573   3.881 -0.1193  1.0763 -1.0373
   73MOL0     C 9748   5.221   6.568   4.037 -0.5920  0.2364  0.0839
   73MOL0     C 9749   5.305   6.587   3.783  0.8390  0.1204  0.4944
   73MOL0     C 9750   5.448   6.579   3.799 -0.7949 -1.0018  0.3351
   73MOL0     O 9751   5.526   6.616   3.693  0.3524 -0.3872 -0.1310
   73MOL0     C 9752   5.659   6.611   3.707 -0.1090 -0.0553 -0.5671
   73MOL0     C 9753   5.735   6.499   3.656  0.4542 -0.4620 -0.2313
   73MOL0     C 9754   5.871   6.504   3.650 -0.3805 -0.1450 -0.9051
   73MOL0     C 9755   5.948   6.602   3.704  0.4728 -0.5240  0.0955
   73MOL0     O 9756   6.083   6.595   3.690 -0.0741 -0.2613 -0.0712
   73MOL0     C 9757   6.172   6.661   3.784  0.1631 -0.2095  0.1141
   73MOL0     C 9758   6.312   6.596   3.778  0.8803 -0.8246 -0.5177
   73MOL0     C 9759   6.349   6.538   3.648  0.4596  0.1929 -0.2685
   73MOL0     C 9760   6.466   6.448   3.668 -1.0169 -0.4952  0.2100
   73MOL0     C 9761   6.600   6.525   3.696  0.3350 -0.0935  0.3065
   73MOL0     C 9762   6.635   6.608   3.572 -0.4868 -0.0169  0.3948
   73MOL0     C 9763   6.788   6.657   3.592  0.0257 -0.5059 -0.2427
   73MOL0     C 9764   6.802   6.780   3.502  0.1560 -0.5563  0.7255
   73MOL0    Cl 9765   6.764   6.748   3.326 -0.0079 -0.5951  0.2690
   73MOL0     C 9766   5.878   6.708   3.763  0.6116  0.7950  0.4180
   73MOL0     C 9767   5.731   6.722   3.751 -0.1384 -0.0445  1.0590
   73MOL0     O 9768   5.491   6.536   3.906 -0.0455 -0.5910  0.2403
   73MOL0     C 9769   5.264   6.599   3.651 -0.7764  0.2193  0.0269
   73MOL0     C 9770   5.136   6.581   3.605 -0.3999 -0.1503  0.2864
   73MOL0     N 9771   4.475   6.834   3.493  0.0583  0.0095 -0.2194
   73MOL0     N 9772   4.419   6.936   3.548  0.4194 -0.0309 -0.2608
   73MOL0     C 9773   3.064   7.095   3.459  0.2815  0.3971  0.8206
   73MOL0     C 9774   2.946   7.080   3.379 -0.4086  0.3208  0.4461
   73MOL0     C 9775   2.571   7.109   3.137 -0.7401  0.5934 -0.2135
   73MOL0     C 9776   2.618   7.101   3.003  0.2807  0.9921 -0.3191
   73MOL0     C 9777   2.523   7.068   2.899  1.1687  0.4481  0.9606
   73MOL0     C 9778   2.388   7.047   2.931  0.2596 -0.8214  0.9025
   73MOL0     O 9779   2.288   7.002   2.845 -0.2096 -0.4629  0.4847
   73MOL0     C 9780   2.316   6.921   2.735 -0.6838  0.4658  0.1512
   73MOL0     C 9781   2.240   6.800   2.757 -0.5658  0.3466 -0.0494
   73MOL0     C 9782   2.271   6.697   2.646  0.0597 -0.3776 -0.1083
   73MOL0     C 9783   2.177   6.572   2.658 -0.4629  0.1345  0.4505
   73MOL0     C 9784   2.122   6.528   2.535  0.4661 -0.9057 -0.4418
   73MOL0     C 9785   2.051   6.529   2.444  1.3899 -0.0469 -0.4946
   73MOL0     C 9786   2.346   7.067   3.062 -0.4606  0.5880  0.0909
   73MOL0     C 9787   2.433   7.106   3.162  0.3239 -0.7218 -0.3595
   73MOL0     H 9788   2.961   7.377   3.207 -2.2579  0.4015  1.9577
   73MOL0     H 9789   3.191   7.379   3.314  2.2103 -2.0093  1.0211
   73MOL0     H 9790   3.339   7.044   3.454  1.5792 -0.4209 -1.0313
   73MOL0     H 9791   3.387   7.181   3.357  0.9448 -1.4218 -0.2121
   73MOL0     H 9792   3.502   7.259   3.584  0.1225 -0.7948  3.2339
   73MOL0     H 9793   3.434   7.110   3.643 -1.4706  0.2102 -0.2684
   73MOL0     H 9794   3.577   6.972   3.527 -0.6412 -0.4337 -1.4099
   73MOL0     H 9795   3.598   7.089   3.396 -0.2587 -0.9302  1.0364
   73MOL0     H 9796   3.740   7.224   3.557 -0.4106 -0.1675  1.4971
   73MOL0     H 9797   3.713   7.100   3.680 -0.3318 -0.0945  0.0152
   73MOL0     H 9798   3.812   6.925   3.497  1.5791  0.1764 -1.0862
   73MOL0     H 9799   3.861   7.065   3.419  0.7893 -2.6009 -1.4658
   73MOL0     H 9800   4.011   7.131   3.596  0.9317 -1.1964 -4.3709
   73MOL0     H 9801   3.930   7.025   3.723 -1.1657  0.7158 -0.0351
   73MOL0     H 9802   4.039   6.835   3.623  1.7356 -0.7583 -1.5013
   73MOL0     H 9803   4.101   6.936   3.483  1.8342 -0.6574  0.5809
   73MOL0     H 9804   4.200   6.939   3.767 -2.3843 -0.4537 -0.2994
   73MOL0     H 9805   4.228   7.071   3.656 -1.1953  0.1002  0.6093
   73MOL0     H 9806   4.241   6.666   3.645  0.2260 -1.0984 -0.9778
   73MOL0     H 9807   4.405   6.505   3.536 -1.6935  1.4155  1.0784
   73MOL0     H 9808   4.533   6.574   3.425  0.7504  1.6228  1.1228
   73MOL0     H 9809   4.652   6.451   3.594 -0.4792 -1.1233  0.9319
   73MOL0     H 9810   4.546   6.523   3.720 -1.6765  1.5483 -0.5205
   73MOL0     H 9811   4.640   6.738   3.704 -0.8708 -0.7673  0.1533
   73MOL0     H 9812   4.729   6.691   3.555  1.0028 -1.4715 -0.4288
   73MOL0     H 9813   4.758   6.536   3.801 -2.5687  1.5727  0.8405
   73MOL0     H 9814   4.842   6.689   3.798 -2.0731 -1.3032  2.6420
   73MOL0     H 9815   4.980   6.561   3.902 -1.7188  0.7426 -2.0602
   73MOL0     H 9816   5.256   6.466   4.054 -1.4135 -0.1249 -0.3239
   73MOL0     H 9817   5.301   6.640   4.060  1.0799 -1.2690 -0.8008
   73MOL0     H 9818   5.138   6.586   4.106 -0.6375  1.4814 -0.2725
   73MOL0     H 9819   5.686   6.421   3.598 -0.0681  1.2547 -2.2004
   73MOL0     H 9820   5.919   6.417   3.606  0.3110 -0.7872  0.9947
   73MOL0     H 9821   6.175   6.767   3.755 -0.8801 -0.6576 -1.7166
   73MOL0     H 9822   6.130   6.659   3.885 -1.4612  1.8338 -0.4459
   73MOL0     H 9823   6.390   6.671   3.794  1.2249 -1.4023  0.5888
   73MOL0     H 9824   6.314   6.533   3.867  0.8719  1.1954  0.9828
   73MOL0     H 9825   6.364   6.622   3.580 -1.6524 -0.0632 -1.1405
   73MOL0     H 9826   6.269   6.472   3.613  2.3765 -2.6608  0.4166
   73MOL0     H 9827   6.449   6.380   3.752 -1.8300  2.3266  2.5017
   73MOL0     H 9828   6.478   6.381   3.582  2.4722 -2.1990  1.8157
   73MOL0     H 9829   6.681   6.458   3.725  1.2617  0.8938  0.0659
   73MOL0     H 9830   6.590   6.598   3.777  1.1040 -0.7913  1.0547
   73MOL0     H 9831   6.629   6.556   3.476 -0.3686 -0.4752  0.6305
   73MOL0     H 9832   6.573   6.698   3.571  1.6304  1.6564  2.8545
   73MOL0     H 9833   6.853   6.571   3.571 -0.1891 -0.5590 -0.6936
   73MOL0     H 9834   6.807   6.704   3.689 -0.1826  1.4063 -1.0744
   73MOL0     H 9835   6.895   6.838   3.510 -0.6426  1.1806 -1.5082
   73MOL0     H 9836   6.725   6.855   3.522  0.6262  0.1745 -0.1260
   73MOL0     H 9837   5.930   6.787   3.814 -0.3332  0.6099  1.7151
   73MOL0     H 9838   5.684   6.801   3.809 -1.0248 -0.1761  0.5333
   73MOL0     H 9839   5.344   6.612   3.580  0.5830  2.3106  1.8285
   73MOL0     H 9840   5.123   6.577   3.498  3.4234  1.7350 -0.4343
   73MOL0     H 9841   3.089   7.032   3.544 -0.5394  1.1139  1.6155
   73MOL0     H 9842   2.893   6.988   3.396  1.7906 -1.2620 -0.7806
   73MOL0     H 9843   2.721   7.114   2.972 -0.1904 -0.4573 -2.7535
   73MOL0     H 9844   2.552   7.069   2.795 -2.8720 -2.3598 -0.4382
   73MOL0     H 9845   2.285   6.966   2.640 -3.6095 -1.1261  0.2131
   73MOL0     H 9846   2.423   6.903   2.725 -0.3517  3.3634 -3.8035
   73MOL0     H 9847   2.136   6.829   2.771  0.0354  1.7215  2.0588
   73MOL0     H 9848   2.261   6.762   2.857 -0.1593 -0.9361 -0.5901
   73MOL0     H 9849   2.371   6.651   2.654 -0.9694 -2.6098  0.7512
   73MOL0     H 9850   2.266   6.750   2.551  0.4324 -0.6464 -0.2817
   73MOL0     H 9851   2.097   6.585   2.731  0.4116  0.1558  1.4222
   73MOL0     H 9852   2.247   6.496   2.693  0.3637  0.9948  0.7190
   73MOL0     H 9853   1.974   6.527   2.369  1.0292 -2.2755 -0.1189
   73MOL0     H 9854   2.241   7.044   3.079 -0.1683 -0.8762  0.0690
   73MOL0     H 9855   2.397   7.110   3.264  0.4154 -1.4393 -0.2980
   74MOL0     O 9856   5.357   0.188  10.375  0.2736 -0.7186  0.1956
   74MOL0     C 9857   5.429   0.251  10.297  0.5947  1.6858 -0.6065
   74MOL0     O 9858   5.535   0.201  10.226 -0.3092 -0.4280 -0.5124
   74MOL0     C 9859   5.575   0.075  10.249  1.2751 -0.3769 -0.6842
   74MOL0     C 9860   5.608   0.012  10.379  0.4121 -0.0451  1.0493
   74MOL0     C 9861   5.665  -0.114  10.384 -0.4369  0.0191  0.8631
   74MOL0     C 9862   5.665  -0.193  10.262 -0.5412 -0.5395 -0.1503
   74MOL0     O 9863   5.692  -0.324  10.289  0.3172  0.3879  0.2919
   74MOL0     C 9864   5.749  -0.397  10.179 -0.4488 -0.1492 -0.4081
   74MOL0     C 9865   5.823  -0.523  10.221  0.1249 -0.0788 -0.0934
   74MOL0     C 9866   5.939  -0.485  10.316 -0.3241  1.0890 -0.5277
   74MOL0     C 9867   6.037  -0.605  10.342  0.7799  1.0248 -0.4382
   74MOL0     C 9868   5.968  -0.712  10.432 -0.3416  0.6950  0.0830
   74MOL0     C 9869   6.015  -0.856  10.409  0.0364 -0.3572  0.2723
   74MOL0     C 9870   5.954  -0.924  10.281 -0.6695  0.5353 -0.2084
   74MOL0     C 9871   5.807  -0.914  10.272  0.1289 -0.9537  0.0488
   74MOL0     N 9872   5.752  -1.012  10.177 -0.2444 -0.2990 -0.5373
   74MOL0     C 9873   5.770  -1.146  10.197  0.3441 -0.3091 -0.0615
   74MOL0     C 9874   5.744  -1.206  10.079  0.0779  0.8356  0.2107
   74MOL0     C 9875   5.742  -1.354  10.071  0.7805  0.0175 -0.1717
   74MOL0     C 9876   5.888  -1.399  10.065 -0.5070 -0.4461 -0.1573
   74MOL0     C 9877   5.908  -1.547  10.066 -0.5431 -1.2169 -0.4954
   74MOL0     C 9878   5.863  -1.605  10.204  0.2528  0.4866 -0.5461
   74MOL0     O 9879   5.869  -1.748  10.192 -0.7418 -0.3228  0.0314
   74MOL0     C 9880   5.872  -1.819  10.307  0.1579  0.5400 -0.1257
   74MOL0     C 9881   5.829  -1.778  10.433 -0.2830  1.2322  0.5024
   74MOL0     C 9882   5.858  -1.860  10.548  0.5019 -1.0846  0.4213
   74MOL0     C 9883   5.810  -1.811  10.693 -0.6807 -0.1972 -0.4182
   74MOL0     C 9884   5.912  -1.989  10.529  0.9046  0.5815  0.8926
   74MOL0     C 9885   5.934  -2.098  10.629 -0.7447  0.0533  0.2288
   74MOL0     O 9886   6.035  -2.185  10.594  0.4210  0.0703  0.1015
   74MOL0     C 9887   6.034  -2.300  10.666  0.0347  0.4775  0.1492
   74MOL0     C 9888   6.141  -2.335  10.747 -0.0188  0.4711 -0.0348
   74MOL0     C 9889   6.153  -2.464  10.802  0.1153 -0.3791  0.0399
   74MOL0     C 9890   6.053  -2.554  10.770 -0.7240 -0.0149 -0.9670
   74MOL0     O 9891   6.065  -2.686  10.802 -0.3415  0.5226  0.0311
   74MOL0     C 9892   5.962  -2.732  10.887 -0.1024 -0.0693 -0.1723
   74MOL0     C 9893   6.014  -2.843  10.985 -0.2768 -0.5097  0.4298
   74MOL0     C 9894   5.968  -2.814  11.136  0.1107 -0.7174 -0.7152
   74MOL0     C 9895   6.024  -2.901  11.243  0.2967  0.3023  0.7924
   74MOL0     C 9896   6.009  -2.842  11.381 -0.0000 -0.1801  0.7034
   74MOL0     C 9897   6.063  -2.927  11.493 -0.1500  0.9186  0.7170
   74MOL0     C 9898   6.052  -2.854  11.625 -0.3880 -0.1297  0.2766
   74MOL0     C 9899   6.140  -2.916  11.729  0.3857 -1.0566  0.2248
   74MOL0    Cl 9900   6.122  -2.816  11.869 -0.2081 -0.4244  0.1872
   74MOL0     C 9901   5.946  -2.514  10.697 -0.4751  0.0800  0.1589
   74MOL0     C 9902   5.931  -2.388  10.643 -0.3433 -0.2263 -0.0139
   74MOL0     O 9903   5.869  -2.099  10.734 -0.0179 -0.0520 -0.0974
   74MOL0     C 9904   5.935  -2.027  10.400  0.3691  0.0614 -0.5802
   74MOL0     C 9905   5.924  -1.939  10.293  0.9231  0.1631  0.4055
   74MOL0     N 9906   5.704  -1.102   9.992 -0.4997  0.9910 -0.1103
   74MOL0     N 9907   5.710  -0.988  10.055 -0.3727  0.3621  0.6593
   74MOL0     C 9908   5.636  -0.141  10.139  0.5134 -0.2688 -0.1189
   74MOL0     C 9909   5.591   0.002  10.132  0.4013 -0.8889  0.0784
   74MOL0     C 9910   5.383   0.387  10.287 -0.2511  0.3105 -0.1280
   74MOL0     C 9911   5.279   0.435  10.358 -0.1867 -0.1746 -0.9452
   74MOL0     C 9912   5.234   0.567  10.341  0.0960  0.3590 -0.8672
   74MOL0     C 9913   5.285   0.645  10.233  0.8632  0.6860  1.3800
   74MOL0     O 9914   5.224   0.764  10.199  0.5684  0.5283  0.3119
   74MOL0     C 9915   5.240   0.874  10.298 -0.4577  0.1798  0.0744
   74MOL0     C 9916   5.221   1.010  10.232  0.2622 -0.5141  0.6227
   74MOL0     C 9917   5.342   1.064  10.151 -0.2534  0.3492  0.3382
   74MOL0     C 9918   5.375   1.210  10.151 -0.2275  0.8876 -0.3388
   74MOL0     C 9919   5.427   1.260  10.277  0.9675 -0.3394 -0.4647
   74MOL0     C 9920   5.454   1.320  10.384  0.7943 -0.9504  0.5057
   74MOL0     C 9921   5.401   0.598  10.164  0.5697 -0.3753 -0.0374
   74MOL0     C 9922   5.456   0.473  10.199 -0.4824  0.1244 -0.1468
   74MOL0     H 9923   5.594   0.072  10.468  1.9917  0.8622  0.7307
   74MOL0     H 9924   5.678  -0.158  10.482 -1.4379  2.3163  2.0837
   74MOL0     H 9925   5.668  -0.419  10.108 -0.3261  1.6416 -1.1648
   74MOL0     H 9926   5.832  -0.345  10.131 -0.4608  0.6517  0.4197
   74MOL0     H 9927   5.745  -0.574  10.278 -0.3179  1.0537  0.3496
   74MOL0     H 9928   5.853  -0.586  10.137 -0.2104  0.2096 -0.4363
   74MOL0     H 9929   5.993  -0.403  10.268  0.8647  0.0677 -1.0061
   74MOL0     H 9930   5.898  -0.460  10.414 -3.2894  0.2070 -1.4472
   74MOL0     H 9931   6.078  -0.644  10.248  0.6128  0.0377 -0.1156
   74MOL0     H 9932   6.132  -0.579  10.388 -0.3026  3.1324  0.7404
   74MOL0     H 9933   5.999  -0.687  10.534  2.5825 -2.6280  0.2305
   74MOL0     H 9934   5.860  -0.721  10.420  0.0007 -1.2640 -2.2692
   74MOL0     H 9935   6.123  -0.855  10.394 -0.0469 -0.0307 -0.3526
   74MOL0     H 9936   5.993  -0.925  10.490  0.4987 -1.0745 -0.1977
   74MOL0     H 9937   5.997  -0.879  10.191 -1.7244  1.5231 -0.2435
   74MOL0     H 9938   5.978  -1.030  10.287 -3.3107 -0.0406  2.7039
   74MOL0     H 9939   5.783  -0.813  10.238  0.1064 -0.2033  2.1598
   74MOL0     H 9940   5.761  -0.935  10.369 -4.4908  0.7064 -1.5130
   74MOL0     H 9941   5.800  -1.196  10.289 -0.8020  1.8046  1.5626
   74MOL0     H 9942   5.669  -1.386  10.145 -1.1604  2.4757 -0.8793
   74MOL0     H 9943   5.692  -1.382   9.978  0.2708  0.5366 -0.0620
   74MOL0     H 9944   5.931  -1.354  10.154  1.5747 -1.2529 -0.7000
   74MOL0     H 9945   5.952  -1.357   9.987  3.3971 -2.0867  1.9316
   74MOL0     H 9946   6.014  -1.568  10.046 -0.2276  1.3256 -1.8658
   74MOL0     H 9947   5.854  -1.598   9.986  0.2081  0.0036 -1.8192
   74MOL0     H 9948   5.759  -1.589  10.232  0.1592 -0.4735 -0.3045
   74MOL0     H 9949   5.923  -1.551  10.278 -1.5027  4.3719 -1.6772
   74MOL0     H 9950   5.768  -1.691  10.455 -1.0985  1.0819 -1.0597
   74MOL0     H 9951   5.742  -1.887  10.734 -0.0525  0.0386  1.1439
   74MOL0     H 9952   5.891  -1.815  10.767  0.0384 -1.6378 -1.2286
   74MOL0     H 9953   5.763  -1.712  10.692 -2.4293 -0.9853 -1.5177
   74MOL0     H 9954   6.219  -2.259  10.751  0.2091  0.2919 -0.7773
   74MOL0     H 9955   6.241  -2.488  10.861 -0.0843  0.0492  0.5237
   74MOL0     H 9956   5.912  -2.647  10.936  2.3327  1.3867 -0.0713
   74MOL0     H 9957   5.877  -2.773  10.832 -1.1702  3.5678 -1.5086
   74MOL0     H 9958   5.970  -2.935  10.948 -2.2756  1.2517 -1.8842
   74MOL0     H 9959   6.122  -2.861  10.985 -0.2915 -0.8073 -1.4464
   74MOL0     H 9960   5.858  -2.819  11.133  0.0629 -0.0696 -0.3013
   74MOL0     H 9961   6.006  -2.712  11.149  2.6335 -1.4871 -1.5041
   74MOL0     H 9962   5.960  -2.990  11.238 -1.0024  1.2986 -2.4765
   74MOL0     H 9963   6.131  -2.904  11.220  0.3573  1.9064  0.7804
   74MOL0     H 9964   5.904  -2.813  11.390  0.4761  1.6673  0.6996
   74MOL0     H 9965   6.067  -2.750  11.392 -1.0907  0.3896  1.9879
   74MOL0     H 9966   6.017  -3.026  11.490  3.0972 -0.7035 -0.4163
   74MOL0     H 9967   6.167  -2.943  11.466  0.1517  0.2439  2.2148
   74MOL0     H 9968   5.953  -2.859  11.673 -0.9476 -1.2745 -0.9313
   74MOL0     H 9969   6.070  -2.747  11.611  0.1751 -0.4331 -1.5400
   74MOL0     H 9970   6.242  -2.907  11.689 -0.0490  0.6039 -0.6007
   74MOL0     H 9971   6.103  -3.016  11.756 -2.3346 -0.0165  0.6323
   74MOL0     H 9972   5.860  -2.576  10.674  0.2990 -1.6681  1.7344
   74MOL0     H 9973   5.842  -2.369  10.583  0.3100 -1.6685 -1.5267
   74MOL0     H 9974   5.974  -2.126  10.375  2.6048  0.5572  0.6865
   74MOL0     H 9975   5.956  -1.969  10.194  2.9365  2.1291  0.3811
   74MOL0     H 9976   5.649  -0.175  10.037 -0.8099 -1.2614  0.0201
   74MOL0     H 9977   5.567   0.048  10.037  0.3077 -3.8267 -1.4157
   74MOL0     H 9978   5.233   0.372  10.434  0.0778 -1.4433 -1.8149
   74MOL0     H 9979   5.152   0.606  10.401  0.4228 -0.2566  0.0084
   74MOL0     H 9980   5.166   0.866  10.378 -1.3887  1.5958 -0.5981
   74MOL0     H 9981   5.334   0.864  10.352 -0.8787  0.4423  0.8661
   74MOL0     H 9982   5.193   1.075  10.315  0.9853 -0.1215  0.5658
   74MOL0     H 9983   5.132   0.992  10.171  0.5939  1.1471 -0.4262
   74MOL0     H 9984   5.331   1.030  10.048  0.5313  1.4759 -0.1415
   74MOL0     H 9985   5.427   1.004  10.185  0.2313 -0.1997 -1.7416
   74MOL0     H 9986   5.290   1.267  10.113 -1.0237 -1.4897 -2.3549
   74MOL0     H 9987   5.457   1.236  10.083 -0.0860 -0.9637 -0.9259
   74MOL0     H 9988   5.498   1.373  10.466  1.8368 -2.0090  0.6708
   74MOL0     H 9989   5.445   0.653  10.081  1.3562 -2.7952 -1.3382
   74MOL0     H 9990   5.547   0.434  10.154  0.8818  1.2134  1.5398
   75MOL0     O 9991  11.287   9.135   3.450  0.1770 -0.5586  0.2697
   75MOL0     C 9992  11.311   9.076   3.348 -0.4434 -0.2139  0.2554
   75MOL0     O 9993  11.217   9.051   3.245 -0.0806  0.6261 -0.1927
   75MOL0     C 9994  11.085   9.071   3.256  0.9443  0.4641 -0.0950
   75MOL0     C 9995  11.016   9.089   3.373 -0.2036 -0.0127 -0.0889
   75MOL0     C 9996  10.879   9.114   3.381  0.2548  0.3292  0.1442
   75MOL0     C 9997  10.799   9.097   3.271  1.2489 -0.6108  0.4680
   75MOL0     O 9998  10.660   9.111   3.258 -0.5773 -0.3803  0.3532
   75MOL0     C 9999  10.583   9.086   3.375  1.1299 -0.0680  0.6408
   75MOL0     C10000  10.442   9.073   3.316  0.0796  0.0842 -0.9717
   75MOL0     C10001  10.376   9.201   3.290 -0.8310 -1.2324 -0.3872
   75MOL0     C10002  10.263   9.196   3.200 -0.2964  0.3892 -0.5977
   75MOL0     C10003  10.139   9.110   3.243  0.7004 -0.0726  0.9678
   75MOL0     C10004  10.031   9.107   3.125 -0.3353  0.5309 -0.6264
   75MOL0     C10005   9.910   9.020   3.153  0.1955 -0.0453 -1.1025
   75MOL0     C10006   9.839   8.967   3.026  0.3711 -0.3751  0.6933
   75MOL0     N10007   9.877   8.827   2.987  0.5655  0.5792 -0.1386
   75MOL0     C10008  10.001   8.789   2.948  0.5896 -0.2753 -0.7160
   75MOL0     C10009   9.988   8.658   2.955  0.0189 -0.1548  0.6730
   75MOL0     C10010  10.097   8.558   2.953 -0.4431 -0.7942 -0.4960
   75MOL0     C10011  10.134   8.494   2.830  0.5936  0.7190  0.6030
   75MOL0     C10012  10.287   8.481   2.800 -0.4525  0.3890 -0.0472
   75MOL0     C10013  10.347   8.387   2.900  1.0328  0.6533 -0.3560
   75MOL0     O10014  10.488   8.390   2.876 -0.3315 -0.4775 -0.2380
   75MOL0     C10015  10.569   8.359   2.984 -0.2310 -0.0942 -0.1757
   75MOL0     C10016  10.703   8.368   2.957 -0.0313  0.0152  0.0142
   75MOL0     C10017  10.800   8.339   3.055 -0.0302 -0.1374  0.7848
   75MOL0     C10018  10.937   8.368   3.002  0.1551  0.1102 -0.6697
   75MOL0     C10019  10.774   8.273   3.174  1.0210 -1.1906  0.7706
   75MOL0     C10020  10.872   8.235   3.280  0.1483 -0.2891  0.9255
   75MOL0     O10021  10.819   8.223   3.399  0.3486  0.0516 -0.6452
   75MOL0     C10022  10.891   8.168   3.501 -0.4570  0.0830 -0.3466
   75MOL0     C10023  10.992   8.244   3.565  0.1224  0.0001  0.1484
   75MOL0     C10024  11.081   8.183   3.656  0.7922  0.7129 -0.6516
   75MOL0     C10025  11.068   8.046   3.690 -0.1400  0.3824  0.8909
   75MOL0     O10026  11.149   7.970   3.775 -0.6982 -1.2789  0.5798
   75MOL0     C10027  11.195   8.024   3.902  1.0397  0.0148  0.1309
   75MOL0     C10028  11.348   7.997   3.920 -0.3922  0.0623 -0.3604
   75MOL0     C10029  11.445   8.072   3.818 -0.6246  0.2874  0.8166
   75MOL0     C10030  11.466   7.986   3.691 -0.1363  0.4223 -0.5665
   75MOL0     C10031  11.560   8.054   3.594  0.1246 -1.0342 -0.3853
   75MOL0     C10032  11.592   7.961   3.474 -0.2419 -0.0710  0.0057
   75MOL0     C10033  11.700   8.016   3.394 -0.0518 -0.1868  0.4746
   75MOL0     C10034  11.735   7.919   3.275  0.1352 -0.4729  0.2103
   75MOL0    Cl10035  11.864   7.988   3.180  0.3496  0.4369 -0.0086
   75MOL0     C10036  10.967   7.979   3.628 -0.9214  1.5059 -0.1419
   75MOL0     C10037  10.873   8.032   3.538 -0.7705 -0.1438  0.8401
   75MOL0     O10038  10.989   8.221   3.250 -0.2449 -0.1617 -0.1468
   75MOL0     C10039  10.637   8.265   3.209 -0.6281 -0.5644 -0.1546
   75MOL0     C10040  10.536   8.316   3.113  0.1105  0.0202  0.2333
   75MOL0     N10041   9.854   8.622   2.974 -0.4812  0.1366  0.2636
   75MOL0     N10042   9.795   8.725   3.004  0.0458 -0.4447  0.8455
   75MOL0     C10043  10.869   9.080   3.151 -0.5033  0.5457  0.4350
   75MOL0     C10044  11.008   9.055   3.146 -0.0621 -0.2865  0.0131
   75MOL0     C10045  11.451   9.026   3.332 -0.0190  0.7285 -0.2005
   75MOL0     C10046  11.547   9.038   3.424  0.1807 -0.0376 -0.0837
   75MOL0     C10047  11.683   8.989   3.408 -0.0033 -1.0113 -0.4034
   75MOL0     C10048  11.727   8.942   3.288 -0.7185 -0.1710  0.3200
   75MOL0     O10049  11.854   8.891   3.277 -0.0969 -0.4229 -0.3900
   75MOL0     C10050  11.969   8.964   3.309  0.0691 -0.4584 -0.1561
   75MOL0     C10051  12.063   8.963   3.187  0.3633  0.0532  0.0188
   75MOL0     C10052  12.111   8.823   3.146  0.3394 -0.9005  0.5175
   75MOL0     C10053  12.239   8.824   3.072 -0.9988 -0.0123  0.8410
   75MOL0     C10054  12.268   8.689   3.028 -0.4849  1.1434  0.1114
   75MOL0     C10055  12.287   8.576   2.991 -0.8272  0.5753 -0.0298
   75MOL0     C10056  11.631   8.919   3.190  0.0542 -0.3048  0.5331
   75MOL0     C10057  11.494   8.958   3.215 -0.4859  0.1167 -0.9459
   75MOL0     H10058  11.068   9.105   3.467 -0.0462  3.3661 -0.6276
   75MOL0     H10059  10.850   9.127   3.485 -1.6122 -0.6952 -0.2113
   75MOL0     H10060  10.626   8.998   3.423  0.2796 -0.7735  0.1267
   75MOL0     H10061  10.586   9.171   3.444  3.3743 -1.5927  2.5870
   75MOL0     H10062  10.450   9.002   3.233 -1.8645 -1.4524  0.0547
   75MOL0     H10063  10.382   9.033   3.399  0.8270  3.7866  1.6331
   75MOL0     H10064  10.344   9.236   3.389  1.2341 -0.2174 -0.0380
   75MOL0     H10065  10.456   9.262   3.247 -2.3921  2.7752  1.8297
   75MOL0     H10066  10.235   9.302   3.201  4.3645  1.8911 -1.7376
   75MOL0     H10067  10.300   9.156   3.105  0.5948 -2.2267  0.7651
   75MOL0     H10068  10.180   9.011   3.265 -2.4239 -1.5178  0.9110
   75MOL0     H10069  10.095   9.151   3.335 -1.5400  0.0963 -0.1176
   75MOL0     H10070   9.987   9.206   3.106 -1.4350  0.2019  0.0951
   75MOL0     H10071  10.092   9.072   3.041  4.0165  0.0068  2.4305
   75MOL0     H10072   9.946   8.940   3.219  0.1545  1.1103  0.3805
   75MOL0     H10073   9.841   9.084   3.208  1.4811  0.5645 -0.1259
   75MOL0     H10074   9.854   9.031   2.939  0.3708 -3.1772 -1.5404
   75MOL0     H10075   9.731   8.961   3.042  0.2537 -2.1983 -0.4914
   75MOL0     H10076  10.076   8.864   2.924  1.2516 -0.7949 -0.2741
   75MOL0     H10077  10.185   8.609   2.995  0.2806  1.4645 -4.3412
   75MOL0     H10078  10.071   8.486   3.031 -2.6836 -0.0012 -0.4502
   75MOL0     H10079  10.093   8.548   2.745  1.7506  0.4938 -0.1150
   75MOL0     H10080  10.086   8.396   2.818  0.3296  0.4448  3.1865
   75MOL0     H10081  10.337   8.578   2.797  0.2749  0.0105 -0.6805
   75MOL0     H10082  10.307   8.448   2.698 -2.5654  1.3419 -0.8058
   75MOL0     H10083  10.320   8.281   2.888  1.0943  0.6370 -0.3450
   75MOL0     H10084  10.315   8.426   2.997  0.6976  3.4182 -1.4962
   75MOL0     H10085  10.729   8.417   2.864 -0.2157  0.9442  0.4432
   75MOL0     H10086  10.975   8.276   2.956 -4.1153 -1.8838 -0.6627
   75MOL0     H10087  10.935   8.444   2.924 -0.6002  2.6396  1.6670
   75MOL0     H10088  11.000   8.410   3.081 -2.5787 -0.6562  2.1601
   75MOL0     H10089  11.001   8.347   3.534  1.0572 -0.6247 -1.8523
   75MOL0     H10090  11.165   8.236   3.698 -0.4677  2.2400  0.0454
   75MOL0     H10091  11.178   8.132   3.898  0.6606 -0.0471 -0.0324
   75MOL0     H10092  11.136   7.974   3.980  1.2024  2.2269  1.7828
   75MOL0     H10093  11.390   8.025   4.017  0.0332  0.3903 -0.6325
   75MOL0     H10094  11.367   7.889   3.921  2.2381  0.4637  0.3453
   75MOL0     H10095  11.540   8.099   3.866  0.4827 -1.2827 -0.4089
   75MOL0     H10096  11.399   8.166   3.786 -2.5586 -0.7087  0.5250
   75MOL0     H10097  11.508   7.894   3.732 -1.6031  0.1864  0.4971
   75MOL0     H10098  11.374   7.965   3.635 -1.0347 -2.8926  1.8307
   75MOL0     H10099  11.657   8.077   3.638 -1.0082  1.7972  0.8632
   75MOL0     H10100  11.499   8.139   3.560 -2.7113 -2.7694  0.0091
   75MOL0     H10101  11.631   7.871   3.522  2.3276  1.8603  1.8227
   75MOL0     H10102  11.502   7.951   3.413  0.0200  2.2204 -0.8364
   75MOL0     H10103  11.790   8.035   3.454  1.1621 -0.1512 -1.2710
   75MOL0     H10104  11.685   8.115   3.350  4.4370 -0.1627 -1.5756
   75MOL0     H10105  11.647   7.910   3.210  0.5450 -0.6101 -0.3318
   75MOL0     H10106  11.760   7.821   3.317 -3.1329 -1.2344  0.6730
   75MOL0     H10107  10.940   7.878   3.657  0.9430  0.3381 -2.1327
   75MOL0     H10108  10.797   7.971   3.491 -3.5554  2.0973  2.0949
   75MOL0     H10109  10.609   8.212   3.299  0.1461 -2.4751 -0.9836
   75MOL0     H10110  10.431   8.301   3.136 -0.1754  0.8301 -0.4954
   75MOL0     H10111  10.811   9.089   3.060 -0.5043  0.4921  0.4302
   75MOL0     H10112  11.055   9.041   3.049 -0.1658  0.5475 -0.1710
   75MOL0     H10113  11.520   9.085   3.518  1.9959 -2.0069  1.5357
   75MOL0     H10114  11.740   8.986   3.500 -1.8259 -1.3085  0.7685
   75MOL0     H10115  11.944   9.067   3.335 -1.0199 -0.6800 -0.2847
   75MOL0     H10116  12.015   8.924   3.400 -2.1184  2.3478  2.3689
   75MOL0     H10117  12.142   9.038   3.193  0.2934  0.1630 -0.4081
   75MOL0     H10118  12.000   9.003   3.107  0.5645  1.0665  0.3523
   75MOL0     H10119  12.041   8.776   3.077 -0.6400  2.7606 -1.2306
   75MOL0     H10120  12.119   8.760   3.236  3.2749 -0.5145  0.6263
   75MOL0     H10121  12.322   8.851   3.138  1.9602 -1.6300 -1.9164
   75MOL0     H10122  12.240   8.891   2.985 -4.7176 -1.3931 -0.5038
   75MOL0     H10123  12.309   8.477   2.956  1.5654  0.1318  2.3606
   75MOL0     H10124  11.646   8.869   3.095 -0.9795  6.2042 -3.7012
   75MOL0     H10125  11.420   8.935   3.140  0.1784 -0.8655 -1.3114
   76MOL0     O10126  11.469   6.782   3.476 -0.0962 -0.1415 -0.1302
   76MOL0     C10127  11.567   6.789   3.552 -0.2852 -0.1862  0.4749
   76MOL0     O10128  11.690   6.831   3.515 -0.4248  0.0726 -0.2173
   76MOL0     C10129  11.704   6.905   3.394 -0.2841  0.8343  0.5675
   76MOL0     C10130  11.767   7.032   3.397  0.7151  0.7761  0.3618
   76MOL0     C10131  11.786   7.098   3.276 -0.7806 -0.2823 -0.0924
   76MOL0     C10132  11.741   7.050   3.156 -0.0030 -0.5076  0.7820
   76MOL0     O10133  11.779   7.123   3.039  1.3580 -0.2613 -0.0300
   76MOL0     C10134  11.786   7.063   2.907 -0.0142 -0.1959  0.8435
   76MOL0     C10135  11.823   7.176   2.809  0.5083 -0.4536  0.0792
   76MOL0     C10136  11.850   7.134   2.660  1.0539 -0.4234  0.7185
   76MOL0     C10137  11.957   7.035   2.640  0.2364  0.2408  0.7212
   76MOL0     C10138  11.965   6.985   2.495  0.4483  0.0780 -0.6925
   76MOL0     C10139  12.075   6.880   2.495  0.3261  0.3211 -0.4983
   76MOL0     C10140  12.083   6.829   2.355 -0.2224  0.6693 -0.1919
   76MOL0     C10141  12.160   6.697   2.331 -0.2272  0.2508  0.0316
   76MOL0     N10142  12.300   6.723   2.367 -0.2530  0.1926 -0.0757
   76MOL0     C10143  12.361   6.735   2.485  0.1339  0.2385 -0.2296
   76MOL0     C10144  12.482   6.798   2.462  0.0861  0.3072 -0.0224
   76MOL0     C10145  12.580   6.842   2.567 -0.1861  0.0470  0.1122
   76MOL0     C10146  12.554   6.984   2.621 -0.6930  0.3469 -0.3618
   76MOL0     C10147  12.427   6.983   2.718  0.3033 -0.6577 -0.1065
   76MOL0     C10148  12.412   7.110   2.790  0.3468 -1.1109 -0.3121
   76MOL0     O10149  12.282   7.113   2.853  0.2500 -0.8549  0.0317
   76MOL0     C10150  12.252   7.206   2.947  0.1345 -0.2622  0.2201
   76MOL0     C10151  12.325   7.317   2.979  0.6654 -0.2696 -0.2585
   76MOL0     C10152  12.293   7.422   3.069  0.5223  0.3712 -0.3628
   76MOL0     C10153  12.396   7.520   3.107 -0.2565 -1.3078 -0.6720
   76MOL0     C10154  12.163   7.418   3.124  0.5283  0.4019 -0.7579
   76MOL0     C10155  12.110   7.511   3.225 -0.2563 -0.9144 -0.3360
   76MOL0     O10156  12.045   7.456   3.333 -0.5124  0.3203 -0.0285
   76MOL0     C10157  12.010   7.530   3.448  0.6383 -0.3464  0.0560
   76MOL0     C10158  12.013   7.476   3.574 -0.2356  0.4918 -0.1107
   76MOL0     C10159  11.978   7.541   3.692 -0.2525 -0.7872 -1.5931
   76MOL0     C10160  11.916   7.663   3.674  0.6889  0.1167 -0.3622
   76MOL0     O10161  11.893   7.730   3.787  0.1324  0.5017 -0.6601
   76MOL0     C10162  11.754   7.731   3.827 -0.1838  0.1958 -0.4740
   76MOL0     C10163  11.738   7.776   3.972  0.2122 -0.3763 -0.5897
   76MOL0     C10164  11.757   7.662   4.073  0.4412  0.5914  0.9908
   76MOL0     C10165  11.630   7.563   4.075 -0.9341  0.5626 -1.2361
   76MOL0     C10166  11.640   7.476   4.197  0.4045  0.0081  0.2642
   76MOL0     C10167  11.762   7.381   4.188 -0.1632  0.3327 -0.9336
   76MOL0     C10168  11.766   7.290   4.069 -0.4031 -1.2226 -0.0973
   76MOL0     C10169  11.859   7.165   4.082  0.2390 -0.5535  0.1328
   76MOL0    Cl10170  11.845   7.067   3.935  0.1772 -0.4307  0.0284
   76MOL0     C10171  11.910   7.728   3.551 -0.5639  0.5383 -0.0735
   76MOL0     C10172  11.968   7.667   3.447  1.5996  0.1194  0.5724
   76MOL0     O10173  12.151   7.628   3.229  0.4612  0.2714 -0.5503
   76MOL0     C10174  12.085   7.303   3.090  0.4583  0.0744 -0.5148
   76MOL0     C10175  12.132   7.193   3.009  0.6829 -0.2283  0.7360
   76MOL0     N10176  12.488   6.834   2.329 -0.3748 -0.0185 -0.0912
   76MOL0     N10177  12.381   6.781   2.274 -0.2212  0.2851 -0.2482
   76MOL0     C10178  11.673   6.925   3.150  0.4348  0.7734  0.1106
   76MOL0     C10179  11.660   6.855   3.269  0.4618  0.9510  0.2313
   76MOL0     C10180  11.549   6.733   3.684  0.3888  0.5658 -0.1955
   76MOL0     C10181  11.651   6.737   3.776  0.2888  0.4792 -0.2309
   76MOL0     C10182  11.641   6.668   3.898 -0.0614  0.6041 -0.3174
   76MOL0     C10183  11.534   6.583   3.929  0.3721 -0.0398 -0.2366
   76MOL0     O10184  11.528   6.531   4.057  0.6305 -0.1216  0.5527
   76MOL0     C10185  11.606   6.412   4.077  0.5747  0.0512 -0.4781
   76MOL0     C10186  11.502   6.293   4.073  0.0591 -0.1413  0.6154
   76MOL0     C10187  11.573   6.159   4.069  0.7351 -0.8230  0.7807
   76MOL0     C10188  11.476   6.045   4.089 -0.3348 -0.9523  0.7745
   76MOL0     C10189  11.449   6.018   4.234 -0.1527 -0.3793  0.4807
   76MOL0     C10190  11.432   6.004   4.352 -0.5747  0.4546 -0.2448
   76MOL0     C10191  11.428   6.577   3.834  0.2927  0.3175  0.4244
   76MOL0     C10192  11.436   6.648   3.717 -0.2015 -0.5670 -0.2843
   76MOL0     H10193  11.811   7.069   3.489  1.3374  0.4396  0.2067
   76MOL0     H10194  11.845   7.189   3.274 -1.9847  0.5773  1.2892
   76MOL0     H10195  11.860   6.983   2.898 -1.6737 -1.5704 -1.7937
   76MOL0     H10196  11.687   7.018   2.896  0.7569 -1.5616 -1.1531
   76MOL0     H10197  11.740   7.247   2.810 -0.7545 -1.8771  1.3067
   76MOL0     H10198  11.915   7.221   2.849 -0.8618  0.7416  2.0798
   76MOL0     H10199  11.752   7.090   2.638  1.7134 -2.2085  1.2572
   76MOL0     H10200  11.852   7.213   2.584  2.1017 -2.0340 -1.0338
   76MOL0     H10201  12.057   7.062   2.677  0.2165  1.5713 -0.1491
   76MOL0     H10202  11.921   6.946   2.693 -2.4992  0.1401 -1.1161
   76MOL0     H10203  11.871   6.947   2.456 -0.6152 -1.2791  2.7626
   76MOL0     H10204  11.991   7.074   2.438 -1.7740  0.4428 -1.2211
   76MOL0     H10205  12.174   6.921   2.515  0.5864 -0.2443 -0.6192
   76MOL0     H10206  12.054   6.795   2.562 -2.8564 -0.7472 -2.5713
   76MOL0     H10207  11.982   6.821   2.313 -1.3148 -1.4326  2.5222
   76MOL0     H10208  12.133   6.894   2.282 -0.1424 -2.6837 -3.4220
   76MOL0     H10209  12.140   6.655   2.232  2.1272 -0.8220 -0.0567
   76MOL0     H10210  12.144   6.614   2.400 -0.9235  0.2534 -0.1159
   76MOL0     H10211  12.321   6.704   2.581  2.1692  0.3203  0.7017
   76MOL0     H10212  12.571   6.767   2.646 -2.4108  3.0195  2.9446
   76MOL0     H10213  12.683   6.820   2.536 -0.8039 -0.1838 -1.9158
   76MOL0     H10214  12.519   7.050   2.541  0.8377  0.8606 -0.6431
   76MOL0     H10215  12.642   7.023   2.673 -0.6239 -0.0557 -0.1722
   76MOL0     H10216  12.457   6.920   2.802 -0.6391  2.0437  2.4206
   76MOL0     H10217  12.339   6.941   2.669 -0.4554  0.6612  0.0773
   76MOL0     H10218  12.416   7.197   2.724 -1.1371 -1.2478 -0.6177
   76MOL0     H10219  12.491   7.129   2.863 -2.8471  1.7754  2.7943
   76MOL0     H10220  12.426   7.336   2.943  1.1113  1.3085  1.6360
   76MOL0     H10221  12.354   7.617   3.078  0.3228 -1.4067 -1.8983
   76MOL0     H10222  12.419   7.524   3.214  1.7417  1.5912 -1.0737
   76MOL0     H10223  12.492   7.500   3.059  0.9581 -1.5548  1.6763
   76MOL0     H10224  12.054   7.376   3.566 -0.6928  0.4081 -2.1613
   76MOL0     H10225  11.983   7.488   3.787 -0.4431  2.0691  0.1342
   76MOL0     H10226  11.708   7.813   3.772  0.3467  1.1830  0.5146
   76MOL0     H10227  11.708   7.633   3.814  2.3198 -1.0798 -0.2382
   76MOL0     H10228  11.812   7.857   3.981 -2.3245  2.0049  0.5053
   76MOL0     H10229  11.646   7.833   3.989 -0.8540 -1.7618 -1.5092
   76MOL0     H10230  11.780   7.699   4.174  0.0485 -2.8261  2.5038
   76MOL0     H10231  11.846   7.602   4.048 -2.1109 -3.5264  0.8843
   76MOL0     H10232  11.545   7.631   4.089 -1.4121  0.2519 -2.4702
   76MOL0     H10233  11.618   7.505   3.983  0.9616 -0.2454 -1.0044
   76MOL0     H10234  11.550   7.417   4.219  1.3965 -2.0153 -0.7446
   76MOL0     H10235  11.656   7.546   4.280  0.5875  1.1382 -0.7055
   76MOL0     H10236  11.858   7.434   4.188  0.9186 -1.4885  0.6444
   76MOL0     H10237  11.748   7.313   4.273 -1.8050  1.0956 -0.5447
   76MOL0     H10238  11.796   7.346   3.979  1.1865 -0.5207  0.8266
   76MOL0     H10239  11.663   7.254   4.060 -0.5662 -1.3134  1.8854
   76MOL0     H10240  11.837   7.105   4.171  0.5145 -1.0516 -0.1267
   76MOL0     H10241  11.965   7.191   4.088 -0.3773  2.0419  0.9715
   76MOL0     H10242  11.879   7.829   3.529 -0.5267  0.3403 -1.0506
   76MOL0     H10243  11.961   7.717   3.352  0.7650  0.4489  0.7943
   76MOL0     H10244  11.982   7.297   3.121  1.0834  1.7505  2.1787
   76MOL0     H10245  12.064   7.114   2.979 -1.1007  1.4283  0.2222
   76MOL0     H10246  11.647   6.883   3.053 -2.2720  4.1302 -0.8110
   76MOL0     H10247  11.611   6.760   3.253  1.0266  0.3082  2.0351
   76MOL0     H10248  11.740   6.798   3.769  1.6655 -1.0868  2.1334
   76MOL0     H10249  11.724   6.683   3.966  0.0655  0.6840 -0.4910
   76MOL0     H10250  11.685   6.390   4.005  0.6140 -1.8177  0.0666
   76MOL0     H10251  11.654   6.412   4.175 -2.9613 -1.9035  1.4787
   76MOL0     H10252  11.445   6.327   3.986  0.8786  1.8986  0.8257
   76MOL0     H10253  11.437   6.281   4.161 -1.0394 -2.6331 -0.4466
   76MOL0     H10254  11.653   6.149   4.143  0.2532 -2.1198  1.1528
   76MOL0     H10255  11.616   6.147   3.969  1.0563  1.3259  0.6086
   76MOL0     H10256  11.531   5.957   4.052  1.2900  0.9779 -1.7211
   76MOL0     H10257  11.390   6.054   4.022 -0.9812  1.5114  1.8260
   76MOL0     H10258  11.420   5.994   4.458  1.1866  0.2511 -0.0357
   76MOL0     H10259  11.338   6.518   3.851  2.1660 -2.5337  1.0971
   76MOL0     H10260  11.357   6.645   3.643  0.7745  0.7386 -1.4408
   77MOL0     O10261   6.484   1.590   6.183  0.5144  0.1769 -0.4337
   77MOL0     C10262   6.583   1.541   6.232  0.2390 -0.8483 -0.2195
   77MOL0     O10263   6.706   1.560   6.184 -0.4547 -0.6658 -0.6420
   77MOL0     C10264   6.745   1.636   6.072 -0.0028  0.2186 -0.0332
   77MOL0     C10265   6.879   1.657   6.064  0.0290 -1.0315  0.3115
   77MOL0     C10266   6.935   1.748   5.961 -0.4688 -0.0714  0.7418
   77MOL0     C10267   6.853   1.813   5.865 -0.5761  0.0211  0.1654
   77MOL0     O10268   6.886   1.878   5.749  0.0348 -0.6016  0.5492
   77MOL0     C10269   7.024   1.918   5.729 -0.5855  0.1809  0.3437
   77MOL0     C10270   7.032   2.031   5.626  0.0354 -0.8485  0.4930
   77MOL0     C10271   7.028   1.980   5.480 -0.1237  0.7161 -0.0529
   77MOL0     C10272   7.057   2.103   5.383  0.1569 -0.1029  0.1454
   77MOL0     C10273   7.038   2.076   5.241  0.4577 -0.3233  0.3548
   77MOL0     C10274   7.077   2.198   5.145 -0.3542 -0.9753 -0.1013
   77MOL0     C10275   7.085   2.167   5.004 -0.0594 -0.4071 -0.2276
   77MOL0     C10276   7.112   2.291   4.916  0.1622 -0.6018  0.0552
   77MOL0     N10277   7.247   2.335   4.929  0.5147 -0.4311  0.2977
   77MOL0     C10278   7.361   2.309   4.847 -0.2583  0.0384  0.4696
   77MOL0     C10279   7.456   2.388   4.905  0.5195  0.9574 -0.6031
   77MOL0     C10280   7.592   2.410   4.848  0.3360  0.2408 -0.0855
   77MOL0     C10281   7.705   2.435   4.945 -0.1778  0.0498  0.0830
   77MOL0     C10282   7.840   2.439   4.874  1.1605  0.7901  0.3278
   77MOL0     C10283   7.901   2.306   4.819  0.2052 -0.6060  0.2901
   77MOL0     O10284   8.030   2.334   4.750  0.4725  0.4926 -0.5305
   77MOL0     C10285   8.082   2.232   4.690  0.2738  0.8673 -0.2401
   77MOL0     C10286   8.170   2.264   4.593  0.0282  0.8783  1.1808
   77MOL0     C10287   8.242   2.161   4.516  0.3438 -0.1730  0.1110
   77MOL0     C10288   8.320   2.211   4.385  0.4588  0.3561 -0.1459
   77MOL0     C10289   8.217   2.022   4.541 -0.5794 -0.9298 -1.1339
   77MOL0     C10290   8.284   1.918   4.464 -0.3309  0.9872  0.7501
   77MOL0     O10291   8.271   1.793   4.520  0.4134 -0.4756 -0.5789
   77MOL0     C10292   8.339   1.688   4.468 -0.9968  0.8583  0.3117
   77MOL0     C10293   8.437   1.630   4.557 -0.0147 -0.2670 -0.4152
   77MOL0     C10294   8.514   1.518   4.505  0.8315  0.0631 -0.5312
   77MOL0     C10295   8.490   1.467   4.376  0.3413  0.0528  0.5689
   77MOL0     O10296   8.559   1.358   4.327  0.5721 -0.1241  0.1642
   77MOL0     C10297   8.638   1.385   4.205  1.0533 -0.8576 -0.5282
   77MOL0     C10298   8.728   1.267   4.177 -0.8176 -0.4076 -0.0169
   77MOL0     C10299   8.655   1.134   4.173  0.3625 -0.2155 -0.0094
   77MOL0     C10300   8.733   1.028   4.098 -0.1946 -0.3553 -0.2678
   77MOL0     C10301   8.712   0.895   4.174 -0.2524  0.6190  0.5949
   77MOL0     C10302   8.731   0.766   4.098  0.4216  0.7133 -0.1603
   77MOL0     C10303   8.734   0.633   4.188  0.1927 -0.2844  1.1366
   77MOL0     C10304   8.801   0.529   4.101  1.0250 -0.5297 -0.9840
   77MOL0    Cl10305   8.800   0.387   4.220 -0.2056  0.0613  0.2556
   77MOL0     C10306   8.387   1.526   4.296 -0.4678 -0.1339 -0.8901
   77MOL0     C10307   8.313   1.630   4.339 -0.9510 -0.7250 -0.0646
   77MOL0     O10308   8.324   1.934   4.349  0.2309  0.1376  0.3831
   77MOL0     C10309   8.129   1.993   4.651 -0.4876  0.0310  0.3396
   77MOL0     C10310   8.066   2.100   4.717  0.1679  0.6835  0.9985
   77MOL0     N10311   7.406   2.449   5.023  0.3517 -0.5757  0.4592
   77MOL0     N10312   7.290   2.409   5.033  0.2721 -0.0010 -0.2802
   77MOL0     C10313   6.714   1.786   5.882 -0.0583  1.3395 -0.0215
   77MOL0     C10314   6.659   1.681   5.967 -0.1000 -0.8893  0.3195
   77MOL0     C10315   6.574   1.455   6.342  0.5296  0.7678 -0.1062
   77MOL0     C10316   6.457   1.450   6.421 -0.6802 -0.5225  0.4417
   77MOL0     C10317   6.448   1.348   6.521 -0.1174  0.6261 -0.6462
   77MOL0     C10318   6.551   1.265   6.557  0.2070 -0.5459 -0.2874
   77MOL0     O10319   6.542   1.200   6.679  0.4007  0.2773  0.0339
   77MOL0     C10320   6.665   1.147   6.728 -0.6479  0.0097  0.6723
   77MOL0     C10321   6.692   1.006   6.681  0.8980  0.2392 -0.3074
   77MOL0     C10322   6.824   0.960   6.745 -0.6930  0.2507  0.9545
   77MOL0     C10323   6.853   0.808   6.735  0.1248 -0.5825  0.3380
   77MOL0     C10324   6.783   0.746   6.848 -0.0823 -0.1106  1.1377
   77MOL0     C10325   6.722   0.697   6.942 -0.3158 -0.7025 -0.1533
   77MOL0     C10326   6.662   1.265   6.472  0.1056 -0.2305 -0.2402
   77MOL0     C10327   6.668   1.353   6.368  1.0287 -0.4576  0.5120
   77MOL0     H10328   6.950   1.623   6.138 -1.5880 -2.8046  1.1337
   77MOL0     H10329   7.043   1.759   5.956 -0.5957  0.8372 -0.3421
   77MOL0     H10330   7.064   1.957   5.823  1.6734 -0.5263 -0.2663
   77MOL0     H10331   7.090   1.833   5.709  0.5257  0.4400  2.5973
   77MOL0     H10332   6.951   2.102   5.646  0.2368 -0.8873  1.4975
   77MOL0     H10333   7.125   2.087   5.637  2.2377 -3.6931 -1.8629
   77MOL0     H10334   7.109   1.908   5.461  0.9251  2.5814 -3.2908
   77MOL0     H10335   6.933   1.932   5.452  1.3473 -2.1326 -0.6004
   77MOL0     H10336   6.993   2.189   5.407  1.0507  0.9759 -1.1564
   77MOL0     H10337   7.159   2.143   5.393 -0.3859  0.7860  3.4675
   77MOL0     H10338   7.104   1.995   5.210  0.2386  0.2298 -1.7119
   77MOL0     H10339   6.934   2.044   5.224  0.4169 -1.8270  2.9738
   77MOL0     H10340   7.011   2.284   5.160  1.2743  0.1279  1.1207
   77MOL0     H10341   7.168   2.244   5.186 -1.3503  2.0577 -1.0047
   77MOL0     H10342   7.167   2.096   4.990 -0.4123 -0.6927 -0.9274
   77MOL0     H10343   6.994   2.121   4.964 -0.8330  1.4353 -0.6957
   77MOL0     H10344   7.039   2.369   4.936 -1.5790 -1.7328 -1.5695
   77MOL0     H10345   7.087   2.251   4.817 -1.4297 -0.2788  0.3059
   77MOL0     H10346   7.361   2.253   4.754 -1.9023 -0.0508  0.4896
   77MOL0     H10347   7.603   2.317   4.792 -3.0551 -1.5731  1.9754
   77MOL0     H10348   7.587   2.487   4.770  1.2641 -0.7221 -1.1386
   77MOL0     H10349   7.704   2.344   5.005 -2.1903  1.2852  2.1293
   77MOL0     H10350   7.682   2.515   5.016  0.5029 -1.6194  2.3043
   77MOL0     H10351   7.914   2.462   4.952  3.4082 -1.7395 -0.8866
   77MOL0     H10352   7.846   2.514   4.795 -1.2512  0.3076 -0.3900
   77MOL0     H10353   7.849   2.256   4.737  5.4054 -1.1413 -3.1837
   77MOL0     H10354   7.902   2.228   4.895  0.9797 -2.2366 -1.3175
   77MOL0     H10355   8.182   2.367   4.562 -1.8317  0.7277 -0.1831
   77MOL0     H10356   8.415   2.156   4.388 -0.1411 -0.7337 -0.3574
   77MOL0     H10357   8.267   2.190   4.292 -1.0041 -0.0080  0.7514
   77MOL0     H10358   8.337   2.319   4.388 -0.0688  0.4763 -1.1465
   77MOL0     H10359   8.450   1.660   4.660  1.9268  0.4108 -0.8149
   77MOL0     H10360   8.582   1.467   4.572 -1.4284 -0.7228  1.2986
   77MOL0     H10361   8.568   1.398   4.123 -1.0714  1.2588  1.4589
   77MOL0     H10362   8.689   1.479   4.229  0.8035 -0.2089 -2.4322
   77MOL0     H10363   8.770   1.288   4.078  1.8518 -0.4111  1.0392
   77MOL0     H10364   8.818   1.271   4.239 -1.1704  1.2175  0.4125
   77MOL0     H10365   8.564   1.157   4.118 -0.8454 -0.9913  1.5885
   77MOL0     H10366   8.639   1.111   4.279  0.2387  0.9743  0.2521
   77MOL0     H10367   8.689   1.017   3.998 -3.8104  0.3987  1.0711
   77MOL0     H10368   8.840   1.049   4.094 -0.7951  3.4112 -0.2251
   77MOL0     H10369   8.614   0.908   4.223  0.6111 -0.4302  2.7539
   77MOL0     H10370   8.782   0.896   4.258  0.6915  0.6831 -0.1806
   77MOL0     H10371   8.650   0.744   4.028 -1.5737  0.8029  1.9597
   77MOL0     H10372   8.816   0.774   4.031 -0.5006 -2.9087 -2.0108
   77MOL0     H10373   8.641   0.591   4.226 -0.1533 -0.8638 -0.2801
   77MOL0     H10374   8.800   0.660   4.271  0.0851  3.2465  0.2592
   77MOL0     H10375   8.898   0.556   4.058  0.6164 -0.6584 -2.0113
   77MOL0     H10376   8.732   0.497   4.023 -2.8757 -0.3103  2.0758
   77MOL0     H10377   8.357   1.486   4.200  0.9033  0.5822 -1.6337
   77MOL0     H10378   8.235   1.671   4.275 -0.9679 -2.0458 -0.9412
   77MOL0     H10379   8.101   1.893   4.683 -1.7585  0.9657  2.3759
   77MOL0     H10380   7.992   2.077   4.793 -0.5388  0.2773  0.2135
   77MOL0     H10381   6.642   1.825   5.812  0.9853  1.4858 -1.0408
   77MOL0     H10382   6.552   1.672   5.951 -0.5678  4.1792 -1.4860
   77MOL0     H10383   6.374   1.519   6.415 -1.1309 -1.1571 -1.1003
   77MOL0     H10384   6.356   1.345   6.579  1.1912  1.5292  1.6358
   77MOL0     H10385   6.749   1.215   6.712  1.6026 -2.2240  2.2002
   77MOL0     H10386   6.658   1.147   6.837  0.2227  0.3507  0.7356
   77MOL0     H10387   6.675   0.989   6.574 -1.8808 -0.3097  0.1426
   77MOL0     H10388   6.626   0.945   6.743  0.3413  1.1812  0.0559
   77MOL0     H10389   6.826   0.992   6.849 -3.6555  0.3596  1.0662
   77MOL0     H10390   6.883   1.028   6.683 -1.4696 -1.1178 -1.4311
   77MOL0     H10391   6.962   0.796   6.742  0.2607  0.6465  0.5810
   77MOL0     H10392   6.813   0.766   6.642 -1.7743  0.1179  0.7938
   77MOL0     H10393   6.666   0.670   7.029  0.3411  0.3371  0.5976
   77MOL0     H10394   6.747   1.199   6.488  0.8124  0.8633  0.6679
   77MOL0     H10395   6.756   1.355   6.304  1.5158  0.6520  1.1946
   78MOL0     O10396   6.088  11.299  10.449 -0.3415 -0.1867 -0.4743
   78MOL0     C10397   6.115  11.380  10.360 -0.0363  0.4789 -0.0019
   78MOL0     O10398   6.046  11.492  10.332  0.0601 -0.1046  0.2067
   78MOL0     C10399   6.100  11.598  10.267  0.7228  1.1569  0.3557
   78MOL0     C10400   6.080  11.626  10.126 -0.3816  0.3745 -0.7617
   78MOL0     C10401   6.143  11.732  10.066 -0.5612 -0.8849 -1.0173
   78MOL0     C10402   6.207  11.831  10.149  0.0197 -0.0917  0.3325
   78MOL0     O10403   6.254  11.951  10.108 -0.3194  0.1558 -0.6534
   78MOL0     C10404   6.161  12.057  10.092 -0.0510  0.0198 -0.6732
   78MOL0     C10405   6.095  12.036   9.961  0.1340 -0.3541  0.5956
   78MOL0     C10406   6.189  12.023   9.837  0.4253  0.1521 -0.7430
   78MOL0     C10407   6.144  12.097   9.707  0.5650  0.8612 -0.6176
   78MOL0     C10408   6.197  12.010   9.588 -1.1495  0.1718 -0.0954
   78MOL0     C10409   6.354  12.027   9.559  0.1938  0.8290  0.7686
   78MOL0     C10410   6.400  11.938   9.440  0.3172  0.3578  0.6909
   78MOL0     C10411   6.552  11.942   9.415  0.5834 -0.1049  0.4998
   78MOL0     N10412   6.585  11.870   9.289 -0.3201  0.2341 -0.4169
   78MOL0     C10413   6.534  11.904   9.165 -0.3469  0.2638 -0.2328
   78MOL0     C10414   6.605  11.838   9.072 -0.4651  0.3963 -0.2643
   78MOL0     C10415   6.577  11.826   8.927 -0.7913 -0.3174  0.8926
   78MOL0     C10416   6.440  11.880   8.899 -0.0166  0.7170  0.0518
   78MOL0     C10417   6.394  11.820   8.768  0.4804 -0.6769  0.5186
   78MOL0     C10418   6.253  11.874   8.730 -0.1801  0.3886  0.1263
   78MOL0     O10419   6.148  11.816   8.818 -0.6856 -0.2665  0.2720
   78MOL0     C10420   6.020  11.851   8.793  0.1974  0.2446 -0.8585
   78MOL0     C10421   5.979  11.967   8.729 -0.9117  0.3711 -0.3435
   78MOL0     C10422   5.848  12.010   8.713  0.1414 -0.1252  0.0404
   78MOL0     C10423   5.833  12.141   8.643  0.9302  0.2725 -0.6059
   78MOL0     C10424   5.753  11.925   8.765  0.4641 -0.4337  0.3782
   78MOL0     C10425   5.598  11.950   8.743  0.3221 -0.1731  0.0204
   78MOL0     O10426   5.513  11.867   8.805 -0.0210 -0.3476 -0.1010
   78MOL0     C10427   5.379  11.857   8.785  0.0383 -0.1072 -0.5059
   78MOL0     C10428   5.305  11.892   8.672 -0.3258  0.1726  0.6758
   78MOL0     C10429   5.171  11.842   8.660 -0.1548  0.3315  1.0723
   78MOL0     C10430   5.104  11.782   8.764  0.4502 -0.8163 -0.6883
   78MOL0     O10431   4.973  11.757   8.765  0.2164 -0.3014 -0.1174
   78MOL0     C10432   4.890  11.741   8.646  0.1897 -0.0972  0.2896
   78MOL0     C10433   4.742  11.725   8.689  0.0656  1.0476 -0.1676
   78MOL0     C10434   4.647  11.807   8.594  0.2101  0.2725  0.0167
   78MOL0     C10435   4.512  11.793   8.658  0.6407  0.2480  0.6233
   78MOL0     C10436   4.471  11.887   8.761  0.6232  0.1313  0.4752
   78MOL0     C10437   4.320  11.859   8.819 -1.1385 -0.5121  0.1946
   78MOL0     C10438   4.339  11.784   8.950 -0.7029  0.5309 -0.7628
   78MOL0     C10439   4.204  11.747   9.022  0.1687  0.6720 -0.2360
   78MOL0    Cl10440   4.135  11.897   9.085 -0.3627 -0.1377  0.0831
   78MOL0     C10441   5.176  11.757   8.881 -0.0549  0.2021  0.3737
   78MOL0     C10442   5.316  11.789   8.889  0.7677 -0.2722  0.7179
   78MOL0     O10443   5.572  12.045   8.664 -0.2075 -0.0628  0.2106
   78MOL0     C10444   5.790  11.807   8.835 -0.4906  0.6986  0.5484
   78MOL0     C10445   5.924  11.772   8.855 -0.6589  0.2747 -0.6850
   78MOL0     N10446   6.687  11.754   9.146  0.1472  0.3970  0.1469
   78MOL0     N10447   6.673  11.767   9.276 -0.3136  0.6793 -0.4323
   78MOL0     C10448   6.228  11.800  10.283  0.3536 -0.5806 -0.8941
   78MOL0     C10449   6.174  11.681  10.342 -1.0958  0.4843  0.7033
   78MOL0     C10450   6.237  11.344  10.288 -0.3804  0.4622  0.3869
   78MOL0     C10451   6.222  11.305  10.150 -0.2207  0.0498  1.5258
   78MOL0     C10452   6.332  11.262  10.085 -0.1413  0.1456  0.1454
   78MOL0     C10453   6.459  11.264  10.147 -0.0805  0.1368 -0.0724
   78MOL0     O10454   6.572  11.214  10.093 -1.0513 -0.3315 -0.0193
   78MOL0     C10455   6.558  11.168   9.960  0.1439  0.1704  0.2379
   78MOL0     C10456   6.696  11.138   9.902 -0.7890 -0.3546  0.3220
   78MOL0     C10457   6.699  11.072   9.759  0.1747  0.0826 -1.6160
   78MOL0     C10458   6.614  10.948   9.748 -0.7458  0.6606  0.0567
   78MOL0     C10459   6.670  10.825   9.804  0.3891 -0.0185 -0.7010
   78MOL0     C10460   6.715  10.726   9.848 -1.1563 -0.2785 -0.2032
   78MOL0     C10461   6.471  11.302  10.279  0.3231  0.6674 -0.1865
   78MOL0     C10462   6.358  11.329  10.354  0.0818 -0.2484  0.1124
   78MOL0     H10463   6.016  11.559  10.068  0.9966 -2.3008  0.6142
   78MOL0     H10464   6.118  11.752   9.962 -1.5723  2.7373 -0.2145
   78MOL0     H10465   6.092  12.078  10.174  2.0695  0.1319  1.2131
   78MOL0     H10466   6.221  12.148  10.081 -1.3454  0.8781 -0.8541
   78MOL0     H10467   6.023  11.956   9.981 -0.8873  0.8278  1.8212
   78MOL0     H10468   6.033  12.125   9.947  0.5363 -0.2125 -0.3791
   78MOL0     H10469   6.289  12.058   9.868 -0.4236  0.5476  1.8385
   78MOL0     H10470   6.201  11.915   9.823 -2.3177 -0.0454 -2.0973
   78MOL0     H10471   6.034  12.100   9.710  0.6048  2.0609  0.4527
   78MOL0     H10472   6.183  12.199   9.707  0.0718  1.2272  3.3184
   78MOL0     H10473   6.159  11.907   9.590 -0.6583 -0.0160 -0.2767
   78MOL0     H10474   6.163  12.049   9.492  0.5924  3.9974  0.6424
   78MOL0     H10475   6.372  12.133   9.537  2.2205 -0.1153 -3.1972
   78MOL0     H10476   6.422  12.001   9.640  0.2611  0.4632  0.5967
   78MOL0     H10477   6.369  11.833   9.445  1.4546  0.0052  0.6520
   78MOL0     H10478   6.343  11.970   9.352  2.7748  1.3741 -0.6170
   78MOL0     H10479   6.608  11.884   9.489  2.9407 -1.0491 -1.8190
   78MOL0     H10480   6.594  12.043   9.417 -1.3726  0.7438  1.6232
   78MOL0     H10481   6.460  11.982   9.154  2.4431  3.1007 -0.5655
   78MOL0     H10482   6.653  11.887   8.877 -2.0126  0.0791 -0.5581
   78MOL0     H10483   6.586  11.719   8.903  2.8900  0.4485 -2.0011
   78MOL0     H10484   6.444  11.987   8.880 -0.7097  0.2636 -3.3485
   78MOL0     H10485   6.364  11.833   8.962 -1.8940 -0.2914 -2.7640
   78MOL0     H10486   6.399  11.711   8.777  4.3103 -0.4724  2.9106
   78MOL0     H10487   6.461  11.850   8.688  0.5483  2.0546  1.4919
   78MOL0     H10488   6.227  11.831   8.633 -0.3867 -2.2673  1.2656
   78MOL0     H10489   6.250  11.983   8.718 -1.3368  0.7242  2.7638
   78MOL0     H10490   6.053  12.034   8.685 -1.1478 -0.2745 -1.7565
   78MOL0     H10491   5.923  12.202   8.645  1.6385 -0.6893 -2.0676
   78MOL0     H10492   5.796  12.137   8.541 -0.3697 -1.3677 -0.1240
   78MOL0     H10493   5.762  12.204   8.698 -0.2980 -0.3703 -1.4203
   78MOL0     H10494   5.363  11.924   8.586  0.7038 -2.2738  0.3638
   78MOL0     H10495   5.130  11.861   8.561 -1.2661  1.6668  1.7475
   78MOL0     H10496   4.907  11.822   8.575  0.0346 -0.2091  0.1258
   78MOL0     H10497   4.913  11.646   8.597 -2.0031  0.6764 -2.4780
   78MOL0     H10498   4.704  11.623   8.682 -0.2481  1.1412  0.1145
   78MOL0     H10499   4.742  11.763   8.791 -0.2925  0.2021  0.1533
   78MOL0     H10500   4.634  11.760   8.496 -0.8805  0.9333 -0.1676
   78MOL0     H10501   4.677  11.912   8.589  0.1125  0.2543 -1.3145
   78MOL0     H10502   4.445  11.789   8.571  1.7695 -4.8682 -0.2836
   78MOL0     H10503   4.514  11.691   8.697  1.2076 -0.3501 -0.8726
   78MOL0     H10504   4.468  11.990   8.724 -1.3939  0.9178  2.5900
   78MOL0     H10505   4.549  11.880   8.837  2.3473  1.1566 -1.1100
   78MOL0     H10506   4.271  11.955   8.840  0.8896  0.2955  1.5435
   78MOL0     H10507   4.255  11.806   8.749 -4.8000  0.2495  2.6751
   78MOL0     H10508   4.393  11.855   9.013  0.0118 -0.7315  0.0823
   78MOL0     H10509   4.395  11.695   8.920 -0.8723  0.9120 -2.2601
   78MOL0     H10510   4.224  11.682   9.107 -0.6481  0.3887 -0.2521
   78MOL0     H10511   4.133  11.696   8.956 -1.3362  0.4725  1.4524
   78MOL0     H10512   5.146  11.729   8.982  1.0448 -0.6551  0.4796
   78MOL0     H10513   5.383  11.747   8.963  2.4104 -1.1204 -1.1542
   78MOL0     H10514   5.721  11.737   8.882 -0.5554 -0.3198 -0.9684
   78MOL0     H10515   5.943  11.679   8.908 -0.5718  0.3632 -0.5606
   78MOL0     H10516   6.282  11.864  10.352 -0.8373 -1.0132  0.4857
   78MOL0     H10517   6.199  11.676  10.448  2.5623 -0.4665 -0.0609
   78MOL0     H10518   6.127  11.315  10.098 -0.0665 -1.2409  0.9421
   78MOL0     H10519   6.316  11.249   9.978  0.1825  1.0079 -0.0186
   78MOL0     H10520   6.487  11.084   9.962 -0.5091  0.5853 -2.1106
   78MOL0     H10521   6.517  11.248   9.899  1.0595 -1.5172 -2.8189
   78MOL0     H10522   6.757  11.075   9.968  0.5953  0.6859  0.0913
   78MOL0     H10523   6.747  11.235   9.898  0.4784 -0.9349  1.3438
   78MOL0     H10524   6.798  11.043   9.724  0.2137 -1.5356 -0.3022
   78MOL0     H10525   6.659  11.141   9.684 -1.2919 -0.5085 -1.4183
   78MOL0     H10526   6.604  10.940   9.639  0.3946 -0.7389  0.0286
   78MOL0     H10527   6.510  10.955   9.782 -2.6055 -2.7013 -3.8925
   78MOL0     H10528   6.766  10.640   9.886  0.6479  0.4122 -0.9937
   78MOL0     H10529   6.568  11.309  10.329 -0.2716  2.2398  0.7918
   78MOL0     H10530   6.367  11.334  10.463  1.3608 -0.0470  0.0212
   79MOL0     O10531   3.181   8.078   1.526 -0.2407  0.2864 -0.1123
   79MOL0     C10532   3.098   8.135   1.593  0.7848 -0.0622 -0.4450
   79MOL0     O10533   3.079   8.113   1.729  0.5527  0.6600 -0.0300
   79MOL0     C10534   3.139   8.010   1.801  0.0090 -0.7497 -0.6043
   79MOL0     C10535   3.243   7.920   1.763  0.5184  0.4433  0.0407
   79MOL0     C10536   3.293   7.827   1.853 -0.3475 -0.1792 -0.4531
   79MOL0     C10537   3.236   7.811   1.978 -0.8185  0.4224  0.2371
   79MOL0     O10538   3.281   7.718   2.066  0.2442 -0.1035  0.6671
   79MOL0     C10539   3.241   7.582   2.044  0.0624 -0.2301 -0.4037
   79MOL0     C10540   3.301   7.480   2.134  0.2103  0.0094 -0.1332
   79MOL0     C10541   3.225   7.350   2.094  0.4753  1.0461 -0.3847
   79MOL0     C10542   3.267   7.247   2.197  0.3532 -0.5747  0.4311
   79MOL0     C10543   3.204   7.109   2.163 -1.3930 -0.5171 -0.0821
   79MOL0     C10544   3.065   7.104   2.220  0.3918 -0.4616 -0.0763
   79MOL0     C10545   2.967   7.002   2.151 -0.5188  0.7255 -0.9250
   79MOL0     C10546   3.006   6.866   2.198 -0.3329 -0.2898  0.0422
   79MOL0     N10547   2.961   6.768   2.107 -0.1607  0.0993  0.1949
   79MOL0     C10548   2.851   6.688   2.125 -0.5935 -0.6111 -0.0692
   79MOL0     C10549   2.836   6.630   2.002 -0.2775  0.0386 -0.2993
   79MOL0     C10550   2.726   6.535   1.970  0.1530  0.4624 -0.1703
   79MOL0     C10551   2.780   6.414   1.893 -0.2302 -0.0073 -0.3454
   79MOL0     C10552   2.826   6.295   1.978 -0.8643 -0.0174 -1.0480
   79MOL0     C10553   2.757   6.274   2.114 -0.9956  0.1716 -0.2051
   79MOL0     O10554   2.608   6.273   2.101 -0.4558 -0.4165  0.4525
   79MOL0     C10555   2.543   6.153   2.102  0.3867  0.6831 -0.7401
   79MOL0     C10556   2.601   6.027   2.085  0.4101  0.8596  0.8098
   79MOL0     C10557   2.523   5.912   2.059  0.3514 -0.4551 -0.7219
   79MOL0     C10558   2.594   5.785   2.026  0.7871 -0.4891 -0.4333
   79MOL0     C10559   2.382   5.919   2.074  0.4530 -0.3583  0.3554
   79MOL0     C10560   2.286   5.802   2.071 -1.1230  1.8025  0.4251
   79MOL0     O10561   2.148   5.837   2.058 -0.1726  0.4030  0.4638
   79MOL0     C10562   2.051   5.742   2.046  0.9852 -1.8371 -0.2041
   79MOL0     C10563   1.980   5.746   1.923 -0.6508  0.0312  0.3918
   79MOL0     C10564   1.892   5.643   1.888  0.0604  0.0025  0.6015
   79MOL0     C10565   1.864   5.534   1.980  0.0901 -0.0211  0.6946
   79MOL0     O10566   1.771   5.441   1.937 -0.1458 -0.5130 -0.9851
   79MOL0     C10567   1.777   5.397   1.799 -0.5311  0.4828 -0.2034
   79MOL0     C10568   1.766   5.242   1.799  0.4429  0.5233  0.3079
   79MOL0     C10569   1.617   5.201   1.812  0.4035  0.2625  0.3282
   79MOL0     C10570   1.550   5.174   1.677  0.7346  0.7054  0.5281
   79MOL0     C10571   1.413   5.133   1.694  0.5595  0.9717  0.0737
   79MOL0     C10572   1.305   5.216   1.767 -0.4130 -0.5177  0.8437
   79MOL0     C10573   1.315   5.370   1.748 -1.0733  0.3678 -0.0174
   79MOL0     C10574   1.176   5.433   1.724  0.2791 -0.2434  0.3415
   79MOL0    Cl10575   1.188   5.617   1.720  0.4689  0.2458 -0.3173
   79MOL0     C10576   1.939   5.528   2.104  0.1007  0.4039 -0.1119
   79MOL0     C10577   2.025   5.637   2.133 -0.0243  0.9713  0.3163
   79MOL0     O10578   2.328   5.687   2.067  0.2962 -0.1374  0.6389
   79MOL0     C10579   2.325   6.043   2.099 -0.2377 -0.0036 -0.1853
   79MOL0     C10580   2.402   6.160   2.106 -0.9258  0.2720  0.2091
   79MOL0     N10581   2.956   6.646   1.935  1.2188  0.6942  0.9028
   79MOL0     N10582   3.026   6.733   1.993 -0.4816 -0.4772  0.4726
   79MOL0     C10583   3.136   7.894   2.025 -0.9167 -0.8546 -0.8380
   79MOL0     C10584   3.095   7.996   1.936 -0.4325  0.5142 -0.2061
   79MOL0     C10585   2.993   8.213   1.524  0.5047 -0.8747  0.1133
   79MOL0     C10586   2.894   8.277   1.601 -0.9225 -0.1442 -0.6876
   79MOL0     C10587   2.798   8.359   1.544  0.5201 -0.5913 -0.0887
   79MOL0     C10588   2.793   8.381   1.402 -0.2794 -1.2749 -0.1260
   79MOL0     O10589   2.692   8.447   1.338 -0.2281  0.4386 -0.8832
   79MOL0     C10590   2.612   8.542   1.415 -0.7502  0.3760 -0.8383
   79MOL0     C10591   2.545   8.641   1.321 -0.7183  0.3585 -0.0761
   79MOL0     C10592   2.640   8.712   1.225  0.1299 -0.8905  0.5738
   79MOL0     C10593   2.566   8.821   1.139 -1.0387 -0.0424 -1.1822
   79MOL0     C10594   2.687   8.878   1.063 -0.2406 -0.2341 -0.2920
   79MOL0     C10595   2.791   8.909   1.005  0.3708  0.2820 -0.0138
   79MOL0     C10596   2.889   8.319   1.323 -0.4443  0.8147  0.0882
   79MOL0     C10597   2.990   8.233   1.380  0.2425  0.2526 -0.8743
   79MOL0     H10598   3.269   7.903   1.659  0.3354  1.6258 -0.2108
   79MOL0     H10599   3.370   7.759   1.818  0.3709  0.5791 -0.3674
   79MOL0     H10600   3.134   7.596   2.062  0.6943  2.8115  1.8440
   79MOL0     H10601   3.248   7.544   1.941  0.4476  1.4054 -1.0163
   79MOL0     H10602   3.408   7.462   2.116  0.3622 -0.1217  0.8435
   79MOL0     H10603   3.287   7.516   2.236 -1.7879  4.6527 -1.7557
   79MOL0     H10604   3.116   7.354   2.096  0.1760 -3.3252  0.7696
   79MOL0     H10605   3.251   7.320   1.992  0.4005  1.5869 -0.5690
   79MOL0     H10606   3.376   7.248   2.192  0.3868  2.3747 -0.0236
   79MOL0     H10607   3.239   7.289   2.294  1.6024 -0.4053  0.7311
   79MOL0     H10608   3.219   7.071   2.061  3.8315  0.1486  0.1683
   79MOL0     H10609   3.260   7.036   2.221  2.0796  2.4561  0.6183
   79MOL0     H10610   3.068   7.093   2.329 -1.9179  2.3633  0.3987
   79MOL0     H10611   3.010   7.199   2.216  0.4923 -0.4221 -0.6091
   79MOL0     H10612   2.864   7.020   2.183 -0.4961 -1.0703  0.3280
   79MOL0     H10613   2.978   7.010   2.043 -1.1261  0.1964 -1.0259
   79MOL0     H10614   2.954   6.851   2.293 -1.0414  2.3331  0.1459
   79MOL0     H10615   3.113   6.850   2.214 -0.2401  2.1862  2.6602
   79MOL0     H10616   2.778   6.692   2.205  0.1856  2.1667  0.5960
   79MOL0     H10617   2.667   6.500   2.055  1.8734 -1.0265  0.4922
   79MOL0     H10618   2.664   6.597   1.905 -1.4925 -0.2622  0.6652
   79MOL0     H10619   2.865   6.447   1.833  0.9396 -0.5733  0.9709
   79MOL0     H10620   2.701   6.366   1.834 -0.0904 -1.5058  0.6219
   79MOL0     H10621   2.930   6.305   2.010 -0.3836  3.2279 -3.1259
   79MOL0     H10622   2.810   6.202   1.924 -3.0068  0.9974 -2.2967
   79MOL0     H10623   2.776   6.359   2.180 -3.2134 -0.2780  1.1216
   79MOL0     H10624   2.795   6.185   2.165  3.0117  1.1487 -1.1918
   79MOL0     H10625   2.705   6.000   2.078 -0.4180 -3.0033  1.1424
   79MOL0     H10626   2.694   5.789   1.982  0.0948  1.5196 -2.0064
   79MOL0     H10627   2.593   5.734   2.123 -0.8204 -0.3417 -0.3399
   79MOL0     H10628   2.536   5.729   1.953  3.1023 -0.1106 -2.7009
   79MOL0     H10629   1.999   5.830   1.857  0.0244 -0.1332  0.3745
   79MOL0     H10630   1.844   5.647   1.791 -0.5094 -2.3021  0.7123
   79MOL0     H10631   1.692   5.433   1.741 -1.9272 -3.0791 -0.6277
   79MOL0     H10632   1.870   5.427   1.748 -1.2929  1.3574 -1.1151
   79MOL0     H10633   1.805   5.198   1.707  0.8140 -1.1635  1.2258
   79MOL0     H10634   1.818   5.203   1.887  0.4806 -0.0770  0.0259
   79MOL0     H10635   1.558   5.283   1.855 -3.7410 -2.1500 -0.1873
   79MOL0     H10636   1.605   5.110   1.873 -0.8203 -0.1754 -0.5268
   79MOL0     H10637   1.549   5.268   1.621 -0.0110  0.8262  0.7343
   79MOL0     H10638   1.603   5.095   1.622 -1.4400 -0.2548 -0.2954
   79MOL0     H10639   1.421   5.033   1.738  0.8649  1.3025  0.7898
   79MOL0     H10640   1.365   5.125   1.596  3.1409 -0.9255 -1.1588
   79MOL0     H10641   1.206   5.176   1.744 -0.3707  0.5127 -1.4547
   79MOL0     H10642   1.313   5.197   1.874  0.7864 -0.2443  0.8222
   79MOL0     H10643   1.368   5.389   1.654  2.1978  0.0864  1.6156
   79MOL0     H10644   1.365   5.431   1.824 -1.4768  0.7395 -0.0475
   79MOL0     H10645   1.095   5.402   1.791 -0.0192 -1.3733 -0.4990
   79MOL0     H10646   1.140   5.392   1.629 -2.5168  2.3425  0.1401
   79MOL0     H10647   1.906   5.461   2.183 -0.0924  3.8082  2.9315
   79MOL0     H10648   2.083   5.628   2.224 -2.0760 -2.0711  1.4624
   79MOL0     H10649   2.217   6.051   2.111 -0.0809  1.2587  0.5653
   79MOL0     H10650   2.350   6.252   2.132  0.6258  0.6191  2.3250
   79MOL0     H10651   3.093   7.870   2.122  0.5369 -1.8277 -0.4152
   79MOL0     H10652   3.017   8.068   1.956 -2.2180 -1.1287 -0.9809
   79MOL0     H10653   2.900   8.271   1.710  4.0241  0.5072 -0.7285
   79MOL0     H10654   2.717   8.400   1.603  0.1783  0.2713 -1.1267
   79MOL0     H10655   2.533   8.481   1.460  1.0750 -2.5603 -1.3210
   79MOL0     H10656   2.667   8.600   1.490 -0.7353  1.7728 -1.8929
   79MOL0     H10657   2.506   8.724   1.381 -0.0559  0.1249  0.7081
   79MOL0     H10658   2.467   8.594   1.261 -0.0163  1.6991 -2.1338
   79MOL0     H10659   2.680   8.643   1.149 -0.3143 -0.9105  0.3556
   79MOL0     H10660   2.721   8.753   1.286 -0.3059 -1.1294  1.3242
   79MOL0     H10661   2.515   8.896   1.200 -0.0178  0.8338 -1.3701
   79MOL0     H10662   2.506   8.773   1.061 -1.9204 -2.3236  0.7476
   79MOL0     H10663   2.876   8.927   0.943 -0.9393  0.0850 -1.9655
   79MOL0     H10664   2.889   8.349   1.219 -0.7746 -0.5660 -0.3302
   79MOL0     H10665   3.061   8.187   1.312 -0.6637 -0.4098 -1.3937
   80MOL0     O10666   3.965   3.494   3.028 -0.2316 -0.2356  0.1724
   80MOL0     C10667   4.048   3.542   2.944 -0.2779  0.4688  0.0235
   80MOL0     O10668   4.173   3.598   2.977  0.2406 -0.1441 -0.1184
   80MOL0     C10669   4.226   3.569   3.094  0.0408 -0.3872 -0.4290
   80MOL0     C10670   4.252   3.679   3.178 -0.2306  0.0246  0.5942
   80MOL0     C10671   4.313   3.659   3.305  0.0708 -0.5779  0.3959
   80MOL0     C10672   4.342   3.528   3.342 -0.3317  0.4008 -0.1624
   80MOL0     O10673   4.401   3.502   3.461  0.7268  0.1793  0.2938
   80MOL0     C10674   4.533   3.430   3.460  0.1347  0.6167 -0.3168
   80MOL0     C10675   4.520   3.294   3.538  0.1543  0.2492 -0.0417
   80MOL0     C10676   4.491   3.307   3.695  0.4569 -0.2238  0.8780
   80MOL0     C10677   4.488   3.169   3.761  0.5290  1.0537 -0.2303
   80MOL0     C10678   4.622   3.119   3.803 -0.8028  0.5436 -0.3506
   80MOL0     C10679   4.614   2.973   3.834  0.0976 -0.1088  0.2363
   80MOL0     C10680   4.743   2.916   3.899  0.0639  0.0840 -0.0142
   80MOL0     C10681   4.731   2.771   3.929 -0.6041 -0.0735 -0.4552
   80MOL0     N10682   4.818   2.737   4.049 -0.8562  0.0989 -0.6819
   80MOL0     C10683   4.807   2.788   4.175 -0.8641  0.7521 -0.4161
   80MOL0     C10684   4.897   2.725   4.254 -0.3150 -0.0738  0.0390
   80MOL0     C10685   4.896   2.749   4.402 -0.1754 -0.0087 -0.4025
   80MOL0     C10686   5.020   2.692   4.460  0.1367 -0.7222 -0.3631
   80MOL0     C10687   5.022   2.705   4.606  0.2473  0.7446 -0.4193
   80MOL0     C10688   4.962   2.580   4.670  0.2316 -0.1198  0.0069
   80MOL0     O10689   4.820   2.565   4.656  1.3788 -0.0269  0.0843
   80MOL0     C10690   4.758   2.481   4.752 -0.2680 -0.2567  0.3211
   80MOL0     C10691   4.618   2.463   4.733 -0.0938  0.5449  0.5009
   80MOL0     C10692   4.541   2.381   4.811 -0.3241 -0.3902  0.9452
   80MOL0     C10693   4.386   2.386   4.785  0.1400  0.2584 -0.7600
   80MOL0     C10694   4.599   2.316   4.918  0.4668 -0.0718  0.5754
   80MOL0     C10695   4.524   2.223   5.004  0.4076 -0.2449  0.1226
   80MOL0     O10696   4.574   2.219   5.129 -0.8339  0.0030 -0.6732
   80MOL0     C10697   4.502   2.139   5.213 -0.5823  0.7862  0.9918
   80MOL0     C10698   4.404   2.183   5.301 -0.0927  0.3529 -1.4104
   80MOL0     C10699   4.350   2.095   5.399 -0.2036 -0.9059 -0.2936
   80MOL0     C10700   4.389   1.963   5.411 -0.2813  0.0501 -0.0779
   80MOL0     O10701   4.351   1.862   5.497 -0.2233 -0.6542 -0.7422
   80MOL0     C10702   4.259   1.869   5.608 -0.1240  0.4855  0.5981
   80MOL0     C10703   4.338   1.903   5.736 -0.0528  0.0373  0.6531
   80MOL0     C10704   4.441   1.796   5.791  0.4854 -0.9639 -1.1657
   80MOL0     C10705   4.588   1.827   5.748 -0.6332  0.9435  0.2284
   80MOL0     C10706   4.688   1.730   5.799 -0.3895 -0.1177 -0.0425
   80MOL0     C10707   4.700   1.607   5.716  0.4928 -0.2874  0.4348
   80MOL0     C10708   4.784   1.500   5.785 -0.9523 -0.3891 -0.0086
   80MOL0     C10709   4.942   1.533   5.787  0.2413  0.0518  0.6030
   80MOL0    Cl10710   4.995   1.552   5.622 -0.0017 -0.2954 -0.1817
   80MOL0     C10711   4.502   1.923   5.343 -0.2074  0.0080 -0.5022
   80MOL0     C10712   4.557   2.005   5.242 -0.3573 -0.5037  0.5970
   80MOL0     O10713   4.430   2.163   4.964 -0.1441 -0.0479  0.1211
   80MOL0     C10714   4.735   2.341   4.941 -1.0696  0.1512 -0.0055
   80MOL0     C10715   4.821   2.417   4.865  0.6637 -0.0247  0.2947
   80MOL0     N10716   4.966   2.638   4.175  0.0872 -0.3958  0.3571
   80MOL0     N10717   4.917   2.644   4.053  0.9395 -0.0746 -0.2208
   80MOL0     C10718   4.321   3.417   3.256  0.1534  0.0703 -0.7415
   80MOL0     C10719   4.252   3.441   3.135  0.3403 -0.0503  0.9840
   80MOL0     C10720   4.004   3.554   2.799 -0.5380 -1.0601  0.9036
   80MOL0     C10721   3.879   3.503   2.757  0.0855 -0.5654  0.6315
   80MOL0     C10722   3.828   3.515   2.622 -0.7619  0.0721 -0.3442
   80MOL0     C10723   3.910   3.582   2.532 -0.1388 -1.0704  0.5831
   80MOL0     O10724   3.884   3.598   2.400  0.5790  0.0404  0.2339
   80MOL0     C10725   3.966   3.514   2.312  0.8830 -0.1507 -0.7344
   80MOL0     C10726   3.923   3.371   2.296 -0.8083 -0.2929 -0.1821
   80MOL0     C10727   4.014   3.291   2.198 -0.5046 -0.7448 -0.6513
   80MOL0     C10728   4.070   3.169   2.262 -0.1172  0.0126  0.0844
   80MOL0     C10729   4.179   3.118   2.175  0.2988 -0.5077  0.6468
   80MOL0     C10730   4.236   3.080   2.076 -0.8477  0.6263  0.4564
   80MOL0     C10731   4.033   3.632   2.573  0.8074 -0.4986 -0.4497
   80MOL0     C10732   4.077   3.614   2.700 -0.8353  0.0408  0.0904
   80MOL0     H10733   4.221   3.780   3.153  1.8223  1.6557  3.9721
   80MOL0     H10734   4.319   3.731   3.385 -0.8886  0.5676 -0.5291
   80MOL0     H10735   4.571   3.402   3.361  0.6078  1.2057 -0.3066
   80MOL0     H10736   4.610   3.489   3.511 -0.7508  0.7194  0.9512
   80MOL0     H10737   4.425   3.257   3.500  0.3118  0.5324 -0.7207
   80MOL0     H10738   4.593   3.220   3.505 -0.0677  0.2995 -0.6557
   80MOL0     H10739   4.564   3.376   3.738  2.6215  0.7204 -3.6930
   80MOL0     H10740   4.388   3.345   3.697  0.1407 -0.9519 -0.5063
   80MOL0     H10741   4.431   3.189   3.852 -0.3530  0.3465 -0.6111
   80MOL0     H10742   4.429   3.100   3.701  1.4282 -0.2844  0.3792
   80MOL0     H10743   4.687   3.128   3.715 -0.8007  0.1723 -0.3881
   80MOL0     H10744   4.657   3.169   3.894 -0.3577 -1.1862  0.4779
   80MOL0     H10745   4.536   2.946   3.906  1.3336 -2.8069  0.6893
   80MOL0     H10746   4.592   2.924   3.739  3.3896 -4.2482  1.3118
   80MOL0     H10747   4.831   2.944   3.839 -1.4319  1.7689 -1.5465
   80MOL0     H10748   4.759   2.979   3.987  2.0735 -0.4122  0.0357
   80MOL0     H10749   4.753   2.709   3.842 -3.1965  1.8983 -2.6699
   80MOL0     H10750   4.631   2.751   3.968  0.1447  0.7921  2.1339
   80MOL0     H10751   4.744   2.868   4.212 -0.8884  0.4897  0.1196
   80MOL0     H10752   4.885   2.856   4.421  1.2447  0.2207 -0.7558
   80MOL0     H10753   4.809   2.702   4.450  0.0251  1.3558  1.4069
   80MOL0     H10754   5.101   2.749   4.414 -0.8743 -0.4024 -1.8137
   80MOL0     H10755   5.032   2.592   4.417 -0.1162  0.0026 -2.2445
   80MOL0     H10756   4.986   2.802   4.643  1.4023  1.3167 -0.7521
   80MOL0     H10757   5.128   2.706   4.632  0.4435  1.6833 -1.1766
   80MOL0     H10758   4.986   2.596   4.775  3.1659  1.7880 -0.8466
   80MOL0     H10759   5.021   2.497   4.631  1.8544  1.8738 -2.0564
   80MOL0     H10760   4.575   2.522   4.653  0.0392  1.2797  0.9639
   80MOL0     H10761   4.362   2.322   4.699  5.3752  1.0535 -3.2028
   80MOL0     H10762   4.323   2.353   4.868 -1.7295  3.0572 -0.9330
   80MOL0     H10763   4.351   2.488   4.773  1.0916  0.8937  1.3518
   80MOL0     H10764   4.381   2.289   5.301  0.7262  0.5850  0.6904
   80MOL0     H10765   4.274   2.134   5.466  1.6810  3.9046 -0.5865
   80MOL0     H10766   4.179   1.944   5.600 -2.3068 -1.6556  1.0800
   80MOL0     H10767   4.214   1.771   5.624  2.1910 -0.2159  3.6661
   80MOL0     H10768   4.371   2.007   5.744 -2.9586  1.3436 -1.9336
   80MOL0     H10769   4.262   1.905   5.814 -0.9131  0.9085 -0.1852
   80MOL0     H10770   4.413   1.692   5.771 -3.7265 -0.6293  1.7538
   80MOL0     H10771   4.447   1.789   5.900  1.6930 -1.9796 -1.2601
   80MOL0     H10772   4.602   1.816   5.640 -1.7882 -3.5109  0.3220
   80MOL0     H10773   4.624   1.925   5.780  2.4554 -1.0200  3.5141
   80MOL0     H10774   4.663   1.725   5.906 -1.8186 -0.1569 -0.3559
   80MOL0     H10775   4.786   1.776   5.814  0.0259 -0.9838 -0.0176
   80MOL0     H10776   4.604   1.561   5.691  1.0009 -0.8617 -0.5702
   80MOL0     H10777   4.752   1.630   5.622 -0.8815 -1.6754 -0.7337
   80MOL0     H10778   4.768   1.408   5.727  1.3544  1.0998 -3.3078
   80MOL0     H10779   4.735   1.474   5.879  0.9101 -2.1987  0.5326
   80MOL0     H10780   5.005   1.451   5.824 -0.0787 -0.1476  0.7149
   80MOL0     H10781   4.958   1.617   5.855  0.3640 -0.7777  1.6221
   80MOL0     H10782   4.524   1.819   5.365 -3.0710 -0.3426  1.1836
   80MOL0     H10783   4.642   1.970   5.183  3.2974  0.6978  4.6016
   80MOL0     H10784   4.790   2.303   5.027 -0.5420  0.2737 -0.2821
   80MOL0     H10785   4.924   2.430   4.896  0.6705 -1.1767  0.8059
   80MOL0     H10786   4.342   3.315   3.287  0.4362  0.4796  0.4652
   80MOL0     H10787   4.214   3.357   3.077 -2.1739 -0.0074  2.4123
   80MOL0     H10788   3.817   3.446   2.826  0.1063 -0.5532  0.6603
   80MOL0     H10789   3.734   3.472   2.592 -0.0749 -0.2827 -2.0917
   80MOL0     H10790   3.961   3.561   2.213 -3.1583  1.5100  0.0503
   80MOL0     H10791   4.070   3.505   2.343  0.5010 -0.8631  0.3877
   80MOL0     H10792   3.824   3.365   2.251 -1.2113  1.3673  0.4192
   80MOL0     H10793   3.908   3.309   2.384 -1.0362 -0.6428 -0.4670
   80MOL0     H10794   4.096   3.361   2.181 -0.0475 -0.6133  1.7838
   80MOL0     H10795   3.950   3.265   2.114 -2.8004 -3.7920  1.8336
   80MOL0     H10796   3.997   3.088   2.270 -0.4482 -0.0192 -2.5450
   80MOL0     H10797   4.108   3.192   2.362  0.0764 -1.2401  0.3147
   80MOL0     H10798   4.285   3.028   1.996  0.0102  1.2977  0.5252
   80MOL0     H10799   4.084   3.697   2.502 -0.2954  1.4006  0.4181
   80MOL0     H10800   4.170   3.658   2.735 -0.2085 -2.6138  2.0018
   81MOL0     O10801   7.873   6.591   5.642  0.4092 -0.5671  0.2019
   81MOL0     C10802   7.753   6.592   5.665 -0.0540  0.4293 -0.5310
   81MOL0     O10803   7.666   6.698   5.644  0.4594  0.9834  0.7063
   81MOL0     C10804   7.715   6.804   5.582  0.4417 -0.9209  0.5808
   81MOL0     C10805   7.662   6.851   5.458 -0.0301 -0.8771 -1.1436
   81MOL0     C10806   7.735   6.951   5.392  0.6714 -0.3802 -0.4279
   81MOL0     C10807   7.849   7.015   5.445  1.0733 -0.4351 -1.2212
   81MOL0     O10808   7.910   7.131   5.394 -0.0224  0.5185 -0.4537
   81MOL0     C10809   7.874   7.198   5.270 -0.2213 -0.0251  0.2416
   81MOL0     C10810   7.938   7.331   5.264 -0.7311 -0.1533  0.6680
   81MOL0     C10811   7.920   7.409   5.142 -0.8217  0.7957  0.2041
   81MOL0     C10812   7.959   7.556   5.157  0.7466  0.1981 -0.0521
   81MOL0     C10813   7.956   7.635   5.035 -0.8337 -0.0366  0.3205
   81MOL0     C10814   8.018   7.773   5.052  0.8189 -1.0836  0.3497
   81MOL0     C10815   8.037   7.862   4.932  0.3255 -0.4103  1.2528
   81MOL0     C10816   8.106   7.985   4.980 -0.3781 -0.2528 -0.1307
   81MOL0     N10817   8.151   8.072   4.868  0.4225  0.1930  0.1139
   81MOL0     C10818   8.130   8.209   4.852 -0.6784  0.4700 -0.3157
   81MOL0     C10819   8.157   8.232   4.719  0.4884 -0.5297 -0.3452
   81MOL0     C10820   8.148   8.371   4.651  0.1186 -0.0004  0.3642
   81MOL0     C10821   8.287   8.444   4.671 -0.4573 -0.1392 -0.2388
   81MOL0     C10822   8.354   8.521   4.552 -0.5388  1.0731  0.7889
   81MOL0     C10823   8.284   8.649   4.524  0.0457 -0.7501  0.3278
   81MOL0     O10824   8.335   8.751   4.605 -0.5988 -0.6259  0.1884
   81MOL0     C10825   8.450   8.814   4.566  0.0257  0.5398  1.0115
   81MOL0     C10826   8.484   8.847   4.431 -0.1481  0.1186 -0.9113
   81MOL0     C10827   8.609   8.900   4.408  0.1065 -0.1536 -0.3824
   81MOL0     C10828   8.649   8.897   4.269  0.4967  0.6124  1.5856
   81MOL0     C10829   8.699   8.937   4.509  0.0638 -0.3705 -0.1131
   81MOL0     C10830   8.831   8.994   4.494 -0.5981 -0.1473  0.4250
   81MOL0     O10831   8.832   9.118   4.440 -0.0508 -0.0343 -0.1076
   81MOL0     C10832   8.956   9.176   4.419  0.2554 -1.0202  1.3929
   81MOL0     C10833   8.988   9.237   4.287 -0.2276  1.1079 -0.1310
   81MOL0     C10834   9.105   9.309   4.274  0.6077  0.5457 -0.7405
   81MOL0     C10835   9.197   9.311   4.380  0.5110 -0.0819 -0.3312
   81MOL0     O10836   9.316   9.371   4.361  0.4376 -0.2548  0.0149
   81MOL0     C10837   9.321   9.515   4.370  0.6252  0.0291 -0.1312
   81MOL0     C10838   9.454   9.557   4.332  0.5848  0.6547  0.5865
   81MOL0     C10839   9.566   9.516   4.428  0.6041  0.7186 -0.0739
   81MOL0     C10840   9.545   9.541   4.585  0.1572  0.8367  0.5501
   81MOL0     C10841   9.661   9.482   4.675  0.3892  0.4224  0.3075
   81MOL0     C10842   9.797   9.453   4.599  1.3214 -0.0542 -0.8704
   81MOL0     C10843   9.900   9.406   4.707  0.8120 -0.4795 -0.5274
   81MOL0     C10844   9.986   9.283   4.642 -0.3492 -1.2323  0.9086
   81MOL0    Cl10845   9.894   9.136   4.615  0.0014  0.4119 -0.0906
   81MOL0     C10846   9.167   9.263   4.504 -0.0720 -0.2816  0.3294
   81MOL0     C10847   9.048   9.191   4.518 -0.3163  0.2654  0.1373
   81MOL0     O10848   8.924   8.922   4.524 -0.4804 -0.6280  0.0683
   81MOL0     C10849   8.670   8.898   4.637 -0.1372 -0.5015 -0.1635
   81MOL0     C10850   8.544   8.844   4.664 -0.4747  0.2890  0.1276
   81MOL0     N10851   8.222   8.124   4.669 -0.2849 -0.4111  0.1302
   81MOL0     N10852   8.207   8.022   4.754 -0.1427  0.2745 -0.0484
   81MOL0     C10853   7.903   6.973   5.567 -0.1177 -0.8811 -0.3686
   81MOL0     C10854   7.838   6.867   5.628 -0.1883  0.2441  0.2826
   81MOL0     C10855   7.689   6.464   5.689 -0.1184 -0.4277 -0.1464
   81MOL0     C10856   7.777   6.358   5.692  0.1008 -1.1968 -0.2906
   81MOL0     C10857   7.724   6.233   5.714  0.1917 -0.0192 -0.7454
   81MOL0     C10858   7.592   6.207   5.728 -0.4625 -0.9124 -0.2714
   81MOL0     O10859   7.555   6.079   5.746 -0.2354  0.0353 -0.1449
   81MOL0     C10860   7.419   6.033   5.734 -0.3967  0.2640  0.5454
   81MOL0     C10861   7.383   5.982   5.602  0.5101 -0.2779 -0.3809
   81MOL0     C10862   7.229   5.953   5.617  0.3451  0.7768  0.4906
   81MOL0     C10863   7.175   5.893   5.492 -0.1471 -0.2475  0.6393
   81MOL0     C10864   7.159   5.978   5.373  0.6733  0.1513 -0.2273
   81MOL0     C10865   7.162   6.046   5.265 -0.2676 -0.8570 -0.3869
   81MOL0     C10866   7.496   6.314   5.715  0.0809  0.5044  0.0767
   81MOL0     C10867   7.550   6.449   5.706  0.0304  1.0834 -0.3268
   81MOL0     H10868   7.573   6.797   5.429  0.1586 -1.9168  0.1285
   81MOL0     H10869   7.681   6.993   5.308 -0.8285  1.5452  1.3867
   81MOL0     H10870   7.908   7.143   5.182 -1.8234 -1.2216  0.3137
   81MOL0     H10871   7.765   7.211   5.261 -0.0270  3.4182  1.3399
   81MOL0     H10872   7.892   7.390   5.345 -1.9390  1.5219 -1.1343
   81MOL0     H10873   8.046   7.326   5.277 -0.9294  0.6304  3.4661
   81MOL0     H10874   7.962   7.355   5.056 -0.8353  0.7262  0.2405
   81MOL0     H10875   7.813   7.404   5.118 -0.6913 -2.3367 -0.1356
   81MOL0     H10876   7.892   7.607   5.227 -1.7768  0.9224 -2.7705
   81MOL0     H10877   8.060   7.565   5.198  1.1996 -1.0421 -0.8406
   81MOL0     H10878   8.022   7.580   4.968 -1.2808  1.5506 -1.5507
   81MOL0     H10879   7.852   7.628   5.000 -1.2866  1.6030  1.2481
   81MOL0     H10880   7.971   7.835   5.129 -0.1916 -1.4304  0.0195
   81MOL0     H10881   8.116   7.773   5.101  0.8318  2.1840  0.5804
   81MOL0     H10882   8.103   7.810   4.861 -0.4764 -0.2456  0.3750
   81MOL0     H10883   7.942   7.892   4.887 -0.9633 -0.7523  3.5806
   81MOL0     H10884   8.192   7.950   5.038 -2.1081 -0.5664  2.4222
   81MOL0     H10885   8.043   8.046   5.045  3.1221 -1.6815  5.2769
   81MOL0     H10886   8.092   8.282   4.923  0.0460  1.0873 -0.5458
   81MOL0     H10887   8.128   8.349   4.546  2.4559 -1.1418  0.0748
   81MOL0     H10888   8.071   8.436   4.694  0.5006  2.0823 -1.8481
   81MOL0     H10889   8.361   8.372   4.707 -1.4858 -1.2624 -0.3086
   81MOL0     H10890   8.285   8.510   4.758  1.2040 -0.7392  0.2952
   81MOL0     H10891   8.356   8.455   4.465 -1.7360 -0.6578  1.9889
   81MOL0     H10892   8.460   8.539   4.568 -0.0055 -1.4711  0.6409
   81MOL0     H10893   8.178   8.635   4.548 -0.4979 -1.2422 -2.0801
   81MOL0     H10894   8.279   8.678   4.419  1.6952 -0.6910  0.2457
   81MOL0     H10895   8.419   8.819   4.348 -1.5511 -2.3580  0.8737
   81MOL0     H10896   8.661   8.795   4.232  0.2022  0.4836  1.8457
   81MOL0     H10897   8.575   8.945   4.204  1.5029  0.6627  0.4329
   81MOL0     H10898   8.742   8.951   4.250  0.6946 -0.4245 -0.8026
   81MOL0     H10899   8.918   9.234   4.204 -1.6820 -2.7446  0.9669
   81MOL0     H10900   9.127   9.357   4.179 -0.8490 -1.8269 -2.3550
   81MOL0     H10901   9.255   9.555   4.292  3.2225 -0.9985 -3.0209
   81MOL0     H10902   9.298   9.555   4.470  0.1504 -2.2463  0.7190
   81MOL0     H10903   9.484   9.522   4.232  2.3254 -0.4310  1.4382
   81MOL0     H10904   9.454   9.666   4.330  1.9846  0.7734  3.0430
   81MOL0     H10905   9.658   9.563   4.393  1.6916  1.9721  3.9150
   81MOL0     H10906   9.583   9.408   4.422 -1.4792  0.3999 -1.0292
   81MOL0     H10907   9.546   9.649   4.601  2.8914  0.9677  0.0715
   81MOL0     H10908   9.450   9.500   4.619  0.8589 -1.3175  0.0602
   81MOL0     H10909   9.626   9.386   4.715 -1.6580  2.1990  3.1417
   81MOL0     H10910   9.672   9.547   4.762  0.5864 -0.2869  0.8179
   81MOL0     H10911   9.783   9.378   4.520  0.6202 -0.1613 -0.6520
   81MOL0     H10912   9.848   9.534   4.547  1.6459 -1.0597 -2.1727
   81MOL0     H10913   9.850   9.369   4.797  0.2158 -1.8791 -1.4000
   81MOL0     H10914   9.968   9.482   4.745 -1.2333  2.0544 -1.5576
   81MOL0     H10915  10.070   9.265   4.709 -0.0022 -1.2017  0.4894
   81MOL0     H10916  10.028   9.322   4.549  2.3749  1.8865  3.1940
   81MOL0     H10917   9.232   9.270   4.591  0.8230  1.6060 -0.4454
   81MOL0     H10918   9.023   9.132   4.606 -2.3781 -1.3481 -1.4229
   81MOL0     H10919   8.736   8.919   4.720  0.0160 -2.3266  0.2275
   81MOL0     H10920   8.527   8.830   4.770 -1.0982  0.3290  0.0390
   81MOL0     H10921   7.987   7.024   5.612 -1.1633 -0.2797  0.9911
   81MOL0     H10922   7.876   6.836   5.724  2.9155  0.1456 -0.8506
   81MOL0     H10923   7.882   6.385   5.695 -0.3201  0.6285 -0.7405
   81MOL0     H10924   7.791   6.148   5.720  1.2850  0.8940  1.3941
   81MOL0     H10925   7.416   5.944   5.797 -1.1114 -1.0429 -1.2419
   81MOL0     H10926   7.352   6.107   5.779 -1.0335  0.3221 -0.4729
   81MOL0     H10927   7.433   5.886   5.582 -4.3625 -2.8720 -1.7534
   81MOL0     H10928   7.406   6.048   5.518  0.8316  0.7510  0.4926
   81MOL0     H10929   7.167   6.042   5.630 -3.6007 -1.9654  2.8305
   81MOL0     H10930   7.204   5.888   5.702  4.6058 -1.1904  0.5186
   81MOL0     H10931   7.078   5.846   5.512  0.2746  0.0286  3.8376
   81MOL0     H10932   7.240   5.807   5.472  1.3235  1.4217 -2.5109
   81MOL0     H10933   7.168   6.086   5.166  1.0694 -1.1986 -0.4594
   81MOL0     H10934   7.390   6.293   5.717  0.1930 -0.7959  5.1844
   81MOL0     H10935   7.490   6.540   5.714 -1.0234  0.2901  1.5547
   82MOL0     O10936   8.624   0.386   4.844 -0.5278  0.5578 -0.7164
   82MOL0     C10937   8.552   0.352   4.752 -0.5260 -0.8002  0.3110
   82MOL0     O10938   8.526   0.439   4.651 -0.8018 -0.4552 -0.1115
   82MOL0     C10939   8.543   0.572   4.659  0.1015 -0.3968  1.0182
   82MOL0     C10940   8.522   0.652   4.780 -0.1883  0.5267  0.2820
   82MOL0     C10941   8.528   0.793   4.778 -0.6515 -0.1399 -0.9040
   82MOL0     C10942   8.555   0.859   4.659 -0.1028 -1.0108 -0.4715
   82MOL0     O10943   8.564   0.994   4.660 -0.6264  0.1002  1.0063
   82MOL0     C10944   8.648   1.062   4.565  0.1141  1.2950  0.6154
   82MOL0     C10945   8.689   1.181   4.644  0.3385 -0.2748 -1.2875
   82MOL0     C10946   8.790   1.274   4.576 -1.2256 -0.1383 -0.0299
   82MOL0     C10947   8.937   1.224   4.574 -0.7335  0.7979  0.2137
   82MOL0     C10948   9.036   1.299   4.481 -0.5856  0.3194 -0.3821
   82MOL0     C10949   9.167   1.221   4.459 -1.1549  0.5852  0.1503
   82MOL0     C10950   9.162   1.116   4.341 -0.6952 -0.4610 -0.1498
   82MOL0     C10951   9.071   1.003   4.376 -0.0165  1.3874 -0.6265
   82MOL0     N10952   9.091   0.884   4.289 -0.3773 -0.4388  0.0853
   82MOL0     C10953   9.149   0.760   4.319 -0.5150 -0.1667 -0.4813
   82MOL0     C10954   9.159   0.703   4.202 -1.3366  0.5188  0.0744
   82MOL0     C10955   9.194   0.562   4.200 -0.1468 -0.4727  0.0487
   82MOL0     C10956   9.354   0.546   4.219 -0.7004  0.1979 -0.0238
   82MOL0     C10957   9.394   0.402   4.258 -0.9332 -0.2923 -0.3599
   82MOL0     C10958   9.417   0.330   4.136  0.7338  0.7298  0.2683
   82MOL0     O10959   9.448   0.198   4.168  0.8160  1.3775 -0.0949
   82MOL0     C10960   9.362   0.095   4.132 -0.0208 -0.4887  1.0434
   82MOL0     C10961   9.262   0.100   4.045 -0.0623 -0.9357 -0.0411
   82MOL0     C10962   9.160   0.005   4.027  0.2064  0.4925 -0.3716
   82MOL0     C10963   9.041   0.035   3.945 -0.0994  0.2929 -0.1607
   82MOL0     C10964   9.174  -0.117   4.091 -0.1178 -0.6329 -0.4867
   82MOL0     C10965   9.093  -0.236   4.080  1.1386 -0.6538  0.2102
   82MOL0     O10966   9.162  -0.354   4.100  0.1214 -0.1843 -0.4153
   82MOL0     C10967   9.116  -0.464   4.037 -0.1979 -0.5837 -0.5644
   82MOL0     C10968   9.174  -0.523   3.929 -0.1734 -0.3882  0.0111
   82MOL0     C10969   9.124  -0.635   3.862 -0.0558  0.5463  0.2424
   82MOL0     C10970   8.998  -0.693   3.918  0.1685 -0.0743  0.8450
   82MOL0     O10971   8.939  -0.797   3.851 -0.2683  0.8109  0.3095
   82MOL0     C10972   8.815  -0.770   3.781 -0.0100  0.9000 -0.8494
   82MOL0     C10973   8.766  -0.911   3.736  0.0553  0.2589 -0.0225
   82MOL0     C10974   8.857  -0.979   3.628 -0.2396 -0.4379 -0.6210
   82MOL0     C10975   8.825  -1.126   3.610  0.2681  0.3880 -0.0591
   82MOL0     C10976   8.917  -1.196   3.511  0.2721  0.2654 -0.5630
   82MOL0     C10977   8.911  -1.143   3.366 -0.2852  0.8867  0.4180
   82MOL0     C10978   9.027  -1.194   3.284 -0.1096  0.2299  0.0619
   82MOL0     C10979   9.010  -1.343   3.241  0.8856  0.1198  1.2009
   82MOL0    Cl10980   9.147  -1.404   3.153 -0.3509 -0.0915  0.1816
   82MOL0     C10981   8.939  -0.631   4.030 -0.3340  0.8402  0.2575
   82MOL0     C10982   8.992  -0.520   4.090 -0.3266 -0.1756 -0.2828
   82MOL0     O10983   8.980  -0.228   4.032 -0.5993 -0.4915 -0.1414
   82MOL0     C10984   9.277  -0.122   4.183  0.0057  0.4948  1.0675
   82MOL0     C10985   9.370  -0.025   4.193 -0.3655 -0.8202 -0.2910
   82MOL0     N10986   9.132   0.793   4.101  0.1710 -0.5632 -0.3845
   82MOL0     N10987   9.083   0.899   4.159  0.1532 -0.5788 -0.5709
   82MOL0     C10988   8.571   0.781   4.539 -0.5643  0.4087 -0.1462
   82MOL0     C10989   8.565   0.646   4.543 -0.7127 -0.7882  1.1136
   82MOL0     C10990   8.493   0.217   4.750  0.5611 -0.2038 -0.2119
   82MOL0     C10991   8.399   0.174   4.656 -0.5009 -0.6514  0.3799
   82MOL0     C10992   8.333   0.056   4.667  0.0476  0.5096 -0.2507
   82MOL0     C10993   8.363  -0.033   4.768  0.1068 -1.0253 -0.2388
   82MOL0     O10994   8.312  -0.156   4.773 -0.1861  0.2531 -0.1952
   82MOL0     C10995   8.256  -0.195   4.893 -0.2492 -0.1938  0.2697
   82MOL0     C10996   8.158  -0.311   4.872 -1.0849  0.0247  1.0366
   82MOL0     C10997   8.238  -0.439   4.817 -0.3633 -0.4475 -0.6503
   82MOL0     C10998   8.164  -0.570   4.831  0.0667  0.3765 -0.2976
   82MOL0     C10999   8.265  -0.668   4.812 -1.0535  0.0115 -0.5014
   82MOL0     C11000   8.352  -0.754   4.814  0.1194  1.2136  0.0693
   82MOL0     C11001   8.470  -0.001   4.860  1.3806  0.7076 -0.2586
   82MOL0     C11002   8.532   0.125   4.851  0.1292  0.7393 -0.5283
   82MOL0     H11003   8.488   0.601   4.869  3.1305 -1.9189  0.3804
   82MOL0     H11004   8.473   0.837   4.861 -0.9163  1.0486 -1.6939
   82MOL0     H11005   8.737   1.002   4.545 -1.3692 -0.8465  0.0638
   82MOL0     H11006   8.597   1.083   4.471 -1.0907 -1.7895  0.4434
   82MOL0     H11007   8.600   1.242   4.660 -0.6963 -2.2239  1.1582
   82MOL0     H11008   8.740   1.163   4.740  2.4603  0.9006 -2.1277
   82MOL0     H11009   8.759   1.299   4.475  2.0971 -1.2254 -1.4777
   82MOL0     H11010   8.800   1.372   4.623 -2.2464 -0.0722  0.0682
   82MOL0     H11011   8.971   1.214   4.678 -0.0372 -1.2614 -0.1735
   82MOL0     H11012   8.929   1.119   4.546 -1.4242  1.7335 -3.6083
   82MOL0     H11013   8.992   1.324   4.384  1.9001 -0.8928 -1.9363
   82MOL0     H11014   9.058   1.395   4.530 -2.2923  1.2656 -1.3604
   82MOL0     H11015   9.258   1.280   4.445 -1.8039  2.0059  1.5828
   82MOL0     H11016   9.187   1.166   4.551 -0.6816 -1.8133 -1.3039
   82MOL0     H11017   9.134   1.173   4.252  3.2957  1.3349 -0.4370
   82MOL0     H11018   9.261   1.070   4.332  0.8127  2.7925 -1.7744
   82MOL0     H11019   8.968   1.037   4.370  0.6513  3.9246  0.8693
   82MOL0     H11020   9.087   0.979   4.482 -1.5937  2.8638 -0.0146
   82MOL0     H11021   9.175   0.711   4.413  1.2622  3.8435  1.3504
   82MOL0     H11022   9.149   0.503   4.281  1.4578 -2.3589 -0.3645
   82MOL0     H11023   9.158   0.529   4.103  0.5884 -1.5689  0.1352
   82MOL0     H11024   9.382   0.601   4.308  1.5149 -2.9558  1.4204
   82MOL0     H11025   9.405   0.588   4.132 -3.2078  0.0293 -1.7074
   82MOL0     H11026   9.313   0.354   4.313  0.3364 -0.6560  1.2659
   82MOL0     H11027   9.480   0.402   4.326 -1.5001 -1.9121  0.3910
   82MOL0     H11028   9.500   0.361   4.072  1.5887 -2.1782 -0.1789
   82MOL0     H11029   9.330   0.341   4.070  0.9943 -3.7760 -1.1669
   82MOL0     H11030   9.250   0.189   3.984  0.9788 -0.6585  0.1279
   82MOL0     H11031   9.045   0.141   3.918  1.7807  0.9426  2.2296
   82MOL0     H11032   9.022  -0.026   3.857  0.2767 -0.1830  0.0816
   82MOL0     H11033   8.959   0.025   4.017  0.7241  0.3647  0.8165
   82MOL0     H11034   9.260  -0.470   3.889  1.3219 -1.6074  1.5015
   82MOL0     H11035   9.174  -0.652   3.768  1.6614 -0.1475  1.2326
   82MOL0     H11036   8.739  -0.719   3.840 -0.9740 -0.0761 -1.2103
   82MOL0     H11037   8.838  -0.709   3.693  2.5529  0.0422 -0.8617
   82MOL0     H11038   8.770  -0.988   3.813  1.2106  1.1656  0.8651
   82MOL0     H11039   8.663  -0.912   3.699  0.6750  0.6812 -1.9139
   82MOL0     H11040   8.962  -0.962   3.654 -1.2161  2.3477  2.1364
   82MOL0     H11041   8.852  -0.925   3.533  1.2010  0.8947  0.0157
   82MOL0     H11042   8.811  -1.185   3.701 -1.7932 -0.3518 -0.7966
   82MOL0     H11043   8.728  -1.132   3.560 -0.3372  2.6929  0.7357
   82MOL0     H11044   8.894  -1.303   3.499  1.0603  0.2422 -2.1711
   82MOL0     H11045   9.017  -1.187   3.553  0.7129  2.1129 -1.9097
   82MOL0     H11046   8.822  -1.170   3.309  0.5990  1.2164 -1.1795
   82MOL0     H11047   8.912  -1.034   3.373  1.0034  0.8713  0.7284
   82MOL0     H11048   9.123  -1.181   3.335  0.6630 -1.8889 -0.7481
   82MOL0     H11049   9.037  -1.139   3.190 -1.2285 -0.2869 -0.3809
   82MOL0     H11050   8.934  -1.362   3.163  1.8693  0.8749  0.0154
   82MOL0     H11051   9.002  -1.404   3.331  1.5742  2.6705  3.1031
   82MOL0     H11052   8.842  -0.672   4.057 -1.1087  2.9038  0.8618
   82MOL0     H11053   8.950  -0.468   4.175  0.0306  1.8672 -1.2875
   82MOL0     H11054   9.298  -0.214   4.238  0.8312 -0.9636 -1.4934
   82MOL0     H11055   9.456  -0.039   4.257 -0.1290  1.8502  0.0572
   82MOL0     H11056   8.577   0.823   4.439 -0.4934 -2.2621 -1.3509
   82MOL0     H11057   8.579   0.593   4.449  3.1950  2.5434 -0.5039
   82MOL0     H11058   8.367   0.243   4.579 -0.4750 -2.1657 -1.0541
   82MOL0     H11059   8.258   0.032   4.593  0.6725 -1.2263 -0.3678
   82MOL0     H11060   8.332  -0.213   4.970  1.6027  0.0191 -1.4101
   82MOL0     H11061   8.201  -0.109   4.932  0.0305  0.0524  0.1275
   82MOL0     H11062   8.087  -0.280   4.794 -1.2469 -0.9427  0.7906
   82MOL0     H11063   8.117  -0.341   4.969  0.1767 -5.8233  0.1375
   82MOL0     H11064   8.324  -0.442   4.885 -1.3072  2.6113  0.8397
   82MOL0     H11065   8.265  -0.425   4.712 -0.6017 -0.4108 -0.7079
   82MOL0     H11066   8.084  -0.590   4.760 -0.1536 -1.3239  0.3774
   82MOL0     H11067   8.133  -0.588   4.935  0.7153  1.8042  0.1811
   82MOL0     H11068   8.411  -0.843   4.807 -0.1959  0.8091  2.0627
   82MOL0     H11069   8.497  -0.078   4.932 -0.4749  0.6617  0.4624
   82MOL0     H11070   8.609   0.150   4.922 -1.0375  0.5049  0.8573
   83MOL0     O11071   9.320   0.508   1.189 -0.1987  0.3900  0.8978
   83MOL0     C11072   9.228   0.440   1.133 -0.9160  0.0738 -0.1672
   83MOL0     O11073   9.092   0.454   1.141 -0.0771 -0.1507  0.1596
   83MOL0     C11074   9.016   0.540   1.219 -0.4021 -0.5984  0.1268
   83MOL0     C11075   9.018   0.551   1.360 -0.4719 -0.3419  0.5255
   83MOL0     C11076   8.942   0.651   1.423 -0.1594  0.8393 -0.2059
   83MOL0     C11077   8.860   0.732   1.350  0.3537  0.2993 -0.0002
   83MOL0     O11078   8.777   0.825   1.404 -0.0114 -0.8180  0.0994
   83MOL0     C11079   8.701   0.809   1.521 -0.2185 -0.5086  0.7614
   83MOL0     C11080   8.597   0.917   1.521  0.4380  0.7640  0.5944
   83MOL0     C11081   8.468   0.868   1.598 -0.2047 -0.1530 -0.2338
   83MOL0     C11082   8.356   0.970   1.576  0.4620  0.4104  0.0577
   83MOL0     C11083   8.228   0.962   1.668  0.6286  0.3031 -0.5074
   83MOL0     C11084   8.128   1.070   1.653 -0.4971 -0.5482 -0.6397
   83MOL0     C11085   8.024   1.040   1.546 -0.2201  0.4090  0.3161
   83MOL0     C11086   7.893   1.121   1.561 -0.2205 -0.0164  1.6344
   83MOL0     N11087   7.810   1.132   1.434 -0.3589  0.2779  0.2214
   83MOL0     C11088   7.828   1.235   1.344  0.1870 -0.0930  0.4875
   83MOL0     C11089   7.762   1.195   1.229 -0.3567  0.1671 -0.1267
   83MOL0     C11090   7.751   1.278   1.105 -0.0147  1.1037  0.1483
   83MOL0     C11091   7.878   1.372   1.087  1.2774  0.4937 -0.8852
   83MOL0     C11092   7.906   1.414   0.942  0.0790  0.2951 -0.7389
   83MOL0     C11093   7.778   1.465   0.875 -0.1031 -0.2737  0.1039
   83MOL0     O11094   7.718   1.356   0.805 -0.1098 -0.1775 -0.0063
   83MOL0     C11095   7.638   1.377   0.700 -0.5730  0.0493 -1.0813
   83MOL0     C11096   7.631   1.273   0.613  0.1133  0.4628 -0.2054
   83MOL0     C11097   7.554   1.277   0.498  0.1643  0.4327  0.2115
   83MOL0     C11098   7.545   1.156   0.417 -0.0724 -0.8877  0.3802
   83MOL0     C11099   7.499   1.404   0.460 -0.3914  0.0176  0.1547
   83MOL0     C11100   7.439   1.440   0.330  0.2023 -0.0376 -0.1683
   83MOL0     O11101   7.424   1.573   0.306  0.5154  0.7501  0.0490
   83MOL0     C11102   7.353   1.601   0.194 -1.3342  0.0698  0.4385
   83MOL0     C11103   7.424   1.629   0.080 -0.5709 -0.2581 -0.4023
   83MOL0     C11104   7.356   1.670  -0.035 -0.2255  0.5822  0.8742
   83MOL0     C11105   7.218   1.688  -0.049  0.7711  0.8462 -0.4022
   83MOL0     O11106   7.137   1.727  -0.154 -0.8892  0.5212  0.2776
   83MOL0     C11107   7.138   1.629  -0.254  0.3280 -0.7201 -0.2790
   83MOL0     C11108   7.062   1.680  -0.375 -0.4636  0.1391  0.0639
   83MOL0     C11109   7.140   1.780  -0.448  1.2757 -0.1417  0.3340
   83MOL0     C11110   7.239   1.719  -0.545 -0.3974 -0.1506  0.0130
   83MOL0     C11111   7.315   1.824  -0.621 -0.0932  0.2010  0.3558
   83MOL0     C11112   7.407   1.752  -0.728  1.1332 -0.5256 -0.3541
   83MOL0     C11113   7.507   1.854  -0.783  0.3182 -0.0317 -0.0438
   83MOL0     C11114   7.608   1.786  -0.877 -0.4831  0.0123  0.3581
   83MOL0    Cl11115   7.703   1.667  -0.787  0.2455 -0.4107 -0.0338
   83MOL0     C11116   7.157   1.670   0.073 -1.0759 -0.7070 -0.1248
   83MOL0     C11117   7.223   1.622   0.185  0.1284  0.7041  0.2867
   83MOL0     O11118   7.417   1.345   0.253  0.2005 -0.8347  1.4863
   83MOL0     C11119   7.524   1.512   0.548  0.2811 -0.1779  0.1935
   83MOL0     C11120   7.585   1.500   0.671  0.0519  0.1577  0.1121
   83MOL0     N11121   7.708   1.068   1.249  0.0264 -0.3504 -0.7037
   83MOL0     N11122   7.745   1.032   1.369  0.1594  0.0185  0.6005
   83MOL0     C11123   8.852   0.711   1.218 -0.2617 -0.1702 -0.1625
   83MOL0     C11124   8.927   0.616   1.148  0.5618  0.2758  0.2141
   83MOL0     C11125   9.267   0.309   1.065  0.8147 -0.8210 -0.1278
   83MOL0     C11126   9.400   0.266   1.069 -0.5485  1.0474  0.3990
   83MOL0     C11127   9.425   0.133   1.022  0.3349  0.6551  0.7872
   83MOL0     C11128   9.324   0.042   0.979 -1.0825 -0.2661  0.4325
   83MOL0     O11129   9.375  -0.075   0.943  0.6404 -0.0178 -0.4952
   83MOL0     C11130   9.291  -0.188   0.936 -0.3415 -0.5631  0.7154
   83MOL0     C11131   9.263  -0.237   1.074  1.4412  0.5421  0.4044
   83MOL0     C11132   9.389  -0.308   1.137  0.0551 -0.3443  0.4609
   83MOL0     C11133   9.517  -0.227   1.155  0.0936  0.4114  0.8326
   83MOL0     C11134   9.602  -0.297   1.249 -0.7127  0.0318  0.0044
   83MOL0     C11135   9.681  -0.352   1.326  0.1345 -0.0381 -0.2354
   83MOL0     C11136   9.197   0.098   0.970  0.1720  0.1857 -0.3659
   83MOL0     C11137   9.168   0.229   1.006  0.2435  0.3172 -0.5992
   83MOL0     H11138   9.085   0.491   1.420 -0.6550 -1.4243 -0.3258
   83MOL0     H11139   8.938   0.662   1.531 -0.8522  0.2620 -0.1618
   83MOL0     H11140   8.648   0.714   1.518 -1.0639 -0.0346  0.3697
   83MOL0     H11141   8.764   0.812   1.610  1.8745 -5.1732 -0.2808
   83MOL0     H11142   8.635   1.011   1.562  0.5198  0.8811  0.2598
   83MOL0     H11143   8.563   0.932   1.417  0.5401 -3.6505 -0.2420
   83MOL0     H11144   8.446   0.765   1.569  2.2182 -0.1395 -2.5370
   83MOL0     H11145   8.478   0.874   1.707  0.7585  1.5190 -0.3739
   83MOL0     H11146   8.395   1.072   1.573  0.4315  0.5581  2.4717
   83MOL0     H11147   8.331   0.955   1.471 -0.8096  1.2053  0.2288
   83MOL0     H11148   8.179   0.867   1.644  2.7614 -0.7317 -1.0026
   83MOL0     H11149   8.270   0.946   1.768  0.3928 -3.8099 -0.9051
   83MOL0     H11150   8.074   1.076   1.748  0.0531  1.6295 -0.4227
   83MOL0     H11151   8.178   1.167   1.650 -1.1441 -0.1050  1.3208
   83MOL0     H11152   8.059   1.066   1.445  1.4408  0.3042  0.8260
   83MOL0     H11153   8.005   0.933   1.536 -0.7036  0.3514  1.7400
   83MOL0     H11154   7.916   1.223   1.593  0.1254  0.1703  0.8241
   83MOL0     H11155   7.827   1.074   1.635 -2.2475 -1.2898 -0.8174
   83MOL0     H11156   7.874   1.333   1.357 -0.3241  0.0300  1.3945
   83MOL0     H11157   7.737   1.204   1.026 -0.4657  0.0413  1.1976
   83MOL0     H11158   7.660   1.338   1.112  0.7402  2.1802  1.0294
   83MOL0     H11159   7.962   1.317   1.131  1.2344  0.8824 -0.3141
   83MOL0     H11160   7.867   1.451   1.161  0.5428 -0.7697  0.4020
   83MOL0     H11161   7.940   1.325   0.889  1.3651 -0.3721  1.1461
   83MOL0     H11162   7.986   1.488   0.949 -1.5723  2.2032 -0.9410
   83MOL0     H11163   7.807   1.544   0.805  0.0587  0.2557  0.7552
   83MOL0     H11164   7.724   1.522   0.950  2.8891  2.5804  0.3257
   83MOL0     H11165   7.688   1.181   0.618  0.5415  0.6077 -1.9047
   83MOL0     H11166   7.437   1.146   0.399 -0.1158  0.6545 -0.3617
   83MOL0     H11167   7.597   1.174   0.323  1.2456 -0.9615  1.0782
   83MOL0     H11168   7.584   1.069   0.470  1.7278 -1.5112 -1.8341
   83MOL0     H11169   7.532   1.627   0.086 -0.6410 -2.9888  1.2226
   83MOL0     H11170   7.431   1.703  -0.106  0.1582 -0.3591  0.8270
   83MOL0     H11171   7.241   1.606  -0.282  0.7755  0.6315  0.2145
   83MOL0     H11172   7.090   1.542  -0.208 -0.0379  0.6547  2.1241
   83MOL0     H11173   7.032   1.591  -0.431 -4.6675 -0.6804  3.1143
   83MOL0     H11174   6.969   1.729  -0.346 -0.9054  1.7650 -3.4884
   83MOL0     H11175   7.185   1.845  -0.372 -0.8063  1.0796  0.5959
   83MOL0     H11176   7.077   1.842  -0.513  0.4017 -3.2353 -1.9867
   83MOL0     H11177   7.308   1.649  -0.496  1.9345  1.6216 -0.5441
   83MOL0     H11178   7.187   1.653  -0.616 -0.3559 -0.6228  0.4145
   83MOL0     H11179   7.387   1.873  -0.555  0.4057 -2.1387  1.6715
   83MOL0     H11180   7.250   1.895  -0.672  2.4870  3.5792  1.4428
   83MOL0     H11181   7.465   1.676  -0.674  1.7337  0.6780  0.7312
   83MOL0     H11182   7.354   1.695  -0.805 -1.4393  1.3354 -0.0696
   83MOL0     H11183   7.564   1.894  -0.699  1.6154 -1.0145 -0.4149
   83MOL0     H11184   7.454   1.932  -0.837 -0.1219  0.3359  0.9026
   83MOL0     H11185   7.670   1.856  -0.935 -1.9301  0.6521 -0.4971
   83MOL0     H11186   7.546   1.735  -0.951 -2.1266  1.2577  0.8115
   83MOL0     H11187   7.049   1.674   0.076 -1.0248  1.5237 -0.0335
   83MOL0     H11188   7.161   1.598   0.272 -0.4599  0.9457 -0.0604
   83MOL0     H11189   7.484   1.610   0.523  2.2638  0.0373 -2.6072
   83MOL0     H11190   7.581   1.585   0.737 -1.3162 -2.2006  3.3519
   83MOL0     H11191   8.780   0.764   1.157 -0.9922  0.6170  1.3129
   83MOL0     H11192   8.919   0.593   1.042 -1.5579  0.0383  0.3883
   83MOL0     H11193   9.477   0.328   1.113 -1.1938  2.1101  0.0566
   83MOL0     H11194   9.527   0.095   1.016 -0.6106 -1.9251 -2.8735
   83MOL0     H11195   9.200  -0.156   0.884 -0.2249 -0.1583  0.7601
   83MOL0     H11196   9.349  -0.269   0.890  0.9914  0.6746  0.1569
   83MOL0     H11197   9.178  -0.305   1.085  2.7017 -1.1054  0.3659
   83MOL0     H11198   9.253  -0.146   1.134  1.3368  1.8152 -1.4566
   83MOL0     H11199   9.409  -0.400   1.081  1.9160  1.2884 -1.7418
   83MOL0     H11200   9.349  -0.346   1.232  0.7489  0.7194  1.1993
   83MOL0     H11201   9.493  -0.128   1.195 -2.1739  1.4611 -2.6806
   83MOL0     H11202   9.571  -0.215   1.061  0.2335 -0.5214  0.7846
   83MOL0     H11203   9.748  -0.410   1.385  1.9526  0.3107 -1.8529
   83MOL0     H11204   9.117   0.047   0.916 -1.1429  0.6456  1.0772
   83MOL0     H11205   9.070   0.275   1.001 -0.5374 -1.1387  0.6236
   84MOL0     O11206   2.313   1.185   6.504  0.1717 -0.3733  0.9495
   84MOL0     C11207   2.294   1.088   6.434  0.3563  1.0898 -0.3213
   84MOL0     O11208   2.377   0.982   6.418 -0.3190 -0.4999 -0.6025
   84MOL0     C11209   2.495   0.983   6.498 -0.4311 -0.8706 -0.0812
   84MOL0     C11210   2.607   1.062   6.449 -0.2862  0.2108 -0.2000
   84MOL0     C11211   2.723   1.073   6.531  0.3005 -0.1668  0.4163
   84MOL0     C11212   2.732   1.010   6.655 -0.2523  0.7606 -0.0731
   84MOL0     O11213   2.830   1.049   6.730 -0.2566  0.3706 -0.7082
   84MOL0     C11214   2.909   0.948   6.800  0.0401 -0.1658 -0.4745
   84MOL0     C11215   3.047   0.937   6.724 -0.5754 -0.7822  0.4809
   84MOL0     C11216   3.137   1.059   6.727 -0.8206 -0.1463 -0.7725
   84MOL0     C11217   3.129   1.150   6.603  0.2905 -0.3704 -0.0732
   84MOL0     C11218   3.154   1.090   6.466  0.7801  0.3984  0.2570
   84MOL0     C11219   3.281   1.010   6.449  0.0604  0.0442 -0.0234
   84MOL0     C11220   3.401   1.112   6.450  0.5171 -0.3016  0.1419
   84MOL0     C11221   3.531   1.039   6.426 -0.1544 -0.1962 -0.6505
   84MOL0     N11222   3.635   1.130   6.462 -0.7791 -0.3123 -0.3866
   84MOL0     C11223   3.667   1.246   6.403  0.4352  0.0498  0.8865
   84MOL0     C11224   3.755   1.302   6.482 -0.6649  0.5365 -0.2401
   84MOL0     C11225   3.831   1.439   6.460  0.3805 -0.1100  0.6615
   84MOL0     C11226   3.793   1.562   6.541  0.0336 -1.2328 -0.8856
   84MOL0     C11227   3.647   1.589   6.554 -0.5560  0.6442  0.5439
   84MOL0     C11228   3.617   1.728   6.600 -0.1018  0.2139  0.8573
   84MOL0     O11229   3.482   1.743   6.642  0.8936 -0.1098 -0.1057
   84MOL0     C11230   3.383   1.763   6.545  0.6561 -0.1336 -0.4738
   84MOL0     C11231   3.252   1.783   6.592  0.8098  0.4602 -0.3608
   84MOL0     C11232   3.141   1.800   6.506 -0.8267 -0.0809 -0.5957
   84MOL0     C11233   3.019   1.823   6.583  0.1335  1.0904 -1.0203
   84MOL0     C11234   3.156   1.797   6.365 -0.9265  0.3496 -0.2827
   84MOL0     C11235   3.046   1.797   6.270 -0.2880  0.3571  0.6811
   84MOL0     O11236   3.080   1.803   6.142  0.7850 -0.0148  0.2492
   84MOL0     C11237   2.971   1.811   6.056  1.0416 -0.0933 -0.3493
   84MOL0     C11238   2.922   1.705   5.978  0.4288  0.4346  0.8845
   84MOL0     C11239   2.810   1.724   5.887  0.7361  1.3845 -0.0077
   84MOL0     C11240   2.754   1.858   5.879  0.0741  0.8945 -0.4213
   84MOL0     O11241   2.646   1.884   5.805  0.0180 -0.1910 -0.3463
   84MOL0     C11242   2.582   1.787   5.721 -0.0980 -0.9386 -0.6725
   84MOL0     C11243   2.462   1.846   5.664  0.5796 -1.2549  0.6678
   84MOL0     C11244   2.372   1.742   5.589 -0.3812 -0.4794 -0.1657
   84MOL0     C11245   2.452   1.684   5.470  0.4439  0.0484  0.6914
   84MOL0     C11246   2.361   1.596   5.376 -0.5938  0.4812  0.3299
   84MOL0     C11247   2.260   1.675   5.297  0.1804 -0.3129 -0.7980
   84MOL0     C11248   2.153   1.594   5.221 -0.6052  0.3773 -0.1833
   84MOL0     C11249   2.067   1.676   5.132 -0.0480 -0.4192 -0.7424
   84MOL0    Cl11250   1.956   1.563   5.057 -0.3380 -0.1230  0.2401
   84MOL0     C11251   2.827   1.957   5.933  0.5314 -0.1219 -0.0619
   84MOL0     C11252   2.929   1.931   6.021 -0.4442 -0.4483 -0.1957
   84MOL0     O11253   2.928   1.805   6.311  0.1355 -0.6462 -0.0534
   84MOL0     C11254   3.287   1.782   6.317  0.9742  0.0824 -0.3402
   84MOL0     C11255   3.397   1.761   6.407 -0.7733 -0.8000  0.4545
   84MOL0     N11256   3.770   1.228   6.598  0.1104  0.8165  0.1890
   84MOL0     N11257   3.711   1.119   6.578  0.1745  1.1847 -0.5536
   84MOL0     C11258   2.621   0.932   6.691  0.4742  0.0297 -0.5600
   84MOL0     C11259   2.500   0.906   6.614 -0.9209 -0.1691 -0.6826
   84MOL0     C11260   2.157   1.074   6.362 -0.6146  0.4314 -0.0875
   84MOL0     C11261   2.058   1.178   6.366  0.4058  0.0235 -0.4779
   84MOL0     C11262   1.926   1.162   6.325  0.2779  0.5244  0.1034
   84MOL0     C11263   1.896   1.044   6.253 -0.1891 -0.2425 -1.0086
   84MOL0     O11264   1.784   1.015   6.186  0.4062  0.4036  0.4255
   84MOL0     C11265   1.663   1.100   6.172  0.0678  0.7380 -0.0095
   84MOL0     C11266   1.564   1.075   6.287 -0.9808  0.2597 -0.5567
   84MOL0     C11267   1.475   0.963   6.262 -0.1031 -0.4548  0.3311
   84MOL0     C11268   1.452   0.872   6.388  0.0606 -0.6968  0.1843
   84MOL0     C11269   1.580   0.804   6.401 -0.3045  0.0453 -1.5190
   84MOL0     C11270   1.679   0.735   6.424 -0.2548 -1.0227  0.9006
   84MOL0     C11271   1.983   0.939   6.245  0.0272  0.3889  0.1141
   84MOL0     C11272   2.125   0.957   6.288  0.4474 -0.1192  0.5481
   84MOL0     H11273   2.573   1.114   6.360  1.3499 -0.4967 -1.2941
   84MOL0     H11274   2.792   1.151   6.499 -0.8578 -1.1311 -5.7879
   84MOL0     H11275   2.923   0.982   6.903  1.6855  0.6218 -0.9256
   84MOL0     H11276   2.861   0.850   6.801 -3.5991  1.4566 -0.0629
   84MOL0     H11277   3.107   0.870   6.786  0.5648 -0.0798  0.1651
   84MOL0     H11278   3.018   0.897   6.626 -0.7188  3.5271 -1.4665
   84MOL0     H11279   3.110   1.120   6.814  1.3214  0.1535 -0.2700
   84MOL0     H11280   3.242   1.032   6.741 -0.2941 -0.2896 -4.0774
   84MOL0     H11281   3.032   1.201   6.607  0.1907 -0.5147 -0.6794
   84MOL0     H11282   3.193   1.238   6.616 -2.4940  1.5503  1.8758
   84MOL0     H11283   3.066   1.037   6.428 -0.4445  2.4343  0.1378
   84MOL0     H11284   3.166   1.176   6.401 -1.5730  1.1254  0.6919
   84MOL0     H11285   3.299   0.944   6.535  2.0248  0.7716  0.1808
   84MOL0     H11286   3.291   0.955   6.355  1.7433 -0.0731  0.1961
   84MOL0     H11287   3.384   1.183   6.369 -0.8455 -1.3604 -0.5461
   84MOL0     H11288   3.408   1.169   6.543  1.5479  0.0619 -0.1513
   84MOL0     H11289   3.531   1.007   6.322  1.5360 -1.4738 -0.3054
   84MOL0     H11290   3.535   0.947   6.485 -0.9228 -0.7985 -1.5166
   84MOL0     H11291   3.631   1.290   6.310  1.3557  0.7075  0.8219
   84MOL0     H11292   3.935   1.412   6.484  0.2121 -0.8375  0.5853
   84MOL0     H11293   3.816   1.481   6.360 -3.9237 -0.0088  1.1781
   84MOL0     H11294   3.845   1.648   6.496 -0.7144  1.8746  3.5425
   84MOL0     H11295   3.829   1.545   6.643  2.6860 -1.1486 -1.7051
   84MOL0     H11296   3.621   1.514   6.629 -2.7689  0.5694 -0.2362
   84MOL0     H11297   3.596   1.560   6.462 -0.5744 -0.5480  0.9213
   84MOL0     H11298   3.636   1.802   6.522  2.3411 -0.6519  0.5374
   84MOL0     H11299   3.690   1.743   6.679 -0.3416  0.5550  1.0147
   84MOL0     H11300   3.236   1.792   6.699 -1.4791  0.8061 -0.6759
   84MOL0     H11301   2.953   1.736   6.569 -0.6256  1.5026 -0.1359
   84MOL0     H11302   3.026   1.867   6.683  0.4454  2.9917 -1.8408
   84MOL0     H11303   2.973   1.911   6.537 -3.7137  0.1917  0.6939
   84MOL0     H11304   2.952   1.601   5.986 -0.3371  0.1449  0.2080
   84MOL0     H11305   2.776   1.648   5.818  0.4211  2.0082 -0.5491
   84MOL0     H11306   2.640   1.766   5.630  1.0033 -4.1027  0.6228
   84MOL0     H11307   2.563   1.689   5.765 -0.2361 -0.8826 -0.6078
   84MOL0     H11308   2.405   1.883   5.749 -0.5592 -0.9105 -0.2202
   84MOL0     H11309   2.490   1.934   5.604 -0.7548 -0.9277  0.4943
   84MOL0     H11310   2.291   1.807   5.554  0.2878 -0.3711 -1.6267
   84MOL0     H11311   2.334   1.659   5.648 -0.7683 -0.9033 -0.9918
   84MOL0     H11312   2.500   1.765   5.414  0.4958 -1.8418 -2.2846
   84MOL0     H11313   2.531   1.616   5.502  0.4471  0.4386  1.5333
   84MOL0     H11314   2.311   1.521   5.438 -0.6422 -0.2367 -0.5551
   84MOL0     H11315   2.437   1.550   5.312  1.3259  3.4777  0.2548
   84MOL0     H11316   2.215   1.752   5.359  2.5128 -0.8748  1.7664
   84MOL0     H11317   2.320   1.737   5.230 -0.0055  0.5424 -0.1790
   84MOL0     H11318   2.087   1.537   5.286 -1.3858  0.5142 -0.8368
   84MOL0     H11319   2.195   1.517   5.155 -0.2517 -0.4576  0.9961
   84MOL0     H11320   2.122   1.722   5.050 -0.4674 -1.1238 -1.4397
   84MOL0     H11321   2.021   1.757   5.191 -0.0528 -1.1887  0.3480
   84MOL0     H11322   2.801   2.060   5.913  0.4714 -0.1826 -0.2955
   84MOL0     H11323   2.983   2.011   6.070 -1.0073 -0.5293  0.5767
   84MOL0     H11324   3.313   1.782   6.211 -2.7499  0.5397 -1.4066
   84MOL0     H11325   3.490   1.737   6.357 -0.2003  0.5805  0.8054
   84MOL0     H11326   2.641   0.885   6.787 -0.2326 -1.5643 -1.1529
   84MOL0     H11327   2.417   0.839   6.636 -1.0377 -0.1500 -1.0458
   84MOL0     H11328   2.097   1.271   6.407  1.8476 -1.2516  1.1988
   84MOL0     H11329   1.852   1.239   6.347 -1.4385 -1.3427  1.2340
   84MOL0     H11330   1.685   1.207   6.164  0.0446  0.8205  0.9591
   84MOL0     H11331   1.614   1.067   6.079  2.6489  0.0523 -1.2226
   84MOL0     H11332   1.502   1.165   6.298 -0.0094  0.7048  1.9774
   84MOL0     H11333   1.610   1.069   6.386 -0.6893 -1.1061 -0.7555
   84MOL0     H11334   1.508   0.906   6.174  0.1554  2.1686 -1.4018
   84MOL0     H11335   1.376   1.005   6.242 -0.1476 -1.9332 -3.2768
   84MOL0     H11336   1.367   0.806   6.368 -1.8171  2.3632 -3.4201
   84MOL0     H11337   1.446   0.936   6.476 -1.2835 -2.9376  1.8147
   84MOL0     H11338   1.769   0.686   6.456  1.3216 -0.2133 -1.9262
   84MOL0     H11339   1.948   0.855   6.186  0.4224  1.4275 -1.6721
   84MOL0     H11340   2.185   0.873   6.256  0.3415  0.8801 -2.6983
   85MOL0     O11341   0.806   2.946   3.861  0.4425  0.5887 -0.1738
   85MOL0     C11342   0.804   2.844   3.789 -0.1233 -1.0587 -0.1148
   85MOL0     O11343   0.885   2.828   3.669  0.5380  0.7075  0.3143
   85MOL0     C11344   0.977   2.922   3.658  0.8170 -0.0403  1.1526
   85MOL0     C11345   1.104   2.911   3.701 -0.1311 -0.0045 -1.2390
   85MOL0     C11346   1.204   3.006   3.682 -0.0972  1.1753  0.0967
   85MOL0     C11347   1.175   3.116   3.610 -0.5811 -0.4638  0.7497
   85MOL0     O11348   1.272   3.208   3.568  0.6398 -0.1551 -0.0820
   85MOL0     C11349   1.360   3.165   3.467  0.1432  0.7841  0.3552
   85MOL0     C11350   1.313   3.191   3.325  0.9221  0.1298  0.1607
   85MOL0     C11351   1.206   3.092   3.260 -0.7905  1.0127 -1.5356
   85MOL0     C11352   1.255   2.940   3.271  0.2280 -0.0752  0.6986
   85MOL0     C11353   1.149   2.848   3.214  0.4139 -0.2096 -0.0271
   85MOL0     C11354   1.024   2.833   3.293  0.0817 -0.4947 -0.7500
   85MOL0     C11355   0.923   2.730   3.232 -0.3310 -0.2729  0.4067
   85MOL0     C11356   0.831   2.686   3.349  0.1107  0.3786  0.3974
   85MOL0     N11357   0.850   2.548   3.383 -0.0892  0.5992  0.1342
   85MOL0     C11358   0.959   2.479   3.433  0.2253  0.2971  0.6733
   85MOL0     C11359   0.922   2.349   3.458  0.9041 -0.4746  0.4038
   85MOL0     C11360   1.005   2.229   3.504  0.0458  0.5305 -0.4200
   85MOL0     C11361   1.055   2.251   3.646 -0.3544  0.5518 -0.4936
   85MOL0     C11362   1.145   2.136   3.689 -0.0700 -0.2752 -0.7540
   85MOL0     C11363   1.214   2.150   3.824 -0.4642  0.2156  0.1477
   85MOL0     O11364   1.314   2.251   3.798 -0.2436 -1.1017 -0.4979
   85MOL0     C11365   1.390   2.276   3.911 -1.5088  0.1800  0.1450
   85MOL0     C11366   1.356   2.235   4.042 -0.2907  0.1887  0.3157
   85MOL0     C11367   1.426   2.274   4.158 -0.1785 -0.4014 -1.1238
   85MOL0     C11368   1.372   2.220   4.296 -0.2332  0.0410  0.5943
   85MOL0     C11369   1.548   2.356   4.139  0.5272 -0.4703  0.2963
   85MOL0     C11370   1.621   2.414   4.255  0.3959 -0.5431 -0.8552
   85MOL0     O11371   1.714   2.504   4.213  0.5862  0.3944 -0.1981
   85MOL0     C11372   1.783   2.580   4.303  0.3986 -0.9194 -0.4837
   85MOL0     C11373   1.786   2.717   4.270 -0.3472  0.0965  0.4341
   85MOL0     C11374   1.856   2.802   4.355 -0.4446  0.0658  1.2050
   85MOL0     C11375   1.926   2.754   4.459 -0.8261 -0.6912 -0.7080
   85MOL0     O11376   2.004   2.857   4.516 -0.2847 -0.1837 -0.0138
   85MOL0     C11377   2.105   2.817   4.608 -0.2044  0.4111  0.2111
   85MOL0     C11378   2.215   2.926   4.627 -0.7313 -0.1517 -0.0121
   85MOL0     C11379   2.265   2.988   4.497 -1.0011  0.5854 -0.9370
   85MOL0     C11380   2.178   3.105   4.456 -0.4044  0.5154  0.0805
   85MOL0     C11381   2.194   3.236   4.540  0.5845  0.6850 -0.0548
   85MOL0     C11382   2.054   3.293   4.587  0.1809 -0.7103  0.1581
   85MOL0     C11383   1.979   3.368   4.467 -0.4777 -0.0360 -0.0783
   85MOL0     C11384   2.022   3.513   4.435  0.1524 -0.1145 -0.2622
   85MOL0    Cl11385   2.167   3.517   4.328  0.4556 -0.4000  0.5710
   85MOL0     C11386   1.926   2.618   4.489 -0.6822  0.1617 -0.4956
   85MOL0     C11387   1.850   2.531   4.417 -1.3711  0.8228  0.8714
   85MOL0     O11388   1.593   2.392   4.368 -0.2796  0.6266 -0.9192
   85MOL0     C11389   1.590   2.391   4.004 -0.2814  0.0411  1.2439
   85MOL0     C11390   1.507   2.350   3.895 -0.5009  0.1728 -0.1902
   85MOL0     N11391   0.786   2.346   3.436 -0.1717  0.4506  1.1325
   85MOL0     N11392   0.745   2.465   3.399 -0.5856 -0.0234 -0.4297
   85MOL0     C11393   1.043   3.141   3.586 -1.2822  0.1115 -0.5349
   85MOL0     C11394   0.941   3.043   3.607 -0.9470 -0.1166 -0.5037
   85MOL0     C11395   0.754   2.722   3.841 -0.0182  0.6431 -0.6137
   85MOL0     C11396   0.775   2.598   3.781 -0.4413  0.9474 -0.4490
   85MOL0     C11397   0.723   2.483   3.820 -0.4111 -0.6663  0.4260
   85MOL0     C11398   0.639   2.481   3.935  0.6002  0.2407  0.7753
   85MOL0     O11399   0.591   2.364   3.977  0.6061  0.1295 -0.1257
   85MOL0     C11400   0.690   2.257   4.003  0.7109 -0.4862 -0.4965
   85MOL0     C11401   0.620   2.164   4.112  0.8567 -0.1531 -0.1221
   85MOL0     C11402   0.598   2.232   4.254 -0.5696 -0.6537  0.7039
   85MOL0     C11403   0.539   2.131   4.354  0.3159 -0.9766  0.3793
   85MOL0     C11404   0.514   2.183   4.488 -0.2861 -0.5662 -0.0737
   85MOL0     C11405   0.492   2.238   4.593  0.1833  0.8797 -0.1374
   85MOL0     C11406   0.613   2.588   4.011  0.0059 -0.4607 -0.3157
   85MOL0     C11407   0.667   2.714   3.959 -0.3800 -0.5681  0.5762
   85MOL0     H11408   1.122   2.819   3.754 -0.1863  0.7523  0.1275
   85MOL0     H11409   1.293   2.999   3.744 -0.9054  2.3322  1.4685
   85MOL0     H11410   1.448   3.230   3.473  0.5303  0.3109 -0.0446
   85MOL0     H11411   1.401   3.066   3.488 -0.3724  0.0883 -1.6300
   85MOL0     H11412   1.274   3.293   3.313 -0.1344 -0.5865 -5.7283
   85MOL0     H11413   1.396   3.191   3.254  0.4865  1.6186 -0.3777
   85MOL0     H11414   1.114   3.118   3.313  1.2610  6.0175  0.2248
   85MOL0     H11415   1.181   3.113   3.156 -4.1186  2.3433 -0.5916
   85MOL0     H11416   1.327   2.925   3.189 -1.3610 -0.1539 -0.7367
   85MOL0     H11417   1.301   2.902   3.363  2.2351 -3.0704 -1.3335
   85MOL0     H11418   1.116   2.883   3.116 -1.1746 -0.1524  0.5066
   85MOL0     H11419   1.183   2.744   3.203  0.0534 -0.0368 -5.0174
   85MOL0     H11420   1.056   2.797   3.391  0.9256 -2.3885 -1.6632
   85MOL0     H11421   0.973   2.930   3.290  3.4622  1.4548 -0.2815
   85MOL0     H11422   0.855   2.788   3.168  2.0445  0.9313 -1.1936
   85MOL0     H11423   0.972   2.646   3.183  2.4817 -0.5258  3.3554
   85MOL0     H11424   0.730   2.688   3.305 -0.5935 -1.6473  1.7699
   85MOL0     H11425   0.827   2.748   3.439 -1.3181  2.0030 -0.7154
   85MOL0     H11426   1.057   2.520   3.455 -0.2582  3.0331 -1.7072
   85MOL0     H11427   0.938   2.143   3.499 -1.9281  1.9362  0.5360
   85MOL0     H11428   1.094   2.217   3.441 -1.6586 -1.3658 -2.6891
   85MOL0     H11429   0.979   2.256   3.724  1.3490  0.9341  1.2190
   85MOL0     H11430   1.114   2.343   3.658  0.4316 -0.2669  3.1849
   85MOL0     H11431   1.221   2.113   3.614 -0.8326 -2.3460 -0.9513
   85MOL0     H11432   1.078   2.050   3.692 -1.8498  0.9771 -2.4208
   85MOL0     H11433   1.259   2.052   3.841  1.8436  1.1515 -0.0637
   85MOL0     H11434   1.144   2.168   3.905 -0.6647  2.5834 -0.4509
   85MOL0     H11435   1.269   2.175   4.065  0.6893 -1.6943 -0.6168
   85MOL0     H11436   1.297   2.143   4.280  0.5480 -0.3878 -1.2868
   85MOL0     H11437   1.451   2.163   4.344  1.0736  0.8085 -0.5517
   85MOL0     H11438   1.327   2.295   4.362  2.9069  0.9097  1.9382
   85MOL0     H11439   1.736   2.765   4.187  2.2640  0.7192 -0.8994
   85MOL0     H11440   1.855   2.903   4.316 -2.6279  0.3419  1.8387
   85MOL0     H11441   2.074   2.793   4.710  0.0924  0.5481  0.3358
   85MOL0     H11442   2.157   2.730   4.565  0.2511  1.3612 -1.2220
   85MOL0     H11443   2.184   3.010   4.690  1.7567 -0.9085  2.4165
   85MOL0     H11444   2.297   2.877   4.679 -1.0393 -0.3729  0.2634
   85MOL0     H11445   2.268   2.906   4.425  0.5822  0.8754 -1.2475
   85MOL0     H11446   2.368   3.025   4.510  0.3482 -0.8455 -5.6161
   85MOL0     H11447   2.218   3.131   4.357 -1.8351 -0.7753 -0.8759
   85MOL0     H11448   2.070   3.091   4.445 -0.3668 -0.4643  0.9103
   85MOL0     H11449   2.239   3.315   4.480 -1.0635 -1.1574 -4.1413
   85MOL0     H11450   2.265   3.222   4.622  1.2521  3.7000 -0.0274
   85MOL0     H11451   1.997   3.209   4.629 -1.6289  0.0187 -0.7214
   85MOL0     H11452   2.062   3.367   4.667 -3.2350 -0.7041  0.6481
   85MOL0     H11453   1.869   3.363   4.474 -0.5858 -3.2331 -2.0887
   85MOL0     H11454   2.014   3.325   4.373 -0.4599  0.9446 -0.5256
   85MOL0     H11455   2.037   3.571   4.527 -2.1908 -0.2611  0.2993
   85MOL0     H11456   1.928   3.553   4.395 -3.0145 -4.3648  2.0359
   85MOL0     H11457   1.956   2.579   4.585  0.7508  2.4025  0.0663
   85MOL0     H11458   1.857   2.423   4.429  0.6848  0.8943  0.6238
   85MOL0     H11459   1.670   2.457   3.971 -0.7934 -0.0973 -0.3203
   85MOL0     H11460   1.515   2.396   3.797 -1.4702 -1.3397 -1.0280
   85MOL0     H11461   1.022   3.237   3.538  0.4513 -0.9660 -3.8036
   85MOL0     H11462   0.836   3.059   3.585 -0.7295 -0.3782 -1.7844
   85MOL0     H11463   0.842   2.595   3.696  0.5606  3.4799  0.1611
   85MOL0     H11464   0.743   2.393   3.764 -2.6438 -0.4849 -0.8011
   85MOL0     H11465   0.692   2.206   3.906  4.4468 -0.0148 -0.8214
   85MOL0     H11466   0.791   2.291   4.029 -1.0325  1.6574  4.6721
   85MOL0     H11467   0.682   2.076   4.133  0.6242  0.0294  1.4891
   85MOL0     H11468   0.522   2.127   4.082 -0.9721  2.2363  2.3911
   85MOL0     H11469   0.528   2.313   4.234  1.0694  0.2486 -2.0634
   85MOL0     H11470   0.691   2.266   4.300 -0.7028 -0.0940  0.5641
   85MOL0     H11471   0.618   2.057   4.369 -1.4051 -3.0435 -0.2450
   85MOL0     H11472   0.457   2.069   4.316  0.9639 -0.4327 -2.0617
   85MOL0     H11473   0.472   2.288   4.686 -1.7793  1.7892 -0.9623
   85MOL0     H11474   0.544   2.578   4.094  0.1969 -1.0133 -0.2175
   85MOL0     H11475   0.639   2.811   4.000 -1.0592  0.6551 -2.4908
   86MOL0     O11476   6.043  10.599   2.269  0.3171 -0.6990 -0.1010
   86MOL0     C11477   6.089  10.486   2.281  0.2120  0.8141  0.0304
   86MOL0     O11478   6.214  10.446   2.238 -0.3246 -0.4034  0.0479
   86MOL0     C11479   6.302  10.539   2.180 -0.5059  0.4006  0.1874
   86MOL0     C11480   6.277  10.656   2.106  0.3942  0.0070  0.0867
   86MOL0     C11481   6.372  10.728   2.041 -0.1487 -0.2594 -0.3342
   86MOL0     C11482   6.506  10.690   2.051 -0.0740 -0.4658 -0.4480
   86MOL0     O11483   6.606  10.758   1.984  0.3748 -0.1138  0.3087
   86MOL0     C11484   6.609  10.900   2.012  0.3276  0.4174 -0.4653
   86MOL0     C11485   6.746  10.961   1.973  0.0224  0.2239 -0.2167
   86MOL0     C11486   6.735  11.108   1.998  0.9114  0.0605  0.4440
   86MOL0     C11487   6.859  11.202   1.967  0.4061  0.7788 -0.7317
   86MOL0     C11488   6.838  11.340   2.033 -0.3237  0.2683 -0.2607
   86MOL0     C11489   6.921  11.451   1.975 -0.0472  0.0029 -1.0104
   86MOL0     C11490   7.071  11.417   1.994 -0.5988 -0.7128  0.0524
   86MOL0     C11491   7.142  11.545   1.989  0.2251 -0.2492  1.1569
   86MOL0     N11492   7.280  11.522   2.037 -0.1676  0.8367  0.8645
   86MOL0     C11493   7.380  11.469   1.962 -0.1741  0.7230  0.4346
   86MOL0     C11494   7.484  11.447   2.048  0.1347  0.0004 -0.7951
   86MOL0     C11495   7.623  11.404   2.011 -0.1280  0.6226 -0.4245
   86MOL0     C11496   7.714  11.492   2.093 -0.0459  0.5328 -0.5903
   86MOL0     C11497   7.864  11.475   2.062  0.4720 -0.1080  0.7438
   86MOL0     C11498   7.937  11.583   2.143 -0.8605  0.4097  0.6523
   86MOL0     O11499   8.067  11.603   2.082 -0.2428  0.6040 -0.0044
   86MOL0     C11500   8.167  11.676   2.144  0.2981 -0.0210  0.0648
   86MOL0     C11501   8.285  11.695   2.077 -0.4404 -0.9812 -0.9526
   86MOL0     C11502   8.391  11.760   2.152 -0.3046  0.9163  0.1043
   86MOL0     C11503   8.532  11.746   2.093  0.5546  0.4402  0.0844
   86MOL0     C11504   8.370  11.816   2.282  0.1315 -0.5539  0.4418
   86MOL0     C11505   8.472  11.884   2.362 -0.3911 -0.0198  0.4941
   86MOL0     O11506   8.581  11.941   2.296  0.0763  0.5352  0.0456
   86MOL0     C11507   8.677  11.997   2.380 -0.8337  0.9763 -0.1290
   86MOL0     C11508   8.722  11.937   2.501  0.1690  0.7902  0.2750
   86MOL0     C11509   8.832  11.998   2.572  0.0645 -0.1048 -0.0600
   86MOL0     C11510   8.892  12.120   2.528 -0.1961 -1.0435 -0.1070
   86MOL0     O11511   8.987  12.200   2.590  1.5322 -0.8852  0.0333
   86MOL0     C11512   8.998  12.171   2.728  0.7283 -0.0510 -0.0573
   86MOL0     C11513   9.059  12.293   2.799 -0.1575 -1.3553 -0.1498
   86MOL0     C11514   9.202  12.332   2.738 -0.9760 -0.0362  0.3700
   86MOL0     C11515   9.272  12.454   2.804  0.2104 -0.6309 -0.0575
   86MOL0     C11516   9.420  12.448   2.757  0.0445 -0.0266  0.7007
   86MOL0     C11517   9.525  12.551   2.808  0.5133  0.5506 -0.3928
   86MOL0     C11518   9.459  12.686   2.808 -0.2626 -0.5583  0.5499
   86MOL0     C11519   9.566  12.784   2.840 -0.5120  0.4528  0.0970
   86MOL0    Cl11520   9.503  12.955   2.881 -0.4506 -0.3698  0.1564
   86MOL0     C11521   8.863  12.158   2.399 -1.0695 -0.5473 -1.0547
   86MOL0     C11522   8.763  12.094   2.321 -0.2814  0.1187  0.5246
   86MOL0     O11523   8.448  11.895   2.483  0.1637  1.0787  0.5186
   86MOL0     C11524   8.240  11.809   2.332  0.3136 -1.3502 -0.0346
   86MOL0     C11525   8.145  11.744   2.271  1.1229  0.7078  0.2017
   86MOL0     N11526   7.432  11.477   2.173  0.5913 -0.0892 -0.1380
   86MOL0     N11527   7.316  11.527   2.160 -0.1491  0.7854  0.1904
   86MOL0     C11528   6.541  10.584   2.132  0.4356  0.3953  0.2380
   86MOL0     C11529   6.439  10.506   2.185  0.3148 -0.0964 -0.0445
   86MOL0     C11530   6.004  10.382   2.343  0.1741  0.0576 -0.7110
   86MOL0     C11531   5.885  10.403   2.418  0.1302  0.9250 -0.4385
   86MOL0     C11532   5.793  10.301   2.464 -0.3500 -0.3854 -0.6319
   86MOL0     C11533   5.831  10.167   2.446 -0.3317 -0.1165 -0.5230
   86MOL0     O11534   5.751  10.062   2.475 -0.7057  0.0983 -0.4200
   86MOL0     C11535   5.652  10.089   2.571  0.0406  0.3648  0.4703
   86MOL0     C11536   5.597   9.956   2.617  0.3740 -0.4084  0.3826
   86MOL0     C11537   5.508   9.917   2.497 -0.2052  0.3290  0.9710
   86MOL0     C11538   5.452   9.778   2.527  0.3962  0.7538  0.0418
   86MOL0     C11539   5.365   9.724   2.423  0.7149  0.9901  0.2810
   86MOL0     C11540   5.269   9.695   2.346 -0.5205 -0.5079  0.0199
   86MOL0     C11541   5.959  10.142   2.398 -0.0146 -0.1252 -0.7205
   86MOL0     C11542   6.035  10.236   2.333  0.0697 -0.4356  0.0464
   86MOL0     H11543   6.171  10.676   2.097  0.6732  1.6126  0.0335
   86MOL0     H11544   6.345  10.813   1.979  0.0321  0.3108  0.3491
   86MOL0     H11545   6.544  10.959   1.947 -1.4269 -0.3377  0.5472
   86MOL0     H11546   6.581  10.905   2.117  0.2872 -3.5716 -0.1216
   86MOL0     H11547   6.822  10.923   2.042 -0.7054  0.3711  0.6977
   86MOL0     H11548   6.780  10.944   1.871  0.5909  1.2996 -0.2255
   86MOL0     H11549   6.647  11.148   1.946  0.7568 -0.2632  0.4587
   86MOL0     H11550   6.710  11.121   2.103 -1.7802  0.7687 -0.2021
   86MOL0     H11551   6.949  11.156   2.011 -0.5907 -1.6123 -1.0440
   86MOL0     H11552   6.876  11.215   1.860 -1.1478  3.9779 -0.6868
   86MOL0     H11553   6.731  11.360   2.020 -0.0806 -0.0065 -3.1215
   86MOL0     H11554   6.865  11.340   2.139 -0.6833  2.7780 -0.1051
   86MOL0     H11555   6.886  11.466   1.873 -0.5195  2.6094 -0.5582
   86MOL0     H11556   6.900  11.549   2.020  2.9953  0.8920 -1.2550
   86MOL0     H11557   7.094  11.366   2.088  1.1908  0.6435  0.4074
   86MOL0     H11558   7.098  11.353   1.909  1.3095  2.1949 -1.7284
   86MOL0     H11559   7.112  11.633   2.047  2.5805  2.0392 -0.8420
   86MOL0     H11560   7.152  11.571   1.883  2.0238 -0.7839  1.1535
   86MOL0     H11561   7.370  11.450   1.856  1.2896  4.2094 -0.4538
   86MOL0     H11562   7.644  11.298   2.027  0.1840  0.7528  0.0311
   86MOL0     H11563   7.629  11.413   1.902 -1.3010 -6.9693 -1.7231
   86MOL0     H11564   7.694  11.461   2.196 -1.0144  0.5342 -0.7718
   86MOL0     H11565   7.679  11.593   2.074 -0.2197  0.4216 -0.8768
   86MOL0     H11566   7.881  11.501   1.957  0.0949  3.7314  1.4685
   86MOL0     H11567   7.912  11.380   2.089  1.3747 -0.0850 -0.6822
   86MOL0     H11568   7.954  11.532   2.239 -4.6921 -3.4225 -0.3600
   86MOL0     H11569   7.882  11.671   2.177 -1.9606 -0.7735  2.0958
   86MOL0     H11570   8.302  11.660   1.975 -1.7873 -1.7692 -0.9380
   86MOL0     H11571   8.520  11.704   1.993 -0.8334 -0.3930  0.5652
   86MOL0     H11572   8.599  11.832   2.090  0.6262  0.3687 -0.4454
   86MOL0     H11573   8.590  11.672   2.149 -0.3927  0.3474  0.9855
   86MOL0     H11574   8.672  11.846   2.532  3.6602 -0.5994  2.4808
   86MOL0     H11575   8.869  11.960   2.666 -1.3495 -1.6606 -0.0805
   86MOL0     H11576   8.895  12.156   2.762 -0.1147  2.0356 -1.4895
   86MOL0     H11577   9.058  12.084   2.755 -2.5973 -2.0942  1.4055
   86MOL0     H11578   8.995  12.379   2.776 -1.0258 -2.5083 -2.3031
   86MOL0     H11579   9.067  12.268   2.905  1.4515 -0.9408 -0.1559
   86MOL0     H11580   9.188  12.338   2.630 -4.2363 -0.0650  0.6994
   86MOL0     H11581   9.264  12.244   2.755 -0.1840  0.3996 -0.1802
   86MOL0     H11582   9.223  12.548   2.779  1.5076  0.6290  1.8991
   86MOL0     H11583   9.275  12.439   2.913 -1.9698  2.0682  0.5039
   86MOL0     H11584   9.418  12.441   2.648 -5.2276 -3.0435  0.6392
   86MOL0     H11585   9.456  12.349   2.786 -0.2650 -1.2063 -2.5409
   86MOL0     H11586   9.577  12.523   2.900  2.1519  1.1034 -1.1062
   86MOL0     H11587   9.592  12.540   2.722  0.2939 -0.7992 -0.4136
   86MOL0     H11588   9.386  12.687   2.890 -2.4036 -1.6226 -1.2394
   86MOL0     H11589   9.406  12.710   2.716  1.5869  0.0307 -0.3999
   86MOL0     H11590   9.628  12.789   2.750  0.2722 -2.9403  0.3225
   86MOL0     H11591   9.631  12.753   2.922  0.0585  0.7754 -0.2267
   86MOL0     H11592   8.915  12.241   2.352 -0.4008  0.4477  1.2995
   86MOL0     H11593   8.743  12.122   2.218  0.9305 -0.4122  0.1304
   86MOL0     H11594   8.227  11.832   2.437  1.6189 -4.6238  0.9756
   86MOL0     H11595   8.044  11.741   2.309 -0.2628  0.4333 -3.1335
   86MOL0     H11596   6.641  10.544   2.131 -0.0477 -0.8580 -1.0677
   86MOL0     H11597   6.464  10.404   2.214  1.9068  0.1213 -0.5566
   86MOL0     H11598   5.835  10.497   2.438 -3.8227 -1.1549  0.6856
   86MOL0     H11599   5.692  10.331   2.489 -1.4705 -0.9428 -3.9368
   86MOL0     H11600   5.683  10.142   2.662 -3.2992  1.3123  1.1956
   86MOL0     H11601   5.567  10.145   2.531 -0.0644 -0.7369 -0.9078
   86MOL0     H11602   5.539   9.981   2.707  0.3694  2.7493 -0.3955
   86MOL0     H11603   5.675   9.879   2.621 -0.3698 -1.3785 -2.1944
   86MOL0     H11604   5.570   9.902   2.408 -0.2527  4.3120  0.0642
   86MOL0     H11605   5.430   9.990   2.472  1.0672  1.2786 -0.3824
   86MOL0     H11606   5.400   9.782   2.623 -0.6364  0.4421 -0.4959
   86MOL0     H11607   5.535   9.707   2.541 -1.6296 -1.4855  1.4462
   86MOL0     H11608   5.189   9.686   2.275 -2.2935 -3.2970  2.1610
   86MOL0     H11609   5.992  10.039   2.407 -0.0159  0.0641  3.3077
   86MOL0     H11610   6.119  10.196   2.277 -2.7941 -1.3734 -4.1323
   87MOL0     O11611   2.074   8.648   2.098 -0.9952 -1.0058 -0.3215
   87MOL0     C11612   2.172   8.586   2.141 -0.1699 -0.1821 -0.1392
   87MOL0     O11613   2.203   8.459   2.092 -0.1875 -0.2660  0.1269
   87MOL0     C11614   2.175   8.428   1.961  0.3009 -0.2271 -1.3002
   87MOL0     C11615   2.262   8.459   1.860  0.1049  0.9099 -0.3418
   87MOL0     C11616   2.260   8.395   1.732 -0.2223 -0.2120 -0.7219
   87MOL0     C11617   2.156   8.312   1.697  0.1405 -0.3564  0.0578
   87MOL0     O11618   2.146   8.248   1.574 -0.5449  0.7017  0.3073
   87MOL0     C11619   2.271   8.182   1.535  0.3244 -1.2698 -0.3278
   87MOL0     C11620   2.247   8.033   1.505  0.2692  0.1567 -0.0404
   87MOL0     C11621   2.175   7.961   1.619  0.2008  1.3329  0.2140
   87MOL0     C11622   2.288   7.907   1.709  0.1272  1.0616  0.2651
   87MOL0     C11623   2.235   7.851   1.839 -0.4898 -0.9007 -0.1738
   87MOL0     C11624   2.342   7.816   1.945  0.5644  0.2754 -0.0242
   87MOL0     C11625   2.320   7.876   2.085  0.8039 -0.9257  0.5030
   87MOL0     C11626   2.411   7.825   2.196  0.1029 -1.1007  0.4151
   87MOL0     N11627   2.537   7.909   2.220 -0.5886  0.0480  0.1258
   87MOL0     C11628   2.538   8.048   2.253  0.3159 -0.5103 -0.3444
   87MOL0     C11629   2.662   8.079   2.290 -0.2480 -0.2252  0.0083
   87MOL0     C11630   2.722   8.214   2.332 -0.0857 -0.9017  0.0154
   87MOL0     C11631   2.871   8.236   2.326 -0.7762 -0.4853  0.5299
   87MOL0     C11632   2.929   8.213   2.193 -0.2194  0.4732 -0.5892
   87MOL0     C11633   3.087   8.227   2.190  0.2216  0.8748  0.2183
   87MOL0     O11634   3.137   8.137   2.286 -0.0126 -0.3725 -0.1386
   87MOL0     C11635   3.274   8.160   2.319  0.5430  1.6516 -0.4481
   87MOL0     C11636   3.304   8.203   2.448 -0.2898 -0.1654  1.1399
   87MOL0     C11637   3.433   8.225   2.494  0.5878 -0.2456  0.9015
   87MOL0     C11638   3.453   8.301   2.623  0.3578 -0.4210  0.1391
   87MOL0     C11639   3.540   8.203   2.405  0.3413 -0.4068 -0.3002
   87MOL0     C11640   3.687   8.214   2.438 -0.1247 -0.4448  0.2855
   87MOL0     O11641   3.770   8.214   2.334 -0.2694 -0.0595 -1.1595
   87MOL0     C11642   3.901   8.234   2.365  0.1322  1.0660 -0.3062
   87MOL0     C11643   3.972   8.356   2.386 -0.2387 -0.0757 -0.7079
   87MOL0     C11644   4.098   8.354   2.434  0.7297 -0.2267 -0.3050
   87MOL0     C11645   4.169   8.240   2.456 -0.0771  0.0932  1.1341
   87MOL0     O11646   4.290   8.243   2.523 -0.0478  0.7310  0.1368
   87MOL0     C11647   4.283   8.210   2.660 -0.3895  0.0176  0.0873
   87MOL0     C11648   4.413   8.264   2.712  0.4061 -0.3051 -1.5603
   87MOL0     C11649   4.450   8.224   2.854  0.1639 -1.1587  0.1471
   87MOL0     C11650   4.585   8.294   2.879 -0.3608  0.4023  0.2671
   87MOL0     C11651   4.635   8.276   3.023  0.0802  1.6775 -0.8423
   87MOL0     C11652   4.545   8.327   3.141  0.1480  0.9277 -0.1343
   87MOL0     C11653   4.602   8.275   3.263 -1.1264 -1.0797  1.0449
   87MOL0     C11654   4.744   8.323   3.298  1.1472 -0.1458  0.1622
   87MOL0    Cl11655   4.850   8.194   3.252  0.1006  0.4615  0.2623
   87MOL0     C11656   4.106   8.115   2.422  0.7566  0.0007 -0.3630
   87MOL0     C11657   3.973   8.119   2.371  0.7762 -0.2271 -0.3332
   87MOL0     O11658   3.728   8.227   2.554  0.1561  0.0775  0.2415
   87MOL0     C11659   3.506   8.144   2.279  0.5940 -0.1796 -0.2209
   87MOL0     C11660   3.376   8.116   2.239  0.1590  0.1257  0.0441
   87MOL0     N11661   2.736   7.956   2.294  1.1798 -0.2630  0.0933
   87MOL0     N11662   2.657   7.862   2.254 -0.1705  0.4557  0.8095
   87MOL0     C11663   2.053   8.296   1.790  0.1406  0.0533  0.0265
   87MOL0     C11664   2.056   8.361   1.924 -0.2821  0.3764 -0.2270
   87MOL0     C11665   2.236   8.632   2.271 -0.5777 -0.5327  0.2824
   87MOL0     C11666   2.155   8.698   2.363  0.0468 -1.0330 -0.2865
   87MOL0     C11667   2.215   8.751   2.480  0.9315 -1.4980  0.2722
   87MOL0     C11668   2.352   8.731   2.502 -0.3773  0.0303  0.2048
   87MOL0     O11669   2.426   8.795   2.606 -0.1460 -0.1427  0.7549
   87MOL0     C11670   2.357   8.800   2.729  0.3263 -0.2593  0.6098
   87MOL0     C11671   2.456   8.839   2.845 -0.1348  0.0414  0.4489
   87MOL0     C11672   2.546   8.714   2.868  0.3926 -0.6464  0.0574
   87MOL0     C11673   2.694   8.740   2.917  0.2303  0.0278  0.0815
   87MOL0     C11674   2.703   8.821   3.039 -0.6571  0.3585  0.1543
   87MOL0     C11675   2.716   8.880   3.143  0.2761 -0.6838 -0.0961
   87MOL0     C11676   2.423   8.653   2.412 -0.7884 -0.1786 -0.3689
   87MOL0     C11677   2.370   8.605   2.302 -0.1704  0.0261  0.6492
   87MOL0     H11678   2.350   8.519   1.883  0.5664  0.6845 -1.4287
   87MOL0     H11679   2.344   8.415   1.666 -3.3000 -4.3976 -6.9137
   87MOL0     H11680   2.308   8.256   1.464 -1.0545  0.1860  0.4136
   87MOL0     H11681   2.339   8.186   1.621  0.1167 -0.5812 -0.1938
   87MOL0     H11682   2.187   8.030   1.413  5.0964 -3.4078 -3.6504
   87MOL0     H11683   2.341   7.987   1.472 -0.7975  0.0077 -3.2234
   87MOL0     H11684   2.103   8.026   1.669 -2.5686 -0.5976 -0.9967
   87MOL0     H11685   2.098   7.900   1.572 -1.7787  3.5209  0.4217
   87MOL0     H11686   2.340   7.824   1.660  2.1594  1.6513  1.3144
   87MOL0     H11687   2.354   7.993   1.720 -0.9177  2.5397 -3.5662
   87MOL0     H11688   2.170   7.928   1.881 -0.9702  0.4437 -3.1268
   87MOL0     H11689   2.175   7.761   1.822 -1.6191 -0.6606  2.1081
   87MOL0     H11690   2.332   7.709   1.962 -0.1600  0.5444  1.3266
   87MOL0     H11691   2.442   7.840   1.907  1.2777 -3.3115 -0.7613
   87MOL0     H11692   2.318   7.985   2.084 -0.8932 -0.9176 -1.1039
   87MOL0     H11693   2.217   7.854   2.118 -0.9494  1.0047 -3.1140
   87MOL0     H11694   2.435   7.719   2.180  2.0074 -0.4208 -1.8915
   87MOL0     H11695   2.354   7.819   2.289  1.6035  1.0131  1.5572
   87MOL0     H11696   2.462   8.125   2.243 -0.0606 -0.7885  0.2501
   87MOL0     H11697   2.675   8.292   2.270 -0.3761  2.3200  3.8702
   87MOL0     H11698   2.695   8.236   2.435 -0.9493 -1.3816 -0.0957
   87MOL0     H11699   2.924   8.169   2.395 -1.7646 -2.0806 -0.2229
   87MOL0     H11700   2.905   8.339   2.343 -0.4686 -0.6488  0.9263
   87MOL0     H11701   2.889   8.290   2.126  1.3282  1.7320 -0.1420
   87MOL0     H11702   2.882   8.124   2.151 -0.8902  0.5243  0.0186
   87MOL0     H11703   3.117   8.330   2.212  1.9847  0.5415 -0.4843
   87MOL0     H11704   3.125   8.171   2.103  0.5954 -4.4226  3.3599
   87MOL0     H11705   3.212   8.234   2.496 -0.7213  2.6836 -1.2214
   87MOL0     H11706   3.514   8.232   2.682  2.5091 -0.3643 -1.8571
   87MOL0     H11707   3.494   8.402   2.612 -1.1236 -0.0365 -2.8405
   87MOL0     H11708   3.363   8.310   2.685 -0.9013 -2.7013 -1.2287
   87MOL0     H11709   3.924   8.452   2.372 -0.7602 -0.2865 -0.3712
   87MOL0     H11710   4.154   8.443   2.462 -0.0872  0.5511 -1.0740
   87MOL0     H11711   4.206   8.264   2.715  2.0556  1.7509  2.0527
   87MOL0     H11712   4.274   8.104   2.686  0.7250 -0.1397 -0.1303
   87MOL0     H11713   4.502   8.241   2.653  2.5051  2.1003  0.4077
   87MOL0     H11714   4.409   8.374   2.708  1.0704 -0.2906 -1.9947
   87MOL0     H11715   4.433   8.118   2.871 -1.0346 -1.2516 -1.3988
   87MOL0     H11716   4.373   8.270   2.918 -1.0595  0.3407 -2.2369
   87MOL0     H11717   4.656   8.247   2.812 -0.1486 -1.6736  1.8414
   87MOL0     H11718   4.579   8.401   2.858  2.1851  0.0254 -3.0200
   87MOL0     H11719   4.739   8.311   3.020 -0.7861  4.5317 -1.0947
   87MOL0     H11720   4.641   8.167   3.028  0.8647  1.3899 -4.7509
   87MOL0     H11721   4.529   8.435   3.141 -0.3000  0.8642 -0.5361
   87MOL0     H11722   4.448   8.281   3.118  0.8316 -0.5583 -0.1658
   87MOL0     H11723   4.604   8.166   3.263  0.3795 -1.1218  3.0314
   87MOL0     H11724   4.534   8.311   3.341 -0.5157  0.0114  1.0992
   87MOL0     H11725   4.741   8.335   3.407 -5.5694  0.8240  0.2636
   87MOL0     H11726   4.760   8.422   3.256 -1.5436  0.0863 -0.4900
   87MOL0     H11727   4.176   8.032   2.421  3.7215  2.3141 -2.2312
   87MOL0     H11728   3.930   8.028   2.330 -1.2807  1.4148 -1.9779
   87MOL0     H11729   3.591   8.119   2.217  1.5573  0.2934  0.8627
   87MOL0     H11730   3.349   8.074   2.143 -0.7002 -3.2780  1.6118
   87MOL0     H11731   1.977   8.224   1.761 -1.5289  1.9813 -0.6135
   87MOL0     H11732   1.977   8.344   1.996  0.3670  2.6785  1.1184
   87MOL0     H11733   2.047   8.711   2.362  0.2211  0.7313 -1.6872
   87MOL0     H11734   2.157   8.823   2.538  0.1085  0.5495 -2.8447
   87MOL0     H11735   2.283   8.881   2.718 -1.4569 -1.9493 -0.4210
   87MOL0     H11736   2.291   8.715   2.749  1.0191 -0.8251  0.4752
   87MOL0     H11737   2.393   8.863   2.931 -1.9340 -1.2060 -0.4392
   87MOL0     H11738   2.518   8.925   2.819 -3.7294  2.2279 -1.8651
   87MOL0     H11739   2.553   8.653   2.777  0.2777  1.4735 -1.4466
   87MOL0     H11740   2.507   8.655   2.952 -0.2627 -0.9948 -0.4808
   87MOL0     H11741   2.757   8.786   2.840 -0.6706  0.1485 -0.6008
   87MOL0     H11742   2.737   8.641   2.933 -0.9465 -0.6856 -0.9988
   87MOL0     H11743   2.736   8.953   3.218 -0.2042 -0.3282 -0.3082
   87MOL0     H11744   2.522   8.630   2.450 -1.6357 -0.4127  1.8953
   87MOL0     H11745   2.429   8.546   2.233 -1.9633 -2.6497  1.2628
   88MOL0     O11746   1.379  10.977   7.429  0.8726 -0.4385 -0.1304
   88MOL0     C11747   1.305  11.071   7.475  0.4685 -0.0428 -0.1350
   88MOL0     O11748   1.236  11.069   7.586  0.9424 -0.4182 -0.0889
   88MOL0     C11749   1.202  10.954   7.647  0.1592 -0.3125  1.1522
   88MOL0     C11750   1.245  10.943   7.776  0.1504  0.8041 -0.3361
   88MOL0     C11751   1.235  10.821   7.852  1.0951 -0.1039  1.7537
   88MOL0     C11752   1.151  10.719   7.796  0.3145  0.7821 -0.1536
   88MOL0     O11753   1.133  10.605   7.872 -1.0013 -0.2255  0.0741
   88MOL0     C11754   1.072  10.496   7.802  0.2411  0.1647 -0.4584
   88MOL0     C11755   0.922  10.515   7.812 -0.0667 -0.0502  0.7133
   88MOL0     C11756   0.842  10.394   7.778 -0.0178 -0.0751 -0.4945
   88MOL0     C11757   0.843  10.344   7.641  0.0571 -0.5361 -0.1985
   88MOL0     C11758   0.729  10.235   7.621 -0.6469  0.4363 -1.1536
   88MOL0     C11759   0.707  10.188   7.479 -0.8103  0.6458 -0.4946
   88MOL0     C11760   0.590  10.094   7.472  0.0240  0.0219  0.8763
   88MOL0     C11761   0.568  10.022   7.336  0.4541 -0.2963 -1.2681
   88MOL0     N11762   0.544  10.126   7.239 -0.7882  0.6304  0.4957
   88MOL0     C11763   0.422  10.183   7.202  0.0400  0.1875  0.6597
   88MOL0     C11764   0.450  10.274   7.103  0.2017  1.1108 -0.2294
   88MOL0     C11765   0.363  10.364   7.024  0.1281  0.5126 -0.6193
   88MOL0     C11766   0.415  10.502   7.035  0.2964 -0.3518  0.1800
   88MOL0     C11767   0.324  10.608   6.975 -0.6596  0.3204  1.1660
   88MOL0     C11768   0.397  10.745   6.999  0.4031 -0.6045  0.4285
   88MOL0     O11769   0.389  10.790   7.136 -0.2059 -0.5625  0.3402
   88MOL0     C11770   0.429  10.910   7.180 -0.1551  0.3297  0.1592
   88MOL0     C11771   0.496  11.006   7.101  0.7626 -0.2852 -0.7270
   88MOL0     C11772   0.554  11.121   7.144 -0.7419  0.2991 -0.1714
   88MOL0     C11773   0.636  11.194   7.051  0.3819 -0.0037  0.4556
   88MOL0     C11774   0.550  11.152   7.283 -0.9749 -0.6253  0.1664
   88MOL0     C11775   0.604  11.274   7.343  0.1085 -0.0350 -0.1772
   88MOL0     O11776   0.665  11.257   7.460  0.3640 -0.8236 -0.6132
   88MOL0     C11777   0.720  11.365   7.525  0.3941 -0.1890  0.7937
   88MOL0     C11778   0.852  11.361   7.555 -1.2675 -0.0814 -0.3487
   88MOL0     C11779   0.911  11.468   7.627  0.4781  0.2942 -0.9612
   88MOL0     C11780   0.820  11.571   7.678 -0.5900 -0.4836 -0.6737
   88MOL0     O11781   0.872  11.671   7.766 -0.1799  0.6189  0.4272
   88MOL0     C11782   0.784  11.721   7.866 -0.1291 -0.5459 -1.0566
   88MOL0     C11783   0.860  11.792   7.982  0.6450 -0.6286 -0.9257
   88MOL0     C11784   0.960  11.689   8.046 -0.1293 -0.7319 -0.1292
   88MOL0     C11785   1.039  11.772   8.150 -0.5695 -0.1349 -0.0128
   88MOL0     C11786   1.126  11.683   8.232 -0.8114  0.2400 -0.1063
   88MOL0     C11787   1.239  11.757   8.307 -0.1112 -0.0663 -0.8754
   88MOL0     C11788   1.334  11.665   8.387 -0.2279 -0.0271  0.1438
   88MOL0     C11789   1.405  11.729   8.502  0.6819 -0.6920  0.2277
   88MOL0    Cl11790   1.536  11.838   8.448  0.0378 -0.0121 -0.2524
   88MOL0     C11791   0.690  11.575   7.642 -0.5154 -0.4499 -0.7442
   88MOL0     C11792   0.642  11.472   7.561  0.1219  0.4227  0.0959
   88MOL0     O11793   0.595  11.381   7.279  0.3188  0.6952  0.8559
   88MOL0     C11794   0.495  11.056   7.364  0.0718 -0.2105 -0.0404
   88MOL0     C11795   0.432  10.940   7.318  0.0054  0.4475  0.7577
   88MOL0     N11796   0.593  10.270   7.086 -0.0845  0.1846 -0.3714
   88MOL0     N11797   0.642  10.174   7.160  0.6733  0.6368  0.1809
   88MOL0     C11798   1.107  10.739   7.663 -0.5729  0.1504  0.7012
   88MOL0     C11799   1.123  10.856   7.595  0.1415 -0.6546 -0.5635
   88MOL0     C11800   1.313  11.201   7.408  0.1808  1.2219 -0.3017
   88MOL0     C11801   1.379  11.215   7.284 -1.0115  0.1875 -0.4081
   88MOL0     C11802   1.438  11.336   7.246 -0.8555  1.1041  0.1228
   88MOL0     C11803   1.410  11.453   7.313  0.7031  1.4847 -0.4450
   88MOL0     O11804   1.452  11.573   7.279 -0.0681 -0.5232  0.4931
   88MOL0     C11805   1.421  11.615   7.139 -0.7510  0.4369 -0.3704
   88MOL0     C11806   1.548  11.693   7.098  0.4489  0.4162 -0.4056
   88MOL0     C11807   1.507  11.783   6.973 -0.3396  0.1687 -0.6985
   88MOL0     C11808   1.443  11.717   6.858 -0.3433  0.6994  0.0349
   88MOL0     C11809   1.416  11.812   6.745 -0.1874 -0.2664 -0.1801
   88MOL0     C11810   1.383  11.885   6.661  0.6162 -0.2587  0.1295
   88MOL0     C11811   1.321  11.441   7.421  0.7073  0.3497 -0.4743
   88MOL0     C11812   1.281  11.316   7.472 -0.1415  0.2673  0.5622
   88MOL0     H11813   1.307  11.022   7.817  2.8677 -0.9227 -0.8292
   88MOL0     H11814   1.270  10.805   7.953 -0.1967 -0.4690  2.1635
   88MOL0     H11815   1.096  10.489   7.695 -2.8302 -0.9850 -1.1751
   88MOL0     H11816   1.102  10.403   7.851 -0.9677  0.0493  0.1104
   88MOL0     H11817   0.907  10.538   7.918  3.1245  0.4911  1.1557
   88MOL0     H11818   0.884  10.597   7.750 -1.6970 -0.4627  1.1041
   88MOL0     H11819   0.867  10.313   7.847  0.7213 -1.5040 -2.3329
   88MOL0     H11820   0.738  10.420   7.797 -0.2420 -0.3945 -1.2330
   88MOL0     H11821   0.828  10.422   7.565  1.7953 -1.4556 -1.5702
   88MOL0     H11822   0.939  10.300   7.610 -0.9857 -0.5006 -4.0689
   88MOL0     H11823   0.742  10.147   7.684  0.0224  0.2463 -1.5428
   88MOL0     H11824   0.633  10.281   7.646 -1.9986 -1.5798 -2.3790
   88MOL0     H11825   0.690  10.274   7.414  2.4161  0.6382 -1.5513
   88MOL0     H11826   0.803  10.142   7.453 -1.1532  0.1605 -0.9107
   88MOL0     H11827   0.606  10.013   7.544 -0.8665 -0.5010  0.4962
   88MOL0     H11828   0.503  10.150   7.507 -0.9900 -0.5616 -0.6397
   88MOL0     H11829   0.482   9.958   7.356 -2.0211  3.3338  1.0358
   88MOL0     H11830   0.648   9.952   7.310 -1.1742 -2.2795 -1.1775
   88MOL0     H11831   0.318  10.169   7.229 -0.2087 -0.6456 -0.6094
   88MOL0     H11832   0.350  10.321   6.925 -0.1275 -1.6447  0.2855
   88MOL0     H11833   0.261  10.361   7.065  0.5826 -0.9116  0.5154
   88MOL0     H11834   0.502  10.496   6.969  0.1043 -3.6473  0.0467
   88MOL0     H11835   0.452  10.529   7.134 -0.4328 -1.3037  0.7342
   88MOL0     H11836   0.224  10.612   7.020 -1.3443  3.1546 -0.3447
   88MOL0     H11837   0.312  10.599   6.867  0.8318 -0.8783  1.0667
   88MOL0     H11838   0.352  10.822   6.936 -1.8023 -0.0616  2.5349
   88MOL0     H11839   0.501  10.739   6.965  0.1140 -1.9071 -0.2931
   88MOL0     H11840   0.501  10.986   6.994 -1.1635  1.9850 -1.3286
   88MOL0     H11841   0.590  11.291   7.029  1.4168  0.1344 -1.3002
   88MOL0     H11842   0.729  11.227   7.099  1.5115  1.7460 -2.6245
   88MOL0     H11843   0.656  11.145   6.955  1.4121  0.0350  0.6339
   88MOL0     H11844   0.915  11.283   7.513  1.2252  2.6889 -2.1470
   88MOL0     H11845   1.019  11.471   7.643  0.0601  0.2516  2.7749
   88MOL0     H11846   0.711  11.796   7.832 -1.7071 -0.1151  2.7244
   88MOL0     H11847   0.723  11.644   7.915 -0.5969  0.3571 -0.1629
   88MOL0     H11848   0.907  11.881   7.939  2.3267  0.4630  2.8372
   88MOL0     H11849   0.785  11.825   8.054  0.6326 -2.8485  0.1658
   88MOL0     H11850   1.021  11.653   7.963  0.4610 -0.2733  0.0975
   88MOL0     H11851   0.900  11.609   8.089 -1.9983 -0.7422 -2.5660
   88MOL0     H11852   1.095  11.851   8.099 -3.4938  2.3956  0.4251
   88MOL0     H11853   0.963  11.818   8.213 -0.2907 -1.0041  0.9851
   88MOL0     H11854   1.176  11.618   8.160 -2.6330 -0.9632 -0.3481
   88MOL0     H11855   1.072  11.616   8.299  1.2137 -1.0904  0.2764
   88MOL0     H11856   1.298  11.817   8.237 -0.8825  0.6083 -0.9543
   88MOL0     H11857   1.198  11.828   8.379 -2.5694 -2.2280  0.0289
   88MOL0     H11858   1.404  11.633   8.309 -0.3106  2.8076 -1.2319
   88MOL0     H11859   1.279  11.582   8.431 -0.9413 -1.0569 -2.5267
   88MOL0     H11860   1.462  11.663   8.568 -1.4128  0.0377  2.9901
   88MOL0     H11861   1.346  11.785   8.575  0.6277  0.0603 -0.3859
   88MOL0     H11862   0.627  11.656   7.677 -1.4738 -0.7250 -1.7674
   88MOL0     H11863   0.541  11.475   7.521  0.6993  2.4695 -1.4173
   88MOL0     H11864   0.506  11.066   7.472  2.1302 -0.4923 -0.1990
   88MOL0     H11865   0.399  10.862   7.386  2.0186 -0.4631  0.7898
   88MOL0     H11866   1.049  10.666   7.608  0.1381  1.1124 -1.4151
   88MOL0     H11867   1.071  10.872   7.501  0.3501  1.7143 -0.3252
   88MOL0     H11868   1.410  11.136   7.216  1.1655  0.3741  0.3171
   88MOL0     H11869   1.508  11.346   7.163 -0.3199 -1.2441  0.2038
   88MOL0     H11870   1.401  11.541   7.061 -1.8249  1.7585 -1.3793
   88MOL0     H11871   1.339  11.687   7.139  1.2137  2.8329  0.7212
   88MOL0     H11872   1.638  11.632   7.081  2.3668  2.0401  2.8652
   88MOL0     H11873   1.565  11.770   7.173 -1.4352  0.8666 -0.3979
   88MOL0     H11874   1.594  11.842   6.942  0.4638 -0.4751  0.2793
   88MOL0     H11875   1.432  11.857   7.001 -1.5005 -0.6641 -1.5375
   88MOL0     H11876   1.351  11.668   6.891 -0.9392  1.1831 -0.8642
   88MOL0     H11877   1.514  11.637   6.835 -0.0351  0.1075  2.7153
   88MOL0     H11878   1.352  11.951   6.582 -2.0536 -1.6960 -0.1405
   88MOL0     H11879   1.284  11.528   7.475  0.7049  1.1365 -1.7199
   88MOL0     H11880   1.238  11.302   7.571 -0.6435 -3.6996 -0.0295
   89MOL0     O11881   0.768   2.771   4.293  0.2556  0.5703  0.0082
   89MOL0     C11882   0.868   2.818   4.350 -0.3352  0.1416  0.3600
   89MOL0     O11883   0.923   2.773   4.457 -0.1897 -0.2110  0.6616
   89MOL0     C11884   0.885   2.656   4.518 -1.0516  0.3325  0.5398
   89MOL0     C11885   0.799   2.555   4.478 -1.4199 -0.3077 -0.1952
   89MOL0     C11886   0.780   2.439   4.561  0.2328  0.6565 -0.1494
   89MOL0     C11887   0.840   2.452   4.687  0.0044 -0.3129  0.3154
   89MOL0     O11888   0.801   2.362   4.782  0.2926 -0.1121  0.3290
   89MOL0     C11889   0.705   2.418   4.876  0.5319  0.3122  0.6571
   89MOL0     C11890   0.662   2.295   4.955  0.3947 -0.2879 -0.0611
   89MOL0     C11891   0.785   2.230   5.022  0.2916 -0.7917 -0.0993
   89MOL0     C11892   0.737   2.121   5.118  0.2793 -0.2900 -0.6868
   89MOL0     C11893   0.838   2.010   5.159 -0.5154 -1.1043  0.8292
   89MOL0     C11894   0.786   1.926   5.272  0.0071 -0.6143  0.2616
   89MOL0     C11895   0.648   1.872   5.278  0.3599 -0.5467 -0.5354
   89MOL0     C11896   0.593   1.801   5.156  0.5964  0.1245 -0.1768
   89MOL0     N11897   0.478   1.710   5.179  0.0231 -0.0122 -0.2862
   89MOL0     C11898   0.451   1.627   5.288  0.4077 -0.1408 -0.3864
   89MOL0     C11899   0.325   1.578   5.278  0.1040  0.5787  0.0310
   89MOL0     C11900   0.254   1.472   5.354 -0.3123  0.1045  0.0675
   89MOL0     C11901   0.294   1.335   5.296 -0.6318 -0.9630  0.1191
   89MOL0     C11902   0.220   1.211   5.332 -0.5453 -0.1779 -0.6300
   89MOL0     C11903   0.077   1.217   5.270 -0.0361 -0.0057  0.0956
   89MOL0     O11904  -0.005   1.105   5.294 -1.1271  0.7113 -0.1232
   89MOL0     C11905  -0.144   1.112   5.281 -0.5156  0.3009  0.0419
   89MOL0     C11906  -0.214   1.018   5.357  0.6995 -0.1299  0.4521
   89MOL0     C11907  -0.350   0.999   5.352  0.3225 -0.3599 -0.9925
   89MOL0     C11908  -0.412   0.875   5.422  0.2048  0.3849 -1.1758
   89MOL0     C11909  -0.433   1.088   5.273 -0.0724 -0.1625  0.9176
   89MOL0     C11910  -0.583   1.099   5.258  0.1642  0.5752  0.3503
   89MOL0     O11911  -0.665   0.989   5.296  0.4044  0.0147  0.5322
   89MOL0     C11912  -0.780   0.976   5.213 -0.6018 -0.4040 -0.2725
   89MOL0     C11913  -0.764   0.900   5.099  0.5237  0.2762  0.4825
   89MOL0     C11914  -0.875   0.873   5.018  0.0811 -0.9117 -1.1770
   89MOL0     C11915  -0.992   0.949   5.027  0.0951  0.5974  0.6704
   89MOL0     O11916  -1.093   0.925   4.933 -0.0395 -0.6814 -0.4724
   89MOL0     C11917  -1.065   0.985   4.808  0.1413 -0.3518  0.1404
   89MOL0     C11918  -1.061   0.879   4.682  0.8128 -0.4217 -0.1691
   89MOL0     C11919  -0.951   0.773   4.704  0.9793  0.2275  0.7555
   89MOL0     C11920  -0.936   0.675   4.588 -0.6955  0.4300 -0.6935
   89MOL0     C11921  -0.876   0.759   4.473 -0.2094  0.1590  0.0551
   89MOL0     C11922  -0.797   0.684   4.356 -0.6730 -0.2285 -0.7886
   89MOL0     C11923  -0.891   0.621   4.261  0.0049 -0.1036  0.4439
   89MOL0     C11924  -0.811   0.584   4.132  0.0783 -0.2920  0.3356
   89MOL0    Cl11925  -0.842   0.415   4.085  0.2351  0.0878 -0.1595
   89MOL0     C11926  -1.004   1.034   5.136 -0.8418  0.6024  0.3505
   89MOL0     C11927  -0.905   1.042   5.231 -1.0257 -0.0476  0.6643
   89MOL0     O11928  -0.625   1.199   5.198 -0.4767  0.6623  0.0234
   89MOL0     C11929  -0.358   1.197   5.204 -0.0812 -0.4413  0.5806
   89MOL0     C11930  -0.217   1.204   5.201 -0.9028  0.9293 -0.0357
   89MOL0     N11931   0.278   1.620   5.154  0.2338 -0.0358  0.8613
   89MOL0     N11932   0.364   1.704   5.095  0.2755 -0.1744  0.3574
   89MOL0     C11933   0.933   2.544   4.729  0.1629 -0.3501 -0.0231
   89MOL0     C11934   0.961   2.643   4.633 -0.2337  0.1308 -0.4250
   89MOL0     C11935   0.929   2.940   4.288  0.3449  0.2176  0.4743
   89MOL0     C11936   1.014   3.024   4.363  0.1302 -0.0272  0.0686
   89MOL0     C11937   1.093   3.121   4.296 -0.0296 -0.6271  0.6748
   89MOL0     C11938   1.073   3.144   4.159  0.1806 -0.0885  0.6568
   89MOL0     O11939   1.133   3.260   4.108  0.5040 -0.3513  0.1084
   89MOL0     C11940   1.065   3.376   4.159  0.8338 -0.2847  0.2372
   89MOL0     C11941   1.155   3.499   4.153 -1.1291  0.6882 -1.1586
   89MOL0     C11942   1.269   3.503   4.259 -0.8310 -0.1829  0.7677
   89MOL0     C11943   1.393   3.411   4.237  0.2463 -0.4917  0.2633
   89MOL0     C11944   1.493   3.416   4.347 -0.3474 -0.2182  0.4256
   89MOL0     C11945   1.570   3.422   4.443  0.9468  0.9185  0.5063
   89MOL0     C11946   0.994   3.062   4.087 -0.4003  0.0840 -0.3059
   89MOL0     C11947   0.927   2.956   4.150 -0.3574 -0.9090 -0.1507
   89MOL0     H11948   0.736   2.562   4.391  0.0551  2.4881 -1.1524
   89MOL0     H11949   0.701   2.366   4.544  0.1494  0.6132  0.4108
   89MOL0     H11950   0.750   2.494   4.941  3.1532  1.4147 -2.2021
   89MOL0     H11951   0.622   2.466   4.825 -0.3113  1.5041  3.0068
   89MOL0     H11952   0.586   2.339   5.021 -1.3954 -0.5522 -1.8252
   89MOL0     H11953   0.608   2.222   4.893 -2.8963  0.3503  1.8247
   89MOL0     H11954   0.856   2.179   4.957  1.2059 -0.3937  0.5618
   89MOL0     H11955   0.841   2.306   5.079  1.2801 -1.0031 -0.7613
   89MOL0     H11956   0.698   2.172   5.206 -1.4443 -4.5204  1.2731
   89MOL0     H11957   0.646   2.073   5.080 -0.9670 -0.9214  2.7198
   89MOL0     H11958   0.856   1.944   5.073 -0.1875 -1.2615  1.0186
   89MOL0     H11959   0.934   2.044   5.197 -1.4910  0.7953  1.7215
   89MOL0     H11960   0.847   1.836   5.281 -0.0380 -0.7332 -0.5437
   89MOL0     H11961   0.802   1.988   5.361  1.7670 -0.2707 -0.2573
   89MOL0     H11962   0.648   1.814   5.371  0.2590  1.0264  0.4854
   89MOL0     H11963   0.573   1.949   5.299  1.2494  0.2849 -0.3669
   89MOL0     H11964   0.670   1.746   5.102 -1.1762 -3.0757  0.2819
   89MOL0     H11965   0.545   1.882   5.099 -3.5658 -2.4266 -0.7253
   89MOL0     H11966   0.517   1.609   5.371 -1.0649  1.5308  1.2470
   89MOL0     H11967   0.290   1.488   5.456  2.2582  1.4655 -0.9790
   89MOL0     H11968   0.148   1.493   5.336  0.7181  2.1471 -6.0049
   89MOL0     H11969   0.400   1.324   5.321 -1.0749  0.7629  3.2832
   89MOL0     H11970   0.282   1.349   5.188  0.8428 -0.8347 -0.0507
   89MOL0     H11971   0.211   1.212   5.441 -1.0830 -3.3001 -0.5645
   89MOL0     H11972   0.269   1.117   5.307 -1.9642 -1.1534  0.1800
   89MOL0     H11973   0.084   1.242   5.164 -3.5175  1.1910  0.0188
   89MOL0     H11974   0.031   1.302   5.320  2.1287  0.5566  1.2428
   89MOL0     H11975  -0.150   0.953   5.415 -0.5168 -1.8258 -0.0277
   89MOL0     H11976  -0.447   0.908   5.520  0.9721  0.4951 -0.9334
   89MOL0     H11977  -0.494   0.830   5.366 -1.1196  0.7599  0.3813
   89MOL0     H11978  -0.326   0.810   5.439  0.3030 -0.0145 -3.0172
   89MOL0     H11979  -0.669   0.849   5.091 -0.0843 -0.7866 -0.2340
   89MOL0     H11980  -0.860   0.796   4.942  2.3738 -0.2993 -1.4147
   89MOL0     H11981  -1.148   1.056   4.797 -1.5034 -0.9800  5.4438
   89MOL0     H11982  -0.972   1.044   4.810 -0.0760 -0.0091  0.4053
   89MOL0     H11983  -1.158   0.829   4.671  1.3406 -1.5621  0.1416
   89MOL0     H11984  -1.047   0.941   4.593 -0.2766  1.5818  0.9878
   89MOL0     H11985  -0.986   0.706   4.783 -3.2607 -1.7003 -2.3345
   89MOL0     H11986  -0.856   0.821   4.728  0.8847  1.5526 -1.2195
   89MOL0     H11987  -0.882   0.586   4.623 -1.9186 -0.4979 -1.0870
   89MOL0     H11988  -1.036   0.641   4.558 -1.4685  2.6508 -0.8147
   89MOL0     H11989  -0.799   0.826   4.512  0.9928 -2.1954  2.0365
   89MOL0     H11990  -0.952   0.825   4.431 -0.1817  1.0597  1.3815
   89MOL0     H11991  -0.715   0.744   4.315  2.3126 -1.4104  2.9346
   89MOL0     H11992  -0.740   0.598   4.392 -0.1992  0.7808  0.9909
   89MOL0     H11993  -0.970   0.692   4.235  1.5787  2.3052  1.8510
   89MOL0     H11994  -0.924   0.528   4.308 -0.3954 -0.9193 -1.3439
   89MOL0     H11995  -0.704   0.597   4.149  0.2036 -1.0607  0.1732
   89MOL0     H11996  -0.834   0.654   4.051 -0.4624 -1.2950 -0.3959
   89MOL0     H11997  -1.093   1.090   5.160 -1.7418  0.1298 -1.6730
   89MOL0     H11998  -0.927   1.100   5.320 -0.4217 -0.0848  0.8462
   89MOL0     H11999  -0.414   1.269   5.145 -1.9638 -0.7005  1.9302
   89MOL0     H12000  -0.161   1.279   5.145  0.2235 -0.1799 -0.4530
   89MOL0     H12001   0.988   2.541   4.822 -1.9856 -1.1967  1.3182
   89MOL0     H12002   1.045   2.709   4.652  2.6472 -3.4814  0.5729
   89MOL0     H12003   1.017   3.021   4.472  0.9493  0.5570  0.0752
   89MOL0     H12004   1.147   3.198   4.350  0.0502 -1.1094  1.2926
   89MOL0     H12005   0.982   3.406   4.094 -1.4535 -2.7557  1.8227
   89MOL0     H12006   1.024   3.364   4.259 -1.8136  0.4284 -0.6741
   89MOL0     H12007   1.087   3.584   4.166 -0.3503  1.1560  0.0819
   89MOL0     H12008   1.189   3.496   4.049  0.2372 -1.9728 -0.7311
   89MOL0     H12009   1.221   3.477   4.355 -2.3519 -0.1076  0.0572
   89MOL0     H12010   1.306   3.606   4.255  0.4672 -0.6611 -0.0739
   89MOL0     H12011   1.442   3.453   4.149 -0.4394  2.4478  1.1957
   89MOL0     H12012   1.362   3.309   4.212 -0.6599 -0.6077  1.7411
   89MOL0     H12013   1.641   3.437   4.522  2.7253 -2.2273 -0.3389
   89MOL0     H12014   0.979   3.093   3.984  1.9852  0.4392 -0.5874
   89MOL0     H12015   0.857   2.891   4.098 -1.4899  0.6432 -0.6276
   90MOL0     O12016   6.552   5.250   2.551 -0.6782 -0.3289 -0.2129
   90MOL0     C12017   6.458   5.190   2.515 -0.6450  0.0580  0.4245
   90MOL0     O12018   6.447   5.142   2.388  0.3420 -0.6081  0.1006
   90MOL0     C12019   6.556   5.116   2.318 -0.2554  0.2531  0.3103
   90MOL0     C12020   6.573   5.190   2.201 -0.1098 -0.4485 -1.6150
   90MOL0     C12021   6.693   5.186   2.136 -0.8751 -1.5564 -1.0608
   90MOL0     C12022   6.802   5.109   2.173  0.2644  0.8339 -0.1522
   90MOL0     O12023   6.909   5.084   2.087 -0.3523  0.1155  0.5514
   90MOL0     C12024   6.988   5.191   2.048  0.3489  0.5028 -0.1513
   90MOL0     C12025   7.130   5.153   2.023 -0.8470 -0.0443 -0.9282
   90MOL0     C12026   7.154   5.083   1.888  0.6050 -0.2242  0.0346
   90MOL0     C12027   7.132   5.187   1.774  0.0310  0.0981 -0.3963
   90MOL0     C12028   7.151   5.133   1.633  0.1712 -0.2368  0.3107
   90MOL0     C12029   7.033   5.036   1.591 -0.1847 -0.7889  0.2142
   90MOL0     C12030   7.048   4.978   1.447 -0.3678 -0.5244 -0.7998
   90MOL0     C12031   6.959   4.860   1.432 -0.1408 -0.2296 -0.0900
   90MOL0     N12032   6.960   4.765   1.547  0.1000 -0.1893  0.2295
   90MOL0     C12033   6.858   4.738   1.631 -0.3254 -1.4394 -1.1540
   90MOL0     C12034   6.913   4.655   1.724  0.4883 -0.2600  0.4914
   90MOL0     C12035   6.847   4.621   1.844 -0.1399 -0.6926  0.5337
   90MOL0     C12036   6.715   4.674   1.883  0.4830 -0.7354  0.4107
   90MOL0     C12037   6.690   4.700   2.040  0.4238  0.2344 -0.3955
   90MOL0     C12038   6.541   4.730   2.083 -1.2395  0.0102 -0.6717
   90MOL0     O12039   6.552   4.739   2.228  0.8252  0.3639  0.3546
   90MOL0     C12040   6.432   4.714   2.300 -0.0317  0.2652  0.2752
   90MOL0     C12041   6.452   4.686   2.432 -0.1148 -0.2495  0.7593
   90MOL0     C12042   6.347   4.667   2.525 -0.1750  0.1863 -0.9969
   90MOL0     C12043   6.376   4.644   2.673  0.0260 -0.3854 -0.0505
   90MOL0     C12044   6.214   4.656   2.476 -0.0092  0.4797  0.7860
   90MOL0     C12045   6.088   4.639   2.557 -0.0081  1.2675  0.3056
   90MOL0     O12046   6.089   4.531   2.652 -1.3106  0.8500  0.7595
   90MOL0     C12047   6.004   4.535   2.754  0.5299  0.4716  1.0350
   90MOL0     C12048   6.051   4.550   2.881 -0.4071  0.1568 -0.3933
   90MOL0     C12049   5.957   4.566   2.986 -0.1194  0.2983 -0.3735
   90MOL0     C12050   5.820   4.561   2.965  0.8685  0.3164  0.5284
   90MOL0     O12051   5.729   4.586   3.068  0.1051 -1.0792 -0.4176
   90MOL0     C12052   5.725   4.506   3.178 -0.1693 -0.0937 -0.2894
   90MOL0     C12053   5.594   4.518   3.252 -0.4568  0.2990 -0.1076
   90MOL0     C12054   5.487   4.450   3.169 -0.7518  0.0646 -1.0065
   90MOL0     C12055   5.365   4.447   3.258  0.2449 -0.2743  0.5457
   90MOL0     C12056   5.229   4.409   3.192  0.2453 -0.1056  0.1439
   90MOL0     C12057   5.240   4.266   3.114  0.5811 -0.5600  0.0662
   90MOL0     C12058   5.123   4.260   3.017 -0.6264 -0.5788  0.1309
   90MOL0     C12059   4.994   4.211   3.084  0.6648 -0.2264 -0.1768
   90MOL0    Cl12060   5.019   4.046   3.157  0.0234  0.0679 -0.4346
   90MOL0     C12061   5.776   4.543   2.832 -0.6840  0.1047  0.3748
   90MOL0     C12062   5.864   4.522   2.729 -0.7458 -0.5613  0.0159
   90MOL0     O12063   5.993   4.714   2.537  0.2947 -0.1149 -0.2412
   90MOL0     C12064   6.202   4.693   2.338  0.5067 -0.8567 -1.0184
   90MOL0     C12065   6.303   4.715   2.251  0.5916 -0.5749 -0.4664
   90MOL0     N12066   7.054   4.631   1.693 -0.3011  0.7218 -0.3749
   90MOL0     N12067   7.069   4.700   1.590 -0.3871 -0.1503 -0.1853
   90MOL0     C12068   6.783   5.028   2.292 -1.0496  0.3695  0.2789
   90MOL0     C12069   6.667   5.042   2.366  0.0281  0.9526  0.1167
   90MOL0     C12070   6.351   5.151   2.609  0.5937  0.0101  0.0646
   90MOL0     C12071   6.250   5.059   2.565 -0.1403 -0.0588  0.3628
   90MOL0     C12072   6.151   5.013   2.656  0.6888  0.3523 -0.0971
   90MOL0     C12073   6.156   5.054   2.789  0.2506 -0.3110 -0.1041
   90MOL0     O12074   6.060   5.027   2.879  0.1610 -0.5116 -0.5248
   90MOL0     C12075   5.948   4.950   2.845  0.2723  1.0040  0.8398
   90MOL0     C12076   5.833   5.033   2.780 -0.2456 -0.2120  0.1150
   90MOL0     C12077   5.712   4.942   2.737  0.5195 -0.7276 -0.8179
   90MOL0     C12078   5.612   4.894   2.856  0.3029 -1.1851  0.2021
   90MOL0     C12079   5.518   4.784   2.805 -0.4719  1.0048 -0.5109
   90MOL0     C12080   5.450   4.706   2.741 -0.6434 -0.7010 -0.5973
   90MOL0     C12081   6.251   5.145   2.831  0.1869  0.3665  0.2069
   90MOL0     C12082   6.345   5.199   2.741 -0.6562  0.9671 -0.3669
   90MOL0     H12083   6.496   5.263   2.177 -0.9911 -1.1638 -1.0059
   90MOL0     H12084   6.719   5.248   2.050 -0.6939  0.5384  0.4165
   90MOL0     H12085   6.948   5.240   1.958 -1.4192  2.0685  1.4043
   90MOL0     H12086   6.981   5.262   2.131 -2.0892  0.2464 -0.0529
   90MOL0     H12087   7.196   5.240   2.024 -0.9938  0.0653 -0.6747
   90MOL0     H12088   7.152   5.085   2.106 -1.6890 -1.7946 -2.0726
   90MOL0     H12089   7.257   5.048   1.877  0.3100 -0.7766 -1.0624
   90MOL0     H12090   7.090   4.996   1.875  1.2052 -0.2613 -3.9644
   90MOL0     H12091   7.026   5.212   1.766 -0.3635 -1.9586 -3.3065
   90MOL0     H12092   7.201   5.270   1.788 -0.3305  0.5797 -1.3846
   90MOL0     H12093   7.166   5.216   1.564  1.1844  0.1742  0.9936
   90MOL0     H12094   7.236   5.064   1.629  1.0885  0.7496  1.6803
   90MOL0     H12095   7.022   4.956   1.664 -0.4431 -0.3690  0.6431
   90MOL0     H12096   6.953   5.111   1.590  0.4258  0.0069 -3.4299
   90MOL0     H12097   7.021   5.052   1.371 -1.2145 -0.3455 -0.3269
   90MOL0     H12098   7.153   4.958   1.422 -0.2235  0.0246 -0.6256
   90MOL0     H12099   6.986   4.805   1.342  0.0786 -0.1688 -0.0609
   90MOL0     H12100   6.860   4.908   1.428 -0.1968  0.0064  2.2606
   90MOL0     H12101   6.759   4.783   1.638  0.0470 -0.7977  0.1688
   90MOL0     H12102   6.841   4.512   1.857  0.2676 -0.9722 -1.3289
   90MOL0     H12103   6.907   4.666   1.923  1.3801  1.7957 -1.8753
   90MOL0     H12104   6.645   4.592   1.866 -2.0258  1.2385  0.6193
   90MOL0     H12105   6.703   4.771   1.833  0.1191 -0.5473  0.8563
   90MOL0     H12106   6.753   4.785   2.071 -0.3717  1.0817 -1.0234
   90MOL0     H12107   6.731   4.614   2.093 -0.5753 -1.1708 -1.8146
   90MOL0     H12108   6.474   4.652   2.047 -1.1520  0.9312 -2.9844
   90MOL0     H12109   6.508   4.825   2.040  0.7750  1.6950  1.2441
   90MOL0     H12110   6.554   4.682   2.468 -0.9330  2.7692  4.0439
   90MOL0     H12111   6.374   4.536   2.689  2.7043 -0.5584 -0.5458
   90MOL0     H12112   6.473   4.682   2.705 -0.4549 -0.6188  1.8248
   90MOL0     H12113   6.292   4.689   2.727 -0.1325  1.2032 -1.5129
   90MOL0     H12114   6.157   4.571   2.887 -0.5801  1.7411 -1.9206
   90MOL0     H12115   6.006   4.588   3.080 -1.2501  3.4411 -0.4041
   90MOL0     H12116   5.733   4.400   3.152  0.6508  0.3672 -2.1057
   90MOL0     H12117   5.811   4.539   3.237  0.5815  0.9685 -1.8853
   90MOL0     H12118   5.613   4.479   3.353  1.5660  2.5900  0.5011
   90MOL0     H12119   5.582   4.625   3.274  3.9962  0.3447  3.8903
   90MOL0     H12120   5.518   4.351   3.135  0.8716 -1.1730  3.3611
   90MOL0     H12121   5.476   4.518   3.084  2.3803  0.0530 -1.5738
   90MOL0     H12122   5.382   4.368   3.332  1.2371 -1.2597 -0.6883
   90MOL0     H12123   5.362   4.538   3.318  1.7298  0.5564 -0.5870
   90MOL0     H12124   5.221   4.493   3.121 -0.9407  1.1923  1.7361
   90MOL0     H12125   5.140   4.398   3.254 -0.7687  1.1597 -1.0219
   90MOL0     H12126   5.335   4.259   3.061  0.8085 -0.8362  0.5085
   90MOL0     H12127   5.240   4.190   3.192  3.4999 -1.2429 -0.4927
   90MOL0     H12128   5.152   4.202   2.929 -0.5906  0.1694 -0.3625
   90MOL0     H12129   5.119   4.360   2.973  3.4418  0.0376  0.7735
   90MOL0     H12130   4.906   4.212   3.019 -0.9993  0.5601  1.9444
   90MOL0     H12131   4.964   4.284   3.161  0.8914  1.0298 -1.2437
   90MOL0     H12132   5.672   4.520   2.809 -1.4761  1.8454  1.9620
   90MOL0     H12133   5.819   4.506   2.631 -2.3563 -1.0403  0.8035
   90MOL0     H12134   6.101   4.700   2.299  0.2345  2.1331 -0.0456
   90MOL0     H12135   6.270   4.745   2.152  0.9040 -2.4108 -1.1572
   90MOL0     H12136   6.864   4.965   2.325 -1.6061 -0.7124 -0.3643
   90MOL0     H12137   6.647   4.995   2.462  0.6784 -1.7874 -0.9876
   90MOL0     H12138   6.255   5.030   2.461 -2.9465  0.2905  0.0653
   90MOL0     H12139   6.086   4.931   2.627  3.2267 -1.5740 -0.6872
   90MOL0     H12140   5.966   4.865   2.779 -4.8246 -0.3922  0.8568
   90MOL0     H12141   5.905   4.915   2.939  2.2954 -0.1327  1.4014
   90MOL0     H12142   5.864   5.090   2.692 -0.6968 -1.8438 -1.1611
   90MOL0     H12143   5.799   5.110   2.849  0.9240  0.3909  0.0290
   90MOL0     H12144   5.757   4.855   2.688 -0.1848 -2.2789  1.1756
   90MOL0     H12145   5.657   4.999   2.662  0.3422  0.6199  0.2869
   90MOL0     H12146   5.560   4.978   2.905 -0.6502 -2.2154  1.0249
   90MOL0     H12147   5.663   4.842   2.938 -3.0425 -1.4732  2.3467
   90MOL0     H12148   5.381   4.654   2.678 -1.1752  2.2062 -2.6478
   90MOL0     H12149   6.260   5.193   2.928 -0.7258 -2.5843  1.8969
   90MOL0     H12150   6.410   5.272   2.787  0.7640 -0.0891 -0.6529
   91MOL0     O12151   9.996   9.458   3.438 -0.0637  0.7559  0.1270
   91MOL0     C12152   9.926   9.551   3.478  1.0708  0.2760  0.2378
   91MOL0     O12153   9.795   9.533   3.512  0.5263 -0.5140  0.3914
   91MOL0     C12154   9.721   9.428   3.464  0.2693  0.1547 -0.3608
   91MOL0     C12155   9.731   9.377   3.332 -0.5749  0.0350  0.7425
   91MOL0     C12156   9.641   9.277   3.289 -0.0311  0.0445 -0.3366
   91MOL0     C12157   9.537   9.228   3.366 -0.7708  0.3929 -0.7951
   91MOL0     O12158   9.445   9.126   3.345 -0.4006 -0.3827  0.3339
   91MOL0     C12159   9.458   9.053   3.228  1.5041  0.0727  0.7099
   91MOL0     C12160   9.365   8.941   3.214 -0.8777  0.1919  1.1012
   91MOL0     C12161   9.408   8.836   3.096  0.1640  0.2618 -0.6923
   91MOL0     C12162   9.303   8.736   3.055  0.4907 -0.1248  0.3490
   91MOL0     C12163   9.353   8.635   2.958 -0.8771  0.0407  0.7049
   91MOL0     C12164   9.420   8.691   2.829 -0.8710  0.4019  0.3956
   91MOL0     C12165   9.439   8.579   2.721  0.4579  0.1376  0.3610
   91MOL0     C12166   9.460   8.643   2.587  0.3144  0.0781 -0.2307
   91MOL0     N12167   9.444   8.545   2.484 -0.2367 -0.2565 -0.7551
   91MOL0     C12168   9.547   8.488   2.413  0.7187 -0.5091  0.7255
   91MOL0     C12169   9.486   8.406   2.316  0.1474  0.3383  0.1863
   91MOL0     C12170   9.565   8.334   2.206 -0.1266 -0.7745 -0.2114
   91MOL0     C12171   9.638   8.445   2.122 -0.9080 -0.6891  0.3473
   91MOL0     C12172   9.555   8.551   2.052 -0.3116 -0.4037  0.2173
   91MOL0     C12173   9.645   8.661   1.987  1.5604  0.1723 -0.0184
   91MOL0     O12174   9.745   8.713   2.079 -0.6330 -0.0585 -0.1796
   91MOL0     C12175   9.715   8.759   2.199  0.1129  0.2065  0.5689
   91MOL0     C12176   9.812   8.745   2.294  0.0906  0.4034 -1.0523
   91MOL0     C12177   9.797   8.793   2.423 -0.1964 -0.6516 -0.3640
   91MOL0     C12178   9.902   8.758   2.532 -0.0136 -0.0230 -0.2072
   91MOL0     C12179   9.685   8.879   2.467  0.0446 -0.0544  0.6092
   91MOL0     C12180   9.661   8.964   2.594 -0.4044  0.7901  1.7444
   91MOL0     O12181   9.542   9.013   2.615 -0.4862 -0.4626  0.5658
   91MOL0     C12182   9.523   9.094   2.723 -0.1283 -1.1600 -1.5056
   91MOL0     C12183   9.616   9.195   2.776 -0.2371 -0.7502 -0.3468
   91MOL0     C12184   9.578   9.276   2.886  0.1826 -0.8003  0.5816
   91MOL0     C12185   9.449   9.272   2.939 -0.6579 -0.9909  0.9902
   91MOL0     O12186   9.433   9.361   3.042  0.4805  0.2632 -0.4365
   91MOL0     C12187   9.303   9.384   3.098 -0.0316  0.3639 -0.8535
   91MOL0     C12188   9.304   9.500   3.193  0.4274  0.4338 -1.5152
   91MOL0     C12189   9.327   9.632   3.117  0.1190  0.3191  0.8072
   91MOL0     C12190   9.260   9.743   3.178  0.3829 -0.0845  0.4804
   91MOL0     C12191   9.107   9.739   3.172 -0.3136 -0.1853  0.0677
   91MOL0     C12192   9.055   9.767   3.035  0.3049  0.8067 -0.2728
   91MOL0     C12193   8.908   9.756   3.050  0.2708 -1.3102 -0.2257
   91MOL0     C12194   8.835   9.671   2.947  0.1631 -0.0362 -0.7439
   91MOL0    Cl12195   8.833   9.486   2.974 -0.4245 -0.0933 -0.0509
   91MOL0     C12196   9.352   9.179   2.893  0.6894 -0.3436  0.3475
   91MOL0     C12197   9.388   9.096   2.777 -0.8554 -1.3577  0.5146
   91MOL0     O12198   9.755   8.967   2.673  0.3475  0.2301  0.6777
   91MOL0     C12199   9.594   8.890   2.367  0.2475  1.0107 -0.3689
   91MOL0     C12200   9.602   8.828   2.236 -0.4187  0.2382 -0.0061
   91MOL0     N12201   9.358   8.393   2.360  0.0725 -0.6595 -0.0752
   91MOL0     N12202   9.333   8.478   2.458 -1.0393  0.3094 -0.2685
   91MOL0     C12203   9.529   9.278   3.495 -0.9261 -0.2070  0.3864
   91MOL0     C12204   9.612   9.382   3.540  0.5319 -0.6740  0.3442
   91MOL0     C12205   9.984   9.683   3.508  0.0598 -1.0086  0.2206
   91MOL0     C12206  10.124   9.692   3.494  0.6672  0.0138 -0.1975
   91MOL0     C12207  10.182   9.819   3.502  0.5624 -0.8128  0.2115
   91MOL0     C12208  10.109   9.936   3.526  1.2268 -0.8027 -0.4018
   91MOL0     O12209  10.180  10.055   3.518 -0.0353 -0.1879 -0.2122
   91MOL0     C12210  10.131  10.176   3.581  0.3771 -0.3142 -0.5367
   91MOL0     C12211  10.242  10.275   3.607 -0.7117 -0.4404  0.4351
   91MOL0     C12212  10.333  10.283   3.480 -0.4916  0.3832  0.2778
   91MOL0     C12213  10.459  10.371   3.499 -0.2368 -0.0746 -0.5282
   91MOL0     C12214  10.535  10.320   3.613 -0.3550  0.3817  0.8159
   91MOL0     C12215  10.593  10.282   3.712  0.0005  0.2225 -0.6389
   91MOL0     C12216   9.974   9.927   3.541  0.9939  0.0560  0.2371
   91MOL0     C12217   9.906   9.801   3.528  0.2114 -0.3011 -0.8114
   91MOL0     H12218   9.808   9.410   3.263 -1.0360 -1.7017 -0.6971
   91MOL0     H12219   9.637   9.231   3.191  0.6498 -3.7349  1.2094
   91MOL0     H12220   9.443   9.117   3.141  2.0218 -2.7166 -1.5974
   91MOL0     H12221   9.560   9.014   3.222  1.5099  0.3197 -1.4256
   91MOL0     H12222   9.352   8.888   3.309  1.2606 -1.4841  0.5464
   91MOL0     H12223   9.267   8.983   3.189  0.3392  1.1225 -2.7144
   91MOL0     H12224   9.434   8.882   3.000 -2.3737 -0.4497 -1.7784
   91MOL0     H12225   9.498   8.788   3.136 -0.4649 -0.8885 -0.6470
   91MOL0     H12226   9.248   8.691   3.139 -0.5026  0.1541 -0.1334
   91MOL0     H12227   9.226   8.802   3.013  1.0876  2.5909  3.1189
   91MOL0     H12228   9.426   8.579   3.018  2.1411  1.8077 -1.0859
   91MOL0     H12229   9.274   8.573   2.914  0.5542 -0.6566 -1.0004
   91MOL0     H12230   9.351   8.766   2.792  0.8009  1.2515 -1.1578
   91MOL0     H12231   9.513   8.746   2.845 -1.7914  2.6298 -1.5271
   91MOL0     H12232   9.521   8.515   2.753 -0.8314 -1.0481  1.4475
   91MOL0     H12233   9.347   8.520   2.718  0.0685  0.7531 -0.6789
   91MOL0     H12234   9.557   8.694   2.587 -1.3386  3.9676 -5.1884
   91MOL0     H12235   9.389   8.724   2.571 -0.6518  0.1111  3.3826
   91MOL0     H12236   9.652   8.497   2.437  1.1813 -2.8300 -0.1433
   91MOL0     H12237   9.638   8.261   2.242  0.6726  0.0642 -0.0835
   91MOL0     H12238   9.504   8.280   2.133 -0.3305 -2.0922  0.8902
   91MOL0     H12239   9.693   8.398   2.040 -1.2029  1.3859 -1.1194
   91MOL0     H12240   9.713   8.479   2.194  1.2357 -1.7077 -1.3058
   91MOL0     H12241   9.492   8.590   2.132  1.0495  1.2010  0.5610
   91MOL0     H12242   9.505   8.508   1.964  2.8575 -0.0364 -1.9357
   91MOL0     H12243   9.584   8.746   1.956  0.5959 -0.6116 -0.3234
   91MOL0     H12244   9.699   8.625   1.899  1.7211 -0.2658  0.2557
   91MOL0     H12245   9.907   8.700   2.266  0.7302  0.8686  0.2665
   91MOL0     H12246   9.873   8.747   2.636  3.4509 -0.8025  0.8166
   91MOL0     H12247   9.940   8.661   2.497  0.6094  0.0036  0.3773
   91MOL0     H12248   9.987   8.827   2.530  0.9525 -1.1883 -0.5882
   91MOL0     H12249   9.714   9.204   2.729 -1.0939 -1.7656 -2.4880
   91MOL0     H12250   9.636   9.365   2.908 -1.7615  0.4958  0.7078
   91MOL0     H12251   9.228   9.411   3.023  0.8998 -0.3087 -2.0668
   91MOL0     H12252   9.265   9.297   3.152 -0.8103 -0.4293 -2.6001
   91MOL0     H12253   9.210   9.503   3.248 -0.2132 -1.4729 -2.4350
   91MOL0     H12254   9.381   9.486   3.271  0.6840  0.2618 -1.7973
   91MOL0     H12255   9.293   9.615   3.014 -1.1491  2.5689  0.8060
   91MOL0     H12256   9.431   9.663   3.106 -1.3883  5.5176 -2.8295
   91MOL0     H12257   9.294   9.739   3.281  0.7111  2.6769  0.5593
   91MOL0     H12258   9.299   9.830   3.124  1.8400  0.5393  2.4308
   91MOL0     H12259   9.063   9.822   3.228 -2.1400  0.0912 -1.6458
   91MOL0     H12260   9.070   9.640   3.202  0.9446 -1.4671 -2.2698
   91MOL0     H12261   9.080   9.862   2.986  0.1815  0.4345 -1.0820
   91MOL0     H12262   9.075   9.691   2.958 -1.6348 -0.0726  0.0221
   91MOL0     H12263   8.880   9.861   3.061 -0.1689 -1.6799  3.2004
   91MOL0     H12264   8.872   9.720   3.147  0.2012  0.9923  0.6432
   91MOL0     H12265   8.878   9.692   2.849  0.0884 -1.0315 -1.0012
   91MOL0     H12266   8.727   9.686   2.957 -0.0267 -0.5201 -1.8752
   91MOL0     H12267   9.254   9.180   2.939  1.6610 -1.4053  2.6358
   91MOL0     H12268   9.320   9.032   2.721 -1.3478 -0.5558  0.1886
   91MOL0     H12269   9.506   8.950   2.391 -2.1294 -2.5939  0.8347
   91MOL0     H12270   9.519   8.845   2.169 -0.4905  2.9095  0.6548
   91MOL0     H12271   9.452   9.239   3.562 -0.4631  0.0343  1.0588
   91MOL0     H12272   9.594   9.429   3.636  0.4089 -2.6355  1.3296
   91MOL0     H12273  10.183   9.602   3.481  0.8369  0.3826 -2.3529
   91MOL0     H12274  10.286   9.827   3.473  0.0277  0.1583 -1.5560
   91MOL0     H12275  10.056  10.227   3.519  0.0312  1.8195  1.4888
   91MOL0     H12276  10.073  10.151   3.671 -1.7509  1.0937 -1.4336
   91MOL0     H12277  10.299  10.245   3.695  1.8518  0.9631 -0.6239
   91MOL0     H12278  10.199  10.373   3.627  1.1202  0.6307 -0.5651
   91MOL0     H12279  10.279  10.312   3.390  0.5511  2.0358  0.1560
   91MOL0     H12280  10.369  10.181   3.463 -0.7668  0.0564  1.5063
   91MOL0     H12281  10.428  10.472   3.525  1.5856  1.0715 -2.5262
   91MOL0     H12282  10.517  10.372   3.406 -0.9938  1.1690 -1.0106
   91MOL0     H12283  10.632  10.258   3.809 -1.6123  0.8977  0.2103
   91MOL0     H12284   9.921  10.022   3.548 -1.3357 -0.9650 -1.9046
   91MOL0     H12285   9.798   9.794   3.538  0.3417 -1.1731  0.0915
   92MOL0     O12286   6.328   3.116   7.182  0.3308  0.3205  0.0536
   92MOL0     C12287   6.294   3.230   7.170 -0.3350 -1.2968 -0.7607
   92MOL0     O12288   6.177   3.285   7.220  0.3820  0.5132 -0.2694
   92MOL0     C12289   6.100   3.208   7.305  0.3319 -0.9828 -0.2087
   92MOL0     C12290   6.161   3.138   7.410  0.5912 -0.4537 -0.5394
   92MOL0     C12291   6.084   3.063   7.499  0.8177  0.0797 -0.4169
   92MOL0     C12292   5.947   3.070   7.488  0.2853  1.1445  0.2857
   92MOL0     O12293   5.865   3.006   7.573 -0.4436 -0.5820  0.0989
   92MOL0     C12294   5.805   2.879   7.535  0.3804 -0.1471  0.8448
   92MOL0     C12295   5.728   2.836   7.658 -0.4093  1.1804  0.5589
   92MOL0     C12296   5.595   2.767   7.617 -0.7385  0.8009  0.1436
   92MOL0     C12297   5.553   2.666   7.726  0.7518 -0.3674  0.3506
   92MOL0     C12298   5.402   2.627   7.693 -0.4456 -0.7678 -0.4755
   92MOL0     C12299   5.332   2.564   7.827 -0.3666  0.6130  0.1157
   92MOL0     C12300   5.201   2.519   7.784  0.0288  0.8133 -0.4539
   92MOL0     C12301   5.128   2.476   7.914  0.5951  0.5071  0.3734
   92MOL0     N12302   5.004   2.394   7.892 -0.3164 -0.2197 -0.6980
   92MOL0     C12303   4.976   2.309   7.792  0.1180  0.4134  0.3338
   92MOL0     C12304   4.848   2.269   7.822 -0.6836 -0.3960 -0.2753
   92MOL0     C12305   4.753   2.207   7.726 -0.1168 -0.2218 -0.1169
   92MOL0     C12306   4.698   2.322   7.618 -0.7753 -0.2557 -0.5916
   92MOL0     C12307   4.684   2.471   7.669  0.6240 -0.1515  0.8002
   92MOL0     C12308   4.618   2.553   7.558  0.6756 -0.2067 -0.1097
   92MOL0     O12309   4.479   2.525   7.566  0.2447  0.7266  0.4061
   92MOL0     C12310   4.387   2.619   7.519 -0.2358 -0.4589  0.4493
   92MOL0     C12311   4.259   2.587   7.545  0.2851  0.4810  0.0906
   92MOL0     C12312   4.144   2.655   7.499 -0.2238  0.8241  0.6418
   92MOL0     C12313   4.008   2.602   7.535  0.2121  0.1165  0.0051
   92MOL0     C12314   4.172   2.780   7.439 -0.9515  0.0903 -0.1129
   92MOL0     C12315   4.070   2.880   7.388  0.1538  0.7800 -0.5783
   92MOL0     O12316   3.943   2.824   7.382  0.2340  0.0838 -0.0519
   92MOL0     C12317   3.840   2.907   7.344 -1.0386 -0.9749 -0.2781
   92MOL0     C12318   3.804   3.013   7.428  0.9201 -0.6187 -0.5280
   92MOL0     C12319   3.711   3.115   7.399  0.3171  0.6903 -0.1804
   92MOL0     C12320   3.651   3.107   7.274  0.8004 -0.4048  0.2170
   92MOL0     O12321   3.554   3.204   7.258  0.3987  1.9167  0.3913
   92MOL0     C12322   3.473   3.205   7.140  0.7520 -0.5345  0.2533
   92MOL0     C12323   3.345   3.285   7.160  0.2034 -0.0528 -0.3946
   92MOL0     C12324   3.268   3.321   7.037 -0.3476 -0.3436  0.1588
   92MOL0     C12325   3.120   3.352   7.088  0.7645 -0.2964 -0.2633
   92MOL0     C12326   3.037   3.438   6.980 -0.1965 -0.2858 -0.7352
   92MOL0     C12327   2.896   3.477   7.035  0.5537  0.4703  0.3410
   92MOL0     C12328   2.906   3.572   7.158 -0.0555  0.1268  0.5142
   92MOL0     C12329   3.003   3.686   7.141  0.3691 -0.0801 -0.4420
   92MOL0    Cl12330   2.972   3.787   7.278 -0.4564 -0.4902  0.6301
   92MOL0     C12331   3.668   2.998   7.188  0.0300 -0.1239  1.0515
   92MOL0     C12332   3.767   2.899   7.217 -1.0663 -0.0644 -1.0976
   92MOL0     O12333   4.100   2.999   7.370  0.4091  0.9472 -0.9825
   92MOL0     C12334   4.308   2.822   7.424  0.3584  0.8919 -0.1025
   92MOL0     C12335   4.413   2.740   7.454  0.5810  0.7173  0.1805
   92MOL0     N12336   4.804   2.324   7.937 -0.6869 -0.4983 -0.0406
   92MOL0     N12337   4.906   2.397   7.980  0.6800 -0.3924 -0.8912
   92MOL0     C12338   5.888   3.133   7.385  0.4958 -1.2104 -0.4248
   92MOL0     C12339   5.968   3.210   7.297 -0.1589  0.2093 -0.1972
   92MOL0     C12340   6.379   3.311   7.086 -0.8380 -0.0518  0.4003
   92MOL0     C12341   6.479   3.249   7.008 -0.2713 -0.8353 -0.0413
   92MOL0     C12342   6.569   3.339   6.947  0.1757 -0.4030 -0.3683
   92MOL0     C12343   6.565   3.475   6.949 -0.3547  0.0633 -0.7900
   92MOL0     O12344   6.652   3.545   6.865 -0.1083 -0.2363  0.6019
   92MOL0     C12345   6.629   3.687   6.852 -0.0353  0.9028 -0.2512
   92MOL0     C12346   6.706   3.740   6.736  0.4090 -0.5798  0.0926
   92MOL0     C12347   6.864   3.715   6.728 -0.1630  0.1655 -0.8006
   92MOL0     C12348   6.921   3.764   6.601  0.2076 -0.8956  0.1669
   92MOL0     C12349   6.899   3.673   6.485 -0.1755  0.7318 -0.6249
   92MOL0     C12350   6.895   3.593   6.395  0.1455 -0.0217 -0.1056
   92MOL0     C12351   6.468   3.541   7.024  0.4431 -0.1611  0.1715
   92MOL0     C12352   6.379   3.454   7.092 -0.4175  0.2468 -0.3522
   92MOL0     H12353   6.266   3.151   7.434  0.7452 -0.6034 -1.1030
   92MOL0     H12354   6.135   3.003   7.574 -0.4754 -1.7195 -0.8955
   92MOL0     H12355   5.730   2.896   7.458 -1.1408 -0.7133  2.1435
   92MOL0     H12356   5.876   2.805   7.498 -0.9910 -0.9972 -0.1386
   92MOL0     H12357   5.800   2.772   7.709  2.8487  4.2890  0.2570
   92MOL0     H12358   5.705   2.920   7.725  0.3134  1.5388  0.3715
   92MOL0     H12359   5.522   2.849   7.618 -1.8275 -0.1474  0.2857
   92MOL0     H12360   5.607   2.717   7.521  4.4306  1.5741  0.0715
   92MOL0     H12361   5.608   2.572   7.736 -0.0575 -0.6223  3.8719
   92MOL0     H12362   5.556   2.718   7.823  1.5392  0.4632 -0.1000
   92MOL0     H12363   5.350   2.719   7.663 -3.0075 -1.7689  0.6282
   92MOL0     H12364   5.404   2.560   7.606  0.6125 -0.1535 -0.9433
   92MOL0     H12365   5.393   2.478   7.855 -0.2788  0.8745  0.7492
   92MOL0     H12366   5.326   2.631   7.913  0.8087  2.7361 -1.3420
   92MOL0     H12367   5.131   2.591   7.741 -1.9560 -1.1980 -0.7631
   92MOL0     H12368   5.214   2.442   7.708  1.6692 -0.2939  0.8581
   92MOL0     H12369   5.098   2.575   7.951  0.3507  0.5769  0.0025
   92MOL0     H12370   5.194   2.423   7.982  0.3274 -1.8157 -1.0729
   92MOL0     H12371   5.044   2.270   7.718  0.3743  0.0897  0.7349
   92MOL0     H12372   4.804   2.132   7.665 -0.7745  0.6948 -1.8703
   92MOL0     H12373   4.673   2.167   7.789  2.4010  0.1755  3.6497
   92MOL0     H12374   4.595   2.295   7.593 -0.9129 -3.8159  2.8738
   92MOL0     H12375   4.763   2.328   7.530 -0.7089 -0.2570 -0.5423
   92MOL0     H12376   4.784   2.506   7.697  1.8160 -1.8202 -1.1228
   92MOL0     H12377   4.618   2.464   7.756 -0.8113  0.4520 -0.2172
   92MOL0     H12378   4.665   2.527   7.463 -2.1198  0.4290 -1.7526
   92MOL0     H12379   4.640   2.659   7.576 -5.8240  1.1600  2.8284
   92MOL0     H12380   4.245   2.501   7.610 -2.6371  2.5421  2.5151
   92MOL0     H12381   3.941   2.603   7.448  0.9442 -0.0783 -0.5657
   92MOL0     H12382   4.021   2.499   7.568 -0.1573  0.5815  1.7315
   92MOL0     H12383   3.964   2.668   7.611 -2.1595  0.0708 -1.2401
   92MOL0     H12384   3.856   3.023   7.522  0.3282  0.2027 -0.2806
   92MOL0     H12385   3.690   3.194   7.470  1.1510 -0.2530  1.1477
   92MOL0     H12386   3.535   3.253   7.063 -0.3852  1.3782  0.4770
   92MOL0     H12387   3.453   3.100   7.113  4.5366 -1.2136 -0.4665
   92MOL0     H12388   3.289   3.225   7.232  1.0857 -0.7959 -0.3097
   92MOL0     H12389   3.385   3.377   7.203 -0.0785  0.1292 -0.5216
   92MOL0     H12390   3.253   3.248   6.957 -1.8549  2.4625 -2.3100
   92MOL0     H12391   3.322   3.407   6.994  1.9598 -0.3005  2.8351
   92MOL0     H12392   3.061   3.262   7.107 -1.8812  1.4908  0.4803
   92MOL0     H12393   3.117   3.415   7.177 -1.9549  0.8829 -1.0971
   92MOL0     H12394   3.034   3.384   6.885 -2.6442  0.9630 -1.4476
   92MOL0     H12395   3.097   3.522   6.944 -1.3792 -0.0043 -2.1532
   92MOL0     H12396   2.859   3.533   6.948  2.2719 -1.8354 -2.0323
   92MOL0     H12397   2.850   3.383   7.067  1.5131  1.0492  3.8771
   92MOL0     H12398   2.947   3.524   7.248  0.5758 -2.2699 -0.9400
   92MOL0     H12399   2.802   3.603   7.176 -0.5044 -1.3668  0.7230
   92MOL0     H12400   2.985   3.737   7.046 -0.3245  3.0243  1.2222
   92MOL0     H12401   3.106   3.651   7.147  0.7624  1.2844  2.2212
   92MOL0     H12402   3.612   2.982   7.097  1.0175 -3.5584  0.8930
   92MOL0     H12403   3.801   2.828   7.142  1.1603  1.9340 -2.1140
   92MOL0     H12404   4.327   2.925   7.397  1.2301  0.8515  0.2995
   92MOL0     H12405   4.507   2.788   7.430  1.3873 -0.8268  0.1397
   92MOL0     H12406   5.781   3.142   7.375  0.5603  0.7038  0.1579
   92MOL0     H12407   5.917   3.264   7.218  0.1248 -2.4903 -2.4028
   92MOL0     H12408   6.499   3.143   7.001 -3.3093 -1.6367  1.7320
   92MOL0     H12409   6.649   3.297   6.885  2.0940  1.2087  0.9010
   92MOL0     H12410   6.521   3.700   6.838 -0.0920  0.7445  0.0361
   92MOL0     H12411   6.673   3.740   6.937 -0.0805 -1.6275  1.4444
   92MOL0     H12412   6.684   3.847   6.736 -0.5525 -0.7392  1.9992
   92MOL0     H12413   6.666   3.710   6.639  0.3916 -0.7375  0.1478
   92MOL0     H12414   6.878   3.607   6.735 -0.8150 -0.2735 -4.2676
   92MOL0     H12415   6.910   3.753   6.819 -1.7389 -1.8222  0.9044
   92MOL0     H12416   7.027   3.785   6.621 -0.1780  0.0934  1.3046
   92MOL0     H12417   6.889   3.863   6.567  2.6367 -1.2248 -3.6930
   92MOL0     H12418   6.885   3.524   6.313 -2.5257 -1.2160  1.1053
   92MOL0     H12419   6.449   3.646   7.043  1.4481 -0.5687  4.4859
   92MOL0     H12420   6.300   3.491   7.157 -2.3720 -3.9186 -0.0242
   93MOL0     O12421  11.460  10.422  10.113  0.0495  0.4455  0.4920
   93MOL0     C12422  11.362  10.422  10.033 -0.6751 -0.2320 -0.3402
   93MOL0     O12423  11.267  10.519  10.028  0.5934  0.1590 -0.1208
   93MOL0     C12424  11.222  10.570  10.149 -1.0214  0.6528  0.0920
   93MOL0     C12425  11.204  10.489  10.266  1.4656 -0.4575 -0.2291
   93MOL0     C12426  11.148  10.533  10.390  0.6176 -0.3732  1.1549
   93MOL0     C12427  11.109  10.666  10.396 -0.3327 -0.3758  0.7575
   93MOL0     O12428  11.049  10.723  10.504 -0.1640 -0.6989  0.5707
   93MOL0     C12429  10.933  10.651  10.550  0.8224 -0.1237  1.0142
   93MOL0     C12430  10.920  10.636  10.703 -0.3784  0.3084 -0.3808
   93MOL0     C12431  10.875  10.767  10.768  0.3386 -0.7765  0.8071
   93MOL0     C12432  10.796  10.744  10.898 -0.0171 -0.8484 -0.6495
   93MOL0     C12433  10.640  10.720  10.898 -0.1950 -0.1421 -0.7537
   93MOL0     C12434  10.579  10.733  11.029  0.5949 -0.2190 -0.4784
   93MOL0     C12435  10.440  10.810  11.036  0.4240 -0.3493  0.1711
   93MOL0     C12436  10.447  10.965  11.006 -0.5526  1.0167 -0.5443
   93MOL0     N12437  10.531  11.026  11.110  0.2935 -0.1692  0.4835
   93MOL0     C12438  10.520  11.059  11.246  0.3486 -0.0688  1.4842
   93MOL0     C12439  10.627  11.137  11.285 -0.5505  0.4435 -0.0066
   93MOL0     C12440  10.660  11.182  11.418  0.4748  0.1123 -0.4817
   93MOL0     C12441  10.597  11.327  11.441  0.5426 -1.3919 -0.5107
   93MOL0     C12442  10.632  11.386  11.579  0.0212  0.7540 -0.7972
   93MOL0     C12443  10.544  11.503  11.614 -0.1341 -0.9219 -0.4729
   93MOL0     O12444  10.593  11.600  11.528  0.1768  0.4484 -0.0880
   93MOL0     C12445  10.513  11.648  11.431  0.5910  0.5615  0.1097
   93MOL0     C12446  10.573  11.678  11.310  0.2331 -0.6444  0.1883
   93MOL0     C12447  10.513  11.758  11.211 -0.0970 -0.6547 -0.4867
   93MOL0     C12448  10.601  11.814  11.103 -0.8560 -0.0084  0.3408
   93MOL0     C12449  10.379  11.793  11.228  0.3531 -0.2133  0.7745
   93MOL0     C12450  10.297  11.858  11.128  0.1248 -0.3914  0.7978
   93MOL0     O12451  10.179  11.798  11.107 -0.0429  0.7740  0.2915
   93MOL0     C12452  10.098  11.842  11.000  0.0269  0.2854 -0.1337
   93MOL0     C12453   9.962  11.817  11.014  0.5442 -0.2100  0.8440
   93MOL0     C12454   9.865  11.865  10.931  0.4141 -0.4402  0.6864
   93MOL0     C12455   9.902  11.927  10.812 -0.4342  0.1570 -0.1722
   93MOL0     O12456   9.810  11.962  10.729  0.3121 -0.5443 -0.5050
   93MOL0     C12457   9.818  12.072  10.627 -0.2315  0.0833  0.2715
   93MOL0     C12458   9.847  12.205  10.701  0.5651 -1.2050  0.1350
   93MOL0     C12459   9.781  12.330  10.648 -0.2991 -0.1411 -0.5186
   93MOL0     C12460   9.863  12.460  10.653 -0.1797 -0.2397 -0.1557
   93MOL0     C12461   9.781  12.575  10.606  0.0653  0.1473 -0.6407
   93MOL0     C12462   9.787  12.583  10.452  1.5052  0.8239  0.0189
   93MOL0     C12463   9.931  12.621  10.397 -0.2158  0.0146  0.3335
   93MOL0     C12464   9.963  12.763  10.438 -1.2953  0.5994 -0.8054
   93MOL0    Cl12465  10.113  12.783  10.331 -0.1248  0.2734 -0.2284
   93MOL0     C12466  10.037  11.941  10.786  0.0301  0.6032 -0.4815
   93MOL0     C12467  10.133  11.905  10.878 -0.2130  0.6013 -0.9468
   93MOL0     O12468  10.339  11.955  11.068 -0.0938 -0.2002  0.1311
   93MOL0     C12469  10.314  11.749  11.350  0.6780 -0.5397 -0.5334
   93MOL0     C12470  10.378  11.679  11.459  0.0425 -0.7753  0.7656
   93MOL0     N12471  10.716  11.134  11.171 -0.4391  0.2817  0.8223
   93MOL0     N12472  10.650  11.075  11.070  0.0594  0.7685  0.0103
   93MOL0     C12473  11.122  10.747  10.277 -1.1271  0.2012 -0.4995
   93MOL0     C12474  11.188  10.707  10.158 -0.2702  0.9417 -0.1279
   93MOL0     C12475  11.378  10.328   9.924 -0.3082 -0.1991  0.7093
   93MOL0     C12476  11.335  10.363   9.799 -0.2390  0.2964  0.0640
   93MOL0     C12477  11.365  10.282   9.686 -0.0545 -0.5191 -0.4289
   93MOL0     C12478  11.430  10.160   9.698 -0.0566  0.8042 -1.9705
   93MOL0     O12479  11.470  10.073   9.601 -0.7454 -0.5036 -0.0339
   93MOL0     C12480  11.443  10.114   9.461 -0.2366 -0.0684 -0.8659
   93MOL0     C12481  11.477   9.990   9.373 -0.1331  0.2774  0.6951
   93MOL0     C12482  11.435  10.013   9.226 -0.0980  0.0058  0.2798
   93MOL0     C12483  11.478  10.144   9.158  0.2143 -0.9216 -0.1550
   93MOL0     C12484  11.419  10.147   9.023 -0.5024  0.1713 -0.2503
   93MOL0     C12485  11.370  10.155   8.913  0.1341  0.1536 -0.3823
   93MOL0     C12486  11.472  10.124   9.827 -0.0551  0.4770 -0.4801
   93MOL0     C12487  11.445  10.209   9.935 -0.4333 -0.3092  0.7518
   93MOL0     H12488  11.218  10.381  10.258 -1.7833 -0.9553 -0.6808
   93MOL0     H12489  11.128  10.468  10.474 -1.0589 -4.4493 -2.0519
   93MOL0     H12490  10.848  10.708  10.511  1.5000 -0.7161 -1.5049
   93MOL0     H12491  10.916  10.554  10.501 -0.7824 -0.1797  1.6013
   93MOL0     H12492  10.854  10.551  10.725 -1.8519  0.8174 -2.5274
   93MOL0     H12493  11.021  10.614  10.739 -0.5610 -2.4719 -1.3592
   93MOL0     H12494  10.971  10.818  10.782  0.0904  0.6399 -1.9347
   93MOL0     H12495  10.822  10.839  10.705  3.3436  0.5300 -0.4069
   93MOL0     H12496  10.846  10.666  10.956  3.5007  0.7870 -1.2010
   93MOL0     H12497  10.811  10.843  10.942  1.1215 -2.2207  2.3389
   93MOL0     H12498  10.593  10.794  10.833 -0.4014  0.5135  0.1137
   93MOL0     H12499  10.617  10.618  10.865  1.5782 -0.5897 -0.7012
   93MOL0     H12500  10.554  10.635  11.070  0.1169  0.6561  1.4532
   93MOL0     H12501  10.653  10.783  11.091 -0.8391  3.6464 -1.5691
   93MOL0     H12502  10.369  10.761  10.969  0.6502  1.0770 -1.1789
   93MOL0     H12503  10.410  10.789  11.139 -0.3696 -1.1552 -0.2172
   93MOL0     H12504  10.348  11.011  11.014 -0.2727  1.4759  0.5285
   93MOL0     H12505  10.490  10.988  10.908  0.8045  2.2843  0.3059
   93MOL0     H12506  10.437  11.029  11.310 -3.2368 -0.4254 -2.8038
   93MOL0     H12507  10.622  11.102  11.482  0.9070  1.1401  1.0933
   93MOL0     H12508  10.765  11.181  11.447  0.4573  0.8756 -0.3846
   93MOL0     H12509  10.489  11.311  11.432  0.0575 -1.1669  3.2428
   93MOL0     H12510  10.634  11.397  11.366 -2.3051 -1.0775 -1.7388
   93MOL0     H12511  10.739  11.405  11.594  0.0900 -0.4310  0.5239
   93MOL0     H12512  10.601  11.309  11.650 -0.5527  0.6708 -1.1381
   93MOL0     H12513  10.550  11.521  11.721 -3.1682 -1.6944 -0.0833
   93MOL0     H12514  10.440  11.482  11.587 -0.4673  3.2260 -3.3840
   93MOL0     H12515  10.676  11.648  11.294  0.8543  1.3015  0.1787
   93MOL0     H12516  10.615  11.922  11.111 -2.3487  0.2530 -0.1924
   93MOL0     H12517  10.706  11.786  11.107 -0.5374  1.1618  0.2529
   93MOL0     H12518  10.549  11.795  11.008 -0.8247 -2.2803  0.7018
   93MOL0     H12519   9.931  11.750  11.093 -2.0223  2.3263  2.1325
   93MOL0     H12520   9.760  11.849  10.954  0.1809  1.4110  1.0104
   93MOL0     H12521   9.899  12.052  10.556 -0.7490  2.5522 -1.1580
   93MOL0     H12522   9.721  12.063  10.578  0.9586 -2.4300 -1.8254
   93MOL0     H12523   9.828  12.204  10.808  2.5509  1.5011  0.5989
   93MOL0     H12524   9.957  12.209  10.703  0.5786 -1.4798  2.8442
   93MOL0     H12525   9.698  12.352  10.716  0.2298  1.2742 -0.2886
   93MOL0     H12526   9.752  12.303  10.546 -1.2784 -1.2097  0.0249
   93MOL0     H12527   9.889  12.478  10.758  1.9684 -1.0951 -0.4692
   93MOL0     H12528   9.962  12.456  10.606 -0.2011  1.8571 -0.4702
   93MOL0     H12529   9.819  12.672  10.641 -2.2145  0.7420  0.3778
   93MOL0     H12530   9.675  12.570  10.633  0.0736  2.6905  0.2057
   93MOL0     H12531   9.751  12.492  10.404 -0.7173  2.2397 -1.1599
   93MOL0     H12532   9.706  12.652  10.429 -0.4689 -1.2399  0.3881
   93MOL0     H12533   9.918  12.622  10.289 -1.6942  0.7127  0.5045
   93MOL0     H12534  10.018  12.558  10.419 -1.0417 -0.9887  0.8054
   93MOL0     H12535  10.003  12.778  10.539 -2.8295 -1.7957  0.2677
   93MOL0     H12536   9.885  12.835  10.412 -2.2852 -0.3340 -0.4923
   93MOL0     H12537  10.079  11.982  10.695  2.3399  0.4471  0.4505
   93MOL0     H12538  10.239  11.914  10.857  0.3107 -3.4363 -0.7375
   93MOL0     H12539  10.207  11.762  11.359  0.9168  2.8441 -1.2790
   93MOL0     H12540  10.325  11.653  11.551 -0.1293  0.9708  1.1938
   93MOL0     H12541  11.077  10.845  10.282 -2.6845 -0.5452  1.2127
   93MOL0     H12542  11.188  10.762  10.064 -1.1383  2.7588  0.9105
   93MOL0     H12543  11.281  10.456   9.786 -0.3570  0.2716  0.3826
   93MOL0     H12544  11.327  10.329   9.595  0.0011 -0.5659 -0.4767
   93MOL0     H12545  11.343  10.154   9.443  0.7698  2.4871 -1.1726
   93MOL0     H12546  11.503  10.200   9.430  0.8282 -0.9045 -1.1765
   93MOL0     H12547  11.417   9.905   9.406 -2.4669  0.7067 -2.0476
   93MOL0     H12548  11.585   9.974   9.374 -0.3883 -1.8316  2.4584
   93MOL0     H12549  11.326  10.003   9.220 -0.5107  2.6414  1.8822
   93MOL0     H12550  11.487   9.931   9.176 -1.6618 -1.7619  1.4190
   93MOL0     H12551  11.585  10.164   9.148 -0.3025  1.6581 -1.2158
   93MOL0     H12552  11.441  10.219   9.229  2.8083 -0.1175  0.4742
   93MOL0     H12553  11.321  10.157   8.818 -1.9811 -1.5847  0.5864
   93MOL0     H12554  11.539  10.039   9.839  0.4302  0.9551  0.2746
   93MOL0     H12555  11.492  10.181  10.029  0.8657 -2.8586 -0.5636
   94MOL0     O12556   9.541   7.152  10.413  0.4589 -0.2718  0.0103
   94MOL0     C12557   9.430   7.203  10.431  0.2210 -0.3933  0.0785
   94MOL0     O12558   9.379   7.318  10.367 -1.0701  0.1151  0.9792
   94MOL0     C12559   9.462   7.381  10.277  0.8565 -0.8004  1.4615
   94MOL0     C12560   9.607   7.378  10.270 -0.2123  0.0280 -0.8216
   94MOL0     C12561   9.671   7.472  10.186  0.0010 -0.0763 -1.6987
   94MOL0     C12562   9.607   7.557  10.098 -0.0262  0.4443  0.3357
   94MOL0     O12563   9.671   7.657  10.023  0.1561 -0.8395 -0.1387
   94MOL0     C12564   9.795   7.639   9.964  0.4015  0.1573 -0.7182
   94MOL0     C12565   9.782   7.567   9.827 -0.0510 -0.1650  0.4369
   94MOL0     C12566   9.675   7.628   9.741  0.4141  1.0317  0.1438
   94MOL0     C12567   9.694   7.581   9.595  1.2660  0.4128 -0.5273
   94MOL0     C12568   9.626   7.444   9.570  0.7311  0.2718 -0.2868
   94MOL0     C12569   9.646   7.367   9.440 -0.3484 -1.0149 -0.9153
   94MOL0     C12570   9.805   7.368   9.419  1.2929 -0.8854  0.5814
   94MOL0     C12571   9.826   7.284   9.291 -0.0434 -1.2972  0.2704
   94MOL0     N12572   9.802   7.146   9.305 -0.2452 -0.8825  0.7499
   94MOL0     C12573   9.851   7.061   9.403  0.0984  0.0296  0.0289
   94MOL0     C12574   9.769   6.953   9.399  0.2399  0.7157 -0.0801
   94MOL0     C12575   9.767   6.826   9.479  0.0631  0.0721 -0.6988
   94MOL0     C12576   9.910   6.790   9.535 -0.3039  0.2362 -0.4769
   94MOL0     C12577  10.029   6.784   9.435  0.5146  0.8203  0.5349
   94MOL0     C12578  10.044   6.669   9.336  0.7353 -1.0409 -0.1958
   94MOL0     O12579   9.943   6.672   9.239  0.7625 -0.3064 -0.4656
   94MOL0     C12580   9.910   6.550   9.185 -0.4081  0.0550 -0.4418
   94MOL0     C12581   9.970   6.505   9.060  0.7893  0.0716 -0.9342
   94MOL0     C12582   9.936   6.386   8.999  0.4884  0.5567 -0.0484
   94MOL0     C12583  10.000   6.353   8.867 -0.2051 -0.3617 -1.0479
   94MOL0     C12584   9.818   6.324   9.045 -0.2994  0.2448 -0.8856
   94MOL0     C12585   9.759   6.212   8.974  1.8048  0.2691  0.6867
   94MOL0     O12586   9.623   6.202   8.962  0.1557 -0.0268 -0.7187
   94MOL0     C12587   9.568   6.087   8.908  0.0370 -0.3918 -0.4393
   94MOL0     C12588   9.448   6.050   8.979 -0.0430 -0.8123  0.7217
   94MOL0     C12589   9.368   5.957   8.920 -0.0165  0.2215 -0.9975
   94MOL0     C12590   9.401   5.898   8.795  0.6842 -0.6313 -1.1227
   94MOL0     O12591   9.318   5.804   8.742  0.5198 -0.4515 -0.1985
   94MOL0     C12592   9.265   5.842   8.617  0.9175  0.0373 -0.4562
   94MOL0     C12593   9.194   5.716   8.562  0.5172 -1.0947 -0.5562
   94MOL0     C12594   9.119   5.762   8.428  0.5423 -1.0721 -0.6079
   94MOL0     C12595   9.064   5.639   8.362  0.6112  0.4698 -0.1652
   94MOL0     C12596   8.965   5.667   8.250  0.3400 -0.3877 -0.6386
   94MOL0     C12597   8.885   5.541   8.199 -0.1680  0.5953  0.4589
   94MOL0     C12598   8.979   5.432   8.138  0.0094 -0.5074 -0.9154
   94MOL0     C12599   8.901   5.298   8.111 -0.4185  0.1556  0.3961
   94MOL0    Cl12600   8.750   5.350   8.036  0.5045 -0.0429  0.0307
   94MOL0     C12601   9.519   5.934   8.730  0.3957 -0.5379 -0.2018
   94MOL0     C12602   9.609   6.034   8.791  0.4116 -0.0179  0.0916
   94MOL0     O12603   9.828   6.120   8.946 -0.1900 -0.2942  1.2871
   94MOL0     C12604   9.747   6.371   9.159 -0.2753 -0.0586  0.0517
   94MOL0     C12605   9.794   6.481   9.229 -0.3369 -0.1664 -0.2638
   94MOL0     N12606   9.686   6.977   9.292  0.8331  0.1680 -0.0680
   94MOL0     N12607   9.695   7.092   9.245  0.4077  0.0908  0.2217
   94MOL0     C12608   9.470   7.549  10.108 -0.3889  0.1984  0.4005
   94MOL0     C12609   9.396   7.464  10.185  1.4359  0.0959 -0.0534
   94MOL0     C12610   9.348   7.131  10.538 -0.5890  0.7008  1.0975
   94MOL0     C12611   9.216   7.186  10.572 -0.1860  0.1980  1.1888
   94MOL0     C12612   9.135   7.114  10.661 -0.2009 -1.1594  0.2815
   94MOL0     C12613   9.188   7.005  10.729 -1.2611  0.3095  0.6773
   94MOL0     O12614   9.101   6.945  10.817  0.2003 -0.4429  0.0536
   94MOL0     C12615   9.142   6.828  10.885  0.8763  0.9819 -0.3475
   94MOL0     C12616   9.051   6.792  11.000 -0.2919  1.1181 -0.2229
   94MOL0     C12617   9.038   6.911  11.097 -0.3654 -0.0329  0.2608
   94MOL0     C12618   8.938   6.880  11.210 -0.1683 -0.5380 -0.5555
   94MOL0     C12619   8.962   6.979  11.313  0.2116  0.4191  0.0840
   94MOL0     C12620   8.967   7.080  11.388  0.4633  0.7192 -0.0726
   94MOL0     C12621   9.315   6.956  10.690 -0.9518 -0.0548  0.0168
   94MOL0     C12622   9.398   7.022  10.601 -0.2987  0.6634  0.9957
   94MOL0     H12623   9.667   7.327  10.345  2.8238  2.1008 -1.6544
   94MOL0     H12624   9.779   7.483  10.181 -0.2885  4.5953 -1.6632
   94MOL0     H12625   9.844   7.736   9.958 -0.4660  0.8884  2.3641
   94MOL0     H12626   9.864   7.582  10.027  0.7220  1.4972  0.1744
   94MOL0     H12627   9.872   7.571   9.764 -2.4188  1.8425 -3.1923
   94MOL0     H12628   9.756   7.461   9.838  3.1802 -1.1822 -0.5943
   94MOL0     H12629   9.573   7.599   9.768  0.2527  1.5216  0.0703
   94MOL0     H12630   9.687   7.735   9.759 -1.6459  0.7890  3.7992
   94MOL0     H12631   9.639   7.640   9.521  0.7622  2.1031  1.1184
   94MOL0     H12632   9.800   7.587   9.568  0.5448  0.3807 -3.8830
   94MOL0     H12633   9.649   7.381   9.657 -3.6548 -0.6214  0.4454
   94MOL0     H12634   9.518   7.459   9.575  0.9663  2.0307  0.3785
   94MOL0     H12635   9.608   7.267   9.461  0.5460 -1.6384 -2.1041
   94MOL0     H12636   9.591   7.408   9.354 -1.2180 -4.2502 -2.0232
   94MOL0     H12637   9.846   7.464   9.387  0.0582 -0.2765  0.7751
   94MOL0     H12638   9.877   7.337   9.495  1.7271  0.9108  0.9459
   94MOL0     H12639   9.930   7.298   9.258 -0.7796  0.4703 -1.5435
   94MOL0     H12640   9.758   7.318   9.213  0.7236  0.7736  0.4416
   94MOL0     H12641   9.927   7.066   9.481 -2.2033  1.7034  2.3567
   94MOL0     H12642   9.692   6.838   9.559 -0.0227 -1.6707 -0.4691
   94MOL0     H12643   9.734   6.749   9.409  2.1524 -0.5179 -1.1000
   94MOL0     H12644   9.893   6.692   9.580  0.4032  1.7140  3.4080
   94MOL0     H12645   9.948   6.858   9.612 -1.0121 -0.6997  0.7487
   94MOL0     H12646  10.120   6.785   9.496 -0.3406  0.4167  1.8742
   94MOL0     H12647  10.038   6.869   9.367  1.0499 -0.9317 -1.6917
   94MOL0     H12648  10.044   6.573   9.389 -3.3647 -0.6129  0.8896
   94MOL0     H12649  10.130   6.680   9.270  0.9604 -1.7081 -0.0230
   94MOL0     H12650  10.046   6.574   9.024 -0.2851  2.2069  0.6514
   94MOL0     H12651  10.059   6.264   8.890 -1.6356 -1.1109 -0.2025
   94MOL0     H12652   9.932   6.342   8.782 -0.2611  2.1035 -1.4179
   94MOL0     H12653  10.067   6.436   8.841  1.6734 -0.6306  2.3615
   94MOL0     H12654   9.418   6.100   9.071 -3.8437 -2.4892  0.5877
   94MOL0     H12655   9.281   5.922   8.974 -0.4837 -1.8873 -2.9601
   94MOL0     H12656   9.187   5.918   8.621 -0.3671 -1.2763  2.2991
   94MOL0     H12657   9.351   5.859   8.551  2.2560 -0.5175  1.0631
   94MOL0     H12658   9.262   5.631   8.552 -0.5270 -2.3302  2.0596
   94MOL0     H12659   9.122   5.686   8.638  3.3174 -2.6267  1.6759
   94MOL0     H12660   9.189   5.812   8.361 -1.7847  3.3978 -0.1110
   94MOL0     H12661   9.039   5.831   8.457  1.9292 -0.0093  0.8927
   94MOL0     H12662   9.145   5.582   8.318  2.4880  1.5283  1.7388
   94MOL0     H12663   9.012   5.581   8.439 -2.3281  1.4755 -1.2167
   94MOL0     H12664   8.996   5.717   8.157 -0.7894 -1.9672 -1.9255
   94MOL0     H12665   8.883   5.727   8.290 -2.4678 -2.9359 -2.1686
   94MOL0     H12666   8.835   5.500   8.287  1.6382 -0.4964  1.0118
   94MOL0     H12667   8.802   5.566   8.131 -1.2577  0.3641  1.6533
   94MOL0     H12668   9.064   5.422   8.207  0.4383  0.7288 -1.2298
   94MOL0     H12669   9.021   5.470   8.045 -0.8039  2.9586 -0.0390
   94MOL0     H12670   8.884   5.252   8.209 -0.7634  0.2678  0.3912
   94MOL0     H12671   8.953   5.222   8.053 -1.3198  0.8621 -1.4100
   94MOL0     H12672   9.554   5.885   8.639  1.6107  2.3693 -1.4266
   94MOL0     H12673   9.698   6.077   8.748  1.2609  0.2944  2.0556
   94MOL0     H12674   9.653   6.329   9.192 -0.6087  0.6831  0.0500
   94MOL0     H12675   9.742   6.526   9.312 -0.0811 -0.1881 -0.0913
   94MOL0     H12676   9.420   7.620  10.043 -0.2305  2.9777  3.1328
   94MOL0     H12677   9.288   7.459  10.188  1.3205  1.9026  3.0395
   94MOL0     H12678   9.177   7.277  10.529 -0.4995 -0.6203 -0.3398
   94MOL0     H12679   9.045   7.154  10.707 -0.2730  0.6960 -1.3738
   94MOL0     H12680   9.132   6.753  10.806 -1.5886  1.1790 -0.3032
   94MOL0     H12681   9.247   6.825  10.916  1.0461 -2.3715 -0.8835
   94MOL0     H12682   9.100   6.706  11.047  2.7903  2.8465 -0.0252
   94MOL0     H12683   8.954   6.761  10.959 -0.8441 -0.2135  1.9435
   94MOL0     H12684   9.001   6.992  11.033  2.9042 -0.1380 -2.0183
   94MOL0     H12685   9.135   6.946  11.132 -1.3702  0.2261  3.0609
   94MOL0     H12686   8.948   6.775  11.239 -2.3590  0.0473  2.9677
   94MOL0     H12687   8.835   6.878  11.175 -2.2055 -5.7258  4.1339
   94MOL0     H12688   8.947   7.158  11.459  1.9991 -0.8323  2.1847
   94MOL0     H12689   9.348   6.868  10.744  0.3062  1.0356  1.0979
   94MOL0     H12690   9.495   6.975  10.587 -0.7589  0.0390 -0.2192
   95MOL0     O12691   1.308   9.458   4.257 -0.0230  0.7166  0.3593
   95MOL0     C12692   1.204   9.438   4.193 -0.1505 -0.2978  1.1380
   95MOL0     O12693   1.081   9.406   4.250  0.0255 -0.1263  0.0693
   95MOL0     C12694   1.076   9.380   4.389  0.1708 -0.9480 -0.0843
   95MOL0     C12695   1.134   9.281   4.453 -1.1598  0.7357  0.1861
   95MOL0     C12696   1.120   9.256   4.588  0.1083  0.0721  0.2332
   95MOL0     C12697   1.038   9.333   4.667 -0.7000 -0.6034  0.4658
   95MOL0     O12698   1.008   9.310   4.799 -0.8287 -0.1776 -0.2532
   95MOL0     C12699   1.019   9.183   4.860 -0.2587 -0.0333  0.3501
   95MOL0     C12700   1.014   9.204   5.002 -0.6613 -0.0352 -0.0015
   95MOL0     C12701   1.080   9.097   5.090 -0.2090  0.4920  0.1391
   95MOL0     C12702   1.007   8.961   5.071 -0.3120  0.7855 -0.2353
   95MOL0     C12703   0.908   8.940   5.185 -0.5306 -0.8156 -0.2254
   95MOL0     C12704   0.836   8.800   5.187 -0.5943 -0.2710  1.0013
   95MOL0     C12705   0.774   8.771   5.053  0.5754 -0.0975 -0.9555
   95MOL0     C12706   0.669   8.661   5.067 -0.9449  0.0491 -0.7792
   95MOL0     N12707   0.712   8.543   4.986  0.2575 -0.3078  0.0431
   95MOL0     C12708   0.834   8.478   4.980 -0.3628  0.1720  0.2225
   95MOL0     C12709   0.801   8.363   4.917  0.0548  0.2195 -0.5983
   95MOL0     C12710   0.909   8.241   4.893 -0.7543 -0.3787 -0.9687
   95MOL0     C12711   0.835   8.114   4.864  0.3601  0.3538 -0.0906
   95MOL0     C12712   0.922   7.997   4.802  0.0970 -0.4131  0.7245
   95MOL0     C12713   0.836   7.897   4.737  0.3123 -0.0420 -0.9173
   95MOL0     O12714   0.922   7.798   4.674  0.4594 -0.8162 -0.3498
   95MOL0     C12715   0.937   7.673   4.726  0.2686  0.7878  0.7950
   95MOL0     C12716   1.067   7.621   4.726 -0.2736  0.4810  0.0774
   95MOL0     C12717   1.082   7.490   4.762  0.2906 -0.1866  0.2842
   95MOL0     C12718   1.226   7.439   4.751  0.1652 -0.2643  0.0671
   95MOL0     C12719   0.972   7.409   4.804  0.3349  0.3202  0.7336
   95MOL0     C12720   0.990   7.270   4.850 -0.0193 -0.2620  0.0141
   95MOL0     O12721   1.031   7.172   4.768  0.7422 -0.0157  0.9526
   95MOL0     C12722   1.031   7.033   4.785 -0.3332  0.1820 -0.4698
   95MOL0     C12723   0.984   6.958   4.669  0.0398 -0.7721 -0.3681
   95MOL0     C12724   0.966   6.819   4.667 -0.5510  0.8309 -0.2193
   95MOL0     C12725   0.990   6.750   4.792  1.0616  0.1226  0.9159
   95MOL0     O12726   0.963   6.615   4.799 -0.9738 -0.1330 -0.7864
   95MOL0     C12727   1.045   6.537   4.890 -0.3450  0.1605 -0.7799
   95MOL0     C12728   1.073   6.392   4.833  0.3341  0.1333 -0.6837
   95MOL0     C12729   0.948   6.316   4.851 -0.3418  1.2664 -0.2982
   95MOL0     C12730   0.957   6.176   4.777 -0.0995 -0.3660  0.4035
   95MOL0     C12731   0.872   6.162   4.648 -0.0597  0.0028 -0.1326
   95MOL0     C12732   0.926   6.256   4.550  0.6097 -0.2678  0.2703
   95MOL0     C12733   0.851   6.242   4.419  0.6666 -0.1108  0.0007
   95MOL0     C12734   0.856   6.365   4.333  0.2704  0.8214  0.8623
   95MOL0    Cl12735   0.763   6.506   4.406 -0.4628 -0.1945  0.1355
   95MOL0     C12736   1.026   6.817   4.909 -0.0763  0.2561 -0.1961
   95MOL0     C12737   1.045   6.957   4.910  0.0718 -0.1240 -0.1378
   95MOL0     O12738   0.943   7.249   4.958  0.0544 -0.5939 -0.6691
   95MOL0     C12739   0.842   7.464   4.800 -0.1798 -0.3411 -0.5021
   95MOL0     C12740   0.821   7.596   4.760 -0.4987 -0.0596  0.1834
   95MOL0     N12741   0.658   8.356   4.905  0.1945 -0.2784  0.1792
   95MOL0     N12742   0.608   8.466   4.946 -0.0342  0.2155  0.5404
   95MOL0     C12743   0.972   9.432   4.599 -0.5557 -0.2157 -0.1080
   95MOL0     C12744   1.000   9.469   4.465 -0.6502 -0.2939 -0.1318
   95MOL0     C12745   1.211   9.481   4.052 -0.1090 -0.3440  0.4275
   95MOL0     C12746   1.325   9.475   3.978 -1.6383  0.2513  0.1139
   95MOL0     C12747   1.324   9.479   3.835 -0.2707  1.2583 -0.2737
   95MOL0     C12748   1.215   9.502   3.760  0.4644  0.5178  0.4448
   95MOL0     O12749   1.198   9.496   3.623 -0.5251  0.3816  0.2587
   95MOL0     C12750   1.305   9.420   3.560 -0.1040  0.0421  0.1526
   95MOL0     C12751   1.427   9.503   3.524 -0.7723 -0.0778 -0.7434
   95MOL0     C12752   1.427   9.588   3.394 -0.5843 -0.0571  0.2980
   95MOL0     C12753   1.518   9.524   3.293 -0.6676 -0.0029 -0.4033
   95MOL0     C12754   1.496   9.596   3.162 -0.9251  0.1266 -0.0551
   95MOL0     C12755   1.480   9.641   3.048  1.2409  0.1545  0.0085
   95MOL0     C12756   1.099   9.521   3.834  0.6771  1.1630  0.2840
   95MOL0     C12757   1.095   9.515   3.973  0.3801  0.3083  0.3034
   95MOL0     H12758   1.200   9.219   4.393 -0.4653  0.0202  1.6424
   95MOL0     H12759   1.180   9.174   4.627  2.0377 -0.1519 -2.8765
   95MOL0     H12760   0.951   9.105   4.822  1.6292 -2.4932  1.7147
   95MOL0     H12761   1.119   9.141   4.848 -0.0854  1.0627 -3.1885
   95MOL0     H12762   1.072   9.291   5.032  0.0693 -0.7519  0.7184
   95MOL0     H12763   0.909   9.216   5.033 -0.4490  0.1845  0.6350
   95MOL0     H12764   1.185   9.087   5.058 -0.2970  2.3667 -0.8882
   95MOL0     H12765   1.076   9.122   5.196 -1.6361 -0.3909  0.3254
   95MOL0     H12766   0.957   8.944   4.975  1.2796 -1.0568 -0.8110
   95MOL0     H12767   1.081   8.881   5.084 -1.4759  0.0518  2.4583
   95MOL0     H12768   0.961   8.955   5.279  1.3202 -2.3334 -0.9649
   95MOL0     H12769   0.830   9.017   5.181 -0.3765 -0.6283  0.2994
   95MOL0     H12770   0.915   8.726   5.196 -1.7530 -1.8718 -1.0594
   95MOL0     H12771   0.760   8.797   5.265 -0.7682  0.2397  0.8574
   95MOL0     H12772   0.719   8.860   5.020  0.0391 -0.7236 -1.8137
   95MOL0     H12773   0.855   8.748   4.983 -0.7315  2.3501 -3.5205
   95MOL0     H12774   0.569   8.699   5.044 -1.3191 -1.0548 -1.0161
   95MOL0     H12775   0.661   8.631   5.172 -0.1908  0.9523 -0.4454
   95MOL0     H12776   0.935   8.512   4.998  0.0997 -1.5071  0.9142
   95MOL0     H12777   0.980   8.263   4.812 -1.7077  0.9732 -1.4594
   95MOL0     H12778   0.969   8.237   4.984 -0.4170  2.5024 -0.9865
   95MOL0     H12779   0.751   8.144   4.801 -2.0997 -2.9105  1.3439
   95MOL0     H12780   0.789   8.079   4.956 -1.5085  1.0777 -0.7049
   95MOL0     H12781   0.974   7.950   4.886 -0.2031  0.8074  1.6161
   95MOL0     H12782   0.978   8.028   4.713 -1.0585 -0.5631 -0.0832
   95MOL0     H12783   0.770   7.942   4.663 -3.4652 -1.4786  1.2416
   95MOL0     H12784   0.776   7.846   4.814  0.9364  2.2396  1.2042
   95MOL0     H12785   1.148   7.681   4.687  3.2192 -4.3582 -1.0963
   95MOL0     H12786   1.289   7.495   4.820  0.7903  2.9287 -2.8301
   95MOL0     H12787   1.230   7.333   4.776 -5.0360 -0.0021  3.5982
   95MOL0     H12788   1.252   7.452   4.646 -0.8961  3.2645  0.1051
   95MOL0     H12789   0.985   7.023   4.582 -0.4757 -1.4284 -0.8699
   95MOL0     H12790   0.936   6.763   4.578 -1.5232  1.0021 -0.0024
   95MOL0     H12791   1.138   6.582   4.923  2.2600 -3.3693 -2.6656
   95MOL0     H12792   0.982   6.532   4.979  1.1897  0.9623  0.3799
   95MOL0     H12793   1.103   6.407   4.729  2.2576 -0.2942 -0.2160
   95MOL0     H12794   1.156   6.345   4.886 -1.4593 -0.0119  2.1871
   95MOL0     H12795   0.851   6.356   4.824 -0.9725  0.3528  0.5399
   95MOL0     H12796   0.944   6.288   4.957  3.8171 -1.1949 -0.5716
   95MOL0     H12797   1.061   6.146   4.757  0.2052 -0.2720  1.7432
   95MOL0     H12798   0.922   6.092   4.838  2.6352 -3.5066 -1.9431
   95MOL0     H12799   0.767   6.186   4.671 -0.0930  1.7456 -1.9122
   95MOL0     H12800   0.878   6.062   4.604  0.1063  0.8790 -2.2287
   95MOL0     H12801   0.910   6.354   4.596 -1.0129  0.1578 -1.1031
   95MOL0     H12802   1.030   6.225   4.539 -0.0242 -2.9517  1.0401
   95MOL0     H12803   0.746   6.217   4.438  0.2932  1.4544  0.1297
   95MOL0     H12804   0.896   6.151   4.378 -2.4790 -3.0116  2.3777
   95MOL0     H12805   0.818   6.336   4.235 -3.1873  0.3634  2.1810
   95MOL0     H12806   0.959   6.399   4.322  0.5937 -0.8438 -2.3582
   95MOL0     H12807   1.047   6.771   5.005 -1.2316  3.7958  1.9553
   95MOL0     H12808   1.075   7.013   4.998  2.8409  2.2905 -2.3916
   95MOL0     H12809   0.758   7.407   4.837  1.0915 -1.2278  1.1824
   95MOL0     H12810   0.730   7.655   4.758  0.3417  1.2739 -0.5769
   95MOL0     H12811   0.908   9.494   4.660  0.9850  3.4631 -1.9324
   95MOL0     H12812   0.952   9.554   4.416 -0.2937 -0.0927 -0.1415
   95MOL0     H12813   1.422   9.450   4.020 -1.5624 -0.7714 -0.6189
   95MOL0     H12814   1.420   9.476   3.786 -1.7152  0.8743 -3.3369
   95MOL0     H12815   1.332   9.339   3.629 -0.8296  1.6803  2.5046
   95MOL0     H12816   1.264   9.372   3.471  2.1836 -0.9390 -0.4305
   95MOL0     H12817   1.517   9.441   3.518  2.1338  3.5455  0.9302
   95MOL0     H12818   1.453   9.563   3.611  3.9000 -2.5395 -0.1371
   95MOL0     H12819   1.462   9.689   3.420  0.4089 -0.6669  1.4077
   95MOL0     H12820   1.326   9.603   3.354 -0.1060  0.2782 -0.8309
   95MOL0     H12821   1.506   9.422   3.257  3.9559  0.0981 -2.9759
   95MOL0     H12822   1.623   9.516   3.321 -0.9381  2.0990  1.4620
   95MOL0     H12823   1.463   9.672   2.947 -3.6566 -1.4440  0.0976
   95MOL0     H12824   1.003   9.548   3.791 -0.1552 -0.2639  1.1723
   95MOL0     H12825   1.001   9.552   4.014 -0.2925  1.1215 -1.7976
   96MOL0     O12826   3.138   1.055   8.723  0.3725  0.0426 -0.5236
   96MOL0     C12827   3.216   0.991   8.801 -0.3319  0.0700  0.7386
   96MOL0     O12828   3.229   0.857   8.803 -0.0122  0.0465 -0.6346
   96MOL0     C12829   3.142   0.772   8.745  0.7736 -0.7023 -0.9243
   96MOL0     C12830   3.060   0.705   8.833 -0.0823  1.0215 -0.0024
   96MOL0     C12831   2.954   0.621   8.787 -0.8232 -0.5845  0.7180
   96MOL0     C12832   2.942   0.611   8.647  0.9279  0.5599 -0.5768
   96MOL0     O12833   2.849   0.522   8.594  0.3478  0.0964 -0.3999
   96MOL0     C12834   2.874   0.436   8.480  0.2758 -0.1269 -0.5005
   96MOL0     C12835   2.783   0.311   8.482 -0.8395 -0.7432 -0.3651
   96MOL0     C12836   2.772   0.246   8.346  0.3023  0.6374  1.6769
   96MOL0     C12837   2.700   0.105   8.357 -0.1102  1.8956 -0.4008
   96MOL0     C12838   2.559   0.103   8.430  0.3702  0.2337 -0.3149
   96MOL0     C12839   2.472  -0.023   8.396  0.3327  0.4908  0.0937
   96MOL0     C12840   2.329  -0.021   8.447  0.6197 -0.3541  0.7862
   96MOL0     C12841   2.235  -0.132   8.400 -0.2907  0.3555  0.5073
   96MOL0     N12842   2.293  -0.263   8.414 -0.0064 -0.1827 -0.2889
   96MOL0     C12843   2.270  -0.347   8.524  0.4132 -0.4003  0.4151
   96MOL0     C12844   2.336  -0.461   8.484  0.0223  0.7472  0.1082
   96MOL0     C12845   2.330  -0.592   8.552 -0.4194  0.7203  0.0379
   96MOL0     C12846   2.428  -0.592   8.667 -0.5873 -0.4248  0.1872
   96MOL0     C12847   2.477  -0.734   8.705 -0.1885  0.4230  0.4672
   96MOL0     C12848   2.560  -0.739   8.833 -0.1975  0.4742  0.9249
   96MOL0     O12849   2.608  -0.878   8.850  0.9989  0.0479  0.8735
   96MOL0     C12850   2.654  -0.916   8.970 -0.3394 -0.4292 -0.1478
   96MOL0     C12851   2.662  -0.829   9.083 -0.6707  0.5017  0.6390
   96MOL0     C12852   2.719  -0.875   9.203  0.0512  0.1479 -0.0613
   96MOL0     C12853   2.723  -0.768   9.318  0.3868  0.1959  0.6473
   96MOL0     C12854   2.764  -1.012   9.209  0.1058 -0.2395 -0.1576
   96MOL0     C12855   2.818  -1.072   9.332  0.6278 -0.2077 -0.0556
   96MOL0     O12856   2.832  -1.207   9.323 -0.1143  0.4233 -0.1752
   96MOL0     C12857   2.865  -1.280   9.432 -0.2435 -0.7011  0.2261
   96MOL0     C12858   2.838  -1.246   9.571 -1.1379  0.8572 -0.1088
   96MOL0     C12859   2.862  -1.334   9.670 -0.5094 -1.0076 -0.2056
   96MOL0     C12860   2.913  -1.461   9.636 -0.1706  0.9032 -0.1889
   96MOL0     O12861   2.953  -1.535   9.740  0.5132  0.3465 -0.1310
   96MOL0     C12862   2.888  -1.659   9.745  0.8204  0.3134  0.1166
   96MOL0     C12863   2.893  -1.732   9.878  1.0562 -0.5828  0.2179
   96MOL0     C12864   2.851  -1.636  10.001  0.0937  0.1426  0.4707
   96MOL0     C12865   2.697  -1.611  10.001  0.3965  1.2406  0.3496
   96MOL0     C12866   2.639  -1.512  10.109 -0.4999  0.3864 -0.0500
   96MOL0     C12867   2.678  -1.540  10.254 -0.5241  0.4925  0.0217
   96MOL0     C12868   2.607  -1.668  10.305  0.9863 -0.3143  0.9542
   96MOL0     C12869   2.688  -1.761  10.381 -0.4040  1.0314 -0.3572
   96MOL0    Cl12870   2.690  -1.919  10.291  0.1266 -0.2194 -0.3348
   96MOL0     C12871   2.940  -1.494   9.503 -0.0666  0.0390 -0.1079
   96MOL0     C12872   2.918  -1.406   9.395 -0.5877  0.0972  0.0614
   96MOL0     O12873   2.847  -1.002   9.427  0.2705 -0.2923 -0.5723
   96MOL0     C12874   2.751  -1.091   9.099  0.2775  1.0663  0.2511
   96MOL0     C12875   2.690  -1.046   8.985  1.2657 -0.3230  1.0315
   96MOL0     N12876   2.407  -0.434   8.360  0.6927  0.1152 -0.3335
   96MOL0     N12877   2.364  -0.320   8.321 -0.3332 -0.5768 -0.1451
   96MOL0     C12878   3.021   0.673   8.558 -0.7319 -0.6494  0.3249
   96MOL0     C12879   3.126   0.763   8.611 -0.0931 -0.1058 -0.6188
   96MOL0     C12880   3.323   1.059   8.872  0.2447 -0.4477 -0.2889
   96MOL0     C12881   3.326   1.193   8.888  0.0012 -0.2639  0.2561
   96MOL0     C12882   3.424   1.262   8.962 -0.7048  0.2966  0.7906
   96MOL0     C12883   3.521   1.184   9.035  0.1479 -0.8962  0.3214
   96MOL0     O12884   3.608   1.246   9.124 -0.9913  0.7302  0.5484
   96MOL0     C12885   3.732   1.184   9.167  0.2074 -0.9841 -0.0211
   96MOL0     C12886   3.817   1.287   9.243  0.3420 -0.9410 -0.4450
   96MOL0     C12887   3.948   1.219   9.303  0.7330  0.3652 -0.6174
   96MOL0     C12888   4.045   1.322   9.354 -0.0284 -0.4101  0.4136
   96MOL0     C12889   4.168   1.257   9.386 -0.2301  0.1967  0.4563
   96MOL0     C12890   4.266   1.199   9.435 -0.0303  0.0157 -0.1962
   96MOL0     C12891   3.524   1.048   9.016 -1.1255 -0.6161  0.9480
   96MOL0     C12892   3.429   0.986   8.939  0.4248 -0.4849  0.1829
   96MOL0     H12893   3.081   0.710   8.939  2.2896  0.7922 -0.4219
   96MOL0     H12894   2.888   0.558   8.846 -1.4983  1.1004  1.8367
   96MOL0     H12895   2.843   0.497   8.394 -1.0216  2.3991  1.6281
   96MOL0     H12896   2.979   0.411   8.469  0.5800  1.7159 -2.7689
   96MOL0     H12897   2.827   0.243   8.556  1.6876  1.4199  0.2855
   96MOL0     H12898   2.685   0.352   8.506 -0.3720  1.4929 -1.9318
   96MOL0     H12899   2.705   0.309   8.289 -3.3041 -2.6083  1.8993
   96MOL0     H12900   2.856   0.226   8.278 -1.5060 -3.6245  0.3190
   96MOL0     H12901   2.691   0.058   8.259 -1.5185 -1.5873  1.2375
   96MOL0     H12902   2.771   0.034   8.399  0.4437 -0.3171 -4.5332
   96MOL0     H12903   2.570   0.108   8.538 -4.1314  2.7128  0.2785
   96MOL0     H12904   2.501   0.190   8.398 -0.8109 -0.2525  0.4270
   96MOL0     H12905   2.468  -0.040   8.288  0.8624 -2.8788  0.4694
   96MOL0     H12906   2.526  -0.111   8.432 -0.2573 -0.2063 -0.6761
   96MOL0     H12907   2.338  -0.028   8.556 -0.3339 -0.9538  0.8273
   96MOL0     H12908   2.282   0.073   8.416  1.1188  0.7141  3.0677
   96MOL0     H12909   2.213  -0.134   8.293  1.0175  2.9968  0.1067
   96MOL0     H12910   2.139  -0.128   8.453 -0.2544  0.7760  0.5456
   96MOL0     H12911   2.190  -0.337   8.596 -0.9312  1.1034 -1.2178
   96MOL0     H12912   2.227  -0.615   8.582 -0.9866  0.1607 -2.1658
   96MOL0     H12913   2.355  -0.671   8.481 -3.9320  2.2221 -3.1972
   96MOL0     H12914   2.380  -0.552   8.757 -2.5767  0.0610 -1.0261
   96MOL0     H12915   2.517  -0.538   8.634 -1.2806  0.1490 -0.7983
   96MOL0     H12916   2.549  -0.764   8.629 -0.2217  0.6838  0.3321
   96MOL0     H12917   2.390  -0.801   8.710  0.4919 -0.4618  0.7785
   96MOL0     H12918   2.490  -0.711   8.912 -0.7982  1.0185  0.2136
   96MOL0     H12919   2.644  -0.669   8.822  0.1562 -0.1179 -0.3249
   96MOL0     H12920   2.635  -0.724   9.071  1.7105  0.8948 -2.7274
   96MOL0     H12921   2.657  -0.687   9.286  0.0462 -0.5174 -0.5078
   96MOL0     H12922   2.695  -0.814   9.414  0.1423  1.0760  1.0115
   96MOL0     H12923   2.825  -0.729   9.312 -0.5193  2.4370 -1.7359
   96MOL0     H12924   2.810  -1.147   9.607  1.2530  1.6588 -0.3124
   96MOL0     H12925   2.853  -1.295   9.771  2.7638  4.3035 -1.5537
   96MOL0     H12926   2.792  -1.646   9.695  2.4858 -0.0553 -3.5539
   96MOL0     H12927   2.949  -1.725   9.682  1.7118 -0.4794  1.7444
   96MOL0     H12928   2.835  -1.824   9.874  1.8630 -1.0896 -0.3066
   96MOL0     H12929   2.993  -1.776   9.890  0.8129 -1.3334 -0.4548
   96MOL0     H12930   2.912  -1.546   9.991  0.8230 -0.4028 -0.2095
   96MOL0     H12931   2.872  -1.695  10.091 -1.9416 -1.3642  0.0221
   96MOL0     H12932   2.680  -1.579   9.897  0.5074  0.4722  0.0861
   96MOL0     H12933   2.645  -1.706  10.019  1.8670  0.3129 -0.1475
   96MOL0     H12934   2.531  -1.506  10.094 -1.0507 -2.4198  1.9281
   96MOL0     H12935   2.683  -1.416  10.080  0.8368 -0.0652  0.4226
   96MOL0     H12936   2.785  -1.559  10.252 -0.9312 -2.8472 -3.5078
   96MOL0     H12937   2.637  -1.460  10.316 -2.8599 -1.3361  1.0044
   96MOL0     H12938   2.552  -1.709  10.219 -0.3905  0.8064  1.2659
   96MOL0     H12939   2.523  -1.627  10.362 -0.8159  0.3288 -1.9152
   96MOL0     H12940   2.657  -1.785  10.483  3.5932 -3.5310  0.1650
   96MOL0     H12941   2.791  -1.725  10.384  0.2912 -0.8620 -0.2420
   96MOL0     H12942   2.987  -1.586   9.471 -1.8121 -0.9514  0.1098
   96MOL0     H12943   2.940  -1.434   9.292  2.0624  1.5867  0.1267
   96MOL0     H12944   2.778  -1.196   9.089 -1.8258  0.5543 -0.4751
   96MOL0     H12945   2.657  -1.115   8.907 -3.3486  1.9461  0.6047
   96MOL0     H12946   3.016   0.666   8.450  0.1471  1.1836  0.1189
   96MOL0     H12947   3.188   0.816   8.540  1.3490 -1.8228 -0.6951
   96MOL0     H12948   3.260   1.254   8.826 -0.2006  0.6289  1.3212
   96MOL0     H12949   3.426   1.370   8.969 -2.2366  0.2641  2.4998
   96MOL0     H12950   3.708   1.101   9.234  1.9044 -1.7625 -0.3140
   96MOL0     H12951   3.794   1.149   9.084 -1.7834 -1.0288 -1.5549
   96MOL0     H12952   3.750   1.319   9.322 -1.5506 -1.8065 -1.6223
   96MOL0     H12953   3.841   1.374   9.181 -2.2529  1.0327  1.1432
   96MOL0     H12954   3.986   1.164   9.217 -0.1491  1.0127 -1.4515
   96MOL0     H12955   3.921   1.160   9.391  1.0862 -0.0545 -0.7900
   96MOL0     H12956   4.013   1.388   9.435 -1.4475 -1.0635  0.4258
   96MOL0     H12957   4.058   1.395   9.273  0.1118 -0.6103  0.2538
   96MOL0     H12958   4.349   1.143   9.472  0.4028  2.3924  2.8257
   96MOL0     H12959   3.608   0.992   9.055 -0.7410 -0.3656  0.5046
   96MOL0     H12960   3.438   0.879   8.926  0.6947 -0.2986 -1.4234
   97MOL0     O12961   8.063   8.880   3.940  0.0540 -0.0000 -0.5666
   97MOL0     C12962   8.041   8.992   3.886  0.3109 -0.5497  0.7884
   97MOL0     O12963   7.921   9.065   3.900  1.0040 -0.0155  0.3573
   97MOL0     C12964   7.805   9.003   3.949  0.2319  0.4554 -0.1590
   97MOL0     C12965   7.746   8.908   3.858  0.3002  0.3012  0.0824
   97MOL0     C12966   7.629   8.844   3.895  0.2552  0.3187  0.6269
   97MOL0     C12967   7.566   8.879   4.018  0.1988  0.4973 -0.2965
   97MOL0     O12968   7.454   8.819   4.067  0.3656  0.0601 -0.3380
   97MOL0     C12969   7.380   8.723   3.993  0.7826 -0.3226 -0.1221
   97MOL0     C12970   7.284   8.636   4.086  0.0823 -0.4265  0.8970
   97MOL0     C12971   7.356   8.547   4.187 -0.1572  0.0092  0.4915
   97MOL0     C12972   7.249   8.460   4.255  0.2499  0.4132  0.2993
   97MOL0     C12973   7.238   8.316   4.205  0.4353 -0.1399 -0.3775
   97MOL0     C12974   7.350   8.208   4.244  0.0634  0.0255 -0.1723
   97MOL0     C12975   7.305   8.125   4.365  0.3845 -0.0880 -0.0196
   97MOL0     C12976   7.386   7.999   4.403 -0.2466  0.2497  0.7917
   97MOL0     N12977   7.385   7.894   4.305 -0.1423  0.6913  0.6837
   97MOL0     C12978   7.273   7.814   4.264  0.3583  0.7191 -0.6096
   97MOL0     C12979   7.311   7.743   4.147 -0.0292 -0.0639  0.3412
   97MOL0     C12980   7.238   7.644   4.068  1.2135 -0.0667 -0.4813
   97MOL0     C12981   7.170   7.529   4.149 -1.7661 -0.2764  0.9111
   97MOL0     C12982   7.084   7.430   4.050 -0.1893 -1.3600 -0.0109
   97MOL0     C12983   7.028   7.318   4.135  0.0858 -0.2198  0.0293
   97MOL0     O12984   6.959   7.250   4.034 -0.3996  0.3538 -0.2375
   97MOL0     C12985   6.931   7.118   4.059 -0.6460  0.2535  0.6798
   97MOL0     C12986   6.952   7.051   4.186  0.0028  0.2141  0.6640
   97MOL0     C12987   6.924   6.916   4.201 -0.0797 -1.0186 -0.3069
   97MOL0     C12988   6.952   6.886   4.345 -0.9549  0.0504  0.4991
   97MOL0     C12989   6.887   6.838   4.089  0.4761  0.1318 -0.5539
   97MOL0     C12990   6.856   6.690   4.106  1.1646  0.4900  0.2611
   97MOL0     O12991   6.797   6.630   3.994  0.3941 -1.0788 -0.3930
   97MOL0     C12992   6.752   6.495   3.998  0.3328 -1.2044 -0.3781
   97MOL0     C12993   6.616   6.465   4.022  0.2953 -0.0808 -0.6624
   97MOL0     C12994   6.565   6.330   4.008 -0.4810  0.3537 -0.1175
   97MOL0     C12995   6.649   6.231   3.953  0.1075  0.9285 -0.6286
   97MOL0     O12996   6.618   6.104   3.908  0.0365 -0.4460  0.3376
   97MOL0     C12997   6.497   6.046   3.958 -0.3850  0.1141  0.0352
   97MOL0     C12998   6.486   5.905   3.893 -0.0995 -0.1429  0.5840
   97MOL0     C12999   6.390   5.809   3.961  0.1627 -0.3240  0.2798
   97MOL0     C13000   6.373   5.663   3.908  0.1750 -0.3460  0.8338
   97MOL0     C13001   6.373   5.649   3.757 -0.3747 -0.7422  0.0338
   97MOL0     C13002   6.339   5.512   3.684 -0.6987  0.8177  0.7420
   97MOL0     C13003   6.204   5.446   3.719 -0.0828  0.2310 -1.2812
   97MOL0     C13004   6.170   5.330   3.626  0.4641  0.5451 -0.1284
   97MOL0    Cl13005   6.020   5.244   3.688  0.0566 -0.2427 -0.1393
   97MOL0     C13006   6.782   6.258   3.955 -0.8892 -0.1919 -1.1161
   97MOL0     C13007   6.833   6.383   3.964 -0.6083  0.2125 -0.4747
   97MOL0     O13008   6.895   6.628   4.199 -0.0888 -0.2711 -0.6439
   97MOL0     C13009   6.870   6.903   3.965  0.0722 -0.7930 -0.7488
   97MOL0     C13010   6.888   7.041   3.952  0.2304  0.4153 -1.1478
   97MOL0     N13011   7.439   7.789   4.114  0.1844 -0.4586 -0.0810
   97MOL0     N13012   7.476   7.877   4.211 -0.2825  0.3143  0.2501
   97MOL0     C13013   7.636   8.962   4.108  0.6143 -0.2037  0.8404
   97MOL0     C13014   7.761   9.024   4.083 -0.2614  1.0543 -0.4522
   97MOL0     C13015   8.145   9.046   3.800  0.7997  0.2641  0.3268
   97MOL0     C13016   8.265   8.976   3.785  0.6876  0.6264 -0.7126
   97MOL0     C13017   8.366   9.022   3.711  0.0538  0.8263 -0.6327
   97MOL0     C13018   8.356   9.148   3.653 -0.3508  0.5838 -0.6169
   97MOL0     O13019   8.459   9.182   3.576 -1.0994  0.0724  0.0967
   97MOL0     C13020   8.548   9.282   3.619 -0.3173  0.4788 -0.9755
   97MOL0     C13021   8.612   9.261   3.760 -0.0503 -0.2822  0.8207
   97MOL0     C13022   8.722   9.156   3.774  0.7179  0.1734 -0.6817
   97MOL0     C13023   8.752   9.138   3.925 -0.0334 -0.2828  0.1204
   97MOL0     C13024   8.863   9.049   3.956 -0.1520 -0.8085 -0.4069
   97MOL0     C13025   8.962   8.971   3.963  0.1409  0.8423 -0.0518
   97MOL0     C13026   8.236   9.218   3.663 -0.1339  0.0489  0.8606
   97MOL0     C13027   8.126   9.172   3.738  0.6941  0.2563  0.3779
   97MOL0     H13028   7.796   8.889   3.764  2.3288 -2.7310  1.5888
   97MOL0     H13029   7.574   8.784   3.823  0.9813  0.1592  0.1986
   97MOL0     H13030   7.313   8.775   3.924  0.1803  1.5161  1.7339
   97MOL0     H13031   7.440   8.648   3.942  0.0286 -0.6213 -0.5931
   97MOL0     H13032   7.215   8.694   4.148  0.2615 -0.4186  1.0878
   97MOL0     H13033   7.227   8.571   4.018 -3.2748 -1.3718  4.2943
   97MOL0     H13034   7.423   8.485   4.128 -0.1841 -3.1988  3.4804
   97MOL0     H13035   7.415   8.607   4.257  2.9550 -1.2993 -0.8608
   97MOL0     H13036   7.269   8.476   4.361 -0.5490  2.4736  0.1954
   97MOL0     H13037   7.151   8.499   4.228  0.3118 -0.7641 -1.8851
   97MOL0     H13038   7.142   8.277   4.240 -0.8774  2.4811 -0.7987
   97MOL0     H13039   7.238   8.336   4.098  2.0025 -0.0366 -0.3821
   97MOL0     H13040   7.362   8.141   4.158 -0.1315  1.3501 -1.2709
   97MOL0     H13041   7.438   8.273   4.255 -1.1946  2.0867 -1.4551
   97MOL0     H13042   7.316   8.187   4.455 -0.3875  0.4791 -0.3099
   97MOL0     H13043   7.199   8.103   4.353 -0.0543  1.1951  1.3529
   97MOL0     H13044   7.340   7.946   4.487  0.6978 -3.3187 -0.7875
   97MOL0     H13045   7.490   8.008   4.437  0.1096 -2.8711  0.7681
   97MOL0     H13046   7.178   7.809   4.316 -0.7997 -0.1054 -2.6700
   97MOL0     H13047   7.146   7.677   4.019  0.7260 -0.8245 -0.0978
   97MOL0     H13048   7.298   7.591   3.994  1.6722 -0.5594  0.2348
   97MOL0     H13049   7.103   7.569   4.225 -1.7374 -3.6217  2.9082
   97MOL0     H13050   7.250   7.466   4.191 -1.7883 -1.6235 -0.9431
   97MOL0     H13051   7.149   7.385   3.974  1.9666 -0.0398  0.9631
   97MOL0     H13052   6.998   7.480   4.006  0.7386 -1.5995 -2.2247
   97MOL0     H13053   6.957   7.357   4.209  1.8709 -0.6029  2.0714
   97MOL0     H13054   7.103   7.258   4.187  2.3081  2.3497 -0.0032
   97MOL0     H13055   7.000   7.110   4.263  3.1394 -0.9220 -0.2876
   97MOL0     H13056   6.877   6.814   4.379  1.3608 -0.8990  4.2112
   97MOL0     H13057   7.052   6.845   4.362 -0.8255 -1.5566 -3.2661
   97MOL0     H13058   6.930   6.971   4.411 -2.3822 -1.1747  1.6887
   97MOL0     H13059   6.550   6.543   4.056  2.9162  2.4234 -0.9045
   97MOL0     H13060   6.460   6.303   4.014  0.1594 -2.2995  0.7318
   97MOL0     H13061   6.495   6.054   4.067 -2.5756  1.5181 -0.0409
   97MOL0     H13062   6.408   6.100   3.924 -1.5038 -0.2787  2.1840
   97MOL0     H13063   6.455   5.920   3.789  0.0867  0.1200  0.5646
   97MOL0     H13064   6.582   5.855   3.901 -0.4785 -0.7250  1.6884
   97MOL0     H13065   6.288   5.846   3.965  0.6404  0.9469  1.1233
   97MOL0     H13066   6.427   5.803   4.064 -1.8118 -3.1547  0.9339
   97MOL0     H13067   6.455   5.611   3.958  0.6126 -0.0615  0.4211
   97MOL0     H13068   6.272   5.634   3.938  0.1313 -0.8261  0.2386
   97MOL0     H13069   6.471   5.685   3.725  0.0401  0.8944  2.7603
   97MOL0     H13070   6.303   5.721   3.714  1.4007  0.1614 -1.4844
   97MOL0     H13071   6.332   5.537   3.578  1.6785 -2.8130 -0.4268
   97MOL0     H13072   6.414   5.435   3.705 -1.9914 -0.6220  0.2062
   97MOL0     H13073   6.124   5.519   3.708 -0.8596 -0.2290  0.8387
   97MOL0     H13074   6.198   5.405   3.820  1.3965  0.7643 -0.9421
   97MOL0     H13075   6.255   5.264   3.605  2.2528  3.3284 -2.4376
   97MOL0     H13076   6.146   5.364   3.525  0.2371 -0.7426 -0.5355
   97MOL0     H13077   6.845   6.171   3.933 -0.2017 -0.0719  0.2863
   97MOL0     H13078   6.938   6.399   3.944 -0.7617  2.1640  0.0076
   97MOL0     H13079   6.842   6.841   3.880 -2.8069  0.7414 -1.0742
   97MOL0     H13080   6.875   7.094   3.858 -0.5000  0.7757 -0.8472
   97MOL0     H13081   7.596   8.960   4.209  1.2703 -0.7524  1.0967
   97MOL0     H13082   7.814   9.077   4.161 -0.1231 -0.9941  0.9185
   97MOL0     H13083   8.272   8.882   3.840 -1.9881  2.1339  2.5409
   97MOL0     H13084   8.462   8.971   3.703  2.1847  4.1590  1.2194
   97MOL0     H13085   8.632   9.296   3.551  0.8569 -0.0496  0.3175
   97MOL0     H13086   8.497   9.378   3.632  0.0927  0.3668  2.6378
   97MOL0     H13087   8.536   9.244   3.837  1.3397 -3.2037  1.6838
   97MOL0     H13088   8.656   9.355   3.795 -2.6261 -0.3128  4.8637
   97MOL0     H13089   8.815   9.188   3.727 -0.3641  1.9167 -1.7657
   97MOL0     H13090   8.691   9.060   3.732 -0.1420 -1.7106  3.7549
   97MOL0     H13091   8.666   9.103   3.982 -0.1023 -1.0129 -0.4110
   97MOL0     H13092   8.774   9.238   3.965 -5.6290  1.0101  0.7880
   97MOL0     H13093   9.042   8.900   3.968  0.0540  0.6657 -0.9628
   97MOL0     H13094   8.215   9.312   3.614 -3.2454  0.1489  2.1118
   97MOL0     H13095   8.034   9.229   3.740  0.7591  0.3946 -0.3331
   98MOL0     O13096   8.116   3.412   5.783  0.4953 -0.4338  0.7746
   98MOL0     C13097   8.148   3.449   5.893  1.1259 -0.6437  0.7986
   98MOL0     O13098   8.263   3.511   5.933  0.6683  0.0619  0.8510
   98MOL0     C13099   8.332   3.576   5.842 -0.5683 -0.5290  1.8043
   98MOL0     C13100   8.397   3.497   5.746  0.0312  0.4133 -0.3684
   98MOL0     C13101   8.498   3.559   5.668  0.5368  0.6418 -0.0437
   98MOL0     C13102   8.542   3.690   5.690  0.2513 -0.5784  0.0364
   98MOL0     O13103   8.645   3.763   5.627 -0.4008 -0.3534  0.0356
   98MOL0     C13104   8.692   3.689   5.509 -0.2504 -0.7661  0.1633
   98MOL0     C13105   8.758   3.785   5.413  0.2213  0.4517 -0.2350
   98MOL0     C13106   8.667   3.856   5.305 -0.3748  0.8151  0.6193
   98MOL0     C13107   8.582   3.963   5.369 -0.1440  0.2417  0.5826
   98MOL0     C13108   8.514   4.050   5.260 -0.0720 -0.1199 -0.0231
   98MOL0     C13109   8.411   3.976   5.179  0.3308 -0.5722 -0.4437
   98MOL0     C13110   8.320   4.082   5.107 -0.5455 -0.7850  0.0768
   98MOL0     C13111   8.196   4.009   5.062 -0.4454 -0.0196  0.5831
   98MOL0     N13112   8.083   3.996   5.161 -0.0870  0.4886  0.2803
   98MOL0     C13113   7.955   4.016   5.117  1.0703 -0.8054 -0.2029
   98MOL0     C13114   7.879   4.012   5.232 -0.3268  0.4959  0.6382
   98MOL0     C13115   7.734   3.994   5.238 -0.0667 -0.7989  0.1161
   98MOL0     C13116   7.679   3.853   5.249 -0.6752 -0.6932  0.2863
   98MOL0     C13117   7.666   3.787   5.108  0.9460  0.1607  0.9774
   98MOL0     C13118   7.597   3.654   5.128 -0.5485  0.1936  0.3146
   98MOL0     O13119   7.463   3.670   5.169  0.7027  0.5586 -0.0806
   98MOL0     C13120   7.375   3.586   5.230  0.0106 -0.5436 -0.0223
   98MOL0     C13121   7.424   3.486   5.306 -0.1709  0.5745 -0.5485
   98MOL0     C13122   7.346   3.390   5.366  1.5507  0.3251 -1.3235
   98MOL0     C13123   7.414   3.293   5.457  0.1914  0.4483  0.0100
   98MOL0     C13124   7.202   3.403   5.347  0.4807  1.2133 -0.9483
   98MOL0     C13125   7.101   3.299   5.394  0.1476 -0.2541  0.5383
   98MOL0     O13126   6.974   3.294   5.340 -0.5164  0.4200  0.0438
   98MOL0     C13127   6.893   3.190   5.381  0.4438  0.2926 -0.5746
   98MOL0     C13128   6.890   3.071   5.310  0.1923 -0.2346 -0.5624
   98MOL0     C13129   6.804   2.968   5.347  0.3551  0.0817 -0.9348
   98MOL0     C13130   6.715   2.978   5.455  0.4068  0.0293 -0.7757
   98MOL0     O13131   6.617   2.893   5.493 -0.2100 -0.0808 -0.5633
   98MOL0     C13132   6.679   2.771   5.550  0.2423 -1.4948 -0.3326
   98MOL0     C13133   6.585   2.733   5.656 -0.8146 -1.1570 -0.3909
   98MOL0     C13134   6.630   2.818   5.777  0.4569 -0.1893 -0.5554
   98MOL0     C13135   6.529   2.795   5.890  1.3076  0.2593  0.0375
   98MOL0     C13136   6.551   2.897   6.003 -0.9651 -0.2847  0.4307
   98MOL0     C13137   6.695   2.884   6.059  0.0022 -0.0792  0.0302
   98MOL0     C13138   6.734   2.734   6.103  0.1012 -1.2790  0.1628
   98MOL0     C13139   6.644   2.674   6.203 -0.7109  0.3504  0.6911
   98MOL0    Cl13140   6.636   2.775   6.347 -0.1768  0.6038  0.0075
   98MOL0     C13141   6.709   3.100   5.524 -0.4999 -0.2692  0.1689
   98MOL0     C13142   6.805   3.201   5.488 -0.3667  0.4085  0.0727
   98MOL0     O13143   7.139   3.226   5.487  0.4117  0.0928 -0.5595
   98MOL0     C13144   7.149   3.498   5.254 -0.2040 -0.4702 -0.6214
   98MOL0     C13145   7.236   3.593   5.199 -0.4762  0.2990  0.2893
   98MOL0     N13146   7.968   4.014   5.335  0.5117  0.6306  0.8788
   98MOL0     N13147   8.094   3.997   5.293 -0.2142 -0.1231  0.7409
   98MOL0     C13148   8.489   3.752   5.794  0.4670  0.2960  0.6637
   98MOL0     C13149   8.383   3.697   5.872 -0.0553 -0.1313  0.2377
   98MOL0     C13150   8.051   3.409   6.007 -0.2839 -0.1693 -0.8843
   98MOL0     C13151   8.082   3.420   6.145  0.5826  0.0473 -0.4132
   98MOL0     C13152   7.999   3.364   6.242 -0.1385 -0.9484  1.3824
   98MOL0     C13153   7.881   3.303   6.212  0.0781 -0.0705 -0.4336
   98MOL0     O13154   7.815   3.261   6.321  0.2565 -0.0899  0.4367
   98MOL0     C13155   7.690   3.188   6.304  0.2282  0.5746 -0.0113
   98MOL0     C13156   7.570   3.288   6.298 -0.3119  0.5735  0.0509
   98MOL0     C13157   7.575   3.398   6.396  0.0686  0.9097  0.1081
   98MOL0     C13158   7.457   3.497   6.392  0.4468  0.3774 -0.4275
   98MOL0     C13159   7.322   3.450   6.422  0.6613  0.3257 -0.5919
   98MOL0     C13160   7.210   3.414   6.449 -1.0648  0.6214  1.1256
   98MOL0     C13161   7.855   3.273   6.076 -0.1329 -0.7132  0.4197
   98MOL0     C13162   7.932   3.336   5.981  0.2885 -0.2111 -0.6138
   98MOL0     H13163   8.352   3.401   5.723  0.1169  0.3819 -0.4064
   98MOL0     H13164   8.525   3.496   5.584 -0.6717  0.9849 -0.7127
   98MOL0     H13165   8.753   3.609   5.552 -0.3093 -0.6565  0.4556
   98MOL0     H13166   8.609   3.647   5.452  0.3863 -0.6986 -0.8397
   98MOL0     H13167   8.819   3.855   5.470  1.9861 -2.6768  2.0296
   98MOL0     H13168   8.835   3.730   5.357 -0.3228 -0.7680  0.1669
   98MOL0     H13169   8.725   3.909   5.229  1.2181  0.5661  1.6300
   98MOL0     H13170   8.609   3.775   5.259 -0.2210  0.8928  0.2861
   98MOL0     H13171   8.507   3.913   5.430  1.4490 -1.9422  0.8577
   98MOL0     H13172   8.637   4.035   5.430 -3.1497 -0.9850  5.2063
   98MOL0     H13173   8.472   4.129   5.322  2.3018 -0.6213  2.3981
   98MOL0     H13174   8.594   4.085   5.193  1.0963 -2.9942 -0.2692
   98MOL0     H13175   8.452   3.911   5.101 -1.3070 -0.9063 -1.0464
   98MOL0     H13176   8.349   3.916   5.247 -1.4786  1.2923 -0.3544
   98MOL0     H13177   8.289   4.166   5.170 -1.8157  0.0526 -1.5898
   98MOL0     H13178   8.373   4.130   5.024  1.4579 -2.7148  0.1623
   98MOL0     H13179   8.221   3.913   5.016  1.8454  2.2562 -3.5559
   98MOL0     H13180   8.162   4.066   4.975  1.0990  2.1019  1.2701
   98MOL0     H13181   7.923   4.022   5.013  2.3862 -1.4688 -0.6653
   98MOL0     H13182   7.714   4.041   5.335 -1.0874  0.4101 -0.6435
   98MOL0     H13183   7.674   4.052   5.167 -0.5467  1.5898  2.3053
   98MOL0     H13184   7.589   3.853   5.310 -1.0721  0.9256 -0.2611
   98MOL0     H13185   7.754   3.793   5.302  1.0632  1.9923  1.0782
   98MOL0     H13186   7.770   3.771   5.079  0.4674 -0.1426 -0.6981
   98MOL0     H13187   7.603   3.845   5.040 -1.6549 -3.0203  0.4367
   98MOL0     H13188   7.651   3.592   5.201 -3.0229 -0.5001  1.6738
   98MOL0     H13189   7.601   3.590   5.039  4.0894  0.2818  0.2103
   98MOL0     H13190   7.531   3.485   5.328 -0.1757 -2.6955 -0.2210
   98MOL0     H13191   7.520   3.316   5.468  1.0000 -1.7306 -2.3051
   98MOL0     H13192   7.374   3.300   5.558  0.0240  2.3781 -0.1530
   98MOL0     H13193   7.410   3.189   5.425  2.0748  0.5529 -0.6582
   98MOL0     H13194   6.963   3.060   5.231  2.5494  0.6666  1.3898
   98MOL0     H13195   6.807   2.875   5.290  0.7196 -0.5194  0.0258
   98MOL0     H13196   6.689   2.692   5.474  2.6486 -1.5269 -0.0762
   98MOL0     H13197   6.774   2.790   5.601 -0.3911 -0.2486  0.4153
   98MOL0     H13198   6.480   2.741   5.628 -1.1546 -3.0788  0.2183
   98MOL0     H13199   6.601   2.627   5.677  0.7422 -0.7320  0.7208
   98MOL0     H13200   6.627   2.922   5.743  1.7545  0.7854  2.0522
   98MOL0     H13201   6.731   2.797   5.815  1.2096  1.1656 -1.7016
   98MOL0     H13202   6.425   2.796   5.855 -0.5407  0.3606  4.7896
   98MOL0     H13203   6.546   2.692   5.923 -0.1519  0.0917  0.3428
   98MOL0     H13204   6.481   2.889   6.086 -1.4567  1.2485  0.1815
   98MOL0     H13205   6.544   2.993   5.952  2.0424 -1.5635 -2.7791
   98MOL0     H13206   6.769   2.921   5.988 -0.1017  4.2393  1.8675
   98MOL0     H13207   6.690   2.955   6.141  2.3663 -1.1592  1.1884
   98MOL0     H13208   6.832   2.736   6.152  1.2933  0.5631 -2.0727
   98MOL0     H13209   6.737   2.674   6.011 -0.1266  1.4403 -1.7440
   98MOL0     H13210   6.690   2.578   6.226  1.9292  1.8309  2.0932
   98MOL0     H13211   6.552   2.667   6.144 -0.0600 -1.8000 -0.1758
   98MOL0     H13212   6.647   3.117   5.612  2.4295  0.0508  2.2966
   98MOL0     H13213   6.786   3.288   5.550 -0.1763 -0.7275  1.8215
   98MOL0     H13214   7.044   3.498   5.226  0.2374  0.6514 -2.4537
   98MOL0     H13215   7.195   3.660   5.124  0.6904  0.1804 -0.4758
   98MOL0     H13216   8.528   3.846   5.832  2.4332  0.6004 -1.8334
   98MOL0     H13217   8.352   3.761   5.954  2.2958  0.2727  0.9029
   98MOL0     H13218   8.172   3.467   6.183  0.7055 -0.6045  0.1189
   98MOL0     H13219   8.021   3.389   6.345  1.3968 -0.5571  0.9877
   98MOL0     H13220   7.676   3.118   6.222 -0.6917 -1.3635  1.6862
   98MOL0     H13221   7.662   3.126   6.390 -1.7628  1.7694  0.2694
   98MOL0     H13222   7.473   3.239   6.292 -0.4486  0.9996 -2.8417
   98MOL0     H13223   7.587   3.338   6.202  3.1470  0.9609  0.7386
   98MOL0     H13224   7.670   3.443   6.364  0.7075 -2.7988 -4.2114
   98MOL0     H13225   7.602   3.368   6.497  1.0605  1.6044  0.0658
   98MOL0     H13226   7.446   3.527   6.287 -0.5736  1.2998 -0.0816
   98MOL0     H13227   7.473   3.584   6.456 -3.3247  1.6948 -0.9949
   98MOL0     H13228   7.112   3.373   6.464 -2.3491  2.1505 -2.0389
   98MOL0     H13229   7.772   3.213   6.041 -0.6060 -0.6421  1.3817
   98MOL0     H13230   7.900   3.321   5.878 -1.2308 -2.3115  0.1031
   99MOL0     O13231   9.284   8.491   3.907  0.1846  0.3688 -0.1021
   99MOL0     C13232   9.207   8.546   3.985  0.3136  0.3348  0.2602
   99MOL0     O13233   9.076   8.562   3.964 -0.4194  0.0294  0.1616
   99MOL0     C13234   9.005   8.489   3.874  1.0450 -0.0481  1.0433
   99MOL0     C13235   9.026   8.506   3.735 -0.0934 -1.6698 -0.5758
   99MOL0     C13236   8.941   8.444   3.640  0.3775 -0.5190 -0.1215
   99MOL0     C13237   8.837   8.351   3.687 -0.6046  0.6349  1.0317
   99MOL0     O13238   8.744   8.292   3.597  0.8592 -0.4757  0.0399
   99MOL0     C13239   8.787   8.277   3.453  0.2884 -0.2339  0.2429
   99MOL0     C13240   8.746   8.132   3.416 -0.1723  0.0289  0.1884
   99MOL0     C13241   8.603   8.104   3.452  0.4458 -0.4585  0.5015
   99MOL0     C13242   8.572   7.952   3.443 -0.3921 -0.3570 -0.6548
   99MOL0     C13243   8.424   7.912   3.412 -0.6555  0.4025  0.5189
   99MOL0     C13244   8.441   7.748   3.390  0.5521 -0.8627 -0.9909
   99MOL0     C13245   8.303   7.682   3.409  0.2994  0.0413 -0.1533
   99MOL0     C13246   8.327   7.536   3.401  0.5502 -0.2194  0.4418
   99MOL0     N13247   8.220   7.440   3.440  0.6558 -0.6254  0.0560
   99MOL0     C13248   8.103   7.486   3.498 -0.0217  0.5207 -0.2310
   99MOL0     C13249   8.035   7.362   3.530  0.6880 -0.9034 -0.4620
   99MOL0     C13250   7.903   7.353   3.619  0.1081 -0.2714  0.3308
   99MOL0     C13251   7.932   7.340   3.770 -0.9147  0.8154 -0.4705
   99MOL0     C13252   8.027   7.221   3.818  0.7848 -0.0917  0.0221
   99MOL0     C13253   7.988   7.076   3.787  0.7105  0.4027 -0.3321
   99MOL0     O13254   8.047   7.034   3.665 -0.8497 -0.3085  0.2859
   99MOL0     C13255   7.991   6.931   3.594 -0.2732  0.2566  0.2000
   99MOL0     C13256   8.041   6.922   3.463  0.8262  0.8386  1.0628
   99MOL0     C13257   7.981   6.826   3.376 -0.5405 -0.5830 -0.1471
   99MOL0     C13258   8.026   6.838   3.237  0.6577 -0.4624  0.2423
   99MOL0     C13259   7.891   6.729   3.415 -1.1581 -0.3309  0.3284
   99MOL0     C13260   7.836   6.613   3.333  0.3674 -0.7576  0.1226
   99MOL0     O13261   7.747   6.537   3.400 -0.4157 -0.3748 -0.2175
   99MOL0     C13262   7.684   6.431   3.336  0.7919  0.4969 -0.5304
   99MOL0     C13263   7.719   6.300   3.375  0.4373  0.0328  0.2143
   99MOL0     C13264   7.664   6.185   3.311 -0.9889  0.6741 -0.2611
   99MOL0     C13265   7.556   6.206   3.225  0.7806  0.2101 -0.3493
   99MOL0     O13266   7.478   6.099   3.178  0.2757  0.7911 -0.0476
   99MOL0     C13267   7.420   6.015   3.292 -0.0045 -0.2695  0.6604
   99MOL0     C13268   7.271   5.990   3.277 -0.3552  0.1201 -0.6092
   99MOL0     C13269   7.220   5.903   3.399  0.0186  0.0800 -0.2926
   99MOL0     C13270   7.074   5.841   3.381 -0.0863  0.2216 -0.5758
   99MOL0     C13271   7.013   5.771   3.504 -0.0557  0.3776  0.1791
   99MOL0     C13272   6.878   5.706   3.477 -0.8894  0.5307 -0.5198
   99MOL0     C13273   6.829   5.610   3.590  0.6599  0.0927  0.5569
   99MOL0     C13274   6.823   5.674   3.722 -0.5182 -0.9864 -0.4563
   99MOL0    Cl13275   6.712   5.580   3.823  0.1186 -0.3626 -0.0368
   99MOL0     C13276   7.514   6.334   3.202 -0.1988 -0.5098  0.5729
   99MOL0     C13277   7.576   6.453   3.253 -0.3590  0.7781 -0.1511
   99MOL0     O13278   7.863   6.598   3.214  1.7821 -0.3248  0.6561
   99MOL0     C13279   7.856   6.736   3.553  0.4872 -0.2411  0.8400
   99MOL0     C13280   7.893   6.841   3.640 -0.5142 -0.3205 -0.3788
   99MOL0     N13281   8.113   7.255   3.479 -0.3541 -0.3014 -0.4779
   99MOL0     N13282   8.225   7.305   3.433 -0.1902  0.3291 -0.6596
   99MOL0     C13283   8.830   8.317   3.826 -0.1729 -0.0598 -0.2918
   99MOL0     C13284   8.914   8.394   3.909  0.3966 -0.7880 -0.1066
   99MOL0     C13285   9.272   8.607   4.101  1.1885  0.6013  0.1818
   99MOL0     C13286   9.402   8.588   4.131  0.0257 -0.5262 -0.8467
   99MOL0     C13287   9.446   8.632   4.256  0.3580 -0.9896 -0.4060
   99MOL0     C13288   9.370   8.715   4.344  0.4971  0.6631 -0.1228
   99MOL0     O13289   9.436   8.779   4.443 -0.4019 -0.5106  0.3945
   99MOL0     C13290   9.372   8.897   4.499  0.2523 -0.3909  0.1699
   99MOL0     C13291   9.472   8.938   4.609 -0.3960 -0.6623 -0.0490
   99MOL0     C13292   9.419   9.047   4.706 -0.6177  0.0139 -0.0799
   99MOL0     C13293   9.521   9.107   4.798 -0.5827 -0.3930 -0.0633
   99MOL0     C13294   9.471   9.185   4.916  0.2678 -0.0804  0.7681
   99MOL0     C13295   9.423   9.248   5.013  0.0213  0.3240  0.5191
   99MOL0     C13296   9.235   8.718   4.317 -0.3857  0.1160  0.5413
   99MOL0     C13297   9.185   8.671   4.194 -0.1630  0.3972 -0.1798
   99MOL0     H13298   9.095   8.576   3.691 -0.1285  0.3092  2.3150
   99MOL0     H13299   8.954   8.474   3.536  1.1942  0.8264  0.3450
   99MOL0     H13300   8.729   8.347   3.393  0.3226 -0.8981 -0.5967
   99MOL0     H13301   8.893   8.292   3.431 -0.1481  0.1517 -1.8728
   99MOL0     H13302   8.771   8.129   3.310  1.2798 -1.3939  0.5276
   99MOL0     H13303   8.807   8.067   3.479 -2.4732  0.5647  3.1819
   99MOL0     H13304   8.574   8.142   3.550 -0.8641 -0.6312  0.1992
   99MOL0     H13305   8.541   8.158   3.380  1.5533  0.6515  0.3445
   99MOL0     H13306   8.636   7.915   3.362  1.3187 -0.4325  0.6723
   99MOL0     H13307   8.609   7.896   3.529 -0.5895 -2.8863 -2.1046
   99MOL0     H13308   8.357   7.922   3.498  1.1315 -1.5038  2.2606
   99MOL0     H13309   8.378   7.971   3.333 -0.1500  0.9595  0.6361
   99MOL0     H13310   8.470   7.718   3.289 -1.8445  0.8945 -2.3141
   99MOL0     H13311   8.504   7.713   3.472  0.8587 -0.4224 -1.0320
   99MOL0     H13312   8.281   7.702   3.515 -0.2305  1.8261 -0.5723
   99MOL0     H13313   8.219   7.720   3.350 -0.6904 -0.8194  0.6619
   99MOL0     H13314   8.416   7.507   3.458  1.1465  2.8250  1.2275
   99MOL0     H13315   8.351   7.508   3.299 -0.9051 -3.6158  0.8839
   99MOL0     H13316   8.060   7.583   3.520  0.2507  0.7104 -0.5278
   99MOL0     H13317   7.837   7.439   3.603  0.1619 -0.6779 -2.7552
   99MOL0     H13318   7.843   7.268   3.587  0.8029 -0.3865 -0.7447
   99MOL0     H13319   7.836   7.331   3.822 -0.8692 -2.0164 -0.7455
   99MOL0     H13320   7.985   7.428   3.808  0.5419 -1.3005  2.9296
   99MOL0     H13321   8.017   7.234   3.926 -3.3047 -1.3872 -0.0290
   99MOL0     H13322   8.133   7.237   3.797  0.8704 -1.6750 -0.9063
   99MOL0     H13323   7.878   7.071   3.784  0.6945 -3.0184 -4.1248
   99MOL0     H13324   8.025   7.006   3.862 -2.5658  1.8375  2.9538
   99MOL0     H13325   8.115   6.993   3.426  0.4698  2.4902  3.2981
   99MOL0     H13326   8.055   6.942   3.218 -0.2294  0.0246  1.4583
   99MOL0     H13327   8.107   6.766   3.221 -0.8589 -2.0730 -0.4321
   99MOL0     H13328   7.948   6.823   3.162  0.7976  2.0250 -0.4837
   99MOL0     H13329   7.809   6.288   3.434 -0.6183 -0.9392  1.6642
   99MOL0     H13330   7.704   6.089   3.342 -0.5444  1.2429  0.9910
   99MOL0     H13331   7.475   5.922   3.305 -0.5230 -0.5225  1.0642
   99MOL0     H13332   7.442   6.070   3.384  0.6539  1.9161 -0.7164
   99MOL0     H13333   7.223   6.087   3.265 -1.9469 -0.8091 -2.3975
   99MOL0     H13334   7.259   5.936   3.182  1.0117  0.7025 -1.1472
   99MOL0     H13335   7.218   5.960   3.492  1.0281 -2.7008  1.5502
   99MOL0     H13336   7.291   5.822   3.416  3.3195  2.6116 -0.8391
   99MOL0     H13337   7.017   5.931   3.357  1.2584  1.0295 -0.8583
   99MOL0     H13338   7.071   5.757   3.310 -2.6558 -0.6381  0.4342
   99MOL0     H13339   6.997   5.847   3.582 -3.0653  0.4200 -0.3645
   99MOL0     H13340   7.085   5.695   3.535  0.8181  0.5376 -1.3460
   99MOL0     H13341   6.799   5.781   3.469 -2.9033 -1.6055 -2.7157
   99MOL0     H13342   6.869   5.650   3.383 -0.0907 -0.1566 -0.1996
   99MOL0     H13343   6.893   5.521   3.592 -5.0419 -4.8347 -2.8861
   99MOL0     H13344   6.731   5.577   3.554  0.2645  0.1235  1.5811
   99MOL0     H13345   6.780   5.774   3.713  0.5082 -0.5066 -0.1231
   99MOL0     H13346   6.923   5.684   3.765 -1.2550 -0.0867  1.1153
   99MOL0     H13347   7.426   6.334   3.138 -1.6187 -0.0592  2.4409
   99MOL0     H13348   7.547   6.549   3.212 -1.1749 -0.0463 -1.6151
   99MOL0     H13349   7.787   6.664   3.596  0.4591 -0.4894  0.3856
   99MOL0     H13350   7.858   6.840   3.742 -0.3245  1.9441 -0.2470
   99MOL0     H13351   8.756   8.245   3.861  0.5609 -0.4355  0.5181
   99MOL0     H13352   8.916   8.380   4.017  0.6349 -0.7112 -0.1007
   99MOL0     H13353   9.470   8.530   4.069  1.8689  1.0160 -0.3567
   99MOL0     H13354   9.548   8.624   4.292 -0.1596  2.8428  2.5973
   99MOL0     H13355   9.360   8.975   4.424 -3.2599 -2.1634 -1.3274
   99MOL0     H13356   9.274   8.869   4.539  0.2129 -1.9069 -0.9035
   99MOL0     H13357   9.563   8.985   4.568  1.0682 -2.0004  1.5254
   99MOL0     H13358   9.503   8.854   4.672 -0.5245  0.2360  1.2602
   99MOL0     H13359   9.347   9.004   4.777 -2.1180  0.6659 -1.1709
   99MOL0     H13360   9.377   9.126   4.644  3.5894  2.4333 -0.2645
   99MOL0     H13361   9.583   9.168   4.732 -1.2999  3.6426  2.5806
   99MOL0     H13362   9.589   9.031   4.838  2.2629  3.3518  3.0783
   99MOL0     H13363   9.372   9.310   5.083 -2.0371 -0.7925  0.0839
   99MOL0     H13364   9.168   8.773   4.382 -0.9351 -0.2768  0.3120
   99MOL0     H13365   9.087   8.704   4.161 -0.3678 -2.3693 -2.7815
  100MOL0     O13366   7.649   2.977   8.457 -0.7565  0.0794 -0.0771
  100MOL0     C13367   7.699   2.906   8.547  0.5757 -0.8132  0.8618
  100MOL0     O13368   7.832   2.867   8.549 -1.0790 -0.4982  0.9079
  100MOL0     C13369   7.900   2.883   8.431 -1.3313 -0.1910 -0.0294
  100MOL0     C13370   7.923   2.770   8.346  0.4056  0.8428  0.0819
  100MOL0     C13371   8.020   2.770   8.247  1.1366  0.3022  0.1081
  100MOL0     C13372   8.086   2.890   8.213  0.3399  0.1730  0.8294
  100MOL0     O13373   8.181   2.876   8.118 -0.7369  0.3179  0.1705
  100MOL0     C13374   8.207   2.998   8.036  0.2413  0.5938 -1.3142
  100MOL0     C13375   8.286   2.948   7.922  0.0332  0.2639 -0.4321
  100MOL0     C13376   8.236   2.824   7.835  0.3096  0.1049 -1.4041
  100MOL0     C13377   8.118   2.859   7.754  0.3141  0.3704  0.2099
  100MOL0     C13378   8.072   2.734   7.680  0.0851 -0.9710  0.2814
  100MOL0     C13379   7.921   2.705   7.669 -0.8251  0.2841 -0.4108
  100MOL0     C13380   7.871   2.660   7.804  0.3796  0.0583 -0.1585
  100MOL0     C13381   7.715   2.622   7.817 -0.1333 -0.3112  0.2005
  100MOL0     N13382   7.680   2.602   7.960 -0.4756 -0.0279  0.6207
  100MOL0     C13383   7.621   2.689   8.043 -0.3490  0.3462 -0.6028
  100MOL0     C13384   7.589   2.614   8.159  0.4606  0.7941  1.1740
  100MOL0     C13385   7.522   2.670   8.281  0.3137 -0.1257  0.6738
  100MOL0     C13386   7.370   2.653   8.284  0.3140 -0.5335  0.6119
  100MOL0     C13387   7.316   2.720   8.408  1.1145  0.2716  0.2415
  100MOL0     C13388   7.165   2.722   8.396 -0.0061  0.5567  0.5945
  100MOL0     O13389   7.098   2.592   8.375 -0.1577  0.3215  0.9779
  100MOL0     C13390   7.005   2.542   8.467  0.5729  0.0876  0.9731
  100MOL0     C13391   6.886   2.504   8.405 -0.0028 -0.4652  0.4402
  100MOL0     C13392   6.773   2.471   8.481 -0.3796  0.2577 -0.4375
  100MOL0     C13393   6.643   2.444   8.404 -0.4951 -0.4400 -0.2710
  100MOL0     C13394   6.778   2.461   8.626 -1.5574  0.8658  0.2135
  100MOL0     C13395   6.671   2.422   8.713 -0.3936  0.5747 -0.0919
  100MOL0     O13396   6.703   2.341   8.821 -0.6555  0.3386 -0.4353
  100MOL0     C13397   6.608   2.300   8.912  0.2265  0.0273 -0.7574
  100MOL0     C13398   6.568   2.165   8.923 -0.0781  0.3714  1.4539
  100MOL0     C13399   6.469   2.133   9.023  0.4382  0.5056  0.1665
  100MOL0     C13400   6.427   2.219   9.127  0.4125 -1.0331 -0.2901
  100MOL0     O13401   6.354   2.179   9.236 -0.0691  0.1122  0.4868
  100MOL0     C13402   6.318   2.033   9.246 -0.2178  0.2378  0.6671
  100MOL0     C13403   6.225   1.998   9.366 -0.1723  0.2943 -0.4280
  100MOL0     C13404   6.109   2.107   9.373  0.4575 -0.4441  0.2606
  100MOL0     C13405   6.041   2.087   9.505 -0.5228 -0.1497 -0.1640
  100MOL0     C13406   5.920   2.187   9.522  0.3584  0.2823  0.9400
  100MOL0     C13407   5.818   2.161   9.631  0.7367  0.1312  0.8854
  100MOL0     C13408   5.682   2.225   9.603 -0.6731  0.7753 -0.5210
  100MOL0     C13409   5.682   2.378   9.608  0.2035 -0.7260  0.3982
  100MOL0    Cl13410   5.537   2.464   9.558  0.0441  0.2161  0.1203
  100MOL0     C13411   6.459   2.356   9.117 -0.0834  0.3342  0.7570
  100MOL0     C13412   6.548   2.394   9.004 -0.7013  0.4099 -0.6191
  100MOL0     O13413   6.560   2.458   8.682 -0.9756 -0.1054  0.0854
  100MOL0     C13414   6.906   2.484   8.679  0.0893  0.0895 -0.1320
  100MOL0     C13415   7.018   2.529   8.603  0.1025 -0.9423 -0.5809
  100MOL0     N13416   7.639   2.490   8.141  0.2159  0.2541 -0.7459
  100MOL0     N13417   7.692   2.485   8.022 -0.3806  0.5404  0.8287
  100MOL0     C13418   8.060   2.994   8.295 -0.0562  0.0633 -0.1315
  100MOL0     C13419   7.972   2.994   8.399 -0.4716  0.4075 -0.3729
  100MOL0     C13420   7.620   2.878   8.663 -0.2173  0.5766  0.4191
  100MOL0     C13421   7.494   2.931   8.678  0.6360  0.1634  0.1079
  100MOL0     C13422   7.425   2.920   8.805  0.8257 -0.4382 -0.2298
  100MOL0     C13423   7.481   2.852   8.912 -0.0029  0.0017  0.5780
  100MOL0     O13424   7.414   2.841   9.033 -1.2516 -0.1591 -0.2408
  100MOL0     C13425   7.292   2.917   9.053 -0.6757  0.1533 -1.0813
  100MOL0     C13426   7.231   2.909   9.197 -0.4104  0.3096  0.6357
  100MOL0     C13427   7.088   2.958   9.205 -0.4023 -1.0350 -0.2447
  100MOL0     C13428   7.075   3.107   9.194  0.1455 -0.3074  0.0189
  100MOL0     C13429   6.963   3.137   9.282  0.4236  0.6246 -0.8385
  100MOL0     C13430   6.866   3.158   9.345  0.8286  0.0919  0.8892
  100MOL0     C13431   7.607   2.800   8.895 -0.2516 -0.4392  0.2829
  100MOL0     C13432   7.672   2.806   8.776 -0.2784 -0.4205 -0.1833
  100MOL0     H13433   7.874   2.676   8.372  0.2767  1.1222  0.8939
  100MOL0     H13434   8.051   2.678   8.198  3.6568 -1.0651  3.8708
  100MOL0     H13435   8.115   3.041   7.996 -0.9062 -0.9476 -0.4228
  100MOL0     H13436   8.264   3.073   8.092 -0.6034  0.2350  0.0691
  100MOL0     H13437   8.316   3.025   7.851  1.6871  0.9293  0.9319
  100MOL0     H13438   8.377   2.929   7.979 -0.2005  0.5452  0.0440
  100MOL0     H13439   8.320   2.797   7.769 -1.0826 -2.9677 -2.0713
  100MOL0     H13440   8.219   2.738   7.900 -1.0371  0.5765 -1.1152
  100MOL0     H13441   8.034   2.891   7.816  0.8570 -0.2978  1.3472
  100MOL0     H13442   8.137   2.939   7.683 -2.0451  0.8206  0.0269
  100MOL0     H13443   8.094   2.745   7.574 -2.2473 -2.2211 -0.4144
  100MOL0     H13444   8.111   2.641   7.724 -1.7658 -1.0804  1.8851
  100MOL0     H13445   7.868   2.798   7.647 -1.6544  0.2490  1.2845
  100MOL0     H13446   7.896   2.635   7.589 -3.4457 -0.3417  0.8724
  100MOL0     H13447   7.933   2.580   7.843  0.8482  0.8542  0.7750
  100MOL0     H13448   7.867   2.745   7.873  0.3831 -0.2084  0.1696
  100MOL0     H13449   7.699   2.531   7.758  2.3727 -0.2445 -0.6744
  100MOL0     H13450   7.650   2.695   7.767 -2.0077 -1.9581  0.0853
  100MOL0     H13451   7.605   2.796   8.026  2.6559  1.0514  0.4022
  100MOL0     H13452   7.551   2.631   8.379  0.9440  0.4693  0.7377
  100MOL0     H13453   7.552   2.775   8.282 -0.2694  0.0762 -0.5956
  100MOL0     H13454   7.343   2.547   8.280  1.2512 -0.7597 -0.0025
  100MOL0     H13455   7.310   2.703   8.207 -1.4693  1.5778  3.1743
  100MOL0     H13456   7.358   2.821   8.417  0.5272  0.3804  2.3728
  100MOL0     H13457   7.350   2.672   8.500  0.0105  2.8655  2.1422
  100MOL0     H13458   7.142   2.787   8.311  1.2648 -0.3012 -0.4542
  100MOL0     H13459   7.117   2.768   8.483 -1.3723 -0.5106  0.4441
  100MOL0     H13460   6.873   2.520   8.299  0.5829 -2.5694 -0.0038
  100MOL0     H13461   6.658   2.407   8.302 -2.6919  0.5735 -1.0270
  100MOL0     H13462   6.588   2.359   8.446 -2.4807  1.6560  1.6751
  100MOL0     H13463   6.586   2.536   8.396  1.7196  1.0419  0.0376
  100MOL0     H13464   6.617   2.089   8.863 -1.6147 -1.0876  1.9752
  100MOL0     H13465   6.442   2.028   9.031 -0.4253  0.8495  4.6393
  100MOL0     H13466   6.274   2.001   9.151  0.6868  1.2134 -0.1081
  100MOL0     H13467   6.417   1.986   9.256  0.4960  1.0056 -1.9620
  100MOL0     H13468   6.182   1.898   9.361  0.8901 -0.2317  0.4405
  100MOL0     H13469   6.285   2.005   9.458  0.4073  1.9592 -0.9018
  100MOL0     H13470   6.039   2.095   9.290 -2.7991 -1.1969  2.8867
  100MOL0     H13471   6.145   2.210   9.369  1.4583 -0.6290  2.9193
  100MOL0     H13472   6.009   1.983   9.520 -1.0086  0.0778  0.4314
  100MOL0     H13473   6.121   2.109   9.575  1.3007  0.9506 -2.4496
  100MOL0     H13474   5.872   2.179   9.423  1.4209 -0.7546  0.4873
  100MOL0     H13475   5.950   2.291   9.536  3.0876 -0.2511 -0.3977
  100MOL0     H13476   5.811   2.053   9.645  0.5973 -0.0186 -0.2364
  100MOL0     H13477   5.848   2.207   9.725  1.3244 -0.4768  1.0014
  100MOL0     H13478   5.610   2.192   9.678  0.3035 -1.7644 -0.5908
  100MOL0     H13479   5.637   2.189   9.509  1.9849 -0.1019 -1.5501
  100MOL0     H13480   5.768   2.412   9.550 -0.0424  0.3845  0.6665
  100MOL0     H13481   5.693   2.405   9.713 -1.8857  0.5475  0.3392
  100MOL0     H13482   6.427   2.420   9.198  0.8129 -2.0961  3.1755
  100MOL0     H13483   6.577   2.497   8.985 -0.3387  0.0958 -1.9049
  100MOL0     H13484   6.926   2.479   8.786 -1.3811  1.7900  0.2857
  100MOL0     H13485   7.110   2.565   8.648 -0.0740 -0.4584 -0.6014
  100MOL0     H13486   8.116   3.086   8.278  1.4659 -0.8436 -0.2287
  100MOL0     H13487   7.966   3.080   8.465 -0.6529  0.5779 -0.6114
  100MOL0     H13488   7.441   2.983   8.599 -1.2189 -0.8053  0.6625
  100MOL0     H13489   7.325   2.960   8.801  0.2800 -1.8197 -1.7376
  100MOL0     H13490   7.296   3.020   9.017 -0.4975  0.5356 -0.0150
  100MOL0     H13491   7.222   2.875   8.981 -0.0709 -0.9864 -1.0241
  100MOL0     H13492   7.295   2.963   9.267  0.3271 -0.2842  0.4296
  100MOL0     H13493   7.225   2.801   9.209  1.3025  0.3380  2.0998
  100MOL0     H13494   7.048   2.912   9.296  1.7881 -5.2940 -1.1890
  100MOL0     H13495   7.039   2.920   9.114  2.5342 -1.1593 -1.8948
  100MOL0     H13496   7.062   3.136   9.090  0.7570 -3.7302 -1.1640
  100MOL0     H13497   7.160   3.166   9.232  0.5705 -0.1766 -1.1120
  100MOL0     H13498   6.774   3.179   9.395  0.8709  0.0702  0.9764
  100MOL0     H13499   7.643   2.751   8.984 -0.8990 -1.1749  0.1524
  100MOL0     H13500   7.777   2.777   8.774  0.1073  0.9506 -0.8693
  101MOL0     O13501   3.772   2.043   9.136  0.0192  0.1762 -0.5112
  101MOL0     C13502   3.851   1.955   9.094 -0.5686  0.3024  0.0981
  101MOL0     O13503   3.814   1.833   9.065 -0.7137 -0.0569 -0.1391
  101MOL0     C13504   3.684   1.802   9.056  0.5147 -0.6269 -0.4749
  101MOL0     C13505   3.588   1.845   9.150  1.1722 -0.6306  0.0120
  101MOL0     C13506   3.449   1.812   9.151 -0.4999  0.3364 -0.2811
  101MOL0     C13507   3.407   1.727   9.048  0.3115 -0.1357  0.6665
  101MOL0     O13508   3.281   1.686   9.033  0.5864  1.0942  0.3019
  101MOL0     C13509   3.201   1.663   9.152 -0.6129  0.0171 -0.2388
  101MOL0     C13510   3.122   1.542   9.127  0.3187  0.2184  0.1806
  101MOL0     C13511   2.983   1.557   9.057 -0.5913 -0.7926 -0.1786
  101MOL0     C13512   2.900   1.429   9.050  0.9217  0.4696 -1.1038
  101MOL0     C13513   2.838   1.394   9.199 -1.0274  0.2417  0.9816
  101MOL0     C13514   2.722   1.489   9.232  0.5479 -0.4964  0.5530
  101MOL0     C13515   2.644   1.441   9.356  1.1578 -0.0403  0.3627
  101MOL0     C13516   2.514   1.525   9.379 -0.2186 -0.6776 -0.5731
  101MOL0     N13517   2.548   1.644   9.468  0.3541  1.2942  0.9367
  101MOL0     C13518   2.557   1.629   9.602  0.2573  0.3398 -0.6407
  101MOL0     C13519   2.599   1.752   9.644 -0.2784  0.3049  0.6903
  101MOL0     C13520   2.625   1.794   9.783  0.1294 -0.2034 -0.0871
  101MOL0     C13521   2.728   1.701   9.852  0.1373  0.3644  0.1328
  101MOL0     C13522   2.869   1.696   9.793 -0.4723  0.1043  0.7641
  101MOL0     C13523   2.948   1.839   9.775 -0.0414 -0.5735  0.2078
  101MOL0     O13524   2.922   1.903   9.901 -0.7130  0.7991 -0.6586
  101MOL0     C13525   2.963   2.028   9.912 -0.1933  0.9845  0.2603
  101MOL0     C13526   2.889   2.104   9.995 -0.6002  0.4671  0.8179
  101MOL0     C13527   2.921   2.239  10.015  0.5709  1.1046  0.8564
  101MOL0     C13528   2.820   2.319  10.087  0.0019 -0.1419  0.4262
  101MOL0     C13529   3.028   2.300   9.944 -0.3254 -0.8834 -0.3227
  101MOL0     C13530   3.046   2.444   9.927  0.3849  0.6288  0.5568
  101MOL0     O13531   2.944   2.521   9.897 -0.2035 -0.3812 -1.3075
  101MOL0     C13532   2.957   2.656   9.884 -0.6849  0.4212  0.3669
  101MOL0     C13533   3.015   2.720   9.777  0.4162 -1.3989 -0.0069
  101MOL0     C13534   3.008   2.864   9.756  0.5496  0.3219  0.4819
  101MOL0     C13535   2.958   2.946   9.856  0.5647  0.4724  0.0987
  101MOL0     O13536   2.959   3.081   9.828  0.0249 -0.4619 -0.5280
  101MOL0     C13537   2.893   3.174   9.927 -0.1719  0.0729 -0.2971
  101MOL0     C13538   2.742   3.178   9.891 -0.5054  0.1064  0.0580
  101MOL0     C13539   2.702   3.281   9.782  0.4265  0.8546 -0.7559
  101MOL0     C13540   2.767   3.278   9.644  0.5671  0.2589  1.3423
  101MOL0     C13541   2.694   3.374   9.550 -0.2888  0.7908  0.0708
  101MOL0     C13542   2.561   3.320   9.498 -1.1877  0.1042  0.6092
  101MOL0     C13543   2.549   3.198   9.398  0.0707  0.7055 -0.6061
  101MOL0     C13544   2.635   3.203   9.280 -0.5750 -0.2105  0.6734
  101MOL0    Cl13545   2.567   3.306   9.145  0.2751  0.4160  0.3922
  101MOL0     C13546   2.907   2.884   9.974  0.0817 -0.0859 -0.1188
  101MOL0     C13547   2.908   2.741   9.985  0.3896 -0.8422 -0.0816
  101MOL0     O13548   3.161   2.483   9.940 -0.2675  0.0477 -0.7636
  101MOL0     C13549   3.110   2.216   9.863 -0.0175 -0.5463 -0.0719
  101MOL0     C13550   3.082   2.077   9.852  0.8254 -0.7210  1.0171
  101MOL0     N13551   2.612   1.832   9.527 -0.1223  0.8367  0.5307
  101MOL0     N13552   2.580   1.765   9.424  0.1444  0.1264  0.0330
  101MOL0     C13553   3.490   1.703   8.945  0.1323 -0.5011  0.4899
  101MOL0     C13554   3.637   1.733   8.945 -0.3906 -0.3822  0.4615
  101MOL0     C13555   3.987   1.986   9.096 -0.8264  0.7512 -0.0454
  101MOL0     C13556   4.091   1.890   9.081  1.0612 -0.2195  0.0097
  101MOL0     C13557   4.220   1.924   9.129  0.7218  0.2372 -0.3725
  101MOL0     C13558   4.253   2.059   9.138  0.9936 -1.2772 -0.1925
  101MOL0     O13559   4.384   2.118   9.137  0.2308 -0.2952  0.2910
  101MOL0     C13560   4.497   2.036   9.190  0.3420 -0.2316 -0.5771
  101MOL0     C13561   4.563   1.930   9.093 -0.1243 -0.1924 -0.1611
  101MOL0     C13562   4.656   1.821   9.164 -0.1819  0.0598 -0.1744
  101MOL0     C13563   4.793   1.871   9.207  0.1872 -0.2568 -0.2868
  101MOL0     C13564   4.891   1.774   9.248  0.3212  0.3677 -0.3675
  101MOL0     C13565   4.993   1.704   9.273 -0.0235  1.0406  0.2126
  101MOL0     C13566   4.156   2.155   9.124 -0.4855 -0.1992 -0.0269
  101MOL0     C13567   4.026   2.119   9.118  0.5597 -0.9576  0.4240
  101MOL0     H13568   3.619   1.911   9.230 -0.2652  1.0142 -0.7211
  101MOL0     H13569   3.378   1.845   9.227 -0.1369 -2.1601  1.2533
  101MOL0     H13570   3.259   1.652   9.245 -4.6890  2.3762  2.9430
  101MOL0     H13571   3.129   1.745   9.165 -2.1305 -1.3003  0.0261
  101MOL0     H13572   3.182   1.461   9.084 -0.6903 -0.9032  0.8138
  101MOL0     H13573   3.104   1.499   9.226  1.2627 -2.2866 -0.6606
  101MOL0     H13574   2.930   1.633   9.115 -0.8836 -2.1285  1.3906
  101MOL0     H13575   3.006   1.609   8.964  4.1729  3.3893  2.8189
  101MOL0     H13576   2.832   1.447   8.966 -1.0686  2.5729  0.7901
  101MOL0     H13577   2.962   1.343   9.027  1.0956 -0.0485  1.0855
  101MOL0     H13578   2.794   1.294   9.195 -1.3913  0.4547 -0.8096
  101MOL0     H13579   2.915   1.387   9.277 -0.5286 -3.0363  0.3500
  101MOL0     H13580   2.759   1.590   9.253 -5.0188  1.7345  1.5588
  101MOL0     H13581   2.657   1.506   9.146 -2.2657  0.5676  2.7026
  101MOL0     H13582   2.616   1.335   9.357 -3.7584  0.9941  0.8032
  101MOL0     H13583   2.703   1.454   9.446 -0.7680  2.8034  1.3727
  101MOL0     H13584   2.438   1.472   9.438 -0.1491 -0.2587 -0.1047
  101MOL0     H13585   2.472   1.564   9.286  0.5376 -1.8925 -1.4676
  101MOL0     H13586   2.530   1.533   9.644  2.8909 -1.0853 -1.9648
  101MOL0     H13587   2.675   1.892   9.778  0.8647 -0.6076 -0.7641
  101MOL0     H13588   2.538   1.781   9.847 -1.4008 -2.1701 -2.4109
  101MOL0     H13589   2.699   1.595   9.861  0.9764 -0.2184 -2.9360
  101MOL0     H13590   2.735   1.739   9.954 -1.5177 -0.9485  0.7850
  101MOL0     H13591   2.870   1.641   9.698  2.3495 -1.4981  1.6067
  101MOL0     H13592   2.928   1.640   9.866  4.0879  2.8205 -0.4743
  101MOL0     H13593   2.896   1.899   9.700  0.0444 -0.9962 -0.1885
  101MOL0     H13594   3.054   1.828   9.751 -0.0005 -1.5866  0.7897
  101MOL0     H13595   2.808   2.069  10.057 -1.4562  2.5265  0.9388
  101MOL0     H13596   2.740   2.335  10.014  2.2820  0.4184 -2.1351
  101MOL0     H13597   2.782   2.265  10.174 -0.0720 -1.2579 -0.2945
  101MOL0     H13598   2.869   2.411  10.123 -0.4153  1.2837 -2.3580
  101MOL0     H13599   3.061   2.670   9.693 -1.2366 -2.7699 -0.1642
  101MOL0     H13600   3.050   2.896   9.661 -1.2531 -1.3375 -0.9556
  101MOL0     H13601   2.906   3.136  10.029 -0.4448  0.5431 -0.0815
  101MOL0     H13602   2.946   3.270   9.923 -1.6763  0.9544  0.2860
  101MOL0     H13603   2.710   3.076   9.867  3.0402 -1.5203  1.4395
  101MOL0     H13604   2.691   3.211   9.982 -2.9838 -0.5709 -0.9900
  101MOL0     H13605   2.710   3.384   9.818  0.4725  0.4149  0.5478
  101MOL0     H13606   2.595   3.264   9.768 -0.0880  3.7781 -1.0862
  101MOL0     H13607   2.870   3.306   9.666  0.0612  1.3130  2.5469
  101MOL0     H13608   2.771   3.179   9.600  2.2854  0.2176  1.5463
  101MOL0     H13609   2.750   3.401   9.460 -0.3167 -2.8565 -1.2353
  101MOL0     H13610   2.672   3.462   9.611  0.7096  0.8001  0.4474
  101MOL0     H13611   2.498   3.290   9.582 -2.1868  0.9825  0.2027
  101MOL0     H13612   2.519   3.404   9.442 -2.8127 -3.6896 -4.7149
  101MOL0     H13613   2.443   3.173   9.382 -0.3733  0.1990  2.5198
  101MOL0     H13614   2.580   3.107   9.450  1.3980  0.8577 -1.1058
  101MOL0     H13615   2.636   3.108   9.226 -1.4531  0.2667 -0.1986
  101MOL0     H13616   2.734   3.240   9.309 -0.6166 -0.9462  1.8263
  101MOL0     H13617   2.859   2.946  10.049  2.2726  0.9898  0.4852
  101MOL0     H13618   2.877   2.711  10.085  2.1286  1.5698  1.2957
  101MOL0     H13619   3.195   2.249   9.804 -1.4179  0.9137 -1.3643
  101MOL0     H13620   3.152   2.012   9.800  0.9014 -0.0856  0.3167
  101MOL0     H13621   3.470   1.662   8.847  0.1389  1.8943 -0.5852
  101MOL0     H13622   3.706   1.704   8.867 -0.6033 -0.2383  0.2189
  101MOL0     H13623   4.049   1.793   9.057  0.2337  0.3532 -0.9268
  101MOL0     H13624   4.293   1.847   9.148 -0.3779 -0.3114  1.9681
  101MOL0     H13625   4.580   2.095   9.230  0.8196 -0.3284 -1.3965
  101MOL0     H13626   4.466   1.993   9.285  1.5001 -1.5435 -0.7685
  101MOL0     H13627   4.628   1.988   9.027  3.8263  1.3044  4.4364
  101MOL0     H13628   4.495   1.872   9.030  0.9883  1.0506 -2.6508
  101MOL0     H13629   4.659   1.734   9.098  1.1838  0.8836 -1.2422
  101MOL0     H13630   4.602   1.791   9.255  2.3170 -2.2361  0.6855
  101MOL0     H13631   4.776   1.936   9.294 -1.6866  0.0386 -0.8348
  101MOL0     H13632   4.832   1.940   9.132 -1.9443  0.1536 -1.0854
  101MOL0     H13633   5.075   1.637   9.293 -3.1847 -3.7102 -1.0124
  101MOL0     H13634   4.183   2.258   9.144  0.6022  0.2225 -3.0897
  101MOL0     H13635   3.961   2.206   9.124 -2.3577 -2.9949  0.2564
  102MOL0     O13636   9.275   9.008   5.878  0.2335  0.1360 -0.0016
  102MOL0     C13637   9.164   9.025   5.818 -0.4584  1.3489  0.2721
  102MOL0     O13638   9.159   9.087   5.689  0.9251  0.6071  0.0750
  102MOL0     C13639   9.275   9.114   5.615  0.4093  0.2853 -0.0262
  102MOL0     C13640   9.255   9.111   5.478 -0.2927  0.0308  0.5815
  102MOL0     C13641   9.358   9.128   5.383  1.0823  1.0015 -0.3203
  102MOL0     C13642   9.480   9.166   5.424 -0.0876  0.4006 -0.1461
  102MOL0     O13643   9.572   9.185   5.330 -0.2345  0.5611 -0.9999
  102MOL0     C13644   9.679   9.281   5.358 -0.1707  0.2689  0.2630
  102MOL0     C13645   9.708   9.352   5.229  0.4253  0.9469 -0.1671
  102MOL0     C13646   9.833   9.302   5.165 -0.3692  0.3270  0.3673
  102MOL0     C13647   9.959   9.375   5.223  0.5992  0.0294  0.5795
  102MOL0     C13648  10.080   9.329   5.144  0.1472  0.0369 -0.1869
  102MOL0     C13649  10.204   9.390   5.214 -0.0765 -0.1049 -0.1742
  102MOL0     C13650  10.316   9.317   5.158 -1.5182  0.2270 -0.6856
  102MOL0     C13651  10.440   9.380   5.211 -0.2426  0.1275 -0.1007
  102MOL0     N13652  10.553   9.324   5.139  0.0865 -0.1328  0.6019
  102MOL0     C13653  10.613   9.206   5.160  0.2261 -0.9897  0.2329
  102MOL0     C13654  10.689   9.194   5.050  0.1960  0.5088 -1.2219
  102MOL0     C13655  10.761   9.066   5.009  0.6464 -0.1418 -0.2060
  102MOL0     C13656  10.904   9.069   5.054  0.3924  0.0088 -0.0111
  102MOL0     C13657  10.965   8.937   4.993 -0.6839 -0.2588 -0.4358
  102MOL0     C13658  11.124   8.936   5.017 -0.1373 -0.4726  0.0338
  102MOL0     O13659  11.187   8.822   4.949  0.5051 -0.1030 -0.0180
  102MOL0     C13660  11.226   8.838   4.822  0.4525  0.5043 -0.3538
  102MOL0     C13661  11.263   8.950   4.751 -0.0084  0.7102 -0.2131
  102MOL0     C13662  11.338   8.938   4.625  0.1083  0.2051 -0.0589
  102MOL0     C13663  11.389   9.074   4.572  0.1280 -0.5394  0.0193
  102MOL0     C13664  11.351   8.813   4.570 -0.6166 -0.0595  0.8220
  102MOL0     C13665  11.407   8.787   4.438  0.5540  0.6214 -0.3277
  102MOL0     O13666  11.463   8.898   4.376 -0.0567 -0.9103 -0.2855
  102MOL0     C13667  11.542   8.870   4.268 -0.5667  0.2561 -0.2184
  102MOL0     C13668  11.489   8.862   4.141  0.5359 -0.8673 -0.9267
  102MOL0     C13669  11.573   8.843   4.032  0.6010  0.4199 -1.0923
  102MOL0     C13670  11.706   8.832   4.052  0.1243 -0.5222 -0.5654
  102MOL0     O13671  11.802   8.817   3.965 -0.5210 -0.1007 -0.3404
  102MOL0     C13672  11.789   8.803   3.825  0.0128  0.3956  0.8232
  102MOL0     C13673  11.917   8.744   3.774 -0.9430  0.6415  0.0740
  102MOL0     C13674  11.929   8.729   3.626  0.2018 -0.8626 -0.0707
  102MOL0     C13675  11.854   8.608   3.569  0.3892 -0.1766  0.1922
  102MOL0     C13676  11.878   8.569   3.420  0.5028  0.1344 -0.4871
  102MOL0     C13677  11.796   8.440   3.391 -0.3568 -0.2331  1.5406
  102MOL0     C13678  11.822   8.375   3.251  0.3855  0.0284 -0.5484
  102MOL0     C13679  11.819   8.471   3.135  0.3078  0.3933 -0.2022
  102MOL0    Cl13680  11.798   8.407   2.973 -0.1173 -0.1658 -0.1413
  102MOL0     C13681  11.763   8.831   4.186  0.0877 -0.0709  0.1038
  102MOL0     C13682  11.679   8.853   4.297  0.3466 -0.4017  0.1071
  102MOL0     O13683  11.414   8.671   4.402  0.0408 -0.0994 -0.0457
  102MOL0     C13684  11.302   8.699   4.646 -0.3024  0.1036  0.3495
  102MOL0     C13685  11.247   8.711   4.770 -0.2157 -1.0718 -0.1852
  102MOL0     N13686  10.679   9.310   4.979  0.2528 -0.2297  0.3880
  102MOL0     N13687  10.595   9.396   5.031 -0.6291 -0.4227 -0.1635
  102MOL0     C13688   9.514   9.159   5.561  0.5327  0.3768 -0.6295
  102MOL0     C13689   9.408   9.137   5.657 -0.3642 -0.6860  0.9150
  102MOL0     C13690   9.040   8.990   5.892 -0.0446  0.9946 -0.7223
  102MOL0     C13691   9.052   8.949   6.029 -0.2656  0.5173 -0.6159
  102MOL0     C13692   8.928   8.911   6.090  0.5280  0.6668 -0.5528
  102MOL0     C13693   8.806   8.897   6.019  0.7054 -0.0301  0.6030
  102MOL0     O13694   8.700   8.820   6.068  0.7651  0.5141 -0.5107
  102MOL0     C13695   8.666   8.815   6.205 -0.0515  0.3524  0.5761
  102MOL0     C13696   8.542   8.729   6.236 -0.6071  0.3094 -0.1321
  102MOL0     C13697   8.573   8.583   6.203 -0.1481  0.1954  0.3072
  102MOL0     C13698   8.484   8.481   6.273 -0.0398 -0.1294  0.6845
  102MOL0     C13699   8.354   8.506   6.214 -0.2088 -0.6114  0.8894
  102MOL0     C13700   8.239   8.518   6.178  0.5103 -1.2492  0.6795
  102MOL0     C13701   8.804   8.945   5.894  0.2817 -0.4184  0.4837
  102MOL0     C13702   8.915   8.992   5.826 -0.1805  0.4175 -0.2618
  102MOL0     H13703   9.154   9.092   5.445 -0.0520  1.4319 -1.1226
  102MOL0     H13704   9.342   9.108   5.277  2.6024  0.0370 -0.3954
  102MOL0     H13705   9.643   9.355   5.430  1.1821  1.9731 -0.7518
  102MOL0     H13706   9.768   9.240   5.406 -2.3471 -0.7460  3.8106
  102MOL0     H13707   9.620   9.363   5.164  1.5575  1.3635 -1.6814
  102MOL0     H13708   9.729   9.457   5.248  2.8363  0.5913 -0.5889
  102MOL0     H13709   9.836   9.193   5.176 -0.7407  0.2025 -0.6378
  102MOL0     H13710   9.815   9.320   5.059  0.7629  1.2485  0.3123
  102MOL0     H13711   9.945   9.483   5.217 -0.8486 -0.0714  1.7071
  102MOL0     H13712   9.976   9.337   5.324  1.7714 -0.4043  0.2440
  102MOL0     H13713  10.086   9.220   5.152  2.7759  0.1237 -0.1005
  102MOL0     H13714  10.073   9.367   5.042  0.9552 -1.8923 -0.9989
  102MOL0     H13715  10.210   9.497   5.192 -2.4314  0.0708 -0.1815
  102MOL0     H13716  10.211   9.371   5.322  0.3468 -1.3770 -0.4032
  102MOL0     H13717  10.313   9.210   5.179 -1.3265  0.2373 -0.5998
  102MOL0     H13718  10.310   9.319   5.049  0.1666 -1.8810 -0.9004
  102MOL0     H13719  10.445   9.358   5.318 -0.5155 -2.5454 -0.5687
  102MOL0     H13720  10.443   9.489   5.213  2.0786  0.1774  3.9715
  102MOL0     H13721  10.588   9.132   5.235  1.3498 -1.1036  0.5144
  102MOL0     H13722  10.711   8.977   5.049  1.2582 -0.1124  0.6421
  102MOL0     H13723  10.759   9.079   4.900 -0.2711  1.0792 -0.0643
  102MOL0     H13724  10.902   9.060   5.163  2.8798  2.5794  0.3765
  102MOL0     H13725  10.958   9.157   5.017  0.1519 -0.0525 -0.5204
  102MOL0     H13726  10.944   8.931   4.886 -0.9681 -0.1447 -0.3866
  102MOL0     H13727  10.930   8.847   5.046  1.8877 -2.0004 -1.4825
  102MOL0     H13728  11.145   8.932   5.124  2.3153 -1.5532 -0.4209
  102MOL0     H13729  11.162   9.034   4.987  0.2557  0.1965  2.4952
  102MOL0     H13730  11.252   9.048   4.795 -2.2037  0.1108  0.7121
  102MOL0     H13731  11.352   9.091   4.470 -1.7216 -0.4716  0.6714
  102MOL0     H13732  11.343   9.155   4.628  0.9690 -0.4003  0.5221
  102MOL0     H13733  11.498   9.074   4.581  0.1844 -3.1817  0.1079
  102MOL0     H13734  11.381   8.862   4.136  0.0757  1.8461  3.3344
  102MOL0     H13735  11.534   8.843   3.930  0.8420  3.3176 -1.2816
  102MOL0     H13736  11.704   8.738   3.800  0.3959  0.0742  0.3515
  102MOL0     H13737  11.780   8.903   3.782  2.0876 -0.4658 -1.8348
  102MOL0     H13738  12.005   8.796   3.811  0.7119 -1.4718 -0.7088
  102MOL0     H13739  11.917   8.640   3.809  1.1033  0.4736 -0.3274
  102MOL0     H13740  12.030   8.711   3.588 -0.2619 -0.9759 -1.3087
  102MOL0     H13741  11.906   8.827   3.584  0.2817  0.1209  2.0552
  102MOL0     H13742  11.887   8.514   3.616 -1.6849 -0.8516  0.4068
  102MOL0     H13743  11.747   8.621   3.586  0.8936  1.0008  3.0394
  102MOL0     H13744  11.985   8.548   3.409  0.9402 -0.6092  3.7401
  102MOL0     H13745  11.858   8.653   3.352  0.6359 -0.8177 -1.7576
  102MOL0     H13746  11.813   8.369   3.472  0.7379 -2.7527 -0.7416
  102MOL0     H13747  11.691   8.469   3.379 -0.0992 -0.5284 -4.5513
  102MOL0     H13748  11.744   8.299   3.240 -1.6167  1.8629  0.1693
  102MOL0     H13749  11.918   8.325   3.256 -0.4473 -1.5444  3.6062
  102MOL0     H13750  11.909   8.528   3.111  0.8538 -1.1681 -2.1713
  102MOL0     H13751  11.749   8.552   3.160  1.8482  2.3330 -1.8637
  102MOL0     H13752  11.872   8.829   4.189  0.2019  2.6180 -0.0165
  102MOL0     H13753  11.717   8.860   4.398  2.1033 -0.6489 -0.5095
  102MOL0     H13754  11.310   8.598   4.606  1.4686 -0.9391  3.1206
  102MOL0     H13755  11.227   8.614   4.814 -0.0791 -2.2541 -2.5821
  102MOL0     H13756   9.615   9.153   5.599 -0.1271  1.7200  1.4948
  102MOL0     H13757   9.440   9.133   5.761  3.5388 -2.1422 -0.1671
  102MOL0     H13758   9.146   8.941   6.082  2.3270  0.2450 -4.8091
  102MOL0     H13759   8.926   8.880   6.194 -0.4388  2.9282  0.1618
  102MOL0     H13760   8.750   8.773   6.261  0.6494 -1.2866 -1.5728
  102MOL0     H13761   8.635   8.914   6.240 -2.6243 -1.0739  2.7210
  102MOL0     H13762   8.466   8.772   6.171 -2.4982  1.5936  2.7546
  102MOL0     H13763   8.502   8.744   6.337 -1.7910  0.0972 -0.5588
  102MOL0     H13764   8.679   8.563   6.220 -0.0900  1.3612  1.4199
  102MOL0     H13765   8.569   8.575   6.094  0.4355 -1.4565  0.3786
  102MOL0     H13766   8.488   8.485   6.382  0.4142 -0.7194  0.6976
  102MOL0     H13767   8.507   8.375   6.261  2.9196 -0.0778  4.0341
  102MOL0     H13768   8.136   8.532   6.154  0.4404 -0.4689  1.3761
  102MOL0     H13769   8.712   8.933   5.838  0.2190  1.4095  0.1133
  102MOL0     H13770   8.905   9.029   5.724 -1.7952 -1.0330 -0.6825
  103MOL0     O13771   1.846   9.149   8.045 -0.2106 -0.2288 -0.7472
  103MOL0     C13772   1.885   9.125   7.931  0.1366 -0.4046  0.4025
  103MOL0     O13773   1.838   9.024   7.852 -0.0845  0.6832  0.1775
  103MOL0     C13774   1.726   8.955   7.901 -0.3244  0.7229 -0.3423
  103MOL0     C13775   1.594   8.995   7.862 -1.3836 -0.8495  0.3546
  103MOL0     C13776   1.479   8.918   7.880 -0.9001 -0.8420 -0.8283
  103MOL0     C13777   1.498   8.783   7.937 -0.0898 -0.9064 -0.6149
  103MOL0     O13778   1.385   8.704   7.948  0.2446 -0.4251  0.1954
  103MOL0     C13779   1.401   8.575   7.991 -0.3016 -0.2969  0.4667
  103MOL0     C13780   1.252   8.515   8.009 -1.1183  0.9774 -0.2953
  103MOL0     C13781   1.168   8.605   8.104 -0.4883 -0.8129 -0.2844
  103MOL0     C13782   1.020   8.558   8.103 -0.9057  0.0208  0.2034
  103MOL0     C13783   0.925   8.650   8.186  0.6828 -0.3079 -0.0570
  103MOL0     C13784   0.792   8.563   8.207  0.0033 -0.6304  1.1802
  103MOL0     C13785   0.680   8.638   8.271 -0.6888  0.6374 -0.2962
  103MOL0     C13786   0.624   8.758   8.194 -0.1499 -0.0576 -0.5822
  103MOL0     N13787   0.494   8.730   8.140 -0.6201 -0.3149  0.0627
  103MOL0     C13788   0.469   8.680   8.022 -0.4254 -0.2755 -0.1220
  103MOL0     C13789   0.333   8.671   8.022 -1.2298 -0.0682  0.1591
  103MOL0     C13790   0.251   8.616   7.896  0.5008  0.8731 -0.4576
  103MOL0     C13791   0.219   8.725   7.800 -0.1328  0.2158 -0.8900
  103MOL0     C13792   0.120   8.668   7.696  0.0145  0.3826  0.0270
  103MOL0     C13793   0.190   8.612   7.572  0.9209  0.8084  0.3437
  103MOL0     O13794   0.280   8.705   7.502 -0.0928  0.7264  0.1503
  103MOL0     C13795   0.230   8.805   7.426  0.1831  0.4859  0.4510
  103MOL0     C13796   0.135   8.781   7.323  0.6156 -0.6774 -0.1584
  103MOL0     C13797   0.081   8.894   7.251  0.1840 -0.5572  0.5435
  103MOL0     C13798  -0.017   8.867   7.136 -0.8724  0.2571 -0.3996
  103MOL0     C13799   0.126   9.026   7.280 -0.2489 -0.0148 -0.1974
  103MOL0     C13800   0.074   9.158   7.211 -0.4925  0.9053 -0.4136
  103MOL0     O13801   0.172   9.264   7.221 -1.2519  0.4953  0.2402
  103MOL0     C13802   0.147   9.386   7.170 -0.0717 -0.6142 -0.4596
  103MOL0     C13803   0.017   9.448   7.165 -0.0900  0.8583 -0.4758
  103MOL0     C13804  -0.003   9.576   7.129  0.0493 -0.0851  0.1945
  103MOL0     C13805   0.115   9.657   7.094 -0.1613 -0.8689  0.3309
  103MOL0     O13806   0.117   9.795   7.064 -0.8273  0.9116  0.0556
  103MOL0     C13807  -0.000   9.864   7.024  0.3681 -0.4446  0.3327
  103MOL0     C13808   0.042  10.002   6.978 -0.3523  0.4201  0.6229
  103MOL0     C13809   0.104   9.986   6.831  0.2586  0.0592 -0.1397
  103MOL0     C13810   0.191  10.106   6.797 -0.7745  0.8666  0.1168
  103MOL0     C13811   0.230  10.112   6.655 -0.8419 -0.3087  0.0171
  103MOL0     C13812   0.330  10.229   6.630  0.6504 -0.2702 -0.6257
  103MOL0     C13813   0.359  10.244   6.482 -0.9434 -0.4227  0.6214
  103MOL0     C13814   0.474  10.338   6.460 -1.1348 -0.2240  0.2360
  103MOL0    Cl13815   0.627  10.264   6.512 -0.2521  0.1125 -0.2203
  103MOL0     C13816   0.240   9.604   7.128  0.2085  0.0767 -0.6380
  103MOL0     C13817   0.256   9.468   7.162 -0.4196  0.1536 -0.6585
  103MOL0     O13818  -0.039   9.159   7.159  0.3044  0.1210 -0.6635
  103MOL0     C13819   0.243   9.037   7.368 -0.1143 -0.9228  0.1004
  103MOL0     C13820   0.287   8.936   7.442 -0.4142  0.3384  1.0465
  103MOL0     N13821   0.283   8.698   8.140  0.8105 -0.3635 -0.3987
  103MOL0     N13822   0.377   8.740   8.219 -0.3092  0.0934  0.3171
  103MOL0     C13823   1.628   8.744   7.980 -1.1424  0.2953  1.1816
  103MOL0     C13824   1.735   8.827   7.958  0.1532 -0.0611  0.3254
  103MOL0     C13825   1.999   9.204   7.882  0.6879  0.2900  0.6212
  103MOL0     C13826   2.022   9.326   7.952  0.7575 -0.4655 -1.1778
  103MOL0     C13827   2.134   9.402   7.917 -0.1791 -0.1572  0.8951
  103MOL0     C13828   2.222   9.358   7.811 -0.1434  0.7567  0.3961
  103MOL0     O13829   2.336   9.417   7.761  0.2920 -1.1537 -0.5991
  103MOL0     C13830   2.395   9.507   7.857 -0.0534  0.3577 -0.2044
  103MOL0     C13831   2.473   9.429   7.955 -0.0635 -0.5944 -0.5077
  103MOL0     C13832   2.561   9.493   8.062 -0.1227  0.4252  0.2347
  103MOL0     C13833   2.636   9.380   8.141  0.4354 -0.5232  0.3217
  103MOL0     C13834   2.548   9.276   8.202 -0.2750 -0.8586 -0.2402
  103MOL0     C13835   2.480   9.199   8.269 -0.3476 -0.1550 -0.7613
  103MOL0     C13836   2.193   9.235   7.741 -0.5284 -0.4939  0.4368
  103MOL0     C13837   2.082   9.159   7.773 -1.1275  0.2501 -0.6667
  103MOL0     H13838   1.588   9.093   7.815 -0.9983 -2.4829 -3.5446
  103MOL0     H13839   1.379   8.954   7.856 -0.1093  1.9311 -0.2013
  103MOL0     H13840   1.446   8.509   7.916 -0.5984  0.4677 -0.4011
  103MOL0     H13841   1.466   8.564   8.078 -0.9676 -1.6094  0.8414
  103MOL0     H13842   1.208   8.523   7.910  0.6964  2.7420 -1.0202
  103MOL0     H13843   1.264   8.409   8.034  0.9003  0.9420 -1.2137
  103MOL0     H13844   1.215   8.608   8.203  0.2861  2.1800 -0.6439
  103MOL0     H13845   1.180   8.711   8.080 -0.5977 -1.0178 -1.2837
  103MOL0     H13846   0.992   8.562   7.998  2.3855  0.2083 -0.7934
  103MOL0     H13847   1.020   8.455   8.141  2.6811  0.0466  0.6705
  103MOL0     H13848   0.973   8.663   8.283  0.9351  1.2202 -0.3623
  103MOL0     H13849   0.920   8.753   8.149 -0.6214  0.6535  2.5038
  103MOL0     H13850   0.754   8.516   8.115 -0.0799  0.6214  0.5499
  103MOL0     H13851   0.826   8.486   8.276  2.5226  2.0020  3.1100
  103MOL0     H13852   0.599   8.566   8.282  0.7941 -0.8913  1.0925
  103MOL0     H13853   0.714   8.663   8.372 -4.5698 -3.9054  2.5687
  103MOL0     H13854   0.693   8.803   8.122 -0.9160  0.8127 -0.7994
  103MOL0     H13855   0.618   8.833   8.273  4.4078  0.8029 -0.8044
  103MOL0     H13856   0.534   8.633   7.949  1.0033 -1.9203  2.0365
  103MOL0     H13857   0.311   8.534   7.854 -0.5443 -0.3840  0.4335
  103MOL0     H13858   0.160   8.565   7.931  0.9986  0.6011  0.4880
  103MOL0     H13859   0.312   8.763   7.756  0.4232 -0.1278 -0.0290
  103MOL0     H13860   0.178   8.802   7.865 -0.5029 -1.2198  0.6421
  103MOL0     H13861   0.059   8.755   7.670 -0.9596  0.2511  1.7200
  103MOL0     H13862   0.056   8.590   7.738 -0.6296  0.2820 -1.1030
  103MOL0     H13863   0.104   8.573   7.516 -1.4774  3.2736  2.0274
  103MOL0     H13864   0.244   8.528   7.615  4.5784  2.7747  0.0939
  103MOL0     H13865   0.101   8.682   7.297 -1.1745 -0.3625  0.8471
  103MOL0     H13866  -0.052   8.764   7.125  0.5447 -0.4770  1.4396
  103MOL0     H13867  -0.106   8.930   7.127 -3.5881 -3.5473 -4.1619
  103MOL0     H13868   0.036   8.891   7.043 -1.1948  0.6622 -0.4832
  103MOL0     H13869  -0.064   9.395   7.215  0.2139  1.2353  0.4347
  103MOL0     H13870  -0.099   9.623   7.108 -0.6527 -1.8904 -0.9328
  103MOL0     H13871  -0.031   9.814   6.932 -0.1849  0.8582 -0.2117
  103MOL0     H13872  -0.077   9.840   7.098 -0.1040 -0.2009 -0.0705
  103MOL0     H13873  -0.052  10.058   6.985  0.0261  1.2246 -0.4621
  103MOL0     H13874   0.124  10.034   7.043  2.5107 -0.4026 -2.3475
  103MOL0     H13875   0.029   9.966   6.755  0.8597 -0.2208 -0.6650
  103MOL0     H13876   0.165   9.895   6.827  1.7553  1.0887 -1.9928
  103MOL0     H13877   0.148  10.202   6.826  1.7245  1.5573  1.9323
  103MOL0     H13878   0.283  10.098   6.855  0.4993 -1.2650 -2.0078
  103MOL0     H13879   0.140  10.137   6.598 -0.8030  0.1088  0.1372
  103MOL0     H13880   0.279  10.020   6.623  1.9060  1.8306 -2.5374
  103MOL0     H13881   0.292  10.325   6.665 -0.2790 -0.3022 -1.4873
  103MOL0     H13882   0.423  10.228   6.686  1.7843 -0.4709 -2.4308
  103MOL0     H13883   0.282  10.304   6.433  1.0596  1.8218  0.0353
  103MOL0     H13884   0.368  10.148   6.430  1.8927  0.8851 -1.6058
  103MOL0     H13885   0.449  10.428   6.517 -3.2136 -1.3946  1.2914
  103MOL0     H13886   0.489  10.367   6.355 -0.7848  3.1340  1.0930
  103MOL0     H13887   0.315   9.681   7.114 -0.0459  0.7208  1.2331
  103MOL0     H13888   0.355   9.427   7.181  0.3306  2.1456  0.0612
  103MOL0     H13889   0.288   9.136   7.371  2.0519 -1.8649 -0.0174
  103MOL0     H13890   0.368   8.955   7.511 -0.3689  1.9868  0.5691
  103MOL0     H13891   1.658   8.645   8.011  3.5529  0.1773 -2.6120
  103MOL0     H13892   1.833   8.789   7.985 -0.0058 -2.5645 -2.2404
  103MOL0     H13893   1.961   9.362   8.034  2.5100  3.8261 -1.4625
  103MOL0     H13894   2.160   9.488   7.978  3.2100  0.2474 -0.9049
  103MOL0     H13895   2.470   9.569   7.808 -1.7316  0.2297 -3.1954
  103MOL0     H13896   2.322   9.571   7.908  2.5234  0.4036  3.8756
  103MOL0     H13897   2.523   9.350   7.898 -1.0040 -0.7453 -1.1535
  103MOL0     H13898   2.403   9.380   8.023  0.7016  1.6608  2.0979
  103MOL0     H13899   2.505   9.553   8.135  1.0294  1.2503  0.4875
  103MOL0     H13900   2.631   9.560   8.011 -0.4108  0.8918  0.4495
  103MOL0     H13901   2.693   9.431   8.220  0.5816  1.4559 -1.0054
  103MOL0     H13902   2.712   9.331   8.079  1.7702 -0.6116  1.9603
  103MOL0     H13903   2.420   9.130   8.326 -2.4523  2.2537  0.1561
  103MOL0     H13904   2.267   9.202   7.668 -0.1276 -1.2681  1.1725
  103MOL0     H13905   2.075   9.070   7.712 -1.5944 -1.6038  1.9425
  104MOL0     O13906   5.156  10.069   7.902 -0.8240  0.3875  0.1082
  104MOL0     C13907   5.239  10.135   7.840  1.1453 -0.0787  0.0766
  104MOL0     O13908   5.217  10.241   7.756 -0.2149 -0.5141  0.7399
  104MOL0     C13909   5.109  10.324   7.763  0.1381 -0.1667  0.6471
  104MOL0     C13910   5.011  10.328   7.861  0.5443  0.3694 -0.2044
  104MOL0     C13911   4.906  10.426   7.855  0.4078  0.0304 -0.2715
  104MOL0     C13912   4.898  10.511   7.742 -0.2407 -0.4187 -0.4620
  104MOL0     O13913   4.794  10.596   7.737  1.1391 -0.5511  0.0645
  104MOL0     C13914   4.748  10.637   7.607 -0.4292  0.5284 -0.5819
  104MOL0     C13915   4.629  10.719   7.614 -0.8582 -0.6395  0.7933
  104MOL0     C13916   4.567  10.734   7.475 -0.1059  0.1687 -0.3379
  104MOL0     C13917   4.617  10.864   7.409  0.5405 -0.0407 -0.3086
  104MOL0     C13918   4.595  10.884   7.252 -0.1258  0.9092  0.3228
  104MOL0     C13919   4.447  10.945   7.215 -0.4641 -0.2491  0.0463
  104MOL0     C13920   4.435  10.951   7.056  0.0079 -0.8149 -0.2245
  104MOL0     C13921   4.338  11.070   7.028 -0.0581  0.1439  0.2963
  104MOL0     N13922   4.199  11.022   7.028  0.1604 -0.5225 -0.2941
  104MOL0     C13923   4.106  11.069   7.120  0.0280  0.4047 -0.9454
  104MOL0     C13924   3.995  11.033   7.073  0.4943  0.6706 -0.1845
  104MOL0     C13925   3.855  11.054   7.125  0.3784  0.1073  0.9383
  104MOL0     C13926   3.821  11.201   7.163 -0.1778 -0.2148  0.0887
  104MOL0     C13927   3.672  11.222   7.207 -0.6380  0.0300  0.6450
  104MOL0     C13928   3.644  11.372   7.238 -0.3585  0.7189  0.2920
  104MOL0     O13929   3.512  11.405   7.221  0.6422  0.5737  0.4715
  104MOL0     C13930   3.478  11.520   7.157  0.0055  0.2738  0.0242
  104MOL0     C13931   3.409  11.519   7.035 -0.1636  0.4554  0.1850
  104MOL0     C13932   3.346  11.632   6.980 -0.4445 -0.5967 -0.5316
  104MOL0     C13933   3.221  11.627   6.904  0.3221 -0.1249  0.3439
  104MOL0     C13934   3.395  11.759   7.035  0.3361 -0.3978  0.3690
  104MOL0     C13935   3.338  11.892   6.992  0.4044 -0.6238  0.2292
  104MOL0     O13936   3.366  11.995   7.077 -0.0412  0.1078  0.6601
  104MOL0     C13937   3.377  12.122   7.032  0.0178 -0.9532 -0.4337
  104MOL0     C13938   3.268  12.212   7.063 -0.5475 -0.1615  0.1123
  104MOL0     C13939   3.273  12.347   7.017  0.1650  0.4996  0.3287
  104MOL0     C13940   3.388  12.394   6.947  0.3310 -0.4293 -0.8944
  104MOL0     O13941   3.388  12.532   6.924  0.3419  0.5020  0.5358
  104MOL0     C13942   3.513  12.589   6.876 -0.5979  0.0170  0.5132
  104MOL0     C13943   3.512  12.737   6.844  0.5153 -0.7759  0.5654
  104MOL0     C13944   3.440  12.826   6.933 -0.3205  0.0355  0.1526
  104MOL0     C13945   3.422  12.967   6.877  0.2013  0.3891  0.3510
  104MOL0     C13946   3.287  13.027   6.919 -0.9778  0.5137  0.5961
  104MOL0     C13947   3.174  12.964   6.833 -0.6486  0.0726  0.7673
  104MOL0     C13948   3.036  12.988   6.891  0.0832 -1.0069  0.7561
  104MOL0     C13949   3.018  12.911   7.025  0.5273  0.0984 -0.5344
  104MOL0    Cl13950   2.840  12.920   7.067  0.0475  0.0660 -0.1199
  104MOL0     C13951   3.486  12.304   6.912  0.0953 -0.1486  0.2023
  104MOL0     C13952   3.486  12.170   6.956 -0.4650 -1.3273  0.3454
  104MOL0     O13953   3.271  11.909   6.887 -0.4875  0.2363  0.1043
  104MOL0     C13954   3.479  11.760   7.147 -0.1012 -0.3664  0.6918
  104MOL0     C13955   3.516  11.642   7.211  0.1939 -0.1484  0.6151
  104MOL0     N13956   4.022  10.971   6.956  0.5118  0.3582 -0.4339
  104MOL0     N13957   4.140  10.957   6.934 -0.4357  0.9381  0.1223
  104MOL0     C13958   5.005  10.501   7.645 -0.0929 -1.0720 -0.9402
  104MOL0     C13959   5.108  10.418   7.663 -0.2680  0.1896 -0.0680
  104MOL0     C13960   5.374  10.082   7.843  1.1868  0.2193 -0.9493
  104MOL0     C13961   5.462  10.094   7.737 -0.1386 -0.0822  0.7842
  104MOL0     C13962   5.583  10.011   7.734 -0.3837 -0.6671 -0.3149
  104MOL0     C13963   5.609   9.924   7.843 -0.9792  0.1395 -0.9677
  104MOL0     O13964   5.722   9.841   7.838  0.1205  0.4712 -0.1125
  104MOL0     C13965   5.773   9.777   7.963  0.0600 -0.0609 -0.1961
  104MOL0     C13966   5.898   9.698   7.925 -0.5346 -1.4377 -0.1242
  104MOL0     C13967   5.935   9.609   8.038 -0.0795  0.5546 -0.1686
  104MOL0     C13968   6.029   9.493   7.987  1.2134  1.0945  0.1548
  104MOL0     C13969   6.081   9.408   8.099  0.5166 -0.1635  0.4546
  104MOL0     C13970   6.148   9.354   8.185 -0.1519  0.8244 -0.4351
  104MOL0     C13971   5.531   9.935   7.957 -1.2610 -0.3171 -0.2441
  104MOL0     C13972   5.407   9.999   7.956  0.6381 -0.3973  1.3309
  104MOL0     H13973   5.008  10.265   7.949  0.9714 -0.4299 -0.7474
  104MOL0     H13974   4.825  10.437   7.927 -1.0928 -0.4640 -1.8135
  104MOL0     H13975   4.818  10.706   7.560 -1.8106  1.7381 -0.9211
  104MOL0     H13976   4.729  10.544   7.552 -0.4806  1.3583 -2.0085
  104MOL0     H13977   4.553  10.659   7.665 -2.5514 -0.8595 -1.7559
  104MOL0     H13978   4.640  10.813   7.667 -0.9273  1.1539 -2.1338
  104MOL0     H13979   4.599  10.648   7.417  1.3147 -0.4715  1.3128
  104MOL0     H13980   4.457  10.733   7.475 -0.2093  1.6562 -3.0923
  104MOL0     H13981   4.580  10.953   7.460 -0.4133 -0.5689 -0.0637
  104MOL0     H13982   4.726  10.859   7.410  0.6589  1.8999  0.3723
  104MOL0     H13983   4.683  10.936   7.214  1.0778 -0.1755  1.5597
  104MOL0     H13984   4.608  10.790   7.197 -0.5326 -1.1922  3.5500
  104MOL0     H13985   4.378  10.883   7.273  0.3245  1.9419  3.6406
  104MOL0     H13986   4.436  11.046   7.257 -3.0322 -0.1920 -0.6313
  104MOL0     H13987   4.537  10.970   7.022  0.5598 -0.6202  1.4685
  104MOL0     H13988   4.396  10.866   6.999 -2.6600  1.1991 -1.6651
  104MOL0     H13989   4.367  11.096   6.925 -2.0760 -1.7285 -0.8197
  104MOL0     H13990   4.345  11.157   7.094  1.0708 -0.4222  0.9484
  104MOL0     H13991   4.118  11.127   7.210 -1.3645 -0.5506 -0.1105
  104MOL0     H13992   3.789  11.018   7.045  0.1234  0.8844  0.7919
  104MOL0     H13993   3.839  10.986   7.209 -0.6097 -3.0998 -1.6168
  104MOL0     H13994   3.846  11.269   7.080  4.0643 -2.9062 -1.1667
  104MOL0     H13995   3.868  11.222   7.259  1.4150 -1.5799 -0.3443
  104MOL0     H13996   3.648  11.163   7.296 -3.1608  1.5129  1.0580
  104MOL0     H13997   3.611  11.199   7.119  2.3723  0.5111 -1.6994
  104MOL0     H13998   3.714  11.442   7.192  0.0256 -0.6619 -1.3246
  104MOL0     H13999   3.664  11.386   7.345 -0.3278 -0.0750  0.4004
  104MOL0     H14000   3.393  11.417   7.002  2.2814  0.4926 -1.4000
  104MOL0     H14001   3.241  11.662   6.803  0.7573  0.7322  0.7197
  104MOL0     H14002   3.184  11.524   6.897  1.1923 -0.3639 -1.0770
  104MOL0     H14003   3.146  11.692   6.950 -1.5465 -1.9686  0.0267
  104MOL0     H14004   3.182  12.165   7.109 -1.3547 -0.2410 -1.4284
  104MOL0     H14005   3.186  12.408   7.039 -0.4673  0.4014 -1.6791
  104MOL0     H14006   3.593  12.583   6.951 -0.0958 -1.4642 -0.1001
  104MOL0     H14007   3.542  12.546   6.780 -1.7858 -0.6338  0.4399
  104MOL0     H14008   3.608  12.783   6.816 -0.4980  0.0841 -1.7318
  104MOL0     H14009   3.458  12.741   6.749  0.6143  0.4095  0.5352
  104MOL0     H14010   3.489  12.827   7.030  3.1416 -0.3736 -1.4307
  104MOL0     H14011   3.352  12.768   6.964  0.9337 -2.2423 -0.3793
  104MOL0     H14012   3.499  13.035   6.913  3.1739 -1.3757 -2.1077
  104MOL0     H14013   3.414  12.972   6.768 -2.2442  2.8061  0.5124
  104MOL0     H14014   3.294  13.136   6.907 -1.3433  0.5198  0.4298
  104MOL0     H14015   3.285  12.998   7.024  1.3395 -1.6056  0.1553
  104MOL0     H14016   3.181  13.007   6.732  0.2320 -1.5457  0.0971
  104MOL0     H14017   3.175  12.856   6.817  0.1291  0.3063 -0.9561
  104MOL0     H14018   2.959  12.951   6.823  1.6740 -1.6358 -0.7733
  104MOL0     H14019   3.021  13.094   6.911  0.2803 -0.7919 -0.1864
  104MOL0     H14020   3.077  12.943   7.111 -2.3946  0.7124  1.3847
  104MOL0     H14021   3.034  12.805   7.001 -0.2754  0.1735 -1.4492
  104MOL0     H14022   3.572  12.346   6.861 -1.0323  2.2399  0.1318
  104MOL0     H14023   3.569  12.110   6.920 -0.2943 -0.1782 -1.2486
  104MOL0     H14024   3.520  11.844   7.202 -3.7697 -1.4783  5.8315
  104MOL0     H14025   3.561  11.650   7.309  0.0728  0.8612  0.6023
  104MOL0     H14026   5.003  10.569   7.561  0.5739 -1.0119 -0.9140
  104MOL0     H14027   5.194  10.410   7.597  3.2686  1.8999  3.8822
  104MOL0     H14028   5.440  10.159   7.653  0.8384 -0.8568 -0.1062
  104MOL0     H14029   5.644  10.014   7.644  1.9504  0.4786  1.2070
  104MOL0     H14030   5.804   9.852   8.038  1.8271  3.3496 -3.9558
  104MOL0     H14031   5.713   9.695   8.003  2.9762 -2.7133 -0.8995
  104MOL0     H14032   5.984   9.762   7.902  0.9797 -3.5661 -0.7357
  104MOL0     H14033   5.875   9.640   7.835 -0.0942  0.3876 -1.4712
  104MOL0     H14034   5.848   9.563   8.086 -1.9886 -0.1434 -3.8712
  104MOL0     H14035   5.981   9.662   8.121 -3.9931  0.6582  2.1842
  104MOL0     H14036   6.105   9.543   7.925  1.6329  2.3205  1.5785
  104MOL0     H14037   5.983   9.427   7.913  2.1733  0.1698  0.3618
  104MOL0     H14038   6.208   9.307   8.260 -4.4646  0.9987  3.5313
  104MOL0     H14039   5.559   9.872   8.041  2.9079 -0.1841 -1.2954
  104MOL0     H14040   5.336   9.988   8.037 -2.4945 -0.5335 -1.2000
  105MOL0     O14041   3.440   1.994   7.653  0.0941 -0.2706  0.4521
  105MOL0     C14042   3.439   1.879   7.617 -0.7649 -0.4542  0.5295
  105MOL0     O14043   3.544   1.796   7.577  0.3191  0.0317 -0.4445
  105MOL0     C14044   3.663   1.848   7.524 -0.4013 -0.2247 -0.0559
  105MOL0     C14045   3.766   1.756   7.519  0.1407  0.6471  0.8377
  105MOL0     C14046   3.893   1.785   7.464 -0.1309 -0.5686  0.0648
  105MOL0     C14047   3.910   1.914   7.412  0.1377  0.5530  0.1104
  105MOL0     O14048   4.032   1.933   7.337  0.1590 -0.1942 -0.1069
  105MOL0     C14049   4.084   1.824   7.259  0.5615  0.1608  0.3640
  105MOL0     C14050   4.154   1.878   7.130  0.1406 -0.0963 -0.1411
  105MOL0     C14051   4.040   1.905   7.028 -0.4029 -0.1195 -0.7875
  105MOL0     C14052   4.111   1.941   6.891  0.1943 -0.2862 -0.3617
  105MOL0     C14053   4.032   1.941   6.760 -0.3835 -0.6878  0.1106
  105MOL0     C14054   4.004   1.799   6.721 -0.8026 -0.1489 -0.0649
  105MOL0     C14055   4.120   1.719   6.656 -0.5928  0.2705 -0.5291
  105MOL0     C14056   4.155   1.765   6.518  0.6101  0.6702 -0.2217
  105MOL0     N14057   4.227   1.663   6.443 -0.3638  0.3246  0.7811
  105MOL0     C14058   4.348   1.686   6.374  0.1151  0.2665 -0.2398
  105MOL0     C14059   4.396   1.567   6.337  0.9127  0.8848 -0.4762
  105MOL0     C14060   4.521   1.533   6.264  0.7238 -0.5385  0.0443
  105MOL0     C14061   4.523   1.554   6.109  0.1056  0.0825  1.4199
  105MOL0     C14062   4.455   1.453   6.024  0.9926  0.2179  0.6388
  105MOL0     C14063   4.488   1.305   6.057 -0.2236  0.1977  0.0610
  105MOL0     O14064   4.422   1.206   5.988 -0.2035 -0.4312  0.8239
  105MOL0     C14065   4.297   1.172   6.012  0.3812 -1.3669  0.1766
  105MOL0     C14066   4.203   1.223   6.104  0.7246  0.2242 -0.3101
  105MOL0     C14067   4.077   1.165   6.124 -0.6041 -0.9081  1.4410
  105MOL0     C14068   4.002   1.237   6.239  0.3598 -0.3622  0.1560
  105MOL0     C14069   4.034   1.052   6.056 -0.1340  0.1940  0.4294
  105MOL0     C14070   3.919   0.967   6.107 -0.6809 -0.2547  0.7731
  105MOL0     O14071   3.891   0.969   6.241 -0.3060 -0.2619 -0.2480
  105MOL0     C14072   3.804   0.886   6.294  0.8610  0.7221  0.7496
  105MOL0     C14073   3.690   0.835   6.232  1.2547  0.9203  0.4155
  105MOL0     C14074   3.617   0.731   6.292 -0.0520 -0.4071 -0.0291
  105MOL0     C14075   3.644   0.697   6.427 -0.3845  0.7875 -0.2733
  105MOL0     O14076   3.561   0.603   6.481  0.7684  0.5836 -0.1499
  105MOL0     C14077   3.614   0.519   6.591  0.5024 -1.3159  0.0114
  105MOL0     C14078   3.511   0.399   6.612  0.2197 -1.1573  1.0083
  105MOL0     C14079   3.577   0.309   6.710 -0.5275 -0.0878 -0.3372
  105MOL0     C14080   3.702   0.234   6.675 -0.2914 -0.2963 -0.1894
  105MOL0     C14081   3.766   0.189   6.803  0.0387  0.9594 -0.1001
  105MOL0     C14082   3.904   0.113   6.794  0.0020 -1.3160 -0.2138
  105MOL0     C14083   3.940   0.028   6.916  1.1588 -0.7019  0.5203
  105MOL0     C14084   4.070  -0.050   6.879 -0.2372 -0.0310 -0.0368
  105MOL0    Cl14085   4.212   0.028   6.951 -0.3842  0.2839  0.2513
  105MOL0     C14086   3.750   0.761   6.500 -0.9074  0.7783  0.1874
  105MOL0     C14087   3.833   0.855   6.430  0.6448  0.1897  0.7266
  105MOL0     O14088   3.848   0.920   6.017  0.0015 -0.3260  0.0309
  105MOL0     C14089   4.115   1.012   5.944 -0.3495 -0.1433 -0.2834
  105MOL0     C14090   4.247   1.080   5.927  0.4244  0.3334  0.3245
  105MOL0     N14091   4.289   1.471   6.354 -0.4992 -0.1601 -0.5779
  105MOL0     N14092   4.190   1.531   6.410 -0.7933 -0.3117  0.2065
  105MOL0     C14093   3.813   2.004   7.405 -0.0819 -0.1196  0.0115
  105MOL0     C14094   3.684   1.972   7.461 -0.3211 -0.0682  0.6752
  105MOL0     C14095   3.311   1.811   7.603 -0.2925 -0.0783  0.7100
  105MOL0     C14096   3.182   1.871   7.620  0.4087  0.5972  0.7797
  105MOL0     C14097   3.061   1.794   7.613 -0.2665  0.2658  0.3115
  105MOL0     C14098   3.074   1.655   7.584 -0.3389 -0.3668 -0.0812
  105MOL0     O14099   2.971   1.568   7.578  0.3701 -0.0028  0.9249
  105MOL0     C14100   2.836   1.620   7.590  0.6663  0.8681 -0.5601
  105MOL0     C14101   2.730   1.528   7.513  0.8813  0.0370  0.3702
  105MOL0     C14102   2.582   1.570   7.543 -0.5999 -2.0442  0.6016
  105MOL0     C14103   2.546   1.520   7.685 -0.2183  0.7348 -0.3099
  105MOL0     C14104   2.424   1.594   7.724  0.1271 -0.8120  0.3296
  105MOL0     C14105   2.326   1.660   7.762  0.2121  0.1940 -0.3371
  105MOL0     C14106   3.198   1.596   7.581  0.0105  0.0032  0.2073
  105MOL0     C14107   3.318   1.671   7.595  1.2707  0.7077 -0.5951
  105MOL0     H14108   3.759   1.652   7.547  3.1588 -0.8197 -2.9639
  105MOL0     H14109   3.969   1.708   7.466  0.6551  0.1341 -1.0561
  105MOL0     H14110   4.156   1.764   7.315  1.8396 -1.0106 -2.3555
  105MOL0     H14111   3.999   1.762   7.230  1.3207 -2.1834  2.7724
  105MOL0     H14112   4.214   1.967   7.153  1.8171 -2.1050  4.3467
  105MOL0     H14113   4.230   1.811   7.089  2.9945  2.8705 -0.1012
  105MOL0     H14114   3.991   1.808   7.015 -1.0469  0.4265 -3.0056
  105MOL0     H14115   3.972   1.984   7.061 -1.1524  0.8071 -4.1179
  105MOL0     H14116   4.146   2.045   6.899 -0.3131  0.0099 -1.7122
  105MOL0     H14117   4.193   1.870   6.879  0.3917  0.1961 -2.0909
  105MOL0     H14118   3.952   2.013   6.777 -0.2975 -0.8877  1.4649
  105MOL0     H14119   4.094   1.988   6.683 -0.4051 -0.0883  0.4471
  105MOL0     H14120   3.961   1.744   6.806 -2.3897 -0.6996 -1.1779
  105MOL0     H14121   3.934   1.798   6.637  0.9764 -2.8323 -1.6514
  105MOL0     H14122   4.205   1.715   6.725 -1.4061  2.1899  0.6646
  105MOL0     H14123   4.080   1.618   6.648 -2.5035  0.9796 -0.3338
  105MOL0     H14124   4.218   1.855   6.524 -0.4043  1.3927 -0.1369
  105MOL0     H14125   4.062   1.785   6.464  0.5877 -2.9742 -1.7992
  105MOL0     H14126   4.396   1.782   6.363  2.2626 -0.3406  2.7304
  105MOL0     H14127   4.599   1.607   6.285  0.8170 -0.8536  0.8270
  105MOL0     H14128   4.548   1.433   6.299  0.5463 -2.3791 -4.4424
  105MOL0     H14129   4.628   1.560   6.079 -0.8046  1.1492 -2.0624
  105MOL0     H14130   4.481   1.654   6.094 -0.1126  0.0364  1.7263
  105MOL0     H14131   4.465   1.468   5.917 -0.9984 -2.8715 -0.1193
  105MOL0     H14132   4.347   1.456   6.044  0.9544 -3.1139  1.5819
  105MOL0     H14133   4.486   1.290   6.165  0.4960  2.1199  0.3998
  105MOL0     H14134   4.590   1.297   6.017  0.8296  1.0853  2.3347
  105MOL0     H14135   4.230   1.309   6.165 -2.4898  1.0089  0.2397
  105MOL0     H14136   4.006   1.347   6.236  1.9006 -0.4042  0.3801
  105MOL0     H14137   3.895   1.217   6.222  1.0555 -3.0907 -1.6338
  105MOL0     H14138   4.043   1.203   6.333  2.4862 -2.5403 -1.4589
  105MOL0     H14139   3.654   0.870   6.135  0.0411  2.7247  1.4653
  105MOL0     H14140   3.521   0.701   6.251 -3.2085  1.7384  4.8214
  105MOL0     H14141   3.716   0.488   6.566  0.5171 -2.2791  1.1442
  105MOL0     H14142   3.602   0.576   6.684 -0.1949 -2.7220  0.8321
  105MOL0     H14143   3.418   0.440   6.655 -0.8742 -1.4965 -0.9442
  105MOL0     H14144   3.487   0.354   6.516  2.0403  1.0666 -0.5928
  105MOL0     H14145   3.493   0.239   6.720  1.2404 -2.9069 -3.5197
  105MOL0     H14146   3.579   0.359   6.808  0.3379 -1.7581  0.5238
  105MOL0     H14147   3.681   0.150   6.608  1.3790 -1.0476  0.1679
  105MOL0     H14148   3.774   0.301   6.627 -0.1835  1.7703  2.6019
  105MOL0     H14149   3.690   0.132   6.857 -1.0295  1.5695 -0.9164
  105MOL0     H14150   3.795   0.278   6.859  2.7436 -0.4467  0.8976
  105MOL0     H14151   3.896   0.043   6.711  2.2124 -1.5623 -0.2566
  105MOL0     H14152   3.988   0.180   6.775  0.6986 -2.1354 -0.0726
  105MOL0     H14153   3.853  -0.038   6.925 -1.1158  1.9247 -0.6749
  105MOL0     H14154   3.951   0.078   7.013  0.2753 -1.1416  0.8587
  105MOL0     H14155   4.078  -0.079   6.774 -0.5269 -1.9340  0.4321
  105MOL0     H14156   4.059  -0.155   6.907 -0.2274 -0.5145 -1.7518
  105MOL0     H14157   3.783   0.752   6.603 -1.1992 -1.9070  0.1062
  105MOL0     H14158   3.915   0.902   6.484  0.4483  1.9486 -0.3875
  105MOL0     H14159   4.087   0.923   5.887  0.7345 -1.9228  1.8028
  105MOL0     H14160   4.303   1.036   5.844  1.3423 -0.3986  1.3124
  105MOL0     H14161   3.824   2.100   7.356 -0.9963  0.0501  0.1046
  105MOL0     H14162   3.604   2.045   7.458 -2.3852 -2.0894  2.3230
  105MOL0     H14163   3.177   1.979   7.627  1.0997  0.7361 -0.5176
  105MOL0     H14164   2.968   1.848   7.631 -0.3027  1.0177 -1.8085
  105MOL0     H14165   2.811   1.623   7.696  2.3319  0.1703 -0.1100
  105MOL0     H14166   2.820   1.722   7.554 -1.0062  1.4792  1.7519
  105MOL0     H14167   2.741   1.426   7.548  1.5980  0.3363  1.0423
  105MOL0     H14168   2.763   1.521   7.409  0.1247 -2.5803  0.2438
  105MOL0     H14169   2.520   1.521   7.468 -0.2893  0.1165 -1.1837
  105MOL0     H14170   2.572   1.679   7.531 -0.6985 -2.2647 -1.5886
  105MOL0     H14171   2.622   1.543   7.759 -2.2084  1.8466  1.5117
  105MOL0     H14172   2.520   1.414   7.685 -3.9766  1.4760 -0.9029
  105MOL0     H14173   2.232   1.708   7.783 -0.3988 -0.8995 -0.5112
  105MOL0     H14174   3.198   1.487   7.580 -0.9961 -0.0983  3.1305
  105MOL0     H14175   3.410   1.614   7.596 -0.2550 -1.8999  0.5664
  106MOL0     O14176   7.686  10.630   2.354 -0.8168  0.3635 -0.3608
  106MOL0     C14177   7.725  10.546   2.275  0.0392 -0.7547 -0.8697
  106MOL0     O14178   7.856  10.499   2.250 -0.2200 -0.4110 -0.0356
  106MOL0     C14179   7.965  10.572   2.297  0.5984  0.6463 -1.0742
  106MOL0     C14180   8.078  10.495   2.300  0.3959 -0.3788  0.8964
  106MOL0     C14181   8.185  10.561   2.356 -1.3038 -0.5542 -0.4222
  106MOL0     C14182   8.192  10.699   2.405 -0.2702 -0.2857 -0.9340
  106MOL0     O14183   8.294  10.764   2.459 -0.1260 -0.4542  0.6233
  106MOL0     C14184   8.419  10.754   2.394 -0.2931 -0.0809 -1.2301
  106MOL0     C14185   8.469  10.882   2.340  0.6712  0.0263 -0.9640
  106MOL0     C14186   8.614  10.856   2.291 -0.4312 -0.0319  0.3078
  106MOL0     C14187   8.663  10.960   2.178  1.1352 -0.8602 -0.5761
  106MOL0     C14188   8.784  10.915   2.105 -0.5418  1.3989  0.1336
  106MOL0     C14189   8.913  10.937   2.187 -0.4345  0.5104  0.6536
  106MOL0     C14190   9.037  10.851   2.139  0.1223  0.2742  0.0626
  106MOL0     C14191   9.037  10.705   2.169  0.3346  0.7243 -0.4924
  106MOL0     N14192   9.173  10.654   2.154  0.2482  0.1648 -0.8397
  106MOL0     C14193   9.276  10.660   2.245  0.9716 -0.1408 -0.3710
  106MOL0     C14194   9.381  10.612   2.181 -0.2354  0.9918  1.1755
  106MOL0     C14195   9.515  10.573   2.238 -0.7711  0.4995 -0.5867
  106MOL0     C14196   9.557  10.425   2.190 -0.0224 -0.4011  1.1485
  106MOL0     C14197   9.468  10.315   2.242 -0.3429 -0.6428  0.0586
  106MOL0     C14198   9.512  10.180   2.207 -0.8660  0.7327  0.5368
  106MOL0     O14199   9.614  10.148   2.307  1.5876  0.3276  0.8867
  106MOL0     C14200   9.675  10.029   2.284 -0.1081  0.9771  0.2709
  106MOL0     C14201   9.616   9.903   2.245 -0.7698 -0.2770  0.1963
  106MOL0     C14202   9.678   9.780   2.234  0.0550 -0.7266  0.9134
  106MOL0     C14203   9.584   9.668   2.175 -0.2620 -0.6193 -0.0940
  106MOL0     C14204   9.819   9.777   2.259 -0.3575 -0.7590 -0.0452
  106MOL0     C14205   9.902   9.655   2.269 -0.4231 -0.6055 -0.1239
  106MOL0     O14206  10.039   9.674   2.284  0.0633  0.5114  0.3905
  106MOL0     C14207  10.127   9.571   2.279 -0.0351  0.1466 -0.4559
  106MOL0     C14208  10.239   9.586   2.367 -0.2822  0.5961  0.2230
  106MOL0     C14209  10.325   9.476   2.373 -0.0820  0.4851 -0.0282
  106MOL0     C14210  10.312   9.367   2.291 -1.4762  0.2796 -0.0137
  106MOL0     O14211  10.405   9.268   2.330  0.1395 -0.0596  0.0435
  106MOL0     C14212  10.438   9.162   2.240  0.2278  0.2486 -0.0864
  106MOL0     C14213  10.567   9.098   2.288 -0.1721  0.4082  1.1973
  106MOL0     C14214  10.634   8.997   2.193 -0.2060 -0.1749  0.0224
  106MOL0     C14215  10.558   8.868   2.157 -0.7339  0.1735  0.7839
  106MOL0     C14216  10.546   8.764   2.266 -0.3147 -0.0776  0.6709
  106MOL0     C14217  10.405   8.702   2.269  0.2844 -0.3096 -0.7517
  106MOL0     C14218  10.367   8.628   2.141  0.1266  0.4144 -0.2890
  106MOL0     C14219  10.219   8.576   2.151 -0.1271  0.6430 -0.1562
  106MOL0    Cl14220  10.183   8.493   2.305  0.1120  0.6444 -0.3321
  106MOL0     C14221  10.205   9.352   2.203 -0.3057 -0.0065  0.1333
  106MOL0     C14222  10.110   9.461   2.196  0.9580  0.5594  0.2553
  106MOL0     O14223   9.838   9.552   2.260  0.1784  0.2018 -0.5553
  106MOL0     C14224   9.877   9.899   2.302  0.5322 -0.5342  0.6565
  106MOL0     C14225   9.810  10.020   2.314  0.8386 -0.1004 -0.5014
  106MOL0     N14226   9.348  10.579   2.047  0.2938  0.0830 -0.3235
  106MOL0     N14227   9.221  10.605   2.039  0.2666 -0.2199  0.0290
  106MOL0     C14228   8.074  10.771   2.403  0.9697  0.3174  0.8370
  106MOL0     C14229   7.959  10.714   2.338 -0.2794  0.0600 -0.4630
  106MOL0     C14230   7.623  10.490   2.193  0.2743  0.4071  0.2106
  106MOL0     C14231   7.501  10.446   2.243 -0.0137 -0.8456 -1.1889
  106MOL0     C14232   7.407  10.382   2.158 -0.4517  0.5768 -0.2076
  106MOL0     C14233   7.437  10.343   2.029  0.3200  0.7186 -0.2937
  106MOL0     O14234   7.362  10.255   1.959  0.4389 -0.7753 -0.3165
  106MOL0     C14235   7.265  10.180   2.032  0.5969 -0.1159 -0.0859
  106MOL0     C14236   7.218  10.090   1.911  0.5692  0.6819  0.3004
  106MOL0     C14237   7.111   9.993   1.972  0.3522 -0.1505  0.3655
  106MOL0     C14238   7.021   9.912   1.879  0.2302 -0.2324  0.8509
  106MOL0     C14239   6.915   9.838   1.959  0.2261  0.4352 -0.2794
  106MOL0     C14240   6.829   9.805   2.040  0.2342 -0.8999  0.2597
  106MOL0     C14241   7.553  10.395   1.973 -0.9172  0.0452  0.1405
  106MOL0     C14242   7.654  10.456   2.058 -0.5429  0.6933 -0.5531
  106MOL0     H14243   8.070  10.389   2.275  0.6507 -0.7059  2.1231
  106MOL0     H14244   8.266  10.496   2.386  0.4088  2.2848  1.5825
  106MOL0     H14245   8.491  10.728   2.472 -2.5827 -0.5309  0.8332
  106MOL0     H14246   8.420  10.677   2.316  2.3989 -2.3032  0.7743
  106MOL0     H14247   8.415  10.937   2.263 -0.6652  1.2325  0.7445
  106MOL0     H14248   8.483  10.954   2.422 -1.9208 -0.9687  0.4747
  106MOL0     H14249   8.687  10.857   2.372 -0.7105  3.1631  0.6673
  106MOL0     H14250   8.611  10.751   2.260 -2.0078 -0.4965  1.8822
  106MOL0     H14251   8.584  10.970   2.103  0.3491 -1.7816  0.1042
  106MOL0     H14252   8.695  11.059   2.212 -2.2059 -0.4857  2.0060
  106MOL0     H14253   8.773  10.809   2.079 -1.1128  1.3280  0.6433
  106MOL0     H14254   8.798  10.976   2.015  3.3627  0.7058  0.1093
  106MOL0     H14255   8.945  11.042   2.188  1.1772  0.1013 -0.9522
  106MOL0     H14256   8.899  10.901   2.289  1.8471  1.1293  1.2689
  106MOL0     H14257   9.053  10.873   2.033 -0.0588  1.3013  0.2372
  106MOL0     H14258   9.125  10.892   2.190 -0.3794  0.2553  0.9635
  106MOL0     H14259   8.971  10.664   2.092 -1.2244 -0.4297  1.3669
  106MOL0     H14260   8.993  10.690   2.268  1.2412  0.8364 -0.0684
  106MOL0     H14261   9.274  10.684   2.351  2.0130  0.2233 -0.4226
  106MOL0     H14262   9.585  10.648   2.199 -0.6873  0.7610  0.0428
  106MOL0     H14263   9.510  10.573   2.348 -0.8546 -2.7121 -0.4889
  106MOL0     H14264   9.663  10.407   2.210  0.4691  0.7564 -0.2216
  106MOL0     H14265   9.544  10.414   2.082  2.3973 -0.5121  0.7969
  106MOL0     H14266   9.371  10.333   2.196  0.1754 -0.1336 -0.8731
  106MOL0     H14267   9.437  10.317   2.347  2.8465 -1.9269  1.1693
  106MOL0     H14268   9.544  10.152   2.106 -1.6650 -1.3086  0.7949
  106MOL0     H14269   9.430  10.111   2.228 -0.1386 -0.1032  0.6758
  106MOL0     H14270   9.510   9.909   2.225 -1.1957 -1.7992  1.7539
  106MOL0     H14271   9.546   9.611   2.260 -0.1654 -0.6930 -0.0996
  106MOL0     H14272   9.501   9.691   2.108 -1.8740  1.9403  2.5385
  106MOL0     H14273   9.649   9.609   2.110  0.3665  1.1744 -1.1724
  106MOL0     H14274  10.259   9.674   2.426  0.4348  0.3521  0.3507
  106MOL0     H14275  10.418   9.480   2.427 -0.1630  0.8849  0.0827
  106MOL0     H14276  10.360   9.084   2.240 -0.0103  0.4827  0.2078
  106MOL0     H14277  10.456   9.204   2.141 -0.7363  0.1733 -0.3111
  106MOL0     H14278  10.640   9.176   2.311 -2.3791  2.1436  2.8468
  106MOL0     H14279  10.549   9.042   2.381  0.3468 -0.0926  1.0007
  106MOL0     H14280  10.724   8.965   2.247  0.8164  2.0704 -0.2037
  106MOL0     H14281  10.673   9.051   2.106  2.6596  0.2723  1.4341
  106MOL0     H14282  10.465   8.899   2.110  0.1734  1.4780 -0.2579
  106MOL0     H14283  10.627   8.816   2.089 -1.6582 -2.9488  2.0803
  106MOL0     H14284  10.571   8.806   2.364  1.7338  2.6063 -0.8634
  106MOL0     H14285  10.613   8.681   2.244  1.1411  2.1712 -4.9894
  106MOL0     H14286  10.414   8.641   2.359  0.2845  2.9191  1.5889
  106MOL0     H14287  10.325   8.772   2.292 -1.5609 -3.0329  1.9081
  106MOL0     H14288  10.432   8.540   2.132 -1.8650 -1.0772 -0.8743
  106MOL0     H14289  10.374   8.701   2.060 -0.0382  1.3561  0.5267
  106MOL0     H14290  10.207   8.507   2.068  3.5551 -0.5801  0.1158
  106MOL0     H14291  10.154   8.664   2.151  2.5154  2.7609  0.9607
  106MOL0     H14292  10.183   9.257   2.155  0.3888  0.8589 -2.0434
  106MOL0     H14293  10.021   9.453   2.135 -0.0718  3.8239  1.1349
  106MOL0     H14294   9.984   9.904   2.321  0.6947 -0.0772 -0.2780
  106MOL0     H14295   9.862  10.104   2.358  0.3997 -0.5799  1.0246
  106MOL0     H14296   8.070  10.879   2.421 -1.0525  0.0028  2.7116
  106MOL0     H14297   7.874  10.781   2.343 -1.3671 -1.3216  0.0674
  106MOL0     H14298   7.464  10.480   2.339  2.2540 -1.9290  0.1258
  106MOL0     H14299   7.310  10.358   2.201  0.7192 -4.4018  0.2242
  106MOL0     H14300   7.296  10.116   2.115 -1.1274  0.5239  1.1195
  106MOL0     H14301   7.189  10.248   2.073  3.1160  3.1921 -0.4997
  106MOL0     H14302   7.300  10.033   1.867  0.7631  0.3109  1.1246
  106MOL0     H14303   7.171  10.150   1.833 -2.1849 -3.6176 -1.7332
  106MOL0     H14304   7.042  10.052   2.033 -0.0125  0.9333 -1.0461
  106MOL0     H14305   7.172   9.917   2.022 -0.2539 -0.3627  0.7929
  106MOL0     H14306   7.077   9.838   1.822 -1.3858 -2.0096  1.4387
  106MOL0     H14307   6.976   9.978   1.804 -0.9823  0.4742  2.1260
  106MOL0     H14308   6.751   9.794   2.112  0.9761 -0.8309  1.0898
  106MOL0     H14309   7.572  10.369   1.870 -3.2069 -2.3032  0.2124
  106MOL0     H14310   7.751  10.476   2.016 -0.9783  0.2144 -1.8377
  107MOL0     O14311  10.279   3.003  10.095  0.3057 -0.1052  0.8086
  107MOL0     C14312  10.175   2.980  10.157 -0.5591  0.2202 -0.3605
  107MOL0     O14313  10.175   2.982  10.304 -0.1170  0.3379  0.2440
  107MOL0     C14314  10.292   3.023  10.364 -0.8539  1.0150  0.1476
  107MOL0     C14315  10.392   2.932  10.386  0.6952 -0.5212  0.9139
  107MOL0     C14316  10.516   2.967  10.423 -1.1214 -0.5427 -0.0521
  107MOL0     C14317  10.557   3.096  10.454 -0.7525  0.6004 -0.0837
  107MOL0     O14318  10.685   3.122  10.503 -0.0869 -0.0817  1.2228
  107MOL0     C14319  10.716   3.257  10.540 -0.2385  0.9235  0.7125
  107MOL0     C14320  10.870   3.272  10.564 -0.1494 -0.7387 -1.1180
  107MOL0     C14321  10.893   3.229  10.710 -0.6997 -0.0722 -0.0595
  107MOL0     C14322  11.032   3.289  10.755 -0.6581  0.5117 -0.4969
  107MOL0     C14323  11.155   3.215  10.702  0.3796  0.0592 -0.2123
  107MOL0     C14324  11.293   3.286  10.727  0.0244  0.5136 -0.5450
  107MOL0     C14325  11.420   3.213  10.683  0.0290 -0.7263 -0.9763
  107MOL0     C14326  11.420   3.074  10.745  0.1772 -0.5095 -0.0943
  107MOL0     N14327  11.549   3.011  10.709 -0.0319  0.7540 -0.8894
  107MOL0     C14328  11.673   3.068  10.756 -0.5126 -0.3895  0.8843
  107MOL0     C14329  11.762   2.989  10.697 -0.1295  0.5353  0.3620
  107MOL0     C14330  11.908   3.011  10.698 -0.3902 -0.7666 -0.1902
  107MOL0     C14331  11.948   3.094  10.571  0.1858 -0.7563 -0.2072
  107MOL0     C14332  11.966   2.995  10.449  0.2120  0.8908 -0.2614
  107MOL0     C14333  11.977   3.068  10.320  0.8800 -0.5328 -0.8280
  107MOL0     O14334  11.861   3.148  10.307  0.1398  0.7585 -0.7321
  107MOL0     C14335  11.748   3.084  10.263  0.4617  0.9657 -0.2296
  107MOL0     C14336  11.726   3.048  10.133  0.5413  0.2978 -0.2519
  107MOL0     C14337  11.589   3.004  10.098  0.4255  0.2161  0.0126
  107MOL0     C14338  11.570   2.975   9.951  0.4677 -0.1130  0.2135
  107MOL0     C14339  11.482   2.984  10.185  0.1456  0.4322  0.4787
  107MOL0     C14340  11.347   2.945  10.153 -0.8886 -0.0958 -0.1468
  107MOL0     O14341  11.261   2.931  10.260  0.5521 -0.6482  0.0053
  107MOL0     C14342  11.128   2.894  10.239 -0.1750 -0.1391  1.0366
  107MOL0     C14343  11.032   2.943  10.320 -0.4688 -0.2067  0.9549
  107MOL0     C14344  10.897   2.929  10.295 -0.7151 -0.2083 -0.4259
  107MOL0     C14345  10.854   2.827  10.208 -0.2720 -1.0097  0.4279
  107MOL0     O14346  10.720   2.822  10.186 -0.7889  0.0489 -0.0216
  107MOL0     C14347  10.672   2.786  10.057  1.1526  0.3248  0.6143
  107MOL0     C14348  10.514   2.788  10.055 -0.2652  0.3320  0.2011
  107MOL0     C14349  10.464   2.684   9.957  0.5898  0.8157 -0.1880
  107MOL0     C14350  10.311   2.657   9.976 -0.0878  1.1336 -0.5303
  107MOL0     C14351  10.280   2.586  10.104  0.4238  0.6793 -0.7418
  107MOL0     C14352  10.129   2.550  10.135 -0.0212 -0.5863  0.2195
  107MOL0     C14353  10.094   2.552  10.287 -0.6676  0.0281 -0.2384
  107MOL0     C14354  10.130   2.419  10.352 -0.0142  0.2689  0.2487
  107MOL0    Cl14355  10.294   2.397  10.376 -0.0300  0.1450  0.1059
  107MOL0     C14356  10.949   2.758  10.130 -0.9059  0.6055  1.5248
  107MOL0     C14357  11.087   2.784  10.144  0.5891  0.4310  0.7860
  107MOL0     O14358  11.313   2.927  10.037 -1.0667 -0.7388  0.2641
  107MOL0     C14359  11.510   3.016  10.317 -0.0056 -0.7634 -0.0575
  107MOL0     C14360  11.639   3.079  10.350 -0.7031  0.5535 -0.1946
  107MOL0     N14361  11.701   2.886  10.628  0.1265 -0.5935 -0.4462
  107MOL0     N14362  11.575   2.907  10.630  0.0080  0.5803 -0.3020
  107MOL0     C14363  10.458   3.192  10.417  0.4004 -0.4427 -0.5479
  107MOL0     C14364  10.332   3.152  10.369  0.4710 -0.2622  0.4437
  107MOL0     C14365  10.055   2.941  10.092  0.6771 -0.6521  0.1408
  107MOL0     C14366   9.942   2.910  10.162  0.2252 -0.2427  0.2676
  107MOL0     C14367   9.826   2.867  10.099  0.3981  1.0408  0.3630
  107MOL0     C14368   9.815   2.861   9.957 -0.8155  0.2557 -0.5740
  107MOL0     O14369   9.697   2.806   9.908 -0.5325  0.4208  0.5402
  107MOL0     C14370   9.630   2.869   9.800 -0.5885 -0.2050 -0.4032
  107MOL0     C14371   9.503   2.789   9.745 -0.8705 -0.0533  1.0089
  107MOL0     C14372   9.420   2.733   9.853  0.0214  0.8118 -0.1163
  107MOL0     C14373   9.336   2.845   9.914 -0.3492  0.0084  0.3443
  107MOL0     C14374   9.223   2.889   9.826  0.4726 -0.4466  0.2241
  107MOL0     C14375   9.150   2.946   9.750 -0.1601 -0.1641 -0.2513
  107MOL0     C14376   9.932   2.891   9.889 -1.1602 -0.7441  0.0198
  107MOL0     C14377  10.054   2.931   9.951  0.6526 -0.2132  0.1138
  107MOL0     H14378  10.364   2.829  10.366  0.6246 -0.6929  1.8557
  107MOL0     H14379  10.605   2.905  10.432 -0.4377  0.6995  2.6970
  107MOL0     H14380  10.693   3.325  10.457  1.2185 -1.3643 -1.7027
  107MOL0     H14381  10.654   3.299  10.620 -2.5043 -0.1057 -0.4094
  107MOL0     H14382  10.928   3.215  10.491 -2.1300 -0.8394 -2.6889
  107MOL0     H14383  10.898   3.377  10.547 -3.1735  0.6605  1.3461
  107MOL0     H14384  10.814   3.254  10.782 -0.1974 -1.1871  0.9057
  107MOL0     H14385  10.899   3.120  10.708 -1.2592 -0.3182  3.8335
  107MOL0     H14386  11.041   3.392  10.718 -2.3088  0.4535 -1.1568
  107MOL0     H14387  11.018   3.306  10.862 -1.0443 -0.1984 -0.4279
  107MOL0     H14388  11.143   3.111  10.735 -1.8637  0.4630  0.3895
  107MOL0     H14389  11.136   3.218  10.595 -2.2632  3.1055  0.1871
  107MOL0     H14390  11.307   3.385  10.683  0.2085  0.6848 -0.1126
  107MOL0     H14391  11.309   3.296  10.835 -0.6769 -0.3436 -0.3474
  107MOL0     H14392  11.436   3.207  10.575  2.2068 -0.8029 -0.6863
  107MOL0     H14393  11.501   3.278  10.716 -0.0963 -1.8053  1.7535
  107MOL0     H14394  11.355   3.011  10.683 -0.8674 -0.3039  0.7542
  107MOL0     H14395  11.393   3.069  10.851  0.1644 -3.1222 -0.1436
  107MOL0     H14396  11.687   3.156  10.818  2.3423 -0.2161  0.1374
  107MOL0     H14397  11.927   3.088  10.773  2.6709 -1.2381 -0.3791
  107MOL0     H14398  11.966   2.921  10.717  1.5359  0.7424  1.4597
  107MOL0     H14399  12.049   3.136  10.583  0.8895 -1.9151 -1.6585
  107MOL0     H14400  11.887   3.183  10.557  1.0478  0.0824  1.1240
  107MOL0     H14401  11.887   2.920  10.455  1.6002 -0.5684  0.6864
  107MOL0     H14402  12.053   2.930  10.465 -1.8811 -2.5310 -1.7319
  107MOL0     H14403  12.000   3.003  10.236 -1.9618 -0.2418 -1.9233
  107MOL0     H14404  12.055   3.145  10.320  0.7086 -0.3138  0.7947
  107MOL0     H14405  11.794   3.080  10.055  1.2450  2.0986  1.0241
  107MOL0     H14406  11.542   2.870   9.936  1.7832 -0.6392  1.3113
  107MOL0     H14407  11.493   3.044   9.916  1.6015  0.8179 -0.5255
  107MOL0     H14408  11.660   3.000   9.895  0.3133  2.5652  1.0285
  107MOL0     H14409  11.066   3.024  10.384  3.4190  0.2189 -1.3592
  107MOL0     H14410  10.821   2.993  10.339 -1.6573 -1.8594  0.4398
  107MOL0     H14411  10.713   2.841   9.971  0.4496  0.4345  0.3389
  107MOL0     H14412  10.696   2.679  10.048 -1.2593 -0.0752 -3.7314
  107MOL0     H14413  10.477   2.767  10.156  1.4422 -1.7965  0.4631
  107MOL0     H14414  10.489   2.893  10.036  0.0291  0.6386  1.3886
  107MOL0     H14415  10.519   2.590   9.972  1.0358  0.5471 -3.0509
  107MOL0     H14416  10.484   2.720   9.856  1.9737  2.9803  0.7717
  107MOL0     H14417  10.275   2.760   9.980  2.4266  2.0322  0.3134
  107MOL0     H14418  10.277   2.591   9.895  1.2428  1.2930 -1.2396
  107MOL0     H14419  10.308   2.648  10.189 -1.6818 -0.4861  0.9161
  107MOL0     H14420  10.337   2.493  10.116  1.4943  1.2103 -1.5549
  107MOL0     H14421  10.064   2.617  10.080  1.8468  2.3870  1.3761
  107MOL0     H14422  10.099   2.453  10.094  0.8178 -0.5452 -0.5074
  107MOL0     H14423   9.993   2.585  10.314 -0.8951 -0.1206 -0.8915
  107MOL0     H14424  10.159   2.628  10.330  2.1568 -1.0149 -2.3805
  107MOL0     H14425  10.089   2.341  10.287 -0.1705 -0.1447  0.8422
  107MOL0     H14426  10.088   2.409  10.452 -4.0629  0.2863 -1.2554
  107MOL0     H14427  10.921   2.682  10.058 -1.8474  2.1537  0.1574
  107MOL0     H14428  11.144   2.737  10.065 -0.5143  2.6007 -1.4672
  107MOL0     H14429  11.437   3.003  10.396 -0.8793  0.5645 -0.6115
  107MOL0     H14430  11.651   3.107  10.454  0.2359  0.1411 -0.1836
  107MOL0     H14431  10.473   3.299  10.425 -0.3655 -0.3672 -0.0574
  107MOL0     H14432  10.253   3.215  10.330 -1.8567 -1.9768  2.1422
  107MOL0     H14433   9.945   2.941  10.266  2.4821  3.6146 -0.7304
  107MOL0     H14434   9.733   2.863  10.155 -1.9519  4.7468 -2.7973
  107MOL0     H14435   9.594   2.968   9.828 -2.0532 -1.6880  3.6536
  107MOL0     H14436   9.711   2.874   9.726  0.3888  0.8548  0.6901
  107MOL0     H14437   9.537   2.712   9.676 -1.3681 -0.6122  1.3805
  107MOL0     H14438   9.439   2.857   9.688  1.8543  0.4403 -1.7559
  107MOL0     H14439   9.481   2.682   9.928  0.4477  1.3235 -0.1095
  107MOL0     H14440   9.352   2.664   9.802  2.1540  0.7767 -3.2571
  107MOL0     H14441   9.391   2.931   9.953 -0.1338 -2.0690  5.2266
  107MOL0     H14442   9.288   2.806  10.004  1.6292  0.3643  1.5943
  107MOL0     H14443   9.067   2.988   9.698 -0.1164  0.2780  0.0310
  107MOL0     H14444   9.940   2.887   9.781 -0.1991  1.4195 -0.0297
  107MOL0     H14445  10.140   2.955   9.889 -1.3897 -1.3829 -3.4768
  108MOL0     O14446   8.786   4.320   9.614  0.0740  0.6668 -0.6846
  108MOL0     C14447   8.728   4.390   9.698  0.4113 -0.0809 -0.0618
  108MOL0     O14448   8.665   4.507   9.667  0.6529  0.1848 -1.0930
  108MOL0     C14449   8.665   4.551   9.540  0.0613 -1.0629  0.2228
  108MOL0     C14450   8.546   4.626   9.495 -0.7317 -0.0961 -0.5324
  108MOL0     C14451   8.549   4.693   9.368  0.8950 -0.8214  0.1421
  108MOL0     C14452   8.656   4.677   9.282  0.8838 -0.1303 -0.0025
  108MOL0     O14453   8.658   4.740   9.160 -0.0092 -0.1994  0.3930
  108MOL0     C14454   8.700   4.869   9.176 -0.3216 -0.9586  0.0737
  108MOL0     C14455   8.664   4.953   9.056  0.8156  0.5128 -0.3266
  108MOL0     C14456   8.710   4.891   8.922 -0.2587  0.4328 -0.8066
  108MOL0     C14457   8.861   4.837   8.921  0.8184  0.7707  0.1526
  108MOL0     C14458   8.900   4.795   8.779  0.6626 -0.3856  0.2199
  108MOL0     C14459   9.042   4.740   8.782  0.2930 -0.9913 -0.1923
  108MOL0     C14460   9.066   4.592   8.812 -0.1038 -0.1782 -0.1592
  108MOL0     C14461   9.030   4.500   8.695 -0.1474  0.6150 -0.6012
  108MOL0     N14462   9.135   4.474   8.595  1.0582 -0.1101 -0.0513
  108MOL0     C14463   9.203   4.565   8.514  0.5621 -0.5272  0.1336
  108MOL0     C14464   9.302   4.497   8.451 -0.6264 -0.0248  0.0331
  108MOL0     C14465   9.413   4.549   8.364  0.5044  0.5140  0.8663
  108MOL0     C14466   9.538   4.459   8.338  0.3771  0.5080 -0.4865
  108MOL0     C14467   9.652   4.528   8.268  0.1149 -0.3220 -0.1687
  108MOL0     C14468   9.721   4.627   8.360 -0.8617 -0.4660  0.8679
  108MOL0     O14469   9.853   4.652   8.310  0.1047  0.4499  0.4455
  108MOL0     C14470   9.885   4.780   8.279 -0.1601 -0.7427 -0.0969
  108MOL0     C14471  10.015   4.811   8.303  0.5862 -0.6504  0.1703
  108MOL0     C14472  10.073   4.928   8.267 -0.3313  0.0240  0.3205
  108MOL0     C14473  10.209   4.958   8.312  0.0947 -0.7640 -0.5699
  108MOL0     C14474   9.992   5.033   8.215  0.2920 -0.3219  0.2879
  108MOL0     C14475  10.029   5.174   8.180 -0.7541  0.7607  0.6312
  108MOL0     O14476   9.920   5.262   8.178  0.9852 -0.9161 -0.1095
  108MOL0     C14477   9.938   5.398   8.172  0.2887  0.1028  0.8978
  108MOL0     C14478  10.054   5.461   8.224  0.1239  0.9296 -0.2796
  108MOL0     C14479  10.070   5.598   8.220 -0.2998  0.4608 -0.5012
  108MOL0     C14480   9.970   5.676   8.162  0.3879  0.8124  0.7413
  108MOL0     O14481   9.962   5.813   8.158 -0.1272 -0.0700  0.0467
  108MOL0     C14482  10.072   5.897   8.200  0.2435 -0.3079  0.0818
  108MOL0     C14483  10.044   6.020   8.122  0.4243 -0.4297 -0.1053
  108MOL0     C14484  10.140   6.128   8.179 -0.7076 -0.2917  0.2049
  108MOL0     C14485  10.100   6.264   8.123 -0.6962  0.4446 -0.1867
  108MOL0     C14486  10.218   6.360   8.129  0.3305  0.1444 -0.8320
  108MOL0     C14487  10.161   6.495   8.091 -0.5723  0.2407  0.3305
  108MOL0     C14488  10.290   6.584   8.079  0.2041 -0.3414 -0.5244
  108MOL0     C14489  10.240   6.727   8.058  0.6107 -0.4064 -0.1307
  108MOL0    Cl14490  10.376   6.855   8.095 -0.2570  0.5490 -0.2500
  108MOL0     C14491   9.860   5.609   8.108 -0.3950  0.5377 -0.2667
  108MOL0     C14492   9.844   5.468   8.106 -0.3189 -0.3799  0.1542
  108MOL0     O14493  10.138   5.199   8.129 -0.5019  0.8101  0.5295
  108MOL0     C14494   9.854   4.999   8.186  0.4049 -0.1620 -1.1634
  108MOL0     C14495   9.806   4.870   8.219  0.0350 -0.6864  0.0441
  108MOL0     N14496   9.285   4.358   8.485 -0.3410  0.1956 -0.7201
  108MOL0     N14497   9.187   4.346   8.574 -0.4131 -0.4601 -0.1185
  108MOL0     C14498   8.767   4.599   9.320 -0.7188  0.7811 -0.0633
  108MOL0     C14499   8.772   4.538   9.445 -0.8242 -0.3363 -0.1284
  108MOL0     C14500   8.722   4.329   9.838 -0.1821  0.3817  0.3045
  108MOL0     C14501   8.773   4.205   9.872  0.4115 -0.4668  0.2873
  108MOL0     C14502   8.780   4.161  10.002  0.6435 -0.0108 -0.0515
  108MOL0     C14503   8.741   4.246  10.106  0.2378  0.5143  0.2057
  108MOL0     O14504   8.764   4.221  10.238  0.2193 -0.0783 -0.3676
  108MOL0     C14505   8.824   4.106  10.294  0.0123  0.4149  0.0390
  108MOL0     C14506   8.778   4.078  10.438  0.2682  0.2694  0.3004
  108MOL0     C14507   8.866   3.985  10.517  0.2626 -0.5412  0.1446
  108MOL0     C14508   8.785   3.895  10.626 -0.1659 -0.5336  0.5877
  108MOL0     C14509   8.681   3.961  10.706 -0.5102 -0.4194  0.2093
  108MOL0     C14510   8.602   4.024  10.775  0.1992  0.3305 -0.8800
  108MOL0     C14511   8.683   4.364  10.075  0.0542 -0.9645 -0.6264
  108MOL0     C14512   8.666   4.409   9.947  0.2576 -0.9426 -0.1839
  108MOL0     H14513   8.464   4.659   9.559  1.6131  3.0992  1.0957
  108MOL0     H14514   8.477   4.768   9.339  0.5565 -1.5035 -0.8690
  108MOL0     H14515   8.642   4.924   9.252 -0.8931 -1.0418 -0.2944
  108MOL0     H14516   8.809   4.877   9.176 -0.3987  1.4107 -2.5032
  108MOL0     H14517   8.555   4.962   9.059  0.4691 -2.5763 -0.1989
  108MOL0     H14518   8.706   5.052   9.075 -1.5003  1.1396  2.2094
  108MOL0     H14519   8.635   4.819   8.890 -1.0245 -0.2992  2.3255
  108MOL0     H14520   8.711   4.972   8.849 -1.5005 -0.3618 -1.7488
  108MOL0     H14521   8.931   4.918   8.941  1.5612  0.2302 -0.2015
  108MOL0     H14522   8.875   4.757   8.994 -1.2681  0.8733  0.7303
  108MOL0     H14523   8.831   4.713   8.754 -2.2142  1.4870  1.4647
  108MOL0     H14524   8.893   4.880   8.711 -1.3826 -2.1232 -1.9257
  108MOL0     H14525   9.085   4.759   8.683  0.1829  2.3968  0.2746
  108MOL0     H14526   9.105   4.803   8.846  1.5710 -1.6170 -0.7832
  108MOL0     H14527   9.167   4.569   8.846 -0.6351 -0.8129  1.0294
  108MOL0     H14528   9.007   4.569   8.901  1.1358  0.6879  0.9189
  108MOL0     H14529   8.937   4.541   8.653 -1.6451 -0.2155  1.7066
  108MOL0     H14530   9.009   4.403   8.739 -0.8798  1.1178  0.1916
  108MOL0     H14531   9.184   4.672   8.507  0.5471 -0.6276 -3.0747
  108MOL0     H14532   9.365   4.584   8.272 -0.2042  2.2448  1.8535
  108MOL0     H14533   9.452   4.641   8.409 -1.5601  1.4432  0.8279
  108MOL0     H14534   9.511   4.368   8.285  0.6883  0.0819  0.0649
  108MOL0     H14535   9.567   4.432   8.441 -1.8621  0.8636  0.2967
  108MOL0     H14536   9.615   4.576   8.177 -0.4062 -2.0928 -0.9256
  108MOL0     H14537   9.723   4.454   8.229 -0.4222 -0.4817 -0.8581
  108MOL0     H14538   9.720   4.586   8.462  1.6636  2.1707  2.1028
  108MOL0     H14539   9.661   4.719   8.359 -1.1240 -0.3522 -4.8130
  108MOL0     H14540  10.075   4.733   8.349 -1.4549 -1.9700  0.7185
  108MOL0     H14541  10.289   4.963   8.237  2.9327 -0.7695  2.2770
  108MOL0     H14542  10.217   5.062   8.347  0.6710 -0.3586 -1.8255
  108MOL0     H14543  10.235   4.888   8.391  2.1720 -0.1864 -0.6869
  108MOL0     H14544  10.122   5.390   8.272 -0.2428 -2.2881 -4.0443
  108MOL0     H14545  10.157   5.643   8.267 -0.5323  0.6469 -0.2540
  108MOL0     H14546  10.069   5.910   8.309 -0.6302  0.4057 -0.0147
  108MOL0     H14547  10.171   5.859   8.171  1.5969  0.4245  3.2432
  108MOL0     H14548  10.071   6.008   8.016 -0.4986 -4.2185 -0.0708
  108MOL0     H14549   9.939   6.049   8.131 -0.2508 -2.9809  1.5468
  108MOL0     H14550  10.241   6.110   8.140 -2.1153  0.5969 -4.5572
  108MOL0     H14551  10.141   6.119   8.288  0.1790  1.4393  0.3650
  108MOL0     H14552  10.072   6.256   8.018  1.8549 -0.3275 -0.9011
  108MOL0     H14553  10.007   6.311   8.155 -1.1637 -0.0329 -0.8175
  108MOL0     H14554  10.297   6.315   8.069  2.8797 -0.9085  2.9393
  108MOL0     H14555  10.254   6.366   8.232  0.0260  0.6050 -0.7454
  108MOL0     H14556  10.118   6.476   7.992  0.0114 -1.8281  0.4332
  108MOL0     H14557  10.084   6.537   8.157  0.1047 -0.1008  1.3497
  108MOL0     H14558  10.362   6.554   8.002  0.2737  0.6594 -0.8606
  108MOL0     H14559  10.333   6.573   8.179 -0.3099 -4.2984 -0.5705
  108MOL0     H14560  10.159   6.761   8.124 -1.5713  2.1129 -3.7528
  108MOL0     H14561  10.200   6.745   7.958  0.0539  2.6145  0.5393
  108MOL0     H14562   9.782   5.673   8.068 -0.1351  0.1594 -1.4167
  108MOL0     H14563   9.752   5.423   8.070 -0.0696 -1.1053  0.4130
  108MOL0     H14564   9.796   5.078   8.139 -0.7217  2.2502  3.6445
  108MOL0     H14565   9.706   4.839   8.186  0.3656 -1.2617 -0.4551
  108MOL0     H14566   8.857   4.599   9.259  1.1527 -0.5093  2.5095
  108MOL0     H14567   8.864   4.487   9.474  0.4316  1.5162 -0.7107
  108MOL0     H14568   8.817   4.128   9.810 -1.3304 -0.5419 -0.9269
  108MOL0     H14569   8.828   4.066  10.022  4.7685  1.6688 -0.9331
  108MOL0     H14570   8.812   4.017  10.231  4.2118 -1.4420  1.4798
  108MOL0     H14571   8.933   4.117  10.291 -0.0788  1.8673  1.2495
  108MOL0     H14572   8.676   4.039  10.433 -0.8480  2.6842  2.1149
  108MOL0     H14573   8.781   4.171  10.496  0.6777  0.9034 -0.7222
  108MOL0     H14574   8.943   4.042  10.570  1.8851 -2.1828 -0.3461
  108MOL0     H14575   8.927   3.919  10.454  0.2928 -0.4657  0.0961
  108MOL0     H14576   8.850   3.827  10.682  1.0547  0.9516  1.0297
  108MOL0     H14577   8.732   3.830  10.555 -1.0760  1.3047 -0.4621
  108MOL0     H14578   8.544   4.066  10.855  1.9514 -2.0043  1.7962
  108MOL0     H14579   8.664   4.430  10.159  3.2183 -0.7680  0.0788
  108MOL0     H14580   8.635   4.512   9.934 -0.3087 -1.1095 -0.1752
  109MOL0     O14581   6.141   0.941  11.080 -0.0082  0.0406 -0.6143
  109MOL0     C14582   6.168   1.053  11.125 -0.8286 -0.3619 -1.3500
  109MOL0     O14583   6.266   1.137  11.089  0.6700 -0.1158  0.6581
  109MOL0     C14584   6.391   1.088  11.050 -0.2906  0.1075 -0.4644
  109MOL0     C14585   6.444   0.970  11.105  0.0088 -0.2084  0.0861
  109MOL0     C14586   6.571   0.924  11.062 -0.0517 -0.9564  0.4578
  109MOL0     C14587   6.643   1.003  10.969  0.0821  0.3118 -0.6778
  109MOL0     O14588   6.763   0.971  10.917  0.1356 -0.2144  0.0193
  109MOL0     C14589   6.861   0.918  11.007  0.0295 -0.3165  0.0558
  109MOL0     C14590   6.995   0.937  10.947 -0.1110 -0.4860  0.6560
  109MOL0     C14591   7.022   0.836  10.830  0.4301 -0.5457  0.0653
  109MOL0     C14592   7.144   0.896  10.754  1.0956  0.7957 -0.9101
  109MOL0     C14593   7.275   0.864  10.817 -0.0481  0.9298  0.6810
  109MOL0     C14594   7.396   0.885  10.713 -0.2685 -0.0894  0.4365
  109MOL0     C14595   7.529   0.823  10.770 -1.0723  0.3974  0.4880
  109MOL0     C14596   7.638   0.855  10.670  0.5775 -0.3340  0.2477
  109MOL0     N14597   7.615   0.788  10.542  0.1451  0.7780  1.0462
  109MOL0     C14598   7.593   0.651  10.532 -0.6034 -0.7063 -0.1955
  109MOL0     C14599   7.601   0.639  10.397 -0.4509 -0.2394  0.4552
  109MOL0     C14600   7.594   0.505  10.333 -0.6579 -0.1099  0.0674
  109MOL0     C14601   7.735   0.438  10.356  0.4764 -0.1247  0.3011
  109MOL0     C14602   7.747   0.304  10.283  0.3748 -0.0002  0.1192
  109MOL0     C14603   7.888   0.249  10.293 -0.4055  0.0315 -0.1430
  109MOL0     O14604   7.960   0.327  10.195  0.5065 -0.1562  0.9301
  109MOL0     C14605   8.093   0.315  10.210  0.4766  0.0566  0.9502
  109MOL0     C14606   8.170   0.196  10.240 -0.1393 -0.3176  0.7923
  109MOL0     C14607   8.315   0.201  10.259  0.1156 -0.9895 -0.4580
  109MOL0     C14608   8.385   0.064  10.282 -0.8480  1.3266 -0.2506
  109MOL0     C14609   8.377   0.330  10.248  0.3742  1.0623  0.7677
  109MOL0     C14610   8.517   0.360  10.286 -0.0904  0.9630  0.4383
  109MOL0     O14611   8.574   0.485  10.250  0.2401 -0.0213 -0.2105
  109MOL0     C14612   8.707   0.518  10.275 -0.2976 -0.2697  0.5010
  109MOL0     C14613   8.823   0.487  10.184  0.0609  0.3203 -1.2736
  109MOL0     C14614   8.945   0.539  10.226 -0.5174 -0.6676  0.0034
  109MOL0     C14615   8.971   0.597  10.353  0.8618 -0.4245  0.3215
  109MOL0     O14616   9.099   0.625  10.399 -0.0344 -0.0350  0.0352
  109MOL0     C14617   9.105   0.766  10.442 -0.5730  0.1274  0.1830
  109MOL0     C14618   9.189   0.840  10.331 -0.9230 -0.0381  0.0860
  109MOL0     C14619   9.195   0.990  10.347 -0.0865 -0.5276 -0.1237
  109MOL0     C14620   9.262   1.045  10.476  0.7445 -0.1945 -0.8976
  109MOL0     C14621   9.274   1.202  10.469 -0.1952  0.7740 -0.3402
  109MOL0     C14622   9.343   1.267  10.353 -0.7473  0.6868  0.1635
  109MOL0     C14623   9.342   1.420  10.372 -0.5979  0.5999  0.8363
  109MOL0     C14624   9.465   1.469  10.459  0.2162 -1.2449 -0.7237
  109MOL0    Cl14625   9.434   1.647  10.463 -0.1882 -0.2516 -0.5395
  109MOL0     C14626   8.865   0.620  10.436 -0.5547  0.3109  0.1841
  109MOL0     C14627   8.740   0.584  10.395  0.6346 -0.8896  0.3984
  109MOL0     O14628   8.572   0.280  10.357 -0.6811  0.1421 -0.3312
  109MOL0     C14629   8.296   0.443  10.217  0.9092  0.5083  0.0315
  109MOL0     C14630   8.155   0.433  10.191  1.3283 -0.5361 -0.1051
  109MOL0     N14631   7.611   0.767  10.335 -0.3832  0.4408  0.6920
  109MOL0     N14632   7.627   0.848  10.420 -0.0691  0.0024 -0.5191
  109MOL0     C14633   6.588   1.123  10.926  0.0337  0.5481  0.1440
  109MOL0     C14634   6.463   1.164  10.966  0.1186 -0.4671 -0.0239
  109MOL0     C14635   6.084   1.115  11.224  0.2207 -0.3579 -0.3974
  109MOL0     C14636   5.948   1.071  11.238 -0.5089  0.1914 -0.2662
  109MOL0     C14637   5.859   1.132  11.324 -0.3001 -0.2078  0.0831
  109MOL0     C14638   5.899   1.244  11.394  0.0757 -0.4681  0.0602
  109MOL0     O14639   5.812   1.329  11.460  0.4805  0.4574  1.1145
  109MOL0     C14640   5.676   1.324  11.425  0.0240  0.5707  0.3054
  109MOL0     C14641   5.622   1.461  11.463  0.8974 -0.5805 -0.1559
  109MOL0     C14642   5.685   1.571  11.367  0.3941 -0.0816 -0.3909
  109MOL0     C14643   5.618   1.703  11.374 -0.0424  0.3633 -0.2179
  109MOL0     C14644   5.579   1.751  11.511 -0.4896 -0.8734  0.1179
  109MOL0     C14645   5.566   1.779  11.636  0.1777 -0.2825  0.4643
  109MOL0     C14646   6.038   1.278  11.390  0.2377  0.2749 -0.4602
  109MOL0     C14647   6.119   1.217  11.304 -1.3058 -0.2272 -0.2967
  109MOL0     H14648   6.394   0.911  11.181  0.7287 -1.7812 -0.6319
  109MOL0     H14649   6.601   0.834  11.115  1.5231  0.9706  3.1211
  109MOL0     H14650   6.852   0.959  11.108  2.9487  1.6815 -0.3866
  109MOL0     H14651   6.852   0.809  11.017  0.1546 -0.2735  0.7234
  109MOL0     H14652   6.987   1.036  10.900 -3.4992 -0.2613  1.5153
  109MOL0     H14653   7.073   0.942  11.024  3.4494  3.9097 -2.6617
  109MOL0     H14654   7.042   0.737  10.872  0.4899 -0.0885  1.1596
  109MOL0     H14655   6.944   0.829  10.755  2.9332 -3.0719 -2.6000
  109MOL0     H14656   7.146   0.835  10.663  1.7507 -1.3664  0.4606
  109MOL0     H14657   7.132   1.002  10.730 -2.0814  0.6732 -0.2113
  109MOL0     H14658   7.270   0.919  10.912 -1.9262 -1.6446  2.2136
  109MOL0     H14659   7.282   0.762  10.858  2.1616 -0.0562 -1.8752
  109MOL0     H14660   7.366   0.845  10.616 -1.2269  0.4103  0.5124
  109MOL0     H14661   7.406   0.992  10.693 -0.1105  0.7352  4.1315
  109MOL0     H14662   7.546   0.882  10.861  1.9714  1.2504 -0.5319
  109MOL0     H14663   7.526   0.714  10.786  2.2763 -0.1268 -1.7042
  109MOL0     H14664   7.736   0.840  10.717  1.2154  0.4515 -0.7815
  109MOL0     H14665   7.635   0.964  10.659  0.9624 -0.2685  0.7635
  109MOL0     H14666   7.586   0.567  10.601  0.1865 -0.2118  0.5049
  109MOL0     H14667   7.517   0.455  10.392  0.3324 -1.1778  0.5129
  109MOL0     H14668   7.572   0.507  10.226  0.2436  0.1569 -0.1233
  109MOL0     H14669   7.745   0.417  10.463  1.9825  1.8512  0.6038
  109MOL0     H14670   7.826   0.492  10.329  1.4164 -1.2878  1.0365
  109MOL0     H14671   7.722   0.310  10.176  2.4517 -0.4560 -0.4385
  109MOL0     H14672   7.678   0.235  10.331  0.7042 -0.0702  0.4942
  109MOL0     H14673   7.894   0.144  10.263 -0.8132  0.2429 -0.9897
  109MOL0     H14674   7.923   0.276  10.393  2.8795  0.1957 -1.2397
  109MOL0     H14675   8.122   0.100  10.257 -3.6285  1.0265 -0.5709
  109MOL0     H14676   8.314  -0.018  10.285 -1.4953  1.7191 -2.4439
  109MOL0     H14677   8.467   0.040  10.213 -0.1190  0.9836  0.7178
  109MOL0     H14678   8.420   0.067  10.385 -1.8929 -1.9607  0.3040
  109MOL0     H14679   8.814   0.462  10.079 -3.5382  1.3646 -1.3292
  109MOL0     H14680   9.032   0.532  10.161 -0.3820 -1.7922  0.2868
  109MOL0     H14681   9.005   0.808  10.455 -0.1359  0.6096  2.2280
  109MOL0     H14682   9.160   0.785  10.534  2.7841  1.3106 -1.8842
  109MOL0     H14683   9.291   0.801  10.329 -0.9123  0.0012 -1.1792
  109MOL0     H14684   9.142   0.823  10.233 -0.5331 -1.5792  0.1368
  109MOL0     H14685   9.094   1.026  10.327 -0.5646 -3.0631 -2.9393
  109MOL0     H14686   9.257   1.014  10.261 -0.0335 -2.4550 -0.6785
  109MOL0     H14687   9.202   1.011  10.561 -0.0244 -1.9208 -2.0695
  109MOL0     H14688   9.360   0.997  10.486  0.7921 -0.2912 -1.7816
  109MOL0     H14689   9.339   1.238  10.549  1.1024  1.4276 -1.6380
  109MOL0     H14690   9.179   1.250  10.492  0.7020  1.0782  3.4327
  109MOL0     H14691   9.446   1.230  10.345  1.1568  5.2690  0.1611
  109MOL0     H14692   9.298   1.255  10.254 -0.2618 -1.1724  0.1341
  109MOL0     H14693   9.251   1.470  10.407  0.2744  4.7312 -2.0417
  109MOL0     H14694   9.346   1.460  10.270  1.0815 -4.3240 -1.3359
  109MOL0     H14695   9.567   1.452  10.425  0.6190 -1.3891  0.5015
  109MOL0     H14696   9.459   1.440  10.565  0.9249  2.5585  0.5202
  109MOL0     H14697   8.892   0.653  10.536  1.9110  1.4976 -0.7754
  109MOL0     H14698   8.664   0.608  10.469  0.2524  2.0197 -0.7817
  109MOL0     H14699   8.347   0.538  10.207  1.1506  0.3702 -0.0466
  109MOL0     H14700   8.106   0.520  10.151 -0.4395 -2.0742 -1.4905
  109MOL0     H14701   6.649   1.182  10.859  0.4303  1.8661  1.6096
  109MOL0     H14702   6.416   1.244  10.910  2.7656  0.5203 -1.0279
  109MOL0     H14703   5.921   0.983  11.180  2.1191 -2.3411  2.0370
  109MOL0     H14704   5.758   1.092  11.330 -0.9312  1.5486  3.1212
  109MOL0     H14705   5.664   1.307  11.318  2.2188 -0.5803  0.1653
  109MOL0     H14706   5.617   1.244  11.471 -0.3893 -0.4083 -1.8191
  109MOL0     H14707   5.629   1.481  11.570  0.2619 -1.0955 -0.0148
  109MOL0     H14708   5.514   1.461  11.443  0.3305 -2.3430  2.4556
  109MOL0     H14709   5.700   1.535  11.265  2.7023 -1.5860  0.4063
  109MOL0     H14710   5.788   1.588  11.398 -0.8697  1.8469  3.3550
  109MOL0     H14711   5.529   1.694  11.311 -1.9699  1.7046  2.1639
  109MOL0     H14712   5.683   1.775  11.326 -1.0459  1.2402 -0.2981
  109MOL0     H14713   5.531   1.794  11.737 -0.4530 -2.8517  0.6932
  109MOL0     H14714   6.075   1.353  11.460 -1.0019 -0.2445  0.7811
  109MOL0     H14715   6.218   1.262  11.301 -1.5994  0.4029 -1.0060
  110MOL0     O14716   6.090   7.584  10.095 -0.5838 -0.3696 -0.3632
  110MOL0     C14717   6.016   7.674  10.124 -0.2233 -0.1217  0.2118
  110MOL0     O14718   6.033   7.766  10.222 -1.1989  0.7597 -0.4959
  110MOL0     C14719   6.151   7.759  10.297  0.2406 -0.2012  0.8459
  110MOL0     C14720   6.281   7.746  10.237  0.6133 -0.8076  0.3644
  110MOL0     C14721   6.399   7.728  10.311 -0.3375 -1.0759  0.2975
  110MOL0     C14722   6.387   7.720  10.450  0.3464  0.9133 -0.4421
  110MOL0     O14723   6.497   7.703  10.537 -0.1405 -1.0929  0.6586
  110MOL0     C14724   6.589   7.600  10.500  0.3804  0.2839 -1.1712
  110MOL0     C14725   6.521   7.459  10.489 -0.0475 -0.8846 -0.5492
  110MOL0     C14726   6.485   7.399  10.624  1.4644  0.0836 -0.6576
  110MOL0     C14727   6.598   7.334  10.700 -0.8469 -0.1772  1.4795
  110MOL0     C14728   6.553   7.211  10.781 -0.0122 -0.0811 -0.2832
  110MOL0     C14729   6.659   7.169  10.882  0.0900 -0.0668 -0.6707
  110MOL0     C14730   6.651   7.023  10.928  0.7632  1.0905  0.1417
  110MOL0     C14731   6.646   6.930  10.797 -0.1898 -1.2655  0.0296
  110MOL0     N14732   6.751   6.971  10.705  0.7211 -0.9473 -0.4620
  110MOL0     C14733   6.721   7.025  10.580 -0.8076 -0.1260 -0.1480
  110MOL0     C14734   6.844   7.050  10.527 -0.0424  0.7436  0.0294
  110MOL0     C14735   6.869   7.115  10.397 -0.0782 -0.1534  0.2736
  110MOL0     C14736   6.758   7.202  10.333  0.0178  0.0894 -0.0776
  110MOL0     C14737   6.776   7.232  10.184  0.4731 -0.0384 -0.5604
  110MOL0     C14738   6.719   7.368  10.143 -0.6666 -0.4190  0.2539
  110MOL0     O14739   6.577   7.376  10.151 -0.1847  0.3276  0.5683
  110MOL0     C14740   6.496   7.357  10.045  0.4908  0.0056 -0.7063
  110MOL0     C14741   6.537   7.293   9.926  0.5213  0.3619 -0.5942
  110MOL0     C14742   6.454   7.278   9.815 -0.6169 -0.3353 -0.4066
  110MOL0     C14743   6.515   7.192   9.700 -0.6016  0.1077 -0.9643
  110MOL0     C14744   6.324   7.329   9.815 -0.7139 -0.9230  0.4789
  110MOL0     C14745   6.231   7.323   9.704  0.1855  0.5398  0.0202
  110MOL0     O14746   6.248   7.215   9.621  0.1830 -0.3070  0.0346
  110MOL0     C14747   6.160   7.191   9.512 -0.9222  0.3652 -0.2926
  110MOL0     C14748   6.131   7.064   9.478 -0.5927 -0.3333 -0.3748
  110MOL0     C14749   6.036   7.041   9.382  0.3028 -0.0051 -0.4650
  110MOL0     C14750   6.004   7.137   9.288 -0.5115 -0.1330  0.1236
  110MOL0     O14751   5.919   7.119   9.179  0.7376  0.2607 -0.2618
  110MOL0     C14752   5.806   7.204   9.181  1.2413 -0.1848 -0.3175
  110MOL0     C14753   5.684   7.119   9.130  0.0531 -0.8271  0.5017
  110MOL0     C14754   5.700   7.046   8.993  0.1482  0.5835  0.1332
  110MOL0     C14755   5.645   6.905   8.990 -0.7027 -0.3923 -0.7572
  110MOL0     C14756   5.716   6.814   9.097 -0.3906  0.6531  0.6251
  110MOL0     C14757   5.701   6.667   9.059 -0.8781  0.1553  0.0375
  110MOL0     C14758   5.751   6.584   9.173  0.5513  0.4236 -0.6549
  110MOL0     C14759   5.648   6.575   9.284 -0.1422  0.2444  0.0556
  110MOL0    Cl14760   5.695   6.471   9.420  0.0585 -0.0896 -0.0614
  110MOL0     C14761   6.044   7.267   9.318 -0.1172 -0.7036  0.1899
  110MOL0     C14762   6.120   7.293   9.434  1.0428 -0.5096  0.9508
  110MOL0     O14763   6.141   7.410   9.698  0.0641 -0.3520 -0.1737
  110MOL0     C14764   6.287   7.402   9.942  0.2697  0.2055 -0.0301
  110MOL0     C14765   6.369   7.412  10.057  0.2128  0.3364  0.3383
  110MOL0     N14766   6.939   7.009  10.625  0.2320 -0.9890  0.8039
  110MOL0     N14767   6.880   6.954  10.731 -0.2220  0.1264  0.2386
  110MOL0     C14768   6.260   7.726  10.515  0.3110 -0.3995 -0.8137
  110MOL0     C14769   6.144   7.752  10.437 -0.4005 -0.0236  0.4707
  110MOL0     C14770   5.898   7.697  10.040  0.6610 -0.6076  0.8370
  110MOL0     C14771   5.888   7.654   9.906 -0.2873  0.5315 -0.2023
  110MOL0     C14772   5.779   7.678   9.835 -0.2026  0.3374  0.1307
  110MOL0     C14773   5.672   7.767   9.883 -0.0196  0.6439 -0.4184
  110MOL0     O14774   5.544   7.794   9.828 -0.1433 -0.1880  0.2578
  110MOL0     C14775   5.512   7.724   9.707  0.2447  0.8814  0.4896
  110MOL0     C14776   5.365   7.758   9.669  0.1662 -0.0979 -0.6423
  110MOL0     C14777   5.338   7.753   9.514 -1.0507 -0.4832  0.2419
  110MOL0     C14778   5.290   7.888   9.468  0.1252  0.2145  0.2457
  110MOL0     C14779   5.418   7.958   9.453  0.9405 -0.0254 -0.0296
  110MOL0     C14780   5.538   7.992   9.454 -0.0862 -0.4615 -0.2984
  110MOL0     C14781   5.685   7.805  10.013  0.6705 -0.8596 -0.3508
  110MOL0     C14782   5.793   7.765  10.098 -0.0323  0.2779 -0.4089
  110MOL0     H14783   6.291   7.780  10.134  0.0188  0.2235  0.6347
  110MOL0     H14784   6.496   7.731  10.263  0.2576  1.9693  1.4831
  110MOL0     H14785   6.637   7.624  10.405 -1.1858 -1.1966 -2.3974
  110MOL0     H14786   6.666   7.583  10.576 -1.5526 -0.5974  0.7267
  110MOL0     H14787   6.432   7.459  10.426 -1.1034  0.7078  0.8527
  110MOL0     H14788   6.588   7.386  10.442 -1.3813 -1.6224 -1.3489
  110MOL0     H14789   6.443   7.476  10.690  3.3386 -0.7824  1.6670
  110MOL0     H14790   6.402   7.330  10.603 -0.4291  1.9071  0.3782
  110MOL0     H14791   6.665   7.286  10.628 -2.1860 -1.0171  0.7488
  110MOL0     H14792   6.644   7.401  10.774 -0.4508  2.1880 -0.7573
  110MOL0     H14793   6.467   7.231  10.845 -1.3226  1.6114 -2.4470
  110MOL0     H14794   6.516   7.134  10.712 -3.1347  0.3109  0.7745
  110MOL0     H14795   6.759   7.200  10.851 -1.0248  4.9610 -0.0344
  110MOL0     H14796   6.653   7.241  10.963  1.7726  2.3261 -2.5220
  110MOL0     H14797   6.743   6.992  10.979  1.0662 -1.3530 -1.7075
  110MOL0     H14798   6.567   7.007  10.996  0.0756 -1.0947 -1.1326
  110MOL0     H14799   6.543   6.923  10.762 -1.0384 -0.8009  2.2591
  110MOL0     H14800   6.666   6.834  10.844  0.9256  0.1208  2.6336
  110MOL0     H14801   6.630   7.064  10.537  0.1099 -0.4813 -2.5970
  110MOL0     H14802   6.960   7.176  10.401 -0.8842  1.0364  1.5885
  110MOL0     H14803   6.894   7.034  10.329 -2.1080  1.0430 -2.0544
  110MOL0     H14804   6.778   7.300  10.379 -2.0423  0.4093  0.2326
  110MOL0     H14805   6.653   7.175  10.346  0.0154  0.8231  1.7051
  110MOL0     H14806   6.712   7.163  10.128  0.5827  0.1508 -0.9149
  110MOL0     H14807   6.883   7.214  10.167  0.7190 -1.3434  1.8244
  110MOL0     H14808   6.757   7.394  10.043  0.7122  2.6929  1.4670
  110MOL0     H14809   6.763   7.440  10.213 -1.8815  0.4611  0.1507
  110MOL0     H14810   6.639   7.258   9.931  0.0365 -1.1341 -0.8315
  110MOL0     H14811   6.505   7.234   9.600 -1.5695  0.3912 -0.7597
  110MOL0     H14812   6.623   7.180   9.716 -0.1984  3.0912 -0.6870
  110MOL0     H14813   6.480   7.090   9.714  2.1098 -0.7015  0.6612
  110MOL0     H14814   6.169   6.980   9.536 -0.2868  0.7943  1.1298
  110MOL0     H14815   6.000   6.940   9.364  1.0791 -0.2100 -0.9305
  110MOL0     H14816   5.790   7.243   9.282  1.0544 -0.4374 -0.2487
  110MOL0     H14817   5.812   7.296   9.121  1.5798  1.0924  1.5679
  110MOL0     H14818   5.660   7.048   9.210  1.1283 -0.0231  1.5810
  110MOL0     H14819   5.597   7.184   9.119  1.2036  1.2515  2.8227
  110MOL0     H14820   5.805   7.031   8.967 -0.0154  0.4755 -0.4840
  110MOL0     H14821   5.656   7.086   8.900  0.2488  0.5726  0.0810
  110MOL0     H14822   5.537   6.896   9.010 -0.7979 -1.9656 -1.8637
  110MOL0     H14823   5.645   6.858   8.891 -3.6988  0.0849 -1.0986
  110MOL0     H14824   5.675   6.829   9.197  1.8915 -3.0659  2.3364
  110MOL0     H14825   5.822   6.842   9.099  0.0953 -1.0963  0.6430
  110MOL0     H14826   5.607   6.633   9.013  1.6680 -3.6828 -2.9907
  110MOL0     H14827   5.764   6.659   8.970  1.8901  1.9022  1.7159
  110MOL0     H14828   5.843   6.620   9.221 -0.4832  0.3031  1.5345
  110MOL0     H14829   5.773   6.483   9.137 -3.2349 -0.7524 -0.1446
  110MOL0     H14830   5.567   6.520   9.235 -1.1511  0.8696  0.9934
  110MOL0     H14831   5.614   6.666   9.334  2.0401 -1.4761  5.2704
  110MOL0     H14832   6.024   7.352   9.254  2.7661 -1.4225 -1.8644
  110MOL0     H14833   6.152   7.397   9.433  0.6988 -0.3535 -1.6401
  110MOL0     H14834   6.180   7.421   9.947  0.0343 -1.1371  0.7581
  110MOL0     H14835   6.331   7.455  10.149  0.1393 -0.5110  0.7065
  110MOL0     H14836   6.249   7.718  10.622 -1.8040  1.4449 -0.8145
  110MOL0     H14837   6.043   7.740  10.476 -1.2948  0.9717 -1.3875
  110MOL0     H14838   5.971   7.598   9.862 -0.3214 -1.1463  1.7078
  110MOL0     H14839   5.790   7.646   9.732  1.2951  1.8990 -0.2331
  110MOL0     H14840   5.585   7.749   9.629  0.9739 -5.4331 -1.3898
  110MOL0     H14841   5.527   7.616   9.719  0.4884  1.0354  1.7672
  110MOL0     H14842   5.343   7.857   9.709 -0.5952 -0.8945  1.0026
  110MOL0     H14843   5.296   7.694   9.724 -2.7465  2.6312 -0.8479
  110MOL0     H14844   5.260   7.682   9.486 -1.8551  0.3027  0.4805
  110MOL0     H14845   5.431   7.731   9.460  0.4540 -0.8493  2.8026
  110MOL0     H14846   5.223   7.928   9.544 -0.2997  4.0679 -1.8889
  110MOL0     H14847   5.238   7.863   9.375  0.2300 -0.2515  0.3107
  110MOL0     H14848   5.635   8.036   9.469 -1.0606  1.1237  1.9071
  110MOL0     H14849   5.606   7.866  10.055  0.6108 -1.9565  1.1784
  110MOL0     H14850   5.805   7.807  10.198  2.9325 -1.0676 -0.0980
  111MOL0     O14851   8.948   3.623   1.941 -0.1368 -0.8400 -0.2191
  111MOL0     C14852   8.916   3.529   2.007  0.1245 -0.1764  0.1773
  111MOL0     O14853   8.979   3.411   2.017 -1.0518 -0.4403 -0.3700
  111MOL0     C14854   9.068   3.366   1.929  0.1254 -0.1658 -0.3246
  111MOL0     C14855   9.134   3.251   1.976 -0.3798  0.0160  0.0122
  111MOL0     C14856   9.236   3.191   1.904  0.2846 -0.6065 -0.0920
  111MOL0     C14857   9.269   3.235   1.775 -0.3714 -0.5385  0.2947
  111MOL0     O14858   9.381   3.178   1.721  0.2033 -0.6964 -0.0452
  111MOL0     C14859   9.386   3.033   1.726  0.4882  0.5688  0.0664
  111MOL0     C14860   9.499   2.992   1.636 -1.3142 -0.4738  0.8716
  111MOL0     C14861   9.479   3.021   1.487  0.6473 -0.2064  1.0682
  111MOL0     C14862   9.586   2.969   1.394 -0.0686 -0.7100 -0.4450
  111MOL0     C14863   9.553   2.824   1.359 -0.6786  0.2144 -0.4376
  111MOL0     C14864   9.664   2.784   1.263  0.7800 -1.0323 -0.1513
  111MOL0     C14865   9.657   2.638   1.228 -0.0806  0.2244  0.2447
  111MOL0     C14866   9.765   2.594   1.139  0.9539 -0.2177 -0.4165
  111MOL0     N14867   9.737   2.615   0.996  1.2158 -0.2344  0.1512
  111MOL0     C14868   9.646   2.543   0.921 -0.4677  0.1982  0.5325
  111MOL0     C14869   9.698   2.541   0.793  0.2764 -0.0952  0.4720
  111MOL0     C14870   9.642   2.474   0.669  0.4476  0.3687  0.0352
  111MOL0     C14871   9.624   2.575   0.565  0.8756 -0.2453  0.0921
  111MOL0     C14872   9.573   2.723   0.600 -1.0707  0.5455  0.0913
  111MOL0     C14873   9.444   2.739   0.670  0.2086 -0.2841  0.3301
  111MOL0     O14874   9.347   2.654   0.594  0.1890  0.1588 -0.1816
  111MOL0     C14875   9.218   2.630   0.627 -0.3852  0.2087 -0.4765
  111MOL0     C14876   9.158   2.707   0.723 -0.0313 -0.0090  0.2825
  111MOL0     C14877   9.025   2.680   0.757 -0.5976 -0.2023  0.3246
  111MOL0     C14878   8.971   2.767   0.864  0.7792  0.1981 -0.3371
  111MOL0     C14879   8.950   2.584   0.692  0.8419 -0.6732  0.6405
  111MOL0     C14880   8.799   2.564   0.712 -0.7907  0.0186  0.3493
  111MOL0     O14881   8.742   2.448   0.753 -0.2396  0.1512  0.2009
  111MOL0     C14882   8.824   2.349   0.806 -0.3721 -1.1957  0.5588
  111MOL0     C14883   8.807   2.216   0.771 -0.5754 -0.8920  0.6772
  111MOL0     C14884   8.872   2.109   0.822  0.1331  0.5001 -0.5926
  111MOL0     C14885   8.960   2.131   0.931 -0.1365 -0.1044  0.4790
  111MOL0     O14886   9.037   2.032   0.993  0.3109 -0.3358 -0.0954
  111MOL0     C14887   9.019   1.887   0.966  0.1433 -0.2760  0.4710
  111MOL0     C14888   8.943   1.827   1.081  0.6701  0.7013  0.3246
  111MOL0     C14889   9.021   1.824   1.207 -0.1743 -0.1947  0.9755
  111MOL0     C14890   9.096   1.691   1.226 -0.3208 -0.4668 -0.3461
  111MOL0     C14891   9.156   1.661   1.364  0.0396  0.3247  0.8181
  111MOL0     C14892   9.221   1.526   1.377 -0.3871  0.5956 -0.3933
  111MOL0     C14893   9.319   1.523   1.490  0.4047 -0.4983  0.5013
  111MOL0     C14894   9.272   1.582   1.626  0.6530 -0.0365 -0.2169
  111MOL0    Cl14895   9.200   1.448   1.717  0.0948  0.0723 -0.2779
  111MOL0     C14896   8.983   2.265   0.975  0.1978 -0.5714 -0.8810
  111MOL0     C14897   8.907   2.368   0.920  0.1228 -1.0456 -0.2663
  111MOL0     O14898   8.741   2.663   0.674 -0.2877  0.1248  0.1861
  111MOL0     C14899   9.012   2.504   0.596  0.3604 -0.3988  0.8328
  111MOL0     C14900   9.147   2.528   0.564  0.2437  0.3620  0.0876
  111MOL0     N14901   9.817   2.616   0.790  0.8161 -0.2491 -0.3104
  111MOL0     N14902   9.835   2.648   0.915 -0.2599  0.3037 -0.2703
  111MOL0     C14903   9.212   3.347   1.724  1.1198 -0.1901 -0.4336
  111MOL0     C14904   9.116   3.411   1.807  0.6632 -0.5180 -0.6333
  111MOL0     C14905   8.796   3.559   2.085 -0.3340  1.1108 -0.1325
  111MOL0     C14906   8.690   3.640   2.044  0.7912  0.4033  0.6349
  111MOL0     C14907   8.580   3.674   2.132  0.8048  0.0656 -1.4392
  111MOL0     C14908   8.576   3.596   2.250  0.1296  0.2867 -0.2064
  111MOL0     O14909   8.464   3.623   2.324 -0.3398  0.2817  0.7310
  111MOL0     C14910   8.426   3.549   2.444  0.3925  1.0783 -0.3384
  111MOL0     C14911   8.512   3.608   2.555 -0.0222  0.7181 -0.2154
  111MOL0     C14912   8.435   3.728   2.621  0.2410  0.3292  0.3219
  111MOL0     C14913   8.529   3.820   2.698  0.2557 -0.4131  0.1096
  111MOL0     C14914   8.574   3.744   2.817 -1.0989  0.5460 -0.7565
  111MOL0     C14915   8.608   3.712   2.924 -0.6321 -0.1067 -0.1316
  111MOL0     C14916   8.667   3.501   2.289  0.1629 -0.5238 -0.5962
  111MOL0     C14917   8.782   3.485   2.207  0.0720 -0.5518  0.4137
  111MOL0     H14918   9.099   3.208   2.070  0.6790  2.8820  1.8192
  111MOL0     H14919   9.288   3.111   1.955  1.3886  0.3064  0.2471
  111MOL0     H14920   9.410   2.991   1.824 -2.1805 -2.4980 -0.4201
  111MOL0     H14921   9.295   2.979   1.698 -1.7576  3.5463  1.1856
  111MOL0     H14922   9.596   3.029   1.671 -0.6496 -2.0844  0.8424
  111MOL0     H14923   9.508   2.883   1.640 -0.4524 -0.6562 -2.5635
  111MOL0     H14924   9.380   2.991   1.450  1.5552 -0.5767 -1.2315
  111MOL0     H14925   9.477   3.130   1.482  1.8338 -0.1899  0.5706
  111MOL0     H14926   9.595   3.033   1.305  0.3383 -1.3208 -0.8521
  111MOL0     H14927   9.684   2.980   1.440  0.3119  2.5055 -1.7954
  111MOL0     H14928   9.563   2.760   1.447  1.4358  0.6030 -0.3292
  111MOL0     H14929   9.452   2.818   1.317 -1.4147  1.5910  0.9991
  111MOL0     H14930   9.646   2.851   1.179  1.6109 -0.8107 -0.1682
  111MOL0     H14931   9.760   2.805   1.312  2.0189 -1.6267 -2.1805
  111MOL0     H14932   9.653   2.588   1.326 -0.7764  2.8197  1.6272
  111MOL0     H14933   9.567   2.594   1.185  1.3547 -1.6203 -1.0028
  111MOL0     H14934   9.765   2.485   1.152 -2.8610 -0.2818  0.4115
  111MOL0     H14935   9.858   2.640   1.174  0.2368 -0.3940  1.8912
  111MOL0     H14936   9.550   2.506   0.956 -1.6288  1.1940 -1.4802
  111MOL0     H14937   9.702   2.391   0.629 -2.5609 -1.6029 -0.7975
  111MOL0     H14938   9.545   2.432   0.696  0.5374  0.3990  0.4123
  111MOL0     H14939   9.554   2.544   0.486 -0.2890  0.7007  0.7223
  111MOL0     H14940   9.720   2.578   0.512  1.4214  1.1630  1.1071
  111MOL0     H14941   9.553   2.763   0.500 -2.2546  0.8653  0.4511
  111MOL0     H14942   9.651   2.783   0.648 -0.5250  1.3693 -1.6944
  111MOL0     H14943   9.401   2.840   0.670  0.8157 -0.0236  0.4227
  111MOL0     H14944   9.450   2.698   0.771  0.4955 -1.0774 -0.0008
  111MOL0     H14945   9.207   2.778   0.789 -1.3786  0.5727  0.6966
  111MOL0     H14946   9.047   2.766   0.943  1.1986 -2.7452 -0.6664
  111MOL0     H14947   8.965   2.869   0.826 -0.4028  1.1081  2.0559
  111MOL0     H14948   8.871   2.743   0.903  0.5546  1.5463 -0.0353
  111MOL0     H14949   8.740   2.193   0.688  1.3228  0.9861 -1.5267
  111MOL0     H14950   8.838   2.015   0.780  1.3633 -1.4765  2.4270
  111MOL0     H14951   8.978   1.862   0.867 -0.9679  3.5584 -0.2121
  111MOL0     H14952   9.120   1.847   0.959  1.0860  1.8537  1.0494
  111MOL0     H14953   8.852   1.886   1.095 -1.1278 -1.6906 -0.6668
  111MOL0     H14954   8.914   1.725   1.054 -1.3139  1.7794 -2.0121
  111MOL0     H14955   8.945   1.826   1.285 -0.8790 -0.3228  0.3034
  111MOL0     H14956   9.075   1.918   1.220 -1.3146  0.5245  0.6891
  111MOL0     H14957   9.026   1.610   1.204 -1.4461 -0.3346  2.3929
  111MOL0     H14958   9.184   1.696   1.162  0.7040  2.8562  1.1321
  111MOL0     H14959   9.078   1.665   1.441 -0.1542 -2.3296  0.8571
  111MOL0     H14960   9.219   1.748   1.380 -1.6853  1.9783 -0.8459
  111MOL0     H14961   9.155   1.439   1.386  1.7725 -1.1215 -0.2276
  111MOL0     H14962   9.275   1.512   1.282 -0.5119 -0.2537 -0.3489
  111MOL0     H14963   9.406   1.577   1.451  0.2548 -0.0941  0.7210
  111MOL0     H14964   9.343   1.417   1.496 -0.1230 -1.2306 -5.0851
  111MOL0     H14965   9.195   1.659   1.615  1.8696  1.1815 -0.4517
  111MOL0     H14966   9.350   1.633   1.683 -2.3254  2.2472  2.1632
  111MOL0     H14967   9.054   2.274   1.057 -0.2934  0.7513 -0.5845
  111MOL0     H14968   8.914   2.467   0.964 -3.5762 -0.4501 -0.7109
  111MOL0     H14969   8.961   2.417   0.554 -2.2450  0.1317  2.6249
  111MOL0     H14970   9.196   2.471   0.485  1.5871  2.3278 -0.5648
  111MOL0     H14971   9.246   3.386   1.629  1.4598 -2.2774 -1.2243
  111MOL0     H14972   9.084   3.505   1.763  0.4116 -0.9983 -1.5125
  111MOL0     H14973   8.685   3.694   1.949 -5.1568  0.2431  0.4881
  111MOL0     H14974   8.492   3.732   2.105  1.0163  1.3902  0.5064
  111MOL0     H14975   8.322   3.549   2.479 -1.2969 -1.9304 -4.5213
  111MOL0     H14976   8.436   3.441   2.426 -2.5021  1.0211 -2.4445
  111MOL0     H14977   8.609   3.641   2.518  0.4354  1.1253  1.2588
  111MOL0     H14978   8.542   3.544   2.639  2.8046  0.6936 -1.1530
  111MOL0     H14979   8.362   3.691   2.694  1.4366 -0.5401  1.1093
  111MOL0     H14980   8.384   3.786   2.543  2.4443  0.7152 -0.9164
  111MOL0     H14981   8.478   3.910   2.732 -0.5093 -0.7554 -0.1167
  111MOL0     H14982   8.615   3.842   2.634 -1.1419 -0.4495 -1.8484
  111MOL0     H14983   8.600   3.696   3.029 -1.0052  0.1077 -0.1249
  111MOL0     H14984   8.664   3.444   2.381  0.8058  1.9448  1.0601
  111MOL0     H14985   8.856   3.417   2.249  1.3151 -0.0677 -0.9286
  112MOL0     O14986   2.379   1.429   4.204  0.1861 -0.5639  0.1232
  112MOL0     C14987   2.392   1.359   4.104  0.5946 -0.2060  1.2603
  112MOL0     O14988   2.389   1.223   4.102  0.1910 -0.4517 -0.2780
  112MOL0     C14989   2.385   1.151   4.222 -0.0875  0.0144 -0.2211
  112MOL0     C14990   2.467   1.039   4.212  0.1225 -0.2058 -1.0239
  112MOL0     C14991   2.485   0.949   4.328 -0.4470  0.1665  0.5982
  112MOL0     C14992   2.406   0.976   4.443 -0.4984 -0.6030  0.8858
  112MOL0     O14993   2.421   0.902   4.552 -0.4913  0.5509  0.4693
  112MOL0     C14994   2.538   0.816   4.573  0.4592 -0.0088  0.0331
  112MOL0     C14995   2.537   0.742   4.701  0.3557 -0.0133 -0.0411
  112MOL0     C14996   2.649   0.643   4.713 -0.0106 -1.4566  0.2294
  112MOL0     C14997   2.647   0.543   4.835  0.9866  0.3874  0.9088
  112MOL0     C14998   2.742   0.593   4.940 -0.3155  0.3172  0.3223
  112MOL0     C14999   2.727   0.506   5.070 -0.1016  0.8021 -0.1606
  112MOL0     C15000   2.777   0.588   5.197 -1.2275  1.5157 -0.6308
  112MOL0     C15001   2.760   0.506   5.321  0.0354 -1.2826  0.6299
  112MOL0     N15002   2.875   0.420   5.349  0.2896 -0.1126  0.0309
  112MOL0     C15003   3.001   0.441   5.313 -0.0693  0.2459  0.8132
  112MOL0     C15004   3.076   0.347   5.365 -0.0091  0.3837 -0.0529
  112MOL0     C15005   3.222   0.343   5.350 -0.5164 -0.6064 -0.1115
  112MOL0     C15006   3.297   0.392   5.462  0.3915 -0.8677 -0.1886
  112MOL0     C15007   3.280   0.542   5.489  0.2488 -0.1097 -0.1832
  112MOL0     C15008   3.368   0.637   5.416  0.5905  0.8494 -0.6135
  112MOL0     O15009   3.313   0.673   5.283  0.3200 -0.3190 -0.1148
  112MOL0     C15010   3.369   0.775   5.211 -0.5399  0.7891  0.3975
  112MOL0     C15011   3.302   0.894   5.194 -0.4905 -0.1465  0.4799
  112MOL0     C15012   3.355   0.999   5.120  0.4041 -1.3728  0.9110
  112MOL0     C15013   3.269   1.125   5.098 -0.3741  0.2100 -0.4668
  112MOL0     C15014   3.481   0.979   5.055 -0.1713 -0.5193 -0.8319
  112MOL0     C15015   3.547   1.068   4.957 -0.6420 -0.2608 -0.3014
  112MOL0     O15016   3.671   1.031   4.912 -0.4409 -0.2569  0.3810
  112MOL0     C15017   3.740   1.105   4.818  0.3552  0.3323 -1.0941
  112MOL0     C15018   3.868   1.153   4.852  0.4543 -0.7062  0.5583
  112MOL0     C15019   3.938   1.224   4.760  0.4232 -1.0533  0.5148
  112MOL0     C15020   3.879   1.260   4.633  0.4757 -0.0049  0.5257
  112MOL0     O15021   3.952   1.345   4.554  0.1631  0.0630 -0.0408
  112MOL0     C15022   3.902   1.401   4.430 -0.2263 -0.1400 -0.0363
  112MOL0     C15023   3.821   1.534   4.459 -0.2104  0.2881  0.5468
  112MOL0     C15024   3.790   1.587   4.322  0.0224 -0.2540  0.0342
  112MOL0     C15025   3.639   1.581   4.308 -0.3246  0.1591 -0.1508
  112MOL0     C15026   3.586   1.628   4.169  0.1896 -1.2480  0.5192
  112MOL0     C15027   3.459   1.722   4.174  0.3764 -0.5903  0.0698
  112MOL0     C15028   3.403   1.774   4.036  0.4296  0.2507 -0.4487
  112MOL0     C15029   3.257   1.734   4.015  0.5903 -0.5767 -0.0430
  112MOL0    Cl15030   3.146   1.817   4.150  0.0581 -0.3405 -0.2044
  112MOL0     C15031   3.751   1.200   4.599 -0.2376  0.5459  0.1158
  112MOL0     C15032   3.676   1.130   4.696 -0.6315 -0.8374  0.2532
  112MOL0     O15033   3.490   1.170   4.926 -0.3813  0.1582 -0.2752
  112MOL0     C15034   3.550   0.856   5.082  0.5093  0.2581 -1.2419
  112MOL0     C15035   3.495   0.757   5.162 -0.3383 -0.0970 -0.6730
  112MOL0     N15036   2.997   0.262   5.438  0.6015  0.4093  0.1931
  112MOL0     N15037   2.872   0.296   5.407  0.9239  0.2236  0.3510
  112MOL0     C15038   2.332   1.099   4.453 -0.6058  0.8023 -0.2652
  112MOL0     C15039   2.311   1.177   4.335 -0.0042 -0.6974  0.3770
  112MOL0     C15040   2.428   1.439   3.985 -0.2691  0.5736 -0.8361
  112MOL0     C15041   2.436   1.372   3.870  0.2704  0.4193  0.3781
  112MOL0     C15042   2.462   1.444   3.750  0.2920  0.8592 -0.3583
  112MOL0     C15043   2.477   1.589   3.749  0.4830  0.2536 -0.1713
  112MOL0     O15044   2.487   1.645   3.626 -0.2015  0.2451 -0.2425
  112MOL0     C15045   2.492   1.791   3.627 -0.4202 -0.7600 -0.1360
  112MOL0     C15046   2.346   1.842   3.642  0.7817 -0.4765 -0.0704
  112MOL0     C15047   2.319   1.994   3.623 -0.0582 -0.1260 -0.0919
  112MOL0     C15048   2.306   2.046   3.474  0.0343  0.2526 -0.0547
  112MOL0     C15049   2.437   2.087   3.431 -1.4980  0.4140 -0.3242
  112MOL0     C15050   2.535   2.156   3.405 -0.2666  0.8231  0.1561
  112MOL0     C15051   2.503   1.645   3.876  0.3970 -0.3105  0.9709
  112MOL0     C15052   2.470   1.574   3.992  0.6486  0.8621  0.4650
  112MOL0     H15053   2.531   1.026   4.126  0.6475  1.2787 -0.8911
  112MOL0     H15054   2.547   0.860   4.325  1.2250  1.2790  0.4238
  112MOL0     H15055   2.549   0.748   4.488  0.4513  0.8174 -0.6375
  112MOL0     H15056   2.624   0.883   4.579  0.7770 -0.4264  0.2168
  112MOL0     H15057   2.547   0.818   4.780  0.8952 -1.4536  1.3370
  112MOL0     H15058   2.437   0.698   4.708 -0.2191  1.3668  1.0871
  112MOL0     H15059   2.637   0.592   4.616 -1.1689 -2.4786  0.8942
  112MOL0     H15060   2.740   0.698   4.688 -0.1087 -2.3205 -2.3577
  112MOL0     H15061   2.549   0.546   4.882  0.9465 -0.4571  0.8976
  112MOL0     H15062   2.678   0.444   4.800 -1.4644 -0.8205  1.9688
  112MOL0     H15063   2.847   0.575   4.913 -0.9656 -1.2058 -1.3715
  112MOL0     H15064   2.725   0.700   4.953  1.5386  0.4650  2.1257
  112MOL0     H15065   2.623   0.475   5.083  0.5027 -0.6240  1.7508
  112MOL0     H15066   2.785   0.414   5.060 -0.7121  0.5770 -1.9590
  112MOL0     H15067   2.880   0.622   5.181 -0.5669 -0.2603 -0.3317
  112MOL0     H15068   2.715   0.678   5.207 -0.2095  2.1545  0.1625
  112MOL0     H15069   2.664   0.454   5.317 -1.4916  1.2343  1.8924
  112MOL0     H15070   2.744   0.576   5.404 -3.2389 -0.6196 -0.4068
  112MOL0     H15071   3.040   0.527   5.261 -3.7230  1.3061 -0.4637
  112MOL0     H15072   3.249   0.240   5.324  2.5483 -0.6638  2.6531
  112MOL0     H15073   3.251   0.399   5.260  0.5594  0.8691  1.1122
  112MOL0     H15074   3.406   0.381   5.453  1.2271  2.4854  3.0999
  112MOL0     H15075   3.277   0.318   5.539  1.0117 -0.2935  0.5474
  112MOL0     H15076   3.302   0.557   5.595 -0.4980 -0.4388  0.0234
  112MOL0     H15077   3.178   0.576   5.467  0.7391  0.6446 -1.4246
  112MOL0     H15078   3.471   0.602   5.405  0.5557  0.5257  0.0600
  112MOL0     H15079   3.369   0.724   5.483  0.1720 -0.7013  1.4710
  112MOL0     H15080   3.208   0.916   5.245 -0.3667  0.5379  0.4245
  112MOL0     H15081   3.331   1.214   5.098  1.2864 -0.9079 -0.1207
  112MOL0     H15082   3.206   1.126   5.008 -2.9479 -1.5089  1.1586
  112MOL0     H15083   3.199   1.137   5.181  0.0056 -1.9817  0.2409
  112MOL0     H15084   3.916   1.139   4.948 -1.3594 -1.8070  1.3590
  112MOL0     H15085   4.030   1.270   4.797  1.3570 -1.3620 -1.2961
  112MOL0     H15086   3.989   1.437   4.375  1.1679  0.8054  2.6273
  112MOL0     H15087   3.846   1.327   4.372  0.9593 -1.3094  0.2832
  112MOL0     H15088   3.733   1.528   4.524 -0.4753  0.3784  0.2009
  112MOL0     H15089   3.894   1.592   4.516 -1.0275 -0.8914  2.9545
  112MOL0     H15090   3.833   1.530   4.240  0.7978  0.6978 -0.2306
  112MOL0     H15091   3.818   1.691   4.300 -2.9938  1.0945  1.8898
  112MOL0     H15092   3.613   1.475   4.319  1.1701 -0.2747 -0.5836
  112MOL0     H15093   3.593   1.632   4.394 -1.6360 -3.8186  1.7742
  112MOL0     H15094   3.565   1.547   4.098 -2.3461  0.7847 -1.2610
  112MOL0     H15095   3.649   1.698   4.112 -0.4930 -0.8676  0.2212
  112MOL0     H15096   3.383   1.666   4.230  2.0220 -1.9231  1.0874
  112MOL0     H15097   3.492   1.806   4.236  0.5431 -0.3306 -0.3702
  112MOL0     H15098   3.466   1.744   3.952 -0.2538  1.5399 -1.4590
  112MOL0     H15099   3.402   1.883   4.039 -0.0795  0.2328  1.6166
  112MOL0     H15100   3.240   1.626   4.008  1.2666 -0.6940  0.0895
  112MOL0     H15101   3.218   1.772   3.920 -1.9113 -1.2413  0.6512
  112MOL0     H15102   3.696   1.201   4.506 -1.5997  0.9440  0.9068
  112MOL0     H15103   3.572   1.099   4.687 -1.5405  0.7865  3.5180
  112MOL0     H15104   3.651   0.837   5.049 -0.3196 -1.6267 -2.8522
  112MOL0     H15105   3.560   0.674   5.187  3.5660  3.0041  0.3651
  112MOL0     H15106   2.276   1.107   4.546  1.6611  3.0137  1.0089
  112MOL0     H15107   2.255   1.270   4.335  0.2629 -0.4928 -1.2739
  112MOL0     H15108   2.420   1.266   3.854  0.1823  0.5279 -0.2944
  112MOL0     H15109   2.459   1.389   3.656 -1.4350 -2.5614  1.5366
  112MOL0     H15110   2.563   1.821   3.705 -1.8182  0.5463  0.6890
  112MOL0     H15111   2.525   1.824   3.529 -2.9929 -1.4237 -1.3052
  112MOL0     H15112   2.294   1.806   3.731  0.6496 -1.9568 -0.7159
  112MOL0     H15113   2.293   1.792   3.561 -0.1469  0.9925 -0.4201
  112MOL0     H15114   2.386   2.051   3.688 -0.8834  0.4290  0.2972
  112MOL0     H15115   2.218   2.004   3.665 -0.4449 -2.8422 -0.2153
  112MOL0     H15116   2.234   2.129   3.470 -1.1160 -0.7441 -0.6836
  112MOL0     H15117   2.278   1.965   3.407 -2.9079  0.6887  0.4913
  112MOL0     H15118   2.622   2.212   3.379  1.3932 -1.9585 -0.6807
  112MOL0     H15119   2.531   1.749   3.879 -1.7594  0.3106  1.0377
  112MOL0     H15120   2.479   1.620   4.090  3.7103 -0.5780  0.9930
  113MOL0     O15121   5.276  10.901   7.482 -0.4306  0.8196 -0.3642
  113MOL0     C15122   5.204  10.832   7.561 -0.4967 -0.9433  0.0640
  113MOL0     O15123   5.232  10.708   7.618 -0.1378  0.0224  0.4291
  113MOL0     C15124   5.335  10.642   7.550 -0.3969 -0.2629  0.3191
  113MOL0     C15125   5.310  10.598   7.416  0.1248 -0.3763 -0.3862
  113MOL0     C15126   5.390  10.489   7.372  0.1903 -0.8974  0.0274
  113MOL0     C15127   5.494  10.440   7.443  0.1430 -0.4676  0.0876
  113MOL0     O15128   5.561  10.336   7.383 -0.3649  0.2622  0.5614
  113MOL0     C15129   5.687  10.286   7.439  0.9618  0.2622 -0.8061
  113MOL0     C15130   5.799  10.381   7.390  0.0484 -0.3752 -0.5416
  113MOL0     C15131   5.823  10.365   7.242  0.1120  0.5859  0.2408
  113MOL0     C15132   5.951  10.436   7.212  0.4479 -0.0919  0.4810
  113MOL0     C15133   5.952  10.450   7.057  0.0220 -0.3924 -0.4806
  113MOL0     C15134   6.090  10.411   7.000 -0.5214  1.2388 -0.0539
  113MOL0     C15135   6.186  10.506   7.050 -0.0895  0.1435  1.4774
  113MOL0     C15136   6.305  10.532   6.953  1.6716 -0.3051  0.2616
  113MOL0     N15137   6.399  10.420   6.938 -0.4791  0.6879 -0.0401
  113MOL0     C15138   6.369  10.295   6.884 -0.5707  0.4851 -0.0247
  113MOL0     C15139   6.481  10.213   6.896 -0.2349 -0.5272 -0.7851
  113MOL0     C15140   6.484  10.069   6.862  0.4491 -0.4330  0.8544
  113MOL0     C15141   6.555  10.044   6.729 -0.1004 -0.4928 -0.4013
  113MOL0     C15142   6.706  10.092   6.732 -0.1736  0.5991 -0.4511
  113MOL0     C15143   6.796  10.002   6.824  0.7600  0.4113 -0.1403
  113MOL0     O15144   6.915   9.951   6.762 -0.5287  0.1402 -0.1861
  113MOL0     C15145   7.010  10.038   6.717  0.4391  0.2212 -0.1268
  113MOL0     C15146   7.108   9.991   6.641  0.9021  1.1523  0.9325
  113MOL0     C15147   7.217  10.063   6.589  0.9849 -0.0707  1.4033
  113MOL0     C15148   7.300   9.993   6.486  0.3170 -0.6636  0.1062
  113MOL0     C15149   7.226  10.198   6.624 -0.9059 -0.9724  0.3823
  113MOL0     C15150   7.340  10.276   6.574 -0.2973  0.1854 -0.6355
  113MOL0     O15151   7.327  10.412   6.581 -0.4860  0.5308 -0.2881
  113MOL0     C15152   7.407  10.482   6.498 -0.7966 -0.0680 -0.9234
  113MOL0     C15153   7.532  10.506   6.546  0.5753 -0.7698  0.4030
  113MOL0     C15154   7.628  10.569   6.463 -0.1065  0.3329 -0.2603
  113MOL0     C15155   7.574  10.636   6.354 -0.0034 -0.2227  0.9171
  113MOL0     O15156   7.645  10.725   6.273 -0.4733  0.7633  0.6842
  113MOL0     C15157   7.783  10.731   6.303 -1.0074  0.8689 -0.8910
  113MOL0     C15158   7.846  10.848   6.235  0.4522  0.3984 -0.3006
  113MOL0     C15159   7.795  10.850   6.091 -0.4418  0.5011 -0.9092
  113MOL0     C15160   7.890  10.924   5.998 -0.2496 -0.0530 -0.5629
  113MOL0     C15161   7.844  10.909   5.858 -0.5381 -0.2312  0.1666
  113MOL0     C15162   7.940  10.965   5.747  0.3699 -0.5544  0.5217
  113MOL0     C15163   7.956  11.117   5.749  0.5384  0.0960 -0.5500
  113MOL0     C15164   8.009  11.159   5.612 -0.0189 -0.1935  0.7353
  113MOL0    Cl15165   7.978  11.327   5.574  0.4287  0.2011  0.4721
  113MOL0     C15166   7.451  10.609   6.304  0.0332 -0.5201  0.4448
  113MOL0     C15167   7.365  10.532   6.373 -0.0388 -0.7120 -0.6462
  113MOL0     O15168   7.445  10.217   6.539  0.2809  0.0036 -0.2496
  113MOL0     C15169   7.125  10.256   6.705 -0.4914  0.3865  0.4793
  113MOL0     C15170   7.019  10.173   6.755  0.0379  0.4877 -0.8240
  113MOL0     N15171   6.578  10.290   6.950 -0.1070  0.6951 -0.4716
  113MOL0     N15172   6.529  10.408   6.990  0.5527  0.4740 -0.5713
  113MOL0     C15173   5.528  10.499   7.567 -0.3372 -0.7004 -0.2699
  113MOL0     C15174   5.443  10.595   7.629  0.0290 -0.1983  0.4870
  113MOL0     C15175   5.088  10.899   7.614  0.5957  0.1946  0.3671
  113MOL0     C15176   5.035  11.008   7.538 -0.3852  0.3034 -0.3524
  113MOL0     C15177   4.926  11.081   7.592  0.6272 -0.2993 -0.5923
  113MOL0     C15178   4.850  11.046   7.704 -0.5391  0.1045 -0.6532
  113MOL0     O15179   4.749  11.135   7.742  0.6629 -0.1629  0.5836
  113MOL0     C15180   4.703  11.128   7.879 -0.3805  0.1989  0.2127
  113MOL0     C15181   4.808  11.166   7.977 -0.0183  0.0166  0.0443
  113MOL0     C15182   4.838  11.313   7.990  0.0456 -0.4128 -0.2281
  113MOL0     C15183   4.963  11.347   7.920 -1.3848  0.3035 -0.0973
  113MOL0     C15184   5.016  11.487   7.951 -0.6460  0.6807  0.9470
  113MOL0     C15185   5.074  11.593   7.972 -0.5529 -0.5415 -0.0909
  113MOL0     C15186   4.902  10.932   7.769 -0.9560 -0.0721  0.1355
  113MOL0     C15187   5.021  10.859   7.727 -0.3998 -0.2069 -0.8284
  113MOL0     H15188   5.224  10.630   7.358  2.0267  3.3088 -1.5234
  113MOL0     H15189   5.362  10.432   7.284 -0.8652 -4.0599  2.2014
  113MOL0     H15190   5.681  10.272   7.548  0.0523 -2.4925 -1.1351
  113MOL0     H15191   5.699  10.185   7.400  1.9672  0.9327 -2.3041
  113MOL0     H15192   5.766  10.484   7.404  0.4856 -0.2331 -0.5332
  113MOL0     H15193   5.895  10.360   7.438  0.6810 -0.9172 -2.0005
  113MOL0     H15194   5.825  10.264   7.200  1.6467  1.9346 -3.2790
  113MOL0     H15195   5.737  10.406   7.190 -0.3008 -0.3937  0.1329
  113MOL0     H15196   5.954  10.534   7.261 -1.5406  0.6179 -0.6846
  113MOL0     H15197   6.035  10.377   7.249 -1.2870 -1.5463  2.2988
  113MOL0     H15198   5.882  10.387   7.002  0.8197 -0.3338 -1.5940
  113MOL0     H15199   5.921  10.554   7.043 -0.7336 -0.5886 -0.2762
  113MOL0     H15200   6.113  10.304   7.008 -0.8751  1.0193 -1.5761
  113MOL0     H15201   6.093  10.422   6.891  1.0765 -1.6304 -0.3961
  113MOL0     H15202   6.131  10.599   7.065  0.8350  1.2167 -1.2880
  113MOL0     H15203   6.224  10.461   7.142  1.9127  1.2295  1.2360
  113MOL0     H15204   6.356  10.622   6.988 -3.0397  2.9432 -0.3254
  113MOL0     H15205   6.271  10.574   6.859 -1.5600  0.0372  1.4577
  113MOL0     H15206   6.270  10.267   6.850 -1.5388  3.1248  0.4072
  113MOL0     H15207   6.532  10.008   6.939  0.1715 -0.8222  0.7232
  113MOL0     H15208   6.386  10.022   6.850  1.7872 -3.2402 -0.1909
  113MOL0     H15209   6.510  10.100   6.646  1.5723  1.2032 -0.2365
  113MOL0     H15210   6.554   9.937   6.707 -3.0585 -0.6395 -0.0306
  113MOL0     H15211   6.709  10.199   6.752 -0.6571  0.9891 -2.2360
  113MOL0     H15212   6.758  10.089   6.635  0.9980  2.1764  0.0878
  113MOL0     H15213   6.752   9.907   6.853 -0.9878  0.8115 -1.2553
  113MOL0     H15214   6.817  10.053   6.918 -1.1056  0.1613  0.4474
  113MOL0     H15215   7.095   9.887   6.614 -1.2851  1.8227 -0.9827
  113MOL0     H15216   7.281   9.889   6.455 -0.6536 -1.1800  2.1887
  113MOL0     H15217   7.284  10.045   6.391 -3.6824 -0.7267  0.5717
  113MOL0     H15218   7.405  10.005   6.514 -0.8272  1.6418  4.2527
  113MOL0     H15219   7.558  10.464   6.643  0.8267 -1.5410  0.0100
  113MOL0     H15220   7.732  10.577   6.493 -0.0865 -0.6919 -0.0379
  113MOL0     H15221   7.811  10.760   6.405  1.4024  1.6596 -1.7012
  113MOL0     H15222   7.839  10.638   6.286 -0.4805  1.3912 -2.1646
  113MOL0     H15223   7.813  10.939   6.286 -3.3480 -1.3019  0.6901
  113MOL0     H15224   7.955  10.841   6.242  0.2053 -3.3071  4.9446
  113MOL0     H15225   7.693  10.889   6.101 -0.1139  0.8939  1.5472
  113MOL0     H15226   7.780  10.746   6.060 -2.5853 -0.2430  2.1787
  113MOL0     H15227   7.900  11.029   6.028  0.1794 -0.1960 -0.1972
  113MOL0     H15228   7.988  10.877   6.009  0.8701  2.5436  1.9816
  113MOL0     H15229   7.742  10.944   5.843 -0.9351 -0.4145  2.2441
  113MOL0     H15230   7.839  10.800   5.854 -2.1525 -0.2677  2.0452
  113MOL0     H15231   8.041  10.925   5.738 -0.3672 -2.0434 -2.4607
  113MOL0     H15232   7.889  10.938   5.653 -2.2735  0.2727  1.6301
  113MOL0     H15233   8.013  11.148   5.837 -1.2659  0.0550  0.6757
  113MOL0     H15234   7.855  11.157   5.762  0.5745  0.0117  0.0393
  113MOL0     H15235   7.946  11.114   5.534 -0.6330 -0.6529  1.4769
  113MOL0     H15236   8.111  11.127   5.589  0.2014  0.0641  1.3529
  113MOL0     H15237   7.416  10.647   6.208  1.0960  1.9564  0.9583
  113MOL0     H15238   7.259  10.523   6.352 -0.9305  0.9049  2.6331
  113MOL0     H15239   7.121  10.363   6.719  1.3240  0.8258 -1.8407
  113MOL0     H15240   6.934  10.214   6.809  0.0624  0.2023 -0.5672
  113MOL0     H15241   5.607  10.452   7.625  3.0966  0.4586 -3.5848
  113MOL0     H15242   5.435  10.633   7.730  0.3145 -0.1757  0.5023
  113MOL0     H15243   5.075  11.034   7.440 -0.1397 -1.2824 -0.6859
  113MOL0     H15244   4.880  11.167   7.544 -1.3964 -0.8620  0.2197
  113MOL0     H15245   4.612  11.189   7.886 -0.7481 -0.1592 -1.1758
  113MOL0     H15246   4.680  11.027   7.912  0.3952  0.9892  3.5703
  113MOL0     H15247   4.901  11.110   7.961 -0.2728 -0.4221  0.0773
  113MOL0     H15248   4.774  11.131   8.075  0.4841  1.3099  0.7001
  113MOL0     H15249   4.855  11.323   8.097 -0.9698 -2.9885  0.2372
  113MOL0     H15250   4.763  11.384   7.954  1.3141  0.9170 -0.3440
  113MOL0     H15251   4.961  11.349   7.810  2.5830  1.8718 -0.3055
  113MOL0     H15252   5.036  11.276   7.960  0.2393  1.2486 -1.2455
  113MOL0     H15253   5.114  11.685   8.008  0.0692  0.3767 -2.8539
  113MOL0     H15254   4.857  10.894   7.861 -0.5656 -2.5047 -0.6066
  113MOL0     H15255   5.051  10.768   7.778 -3.0877 -2.3599 -2.7847
  114MOL0     O15256  11.045   6.621   5.864  0.5805 -0.9015 -0.6785
  114MOL0     C15257  11.075   6.737   5.901  0.3585  0.4256 -0.3713
  114MOL0     O15258  11.193   6.790   5.877 -0.4521  0.1548  0.3050
  114MOL0     C15259  11.301   6.711   5.837 -0.1112 -0.2644 -0.3669
  114MOL0     C15260  11.300   6.638   5.720 -0.0044  0.4797  0.2365
  114MOL0     C15261  11.398   6.548   5.688  0.1365 -0.6377 -0.1312
  114MOL0     C15262  11.505   6.532   5.779 -0.0952 -0.4132  0.2929
  114MOL0     O15263  11.611   6.451   5.772  0.4674  0.7031 -0.0983
  114MOL0     C15264  11.604   6.348   5.673 -0.5819 -0.5922  0.0720
  114MOL0     C15265  11.732   6.273   5.680 -0.8878  0.5045 -0.3992
  114MOL0     C15266  11.786   6.216   5.814  0.2338  1.5292 -0.1070
  114MOL0     C15267  11.811   6.320   5.915 -0.3001  0.0814  0.5754
  114MOL0     C15268  11.923   6.289   6.012  0.0556 -0.3502  0.1218
  114MOL0     C15269  11.967   6.415   6.085 -0.3992  0.5282  0.2297
  114MOL0     C15270  11.858   6.468   6.176  0.7055 -0.7057  0.1285
  114MOL0     C15271  11.922   6.599   6.232 -0.4040  0.1901 -0.1698
  114MOL0     N15272  11.832   6.696   6.286  1.0940 -0.0262 -0.0207
  114MOL0     C15273  11.754   6.682   6.401  1.1516  0.3162 -0.7040
  114MOL0     C15274  11.669   6.792   6.398  0.0314 -0.3020  0.0916
  114MOL0     C15275  11.544   6.824   6.476  0.6273  0.1761  0.6556
  114MOL0     C15276  11.501   6.736   6.587  0.7177  0.0947  0.1092
  114MOL0     C15277  11.372   6.767   6.659 -0.5078 -0.3532 -0.3860
  114MOL0     C15278  11.320   6.660   6.745  0.6526 -0.9743  0.4052
  114MOL0     O15279  11.395   6.634   6.871  0.1250 -0.2347  0.5259
  114MOL0     C15280  11.450   6.508   6.878 -0.1776 -0.0162 -0.5566
  114MOL0     C15281  11.549   6.470   6.786  0.2128  0.7625  0.4134
  114MOL0     C15282  11.588   6.335   6.768  0.1588  0.7170 -1.2109
  114MOL0     C15283  11.698   6.302   6.675  0.4828  0.6349  0.1679
  114MOL0     C15284  11.515   6.236   6.840 -0.2220  0.4996 -0.6377
  114MOL0     C15285  11.564   6.097   6.838 -0.1049  0.4223 -0.4094
  114MOL0     O15286  11.697   6.079   6.838 -0.4626  0.6359  0.1275
  114MOL0     C15287  11.762   5.961   6.822  0.1501  0.5336  0.9597
  114MOL0     C15288  11.901   5.974   6.806 -0.5032  0.5090  0.2252
  114MOL0     C15289  11.982   5.864   6.789  0.7448 -0.0821  0.0495
  114MOL0     C15290  11.924   5.737   6.788 -0.3746  0.5720 -0.0351
  114MOL0     O15291  12.002   5.628   6.772  0.5417  0.3900 -0.3137
  114MOL0     C15292  12.047   5.606   6.632  0.4214 -0.2794  0.1871
  114MOL0     C15293  11.944   5.545   6.539  0.3334 -0.4519 -0.0597
  114MOL0     C15294  11.922   5.394   6.574  0.0402 -0.2146  0.0564
  114MOL0     C15295  11.880   5.327   6.447 -0.4770 -0.0754  0.5939
  114MOL0     C15296  11.837   5.182   6.467 -0.5483  0.9410 -0.2191
  114MOL0     C15297  11.817   5.116   6.327  0.5456 -0.5433  0.0054
  114MOL0     C15298  11.719   4.996   6.325  0.0956 -0.1033 -0.4106
  114MOL0     C15299  11.728   4.918   6.194  0.4305  0.1024  0.9209
  114MOL0    Cl15300  11.681   5.042   6.076  0.2768 -0.1094  0.0735
  114MOL0     C15301  11.789   5.720   6.821 -0.2185 -0.6382  0.1349
  114MOL0     C15302  11.706   5.830   6.836  1.3109  0.1567  0.5106
  114MOL0     O15303  11.475   6.005   6.842  0.3389 -0.7623 -0.5074
  114MOL0     C15304  11.421   6.277   6.935 -0.3535  0.5449  0.1200
  114MOL0     C15305  11.390   6.411   6.956  1.2926 -0.1882 -0.2395
  114MOL0     N15306  11.703   6.875   6.285 -0.2426  0.2144 -0.7667
  114MOL0     N15307  11.799   6.810   6.222  0.3216 -0.0467 -0.0613
  114MOL0     C15308  11.505   6.599   5.903  0.5691 -0.5160 -0.4113
  114MOL0     C15309  11.401   6.699   5.931  0.4217 -0.2620  0.0610
  114MOL0     C15310  10.971   6.823   5.959  0.7382 -0.6728 -0.1817
  114MOL0     C15311  10.864   6.787   6.041  0.3255  0.1078 -0.6034
  114MOL0     C15312  10.789   6.878   6.116  0.0147  0.5525  0.1171
  114MOL0     C15313  10.792   7.009   6.079  0.1925  0.5837  0.2263
  114MOL0     O15314  10.701   7.094   6.128  0.6924 -0.5149 -0.1340
  114MOL0     C15315  10.731   7.157   6.256 -0.6577  0.0121  0.0851
  114MOL0     C15316  10.669   7.091   6.379  0.4764 -0.2506 -0.0544
  114MOL0     C15317  10.522   7.076   6.362  0.2028  1.2207  0.0310
  114MOL0     C15318  10.447   7.001   6.477  0.5568  0.4031 -0.1890
  114MOL0     C15319  10.304   7.014   6.461 -0.5003 -0.0667  0.5019
  114MOL0     C15320  10.188   7.025   6.449  0.8977 -0.4649 -0.2993
  114MOL0     C15321  10.890   7.051   5.989 -0.0557 -0.2247  0.2450
  114MOL0     C15322  10.978   6.959   5.929 -0.5210 -0.0349  0.5755
  114MOL0     H15323  11.218   6.641   5.649  0.0303 -3.1280 -0.1272
  114MOL0     H15324  11.406   6.495   5.593 -0.0739 -2.3333  0.7533
  114MOL0     H15325  11.517   6.282   5.685 -1.4743  0.3619 -0.9901
  114MOL0     H15326  11.594   6.388   5.572  1.3236  0.3144  0.1918
  114MOL0     H15327  11.716   6.185   5.617 -0.1422  1.6063 -2.1966
  114MOL0     H15328  11.816   6.325   5.633 -0.0707  1.1337  1.6630
  114MOL0     H15329  11.725   6.145   5.871 -0.6854  2.3004 -0.1038
  114MOL0     H15330  11.878   6.160   5.793 -1.6701 -3.1320  2.4163
  114MOL0     H15331  11.834   6.411   5.858 -2.3739  1.1382  1.3243
  114MOL0     H15332  11.718   6.335   5.971  1.5831  0.8760  3.7184
  114MOL0     H15333  11.900   6.206   6.079  1.4109 -0.5118  0.4158
  114MOL0     H15334  12.014   6.255   5.961  1.9420  1.9874  1.7181
  114MOL0     H15335  12.065   6.416   6.134  0.3286  3.5822 -1.0359
  114MOL0     H15336  11.989   6.492   6.010  3.9275  1.1354  1.7939
  114MOL0     H15337  11.763   6.487   6.125 -1.4046 -0.4740  3.7750
  114MOL0     H15338  11.831   6.390   6.248 -2.3580 -3.6435 -3.7561
  114MOL0     H15339  11.975   6.660   6.158  1.4621 -0.4958  0.5440
  114MOL0     H15340  11.992   6.569   6.310 -2.2013  0.1414  1.4888
  114MOL0     H15341  11.744   6.597   6.467  1.2999 -0.1220 -1.2337
  114MOL0     H15342  11.546   6.925   6.518  1.4726  0.0539  0.9229
  114MOL0     H15343  11.458   6.819   6.408  1.2956  1.7266 -0.3374
  114MOL0     H15344  11.582   6.737   6.661  1.7207  2.6371 -0.8734
  114MOL0     H15345  11.490   6.633   6.552  1.6866 -1.5323  4.0670
  114MOL0     H15346  11.296   6.802   6.589  0.4494 -1.1596 -1.8857
  114MOL0     H15347  11.404   6.851   6.722  1.2894  0.7596 -2.6463
  114MOL0     H15348  11.307   6.573   6.681 -0.7799  0.8100 -1.8625
  114MOL0     H15349  11.224   6.698   6.779  2.2573  0.1176  4.3266
  114MOL0     H15350  11.596   6.536   6.714 -1.4049  0.2555 -1.2073
  114MOL0     H15351  11.683   6.206   6.624 -0.5668 -0.7691  2.9211
  114MOL0     H15352  11.720   6.381   6.604  0.8187  1.9589  1.7007
  114MOL0     H15353  11.793   6.287   6.726  0.3690 -0.3072  0.1348
  114MOL0     H15354  11.941   6.075   6.803 -0.4857  0.5787  1.8856
  114MOL0     H15355  12.091   5.867   6.783  0.7476 -1.7248 -1.3891
  114MOL0     H15356  12.069   5.704   6.588 -0.1677 -0.9980 -1.8146
  114MOL0     H15357  12.132   5.539   6.617  1.2773  1.0076 -1.1102
  114MOL0     H15358  11.851   5.603   6.532  0.6535 -0.0990 -1.7870
  114MOL0     H15359  11.973   5.559   6.434 -4.4175 -1.4405 -1.7847
  114MOL0     H15360  11.833   5.381   6.636 -1.4499 -0.5795 -2.0425
  114MOL0     H15361  12.009   5.347   6.620 -0.8420 -1.7665  0.2013
  114MOL0     H15362  11.799   5.384   6.400 -1.1235 -0.1718  1.5522
  114MOL0     H15363  11.970   5.330   6.386 -0.3279  2.6521  0.8282
  114MOL0     H15364  11.752   5.179   6.535 -0.3608 -3.1833  0.0772
  114MOL0     H15365  11.908   5.125   6.527  0.4986  0.8889 -1.4567
  114MOL0     H15366  11.768   5.187   6.260  3.1715  3.0991  1.5664
  114MOL0     H15367  11.915   5.095   6.283  1.2115  0.4863  0.9226
  114MOL0     H15368  11.613   5.017   6.342  0.6086  2.0617  0.5412
  114MOL0     H15369  11.736   4.934   6.414 -1.6371  1.2558  0.9531
  114MOL0     H15370  11.654   4.838   6.185  0.6659 -0.1685  1.3856
  114MOL0     H15371  11.832   4.889   6.181  1.4842  3.4619  0.9201
  114MOL0     H15372  11.757   5.616   6.828  1.2624 -1.0656  1.1088
  114MOL0     H15373  11.601   5.811   6.857  1.9766 -2.7855  1.6469
  114MOL0     H15374  11.366   6.212   7.002  1.2841 -0.0273  0.9697
  114MOL0     H15375  11.305   6.453   7.009  0.9350  0.4026 -1.2440
  114MOL0     H15376  11.582   6.582   5.978  4.2867  0.2193 -3.7460
  114MOL0     H15377  11.382   6.744   6.028  1.5101 -0.1143  0.2267
  114MOL0     H15378  10.841   6.683   6.061  1.3780 -0.3378 -1.5925
  114MOL0     H15379  10.717   6.849   6.193  0.6331  0.5853  0.7195
  114MOL0     H15380  10.836   7.179   6.279 -0.1469 -1.1210 -1.0222
  114MOL0     H15381  10.692   7.259   6.250  0.3909  0.3582 -2.5111
  114MOL0     H15382  10.675   7.159   6.465  2.3158  1.3153 -1.3383
  114MOL0     H15383  10.711   6.994   6.408  0.5488 -0.2230 -0.0666
  114MOL0     H15384  10.499   7.024   6.269  2.4792 -2.3309  1.2379
  114MOL0     H15385  10.478   7.176   6.356 -0.2331  1.1191  1.2585
  114MOL0     H15386  10.479   7.031   6.577 -3.1963 -3.8085  2.6614
  114MOL0     H15387  10.471   6.894   6.470 -2.5488 -0.3445 -0.8617
  114MOL0     H15388  10.081   7.032   6.446  0.8149  1.1876  2.8307
  114MOL0     H15389  10.897   7.154   5.956 -0.0675 -0.6001 -0.9599
  114MOL0     H15390  11.057   6.999   5.867  0.7383  1.0018  2.7755
  115MOL0     O15391   8.183   6.866   7.294 -0.2083 -0.1973 -0.6235
  115MOL0     C15392   8.163   6.745   7.325  0.0388 -0.3104 -0.2828
  115MOL0     O15393   8.253   6.651   7.320 -0.0588  0.1650  0.6851
  115MOL0     C15394   8.375   6.684   7.264 -0.8544  0.1441  0.1262
  115MOL0     C15395   8.401   6.623   7.142  0.5637 -0.4906 -0.2628
  115MOL0     C15396   8.519   6.654   7.062  0.9138  0.1144  0.1599
  115MOL0     C15397   8.598   6.758   7.109 -0.2308  0.1690 -0.2645
  115MOL0     O15398   8.704   6.799   7.031  0.0914 -0.7868  0.3877
  115MOL0     C15399   8.732   6.753   6.897 -0.2642  0.4297 -0.2534
  115MOL0     C15400   8.865   6.808   6.845  0.3079 -0.2147  0.0881
  115MOL0     C15401   8.883   6.955   6.902  0.2538 -0.8445  0.3446
  115MOL0     C15402   9.026   6.996   6.870 -0.6754 -0.9838 -0.6047
  115MOL0     C15403   9.054   7.147   6.891  0.7841  0.1374  0.5404
  115MOL0     C15404   9.206   7.182   6.902 -0.2339  0.7013  0.2468
  115MOL0     C15405   9.222   7.332   6.909 -0.0059 -0.3440 -0.0938
  115MOL0     C15406   9.368   7.362   6.903 -0.5514  0.3149  0.6925
  115MOL0     N15407   9.402   7.505   6.911 -0.6981 -0.2920 -0.9773
  115MOL0     C15408   9.334   7.609   6.849  0.6624 -0.6034  0.5358
  115MOL0     C15409   9.409   7.717   6.865 -0.1615 -0.4342 -0.4182
  115MOL0     C15410   9.387   7.860   6.824 -0.6117  0.0822 -0.3761
  115MOL0     C15411   9.349   7.941   6.949  0.1366  0.2669  0.3704
  115MOL0     C15412   9.324   8.090   6.902 -0.3255 -0.4433 -0.1216
  115MOL0     C15413   9.304   8.195   7.013 -0.1072  0.2182  0.0419
  115MOL0     O15414   9.190   8.156   7.089 -0.4592 -0.6027 -0.1385
  115MOL0     C15415   9.135   8.260   7.167 -0.1643  0.9249  0.6358
  115MOL0     C15416   9.016   8.241   7.219  0.3773 -0.4806  0.2742
  115MOL0     C15417   8.960   8.328   7.301  0.5475  0.2922  1.1364
  115MOL0     C15418   8.829   8.271   7.355 -0.9036  0.5518 -0.9567
  115MOL0     C15419   9.023   8.452   7.335 -0.0073  0.3616 -0.8884
  115MOL0     C15420   8.958   8.551   7.434  0.3956  0.1344 -0.3795
  115MOL0     O15421   9.046   8.648   7.477 -0.2074 -0.2121 -1.1414
  115MOL0     C15422   8.991   8.750   7.554  0.1887  0.1773 -0.3167
  115MOL0     C15423   8.966   8.731   7.691 -0.5063 -0.0364 -1.1848
  115MOL0     C15424   8.908   8.834   7.772  0.4658 -0.2944  0.4553
  115MOL0     C15425   8.872   8.957   7.708  0.0329 -0.2494 -0.6409
  115MOL0     O15426   8.820   9.062   7.778  0.3471 -0.4180 -0.4531
  115MOL0     C15427   8.889   9.185   7.784 -0.0318 -0.4831 -0.5469
  115MOL0     C15428   8.829   9.281   7.880  0.4990  0.2886 -0.8015
  115MOL0     C15429   8.888   9.420   7.871  0.8422 -0.2933 -0.8332
  115MOL0     C15430   8.795   9.531   7.914 -0.2741 -0.0434  0.0307
  115MOL0     C15431   8.775   9.533   8.071  0.5539 -0.8230  0.0855
  115MOL0     C15432   8.682   9.636   8.108 -0.2558  0.4648 -0.2614
  115MOL0     C15433   8.682   9.661   8.259  0.7126  0.6597 -0.4391
  115MOL0     C15434   8.581   9.755   8.323 -1.2367  0.7118 -0.5606
  115MOL0    Cl15435   8.412   9.699   8.346  0.3026 -0.1912  0.2371
  115MOL0     C15436   8.909   8.976   7.576 -0.4210  0.1666  0.4972
  115MOL0     C15437   8.967   8.871   7.502  0.7580 -1.2110  0.1265
  115MOL0     O15438   8.843   8.531   7.467  0.6427  0.3619  0.5528
  115MOL0     C15439   9.152   8.476   7.286  0.1068  0.5093 -0.2565
  115MOL0     C15440   9.203   8.386   7.198 -0.1255  0.1579  0.9690
  115MOL0     N15441   9.521   7.674   6.929 -0.1316  0.0441  0.4535
  115MOL0     N15442   9.524   7.549   6.953 -0.0360  0.6701  1.0841
  115MOL0     C15443   8.565   6.824   7.229 -0.0473  0.1520 -0.8138
  115MOL0     C15444   8.462   6.782   7.309  0.0407 -0.0221 -0.0407
  115MOL0     C15445   8.031   6.699   7.367 -0.5060 -0.9692 -0.1559
  115MOL0     C15446   7.916   6.765   7.322 -0.7257 -0.2427  0.0008
  115MOL0     C15447   7.783   6.715   7.348  0.2648  0.2731  0.2523
  115MOL0     C15448   7.770   6.604   7.430  0.5613 -0.1210 -0.2429
  115MOL0     O15449   7.652   6.552   7.477  0.7965  0.2002 -0.0031
  115MOL0     C15450   7.542   6.552   7.388  0.8937 -1.5327  0.0282
  115MOL0     C15451   7.431   6.464   7.450 -0.3068 -0.1922 -0.4921
  115MOL0     C15452   7.310   6.427   7.348  0.2343 -1.3023  0.0352
  115MOL0     C15453   7.243   6.297   7.378  1.0852 -0.6140  0.5590
  115MOL0     C15454   7.324   6.193   7.309 -0.4159 -0.6803 -0.9562
  115MOL0     C15455   7.395   6.102   7.268  0.8935 -0.8496 -0.0759
  115MOL0     C15456   7.884   6.547   7.480  0.1648 -0.1926  0.3376
  115MOL0     C15457   8.014   6.585   7.450  0.4045  0.0451 -0.0266
  115MOL0     H15458   8.336   6.544   7.107  0.3256 -0.4320  0.0431
  115MOL0     H15459   8.535   6.604   6.967  1.7454 -2.1085  1.4001
  115MOL0     H15460   8.740   6.644   6.900  2.2220  0.5446 -0.4781
  115MOL0     H15461   8.647   6.783   6.834 -1.6114 -0.8202  0.9013
  115MOL0     H15462   8.949   6.748   6.882  2.1916  0.6036 -2.5701
  115MOL0     H15463   8.868   6.824   6.737 -0.7562  0.7185  0.1795
  115MOL0     H15464   8.819   7.035   6.863  1.7488  1.3927  2.2113
  115MOL0     H15465   8.867   6.964   7.010 -2.8072 -1.2219  0.0043
  115MOL0     H15466   9.095   6.938   6.933  0.5629  1.8291  0.8096
  115MOL0     H15467   9.043   6.966   6.767 -1.8025 -2.2782 -0.4568
  115MOL0     H15468   9.006   7.202   6.809 -4.1084 -2.3575  1.3800
  115MOL0     H15469   9.006   7.174   6.986  0.9517  0.8419  0.4344
  115MOL0     H15470   9.260   7.136   6.986  1.1000  0.9693 -0.4269
  115MOL0     H15471   9.251   7.151   6.807 -2.4507 -1.4995 -0.1898
  115MOL0     H15472   9.167   7.377   6.826  0.7381  1.1596  0.1933
  115MOL0     H15473   9.186   7.373   7.004  2.7149 -1.9450  1.7764
  115MOL0     H15474   9.404   7.325   6.807 -0.2915  2.2011  0.0212
  115MOL0     H15475   9.423   7.317   6.985  1.0724 -2.3605 -1.6966
  115MOL0     H15476   9.231   7.616   6.816  0.5646  1.4887  1.1373
  115MOL0     H15477   9.477   7.898   6.776 -0.3709 -2.1011 -1.7960
  115MOL0     H15478   9.311   7.853   6.746  0.9998 -0.7251 -1.9622
  115MOL0     H15479   9.439   7.940   7.011  1.3469  1.4911 -1.2835
  115MOL0     H15480   9.263   7.889   6.991  0.9827 -2.4212 -0.9824
  115MOL0     H15481   9.232   8.102   6.845  1.0394  3.7750 -1.8491
  115MOL0     H15482   9.414   8.131   6.854 -0.0999  1.4515  1.7842
  115MOL0     H15483   9.312   8.297   6.975  1.4831  0.7947  1.7451
  115MOL0     H15484   9.397   8.186   7.071 -0.0063  1.5465  0.1244
  115MOL0     H15485   8.967   8.144   7.211 -1.4912  0.3818  0.6514
  115MOL0     H15486   8.797   8.176   7.313 -0.1495 -0.7747  1.3016
  115MOL0     H15487   8.852   8.253   7.461  0.7302 -0.2222 -1.4022
  115MOL0     H15488   8.745   8.341   7.358 -1.2998  0.1033  2.2851
  115MOL0     H15489   8.983   8.632   7.732  0.3529 -0.1045 -1.6903
  115MOL0     H15490   8.897   8.818   7.879 -1.7905 -0.2343  0.2943
  115MOL0     H15491   8.992   9.161   7.812  0.2765 -2.0179 -2.7761
  115MOL0     H15492   8.882   9.229   7.684  4.5440 -0.0781 -0.9310
  115MOL0     H15493   8.722   9.289   7.862 -0.6144 -1.5476  3.6622
  115MOL0     H15494   8.826   9.235   7.979  1.2393  0.2971 -0.7669
  115MOL0     H15495   8.920   9.448   7.770  0.5172  0.7090 -0.6723
  115MOL0     H15496   8.973   9.420   7.940  1.1486 -0.4290 -1.2011
  115MOL0     H15497   8.834   9.631   7.892 -0.2813  0.2825  1.3578
  115MOL0     H15498   8.704   9.526   7.854  0.7485 -1.4976 -1.4763
  115MOL0     H15499   8.876   9.553   8.106  1.5107 -2.6950 -1.3918
  115MOL0     H15500   8.751   9.436   8.116  0.7391  0.1712  2.4707
  115MOL0     H15501   8.705   9.725   8.049 -0.4805  0.4270 -0.4056
  115MOL0     H15502   8.581   9.595   8.097 -0.9421  0.4962  3.9271
  115MOL0     H15503   8.782   9.703   8.273  0.7882 -0.0771  1.5580
  115MOL0     H15504   8.681   9.563   8.307  2.2913 -1.0911 -3.6304
  115MOL0     H15505   8.577   9.846   8.263  0.3909  0.6577 -0.7812
  115MOL0     H15506   8.613   9.788   8.422 -2.0873  0.2251 -0.1068
  115MOL0     H15507   8.878   9.061   7.517  0.5820 -0.3382 -0.8089
  115MOL0     H15508   8.987   8.880   7.396  0.6345  1.0421  0.2398
  115MOL0     H15509   9.212   8.564   7.306  1.9663 -0.4510 -1.4483
  115MOL0     H15510   9.304   8.399   7.162 -0.7971 -1.3224 -1.6711
  115MOL0     H15511   8.625   6.912   7.247 -0.1451 -0.0292  0.5569
  115MOL0     H15512   8.428   6.843   7.392  0.9476 -1.4247  1.4097
  115MOL0     H15513   7.925   6.858   7.267 -0.9776  1.8526  3.1931
  115MOL0     H15514   7.713   6.775   7.290  1.5242  1.6177  0.0663
  115MOL0     H15515   7.496   6.651   7.376  3.1664 -0.4080 -0.0583
  115MOL0     H15516   7.572   6.525   7.286 -2.1628 -1.5552 -0.9624
  115MOL0     H15517   7.392   6.516   7.538 -2.9622 -0.7413 -1.2483
  115MOL0     H15518   7.470   6.367   7.483 -0.9439 -0.7954 -1.4360
  115MOL0     H15519   7.343   6.426   7.244 -1.5753  1.6627 -0.6796
  115MOL0     H15520   7.245   6.515   7.351  1.4762 -0.3853  1.7758
  115MOL0     H15521   7.140   6.294   7.341  0.8882 -3.3826  1.1352
  115MOL0     H15522   7.233   6.275   7.485  1.8167 -1.3981  0.4726
  115MOL0     H15523   7.446   6.023   7.217  0.8366 -0.4691 -0.7418
  115MOL0     H15524   7.877   6.465   7.551  1.1868 -0.2231  0.4160
  115MOL0     H15525   8.097   6.532   7.496 -0.7447 -0.1410  1.9517
  116MOL0     O15526   3.467   8.183   0.686  0.0361  0.7549 -0.0444
  116MOL0     C15527   3.531   8.271   0.741 -0.3304  0.7576  0.5690
  116MOL0     O15528   3.668   8.265   0.772 -0.6549 -1.3326  0.5678
  116MOL0     C15529   3.754   8.172   0.730  0.1269  0.5839 -0.0626
  116MOL0     C15530   3.723   8.040   0.705  0.0183  0.3996  0.7422
  116MOL0     C15531   3.819   7.951   0.659  0.4147 -0.1085 -0.2941
  116MOL0     C15532   3.945   7.990   0.614  0.7661 -0.4722  0.1138
  116MOL0     O15533   4.025   7.886   0.576  0.0467 -0.0319 -0.0514
  116MOL0     C15534   4.137   7.904   0.486  0.0248  1.0243  0.8461
  116MOL0     C15535   4.106   7.894   0.340  0.3516 -0.5211 -0.9506
  116MOL0     C15536   4.225   7.913   0.239  0.2908  0.8202 -0.3069
  116MOL0     C15537   4.269   7.773   0.201  1.0433  0.3405 -0.2853
  116MOL0     C15538   4.370   7.769   0.077  0.5211  0.1503  0.0693
  116MOL0     C15539   4.512   7.839   0.109  0.4628 -0.5439  0.0317
  116MOL0     C15540   4.625   7.772   0.029 -0.4248  0.4384  0.0757
  116MOL0     C15541   4.659   7.622   0.080  0.1149  0.3463  0.5160
  116MOL0     N15542   4.712   7.620   0.218  0.5504 -0.3317  0.0129
  116MOL0     C15543   4.634   7.612   0.326 -0.5308 -0.3139 -0.0445
  116MOL0     C15544   4.717   7.640   0.426  0.0867  0.1090 -0.2612
  116MOL0     C15545   4.661   7.644   0.568  0.4022  0.7604 -0.8077
  116MOL0     C15546   4.532   7.734   0.597 -0.0599  0.6647 -0.8370
  116MOL0     C15547   4.520   7.758   0.747 -0.0891  0.0278  0.5342
  116MOL0     C15548   4.393   7.825   0.795 -0.9336 -0.6242 -0.0389
  116MOL0     O15549   4.404   7.873   0.930 -0.5441 -0.7890 -0.0797
  116MOL0     C15550   4.354   7.795   1.026 -0.8584 -0.4229 -1.0862
  116MOL0     C15551   4.316   7.666   1.014  0.1110  0.6322  0.3725
  116MOL0     C15552   4.250   7.602   1.115 -0.4111  0.0405 -0.0203
  116MOL0     C15553   4.247   7.452   1.116 -1.3120  0.3983  0.1735
  116MOL0     C15554   4.217   7.672   1.232 -0.3020  0.4608  0.1739
  116MOL0     C15555   4.112   7.623   1.325 -0.6611  1.0043 -0.8714
  116MOL0     O15556   4.135   7.606   1.455 -0.1174  0.3648 -0.0268
  116MOL0     C15557   4.266   7.613   1.488 -0.5142  0.0076  0.5910
  116MOL0     C15558   4.311   7.730   1.563 -0.4023 -0.8138 -0.0032
  116MOL0     C15559   4.429   7.719   1.624 -0.4589 -0.1469 -0.6883
  116MOL0     C15560   4.514   7.619   1.613  0.2215 -1.1143  0.1165
  116MOL0     O15561   4.631   7.626   1.678 -0.0817 -0.3617  1.0323
  116MOL0     C15562   4.750   7.566   1.625 -0.1594  1.1104  0.2638
  116MOL0     C15563   4.880   7.619   1.679 -0.0926 -0.3182 -0.5251
  116MOL0     C15564   4.882   7.771   1.682 -0.3353  0.2903 -0.1679
  116MOL0     C15565   5.018   7.804   1.750  0.4301 -0.2008  0.5759
  116MOL0     C15566   5.137   7.761   1.658  0.0706 -0.4473  0.4797
  116MOL0     C15567   5.259   7.847   1.692  0.2243  0.1683 -0.4335
  116MOL0     C15568   5.382   7.825   1.593  0.4665  0.1227 -0.6439
  116MOL0     C15569   5.506   7.902   1.611 -0.0531 -0.1427  0.1808
  116MOL0    Cl15570   5.467   8.072   1.573 -0.0465  0.1167 -0.6994
  116MOL0     C15571   4.477   7.511   1.529  0.4923 -0.2135 -0.8632
  116MOL0     C15572   4.352   7.507   1.467 -0.0501  0.0997 -0.0210
  116MOL0     O15573   4.005   7.596   1.276  0.2939 -0.0452 -0.3087
  116MOL0     C15574   4.260   7.803   1.253 -0.5359  1.0622  0.5324
  116MOL0     C15575   4.326   7.866   1.149 -0.7224  0.3294 -0.7924
  116MOL0     N15576   4.841   7.678   0.382  0.8543  0.4596 -0.2169
  116MOL0     N15577   4.837   7.660   0.257 -1.0004 -0.4025  0.4372
  116MOL0     C15578   3.977   8.123   0.632 -1.0612  0.4184  0.0612
  116MOL0     C15579   3.884   8.211   0.690  0.4119 -0.8001  0.4480
  116MOL0     C15580   3.447   8.369   0.813  0.1268  0.1044  0.0730
  116MOL0     C15581   3.510   8.473   0.880 -0.2277  0.2720 -0.2116
  116MOL0     C15582   3.436   8.563   0.960 -0.4282 -0.0910  1.2355
  116MOL0     C15583   3.297   8.560   0.962  0.1655 -1.2438  0.1579
  116MOL0     O15584   3.233   8.660   1.033  0.2646  0.5868  0.6045
  116MOL0     C15585   3.090   8.663   1.028  0.4523  0.1379 -0.1385
  116MOL0     C15586   3.040   8.608   1.172  0.1242 -0.7561  0.0880
  116MOL0     C15587   3.108   8.687   1.289  0.8150  0.3413 -0.0556
  116MOL0     C15588   3.019   8.676   1.408 -0.1635 -0.3744 -0.3386
  116MOL0     C15589   3.068   8.755   1.519 -0.4684  0.7181 -0.2621
  116MOL0     C15590   3.114   8.814   1.603 -0.8439 -0.4829 -0.3422
  116MOL0     C15591   3.233   8.466   0.876  0.4161 -0.0167  0.0395
  116MOL0     C15592   3.309   8.374   0.805 -0.9100  0.6832  0.5567
  116MOL0     H15593   3.623   8.004   0.726  0.8532 -2.3163  0.3797
  116MOL0     H15594   3.800   7.845   0.648  1.2100 -0.0778 -2.5467
  116MOL0     H15595   4.189   7.998   0.503  0.0027  1.0431  0.8114
  116MOL0     H15596   4.221   7.840   0.514  1.7020  2.1577 -1.3333
  116MOL0     H15597   4.049   7.800   0.338  1.6803 -1.3414 -1.4784
  116MOL0     H15598   4.034   7.974   0.322 -0.6130 -0.9291  0.8363
  116MOL0     H15599   4.186   7.951   0.144 -3.8543  0.1689  0.9389
  116MOL0     H15600   4.311   7.973   0.269 -1.0941  2.4526  0.5435
  116MOL0     H15601   4.306   7.721   0.289  0.5267  0.8362  0.2290
  116MOL0     H15602   4.178   7.717   0.177  0.1047  2.5795 -2.4491
  116MOL0     H15603   4.367   7.662   0.056  0.8119  0.2083 -0.2665
  116MOL0     H15604   4.321   7.814  -0.010  2.2355 -1.1887 -1.6764
  116MOL0     H15605   4.504   7.945   0.081 -0.6715 -0.1455  1.7072
  116MOL0     H15606   4.543   7.832   0.213  2.7022  2.1080 -0.3396
  116MOL0     H15607   4.610   7.778  -0.079  1.8429  0.5501 -0.2937
  116MOL0     H15608   4.713   7.835   0.047  1.2169 -1.6729 -0.2036
  116MOL0     H15609   4.731   7.570   0.017 -0.3074 -0.0105  0.3145
  116MOL0     H15610   4.573   7.554   0.086  0.9074 -0.6814  0.6021
  116MOL0     H15611   4.530   7.580   0.329  0.5058 -4.0855  1.1471
  116MOL0     H15612   4.631   7.539   0.575 -2.1433  1.4671  0.0527
  116MOL0     H15613   4.741   7.671   0.638 -0.2599  1.3927 -0.2875
  116MOL0     H15614   4.440   7.691   0.555  1.0723 -2.4883 -0.3538
  116MOL0     H15615   4.541   7.826   0.538 -0.2294 -0.5603 -2.8972
  116MOL0     H15616   4.605   7.821   0.773 -2.2351  2.8544  1.1203
  116MOL0     H15617   4.529   7.660   0.795  2.8929 -0.7567 -1.3368
  116MOL0     H15618   4.294   7.779   0.788 -2.4402  1.5093  4.0102
  116MOL0     H15619   4.399   7.917   0.736  0.2671  1.5097  3.1566
  116MOL0     H15620   4.345   7.603   0.930  1.7612 -0.9014  2.0091
  116MOL0     H15621   4.191   7.423   1.205 -0.3437  3.3813  1.9178
  116MOL0     H15622   4.208   7.413   1.021  1.6708  0.9940 -1.4290
  116MOL0     H15623   4.346   7.406   1.120 -2.2621 -2.3295 -3.1888
  116MOL0     H15624   4.249   7.820   1.563 -1.5613 -1.5877  0.2031
  116MOL0     H15625   4.460   7.811   1.673  3.8146 -0.1510 -2.9662
  116MOL0     H15626   4.746   7.457   1.630  0.9459  1.0679  0.4540
  116MOL0     H15627   4.760   7.592   1.520  0.7511 -2.5961 -0.6980
  116MOL0     H15628   4.890   7.589   1.784 -1.0251  1.5918  0.1597
  116MOL0     H15629   4.960   7.574   1.619 -1.0390 -1.5631 -0.8894
  116MOL0     H15630   4.808   7.819   1.748  2.2202  3.6871  0.5188
  116MOL0     H15631   4.876   7.812   1.581  0.3808 -0.8596 -0.6917
  116MOL0     H15632   5.017   7.913   1.758  0.4604 -0.1327 -0.2360
  116MOL0     H15633   5.033   7.757   1.847 -1.1875  2.4853  2.2611
  116MOL0     H15634   5.116   7.765   1.550 -0.6814 -3.1353  0.4627
  116MOL0     H15635   5.159   7.659   1.691 -0.2447 -0.0267  2.0775
  116MOL0     H15636   5.219   7.949   1.685  0.2077  0.0742 -1.8107
  116MOL0     H15637   5.293   7.825   1.794  4.7609 -0.2227 -1.8130
  116MOL0     H15638   5.361   7.836   1.486 -2.9684 -1.1039 -0.1964
  116MOL0     H15639   5.409   7.719   1.595  1.1388  0.2895 -0.5772
  116MOL0     H15640   5.580   7.857   1.545 -1.9345 -1.7670 -0.9104
  116MOL0     H15641   5.535   7.887   1.715 -0.6416 -1.8169  0.1240
  116MOL0     H15642   4.554   7.439   1.503 -0.7154 -0.9195 -2.6689
  116MOL0     H15643   4.327   7.421   1.405 -0.6877 -0.4339  0.9580
  116MOL0     H15644   4.229   7.859   1.341 -3.2692 -0.6584  0.7953
  116MOL0     H15645   4.356   7.968   1.169 -2.5800  0.8161 -0.2495
  116MOL0     H15646   4.080   8.150   0.610 -0.4657 -1.3651  0.4745
  116MOL0     H15647   3.921   8.312   0.705 -0.7365  0.1111 -2.1788
  116MOL0     H15648   3.618   8.479   0.889 -0.2664  3.2279 -0.6638
  116MOL0     H15649   3.494   8.638   1.012  1.3054  0.3447 -1.1740
  116MOL0     H15650   3.071   8.770   1.021 -1.3107 -0.1532 -0.2432
  116MOL0     H15651   3.032   8.612   0.951  1.2692 -0.1586 -0.5679
  116MOL0     H15652   3.051   8.500   1.188 -1.8634 -0.8788  0.9272
  116MOL0     H15653   2.936   8.640   1.161  0.8844  0.9773 -3.8570
  116MOL0     H15654   3.134   8.790   1.261  2.3638  0.4814  1.6836
  116MOL0     H15655   3.204   8.641   1.314  0.5219 -1.9717 -2.7485
  116MOL0     H15656   3.031   8.577   1.453 -0.1776  0.1417  0.8174
  116MOL0     H15657   2.913   8.699   1.394 -0.6900 -0.3278  3.0542
  116MOL0     H15658   3.170   8.886   1.659  2.0371 -1.8052 -1.3367
  116MOL0     H15659   3.126   8.462   0.857  0.7767  1.2350 -2.8677
  116MOL0     H15660   3.263   8.293   0.749 -2.0503  0.6121  1.5481
  117MOL0     O15661   3.419   7.369   1.574 -0.9351  0.5751  0.4094
  117MOL0     C15662   3.481   7.270   1.525  0.3244  0.8557  0.3578
  117MOL0     O15663   3.598   7.209   1.579 -0.5829  0.4151  0.3174
  117MOL0     C15664   3.656   7.256   1.695 -0.1197 -0.5283  0.2945
  117MOL0     C15665   3.781   7.317   1.691  0.4835 -0.1762 -0.0966
  117MOL0     C15666   3.843   7.371   1.801 -0.0178 -0.0532  0.3470
  117MOL0     C15667   3.774   7.370   1.931 -0.4319 -0.0997  0.3690
  117MOL0     O15668   3.846   7.440   2.029  0.0899  0.6031 -0.3144
  117MOL0     C15669   3.766   7.526   2.119  0.4073 -0.1001 -0.4427
  117MOL0     C15670   3.778   7.473   2.264  0.5947  0.5307  0.0257
  117MOL0     C15671   3.908   7.469   2.338 -0.4706  0.2467  0.0273
  117MOL0     C15672   3.976   7.602   2.321  0.6720  0.1069 -0.6635
  117MOL0     C15673   4.101   7.603   2.392  0.2411  1.2821 -0.9861
  117MOL0     C15674   4.218   7.569   2.303  0.7964 -0.3133 -0.4537
  117MOL0     C15675   4.358   7.574   2.382 -0.3333  0.8335 -0.2692
  117MOL0     C15676   4.358   7.467   2.497 -0.3593 -0.3190 -0.3514
  117MOL0     N15677   4.501   7.471   2.537  0.5565 -0.0121  0.4337
  117MOL0     C15678   4.565   7.526   2.642 -0.9014  0.0779 -0.0418
  117MOL0     C15679   4.699   7.492   2.617  0.1348 -0.0902 -0.7359
  117MOL0     C15680   4.811   7.523   2.709 -0.6203  0.2726  0.7369
  117MOL0     C15681   4.770   7.534   2.856  0.2827  0.8720 -0.3454
  117MOL0     C15682   4.789   7.406   2.942 -0.1580 -0.2055 -1.1691
  117MOL0     C15683   4.938   7.406   2.995 -1.2720 -0.5117  0.7897
  117MOL0     O15684   4.962   7.290   3.074  0.5135  0.0341 -0.2994
  117MOL0     C15685   5.066   7.279   3.167 -0.7154  0.2802  0.8081
  117MOL0     C15686   5.087   7.157   3.212  0.0547  0.4213  0.3703
  117MOL0     C15687   5.179   7.121   3.307  0.1982 -0.8465  0.4025
  117MOL0     C15688   5.192   6.972   3.353  0.3543  0.6351 -0.1022
  117MOL0     C15689   5.269   7.223   3.350  0.2605 -1.0843 -0.6860
  117MOL0     C15690   5.381   7.209   3.437 -0.1324  0.9628 -0.2019
  117MOL0     O15691   5.494   7.284   3.409 -0.4778 -0.0339 -0.3335
  117MOL0     C15692   5.613   7.263   3.476 -0.4828 -0.6444 -0.5423
  117MOL0     C15693   5.658   7.146   3.527  0.7128  0.9628 -0.5930
  117MOL0     C15694   5.780   7.144   3.594 -0.0020 -0.3759 -0.1843
  117MOL0     C15695   5.864   7.247   3.610  0.5453  0.0326  0.6961
  117MOL0     O15696   5.971   7.225   3.691  0.2514  0.5343 -0.1761
  117MOL0     C15697   6.102   7.276   3.660 -0.0996  0.6695  0.5276
  117MOL0     C15698   6.177   7.319   3.777  0.3690  1.1760  0.6846
  117MOL0     C15699   6.140   7.451   3.830  0.4109 -1.0740 -0.0856
  117MOL0     C15700   6.233   7.469   3.954 -0.5233 -0.1171  0.5913
  117MOL0     C15701   6.225   7.612   4.008 -0.5413 -0.8225 -0.1881
  117MOL0     C15702   6.347   7.633   4.101 -0.8924  1.9034  0.2139
  117MOL0     C15703   6.334   7.768   4.160  0.4888  0.8563  0.6193
  117MOL0     C15704   6.464   7.798   4.235 -0.0022 -0.8775  0.5813
  117MOL0    Cl15705   6.588   7.813   4.121  0.1625 -0.2582 -0.1256
  117MOL0     C15706   5.818   7.372   3.561 -0.2631  0.3645  0.5020
  117MOL0     C15707   5.697   7.375   3.489  0.0485 -0.8669  0.2084
  117MOL0     O15708   5.370   7.138   3.540  0.2862 -0.3057 -0.6472
  117MOL0     C15709   5.263   7.357   3.299  0.5511  0.7376  0.5746
  117MOL0     C15710   5.157   7.383   3.201  0.6303 -0.8349 -0.1594
  117MOL0     N15711   4.705   7.408   2.509 -0.6386  0.1641 -0.1724
  117MOL0     N15712   4.591   7.396   2.465 -0.6706  0.0985  0.2685
  117MOL0     C15713   3.654   7.298   1.940 -0.6071  0.1886  1.1331
  117MOL0     C15714   3.592   7.254   1.823  1.0755  0.8153  0.4720
  117MOL0     C15715   3.429   7.209   1.401  0.1911  0.2792 -1.2605
  117MOL0     C15716   3.511   7.121   1.332 -0.0572  0.0491 -0.1013
  117MOL0     C15717   3.470   7.074   1.201  0.1434  0.1067  0.0853
  117MOL0     C15718   3.364   7.131   1.136 -0.1539 -0.0777 -0.1514
  117MOL0     O15719   3.314   7.106   1.005 -0.2162  0.0268  0.2452
  117MOL0     C15720   3.378   6.995   0.938  0.8031 -0.4402  0.0654
  117MOL0     C15721   3.501   7.037   0.858 -1.4494  0.5381  0.0127
  117MOL0     C15722   3.467   7.140   0.750  0.8978 -0.9702 -1.2626
  117MOL0     C15723   3.560   7.137   0.635  0.0116 -0.0761  0.6593
  117MOL0     C15724   3.534   7.254   0.540  0.2739  0.1362  0.1063
  117MOL0     C15725   3.521   7.344   0.460 -0.1684  0.5180  0.2691
  117MOL0     C15726   3.279   7.225   1.211 -0.0727 -0.1833 -0.0882
  117MOL0     C15727   3.310   7.257   1.351  0.7513  0.0351 -0.2520
  117MOL0     H15728   3.839   7.299   1.601 -0.0336 -1.1767 -0.2489
  117MOL0     H15729   3.936   7.425   1.792  0.0409 -0.3445 -1.0842
  117MOL0     H15730   3.782   7.632   2.099  0.6174  0.2606  1.4010
  117MOL0     H15731   3.662   7.512   2.088 -0.9124  3.0985  1.9779
  117MOL0     H15732   3.719   7.549   2.316 -2.4488 -1.3136 -0.4908
  117MOL0     H15733   3.730   7.376   2.275 -1.9933  1.7005 -0.2292
  117MOL0     H15734   3.895   7.436   2.441  2.2346 -0.8386  0.0903
  117MOL0     H15735   3.964   7.393   2.283  0.5860 -0.4176  1.9444
  117MOL0     H15736   3.994   7.628   2.216 -0.2127  0.6491 -0.6935
  117MOL0     H15737   3.898   7.666   2.363  0.6744 -0.2617 -0.1003
  117MOL0     H15738   4.110   7.705   2.430  0.3116  1.0485 -0.3638
  117MOL0     H15739   4.112   7.523   2.466 -1.8556  0.7176 -1.2193
  117MOL0     H15740   4.202   7.476   2.248 -1.6394  0.8374 -1.8595
  117MOL0     H15741   4.217   7.643   2.222  1.4734  1.0298  0.7204
  117MOL0     H15742   4.435   7.555   2.307 -0.5136 -0.4450 -0.1523
  117MOL0     H15743   4.371   7.673   2.425 -1.0873  0.2871  1.2647
  117MOL0     H15744   4.322   7.373   2.454  0.9200 -0.5135 -1.0487
  117MOL0     H15745   4.301   7.487   2.588 -0.3766 -1.4206 -0.1119
  117MOL0     H15746   4.520   7.598   2.710 -0.5373  0.6724 -0.4194
  117MOL0     H15747   4.880   7.439   2.699 -2.1606 -0.7799 -2.3064
  117MOL0     H15748   4.848   7.620   2.675  3.5802 -1.3476  0.1562
  117MOL0     H15749   4.663   7.554   2.865 -0.2758 -0.3185 -3.3847
  117MOL0     H15750   4.832   7.613   2.901  0.3209  0.9370 -0.5134
  117MOL0     H15751   4.770   7.308   2.895 -0.0200 -1.9375  2.0940
  117MOL0     H15752   4.719   7.419   3.025  0.4003  0.1273 -0.7391
  117MOL0     H15753   4.953   7.495   3.057 -3.5186 -0.4469  1.3310
  117MOL0     H15754   5.009   7.416   2.912 -1.0902 -1.7853  0.7791
  117MOL0     H15755   5.026   7.075   3.175 -0.7226  0.7331  0.9234
  117MOL0     H15756   5.283   6.919   3.323 -1.2452 -1.6624 -1.2391
  117MOL0     H15757   5.196   6.971   3.462 -1.9854 -1.1946  0.0218
  117MOL0     H15758   5.106   6.922   3.308  1.2027 -0.5597 -0.4599
  117MOL0     H15759   5.599   7.055   3.527 -0.4276  1.5894  2.6101
  117MOL0     H15760   5.795   7.055   3.654 -1.4734  0.6550  1.8762
  117MOL0     H15761   6.157   7.190   3.622 -0.8981  0.2184  0.3788
  117MOL0     H15762   6.107   7.358   3.587 -0.9595  0.2772  0.0177
  117MOL0     H15763   6.147   7.252   3.857 -0.1872  4.7740  3.7598
  117MOL0     H15764   6.285   7.309   3.761  0.3311 -1.1777  1.5745
  117MOL0     H15765   6.035   7.458   3.861  0.6429  0.1359  0.5028
  117MOL0     H15766   6.155   7.538   3.764 -2.5367 -1.1449 -0.9968
  117MOL0     H15767   6.232   7.394   4.033  2.5113 -1.4239 -0.4410
  117MOL0     H15768   6.330   7.467   3.902 -1.7867  0.5730 -1.9649
  117MOL0     H15769   6.130   7.617   4.062  0.0429 -2.7396  1.1115
  117MOL0     H15770   6.226   7.695   3.937 -3.6756 -0.8141 -0.3209
  117MOL0     H15771   6.353   7.559   4.181  2.9742  0.2534 -1.3335
  117MOL0     H15772   6.438   7.623   4.041  0.2298  2.1132  1.8282
  117MOL0     H15773   6.247   7.773   4.227  1.2749 -3.4929  2.2683
  117MOL0     H15774   6.340   7.834   4.073 -0.1874 -1.0404 -0.9513
  117MOL0     H15775   6.488   7.721   4.308 -0.1559  0.4072  2.0269
  117MOL0     H15776   6.461   7.897   4.281  2.3458  0.0134 -0.9486
  117MOL0     H15777   5.873   7.465   3.566  0.7347 -0.2613  2.6559
  117MOL0     H15778   5.670   7.475   3.457  0.7502 -0.7730 -0.1141
  117MOL0     H15779   5.341   7.424   3.333 -0.0826  1.8544 -0.1170
  117MOL0     H15780   5.161   7.483   3.157 -1.1833 -1.5147 -2.0579
  117MOL0     H15781   3.591   7.294   2.028 -2.5692 -3.3523 -0.2216
  117MOL0     H15782   3.490   7.218   1.834  1.7036 -1.2624  0.0552
  117MOL0     H15783   3.591   7.077   1.391 -0.8542 -1.0436  0.2102
  117MOL0     H15784   3.528   6.994   1.156  5.1436  2.5499  1.3733
  117MOL0     H15785   3.394   6.918   1.014 -1.8308  2.7636  4.3266
  117MOL0     H15786   3.309   6.949   0.866  2.0700  1.3959 -2.4881
  117MOL0     H15787   3.526   6.942   0.810 -1.5510  0.6639 -0.2916
  117MOL0     H15788   3.581   7.065   0.927  1.0858  0.0148 -2.5485
  117MOL0     H15789   3.461   7.239   0.797  1.8411 -0.8901 -1.2973
  117MOL0     H15790   3.367   7.108   0.722  0.3264  0.9434 -1.5512
  117MOL0     H15791   3.534   7.043   0.584 -1.3406 -0.0982  1.3512
  117MOL0     H15792   3.661   7.142   0.678 -0.6506  0.7295  2.1933
  117MOL0     H15793   3.524   7.426   0.390  0.0328  0.0065 -0.3282
  117MOL0     H15794   3.189   7.275   1.179 -0.7395 -0.8864  0.6361
  117MOL0     H15795   3.250   7.333   1.400 -0.4851 -1.9139  1.4168
  118MOL0     O15796   5.109   9.140   0.471 -0.0399  0.0209  0.1334
  118MOL0     C15797   4.995   9.128   0.528  0.2007  0.3613  0.1334
  118MOL0     O15798   4.882   9.204   0.499 -0.0705  0.0298 -0.2107
  118MOL0     C15799   4.877   9.288   0.399 -0.1430 -0.7395  0.1695
  118MOL0     C15800   4.758   9.305   0.340  0.4874 -0.5570  0.3410
  118MOL0     C15801   4.735   9.397   0.239  0.1901 -0.3762 -0.1680
  118MOL0     C15802   4.834   9.481   0.192  0.6720 -0.3584  0.7364
  118MOL0     O15803   4.812   9.572   0.090 -0.8469  0.2946 -0.0929
  118MOL0     C15804   4.753   9.525  -0.029 -0.4676 -0.1599  0.2027
  118MOL0     C15805   4.820   9.403  -0.089  0.3118 -0.0334 -0.0547
  118MOL0     C15806   4.785   9.399  -0.236 -0.2492  0.7872  0.4761
  118MOL0     C15807   4.811   9.252  -0.287 -0.4501 -1.2831  0.0548
  118MOL0     C15808   4.774   9.216  -0.433  0.1549  0.1437 -1.5922
  118MOL0     C15809   4.841   9.082  -0.460  0.5402 -0.4928  0.6809
  118MOL0     C15810   4.796   9.052  -0.604 -0.2649  0.5784 -0.2092
  118MOL0     C15811   4.798   8.900  -0.646  0.2160 -0.8632 -0.9993
  118MOL0     N15812   4.783   8.897  -0.802  0.1200  0.7703 -0.0401
  118MOL0     C15813   4.698   8.977  -0.873  0.4452 -0.2166  0.0808
  118MOL0     C15814   4.719   8.955  -1.002 -0.6103  0.0348 -0.0860
  118MOL0     C15815   4.652   9.024  -1.117 -0.2390 -0.3467 -0.6598
  118MOL0     C15816   4.608   8.924  -1.232  0.3337  0.3323 -0.3078
  118MOL0     C15817   4.476   8.854  -1.209 -0.8647  0.2871 -0.3224
  118MOL0     C15818   4.494   8.726  -1.118 -0.4005 -0.7389  0.9849
  118MOL0     O15819   4.381   8.709  -1.027 -0.0701  0.0827 -0.2944
  118MOL0     C15820   4.248   8.731  -1.051 -0.1959 -0.0387  0.2368
  118MOL0     C15821   4.188   8.747  -1.178 -0.5276  0.1124  0.5854
  118MOL0     C15822   4.050   8.785  -1.196 -0.4887  0.2067  0.3766
  118MOL0     C15823   4.006   8.822  -1.332 -0.2668  0.6842  0.2478
  118MOL0     C15824   3.958   8.772  -1.088  0.3384 -0.1977 -0.2976
  118MOL0     C15825   3.817   8.813  -1.099 -0.2050 -0.2072 -0.0014
  118MOL0     O15826   3.727   8.718  -1.061  0.1160 -0.1641 -0.0025
  118MOL0     C15827   3.607   8.707  -1.131 -0.8688 -0.2381 -0.0060
  118MOL0     C15828   3.495   8.646  -1.076 -0.4436 -0.1916 -0.6274
  118MOL0     C15829   3.381   8.631  -1.157  0.2247  0.1028 -0.2420
  118MOL0     C15830   3.366   8.670  -1.291 -1.1772 -1.1028  0.1929
  118MOL0     O15831   3.265   8.655  -1.371  0.0567  0.4406 -0.1308
  118MOL0     C15832   3.141   8.594  -1.313 -0.5767  0.1289 -0.5279
  118MOL0     C15833   3.028   8.616  -1.417  0.6275  0.0215  0.3267
  118MOL0     C15834   2.990   8.761  -1.408 -0.3030 -0.9553  0.2472
  118MOL0     C15835   2.844   8.790  -1.436 -1.2870  0.5900 -1.0603
  118MOL0     C15836   2.801   8.797  -1.587  0.0617  0.1804 -0.0243
  118MOL0     C15837   2.644   8.818  -1.598  0.0967  0.9714  0.2471
  118MOL0     C15838   2.605   8.944  -1.520  0.4579 -0.5256 -0.2302
  118MOL0     C15839   2.447   8.977  -1.534 -1.2884 -0.3620 -0.9417
  118MOL0    Cl15840   2.418   9.149  -1.524  0.2420 -0.0512 -0.0634
  118MOL0     C15841   3.489   8.724  -1.351  0.4978  1.6664 -0.3642
  118MOL0     C15842   3.598   8.741  -1.267 -1.0074 -0.4262  1.0091
  118MOL0     O15843   3.787   8.921  -1.152 -0.1228 -0.2032  0.1689
  118MOL0     C15844   4.014   8.744  -0.958  0.5640  0.8137 -0.2972
  118MOL0     C15845   4.158   8.735  -0.942 -0.7189  0.9472 -0.6621
  118MOL0     N15846   4.845   8.884  -1.004  0.4314  0.0238 -0.6467
  118MOL0     N15847   4.882   8.855  -0.885 -0.2062 -0.4388  0.4326
  118MOL0     C15848   4.962   9.476   0.259  0.1529  0.9133  0.7581
  118MOL0     C15849   4.976   9.381   0.361  0.0400  0.5070  0.5740
  118MOL0     C15850   4.976   9.013   0.616 -0.2281  0.6043  0.1955
  118MOL0     C15851   4.842   8.971   0.652  0.0658 -0.1822 -0.2017
  118MOL0     C15852   4.829   8.849   0.734 -0.2976  0.4022 -0.9783
  118MOL0     C15853   4.933   8.776   0.771  0.2604  0.7034 -0.4085
  118MOL0     O15854   4.901   8.653   0.820  0.8310  0.1741 -0.6678
  118MOL0     C15855   5.007   8.577   0.875  0.6186 -0.1411  0.5960
  118MOL0     C15856   4.950   8.454   0.949  0.2146  0.3868 -0.0763
  118MOL0     C15857   5.076   8.362   0.997  0.4280 -0.2700  0.7265
  118MOL0     C15858   5.177   8.437   1.088 -0.5130  0.6389 -0.4927
  118MOL0     C15859   5.122   8.508   1.206  0.3505  0.2604  0.4409
  118MOL0     C15860   5.058   8.549   1.301  0.5056  0.5233 -0.2241
  118MOL0     C15861   5.069   8.816   0.735  0.1652  0.1891 -0.3750
  118MOL0     C15862   5.088   8.937   0.657  0.0905  1.0772 -0.2727
  118MOL0     H15863   4.673   9.241   0.363 -1.3101  2.3115  2.3178
  118MOL0     H15864   4.635   9.412   0.197  0.3130 -1.2977 -0.8390
  118MOL0     H15865   4.649   9.505  -0.004 -0.6569  2.6894  2.1531
  118MOL0     H15866   4.759   9.615  -0.091 -0.3912 -0.7315 -0.6363
  118MOL0     H15867   4.928   9.406  -0.073  0.1449 -2.0324  1.8399
  118MOL0     H15868   4.780   9.315  -0.038 -3.6374  0.5806 -1.7614
  118MOL0     H15869   4.690   9.446  -0.260  1.3171  3.7094 -0.4952
  118MOL0     H15870   4.862   9.447  -0.298  1.4277 -1.1111  0.9725
  118MOL0     H15871   4.918   9.235  -0.273 -0.8123 -1.2051  4.0030
  118MOL0     H15872   4.770   9.175  -0.221  1.0620 -0.8623  1.5449
  118MOL0     H15873   4.665   9.215  -0.435  0.1141  2.0938 -1.9821
  118MOL0     H15874   4.808   9.294  -0.501  0.8703 -0.4003 -1.8707
  118MOL0     H15875   4.948   9.091  -0.441  0.5091 -0.1680  0.7068
  118MOL0     H15876   4.799   9.008  -0.392 -0.9523 -0.8280 -0.5314
  118MOL0     H15877   4.693   9.088  -0.615  0.1790  1.7264 -0.8853
  118MOL0     H15878   4.867   9.105  -0.669  0.9975  0.0326  0.6978
  118MOL0     H15879   4.723   8.847  -0.586 -0.7410  1.7161  0.2352
  118MOL0     H15880   4.893   8.853  -0.621  1.2313 -0.7749 -4.2834
  118MOL0     H15881   4.613   9.029  -0.830  0.4886  0.3451 -0.5050
  118MOL0     H15882   4.567   9.083  -1.082  0.4476  2.9650 -3.8349
  118MOL0     H15883   4.712   9.105  -1.162 -3.0026  2.0950 -0.2541
  118MOL0     H15884   4.690   8.860  -1.266  0.2068 -0.1507  0.2847
  118MOL0     H15885   4.589   8.988  -1.319  1.0260  0.7147 -0.1846
  118MOL0     H15886   4.443   8.824  -1.309 -2.0499 -1.3778  0.5213
  118MOL0     H15887   4.405   8.927  -1.170 -2.5065 -1.1190 -0.5739
  118MOL0     H15888   4.589   8.745  -1.066  0.2842 -0.9757 -0.1538
  118MOL0     H15889   4.520   8.643  -1.183  0.7313  0.4914 -0.2007
  118MOL0     H15890   4.256   8.745  -1.263  0.1880  0.8128  1.1224
  118MOL0     H15891   4.073   8.894  -1.379 -2.6393  1.8973 -1.4638
  118MOL0     H15892   3.996   8.738  -1.402  1.6064  0.7911 -0.2052
  118MOL0     H15893   3.911   8.877  -1.332  0.0479  1.2396  0.4132
  118MOL0     H15894   3.492   8.630  -0.969 -0.4786 -0.6549 -0.6919
  118MOL0     H15895   3.296   8.586  -1.106  2.5627 -2.1817  1.9719
  118MOL0     H15896   3.152   8.486  -1.298 -0.2160 -0.0111 -1.6758
  118MOL0     H15897   3.101   8.638  -1.221  0.1000  1.7006 -0.9620
  118MOL0     H15898   3.046   8.593  -1.523 -1.1050 -2.4681  0.4875
  118MOL0     H15899   2.935   8.561  -1.397  0.7201 -0.6417 -0.9371
  118MOL0     H15900   3.047   8.815  -1.483  2.0847 -2.7753  0.6342
  118MOL0     H15901   3.018   8.801  -1.309 -1.6035  1.7409 -0.3673
  118MOL0     H15902   2.786   8.723  -1.372 -1.2761  1.9793  0.4853
  118MOL0     H15903   2.842   8.886  -1.384  1.8849  0.7867 -1.1222
  118MOL0     H15904   2.829   8.708  -1.644 -1.9544  0.2870 -1.3086
  118MOL0     H15905   2.850   8.883  -1.635 -1.9676  0.2518 -2.1662
  118MOL0     H15906   2.620   8.819  -1.705  0.9569 -3.5565 -0.1945
  118MOL0     H15907   2.589   8.729  -1.566  0.1847 -0.1067 -2.3234
  118MOL0     H15908   2.652   9.025  -1.577  0.7176 -0.7439 -0.3276
  118MOL0     H15909   2.630   8.964  -1.416 -3.4995  0.9627  0.6390
  118MOL0     H15910   2.377   8.925  -1.468 -2.1061  0.0194 -1.5024
  118MOL0     H15911   2.415   8.938  -1.631 -2.1381 -0.6808 -0.5438
  118MOL0     H15912   3.498   8.748  -1.456 -0.3121 -0.7932 -1.0640
  118MOL0     H15913   3.680   8.790  -1.317 -1.3758  0.8054  1.5822
  118MOL0     H15914   3.948   8.756  -0.873  0.3855  1.2889 -0.4949
  118MOL0     H15915   4.195   8.722  -0.840 -0.4691  1.0369 -0.7383
  118MOL0     H15916   5.047   9.536   0.229  0.2693  1.7336  2.5777
  118MOL0     H15917   5.076   9.366   0.403 -0.7612 -0.9825  2.0824
  118MOL0     H15918   4.765   9.034   0.611  0.2600 -1.2843 -2.4077
  118MOL0     H15919   4.729   8.809   0.749  0.8810 -2.5210 -0.1659
  118MOL0     H15920   5.083   8.548   0.801  1.0046  0.7352  0.6430
  118MOL0     H15921   5.053   8.641   0.951  0.4229  0.4289  0.2400
  118MOL0     H15922   4.882   8.393   0.888 -1.0848  0.0409  1.6401
  118MOL0     H15923   4.893   8.483   1.038 -0.8761 -0.8919 -0.3155
  118MOL0     H15924   5.126   8.342   0.902 -0.5874  3.0115 -0.6418
  118MOL0     H15925   5.052   8.272   1.055 -1.2812  1.6697  3.2387
  118MOL0     H15926   5.241   8.509   1.037 -1.7490  1.3831 -1.0469
  118MOL0     H15927   5.250   8.363   1.120  0.9055  2.1317 -0.1448
  118MOL0     H15928   5.006   8.597   1.381 -1.2207 -0.3541 -0.7715
  118MOL0     H15929   5.152   8.754   0.765 -0.3981 -1.0704 -1.3212
  118MOL0     H15930   5.189   8.959   0.626 -0.0932  0.9477 -0.9646
  119MOL0     O15931   0.843   4.176   4.902 -0.1741  0.6132  0.0532
  119MOL0     C15932   0.904   4.078   4.882 -0.0776  0.7672 -0.0328
  119MOL0     O15933   0.939   4.033   4.759  0.0792  0.2266 -0.0285
  119MOL0     C15934   0.904   4.076   4.634 -0.5992  0.2158  0.0230
  119MOL0     C15935   1.005   4.061   4.531 -0.2853 -0.1895  0.5683
  119MOL0     C15936   0.971   4.103   4.395  0.3247 -0.7495 -0.7045
  119MOL0     C15937   0.852   4.172   4.364  0.1870 -0.4700  0.3214
  119MOL0     O15938   0.833   4.236   4.246  0.0843 -0.5798 -0.0194
  119MOL0     C15939   0.945   4.301   4.189 -0.0192  0.3015  0.4050
  119MOL0     C15940   0.948   4.297   4.038 -0.5464 -0.3485 -0.8237
  119MOL0     C15941   1.017   4.173   3.997 -0.0339  0.3634  0.9427
  119MOL0     C15942   1.021   4.174   3.844  0.6433  0.5469  0.0203
  119MOL0     C15943   1.083   4.051   3.784 -0.6502 -0.5993  0.6629
  119MOL0     C15944   1.094   4.064   3.627  0.6847 -0.4370  0.0943
  119MOL0     C15945   1.153   3.950   3.556 -0.1602 -0.5395 -0.5010
  119MOL0     C15946   1.211   3.986   3.413  0.8203  0.3536 -0.1939
  119MOL0     N15947   1.339   4.049   3.419 -0.9777  0.5329 -0.0057
  119MOL0     C15948   1.371   4.175   3.373  0.1089 -0.8182  0.5273
  119MOL0     C15949   1.496   4.202   3.398 -0.2056 -0.0996 -0.1404
  119MOL0     C15950   1.582   4.323   3.368  0.4804  0.0688 -0.0577
  119MOL0     C15951   1.541   4.422   3.252  0.3678 -0.2215  0.0842
  119MOL0     C15952   1.565   4.367   3.121  0.7900 -0.4478  0.2842
  119MOL0     C15953   1.518   4.469   3.010 -0.2402  0.4526 -0.2862
  119MOL0     O15954   1.514   4.400   2.889 -0.3505  0.5098 -0.0682
  119MOL0     C15955   1.628   4.376   2.819 -0.4335 -0.4999  0.1908
  119MOL0     C15956   1.607   4.339   2.692  0.1712  0.0650  0.5930
  119MOL0     C15957   1.713   4.310   2.603 -0.5373 -0.3736 -0.0738
  119MOL0     C15958   1.676   4.246   2.470 -0.9282 -0.2466  0.0938
  119MOL0     C15959   1.844   4.343   2.644 -0.9531 -0.5602  0.1110
  119MOL0     C15960   1.970   4.340   2.546  0.1220 -0.4375  0.2667
  119MOL0     O15961   1.950   4.329   2.414  0.2375 -0.8571  0.3753
  119MOL0     C15962   2.048   4.297   2.336 -0.2962  0.4830 -0.3263
  119MOL0     C15963   2.106   4.399   2.257  0.4385  0.9318  0.0839
  119MOL0     C15964   2.223   4.374   2.181 -0.3787  0.6865 -0.3793
  119MOL0     C15965   2.286   4.254   2.178  0.8390  0.0339 -0.2306
  119MOL0     O15966   2.405   4.227   2.107 -0.4416 -0.0787  0.5202
  119MOL0     C15967   2.413   4.097   2.052  0.0101 -1.0015  0.1740
  119MOL0     C15968   2.447   4.098   1.906 -0.4315 -0.6026  0.4951
  119MOL0     C15969   2.376   4.191   1.815 -0.9234  0.1149 -0.4638
  119MOL0     C15970   2.447   4.184   1.680  0.4340  0.1830 -0.4462
  119MOL0     C15971   2.412   4.307   1.606  0.3128  0.6406  0.9193
  119MOL0     C15972   2.475   4.299   1.461  0.9717  1.2433  0.3197
  119MOL0     C15973   2.376   4.258   1.352  0.0972 -0.3767 -0.0716
  119MOL0     C15974   2.415   4.270   1.207 -0.4090 -0.2007  1.1889
  119MOL0    Cl15975   2.272   4.278   1.096  0.0251 -0.7962 -0.0597
  119MOL0     C15976   2.226   4.148   2.263 -0.0067  0.0225  0.4239
  119MOL0     C15977   2.105   4.170   2.333 -0.1684  0.6150  0.3107
  119MOL0     O15978   2.083   4.337   2.607  0.0287  0.3092 -0.2248
  119MOL0     C15979   1.872   4.388   2.772 -0.1030  0.3764 -1.1634
  119MOL0     C15980   1.763   4.409   2.857  0.2146  0.1090 -0.0154
  119MOL0     N15981   1.553   4.090   3.459  0.2791 -1.0180  0.2385
  119MOL0     N15982   1.456   4.010   3.470 -0.3838  0.3439  0.1710
  119MOL0     C15983   0.756   4.170   4.469  0.4515 -0.2801  0.4940
  119MOL0     C15984   0.780   4.136   4.603 -0.1245 -0.0334  0.3237
  119MOL0     C15985   0.936   3.988   4.995 -0.8223  0.3337 -0.3237
  119MOL0     C15986   0.932   4.026   5.130  0.2085 -0.0163  0.5833
  119MOL0     C15987   0.966   3.936   5.233 -0.4493  0.0669 -0.1003
  119MOL0     C15988   0.990   3.801   5.199 -0.1168 -0.7037 -0.0015
  119MOL0     O15989   1.034   3.709   5.285  0.7416  0.0561  0.0873
  119MOL0     C15990   1.050   3.740   5.428  0.1332  0.7528  0.9520
  119MOL0     C15991   1.036   3.609   5.510 -0.0541  0.4694 -1.1397
  119MOL0     C15992   0.891   3.558   5.513  0.4166 -0.4557  0.3186
  119MOL0     C15993   0.857   3.449   5.621 -0.6122 -0.0175 -0.7319
  119MOL0     C15994   0.825   3.506   5.753  0.3101  0.7782  0.2067
  119MOL0     C15995   0.802   3.539   5.860  0.1587 -0.4666 -0.2505
  119MOL0     C15996   0.996   3.763   5.065  0.7004 -0.3660 -0.5186
  119MOL0     C15997   0.972   3.853   4.968 -0.6205 -0.1304 -0.1872
  119MOL0     H15998   1.089   4.003   4.568 -1.6709 -2.8908 -0.2327
  119MOL0     H15999   1.040   4.093   4.312 -0.5658  1.1334 -1.7327
  119MOL0     H16000   0.941   4.405   4.224  0.1495  1.1267 -1.8654
  119MOL0     H16001   1.037   4.260   4.230 -1.7256 -2.9820  1.2271
  119MOL0     H16002   0.848   4.284   3.997 -0.0188  1.1217 -2.7277
  119MOL0     H16003   0.989   4.391   3.999 -2.9407  2.7768  3.2833
  119MOL0     H16004   1.120   4.180   4.034  1.4132  1.3706 -2.7538
  119MOL0     H16005   0.960   4.085   4.027  0.0749 -0.6004 -1.4160
  119MOL0     H16006   0.921   4.186   3.802  0.9595 -1.6315 -1.4868
  119MOL0     H16007   1.082   4.262   3.818 -0.1955  1.6994  1.7620
  119MOL0     H16008   1.182   4.028   3.825 -1.3061 -4.7553  0.3360
  119MOL0     H16009   1.023   3.967   3.819  1.2005 -2.3916 -0.2336
  119MOL0     H16010   0.988   4.071   3.598  0.7476  0.8951  0.1389
  119MOL0     H16011   1.148   4.157   3.607  0.8660 -0.1504  1.8065
  119MOL0     H16012   1.231   3.908   3.620  1.3283 -1.4389 -2.7469
  119MOL0     H16013   1.079   3.869   3.547  0.7914 -1.4024 -0.7939
  119MOL0     H16014   1.125   4.040   3.370  0.2819 -0.2719  0.0719
  119MOL0     H16015   1.204   3.898   3.348 -1.3192  2.0384 -2.4653
  119MOL0     H16016   1.311   4.251   3.324  3.7819  3.9948  2.6163
  119MOL0     H16017   1.594   4.375   3.463  0.7252 -3.8450  2.2585
  119MOL0     H16018   1.684   4.293   3.343  0.5852  2.1253 -2.4666
  119MOL0     H16019   1.578   4.524   3.268 -1.7156  0.3111  1.9644
  119MOL0     H16020   1.435   4.444   3.264  0.2488 -1.1699  0.8113
  119MOL0     H16021   1.508   4.274   3.117  0.8124 -0.4950  0.9595
  119MOL0     H16022   1.673   4.352   3.128  0.9900  0.6829 -0.1943
  119MOL0     H16023   1.569   4.564   2.995 -1.2648  0.5527 -4.3030
  119MOL0     H16024   1.416   4.496   3.040  0.5075  2.5247  0.5777
  119MOL0     H16025   1.500   4.335   2.673  0.1529 -0.0118  0.7132
  119MOL0     H16026   1.658   4.332   2.405  0.6411  0.3919  0.4425
  119MOL0     H16027   1.759   4.188   2.429 -0.9608  1.3479 -2.4361
  119MOL0     H16028   1.583   4.189   2.467 -0.8784 -0.2915 -0.7626
  119MOL0     H16029   2.067   4.500   2.255 -3.5268 -0.3373  2.2885
  119MOL0     H16030   2.255   4.455   2.116 -3.4865  0.8261 -1.8962
  119MOL0     H16031   2.484   4.027   2.096 -0.3031 -1.4465 -0.0243
  119MOL0     H16032   2.317   4.045   2.043 -0.4005  0.0164 -2.5157
  119MOL0     H16033   2.553   4.120   1.896 -0.5656 -0.5326 -0.9442
  119MOL0     H16034   2.439   3.996   1.867  1.2138 -1.1904  1.5805
  119MOL0     H16035   2.374   4.292   1.855 -3.0561  0.0104 -0.1950
  119MOL0     H16036   2.272   4.159   1.804 -1.3024  1.2234 -0.1456
  119MOL0     H16037   2.556   4.171   1.684  0.6819  2.0456 -0.2280
  119MOL0     H16038   2.408   4.097   1.628  0.5012 -0.5512  0.6972
  119MOL0     H16039   2.453   4.394   1.657  1.4997  0.2672  0.6355
  119MOL0     H16040   2.305   4.324   1.597 -0.0592 -0.2038  3.1360
  119MOL0     H16041   2.503   4.402   1.436  0.0151  1.4429  0.0412
  119MOL0     H16042   2.559   4.235   1.434  0.4275  0.8589 -0.5082
  119MOL0     H16043   2.285   4.317   1.368 -0.5962 -1.8423  1.7123
  119MOL0     H16044   2.350   4.152   1.363  0.8237 -0.5175  0.3587
  119MOL0     H16045   2.482   4.186   1.187 -1.7911 -1.1137  0.2431
  119MOL0     H16046   2.474   4.359   1.179  0.2248 -0.5239  1.4717
  119MOL0     H16047   2.275   4.052   2.260 -1.4422 -0.7434 -1.9916
  119MOL0     H16048   2.075   4.086   2.396  3.4333  0.4489  2.0578
  119MOL0     H16049   1.969   4.410   2.816 -0.0125 -0.7842 -0.7439
  119MOL0     H16050   1.784   4.434   2.960 -1.6937 -1.6239  0.8588
  119MOL0     H16051   0.661   4.221   4.455  0.0518 -1.1771 -0.1946
  119MOL0     H16052   0.712   4.155   4.685  0.3319  0.8551  0.5125
  119MOL0     H16053   0.906   4.129   5.154 -0.8874 -0.3432  0.8561
  119MOL0     H16054   0.987   3.963   5.336 -0.3618  0.6880 -0.2746
  119MOL0     H16055   1.139   3.799   5.453  2.1181 -0.8427 -1.8048
  119MOL0     H16056   0.965   3.794   5.471  0.1720  2.7204 -1.2190
  119MOL0     H16057   1.063   3.636   5.613  1.4113 -1.0197 -1.0906
  119MOL0     H16058   1.104   3.528   5.480 -0.4626 -0.6877  0.8930
  119MOL0     H16059   0.869   3.523   5.412  2.9576 -0.0826 -0.4344
  119MOL0     H16060   0.829   3.645   5.540  2.4574  1.0862  0.2553
  119MOL0     H16061   0.939   3.377   5.631  1.2521  2.0671 -0.1833
  119MOL0     H16062   0.775   3.387   5.585 -0.4981  1.5491 -3.9773
  119MOL0     H16063   0.789   3.589   5.954  2.3054  0.6862 -0.4973
  119MOL0     H16064   1.030   3.665   5.030 -0.2140 -0.9949  0.3126
  119MOL0     H16065   0.968   3.820   4.865  1.5100  0.7313 -0.5939
  120MOL0     O16066  10.882   3.959  10.743 -0.3013  0.3475 -0.6234
  120MOL0     C16067  10.770   3.982  10.696 -1.4587  0.1537 -0.5096
  120MOL0     O16068  10.721   4.103  10.669 -0.5171  0.5430  0.8925
  120MOL0     C16069  10.811   4.202  10.678 -1.3704  0.1969  0.3194
  120MOL0     C16070  10.802   4.270  10.794  0.2278 -0.6475  0.0051
  120MOL0     C16071  10.899   4.370  10.811  0.0438 -0.0283 -0.8080
  120MOL0     C16072  10.990   4.407  10.719  0.4739  0.1276 -0.2523
  120MOL0     O16073  11.061   4.515  10.747  0.3398  0.0924 -0.0573
  120MOL0     C16074  11.201   4.509  10.729 -0.2026  0.1068  0.5379
  120MOL0     C16075  11.264   4.645  10.762 -0.0494 -0.1243  0.0633
  120MOL0     C16076  11.414   4.619  10.807 -0.3746 -0.3221 -0.1586
  120MOL0     C16077  11.439   4.556  10.941  0.9072  0.0754  0.4508
  120MOL0     C16078  11.513   4.424  10.935  0.3524  0.1072 -0.3797
  120MOL0     C16079  11.653   4.448  10.875  0.2127  0.3631 -0.5847
  120MOL0     C16080  11.751   4.340  10.892 -0.4463 -0.3878 -0.0481
  120MOL0     C16081  11.717   4.234  10.791  1.5092 -0.5142  0.2444
  120MOL0     N16082  11.789   4.112  10.790 -0.3040  0.9988  0.3547
  120MOL0     C16083  11.907   4.090  10.860 -0.3359  0.6440  0.0374
  120MOL0     C16084  11.931   3.956  10.861  0.2663 -1.3133 -0.2448
  120MOL0     C16085  12.060   3.896  10.913  0.3590 -0.0758 -0.5914
  120MOL0     C16086  12.040   3.861  11.064 -0.1596  0.4505 -0.1405
  120MOL0     C16087  11.951   3.737  11.077 -0.8755  0.3386  0.4484
  120MOL0     C16088  11.962   3.678  11.223  0.2909  0.2425  0.1791
  120MOL0     O16089  11.963   3.789  11.314  0.1581 -0.6534  0.5662
  120MOL0     C16090  11.854   3.800  11.390  0.4234  0.0846 -0.2090
  120MOL0     C16091  11.765   3.901  11.351 -0.5226  0.0237 -0.2192
  120MOL0     C16092  11.652   3.939  11.424  0.3310 -0.1964 -0.1797
  120MOL0     C16093  11.576   4.063  11.389  0.2252  0.0544  1.2104
  120MOL0     C16094  11.623   3.856  11.538  0.6182  0.0124  0.0484
  120MOL0     C16095  11.519   3.908  11.627  0.2978  0.8363  0.2505
  120MOL0     O16096  11.447   3.810  11.674  0.5750  0.1944 -0.2632
  120MOL0     C16097  11.354   3.831  11.774  0.3145 -0.4420  0.0138
  120MOL0     C16098  11.393   3.879  11.899  0.2577 -0.1673  0.5724
  120MOL0     C16099  11.294   3.900  12.006  0.6828 -0.4134  0.1668
  120MOL0     C16100  11.152   3.874  11.978 -0.3670  0.1343 -0.3342
  120MOL0     O16101  11.057   3.884  12.077  0.2125  0.7153 -0.1304
  120MOL0     C16102  10.939   3.804  12.063 -0.4628  0.5478  0.0441
  120MOL0     C16103  10.858   3.828  12.192 -0.6232  0.6913 -0.5686
  120MOL0     C16104  10.723   3.773  12.182 -0.4801 -0.9326 -1.1115
  120MOL0     C16105  10.645   3.832  12.297  0.2530  0.6776  0.4194
  120MOL0     C16106  10.499   3.782  12.290 -0.1122  0.6399 -0.6616
  120MOL0     C16107  10.419   3.811  12.154  1.1082 -0.6529 -0.1260
  120MOL0     C16108  10.273   3.759  12.167 -0.2827  1.6458 -0.0902
  120MOL0     C16109  10.271   3.606  12.162  0.7957 -0.3290  0.3196
  120MOL0    Cl16110  10.104   3.580  12.100 -0.0744  0.0523  0.0108
  120MOL0     C16111  11.117   3.846  11.846  0.2744  1.1005 -0.1186
  120MOL0     C16112  11.216   3.817  11.747 -0.0487  0.8880  0.4139
  120MOL0     O16113  11.535   4.020  11.674  0.0156 -0.3082  0.1018
  120MOL0     C16114  11.698   3.750  11.569 -1.0392  0.0063  0.3039
  120MOL0     C16115  11.819   3.716  11.498 -0.6921  0.1423  0.3914
  120MOL0     N16116  11.830   3.894  10.798 -0.0401 -0.9397 -0.5673
  120MOL0     N16117  11.743   3.989  10.757 -0.0839  0.2578 -0.8854
  120MOL0     C16118  10.982   4.351  10.595  0.6135 -1.0007  0.1774
  120MOL0     C16119  10.893   4.243  10.570 -0.7973  0.3022 -0.9063
  120MOL0     C16120  10.684   3.857  10.682  0.5244  0.2141 -0.7455
  120MOL0     C16121  10.543   3.867  10.660 -1.8917 -0.6371  0.2056
  120MOL0     C16122  10.460   3.757  10.640 -1.2710  0.4165 -0.0077
  120MOL0     C16123  10.522   3.628  10.642 -0.6626 -0.3412 -0.1819
  120MOL0     O16124  10.448   3.517  10.619 -0.3115  0.4022  0.3900
  120MOL0     C16125  10.307   3.518  10.590 -0.1833  0.9333 -0.6069
  120MOL0     C16126  10.283   3.570  10.447  0.1996  0.8925  0.3468
  120MOL0     C16127  10.133   3.585  10.420  0.7735  0.2129  0.8012
  120MOL0     C16128  10.094   3.601  10.277 -0.1605  0.2479 -0.0017
  120MOL0     C16129   9.967   3.671  10.256  0.5334  0.3803  0.1903
  120MOL0     C16130   9.859   3.734  10.240  0.8471  0.4586  0.2381
  120MOL0     C16131  10.656   3.611  10.676 -0.1671  0.0447  0.4631
  120MOL0     C16132  10.733   3.720  10.700  0.4809 -0.7942  0.7906
  120MOL0     H16133  10.739   4.253  10.881 -1.7445 -0.6244 -1.3509
  120MOL0     H16134  10.887   4.419  10.907 -0.7071  0.2975 -1.0582
  120MOL0     H16135  11.250   4.431  10.788  0.8673  0.4787  0.1607
  120MOL0     H16136  11.228   4.500  10.623 -1.0041 -0.9360  0.4042
  120MOL0     H16137  11.260   4.704  10.669 -0.5979  0.0693  0.2063
  120MOL0     H16138  11.201   4.698  10.834 -0.3964 -2.3095  1.4704
  120MOL0     H16139  11.467   4.562  10.731 -2.2720 -2.5419  0.0556
  120MOL0     H16140  11.463   4.717  10.810 -1.2943  0.1917 -1.2003
  120MOL0     H16141  11.491   4.617  11.016  1.8262 -0.4305  0.2341
  120MOL0     H16142  11.336   4.541  10.977 -0.1928  0.4326 -2.3031
  120MOL0     H16143  11.519   4.370  11.030 -3.9744  0.2443  0.1916
  120MOL0     H16144  11.445   4.359  10.879 -0.7836  0.5044  0.4833
  120MOL0     H16145  11.649   4.458  10.766  2.1270 -0.5155 -0.7661
  120MOL0     H16146  11.696   4.536  10.924 -0.3288  0.4023 -0.1660
  120MOL0     H16147  11.852   4.382  10.880 -0.1549 -1.1242 -0.1972
  120MOL0     H16148  11.733   4.292  10.989  0.3057 -0.3355  0.1295
  120MOL0     H16149  11.740   4.276  10.693  1.0762 -1.8890 -0.4844
  120MOL0     H16150  11.608   4.222  10.789  1.6838 -2.3492 -0.9208
  120MOL0     H16151  11.966   4.167  10.908 -1.8283  0.8039  1.7662
  120MOL0     H16152  12.097   3.814  10.850 -0.5378  1.5984 -3.4857
  120MOL0     H16153  12.141   3.968  10.896  1.0521 -0.7320 -0.1463
  120MOL0     H16154  11.999   3.948  11.117 -2.4468  0.9908 -2.5918
  120MOL0     H16155  12.133   3.840  11.117 -2.6017 -0.4835  4.2777
  120MOL0     H16156  11.979   3.653  11.012 -2.8857 -0.6843  0.8201
  120MOL0     H16157  11.846   3.758  11.056 -0.5542  1.7997  0.2305
  120MOL0     H16158  12.063   3.636  11.230  1.3840  1.9612 -3.2184
  120MOL0     H16159  11.894   3.594  11.232  1.3521 -0.7211 -0.5050
  120MOL0     H16160  11.803   3.960  11.269 -0.5851  3.1079  1.8363
  120MOL0     H16161  11.470   4.045  11.410  0.1116 -3.1953 -1.3178
  120MOL0     H16162  11.612   4.159  11.428  0.0027  1.6153 -2.1418
  120MOL0     H16163  11.569   4.083  11.282 -1.0990  0.3790  1.3434
  120MOL0     H16164  11.500   3.892  11.908  0.3754 -1.6785  1.6507
  120MOL0     H16165  11.318   3.931  12.107  0.0322  0.6557  0.0160
  120MOL0     H16166  10.881   3.829  11.973  0.2928  1.5733 -0.1850
  120MOL0     H16167  10.965   3.699  12.053 -0.1878  0.3778  2.2060
  120MOL0     H16168  10.912   3.783  12.275 -3.3354  2.0077  2.0989
  120MOL0     H16169  10.854   3.930  12.232  1.6328 -0.0292  1.7404
  120MOL0     H16170  10.735   3.665  12.193 -1.1658 -0.7668  2.8197
  120MOL0     H16171  10.687   3.805  12.084  2.3487  2.5805 -1.2068
  120MOL0     H16172  10.681   3.785  12.390  3.1961 -2.1350 -1.9174
  120MOL0     H16173  10.650   3.941  12.308 -1.1932  1.0240 -1.8101
  120MOL0     H16174  10.437   3.818  12.373 -0.7287 -1.6391 -0.0462
  120MOL0     H16175  10.504   3.673  12.293  0.1203  0.6745  0.4778
  120MOL0     H16176  10.428   3.919  12.137 -0.6242 -0.5685 -0.6886
  120MOL0     H16177  10.471   3.763  12.070  0.0908 -0.0978 -1.1075
  120MOL0     H16178  10.214   3.803  12.086  1.3674  0.0659 -2.3040
  120MOL0     H16179  10.230   3.798  12.259 -0.5097  0.2188  0.4290
  120MOL0     H16180  10.280   3.553  12.256  0.3630 -1.8306 -0.4573
  120MOL0     H16181  10.353   3.567  12.101 -0.1323 -0.0526 -1.1855
  120MOL0     H16182  11.025   3.832  11.791 -1.2278  3.4553  1.5861
  120MOL0     H16183  11.187   3.787  11.646 -0.1482 -0.2235  0.7618
  120MOL0     H16184  11.666   3.699  11.659 -2.6981  0.1515 -0.1605
  120MOL0     H16185  11.885   3.631  11.513 -2.2683 -1.4532 -1.2511
  120MOL0     H16186  11.040   4.392  10.512  1.9816 -1.5978  0.8078
  120MOL0     H16187  10.905   4.194  10.474  2.0282  0.4705 -0.7344
  120MOL0     H16188  10.504   3.969  10.660  2.4803  1.2704 -1.1679
  120MOL0     H16189  10.355   3.778  10.621 -0.7882  3.8751  0.5719
  120MOL0     H16190  10.286   3.413  10.613  0.4885  1.4176  2.7325
  120MOL0     H16191  10.252   3.566  10.671 -3.4628 -7.9629  3.8978
  120MOL0     H16192  10.321   3.497  10.375 -1.8702 -0.6565  0.7270
  120MOL0     H16193  10.347   3.657  10.426  0.8954  0.4895  0.7587
  120MOL0     H16194  10.104   3.680  10.465  0.9149  0.7392 -0.1950
  120MOL0     H16195  10.082   3.493  10.451 -0.3530  0.1415 -1.1216
  120MOL0     H16196  10.092   3.509  10.218  0.2326  1.2477 -1.6397
  120MOL0     H16197  10.165   3.666  10.223 -0.3703 -1.0069 -1.8954
  120MOL0     H16198   9.763   3.779  10.227  0.3102  0.0150  2.3823
  120MOL0     H16199  10.697   3.510  10.679 -2.6585 -1.2173 -2.4507
  120MOL0     H16200  10.835   3.700  10.731  0.5616 -3.3403 -0.8125
  121MOL0     O16201   2.692   7.766   7.179  0.1185 -0.3298 -0.5686
  121MOL0     C16202   2.691   7.650   7.142  0.1734 -0.0575 -0.1292
  121MOL0     O16203   2.802   7.564   7.139  0.0469 -0.2507  0.5365
  121MOL0     C16204   2.922   7.626   7.171  0.1934  0.9558 -0.5587
  121MOL0     C16205   2.960   7.662   7.299  1.2070  0.4417 -0.3229
  121MOL0     C16206   3.085   7.715   7.333  0.0703  0.6599  0.6715
  121MOL0     C16207   3.185   7.721   7.231  0.1744 -0.1868 -1.4681
  121MOL0     O16208   3.315   7.771   7.245 -0.3134  0.2140 -0.1329
  121MOL0     C16209   3.330   7.879   7.342 -0.1997 -0.1109 -0.6162
  121MOL0     C16210   3.476   7.929   7.338  0.4078 -0.6620 -0.0404
  121MOL0     C16211   3.583   7.835   7.391 -0.0169 -0.8048  0.0159
  121MOL0     C16212   3.710   7.883   7.322 -0.0250 -0.5762  0.7863
  121MOL0     C16213   3.821   7.802   7.384 -0.3031  0.4741  0.3537
  121MOL0     C16214   3.960   7.843   7.342  0.4434  0.4826 -0.4119
  121MOL0     C16215   3.983   7.787   7.204 -0.3385  0.0298  0.7428
  121MOL0     C16216   4.087   7.870   7.117 -0.2910  0.2770  0.0725
  121MOL0     N16217   4.228   7.887   7.167  0.0143 -0.4173  0.2704
  121MOL0     C16218   4.332   7.797   7.134 -0.4591 -0.4701  0.2057
  121MOL0     C16219   4.436   7.854   7.201 -0.4342  0.2669  0.1204
  121MOL0     C16220   4.576   7.788   7.209 -0.0770  0.2674 -0.4683
  121MOL0     C16221   4.623   7.753   7.357  0.0113  1.3107  0.4811
  121MOL0     C16222   4.527   7.657   7.424  0.3289 -0.1184  0.6015
  121MOL0     C16223   4.508   7.520   7.353 -0.3146 -0.1906  0.4609
  121MOL0     O16224   4.417   7.513   7.233 -0.7084 -0.1891 -0.4184
  121MOL0     C16225   4.283   7.483   7.255 -0.3373  0.3842 -0.1201
  121MOL0     C16226   4.216   7.455   7.140  0.6175 -0.0522 -0.0739
  121MOL0     C16227   4.078   7.425   7.141  0.1425 -0.7278 -0.7349
  121MOL0     C16228   4.016   7.396   7.004  0.2715 -0.9897  0.7324
  121MOL0     C16229   4.006   7.429   7.264  0.0991 -0.1714  0.0818
  121MOL0     C16230   3.856   7.411   7.276  0.3964  1.3508 -0.1010
  121MOL0     O16231   3.802   7.321   7.188 -1.0207  0.2197  0.5126
  121MOL0     C16232   3.676   7.341   7.147  1.1759 -0.3707 -0.5588
  121MOL0     C16233   3.592   7.235   7.121  1.7118  0.4648 -0.8270
  121MOL0     C16234   3.461   7.249   7.084 -0.5382  0.3652 -1.0033
  121MOL0     C16235   3.412   7.378   7.056 -0.3445  0.9008 -0.0631
  121MOL0     O16236   3.287   7.404   7.008 -0.4384 -0.2851 -0.0123
  121MOL0     C16237   3.225   7.327   6.900 -0.1711 -0.5194  0.3494
  121MOL0     C16238   3.259   7.367   6.756  0.1927  0.3264  0.3107
  121MOL0     C16239   3.366   7.476   6.743  0.0212 -0.0808  0.0968
  121MOL0     C16240   3.315   7.617   6.749 -1.3525 -0.2251  0.1731
  121MOL0     C16241   3.419   7.732   6.741  0.2656 -0.3137 -0.4374
  121MOL0     C16242   3.506   7.758   6.861  0.9205 -0.2542  0.6990
  121MOL0     C16243   3.629   7.847   6.810 -0.3834  0.9169 -0.1089
  121MOL0     C16244   3.733   7.874   6.918 -0.2112 -0.3156  0.2337
  121MOL0    Cl16245   3.865   7.952   6.835 -0.1114 -0.6966  0.0940
  121MOL0     C16246   3.493   7.485   7.078 -0.6086  0.2822  0.4756
  121MOL0     C16247   3.628   7.470   7.118  0.4793 -0.7154 -0.3981
  121MOL0     O16248   3.791   7.445   7.376  1.0205 -0.2572 -0.4053
  121MOL0     C16249   4.076   7.455   7.386 -0.1392  0.2507  0.6512
  121MOL0     C16250   4.212   7.474   7.375  0.2036  0.2581 -0.7497
  121MOL0     N16251   4.393   7.968   7.266  0.3070 -0.4431 -0.9226
  121MOL0     N16252   4.270   7.993   7.236  0.1518 -0.8972 -0.4160
  121MOL0     C16253   3.154   7.673   7.106  0.6941  0.6143  1.1340
  121MOL0     C16254   3.025   7.622   7.073  0.3872 -0.3518 -0.2527
  121MOL0     C16255   2.561   7.590   7.098 -0.2464 -0.6672  0.5392
  121MOL0     C16256   2.548   7.502   6.985 -0.3167 -0.2483  0.6220
  121MOL0     C16257   2.424   7.440   6.950  0.7473 -0.2412  0.6297
  121MOL0     C16258   2.305   7.478   7.013  0.5563  0.3121  0.5656
  121MOL0     O16259   2.178   7.433   6.982 -0.1124  0.2441  0.2853
  121MOL0     C16260   2.149   7.373   6.858  0.3217  0.1778 -1.6277
  121MOL0     C16261   2.095   7.486   6.769 -0.8562 -0.0874  0.1262
  121MOL0     C16262   2.065   7.430   6.628  0.4184  0.0636  0.1338
  121MOL0     C16263   2.009   7.541   6.536 -0.4981  0.1382 -0.3191
  121MOL0     C16264   1.877   7.591   6.575 -0.1100 -0.5245 -0.3607
  121MOL0     C16265   1.760   7.615   6.600 -0.0101  0.3058 -0.1781
  121MOL0     C16266   2.316   7.573   7.111  0.1687  0.2503 -0.5790
  121MOL0     C16267   2.441   7.618   7.158  1.4310 -0.5975  0.3132
  121MOL0     H16268   2.886   7.663   7.378  1.2108 -2.5533 -0.1786
  121MOL0     H16269   3.102   7.741   7.437  0.0002 -0.0989  0.8796
  121MOL0     H16270   3.266   7.962   7.313 -0.7114 -0.1984  0.2197
  121MOL0     H16271   3.306   7.844   7.443 -3.1366  0.4014 -1.0505
  121MOL0     H16272   3.503   7.955   7.235  1.0422 -3.1577 -0.5755
  121MOL0     H16273   3.469   8.014   7.406  1.9566 -0.4604 -0.1015
  121MOL0     H16274   3.592   7.843   7.500 -0.0063 -1.6364  0.0769
  121MOL0     H16275   3.563   7.732   7.362  1.4713 -1.1090  0.0158
  121MOL0     H16276   3.706   7.859   7.216  1.9206  2.5484 -0.1310
  121MOL0     H16277   3.729   7.991   7.333 -2.3029  0.1299 -1.2674
  121MOL0     H16278   3.814   7.826   7.490  2.6224 -0.5091  0.8444
  121MOL0     H16279   3.804   7.696   7.362  3.3262 -0.7777  2.6909
  121MOL0     H16280   3.974   7.951   7.351  2.5061  0.0657  3.5666
  121MOL0     H16281   4.022   7.786   7.411 -1.0524 -0.9342 -0.1592
  121MOL0     H16282   4.017   7.684   7.209 -3.0134 -0.9929 -0.2178
  121MOL0     H16283   3.892   7.785   7.143  0.6738  0.5876 -0.8721
  121MOL0     H16284   4.040   7.968   7.106  1.1475  1.3356  2.4559
  121MOL0     H16285   4.111   7.832   7.017  2.8840 -0.7081  1.0701
  121MOL0     H16286   4.334   7.712   7.066 -4.0625  0.2756 -1.0218
  121MOL0     H16287   4.567   7.691   7.159 -1.4064 -0.9560  1.9359
  121MOL0     H16288   4.646   7.861   7.169 -3.8533  3.5319 -1.8201
  121MOL0     H16289   4.627   7.844   7.418 -0.4100  0.9330  1.0829
  121MOL0     H16290   4.725   7.712   7.361 -0.3790 -0.4542 -3.2555
  121MOL0     H16291   4.430   7.707   7.434  0.4600  0.3647 -0.4934
  121MOL0     H16292   4.559   7.632   7.526 -1.1446  0.8485  1.3437
  121MOL0     H16293   4.490   7.439   7.425  3.2101  0.9266  2.8762
  121MOL0     H16294   4.606   7.513   7.306 -0.9146  0.7722 -1.0202
  121MOL0     H16295   4.264   7.474   7.044 -0.1387  0.3489 -0.3863
  121MOL0     H16296   3.910   7.422   6.992  0.6288 -0.9539 -3.6194
  121MOL0     H16297   4.068   7.460   6.932  0.9890  0.0244  2.1040
  121MOL0     H16298   4.024   7.291   6.976  0.7634 -0.7109 -0.2095
  121MOL0     H16299   3.629   7.137   7.150  0.5255  0.7629  2.0210
  121MOL0     H16300   3.404   7.157   7.093  4.6913 -3.1201  1.9730
  121MOL0     H16301   3.239   7.219   6.913  3.0457 -0.4453 -1.3934
  121MOL0     H16302   3.117   7.339   6.911 -0.7219  0.6643 -4.3345
  121MOL0     H16303   3.298   7.279   6.705  3.3411  2.1691 -0.7232
  121MOL0     H16304   3.163   7.407   6.720  0.0816  0.6689  0.9751
  121MOL0     H16305   3.413   7.466   6.645  0.0958  3.4585 -0.3270
  121MOL0     H16306   3.446   7.455   6.815  0.6305  0.7875 -0.3168
  121MOL0     H16307   3.253   7.639   6.663 -2.3707  0.1718  0.9898
  121MOL0     H16308   3.250   7.625   6.836 -1.7892 -1.3160 -0.0304
  121MOL0     H16309   3.356   7.821   6.743  1.6687  0.7970  3.6145
  121MOL0     H16310   3.481   7.734   6.651  1.7077 -0.2902  0.5172
  121MOL0     H16311   3.444   7.805   6.938 -1.4971 -0.4042 -1.0312
  121MOL0     H16312   3.545   7.666   6.905 -0.4337 -0.9010  0.5720
  121MOL0     H16313   3.600   7.943   6.767 -1.6556  0.4972 -0.2517
  121MOL0     H16314   3.680   7.786   6.735 -2.6547 -1.8563  0.4259
  121MOL0     H16315   3.781   7.785   6.958  0.0955  1.3657  4.0179
  121MOL0     H16316   3.699   7.936   7.001  1.0001  1.1230 -0.3022
  121MOL0     H16317   3.469   7.590   7.071 -0.4705  0.3220  0.5892
  121MOL0     H16318   3.688   7.560   7.124 -0.1815 -0.3112  0.3229
  121MOL0     H16319   4.037   7.463   7.487 -1.6016 -0.4474  0.1673
  121MOL0     H16320   4.267   7.488   7.467  1.4374 -0.5122 -1.3448
  121MOL0     H16321   3.230   7.669   7.029 -1.5136  0.6043 -1.1588
  121MOL0     H16322   2.992   7.595   6.974  0.7938 -2.4180  0.1260
  121MOL0     H16323   2.631   7.468   6.924 -1.8149  0.0066 -1.6479
  121MOL0     H16324   2.449   7.366   6.875 -0.0800  1.1235 -1.0415
  121MOL0     H16325   2.236   7.326   6.811 -0.1571 -1.1102 -1.2867
  121MOL0     H16326   2.080   7.289   6.875  3.6712 -2.3243  0.8890
  121MOL0     H16327   2.166   7.569   6.766 -2.2562  1.2912  2.3012
  121MOL0     H16328   2.002   7.521   6.816  0.0715  3.0827 -0.1549
  121MOL0     H16329   1.987   7.353   6.628 -1.2085  1.6478 -0.2970
  121MOL0     H16330   2.155   7.388   6.582  0.2380  0.2964 -0.4341
  121MOL0     H16331   1.994   7.515   6.431 -1.0078 -3.6737  0.5636
  121MOL0     H16332   2.071   7.632   6.527 -1.5744  0.7819 -1.6045
  121MOL0     H16333   1.656   7.633   6.619  0.8049  2.7926  2.6017
  121MOL0     H16334   2.228   7.610   7.162 -0.0604 -0.2782 -0.5905
  121MOL0     H16335   2.434   7.707   7.220 -2.2980 -0.1983 -0.4394
  122MOL0     O16336   5.530   7.021   2.711 -0.6377 -0.5210 -0.1689
  122MOL0     C16337   5.445   7.093   2.765 -0.4511 -0.2136 -0.1465
  122MOL0     O16338   5.467   7.200   2.858 -0.4696  1.1071 -0.9774
  122MOL0     C16339   5.593   7.223   2.909 -0.2608  0.2423  0.4208
  122MOL0     C16340   5.599   7.254   3.045  0.0776  0.4485  0.0585
  122MOL0     C16341   5.715   7.293   3.107  0.8018 -0.2400 -0.5296
  122MOL0     C16342   5.839   7.293   3.043 -1.2582 -1.0077 -0.0348
  122MOL0     O16343   5.969   7.323   3.097 -0.0344 -0.0121  0.2523
  122MOL0     C16344   5.982   7.427   3.191  0.1376  0.1077 -0.3073
  122MOL0     C16345   6.128   7.440   3.212  0.1754 -0.9527 -0.2365
  122MOL0     C16346   6.192   7.318   3.285  0.6732  0.3097 -0.4295
  122MOL0     C16347   6.340   7.340   3.308  0.3701 -0.0301 -0.7390
  122MOL0     C16348   6.373   7.359   3.466 -0.4275 -0.2358  0.8096
  122MOL0     C16349   6.523   7.386   3.483 -0.2761 -1.1715 -0.5483
  122MOL0     C16350   6.558   7.394   3.636 -0.8832  0.0912 -0.7934
  122MOL0     C16351   6.704   7.435   3.656 -0.6140 -0.5220  0.6786
  122MOL0     N16352   6.807   7.344   3.619  0.1529 -0.0230 -0.1553
  122MOL0     C16353   6.937   7.366   3.648  0.2795  0.3045 -0.0710
  122MOL0     C16354   7.000   7.244   3.626  0.1484 -0.0653  0.2059
  122MOL0     C16355   7.149   7.219   3.617  0.3068 -0.2295 -0.1967
  122MOL0     C16356   7.196   7.113   3.714  0.3252 -0.6201 -0.3716
  122MOL0     C16357   7.336   7.069   3.675 -0.5344  0.3896 -0.1791
  122MOL0     C16358   7.388   6.958   3.766  0.5309 -0.5088 -0.0047
  122MOL0     O16359   7.522   6.998   3.800 -0.0469 -0.1543 -0.3191
  122MOL0     C16360   7.594   6.910   3.874 -0.0103 -0.1256  0.0473
  122MOL0     C16361   7.646   6.961   3.993  0.1921 -0.2317  0.4127
  122MOL0     C16362   7.715   6.876   4.080 -0.5025 -0.5516  0.1207
  122MOL0     C16363   7.751   6.952   4.213  0.3453  0.1206 -0.0918
  122MOL0     C16364   7.745   6.738   4.054 -0.0580 -0.4679 -0.3867
  122MOL0     C16365   7.816   6.652   4.153 -0.1844  0.1900  0.3263
  122MOL0     O16366   7.752   6.533   4.143  0.0533  0.5942  0.4827
  122MOL0     C16367   7.767   6.420   4.216  0.0080  0.1400  0.8480
  122MOL0     C16368   7.877   6.379   4.294  0.1103 -1.7925 -0.7465
  122MOL0     C16369   7.856   6.278   4.388 -0.2795  0.3178  1.4908
  122MOL0     C16370   7.740   6.201   4.387  0.3560  0.7155  0.3043
  122MOL0     O16371   7.727   6.079   4.455  0.3991 -0.9088  0.2659
  122MOL0     C16372   7.766   6.097   4.600  0.1862  0.4846 -0.8149
  122MOL0     C16373   7.668   6.059   4.706 -0.5915 -0.2255  0.6458
  122MOL0     C16374   7.637   5.909   4.681  0.5223 -0.5645 -0.4308
  122MOL0     C16375   7.514   5.879   4.770 -0.4205 -0.7385  1.2502
  122MOL0     C16376   7.375   5.931   4.725 -0.4207  0.5016 -1.2163
  122MOL0     C16377   7.275   5.871   4.821  0.0193 -0.4739 -1.3006
  122MOL0     C16378   7.129   5.915   4.803  0.3077 -0.3681  0.7039
  122MOL0     C16379   7.042   5.874   4.921  0.8179  0.8911 -0.0825
  122MOL0    Cl16380   6.867   5.892   4.875  0.3125  0.0987 -0.1243
  122MOL0     C16381   7.631   6.240   4.302  0.3929  0.7550  0.5944
  122MOL0     C16382   7.657   6.339   4.213 -0.3453 -0.3967 -0.6041
  122MOL0     O16383   7.911   6.692   4.220  0.2837 -0.1253  0.1499
  122MOL0     C16384   7.697   6.695   3.933  0.8172 -0.0441  0.2601
  122MOL0     C16385   7.622   6.775   3.847  0.4048  0.2795  0.9711
  122MOL0     N16386   6.904   7.154   3.599  0.0480  0.7501 -0.3503
  122MOL0     N16387   6.786   7.212   3.589  0.1295 -0.6220  0.8930
  122MOL0     C16388   5.837   7.269   2.901 -0.2995 -1.3045  0.3667
  122MOL0     C16389   5.719   7.237   2.838  0.6141 -0.5702 -0.0851
  122MOL0     C16390   5.301   7.063   2.744 -0.5565  0.9239  0.9403
  122MOL0     C16391   5.273   6.957   2.655  0.1283 -0.8367  0.0082
  122MOL0     C16392   5.134   6.934   2.642  0.2028  0.7899  0.1330
  122MOL0     C16393   5.038   7.012   2.709  0.1696  0.0501  0.4967
  122MOL0     O16394   4.903   6.999   2.702  0.3888  0.1499 -0.2762
  122MOL0     C16395   4.843   6.900   2.619  0.2350 -0.9084  0.0382
  122MOL0     C16396   4.701   6.930   2.599  0.5001 -0.1413 -0.7714
  122MOL0     C16397   4.689   7.060   2.512  1.3031 -0.0230  0.3524
  122MOL0     C16398   4.694   7.044   2.361  0.2473  0.8378 -0.2494
  122MOL0     C16399   4.569   6.972   2.309  0.3850 -0.2914 -0.1786
  122MOL0     C16400   4.470   6.912   2.276 -0.3483  1.2432  0.2206
  122MOL0     C16401   5.072   7.110   2.789  0.8330  0.4229  0.4595
  122MOL0     C16402   5.203   7.144   2.806 -1.5965 -0.0435 -0.0948
  122MOL0     H16403   5.507   7.239   3.101 -0.6461  0.4429 -1.0852
  122MOL0     H16404   5.703   7.312   3.213 -1.2269  0.2623 -0.8152
  122MOL0     H16405   5.943   7.522   3.152  2.3299  1.3856  0.4412
  122MOL0     H16406   5.926   7.399   3.280 -2.2233 -0.2282 -1.8202
  122MOL0     H16407   6.183   7.450   3.118  2.5262  1.5712  1.2933
  122MOL0     H16408   6.150   7.530   3.270 -1.4256 -0.8667  0.2994
  122MOL0     H16409   6.147   7.295   3.382  1.4426 -1.6312 -0.4941
  122MOL0     H16410   6.177   7.237   3.212  1.5959 -2.8312  2.6232
  122MOL0     H16411   6.389   7.253   3.262  0.5113  0.5081 -1.6471
  122MOL0     H16412   6.376   7.430   3.256  0.5150  0.6123  0.4372
  122MOL0     H16413   6.313   7.437   3.513 -0.3358 -0.5112  1.3875
  122MOL0     H16414   6.354   7.260   3.510  1.0153 -1.0496 -0.2881
  122MOL0     H16415   6.577   7.306   3.432  1.3302 -0.6879  0.3237
  122MOL0     H16416   6.549   7.481   3.436 -0.5831 -0.9025 -0.1791
  122MOL0     H16417   6.491   7.471   3.674  0.1626  3.2571 -4.6870
  122MOL0     H16418   6.540   7.299   3.687  3.0525  0.1597  1.0763
  122MOL0     H16419   6.737   7.456   3.759 -0.1531  4.3768 -0.2466
  122MOL0     H16420   6.716   7.527   3.599 -1.1709 -0.8947 -0.0500
  122MOL0     H16421   6.994   7.453   3.678  4.6012 -1.5612 -2.0971
  122MOL0     H16422   7.181   7.189   3.517 -3.2587 -1.9121 -1.0041
  122MOL0     H16423   7.205   7.310   3.642 -2.0633  1.0763  0.7709
  122MOL0     H16424   7.133   7.024   3.718  1.1368 -1.1993 -0.2090
  122MOL0     H16425   7.208   7.156   3.814 -0.2407  1.3756 -1.0958
  122MOL0     H16426   7.413   7.146   3.675 -0.0966 -0.0003  1.3764
  122MOL0     H16427   7.333   7.034   3.572 -1.7729  3.0216 -1.1260
  122MOL0     H16428   7.375   6.857   3.726 -3.3500 -0.0611 -0.3494
  122MOL0     H16429   7.336   6.951   3.862  1.0462  1.7811  0.4982
  122MOL0     H16430   7.621   7.063   4.017 -2.3879 -0.7119  0.1244
  122MOL0     H16431   7.739   6.877   4.292  3.5071 -1.5839 -1.0338
  122MOL0     H16432   7.852   6.993   4.221 -0.3679  1.8003  0.8487
  122MOL0     H16433   7.683   7.033   4.236 -0.9754 -0.8061 -0.6177
  122MOL0     H16434   7.960   6.449   4.298 -1.5961  0.2779  0.4216
  122MOL0     H16435   7.936   6.247   4.453  0.6259 -1.3404 -0.3104
  122MOL0     H16436   7.861   6.043   4.606  0.1269 -0.8587 -6.6299
  122MOL0     H16437   7.784   6.202   4.622 -0.3529  0.3860  0.1509
  122MOL0     H16438   7.715   6.064   4.805 -0.0101  2.7099  0.3109
  122MOL0     H16439   7.583   6.125   4.690 -0.9185 -0.6868  0.4384
  122MOL0     H16440   7.725   5.849   4.707 -0.5319 -0.6495  3.7068
  122MOL0     H16441   7.615   5.883   4.577 -1.1943  0.1371 -0.2738
  122MOL0     H16442   7.516   5.771   4.786  2.3115 -1.3775 -2.2552
  122MOL0     H16443   7.533   5.940   4.859  0.2618 -1.0759  1.3426
  122MOL0     H16444   7.373   5.883   4.626  0.8326 -1.2891 -0.4268
  122MOL0     H16445   7.378   6.040   4.729  5.0572  0.5877  1.8582
  122MOL0     H16446   7.284   5.762   4.823  0.7126 -0.4408  0.9236
  122MOL0     H16447   7.307   5.906   4.920 -3.0861  0.9701 -0.6652
  122MOL0     H16448   7.081   5.880   4.712 -2.3784  1.8574  1.1132
  122MOL0     H16449   7.120   6.024   4.807 -0.5961 -0.4655  2.1168
  122MOL0     H16450   7.048   5.947   5.002 -2.2626  1.3838 -0.1787
  122MOL0     H16451   7.061   5.770   4.952 -0.6154 -0.0725 -2.1917
  122MOL0     H16452   7.534   6.192   4.292 -1.1994  3.6269  1.2658
  122MOL0     H16453   7.571   6.355   4.148  0.1425  0.9008 -0.9616
  122MOL0     H16454   7.709   6.592   3.899  0.8184 -0.0051  0.1413
  122MOL0     H16455   7.576   6.727   3.762  1.7317  0.5510  0.0701
  122MOL0     H16456   5.928   7.259   2.842 -0.9534  1.6006 -1.3827
  122MOL0     H16457   5.711   7.227   2.730  0.7068 -2.0955  0.0316
  122MOL0     H16458   5.337   6.876   2.620 -1.6953 -2.2315 -0.2661
  122MOL0     H16459   5.107   6.849   2.580 -3.1944 -0.9365  3.5736
  122MOL0     H16460   4.891   6.898   2.521 -1.6660 -0.3412 -0.9454
  122MOL0     H16461   4.852   6.802   2.668 -0.5593 -0.5582  0.9101
  122MOL0     H16462   4.654   6.956   2.695  0.8553 -2.5498  0.1126
  122MOL0     H16463   4.636   6.847   2.569 -1.0696  0.3539  1.0304
  122MOL0     H16464   4.760   7.140   2.535 -0.0689  1.4396 -0.3676
  122MOL0     H16465   4.590   7.096   2.540  0.1482 -2.3039 -0.5121
  122MOL0     H16466   4.780   6.986   2.327 -0.3084 -1.5008  2.0600
  122MOL0     H16467   4.702   7.143   2.316 -0.5049  0.5832 -0.9670
  122MOL0     H16468   4.373   6.869   2.264 -0.2809  0.9662  0.6745
  122MOL0     H16469   4.991   7.163   2.838 -1.0743 -1.7130 -0.1837
  122MOL0     H16470   5.234   7.220   2.877  0.5423 -1.0467  0.1328
  123MOL0     O16471  11.235   5.714   4.125 -0.3195 -0.1313  0.7905
  123MOL0     C16472  11.185   5.601   4.132 -0.3796  0.0113 -0.0379
  123MOL0     O16473  11.068   5.571   4.188  0.5955 -0.1275 -0.0138
  123MOL0     C16474  10.983   5.674   4.230 -0.4262  0.3801  0.6549
  123MOL0     C16475  11.023   5.793   4.283 -0.2289 -0.4620 -0.7862
  123MOL0     C16476  10.933   5.890   4.317  1.5143 -0.0620 -0.0714
  123MOL0     C16477  10.794   5.873   4.292  0.9372  0.0985 -0.0991
  123MOL0     O16478  10.691   5.964   4.318  0.7076 -0.5163 -0.6764
  123MOL0     C16479  10.731   6.077   4.392  0.2368 -0.4931 -0.1237
  123MOL0     C16480  10.618   6.147   4.467  0.9582  0.4949  0.7007
  123MOL0     C16481  10.676   6.266   4.555  0.5978  0.7315 -0.3800
  123MOL0     C16482  10.565   6.361   4.608  0.5574  0.6342 -0.5436
  123MOL0     C16483  10.478   6.310   4.727  0.0806 -0.6537  0.1195
  123MOL0     C16484  10.363   6.406   4.760 -0.8620  0.0301 -0.2007
  123MOL0     C16485  10.271   6.359   4.877  0.2766 -0.7735 -0.3030
  123MOL0     C16486  10.187   6.480   4.934  0.5745 -0.4222 -0.0520
  123MOL0     N16487  10.075   6.520   4.850 -0.1800 -0.0705 -0.9740
  123MOL0     C16488  10.079   6.598   4.741  0.1221  0.6276  0.5581
  123MOL0     C16489   9.965   6.569   4.669  0.2098 -0.2619  1.1408
  123MOL0     C16490   9.906   6.657   4.555  0.3803 -0.9613  0.0394
  123MOL0     C16491   9.898   6.600   4.418 -0.4048 -0.1393  0.0200
  123MOL0     C16492  10.030   6.593   4.327  0.3097  0.0290 -0.2787
  123MOL0     C16493  10.174   6.539   4.376 -0.2823 -0.5968 -0.6911
  123MOL0     O16494  10.162   6.419   4.452  0.1845 -0.1279  0.0967
  123MOL0     C16495  10.192   6.299   4.395  0.2324 -0.0382 -0.5699
  123MOL0     C16496  10.218   6.280   4.258  0.1096  0.4788  0.0717
  123MOL0     C16497  10.253   6.158   4.203 -0.2011  0.2042 -0.2009
  123MOL0     C16498  10.300   6.159   4.058  0.6460 -0.2474  0.4516
  123MOL0     C16499  10.255   6.047   4.293 -0.0906 -0.8355 -0.6816
  123MOL0     C16500  10.285   5.913   4.243 -0.6550 -0.5799  0.1656
  123MOL0     O16501  10.325   5.890   4.110  0.4125  0.0572 -0.2322
  123MOL0     C16502  10.352   5.763   4.065 -1.0549  0.1107 -0.1030
  123MOL0     C16503  10.483   5.728   4.023 -0.8276 -0.3736 -0.3493
  123MOL0     C16504  10.512   5.596   3.988  0.0732  0.4402 -0.2970
  123MOL0     C16505  10.407   5.500   3.981 -0.8418 -0.7640 -0.4532
  123MOL0     O16506  10.451   5.376   3.938  0.1174  0.4182  0.0200
  123MOL0     C16507  10.386   5.315   3.827 -0.3055  0.9522 -0.5323
  123MOL0     C16508  10.442   5.361   3.699  0.2658 -0.6105  1.4193
  123MOL0     C16509  10.347   5.421   3.603 -0.4246 -0.8680 -0.3127
  123MOL0     C16510  10.264   5.540   3.663  0.4250  0.3247  0.1240
  123MOL0     C16511  10.197   5.626   3.557  0.7343 -0.1324  0.5066
  123MOL0     C16512  10.152   5.765   3.606 -0.4341  0.0920  0.6084
  123MOL0     C16513  10.267   5.868   3.606 -0.0373  0.4522  0.1104
  123MOL0     C16514  10.230   5.994   3.697 -0.0862  1.1330 -0.0043
  123MOL0    Cl16515  10.129   6.105   3.602  0.5089 -0.0246  0.2825
  123MOL0     C16516  10.280   5.538   4.018  0.7324  0.1750 -0.4952
  123MOL0     C16517  10.253   5.674   4.056  0.1831 -0.1427 -0.1323
  123MOL0     O16518  10.257   5.821   4.318 -0.3936 -0.1356 -0.1280
  123MOL0     C16519  10.230   6.067   4.430 -0.4513 -0.3030 -0.2809
  123MOL0     C16520  10.204   6.191   4.480  0.1597 -0.0099  0.4349
  123MOL0     N16521   9.907   6.469   4.740  0.0227 -0.3494 -0.0083
  123MOL0     N16522   9.961   6.450   4.850 -0.0881 -0.7496 -0.5065
  123MOL0     C16523  10.750   5.750   4.242 -0.4744 -0.5880  0.5922
  123MOL0     C16524  10.846   5.652   4.207 -0.2870 -0.1955 -1.0547
  123MOL0     C16525  11.254   5.499   4.036  0.9126 -0.0123 -1.0681
  123MOL0     C16526  11.344   5.537   3.935  0.1499 -0.4785 -0.3986
  123MOL0     C16527  11.402   5.437   3.850  0.3200 -0.0485 -0.6607
  123MOL0     C16528  11.366   5.301   3.856 -0.3527 -1.1574 -0.2887
  123MOL0     O16529  11.429   5.215   3.770 -0.0576 -0.4466  0.2731
  123MOL0     C16530  11.491   5.093   3.820 -0.4392  0.0481  0.0727
  123MOL0     C16531  11.467   4.968   3.729  0.4135 -0.5404  0.7258
  123MOL0     C16532  11.327   4.934   3.725 -0.5407 -0.3173  0.2622
  123MOL0     C16533  11.296   4.802   3.644  0.3596  0.1646 -0.2597
  123MOL0     C16534  11.353   4.686   3.709 -0.3566 -0.4005  1.2751
  123MOL0     C16535  11.406   4.582   3.744  0.6236 -0.4801  0.7768
  123MOL0     C16536  11.270   5.264   3.958 -0.3315 -0.0556 -0.0385
  123MOL0     C16537  11.228   5.365   4.051  0.0710  0.3399 -0.7094
  123MOL0     H16538  11.128   5.810   4.304  0.1308 -1.5129 -1.6225
  123MOL0     H16539  10.966   5.986   4.356 -0.5087  0.4710  0.4654
  123MOL0     H16540  10.794   6.045   4.476  0.4021 -0.5846 -0.2827
  123MOL0     H16541  10.786   6.150   4.332  0.6911 -0.9062 -0.2169
  123MOL0     H16542  10.549   6.195   4.397  2.1858  0.2578 -0.7317
  123MOL0     H16543  10.567   6.069   4.525 -0.3329 -0.8147 -1.9997
  123MOL0     H16544  10.748   6.228   4.628  1.2647  4.1882  0.9625
  123MOL0     H16545  10.741   6.333   4.497 -0.9506  1.5707 -1.2201
  123MOL0     H16546  10.625   6.446   4.641 -0.2534  0.6446  1.0132
  123MOL0     H16547  10.503   6.384   4.521 -1.8114 -0.6307  0.7127
  123MOL0     H16548  10.438   6.211   4.705  3.5917 -1.8994 -1.2196
  123MOL0     H16549  10.539   6.297   4.817  1.4616 -0.3359 -0.7568
  123MOL0     H16550  10.407   6.500   4.794  1.1595 -1.1047  0.5144
  123MOL0     H16551  10.298   6.420   4.673 -1.1503 -1.5773 -0.2737
  123MOL0     H16552  10.211   6.273   4.846 -1.7669  0.1610  0.9257
  123MOL0     H16553  10.346   6.324   4.948 -1.8021 -2.6780  1.0695
  123MOL0     H16554  10.252   6.564   4.961  0.9937 -0.2048 -1.6605
  123MOL0     H16555  10.157   6.440   5.031  0.6306 -2.4513 -0.8398
  123MOL0     H16556  10.136   6.689   4.724  0.8320  0.3057  1.1635
  123MOL0     H16557   9.811   6.703   4.585  0.6818  1.9897 -2.8799
  123MOL0     H16558   9.973   6.743   4.546 -1.3582  0.3476 -1.3391
  123MOL0     H16559   9.822   6.641   4.351  1.8161 -0.3570 -2.8604
  123MOL0     H16560   9.874   6.496   4.439 -2.0395  0.6069  2.2006
  123MOL0     H16561  10.047   6.692   4.283  3.3005 -0.7833 -1.1650
  123MOL0     H16562  10.002   6.531   4.242  0.8255 -0.1635 -0.3084
  123MOL0     H16563  10.196   6.616   4.449 -0.2720  0.6209 -1.9444
  123MOL0     H16564  10.248   6.539   4.296 -0.2113 -2.2804 -0.6650
  123MOL0     H16565  10.218   6.360   4.185 -1.0241 -1.5847 -2.3153
  123MOL0     H16566  10.238   6.101   3.990  1.7680 -3.1029  1.6713
  123MOL0     H16567  10.315   6.255   4.009  2.3095 -1.4049 -1.4431
  123MOL0     H16568  10.399   6.112   4.056  0.7691  0.0390 -0.8622
  123MOL0     H16569  10.564   5.800   4.017 -0.8597 -0.4447 -3.1620
  123MOL0     H16570  10.618   5.576   3.972  0.3844  1.6469  0.1286
  123MOL0     H16571  10.393   5.207   3.839 -1.3483  0.7845 -1.3052
  123MOL0     H16572  10.277   5.329   3.830  0.0274  4.9346  3.2295
  123MOL0     H16573  10.520   5.437   3.704  0.0296 -0.3778  1.5887
  123MOL0     H16574  10.483   5.282   3.635  2.5170  2.3175 -1.0737
  123MOL0     H16575  10.277   5.351   3.557  2.2821 -2.6551 -2.0251
  123MOL0     H16576  10.404   5.456   3.516 -1.8257 -1.7662 -1.6454
  123MOL0     H16577  10.186   5.515   3.736  0.1093  1.9406  0.3659
  123MOL0     H16578  10.345   5.600   3.705  0.1507 -0.9505  2.6573
  123MOL0     H16579  10.105   5.574   3.529  0.9970 -0.0753 -0.5048
  123MOL0     H16580  10.266   5.638   3.473  0.4149  2.6075  0.5380
  123MOL0     H16581  10.075   5.802   3.539 -0.0366  2.0548  1.1892
  123MOL0     H16582  10.114   5.759   3.708 -0.9569  2.5931  0.6170
  123MOL0     H16583  10.275   5.893   3.500 -2.1490  5.1406  0.7718
  123MOL0     H16584  10.356   5.820   3.647 -1.5405 -3.5775 -0.9272
  123MOL0     H16585  10.325   6.045   3.717  0.2346  0.1259  1.2041
  123MOL0     H16586  10.187   5.971   3.794 -1.5321  2.8746 -0.1925
  123MOL0     H16587  10.195   5.470   4.023  2.3439 -1.9438 -0.5321
  123MOL0     H16588  10.151   5.691   4.089  1.4597  1.4227  3.5127
  123MOL0     H16589  10.234   5.978   4.492  0.7356  0.2873  0.5121
  123MOL0     H16590  10.180   6.211   4.584 -0.9261  0.8962  0.0316
  123MOL0     H16591  10.645   5.725   4.229 -0.7951  1.5092 -1.7358
  123MOL0     H16592  10.814   5.554   4.172  0.2103 -0.5641 -0.4910
  123MOL0     H16593  11.373   5.640   3.914  2.8617 -1.0130  0.4327
  123MOL0     H16594  11.476   5.464   3.775 -0.0163 -3.3331 -2.3484
  123MOL0     H16595  11.598   5.116   3.820 -0.7377  1.5062  0.0340
  123MOL0     H16596  11.458   5.066   3.921 -6.1609 -0.8840 -1.7014
  123MOL0     H16597  11.521   4.884   3.775 -2.8759 -1.2773  3.7075
  123MOL0     H16598  11.510   4.987   3.630 -2.3573 -0.3429 -0.5209
  123MOL0     H16599  11.267   5.016   3.683  2.2911  2.3412  1.0947
  123MOL0     H16600  11.287   4.914   3.824  0.1746 -1.4825  0.3411
  123MOL0     H16601  11.339   4.810   3.544 -1.9598 -1.1637 -1.4562
  123MOL0     H16602  11.191   4.778   3.624 -0.0826 -1.6776  3.4427
  123MOL0     H16603  11.431   4.483   3.774 -3.1937 -1.0298  2.7688
  123MOL0     H16604  11.242   5.159   3.963  1.2378 -0.4482  1.0825
  123MOL0     H16605  11.157   5.329   4.126 -0.9847  0.4869 -1.6152
  124MOL0     O16606   2.542   4.242   7.092  0.1697 -0.3093 -0.2740
  124MOL0     C16607   2.517   4.309   7.191  0.4071 -0.3481 -0.6263
  124MOL0     O16608   2.512   4.265   7.321 -0.5663  0.3579  0.5887
  124MOL0     C16609   2.532   4.132   7.357 -1.0347 -0.3172 -0.5492
  124MOL0     C16610   2.539   4.109   7.491  0.2733  0.0127 -0.2914
  124MOL0     C16611   2.557   3.981   7.548  0.3987 -1.2472 -0.4075
  124MOL0     C16612   2.559   3.875   7.458  0.3441 -1.7214 -0.4420
  124MOL0     O16613   2.557   3.751   7.508  0.2604  0.1587  0.0418
  124MOL0     C16614   2.658   3.669   7.478 -0.3585  0.2375  0.3785
  124MOL0     C16615   2.677   3.554   7.575 -0.5508 -0.5438  0.0479
  124MOL0     C16616   2.786   3.457   7.520  0.1247 -0.5572  1.0075
  124MOL0     C16617   2.927   3.501   7.548 -0.3206 -0.4014  0.0638
  124MOL0     C16618   3.025   3.383   7.547  0.0806 -0.5778  1.2403
  124MOL0     C16619   3.170   3.430   7.576 -0.3013 -0.2725 -0.3070
  124MOL0     C16620   3.252   3.304   7.608 -0.6029 -1.1976  0.1089
  124MOL0     C16621   3.403   3.337   7.612  0.9331 -0.8157  0.4988
  124MOL0     N16622   3.435   3.436   7.708  0.3625  0.2880  0.1936
  124MOL0     C16623   3.422   3.421   7.838  0.4986 -0.2421  0.0307
  124MOL0     C16624   3.464   3.541   7.886 -0.3137 -0.1629  0.0191
  124MOL0     C16625   3.461   3.578   8.031  0.2294  0.6899  0.0374
  124MOL0     C16626   3.337   3.661   8.052  0.1981  0.8477  0.1462
  124MOL0     C16627   3.317   3.723   8.193 -0.6061  0.2688 -0.1157
  124MOL0     C16628   3.172   3.785   8.191 -0.4016 -0.2472  0.0251
  124MOL0     O16629   3.169   3.904   8.113  0.0671 -0.1333 -0.2939
  124MOL0     C16630   3.164   4.020   8.174 -0.1485 -0.6852  0.0090
  124MOL0     C16631   3.285   4.087   8.197 -0.2226 -1.0163  0.2576
  124MOL0     C16632   3.290   4.209   8.268  0.1434 -0.0283  0.2380
  124MOL0     C16633   3.423   4.268   8.295 -0.3056  0.7150  0.4763
  124MOL0     C16634   3.167   4.260   8.324 -0.1939 -0.1798  0.3618
  124MOL0     C16635   3.150   4.399   8.374  0.3979 -0.5216  0.4565
  124MOL0     O16636   3.241   4.497   8.335 -0.0450 -0.3963 -0.0667
  124MOL0     C16637   3.249   4.627   8.389  0.0748 -0.1045 -0.3368
  124MOL0     C16638   3.137   4.704   8.369  0.3835  0.0637  0.5599
  124MOL0     C16639   3.132   4.828   8.425  0.1096 -0.6785 -0.1381
  124MOL0     C16640   3.240   4.875   8.504  0.9324 -1.3454 -0.3973
  124MOL0     O16641   3.214   4.995   8.563  0.1406 -0.5327 -0.6397
  124MOL0     C16642   3.285   5.029   8.686 -0.2739  0.5888  0.9242
  124MOL0     C16643   3.249   5.171   8.724  0.0887 -0.6796  0.0281
  124MOL0     C16644   3.354   5.273   8.675 -0.5460  0.2167 -0.3779
  124MOL0     C16645   3.319   5.414   8.706  0.2222 -0.0847  0.7262
  124MOL0     C16646   3.443   5.507   8.699 -0.5183  0.1098  0.9024
  124MOL0     C16647   3.530   5.479   8.575  0.6857  0.2457 -0.9114
  124MOL0     C16648   3.641   5.575   8.567 -1.0135 -0.1162  0.5864
  124MOL0     C16649   3.719   5.546   8.444  1.1450 -0.8890  0.7221
  124MOL0    Cl16650   3.833   5.682   8.413 -0.6717  0.0819 -0.1230
  124MOL0     C16651   3.358   4.804   8.520 -0.8582  0.3793  0.0605
  124MOL0     C16652   3.352   4.670   8.471 -0.0889 -0.3687 -0.2812
  124MOL0     O16653   3.059   4.417   8.460  0.4594  0.0865  0.0576
  124MOL0     C16654   3.052   4.188   8.313 -0.5332 -0.0157  0.4911
  124MOL0     C16655   3.050   4.067   8.230  0.1826 -0.0406 -0.5226
  124MOL0     N16656   3.521   3.618   7.789  0.6120 -0.5646 -0.1857
  124MOL0     N16657   3.493   3.557   7.678  0.1005 -0.1795 -0.0892
  124MOL0     C16658   2.552   3.896   7.326 -0.7550  0.4122 -0.0446
  124MOL0     C16659   2.544   4.021   7.271 -0.3748  0.0948  0.4803
  124MOL0     C16660   2.465   4.452   7.171  0.7534 -0.0005 -0.0078
  124MOL0     C16661   2.467   4.498   7.035  0.0277 -0.4729  0.1939
  124MOL0     C16662   2.424   4.626   7.002 -0.0553  0.7117 -0.4713
  124MOL0     C16663   2.373   4.712   7.095 -0.1801  0.3846 -0.4707
  124MOL0     O16664   2.312   4.834   7.066 -0.2332 -0.0941 -0.1182
  124MOL0     C16665   2.308   4.879   6.928 -0.1541  0.2654 -0.4226
  124MOL0     C16666   2.237   5.010   6.910 -0.6936 -1.2718 -0.2694
  124MOL0     C16667   2.092   5.026   6.932 -0.6551  0.8551  0.1629
  124MOL0     C16668   2.045   4.955   7.061  0.2869  0.3785  0.0461
  124MOL0     C16669   1.912   5.003   7.092  0.2265  0.4717  0.1311
  124MOL0     C16670   1.799   5.030   7.137 -0.0514 -0.1677  0.1365
  124MOL0     C16671   2.371   4.667   7.226 -0.3927 -0.2121  0.5247
  124MOL0     C16672   2.415   4.538   7.267  0.0378 -0.4800  0.1005
  124MOL0     H16673   2.553   4.193   7.558  1.7194  1.1585 -1.9404
  124MOL0     H16674   2.573   3.970   7.655 -0.6069  1.9600  0.1821
  124MOL0     H16675   2.638   3.620   7.382 -2.0009  0.8036  0.3962
  124MOL0     H16676   2.747   3.733   7.471 -0.8093  0.7749 -0.7141
  124MOL0     H16677   2.707   3.600   7.670 -1.1957  4.6099 -1.9129
  124MOL0     H16678   2.583   3.499   7.587 -1.4427  0.8362 -0.3133
  124MOL0     H16679   2.771   3.366   7.579  2.9616 -3.4399 -2.2592
  124MOL0     H16680   2.785   3.437   7.412  4.7397 -0.0050  0.6584
  124MOL0     H16681   2.953   3.578   7.474 -1.4031  0.8323  0.9058
  124MOL0     H16682   2.930   3.539   7.651 -0.4504 -2.6331  0.9478
  124MOL0     H16683   2.989   3.319   7.627 -4.9258 -1.1480 -1.0851
  124MOL0     H16684   3.022   3.324   7.455 -0.9262 -0.1431  0.9853
  124MOL0     H16685   3.215   3.477   7.488  0.0098  2.4208  1.1635
  124MOL0     H16686   3.183   3.502   7.657  2.9993  0.0318 -0.9622
  124MOL0     H16687   3.221   3.265   7.705  0.4595  1.5990  1.6917
  124MOL0     H16688   3.220   3.230   7.534 -3.1132  0.3124 -0.4349
  124MOL0     H16689   3.446   3.372   7.518  2.8532 -1.9309  0.8958
  124MOL0     H16690   3.468   3.251   7.631  0.2154 -0.9663  2.4775
  124MOL0     H16691   3.383   3.338   7.896  2.5694 -1.0400  0.3494
  124MOL0     H16692   3.456   3.489   8.096  0.2760 -0.5493 -1.5875
  124MOL0     H16693   3.560   3.617   8.057 -1.3531  2.5420  4.1236
  124MOL0     H16694   3.249   3.601   8.026 -0.6619 -0.4260  4.9930
  124MOL0     H16695   3.339   3.745   7.982  0.0598 -0.1786 -1.1347
  124MOL0     H16696   3.382   3.810   8.203 -2.4261  2.2227 -3.4955
  124MOL0     H16697   3.323   3.648   8.272  1.9117 -1.2636 -1.5927
  124MOL0     H16698   3.147   3.800   8.296  1.0383  0.0588  0.3415
  124MOL0     H16699   3.092   3.718   8.157 -0.9708  0.2171  0.4231
  124MOL0     H16700   3.381   4.055   8.155  0.0507 -0.0263  0.1181
  124MOL0     H16701   3.498   4.189   8.298 -1.2857 -0.3936 -2.0075
  124MOL0     H16702   3.454   4.340   8.218  2.8545 -1.0213 -0.0438
  124MOL0     H16703   3.418   4.315   8.394 -0.8021 -0.1690  0.8766
  124MOL0     H16704   3.058   4.665   8.306  0.1845  0.0135  0.8394
  124MOL0     H16705   3.038   4.882   8.417  0.2401 -0.4907 -0.4425
  124MOL0     H16706   3.255   4.967   8.771  0.1331  2.7075  2.7149
  124MOL0     H16707   3.394   5.026   8.679  0.0913  3.4658  3.3314
  124MOL0     H16708   3.145   5.190   8.694  0.7011 -0.9120 -2.4445
  124MOL0     H16709   3.252   5.186   8.832  2.4835  1.0773 -0.2145
  124MOL0     H16710   3.353   5.261   8.567 -1.4286  0.1510 -0.3689
  124MOL0     H16711   3.448   5.232   8.714 -1.1187  0.4615  1.3908
  124MOL0     H16712   3.241   5.452   8.641  0.3339  1.1983  1.3125
  124MOL0     H16713   3.278   5.419   8.807  0.9273  2.1137  0.9545
  124MOL0     H16714   3.510   5.488   8.783  1.7243 -1.1782 -1.0565
  124MOL0     H16715   3.415   5.613   8.690 -3.8056 -0.6068  1.6439
  124MOL0     H16716   3.572   5.378   8.566  2.1208  0.7734 -0.3417
  124MOL0     H16717   3.464   5.506   8.492 -1.2057  1.9636  1.0591
  124MOL0     H16718   3.704   5.563   8.656 -0.6239  1.2484  0.5225
  124MOL0     H16719   3.591   5.672   8.575  0.6448  0.6839  2.1459
  124MOL0     H16720   3.654   5.528   8.358  0.9738 -3.1012  1.2542
  124MOL0     H16721   3.777   5.453   8.447  0.5627 -1.9730 -5.8431
  124MOL0     H16722   3.447   4.853   8.557 -1.5420  3.3072 -1.8813
  124MOL0     H16723   3.441   4.609   8.487 -0.2580  0.0945  3.3894
  124MOL0     H16724   2.954   4.213   8.354 -0.5438  1.1222 -0.1780
  124MOL0     H16725   2.958   4.011   8.216 -0.2975  0.0218  1.9435
  124MOL0     H16726   2.555   3.810   7.260 -0.0347 -0.2535  0.8207
  124MOL0     H16727   2.543   4.026   7.162  1.2490  0.3673  0.4642
  124MOL0     H16728   2.516   4.442   6.956  1.7185  0.6771  0.3814
  124MOL0     H16729   2.431   4.660   6.899  2.4586 -0.0454 -0.5923
  124MOL0     H16730   2.412   4.890   6.894 -0.1420 -0.0835 -0.5036
  124MOL0     H16731   2.253   4.799   6.878 -0.7231  0.4218 -0.0549
  124MOL0     H16732   2.253   5.046   6.808 -0.7154 -2.5056 -0.7238
  124MOL0     H16733   2.291   5.075   6.979 -2.1889 -1.1756  0.8683
  124MOL0     H16734   2.033   4.990   6.847  0.7798  1.2745 -1.0395
  124MOL0     H16735   2.088   5.135   6.944  1.2433  1.1044 -1.1010
  124MOL0     H16736   2.116   4.988   7.137  0.6607  1.8275 -0.8951
  124MOL0     H16737   2.042   4.848   7.039 -0.6114  0.5539 -0.7923
  124MOL0     H16738   1.703   5.067   7.168 -0.6849 -0.1936 -1.6591
  124MOL0     H16739   2.343   4.751   7.289 -3.1342  0.2064 -1.1189
  124MOL0     H16740   2.404   4.494   7.366 -2.3782 -0.2918 -0.0256
  125MOL0     O16741   7.833   4.421   0.011 -0.0562 -0.5833 -0.3949
  125MOL0     C16742   7.730   4.491   0.043 -1.1080  0.0141  0.1774
  125MOL0     O16743   7.623   4.441   0.101 -0.5220 -0.0878 -0.2881
  125MOL0     C16744   7.640   4.313   0.158  0.2762 -0.7434 -0.2561
  125MOL0     C16745   7.566   4.204   0.111  0.6534  0.1520 -0.4419
  125MOL0     C16746   7.588   4.070   0.155  0.1220 -0.4370  1.1461
  125MOL0     C16747   7.667   4.043   0.270  0.9236  0.1737  0.8362
  125MOL0     O16748   7.672   3.913   0.311  0.1463 -0.1889  0.2082
  125MOL0     C16749   7.766   3.866   0.401 -0.2652  0.6483 -0.3825
  125MOL0     C16750   7.718   3.731   0.471  0.5691 -0.0341  0.6562
  125MOL0     C16751   7.821   3.678   0.579 -0.4025  1.2003 -0.6633
  125MOL0     C16752   7.773   3.542   0.639  0.3767  0.1778  1.1481
  125MOL0     C16753   7.886   3.490   0.727  0.2704 -0.2133  0.2457
  125MOL0     C16754   7.844   3.389   0.839 -0.9636 -0.5592  0.6028
  125MOL0     C16755   7.959   3.357   0.934  0.6207 -0.0037  0.3051
  125MOL0     C16756   8.081   3.291   0.863  0.5570  0.9610 -0.8298
  125MOL0     N16757   8.164   3.222   0.968 -0.4502 -0.4642  0.7155
  125MOL0     C16758   8.233   3.269   1.080 -0.0739 -0.8973  0.3687
  125MOL0     C16759   8.261   3.159   1.149 -1.0345 -1.0419  0.0933
  125MOL0     C16760   8.340   3.163   1.276 -0.3092 -0.5416  0.4961
  125MOL0     C16761   8.321   3.039   1.366  0.1999  0.0483 -0.7455
  125MOL0     C16762   8.393   3.058   1.507  0.0420 -0.1614 -0.0784
  125MOL0     C16763   8.291   3.047   1.625  0.6977  0.6297  0.2455
  125MOL0     O16764   8.255   3.172   1.677  0.8161 -0.2532 -0.1782
  125MOL0     C16765   8.193   3.259   1.590  0.1737  0.1228 -0.7305
  125MOL0     C16766   8.070   3.230   1.523 -1.2268 -1.3648 -0.3902
  125MOL0     C16767   8.013   3.332   1.434 -0.9787  0.2528 -0.9578
  125MOL0     C16768   7.877   3.298   1.371 -0.2310  0.8893 -0.1535
  125MOL0     C16769   8.085   3.456   1.409 -0.2602  0.9470  0.3115
  125MOL0     C16770   8.041   3.570   1.324  0.6871 -0.1037  0.0833
  125MOL0     O16771   7.944   3.541   1.231 -0.4783 -0.1412 -0.0480
  125MOL0     C16772   7.900   3.643   1.143  0.5625 -0.2568  0.4529
  125MOL0     C16773   7.768   3.616   1.107  0.4727 -0.7146 -0.4194
  125MOL0     C16774   7.697   3.712   1.023  0.6139 -0.7472  0.8250
  125MOL0     C16775   7.750   3.833   0.972  0.1852 -0.1468  1.3245
  125MOL0     O16776   7.682   3.937   0.913  0.0235 -0.2454  0.4689
  125MOL0     C16777   7.589   3.907   0.808  1.1119  0.0551  0.0762
  125MOL0     C16778   7.444   3.906   0.866 -1.0949  0.7990 -0.0219
  125MOL0     C16779   7.351   3.824   0.786 -0.2630 -0.0332 -0.4059
  125MOL0     C16780   7.213   3.819   0.861 -0.0603 -0.7648  0.0961
  125MOL0     C16781   7.100   3.808   0.755 -0.6152 -0.5700 -0.5074
  125MOL0     C16782   7.033   3.669   0.740 -0.3159 -0.3526 -0.2595
  125MOL0     C16783   6.962   3.600   0.857 -0.3452  0.2439 -0.0572
  125MOL0     C16784   6.857   3.671   0.934  0.6283 -0.2258 -0.3798
  125MOL0    Cl16785   6.703   3.724   0.839 -0.5644 -0.2504  0.2876
  125MOL0     C16786   7.882   3.846   0.999 -0.3490  0.5739 -0.1584
  125MOL0     C16787   7.961   3.756   1.083  0.4323  0.7830  0.6251
  125MOL0     O16788   8.071   3.687   1.357 -0.2912  0.4637  0.4355
  125MOL0     C16789   8.213   3.471   1.461 -0.5697 -0.9931  0.1585
  125MOL0     C16790   8.268   3.380   1.551 -0.6909 -1.0835  0.2981
  125MOL0     N16791   8.239   3.041   1.078  0.4902  0.2109 -0.1732
  125MOL0     N16792   8.178   3.084   0.973  1.1136  0.0045  0.4330
  125MOL0     C16793   7.739   4.153   0.317  0.8410  0.3235  0.0091
  125MOL0     C16794   7.727   4.285   0.262 -0.0402 -0.1937  0.6043
  125MOL0     C16795   7.734   4.638  -0.001  0.0132  0.8580  0.6613
  125MOL0     C16796   7.851   4.700  -0.043 -0.0464  1.1088 -0.6242
  125MOL0     C16797   7.857   4.831  -0.072  0.6908  0.1549  0.1556
  125MOL0     C16798   7.739   4.894  -0.102  0.2531  0.0044 -0.7206
  125MOL0     O16799   7.746   5.018  -0.155 -0.3672  0.5745  0.3149
  125MOL0     C16800   7.659   5.066  -0.252  0.6273  0.8728 -0.2358
  125MOL0     C16801   7.660   5.216  -0.238  0.2047  0.6457 -0.6783
  125MOL0     C16802   7.540   5.290  -0.296  0.2370 -0.1492 -0.0087
  125MOL0     C16803   7.550   5.440  -0.271  0.3684 -0.1672 -0.5423
  125MOL0     C16804   7.487   5.494  -0.145  0.5329 -0.2546  0.2589
  125MOL0     C16805   7.448   5.554  -0.051 -0.0422  0.0161  0.4394
  125MOL0     C16806   7.620   4.838  -0.060  0.9517 -0.2793  0.6502
  125MOL0     C16807   7.611   4.712  -0.012  0.4404  0.5407  0.7157
  125MOL0     H16808   7.500   4.218   0.026 -1.3711  2.8450  1.3797
  125MOL0     H16809   7.524   3.997   0.107  1.3012  0.6680 -2.4299
  125MOL0     H16810   7.858   3.844   0.346  0.8510 -2.5334  2.4192
  125MOL0     H16811   7.793   3.939   0.478 -1.1740 -3.0713  3.9176
  125MOL0     H16812   7.620   3.746   0.517 -0.2952 -0.7603 -0.9052
  125MOL0     H16813   7.685   3.662   0.393 -0.1659  0.8444  0.1573
  125MOL0     H16814   7.922   3.670   0.539  0.5808 -0.3726  1.8988
  125MOL0     H16815   7.820   3.745   0.665 -4.9931  0.0392  0.4730
  125MOL0     H16816   7.673   3.538   0.683 -0.5711  1.5798 -0.6801
  125MOL0     H16817   7.766   3.478   0.550  1.5724 -1.5299  2.2321
  125MOL0     H16818   7.966   3.452   0.663 -0.8139 -3.4465  0.6156
  125MOL0     H16819   7.918   3.579   0.782 -0.6019  0.1520  0.1871
  125MOL0     H16820   7.759   3.439   0.885 -0.7453  0.5468 -0.1407
  125MOL0     H16821   7.804   3.301   0.787  1.4102 -1.2978 -0.1108
  125MOL0     H16822   8.003   3.448   0.974 -0.3129  0.2499  0.7578
  125MOL0     H16823   7.910   3.293   1.008 -0.8397 -1.1936 -1.5852
  125MOL0     H16824   8.135   3.356   0.794 -2.0435 -0.2167 -4.2583
  125MOL0     H16825   8.040   3.209   0.802 -0.2147  0.7406 -0.0490
  125MOL0     H16826   8.244   3.372   1.114  2.1620  0.4287 -3.6636
  125MOL0     H16827   8.446   3.159   1.251 -0.2856  0.4622  0.4326
  125MOL0     H16828   8.304   3.253   1.326 -2.0113 -0.3314 -1.0029
  125MOL0     H16829   8.345   2.941   1.325  0.6689 -0.1673  0.0383
  125MOL0     H16830   8.211   3.036   1.371  0.2325 -2.3621 -0.1313
  125MOL0     H16831   8.439   3.157   1.511  1.1638 -0.6896  0.3520
  125MOL0     H16832   8.460   2.972   1.515  0.7387  0.3043 -0.8131
  125MOL0     H16833   8.325   2.978   1.703  1.1613 -0.3478 -0.8042
  125MOL0     H16834   8.201   2.992   1.596  0.5333  2.5075 -3.2916
  125MOL0     H16835   8.017   3.139   1.550 -0.4589 -1.4763  0.8255
  125MOL0     H16836   7.873   3.270   1.265 -3.0141  0.0085  0.1126
  125MOL0     H16837   7.846   3.201   1.411  1.6909  0.2705 -0.0370
  125MOL0     H16838   7.805   3.377   1.392  0.7561  2.0976 -1.1587
  125MOL0     H16839   7.727   3.526   1.152 -0.4023  0.7866  2.0159
  125MOL0     H16840   7.592   3.689   1.003  0.2106 -1.0909  3.1097
  125MOL0     H16841   7.583   3.983   0.729 -2.5203 -0.9079 -0.7518
  125MOL0     H16842   7.612   3.812   0.760  0.4529  0.0896 -0.3142
  125MOL0     H16843   7.458   3.876   0.971  2.6687 -1.8166 -1.0764
  125MOL0     H16844   7.406   4.007   0.851 -0.6592  0.7327 -1.7958
  125MOL0     H16845   7.404   3.728   0.777  0.1715  0.0540  0.9957
  125MOL0     H16846   7.335   3.863   0.685 -0.1892 -0.8477 -0.7395
  125MOL0     H16847   7.190   3.742   0.935 -3.3241  3.0306  3.4979
  125MOL0     H16848   7.213   3.911   0.920 -3.1675  0.7336 -1.9484
  125MOL0     H16849   7.128   3.843   0.655 -1.6715  2.2238  0.1028
  125MOL0     H16850   7.028   3.884   0.785  2.8788  2.0957  1.9431
  125MOL0     H16851   6.959   3.695   0.665 -1.1449  1.9452  1.2444
  125MOL0     H16852   7.110   3.603   0.699  1.8938  1.6485  0.4119
  125MOL0     H16853   7.039   3.577   0.931 -0.3364 -1.2439 -0.4963
  125MOL0     H16854   6.928   3.501   0.825 -2.4727 -0.2414  3.3064
  125MOL0     H16855   6.902   3.763   0.974  1.2064 -0.9961  0.7738
  125MOL0     H16856   6.834   3.612   1.023  0.4279  3.0450  1.9206
  125MOL0     H16857   7.928   3.938   0.964 -1.2554  1.4160  0.8222
  125MOL0     H16858   8.068   3.764   1.097  0.5934  1.0469 -0.6082
  125MOL0     H16859   8.277   3.550   1.423 -0.1950 -1.7259 -0.7881
  125MOL0     H16860   8.365   3.406   1.591 -1.5187  3.2242 -0.0778
  125MOL0     H16861   7.810   4.135   0.397  1.9282 -1.6540 -1.3209
  125MOL0     H16862   7.786   4.362   0.311 -1.7848  0.7262  1.3431
  125MOL0     H16863   7.945   4.645  -0.044  0.2060  1.3692  1.7222
  125MOL0     H16864   7.950   4.881  -0.094  0.8423  0.4346  1.3433
  125MOL0     H16865   7.689   5.043  -0.355 -2.0626 -2.9436 -0.4281
  125MOL0     H16866   7.558   5.024  -0.239  0.0762  2.2365  0.0863
  125MOL0     H16867   7.752   5.259  -0.277 -0.6242  3.3631  0.1742
  125MOL0     H16868   7.650   5.239  -0.131  1.2168  1.1720 -0.6855
  125MOL0     H16869   7.450   5.258  -0.243  0.7526 -0.2931  0.8023
  125MOL0     H16870   7.531   5.261  -0.401 -2.6194  0.5979 -0.0457
  125MOL0     H16871   7.505   5.502  -0.349 -2.4442 -2.2095 -0.7257
  125MOL0     H16872   7.652   5.479  -0.279 -1.5275  6.0501  0.0481
  125MOL0     H16873   7.419   5.621   0.028 -1.8580  2.8070 -2.3398
  125MOL0     H16874   7.530   4.895  -0.077  1.0413  0.3144  2.0550
  125MOL0     H16875   7.527   4.649   0.018  1.7629 -2.3161 -1.0604
  126MOL0     O16876   7.196   4.985   3.392  0.7954  0.2377  0.3916
  126MOL0     C16877   7.166   4.914   3.297 -0.8042 -0.4558 -0.1205
  126MOL0     O16878   7.041   4.863   3.278 -0.1561  0.1017  0.0708
  126MOL0     C16879   6.933   4.891   3.362 -0.5382  0.5321 -0.4191
  126MOL0     C16880   6.909   5.001   3.455  1.4854 -0.0435 -0.0591
  126MOL0     C16881   6.788   5.021   3.512  0.1335 -0.2829  0.9170
  126MOL0     C16882   6.684   4.925   3.500 -0.6144  0.7389  0.0663
  126MOL0     O16883   6.563   4.927   3.562  0.3059 -1.0093 -0.2095
  126MOL0     C16884   6.548   5.009   3.683 -0.2289 -0.0409 -0.1243
  126MOL0     C16885   6.408   4.997   3.738  0.5855 -0.3019  0.1246
  126MOL0     C16886   6.371   5.113   3.827 -0.4684 -0.0449  0.4564
  126MOL0     C16887   6.437   5.088   3.961  0.2633 -0.2902  0.2221
  126MOL0     C16888   6.397   5.201   4.055 -0.4107  0.3640 -0.6848
  126MOL0     C16889   6.494   5.321   4.058 -0.6200  0.8292 -0.9714
  126MOL0     C16890   6.633   5.289   4.118 -0.0688  0.3383  0.0334
  126MOL0     C16891   6.711   5.412   4.158  0.0328  0.6906 -0.2526
  126MOL0     N16892   6.650   5.482   4.265  0.0987  0.6667 -1.2463
  126MOL0     C16893   6.593   5.420   4.378 -0.6758 -1.0934  0.1034
  126MOL0     C16894   6.530   5.517   4.437 -0.2847  0.7863  0.1084
  126MOL0     C16895   6.469   5.491   4.573 -0.4833 -0.8689 -0.3531
  126MOL0     C16896   6.511   5.597   4.671  0.5102  0.2659 -0.3214
  126MOL0     C16897   6.447   5.581   4.812 -0.7220  1.0164  1.4198
  126MOL0     C16898   6.490   5.687   4.910  0.2867  0.8179  0.3180
  126MOL0     O16899   6.437   5.670   5.040 -0.5457  0.4407 -0.2745
  126MOL0     C16900   6.524   5.680   5.154 -0.4276 -0.8644 -0.6586
  126MOL0     C16901   6.649   5.749   5.157 -0.0643  0.4440 -0.3129
  126MOL0     C16902   6.711   5.749   5.290  0.6422 -0.5475 -0.4186
  126MOL0     C16903   6.837   5.837   5.312  0.2358  0.2966  0.0338
  126MOL0     C16904   6.653   5.676   5.397 -0.0611  0.6905  0.8568
  126MOL0     C16905   6.693   5.672   5.539 -0.1242  1.1570 -0.7658
  126MOL0     O16906   6.784   5.756   5.578 -0.1805  0.0893  0.1373
  126MOL0     C16907   6.862   5.737   5.689  0.7744 -1.0591  0.5557
  126MOL0     C16908   6.945   5.632   5.703  0.3079 -0.4197 -0.2020
  126MOL0     C16909   7.039   5.620   5.808 -0.0664  0.4436 -0.3212
  126MOL0     C16910   7.048   5.725   5.904 -0.5160  0.2317 -0.4309
  126MOL0     O16911   7.155   5.716   5.993  0.0115 -0.1130  0.4143
  126MOL0     C16912   7.208   5.835   6.037 -0.9224 -1.1390  0.1029
  126MOL0     C16913   7.336   5.822   6.128  0.5709  0.3666 -0.0668
  126MOL0     C16914   7.317   5.749   6.267 -0.4054  0.3641 -0.1173
  126MOL0     C16915   7.431   5.782   6.358 -0.3119  0.7787 -0.0902
  126MOL0     C16916   7.400   5.751   6.507  0.3087 -0.2020  0.1821
  126MOL0     C16917   7.299   5.863   6.570 -0.2670 -0.7256 -0.7302
  126MOL0     C16918   7.241   5.845   6.712  0.2917  0.2638  0.1608
  126MOL0     C16919   7.154   5.721   6.739  1.3256  0.4976 -0.2673
  126MOL0    Cl16920   7.013   5.703   6.620 -0.5602  0.4752 -0.1703
  126MOL0     C16921   6.959   5.831   5.899 -0.2546  0.8279  0.2137
  126MOL0     C16922   6.864   5.836   5.794 -0.1097  0.0187 -0.1283
  126MOL0     O16923   6.666   5.568   5.601 -0.3698  0.3545  0.8505
  126MOL0     C16924   6.529   5.610   5.377 -0.5283 -0.6871 -0.3221
  126MOL0     C16925   6.468   5.608   5.261  0.0335  0.2086 -0.5283
  126MOL0     N16926   6.540   5.631   4.366 -0.6593  0.1199 -0.6687
  126MOL0     N16927   6.596   5.605   4.253  0.1926 -0.2084  0.1927
  126MOL0     C16928   6.710   4.810   3.420  0.7512  0.8271  0.0715
  126MOL0     C16929   6.835   4.788   3.359  0.2421  0.0557  0.2776
  126MOL0     C16930   7.276   4.880   3.211 -0.2594  0.2496  0.7446
  126MOL0     C16931   7.417   4.916   3.237  1.2219  0.8233 -1.0170
  126MOL0     C16932   7.516   4.867   3.155 -0.2695 -0.0726 -0.1113
  126MOL0     C16933   7.494   4.796   3.038  0.0663  0.2135  0.1883
  126MOL0     O16934   7.591   4.752   2.963 -0.5039  0.2334  0.0445
  126MOL0     C16935   7.721   4.722   3.010 -0.7513 -0.4248  0.0410
  126MOL0     C16936   7.773   4.610   2.920 -0.6104 -0.4464 -0.0189
  126MOL0     C16937   7.687   4.489   2.927 -0.2040  0.4946 -0.4066
  126MOL0     C16938   7.743   4.364   2.859  0.2303 -0.6143 -0.0699
  126MOL0     C16939   7.644   4.264   2.828  0.6283 -1.2602  0.1535
  126MOL0     C16940   7.547   4.189   2.817 -0.7949 -0.4846  0.0033
  126MOL0     C16941   7.356   4.772   3.004 -0.7552  0.6101  0.0876
  126MOL0     C16942   7.253   4.801   3.098  0.2037 -0.6539 -0.0365
  126MOL0     H16943   6.979   5.084   3.465 -1.2964  2.1622  3.3499
  126MOL0     H16944   6.768   5.111   3.569 -0.4740  0.7989 -0.9247
  126MOL0     H16945   6.604   4.957   3.762 -3.2454 -1.9633  0.9196
  126MOL0     H16946   6.577   5.112   3.663  0.0730 -0.3077 -1.0958
  126MOL0     H16947   6.339   4.989   3.654  0.3947  1.0353  0.1452
  126MOL0     H16948   6.405   4.900   3.789 -1.2582  1.2366  3.2304
  126MOL0     H16949   6.401   5.209   3.783 -2.6002 -0.9936 -3.4363
  126MOL0     H16950   6.263   5.120   3.842 -0.5354  3.8940 -0.6812
  126MOL0     H16951   6.401   4.995   4.003  0.6177  0.0297  1.2592
  126MOL0     H16952   6.545   5.069   3.952  0.1379 -2.0811  1.9535
  126MOL0     H16953   6.294   5.232   4.034 -0.5961 -0.7273 -1.4508
  126MOL0     H16954   6.407   5.157   4.155  1.9721  1.2793 -0.4391
  126MOL0     H16955   6.507   5.351   3.954 -0.4809 -0.6586 -1.3980
  126MOL0     H16956   6.446   5.397   4.121  2.4321 -0.5116  3.4170
  126MOL0     H16957   6.632   5.224   4.206  0.8525 -0.7391 -0.7067
  126MOL0     H16958   6.698   5.246   4.041 -1.1551  2.3163 -2.1148
  126MOL0     H16959   6.708   5.476   4.069 -2.3107  0.4651 -0.3896
  126MOL0     H16960   6.807   5.377   4.197 -1.9735 -2.2833  2.5693
  126MOL0     H16961   6.613   5.322   4.421  1.4128 -0.4505  0.6983
  126MOL0     H16962   6.360   5.484   4.559 -0.0597 -2.6557 -3.8894
  126MOL0     H16963   6.505   5.390   4.595  2.4776 -0.0230 -0.8513
  126MOL0     H16964   6.479   5.696   4.639 -0.8967  0.4958  1.5837
  126MOL0     H16965   6.619   5.588   4.688  0.4401 -3.2753 -0.8219
  126MOL0     H16966   6.468   5.486   4.861  0.2653 -0.0720 -0.9371
  126MOL0     H16967   6.339   5.583   4.796 -0.7820  0.8329  1.7894
  126MOL0     H16968   6.460   5.783   4.867 -1.7291 -1.5753 -4.3839
  126MOL0     H16969   6.599   5.679   4.911  0.2307 -0.0395  1.3751
  126MOL0     H16970   6.681   5.797   5.065 -2.0065 -1.9462 -2.3885
  126MOL0     H16971   6.909   5.766   5.353  3.0261  2.8802 -0.0837
  126MOL0     H16972   6.876   5.873   5.217  0.4481 -0.2649 -0.0968
  126MOL0     H16973   6.812   5.904   5.395 -0.4665  1.3244 -0.9881
  126MOL0     H16974   6.943   5.562   5.621  2.8132 -1.4248  0.5184
  126MOL0     H16975   7.109   5.538   5.798  0.8223  1.0470  0.8039
  126MOL0     H16976   7.243   5.901   5.958 -0.4311 -0.1470  1.1129
  126MOL0     H16977   7.136   5.886   6.102 -2.6831 -4.2250  0.7539
  126MOL0     H16978   7.407   5.765   6.068 -1.0107 -2.6412  0.6661
  126MOL0     H16979   7.361   5.925   6.153 -1.8511  0.8131  0.8482
  126MOL0     H16980   7.311   5.640   6.265 -1.9883  0.3972  0.9456
  126MOL0     H16981   7.220   5.785   6.305  0.0019  2.0309 -0.5651
  126MOL0     H16982   7.513   5.713   6.337 -0.5687 -0.5198  2.7083
  126MOL0     H16983   7.468   5.884   6.345  0.0253  0.4657 -1.9074
  126MOL0     H16984   7.494   5.764   6.561  0.7038 -1.0038 -0.3115
  126MOL0     H16985   7.368   5.647   6.509 -0.1573 -0.0852  2.9398
  126MOL0     H16986   7.353   5.958   6.578  0.2805 -1.0974  0.2649
  126MOL0     H16987   7.218   5.865   6.496  0.5829 -2.8879 -1.8133
  126MOL0     H16988   7.194   5.938   6.745  1.1348  0.9402 -0.4946
  126MOL0     H16989   7.326   5.833   6.781  2.1355 -0.8732 -2.1501
  126MOL0     H16990   7.121   5.713   6.843  1.9798 -2.3618 -0.2049
  126MOL0     H16991   7.227   5.643   6.715 -0.1401 -0.4520 -1.9046
  126MOL0     H16992   6.959   5.912   5.971 -4.2476  1.4840 -0.2877
  126MOL0     H16993   6.801   5.924   5.787  0.0510  0.3712  2.1391
  126MOL0     H16994   6.493   5.552   5.461  1.9945 -1.0671  0.5668
  126MOL0     H16995   6.376   5.552   5.248  0.7380 -1.2613  0.5286
  126MOL0     H16996   6.635   4.735   3.398  2.5314 -0.4413 -2.1902
  126MOL0     H16997   6.848   4.696   3.303 -1.0471  0.3208 -0.4875
  126MOL0     H16998   7.442   4.967   3.329 -0.6071 -1.1927  0.7166
  126MOL0     H16999   7.619   4.879   3.188 -0.6282 -1.0772  1.4246
  126MOL0     H17000   7.784   4.811   3.004 -0.9129 -0.2461  0.8640
  126MOL0     H17001   7.731   4.686   3.113 -1.1639 -2.2751 -0.5268
  126MOL0     H17002   7.870   4.602   2.969 -0.6087  0.4287  0.1464
  126MOL0     H17003   7.777   4.670   2.828 -3.9098  2.2146  1.3635
  126MOL0     H17004   7.590   4.500   2.877 -2.7051 -3.8689  2.7938
  126MOL0     H17005   7.676   4.455   3.030  1.8697 -0.2849 -0.4018
  126MOL0     H17006   7.812   4.313   2.927 -0.6806 -0.7843  0.7421
  126MOL0     H17007   7.803   4.388   2.770  1.4950 -1.2901  0.5785
  126MOL0     H17008   7.457   4.132   2.811  1.2726 -4.0281  0.0193
  126MOL0     H17009   7.349   4.714   2.912  3.1097 -0.5509  0.3791
  126MOL0     H17010   7.150   4.778   3.072 -0.6794  2.1506  0.6864
  127MOL0     O17011   6.807   1.012   6.182  0.6601  0.3159  0.5908
  127MOL0     C17012   6.794   0.902   6.226 -0.3914 -0.1017 -0.6582
  127MOL0     O17013   6.882   0.802   6.225  0.0495 -0.7148 -0.1193
  127MOL0     C17014   6.984   0.812   6.131  0.0097 -0.6119 -0.4919
  127MOL0     C17015   6.967   0.833   5.997  0.4073 -0.3207 -0.3964
  127MOL0     C17016   7.073   0.824   5.901  0.3018  0.1147  0.5059
  127MOL0     C17017   7.207   0.805   5.948 -0.3709  0.3761  0.1998
  127MOL0     O17018   7.319   0.824   5.863 -0.0647  0.0537  0.1332
  127MOL0     C17019   7.338   0.726   5.763  0.0041  0.1638  0.1567
  127MOL0     C17020   7.290   0.765   5.623 -0.4674 -0.7617 -0.3433
  127MOL0     C17021   7.303   0.673   5.510  0.2690 -0.1349 -0.1711
  127MOL0     C17022   7.431   0.581   5.499  0.6479  0.0512  0.4725
  127MOL0     C17023   7.422   0.471   5.396  0.2721 -0.4754 -0.8067
  127MOL0     C17024   7.291   0.393   5.405 -0.2417  0.0583  0.0300
  127MOL0     C17025   7.305   0.265   5.318 -0.4764  0.8348  0.0813
  127MOL0     C17026   7.156   0.209   5.276 -0.1330  0.4197 -0.2975
  127MOL0     N17027   7.158   0.068   5.265  0.8857 -0.4025  0.1668
  127MOL0     C17028   7.234   0.007   5.171  0.0915  0.9421 -0.1307
  127MOL0     C17029   7.213  -0.129   5.191 -0.0362  0.4016  0.1375
  127MOL0     C17030   7.277  -0.240   5.116  0.2716 -0.1345 -0.0181
  127MOL0     C17031   7.283  -0.222   4.966  0.0613  0.2351 -0.4979
  127MOL0     C17032   7.153  -0.191   4.891 -0.3426 -0.8723 -0.8225
  127MOL0     C17033   7.181  -0.107   4.768  0.1241  0.6981  0.8030
  127MOL0     O17034   7.159  -0.200   4.660  0.2798  0.5722  0.9433
  127MOL0     C17035   7.268  -0.263   4.612 -0.3587 -0.3361  0.1473
  127MOL0     C17036   7.353  -0.194   4.512  0.1548 -0.1410  0.6767
  127MOL0     C17037   7.450  -0.268   4.439 -0.0129  1.0353 -0.0729
  127MOL0     C17038   7.529  -0.188   4.337 -0.8154  0.4269  0.4797
  127MOL0     C17039   7.481  -0.403   4.477 -0.0928  0.3948  0.1143
  127MOL0     C17040   7.589  -0.488   4.418  1.1447 -0.1413  1.0093
  127MOL0     O17041   7.557  -0.620   4.398  0.5469  0.7370  0.3968
  127MOL0     C17042   7.643  -0.705   4.340 -0.3566  0.9870 -0.5219
  127MOL0     C17043   7.596  -0.784   4.236  0.0361  0.3780  0.4315
  127MOL0     C17044   7.680  -0.877   4.180 -0.0068  0.0078  0.1125
  127MOL0     C17045   7.820  -0.878   4.218  0.8385  0.0759 -0.0234
  127MOL0     O17046   7.898  -0.968   4.148  0.6428  0.5328  0.4609
  127MOL0     C17047   8.025  -0.911   4.111 -0.9561  0.4084  0.4172
  127MOL0     C17048   8.158  -0.958   4.175 -0.0615 -0.1586 -0.9020
  127MOL0     C17049   8.282  -0.946   4.097 -0.5116  0.5389  0.8938
  127MOL0     C17050   8.406  -1.012   4.161  0.4586  0.7730  0.7371
  127MOL0     C17051   8.537  -0.984   4.073 -0.6322  0.9666  1.2466
  127MOL0     C17052   8.668  -1.022   4.144  0.4294 -0.1971  0.5201
  127MOL0     C17053   8.673  -1.165   4.194  0.4617 -0.7579  0.9167
  127MOL0     C17054   8.780  -1.198   4.293 -0.1336  0.4486  1.1428
  127MOL0    Cl17055   8.812  -1.084   4.414  0.7103 -0.1183  0.1059
  127MOL0     C17056   7.868  -0.794   4.325 -0.0508 -0.6183  0.4460
  127MOL0     C17057   7.779  -0.709   4.385 -0.0886  0.8814 -0.8611
  127MOL0     O17058   7.691  -0.438   4.383 -0.3957 -0.5764 -0.5074
  127MOL0     C17059   7.406  -0.467   4.576  0.4005 -1.2410 -0.8145
  127MOL0     C17060   7.301  -0.396   4.644  0.8018 -0.7180  1.0919
  127MOL0     N17061   7.122  -0.138   5.287  0.0523 -0.0651 -0.4928
  127MOL0     N17062   7.092  -0.027   5.339 -0.8977  0.8773 -0.1236
  127MOL0     C17063   7.224   0.770   6.083  0.9952  0.7007 -0.2385
  127MOL0     C17064   7.114   0.770   6.175  0.4879  0.3537  0.1369
  127MOL0     C17065   6.662   0.874   6.302 -0.4477 -1.0487  1.1170
  127MOL0     C17066   6.638   0.767   6.387 -0.8101 -0.0322 -0.6894
  127MOL0     C17067   6.519   0.744   6.458  0.0453 -0.0654 -0.0141
  127MOL0     C17068   6.419   0.833   6.436  0.7703 -0.2329  0.2915
  127MOL0     O17069   6.305   0.805   6.517  0.0859  0.4355  0.2576
  127MOL0     C17070   6.180   0.798   6.447  0.0977  0.9571 -0.8516
  127MOL0     C17071   6.068   0.823   6.545 -0.6203  1.1216  0.3798
  127MOL0     C17072   5.963   0.932   6.522 -0.2149  0.3443  0.2395
  127MOL0     C17073   6.039   1.070   6.544  0.1516  0.3505  0.4138
  127MOL0     C17074   5.947   1.186   6.564  0.0047  0.7636  0.4159
  127MOL0     C17075   5.865   1.274   6.562  0.1457 -0.4477 -0.3558
  127MOL0     C17076   6.430   0.938   6.345 -0.1576 -0.0809 -1.1518
  127MOL0     C17077   6.552   0.953   6.280 -0.1055  0.0728  1.2131
  127MOL0     H17078   6.870   0.868   5.963 -1.1396 -1.3473  2.6616
  127MOL0     H17079   7.038   0.845   5.801 -1.1642 -1.2340  0.6961
  127MOL0     H17080   7.444   0.700   5.755 -0.5601 -2.3929  0.0950
  127MOL0     H17081   7.287   0.633   5.793 -1.7769  0.8023 -0.7795
  127MOL0     H17082   7.188   0.806   5.627 -0.2388 -0.1891  3.1760
  127MOL0     H17083   7.348   0.856   5.609 -0.2047 -0.6944  1.0319
  127MOL0     H17084   7.218   0.605   5.517  1.0961 -1.0441  2.1906
  127MOL0     H17085   7.298   0.730   5.417  3.8009 -3.8526 -2.9949
  127MOL0     H17086   7.518   0.647   5.490  0.6978  0.2548  2.0660
  127MOL0     H17087   7.435   0.531   5.596 -4.9921 -3.1315 -0.4955
  127MOL0     H17088   7.424   0.525   5.301  1.4691  1.3287  0.1721
  127MOL0     H17089   7.508   0.403   5.397 -0.4311 -1.3879 -1.1374
  127MOL0     H17090   7.280   0.366   5.511 -0.4788 -0.7867 -0.1999
  127MOL0     H17091   7.206   0.456   5.377 -0.4048 -0.1645  0.0219
  127MOL0     H17092   7.369   0.289   5.232  1.8988 -0.4663  1.3788
  127MOL0     H17093   7.359   0.192   5.378 -1.6686 -0.5341 -0.4382
  127MOL0     H17094   7.103   0.266   5.200  0.2356  2.1023  0.6535
  127MOL0     H17095   7.088   0.235   5.358 -2.7447 -0.9448 -1.8889
  127MOL0     H17096   7.291   0.065   5.100  2.2487  1.0819  1.5875
  127MOL0     H17097   7.373  -0.260   5.166 -0.0970  2.1744  1.7948
  127MOL0     H17098   7.215  -0.330   5.121  0.0633 -0.2840 -3.2529
  127MOL0     H17099   7.345  -0.304   4.929  2.1120  1.5563 -0.1637
  127MOL0     H17100   7.342  -0.131   4.955  1.7655 -0.6908  0.6327
  127MOL0     H17101   7.081  -0.135   4.951 -0.7155  0.2068 -2.2136
  127MOL0     H17102   7.108  -0.288   4.866  0.8779 -1.3936 -1.0797
  127MOL0     H17103   7.284  -0.072   4.755 -0.1789  1.5936  0.7713
  127MOL0     H17104   7.111  -0.023   4.762 -2.0096 -1.0867 -2.2124
  127MOL0     H17105   7.355  -0.088   4.493 -0.5609 -0.2546 -0.0780
  127MOL0     H17106   7.491  -0.091   4.306 -2.1740 -0.6637 -1.5138
  127MOL0     H17107   7.624  -0.170   4.388 -0.2641 -1.7266  0.3014
  127MOL0     H17108   7.538  -0.248   4.246 -2.5602 -0.4514  0.8398
  127MOL0     H17109   7.496  -0.789   4.195  0.8044 -3.8446 -1.5499
  127MOL0     H17110   7.651  -0.937   4.094  0.5940  0.6399 -0.5454
  127MOL0     H17111   8.026  -0.940   4.005 -0.1617 -0.0764  0.5555
  127MOL0     H17112   8.021  -0.802   4.102  0.9566  0.5983  1.3482
  127MOL0     H17113   8.173  -0.901   4.266  1.3519  0.7157 -1.6461
  127MOL0     H17114   8.153  -1.066   4.194  3.1188 -0.2708 -0.2536
  127MOL0     H17115   8.310  -0.843   4.074  3.1737 -0.4609  0.2280
  127MOL0     H17116   8.259  -0.999   4.004 -0.0856  1.6557  0.1254
  127MOL0     H17117   8.422  -0.971   4.261 -0.2193  2.0206  0.3630
  127MOL0     H17118   8.390  -1.119   4.176  1.2680  0.5984  0.3686
  127MOL0     H17119   8.537  -0.877   4.051  0.1002  0.5153 -1.2904
  127MOL0     H17120   8.529  -1.039   3.978 -0.7894 -1.2411  2.4718
  127MOL0     H17121   8.755  -1.008   4.080 -0.0356 -1.1689 -0.3631
  127MOL0     H17122   8.672  -0.955   4.230  1.5833 -0.7849  0.9464
  127MOL0     H17123   8.684  -1.232   4.109 -0.2764 -3.5822  2.8819
  127MOL0     H17124   8.582  -1.185   4.253 -0.4592 -2.2216 -0.8964
  127MOL0     H17125   8.872  -1.195   4.234  1.3367 -2.9934  2.9688
  127MOL0     H17126   8.788  -1.302   4.326  4.0743  0.2453  0.1028
  127MOL0     H17127   7.969  -0.807   4.363  0.8455  0.4466 -1.4298
  127MOL0     H17128   7.809  -0.660   4.477  0.4199  0.3798 -0.7557
  127MOL0     H17129   7.409  -0.574   4.593  0.9228 -0.9515  1.1443
  127MOL0     H17130   7.232  -0.449   4.709 -1.7577  1.3614  0.2749
  127MOL0     H17131   7.321   0.733   6.115  1.4815  1.2879 -1.0318
  127MOL0     H17132   7.121   0.729   6.275 -1.3069 -0.5875 -0.0829
  127MOL0     H17133   6.717   0.694   6.401  0.7315  1.3775 -1.6333
  127MOL0     H17134   6.500   0.681   6.544  1.7655  4.1973  3.9602
  127MOL0     H17135   6.165   0.861   6.359 -0.2366  1.2481 -0.5904
  127MOL0     H17136   6.161   0.693   6.420 -0.2103  0.1928  2.0091
  127MOL0     H17137   6.112   0.846   6.642  1.3256 -2.3207  0.4735
  127MOL0     H17138   6.014   0.730   6.564  0.0018  0.6526 -0.1075
  127MOL0     H17139   5.891   0.933   6.605  0.8177  2.5430  1.2002
  127MOL0     H17140   5.917   0.913   6.425  1.5841 -0.4380 -0.5115
  127MOL0     H17141   6.086   1.093   6.448 -0.6894 -0.5288 -0.2325
  127MOL0     H17142   6.120   1.067   6.618  0.9619  0.3555 -0.4449
  127MOL0     H17143   5.785   1.344   6.545 -0.1167 -0.3179  1.2769
  127MOL0     H17144   6.351   1.012   6.339 -0.7269 -0.7746 -2.7632
  127MOL0     H17145   6.561   1.044   6.223 -0.1218 -0.0200  1.0628
  128MOL0     O17146   1.743   5.365   9.675 -0.0270  0.3481 -0.3931
  128MOL0     C17147   1.748   5.261   9.744  0.2728  0.1605  0.3104
  128MOL0     O17148   1.834   5.235   9.848  0.3474 -0.4775 -0.4498
  128MOL0     C17149   1.932   5.324   9.885  1.0769  0.5376  0.5818
  128MOL0     C17150   1.882   5.436   9.962 -0.1797 -0.2387  0.2284
  128MOL0     C17151   1.974   5.531  10.004  0.1234 -0.9078  1.1219
  128MOL0     C17152   2.102   5.534   9.957 -0.1591 -0.2373 -0.3053
  128MOL0     O17153   2.182   5.634  10.013  0.6820  0.5772  0.0395
  128MOL0     C17154   2.302   5.673   9.950  0.2696 -0.9376  0.4304
  128MOL0     C17155   2.371   5.783  10.031 -0.1958  0.1350  0.2968
  128MOL0     C17156   2.292   5.910  10.027 -0.9018  0.4521  0.9066
  128MOL0     C17157   2.368   6.017   9.939  0.2567 -0.3408  1.0134
  128MOL0     C17158   2.306   6.156   9.963 -0.2208  0.8046  0.5682
  128MOL0     C17159   2.372   6.261   9.873  0.1831  0.4236 -0.2727
  128MOL0     C17160   2.345   6.405   9.910  0.2175 -0.0064 -0.5207
  128MOL0     C17161   2.452   6.494   9.854 -0.2620  0.2443  0.2584
  128MOL0     N17162   2.477   6.491   9.708 -1.1805  0.1756  0.0313
  128MOL0     C17163   2.412   6.571   9.621 -0.0844  0.3069 -0.4231
  128MOL0     C17164   2.467   6.547   9.497  0.2856 -0.2408 -0.9491
  128MOL0     C17165   2.422   6.608   9.369 -0.2939  0.4742  0.9105
  128MOL0     C17166   2.544   6.626   9.277 -0.1255  0.3689 -0.5351
  128MOL0     C17167   2.531   6.738   9.173  1.0959 -0.0324 -0.4790
  128MOL0     C17168   2.672   6.789   9.123 -0.4519  0.1996 -0.2106
  128MOL0     O17169   2.645   6.905   9.053  0.1932 -0.3705  0.3179
  128MOL0     C17170   2.725   7.010   9.034 -0.2633 -0.2631 -0.9556
  128MOL0     C17171   2.859   7.009   9.082  0.0328 -0.0443 -0.5866
  128MOL0     C17172   2.931   7.122   9.062  0.0367  0.5864 -0.6781
  128MOL0     C17173   3.085   7.121   9.101 -0.7644  0.9000  0.6259
  128MOL0     C17174   2.876   7.234   8.993 -0.5104  0.0415 -0.8950
  128MOL0     C17175   2.952   7.355   8.967 -0.0291 -0.0694 -0.7457
  128MOL0     O17176   2.877   7.472   8.974 -0.4645  0.4527 -0.1761
  128MOL0     C17177   2.941   7.583   8.920  0.4031 -0.6979  0.5018
  128MOL0     C17178   2.861   7.649   8.825 -0.0603 -0.5589 -0.9862
  128MOL0     C17179   2.903   7.765   8.763 -0.3139  0.5878  0.3724
  128MOL0     C17180   3.033   7.815   8.778 -0.3540 -0.2200  0.2836
  128MOL0     O17181   3.067   7.940   8.718  1.0353  0.6153 -0.1695
  128MOL0     C17182   2.970   8.051   8.721 -0.2951  0.0689  0.2685
  128MOL0     C17183   3.039   8.186   8.691  0.3505  0.0463  0.1054
  128MOL0     C17184   3.133   8.248   8.794 -0.9751 -0.5375 -0.6290
  128MOL0     C17185   3.202   8.381   8.744 -0.4811 -0.6346 -0.7213
  128MOL0     C17186   3.322   8.428   8.830 -0.4324 -0.2738 -0.2786
  128MOL0     C17187   3.277   8.493   8.962  0.5266 -0.0242 -0.3597
  128MOL0     C17188   3.201   8.629   8.958 -0.5624 -0.6921  1.1427
  128MOL0     C17189   3.211   8.715   9.081  0.5387  0.0809 -0.7229
  128MOL0    Cl17190   3.370   8.765   9.100 -0.0160  0.3115 -0.5577
  128MOL0     C17191   3.115   7.749   8.876  1.0093  0.3869  0.3725
  128MOL0     C17192   3.067   7.638   8.948 -0.2555 -0.9152 -0.5324
  128MOL0     O17193   3.073   7.349   8.940 -0.2261  1.3409 -0.2185
  128MOL0     C17194   2.747   7.233   8.944  0.2222  0.0661 -0.5004
  128MOL0     C17195   2.673   7.124   8.968 -0.0981  0.2221 -1.1374
  128MOL0     N17196   2.575   6.463   9.525 -0.2465 -0.3096  0.9562
  128MOL0     N17197   2.586   6.438   9.650  0.1378 -0.0962 -0.0363
  128MOL0     C17198   2.149   5.430   9.889  0.0973 -0.3679  0.0035
  128MOL0     C17199   2.064   5.319   9.850 -0.2086  0.2561  0.0090
  128MOL0     C17200   1.620   5.185   9.748  1.0164  0.2250  0.4824
  128MOL0     C17201   1.502   5.237   9.689 -0.1174 -0.0638  0.3389
  128MOL0     C17202   1.381   5.156   9.678  0.3593 -1.2100  0.7617
  128MOL0     C17203   1.378   5.030   9.732  0.4929  0.2440 -0.7404
  128MOL0     O17204   1.254   4.959   9.725 -0.5809 -0.3339  0.1323
  128MOL0     C17205   1.251   4.828   9.771 -0.1482  0.3479  0.2911
  128MOL0     C17206   1.148   4.738   9.699 -0.2983 -0.1203  0.9344
  128MOL0     C17207   1.168   4.729   9.548 -0.4393 -0.2733 -0.2282
  128MOL0     C17208   1.296   4.653   9.505 -0.3008  0.0620  0.2101
  128MOL0     C17209   1.323   4.677   9.359 -0.3002 -0.1260 -0.5080
  128MOL0     C17210   1.332   4.690   9.240  0.2574  0.2586 -0.1720
  128MOL0     C17211   1.496   4.980   9.792 -0.2331  0.1789 -0.5753
  128MOL0     C17212   1.608   5.056   9.812 -0.6566 -0.2660 -0.5578
  128MOL0     H17213   1.776   5.457   9.969 -0.5294 -0.3070 -3.1247
  128MOL0     H17214   1.947   5.615  10.067 -0.6661 -1.3016  1.3283
  128MOL0     H17215   2.364   5.585   9.931  0.3088 -0.9780  0.7404
  128MOL0     H17216   2.278   5.722   9.855  0.5454 -1.0719  0.2890
  128MOL0     H17217   2.382   5.747  10.134  0.9521 -1.1914 -0.2596
  128MOL0     H17218   2.471   5.801   9.992  0.6205 -3.1019  0.6145
  128MOL0     H17219   2.189   5.905   9.989 -0.9983  1.2549  1.0529
  128MOL0     H17220   2.299   5.934  10.133  1.7388 -1.1424  1.1784
  128MOL0     H17221   2.473   6.032   9.966  1.1572  0.9914 -2.6799
  128MOL0     H17222   2.356   5.982   9.837  0.6841 -3.9501  2.0888
  128MOL0     H17223   2.201   6.158   9.934  0.2176 -0.3054 -1.2918
  128MOL0     H17224   2.310   6.168  10.071 -2.5192 -3.6538  1.3989
  128MOL0     H17225   2.479   6.242   9.886  0.3088  0.8064 -0.7398
  128MOL0     H17226   2.350   6.244   9.767  3.3494  1.3151 -1.1694
  128MOL0     H17227   2.249   6.438   9.871 -1.6114 -3.8019  0.2835
  128MOL0     H17228   2.346   6.437  10.015  4.3459  2.1354 -0.9938
  128MOL0     H17229   2.550   6.465   9.891  0.1978  0.4910 -0.7222
  128MOL0     H17230   2.434   6.598   9.882  2.6781  0.9930 -0.2833
  128MOL0     H17231   2.331   6.641   9.639  0.2809  1.0173 -1.4375
  128MOL0     H17232   2.355   6.533   9.325  2.7024 -1.9811  0.1527
  128MOL0     H17233   2.385   6.706   9.399  3.1574  2.2449 -0.0983
  128MOL0     H17234   2.575   6.531   9.232  2.0640  0.5932  0.3545
  128MOL0     H17235   2.625   6.651   9.346 -1.1969  0.9829  0.5403
  128MOL0     H17236   2.467   6.818   9.212 -2.8857 -0.8495 -4.5484
  128MOL0     H17237   2.477   6.692   9.090 -1.2130 -1.6231  1.7506
  128MOL0     H17238   2.713   6.709   9.060  1.4670  0.6569  0.3998
  128MOL0     H17239   2.741   6.809   9.205  3.7133  0.2512 -3.3833
  128MOL0     H17240   2.904   6.919   9.122 -1.7133 -0.1981  1.1896
  128MOL0     H17241   3.150   7.122   9.013 -2.5164  0.7704 -0.7353
  128MOL0     H17242   3.116   7.203   9.167  0.3926  2.3163 -1.5535
  128MOL0     H17243   3.104   7.028   9.154 -2.1768  1.7145  2.7041
  128MOL0     H17244   2.763   7.614   8.796 -0.4685  2.1696 -3.3382
  128MOL0     H17245   2.823   7.810   8.706 -1.5691  0.0504  1.6566
  128MOL0     H17246   2.903   8.038   8.636  0.8247 -1.2758 -0.4527
  128MOL0     H17247   2.908   8.056   8.811 -1.8948  1.6700 -0.8614
  128MOL0     H17248   3.103   8.169   8.604 -0.1019  2.0716 -0.6674
  128MOL0     H17249   2.955   8.252   8.668 -2.7391 -2.2965  3.5433
  128MOL0     H17250   3.209   8.173   8.816 -0.2200  0.8537  1.8680
  128MOL0     H17251   3.069   8.264   8.881 -2.3681 -0.3996 -1.6314
  128MOL0     H17252   3.249   8.357   8.649  1.9422 -2.7132  0.8511
  128MOL0     H17253   3.134   8.464   8.726  0.5714  0.3703 -0.1942
  128MOL0     H17254   3.389   8.496   8.776  0.2117 -0.4094  0.3312
  128MOL0     H17255   3.385   8.344   8.860  1.2059  0.2763 -1.9849
  128MOL0     H17256   3.219   8.415   9.011 -1.5960  0.4020 -2.0468
  128MOL0     H17257   3.367   8.515   9.019  1.4219  0.3608 -1.8699
  128MOL0     H17258   3.092   8.620   8.948 -0.9225  2.2480  1.3565
  128MOL0     H17259   3.235   8.687   8.872  0.0759 -0.4717  1.5368
  128MOL0     H17260   3.168   8.681   9.176  1.9631  0.4615  0.0839
  128MOL0     H17261   3.155   8.807   9.065  1.4484  1.1120  1.5432
  128MOL0     H17262   3.211   7.792   8.901  1.1370 -0.7076  1.9602
  128MOL0     H17263   3.131   7.595   9.025  1.5418  2.3989 -0.0026
  128MOL0     H17264   2.704   7.312   8.884  0.5516  0.5344 -0.1220
  128MOL0     H17265   2.567   7.115   8.945 -0.6873  0.2450  1.2571
  128MOL0     H17266   2.251   5.424   9.852  0.4573 -0.9061  1.0592
  128MOL0     H17267   2.117   5.243   9.794 -0.7209 -0.5219  0.5579
  128MOL0     H17268   1.493   5.342   9.661 -2.5498 -0.2240  0.2640
  128MOL0     H17269   1.296   5.189   9.619  2.1947  0.5328 -1.1053
  128MOL0     H17270   1.349   4.779   9.773 -0.9367 -1.2780  1.4115
  128MOL0     H17271   1.223   4.826   9.876  0.2628 -1.3045  0.4011
  128MOL0     H17272   1.043   4.765   9.715  0.4590  2.7693  1.5317
  128MOL0     H17273   1.156   4.640   9.747  1.9161 -2.3269 -3.3684
  128MOL0     H17274   1.167   4.824   9.495 -4.6165  0.1309  0.2013
  128MOL0     H17275   1.089   4.663   9.511  0.4772 -0.1960 -2.4373
  128MOL0     H17276   1.293   4.544   9.518  0.5698  0.0755  0.6399
  128MOL0     H17277   1.375   4.685   9.573 -0.6438 -1.6636  1.4945
  128MOL0     H17278   1.340   4.710   9.135  0.7094 -0.0888 -0.2057
  128MOL0     H17279   1.499   4.884   9.842 -1.2368  1.1191  1.4016
  128MOL0     H17280   1.690   5.019   9.873 -0.9291 -3.7959 -2.0819
  129MOL0     O17281   8.719   7.017   1.333 -0.0030  0.0140  0.2964
  129MOL0     C17282   8.795   7.000   1.239 -0.1981 -0.2012  0.3117
  129MOL0     O17283   8.782   6.901   1.145  0.7800 -0.3529  0.0634
  129MOL0     C17284   8.682   6.806   1.129  0.1031  0.1906  0.0224
  129MOL0     C17285   8.582   6.793   1.216  0.7251  0.0002  0.5435
  129MOL0     C17286   8.469   6.712   1.180 -0.2355 -0.3513  0.6990
  129MOL0     C17287   8.463   6.643   1.057 -0.2583 -0.2084  0.3152
  129MOL0     O17288   8.358   6.555   1.037 -0.0849  0.7859  0.3301
  129MOL0     C17289   8.393   6.435   0.961 -1.0458 -0.5724  0.5781
  129MOL0     C17290   8.271   6.346   0.942 -0.5032  1.3785 -0.4779
  129MOL0     C17291   8.177   6.406   0.846 -1.2231  0.1647  0.9364
  129MOL0     C17292   8.044   6.327   0.811 -0.3213  0.0488  0.1042
  129MOL0     C17293   7.955   6.399   0.719  0.7933  0.5167 -0.2644
  129MOL0     C17294   7.807   6.363   0.697 -0.1127  0.5108 -0.4024
  129MOL0     C17295   7.774   6.217   0.692  0.2724  0.3180  0.4346
  129MOL0     C17296   7.848   6.156   0.576  0.3132 -0.3229  0.0654
  129MOL0     N17297   7.816   6.006   0.580 -0.2188  0.7705 -0.6553
  129MOL0     C17298   7.689   5.942   0.581 -0.4465 -0.0119  0.0718
  129MOL0     C17299   7.727   5.816   0.573  0.2793  0.5558  0.5488
  129MOL0     C17300   7.624   5.709   0.562  0.0880  0.0170  0.2464
  129MOL0     C17301   7.614   5.660   0.417 -0.3438 -0.0786  0.5636
  129MOL0     C17302   7.501   5.560   0.396 -0.7178  0.2233 -0.9934
  129MOL0     C17303   7.360   5.612   0.392  0.3563  0.0870  0.4959
  129MOL0     O17304   7.282   5.532   0.312 -0.5614  0.5623 -0.3763
  129MOL0     C17305   7.149   5.554   0.315  0.3330 -0.6356 -0.3447
  129MOL0     C17306   7.090   5.663   0.371 -0.5655  1.2425 -0.4371
  129MOL0     C17307   6.958   5.687   0.376  1.0085 -0.1399  0.4515
  129MOL0     C17308   6.908   5.816   0.439 -0.4656  0.0082  0.1850
  129MOL0     C17309   6.868   5.583   0.334 -0.5129  0.2064 -0.9674
  129MOL0     C17310   6.716   5.599   0.335 -0.3250 -0.4881  0.4101
  129MOL0     O17311   6.648   5.499   0.281  0.6383  0.1945  0.2257
  129MOL0     C17312   6.519   5.498   0.290 -0.0348 -0.5243 -0.5130
  129MOL0     C17313   6.441   5.510   0.406 -0.5883  0.4881 -1.1412
  129MOL0     C17314   6.297   5.516   0.401  0.2605 -0.0115  0.7192
  129MOL0     C17315   6.244   5.517   0.277  0.8445  0.0414  0.8727
  129MOL0     O17316   6.108   5.540   0.264 -0.0197  0.0114  0.2270
  129MOL0     C17317   6.016   5.469   0.349  0.4726 -0.9615  0.2152
  129MOL0     C17318   5.888   5.426   0.261 -0.0818 -0.4576 -0.0455
  129MOL0     C17319   5.787   5.332   0.341 -0.0760  0.4517  0.3721
  129MOL0     C17320   5.816   5.185   0.306 -1.1679 -0.4825 -0.0834
  129MOL0     C17321   5.760   5.098   0.411 -0.3501 -1.3949 -0.0364
  129MOL0     C17322   5.765   4.954   0.395  0.7585  0.3146  0.4429
  129MOL0     C17323   5.655   4.879   0.488 -0.3345  0.1248 -0.3881
  129MOL0     C17324   5.532   4.837   0.414 -0.5755 -0.4876 -0.4808
  129MOL0    Cl17325   5.443   4.714   0.508  0.1633 -0.0600 -0.2243
  129MOL0     C17326   6.317   5.502   0.162  0.7656  0.5958  0.7391
  129MOL0     C17327   6.453   5.488   0.168  0.8510  0.1135  0.5383
  129MOL0     O17328   6.666   5.705   0.384  0.2899 -0.1480  0.1615
  129MOL0     C17329   6.929   5.468   0.277  0.6857 -0.1613 -0.3086
  129MOL0     C17330   7.065   5.462   0.262  0.6057  0.9652  0.1618
  129MOL0     N17331   7.869   5.804   0.567  0.1505 -0.4098  0.3221
  129MOL0     N17332   7.919   5.920   0.578 -0.8904  0.0516 -0.3519
  129MOL0     C17333   8.563   6.667   0.966  0.6200 -0.0896  0.3669
  129MOL0     C17334   8.676   6.742   0.999 -0.1643 -0.1357 -1.6213
  129MOL0     C17335   8.928   7.072   1.253  0.7523 -1.5340  0.2471
  129MOL0     C17336   8.966   7.119   1.387  0.3742  0.0847 -0.1744
  129MOL0     C17337   9.075   7.211   1.406 -0.0095 -0.3390 -0.6918
  129MOL0     C17338   9.149   7.245   1.291 -0.2500  0.4539 -0.2330
  129MOL0     O17339   9.260   7.322   1.286  0.1535  0.2750 -0.1890
  129MOL0     C17340   9.291   7.396   1.398  0.8280  0.1028 -0.1626
  129MOL0     C17341   9.385   7.328   1.498  0.1191  0.2098 -0.6402
  129MOL0     C17342   9.517   7.274   1.439  0.2067 -0.6980  0.2735
  129MOL0     C17343   9.513   7.170   1.322 -0.6896  0.1562 -0.0382
  129MOL0     C17344   9.650   7.121   1.302 -1.1707  0.5923 -0.3129
  129MOL0     C17345   9.765   7.076   1.311  1.2045 -1.1433  0.0389
  129MOL0     C17346   9.121   7.197   1.166  1.5113  0.7973 -0.0681
  129MOL0     C17347   9.009   7.110   1.150 -0.2490 -1.1882  0.3213
  129MOL0     H17348   8.577   6.840   1.314 -0.0918  2.5625 -0.6299
  129MOL0     H17349   8.390   6.690   1.250  0.5833  1.3164  2.2307
  129MOL0     H17350   8.429   6.459   0.860 -0.6466  0.5747  0.9666
  129MOL0     H17351   8.469   6.381   1.018 -0.5731  0.5311  1.0242
  129MOL0     H17352   8.308   6.253   0.899 -0.5442  0.4747  1.3757
  129MOL0     H17353   8.226   6.329   1.040  2.1372  2.4004  1.0302
  129MOL0     H17354   8.163   6.510   0.875  2.4709  0.7072  1.2378
  129MOL0     H17355   8.237   6.411   0.755  3.1993  0.6443  3.5465
  129MOL0     H17356   8.080   6.232   0.770  0.8343 -0.3717  1.9514
  129MOL0     H17357   7.982   6.308   0.899  1.1980  1.6254  1.6185
  129MOL0     H17358   7.961   6.503   0.752 -1.5157  1.7617 -3.2500
  129MOL0     H17359   8.010   6.389   0.625 -0.5218 -1.7341 -0.8659
  129MOL0     H17360   7.758   6.420   0.776 -2.2043  0.1967 -1.4262
  129MOL0     H17361   7.766   6.411   0.607  1.0313 -0.9193 -1.7490
  129MOL0     H17362   7.796   6.167   0.787  1.3717  0.6105  0.3497
  129MOL0     H17363   7.668   6.202   0.669  1.0620  0.4856 -4.1298
  129MOL0     H17364   7.956   6.168   0.577  0.2635  1.4511  3.8442
  129MOL0     H17365   7.817   6.201   0.481 -1.5313  2.5662  1.8592
  129MOL0     H17366   7.590   5.985   0.597 -0.3323 -0.5512  2.5866
  129MOL0     H17367   7.640   5.625   0.630 -2.9282 -0.5741  0.3547
  129MOL0     H17368   7.530   5.754   0.594  1.6379  2.3440  1.8405
  129MOL0     H17369   7.707   5.610   0.389 -0.6296 -1.6190  2.1738
  129MOL0     H17370   7.598   5.746   0.351  1.7430 -0.5902 -0.6878
  129MOL0     H17371   7.524   5.478   0.465  3.0814  0.4880 -1.6954
  129MOL0     H17372   7.517   5.517   0.297 -4.1248 -3.8040 -0.0707
  129MOL0     H17373   7.353   5.715   0.355 -1.2222 -0.8886 -2.1982
  129MOL0     H17374   7.324   5.614   0.496 -2.7831  1.1970 -0.4994
  129MOL0     H17375   7.147   5.731   0.432  1.0786 -0.7895  0.4174
  129MOL0     H17376   6.846   5.794   0.527 -0.7502  0.7483  0.1796
  129MOL0     H17377   6.990   5.880   0.471 -0.0656 -0.0208 -0.7677
  129MOL0     H17378   6.844   5.863   0.364 -1.9967 -1.9297  0.1816
  129MOL0     H17379   6.502   5.531   0.493 -0.6252 -1.5461 -0.5709
  129MOL0     H17380   6.229   5.513   0.484 -0.7189  0.8090 -0.0346
  129MOL0     H17381   6.063   5.378   0.389 -1.1038 -2.2242 -0.6712
  129MOL0     H17382   5.985   5.544   0.422  2.8030  1.5554 -1.2150
  129MOL0     H17383   5.831   5.517   0.242 -1.2550 -0.6553  2.1352
  129MOL0     H17384   5.929   5.385   0.168  4.0585 -0.2752  1.5087
  129MOL0     H17385   5.694   5.357   0.287  0.6530 -0.2815 -1.2980
  129MOL0     H17386   5.781   5.361   0.446 -1.3833  2.3462 -0.1717
  129MOL0     H17387   5.778   5.152   0.209  0.5041 -4.2388  0.3477
  129MOL0     H17388   5.925   5.171   0.305 -1.1479 -0.4738  1.1412
  129MOL0     H17389   5.652   5.112   0.411 -0.5892 -2.8514 -1.2926
  129MOL0     H17390   5.799   5.133   0.507 -0.9313 -0.8627  0.0073
  129MOL0     H17391   5.755   4.916   0.293  1.9406 -0.6181  0.6494
  129MOL0     H17392   5.866   4.929   0.430  0.1116 -1.6881  0.9965
  129MOL0     H17393   5.629   4.947   0.569  1.7705 -2.2911  2.5392
  129MOL0     H17394   5.708   4.789   0.519 -1.8362  0.0424  2.2316
  129MOL0     H17395   5.553   4.794   0.316  2.5592 -0.7796  0.2425
  129MOL0     H17396   5.477   4.928   0.385  2.0632  1.3719  0.0022
  129MOL0     H17397   6.264   5.494   0.068 -0.7170  1.9334  1.4254
  129MOL0     H17398   6.517   5.480   0.081  2.5898  3.8218  1.2828
  129MOL0     H17399   6.861   5.397   0.231  0.7414  0.2305 -1.0051
  129MOL0     H17400   7.104   5.372   0.216  0.3538 -0.0016  1.7766
  129MOL0     H17401   8.541   6.622   0.869 -0.3188  0.6151  0.2376
  129MOL0     H17402   8.749   6.748   0.919  1.1195  1.0264 -0.4367
  129MOL0     H17403   8.907   7.095   1.474  2.7201  1.8313  2.0657
  129MOL0     H17404   9.093   7.264   1.499 -1.0734  1.0464 -1.2284
  129MOL0     H17405   9.343   7.487   1.366 -0.0437  2.2721  3.8851
  129MOL0     H17406   9.195   7.429   1.439 -0.2145  0.2205 -2.5333
  129MOL0     H17407   9.319   7.251   1.540 -0.6627  1.2069 -0.0024
  129MOL0     H17408   9.403   7.404   1.575 -0.9095  1.9689 -2.0459
  129MOL0     H17409   9.573   7.237   1.525  1.0474  0.2504  0.1502
  129MOL0     H17410   9.577   7.356   1.398  1.8165 -1.7340  0.4936
  129MOL0     H17411   9.479   7.217   1.229  1.8054  2.0520 -0.1083
  129MOL0     H17412   9.443   7.094   1.357  0.5504  0.3947  3.4115
  129MOL0     H17413   9.869   7.048   1.313  1.3596 -0.5615  0.2296
  129MOL0     H17414   9.165   7.222   1.070 -1.8486 -0.0073 -1.9953
  129MOL0     H17415   8.990   7.084   1.046 -2.3319  1.3262 -0.0023
  130MOL0     O17416  11.412   5.210  10.267 -0.5013 -0.8038  0.3742
  130MOL0     C17417  11.517   5.143  10.274  0.5960  0.0446  0.6678
  130MOL0     O17418  11.643   5.193  10.252 -0.3972 -0.1696 -0.0787
  130MOL0     C17419  11.652   5.328  10.223  0.7243  0.1233  1.0812
  130MOL0     C17420  11.603   5.430  10.304 -0.1296 -1.1723 -0.5841
  130MOL0     C17421  11.630   5.566  10.284  1.1053 -0.9283  0.0319
  130MOL0     C17422  11.716   5.601  10.170 -0.3834  0.4256 -0.3254
  130MOL0     O17423  11.750   5.733  10.151  0.4366 -0.0388  0.7321
  130MOL0     C17424  11.772   5.807  10.274 -0.3871  0.8422  0.3282
  130MOL0     C17425  11.900   5.880  10.235 -0.8094 -0.4654 -0.6608
  130MOL0     C17426  11.926   6.002  10.326 -0.5449  0.4644 -0.3602
  130MOL0     C17427  12.073   6.060  10.322 -0.0129  0.5011 -0.3333
  130MOL0     C17428  12.076   6.208  10.282 -0.5186 -0.0313 -0.1290
  130MOL0     C17429  12.027   6.241  10.139  0.1216  0.5817 -0.0239
  130MOL0     C17430  12.055   6.385  10.103 -0.4045  0.8431  0.0329
  130MOL0     C17431  11.962   6.427   9.991 -0.0951 -0.2016  0.0061
  130MOL0     N17432  11.991   6.551   9.908  0.2866 -0.7267 -0.3248
  130MOL0     C17433  12.110   6.620   9.897  0.6175 -0.0016  0.3577
  130MOL0     C17434  12.085   6.727   9.813  0.7951  0.7031 -0.9666
  130MOL0     C17435  12.185   6.815   9.754 -0.6066  0.6102 -0.5603
  130MOL0     C17436  12.269   6.876   9.877  1.3482  1.0998  0.5703
  130MOL0     C17437  12.398   6.937   9.825 -0.3167  0.7104  0.2542
  130MOL0     C17438  12.479   7.001   9.943 -0.3378 -0.5871 -0.5263
  130MOL0     O17439  12.399   7.102   9.998  0.6330 -0.5579  0.3570
  130MOL0     C17440  12.463   7.176  10.092  0.4637  0.3894  0.2969
  130MOL0     C17441  12.451   7.310  10.061 -0.5995  0.5901  0.1014
  130MOL0     C17442  12.525   7.392  10.137 -0.9586  0.0495 -1.2594
  130MOL0     C17443  12.508   7.543  10.113 -0.4844  0.1991 -0.6269
  130MOL0     C17444  12.606   7.344  10.247 -0.5772 -0.9313  0.2546
  130MOL0     C17445  12.693   7.430  10.338  1.0765 -0.1914  0.3229
  130MOL0     O17446  12.686   7.563  10.336  0.2983  0.3157  0.4184
  130MOL0     C17447  12.787   7.625  10.402  0.2391  0.4706 -0.0140
  130MOL0     C17448  12.921   7.615  10.364 -0.0886  0.2685 -0.3371
  130MOL0     C17449  13.018   7.678  10.446  0.4666 -0.4473  0.0139
  130MOL0     C17450  12.989   7.728  10.572 -0.2840 -0.7400 -1.1594
  130MOL0     O17451  13.079   7.794  10.660  0.0677 -0.1011  0.9300
  130MOL0     C17452  13.201   7.836  10.605 -0.4179 -0.3198 -0.3590
  130MOL0     C17453  13.267   7.937  10.708  0.7658 -0.2959 -0.7433
  130MOL0     C17454  13.412   7.970  10.671  0.1111 -0.0791 -0.2871
  130MOL0     C17455  13.423   8.062  10.551  1.0581 -0.6835 -0.6383
  130MOL0     C17456  13.575   8.090  10.518 -0.2491  0.6679 -0.4705
  130MOL0     C17457  13.663   8.126  10.638 -0.0905 -0.2556 -0.6987
  130MOL0     C17458  13.807   8.173  10.583 -0.6266 -0.5814  0.0363
  130MOL0     C17459  13.859   8.302  10.648 -0.8446 -1.2478  0.3458
  130MOL0    Cl17460  14.025   8.347  10.593  0.0972  0.1924 -0.1640
  130MOL0     C17461  12.853   7.738  10.616  0.0324  0.3264 -0.6473
  130MOL0     C17462  12.758   7.693  10.526  0.7864 -0.8773 -0.7300
  130MOL0     O17463  12.767   7.363  10.406  0.6893 -0.2648 -0.0226
  130MOL0     C17464  12.598   7.210  10.287 -0.3553  0.5548 -0.2407
  130MOL0     C17465  12.527   7.123  10.204  0.6834  0.2245  0.0807
  130MOL0     N17466  11.945   6.721   9.782 -0.9153 -0.0561  0.7451
  130MOL0     N17467  11.898   6.615   9.837  0.7210 -0.1051  0.9566
  130MOL0     C17468  11.750   5.497  10.080 -0.5003  0.0475  0.7141
  130MOL0     C17469  11.729   5.358  10.115 -0.0557 -0.8837  0.6275
  130MOL0     C17470  11.513   4.999  10.307  0.7303  0.0974  0.3484
  130MOL0     C17471  11.385   4.950  10.360  0.2104  0.1844  0.5462
  130MOL0     C17472  11.378   4.820  10.407  0.7207  0.6534  0.6354
  130MOL0     C17473  11.487   4.732  10.405 -0.4472 -0.3746  0.5100
  130MOL0     O17474  11.485   4.618  10.481  0.4442 -0.8052 -0.0117
  130MOL0     C17475  11.574   4.510  10.454  0.3849  0.5087 -0.4064
  130MOL0     C17476  11.578   4.467  10.302 -0.5744 -0.4029 -1.4708
  130MOL0     C17477  11.451   4.406  10.246  0.2727 -0.1753  0.1645
  130MOL0     C17478  11.350   4.502  10.189  0.0322 -0.7768  0.3095
  130MOL0     C17479  11.231   4.435  10.152  0.6422  0.0836 -0.1129
  130MOL0     C17480  11.131   4.381  10.106 -0.9247 -0.3105  0.8722
  130MOL0     C17481  11.601   4.782  10.343 -1.2593  0.2581  0.0022
  130MOL0     C17482  11.614   4.909  10.286  0.3457  0.1885  0.0662
  130MOL0     H17483  11.543   5.394  10.387  0.2737  0.3498  0.4073
  130MOL0     H17484  11.577   5.645  10.336  0.1854 -0.1661 -1.9449
  130MOL0     H17485  11.688   5.874  10.293  0.3917  1.7192  0.7335
  130MOL0     H17486  11.797   5.753  10.366  0.9928 -0.2511 -0.6223
  130MOL0     H17487  11.983   5.809  10.232 -0.9001 -0.5574 -1.1362
  130MOL0     H17488  11.886   5.911  10.131 -2.1445 -1.0451 -0.6660
  130MOL0     H17489  11.848   6.073  10.297 -0.8144  1.2735  2.1032
  130MOL0     H17490  11.915   5.969  10.430 -0.0099 -0.4652 -0.5886
  130MOL0     H17491  12.125   6.056  10.418 -2.6764  1.2130  1.2702
  130MOL0     H17492  12.131   6.002  10.251  0.8673  2.4140 -1.2499
  130MOL0     H17493  12.018   6.266  10.355  0.5567 -0.7973  1.4006
  130MOL0     H17494  12.181   6.241  10.289 -0.7060  1.0150 -1.7757
  130MOL0     H17495  12.065   6.170  10.066 -2.6355  1.5183 -2.5781
  130MOL0     H17496  11.918   6.228  10.139  0.0142  0.9930  2.7038
  130MOL0     H17497  12.046   6.452  10.189  1.2370  0.9653  0.1565
  130MOL0     H17498  12.156   6.383  10.060 -0.3766 -1.5679  0.0611
  130MOL0     H17499  11.866   6.441  10.042  0.5886 -1.9675  1.8918
  130MOL0     H17500  11.943   6.340   9.927  0.2828 -0.1186 -0.2196
  130MOL0     H17501  12.208   6.595   9.935  0.3677 -2.4922 -0.4397
  130MOL0     H17502  12.243   6.757   9.681 -0.4311  1.5404 -1.1803
  130MOL0     H17503  12.126   6.895   9.707 -1.3012  0.3419 -0.1513
  130MOL0     H17504  12.292   6.806   9.958  0.7881  2.1952  1.7061
  130MOL0     H17505  12.209   6.951   9.930 -1.0150 -1.0353  1.1101
  130MOL0     H17506  12.378   7.015   9.752  1.1038  1.6850  0.8632
  130MOL0     H17507  12.455   6.860   9.772 -1.5433  0.6434 -1.0475
  130MOL0     H17508  12.578   7.038   9.918 -0.3568 -0.3162 -0.2061
  130MOL0     H17509  12.496   6.920  10.014 -0.6315 -0.3463 -0.1786
  130MOL0     H17510  12.390   7.347   9.979  1.2885  1.1136 -1.1385
  130MOL0     H17511  12.594   7.610  10.124 -0.0617 -0.5174  0.5068
  130MOL0     H17512  12.450   7.567  10.023  0.2838 -2.0094 -1.7667
  130MOL0     H17513  12.436   7.561  10.194  2.3571  1.0530  1.9016
  130MOL0     H17514  12.950   7.553  10.280 -1.0056  0.0896 -0.5429
  130MOL0     H17515  13.123   7.667  10.422  1.0948 -1.0337  2.6302
  130MOL0     H17516  13.261   7.747  10.586 -0.1448 -0.7019  2.0186
  130MOL0     H17517  13.185   7.897  10.515 -2.9732 -1.0076 -0.4356
  130MOL0     H17518  13.209   8.030  10.704  0.7976 -0.2970 -1.2768
  130MOL0     H17519  13.269   7.897  10.810 -0.9309  0.2989 -0.4334
  130MOL0     H17520  13.471   7.878  10.659  0.1909 -0.2394  1.1486
  130MOL0     H17521  13.452   8.025  10.756  0.3914 -1.1579  0.2947
  130MOL0     H17522  13.369   8.019  10.467 -0.0457 -0.5827  0.0065
  130MOL0     H17523  13.371   8.150  10.588  0.9902 -1.2253  0.6114
  130MOL0     H17524  13.582   8.173  10.448 -0.5989  1.1305  0.0285
  130MOL0     H17525  13.615   7.998  10.476  3.2490  1.4841  0.7493
  130MOL0     H17526  13.615   8.213  10.685  0.4689  0.0347 -0.6522
  130MOL0     H17527  13.669   8.041  10.707 -0.1076 -0.0255 -0.4112
  130MOL0     H17528  13.793   8.209  10.480 -0.3148 -1.7802 -0.4371
  130MOL0     H17529  13.884   8.097  10.574 -2.5377 -2.5561 -0.4878
  130MOL0     H17530  13.858   8.288  10.756 -1.8274  3.4796  1.2000
  130MOL0     H17531  13.781   8.378  10.630 -2.1241 -2.0613  2.2159
  130MOL0     H17532  12.822   7.790  10.706  0.6359  1.0173 -0.8265
  130MOL0     H17533  12.654   7.717  10.548  1.6323  2.8161 -0.0823
  130MOL0     H17534  12.647   7.161  10.370  2.1423 -1.2867 -2.6038
  130MOL0     H17535  12.540   7.017  10.226  0.9673  0.3529  0.5220
  130MOL0     H17536  11.800   5.507   9.984  2.0502 -2.7990  1.5697
  130MOL0     H17537  11.750   5.272  10.053  0.7278 -0.2546  0.0016
  130MOL0     H17538  11.297   5.012  10.375 -1.3953 -1.7965 -0.1603
  130MOL0     H17539  11.290   4.800  10.466 -1.4247  1.6664 -2.0221
  130MOL0     H17540  11.678   4.543  10.459  0.1401  1.9892 -3.1011
  130MOL0     H17541  11.558   4.426  10.523  1.0113  0.0247 -0.8451
  130MOL0     H17542  11.657   4.391  10.294  1.5026  1.4486  0.1719
  130MOL0     H17543  11.610   4.555  10.246 -1.8369  1.8285  1.0973
  130MOL0     H17544  11.413   4.343  10.326  0.6832  0.2035  0.6624
  130MOL0     H17545  11.479   4.343  10.161  0.3910  2.7065 -2.1061
  130MOL0     H17546  11.399   4.561  10.110  2.9159  1.0995  3.2286
  130MOL0     H17547  11.327   4.583  10.260 -1.6528  0.6561 -1.7344
  130MOL0     H17548  11.041   4.343  10.061  0.5684  0.6507 -3.4105
  130MOL0     H17549  11.686   4.715  10.338 -2.5518 -1.3880 -2.7940
  130MOL0     H17550  11.699   4.934  10.223 -1.2346  0.8714 -1.9122
  131MOL0     O17551   3.875   5.463   8.802 -0.2086  0.4777 -0.3394
  131MOL0     C17552   3.863   5.505   8.913 -0.6258 -0.4123 -0.1257
  131MOL0     O17553   3.864   5.638   8.952  0.5321  0.4729 -0.4128
  131MOL0     C17554   3.884   5.733   8.852 -0.2108  0.3068 -0.1168
  131MOL0     C17555   3.787   5.824   8.828  0.3559  0.5795 -0.9078
  131MOL0     C17556   3.819   5.934   8.747  0.7245 -0.1478 -0.0338
  131MOL0     C17557   3.945   5.950   8.685 -0.1997  0.2035 -0.0542
  131MOL0     O17558   3.955   6.047   8.596  0.2614 -0.3563  0.3811
  131MOL0     C17559   3.927   6.008   8.454 -0.0320  1.1134 -0.5651
  131MOL0     C17560   3.931   6.129   8.364 -0.1704  0.1704 -0.2709
  131MOL0     C17561   3.893   6.099   8.223  0.5346  0.4562 -0.0197
  131MOL0     C17562   3.817   6.221   8.161  0.5121 -0.4583 -0.4230
  131MOL0     C17563   3.770   6.198   8.019  0.3600 -0.4547  0.4343
  131MOL0     C17564   3.677   6.072   8.007 -0.2293  0.0130 -0.3950
  131MOL0     C17565   3.609   6.036   7.861 -0.1642  0.0097 -0.0409
  131MOL0     C17566   3.720   6.009   7.764 -0.0394 -0.3091 -0.5214
  131MOL0     N17567   3.659   5.962   7.635 -0.1244 -0.0301  0.0470
  131MOL0     C17568   3.593   5.842   7.621  0.0984 -0.5326  0.5620
  131MOL0     C17569   3.595   5.812   7.491 -0.3065 -1.2813 -0.4257
  131MOL0     C17570   3.541   5.689   7.423  0.5988  0.2150  1.1253
  131MOL0     C17571   3.444   5.595   7.498 -0.1643 -0.3151  0.2679
  131MOL0     C17572   3.420   5.468   7.427  1.3276 -0.9737  1.3214
  131MOL0     C17573   3.343   5.365   7.506  0.0137 -0.8551 -0.5855
  131MOL0     O17574   3.417   5.325   7.621  0.2561 -0.0641 -0.3823
  131MOL0     C17575   3.507   5.219   7.626 -0.0371 -0.0142  0.5693
  131MOL0     C17576   3.567   5.162   7.516 -0.4767  1.3003 -0.2030
  131MOL0     C17577   3.648   5.045   7.525 -0.0777 -0.3344  0.5617
  131MOL0     C17578   3.692   4.978   7.395 -0.0360  0.0245 -0.7720
  131MOL0     C17579   3.670   4.995   7.651 -0.3255  1.0557 -0.4329
  131MOL0     C17580   3.734   4.862   7.682 -0.1194 -1.3454 -0.4452
  131MOL0     O17581   3.768   4.850   7.820  0.0316 -0.7461 -0.0448
  131MOL0     C17582   3.871   4.774   7.863 -0.0603 -0.5740 -0.2848
  131MOL0     C17583   3.890   4.785   8.003 -0.0090  0.4168 -0.5436
  131MOL0     C17584   3.992   4.712   8.063  0.3205 -0.3920  0.3224
  131MOL0     C17585   4.072   4.620   7.984  0.3314  0.4439 -0.3562
  131MOL0     O17586   4.188   4.566   8.037  0.1458 -0.1250  0.5285
  131MOL0     C17587   4.219   4.549   8.168 -0.4509 -0.4350 -1.1185
  131MOL0     C17588   4.359   4.473   8.170 -0.9181 -0.2237 -0.7310
  131MOL0     C17589   4.371   4.407   8.305  0.1646  1.2473 -0.6041
  131MOL0     C17590   4.514   4.356   8.332  0.2370 -0.0549 -0.2436
  131MOL0     C17591   4.548   4.332   8.477 -0.5787 -0.3863 -0.3073
  131MOL0     C17592   4.455   4.232   8.549  0.6861 -0.5036 -1.0001
  131MOL0     C17593   4.428   4.266   8.694  0.2739  0.5544 -0.4236
  131MOL0     C17594   4.555   4.245   8.783 -0.0296  0.4308  0.1963
  131MOL0    Cl17595   4.635   4.095   8.753  0.4901 -0.0765  0.5382
  131MOL0     C17596   4.046   4.606   7.849  0.4263 -0.6688 -0.1790
  131MOL0     C17597   3.952   4.690   7.788  1.0797  0.2481 -0.3841
  131MOL0     O17598   3.738   4.766   7.603 -0.0872  0.0493  0.0150
  131MOL0     C17599   3.613   5.054   7.770  1.0824 -0.3522 -0.2522
  131MOL0     C17600   3.534   5.169   7.752  1.0657 -0.2374 -0.9568
  131MOL0     N17601   3.671   5.915   7.429  0.0355  0.2034  1.0785
  131MOL0     N17602   3.709   5.997   7.517 -0.1440  0.0629 -0.3992
  131MOL0     C17603   4.039   5.849   8.699 -0.5989  0.0299  0.7919
  131MOL0     C17604   4.016   5.737   8.785  0.8370 -0.3169 -0.3032
  131MOL0     C17605   3.827   5.419   9.028  0.0168  0.5061 -0.8691
  131MOL0     C17606   3.787   5.468   9.161 -0.4518  0.8057 -0.5905
  131MOL0     C17607   3.731   5.380   9.254 -0.1867  0.1728 -0.2787
  131MOL0     C17608   3.721   5.240   9.224 -0.9005 -0.2037 -0.3874
  131MOL0     O17609   3.681   5.157   9.325  0.0099 -0.3462 -0.2251
  131MOL0     C17610   3.717   5.012   9.321 -0.7363 -0.1172  0.0516
  131MOL0     C17611   3.866   4.986   9.340 -0.4476  0.3333 -0.5361
  131MOL0     C17612   3.904   4.831   9.358  0.4581  0.1614 -0.2022
  131MOL0     C17613   3.805   4.742   9.439 -0.7793  0.9108 -0.0837
  131MOL0     C17614   3.741   4.656   9.341  0.7875 -0.3911 -0.0773
  131MOL0     C17615   3.682   4.602   9.246 -0.3330 -0.1781  0.3096
  131MOL0     C17616   3.757   5.195   9.097 -0.2209 -0.2671  0.2180
  131MOL0     C17617   3.809   5.284   8.999  0.1350 -0.3986  0.6796
  131MOL0     H17618   3.692   5.818   8.881  0.5362 -1.0440 -0.7083
  131MOL0     H17619   3.748   6.016   8.736 -1.2626 -1.6348  1.1844
  131MOL0     H17620   3.991   5.927   8.418  0.8159  1.2947  0.5028
  131MOL0     H17621   3.827   5.965   8.445 -0.6825  2.5632 -0.5874
  131MOL0     H17622   3.853   6.196   8.401 -0.3528 -0.8747  1.3421
  131MOL0     H17623   4.024   6.187   8.366 -1.6146  2.7022 -1.1490
  131MOL0     H17624   3.984   6.075   8.166 -0.4457 -1.8196 -0.7473
  131MOL0     H17625   3.838   6.005   8.220  0.2901  0.6139 -1.0550
  131MOL0     H17626   3.734   6.256   8.223 -1.0084 -2.3812 -1.2503
  131MOL0     H17627   3.891   6.301   8.157  0.3627 -0.2949  0.0576
  131MOL0     H17628   3.706   6.282   7.990 -0.0745 -0.1180  2.2617
  131MOL0     H17629   3.858   6.188   7.955  0.4859 -1.1337  0.7019
  131MOL0     H17630   3.719   5.976   8.039  3.4459  1.2852 -0.9261
  131MOL0     H17631   3.592   6.090   8.073 -0.7868 -1.0089 -0.8194
  131MOL0     H17632   3.536   5.955   7.865  0.7748 -0.8671 -0.1600
  131MOL0     H17633   3.544   6.119   7.833  2.5615  2.7305  1.0996
  131MOL0     H17634   3.784   5.932   7.809  1.2157 -1.6776 -4.2474
  131MOL0     H17635   3.779   6.094   7.732  0.5613 -0.8691 -0.9263
  131MOL0     H17636   3.556   5.780   7.702  2.0077 -1.5926  0.6701
  131MOL0     H17637   3.499   5.727   7.329 -0.1661 -0.4467  1.1894
  131MOL0     H17638   3.632   5.630   7.408 -0.2592 -0.9044  0.1114
  131MOL0     H17639   3.344   5.639   7.503 -0.4653  0.3074 -5.1531
  131MOL0     H17640   3.474   5.567   7.599  0.4575  0.7689  0.3928
  131MOL0     H17641   3.516   5.428   7.393  0.2748 -1.5498 -1.1877
  131MOL0     H17642   3.356   5.506   7.347 -0.3576 -0.0420  3.0366
  131MOL0     H17643   3.311   5.275   7.452 -4.5664 -0.0958  0.5131
  131MOL0     H17644   3.248   5.404   7.542 -0.5059 -2.4972 -0.0551
  131MOL0     H17645   3.558   5.213   7.420  1.1900 -0.9148 -1.6449
  131MOL0     H17646   3.629   4.890   7.378  1.4174 -1.6592  1.8460
  131MOL0     H17647   3.676   5.038   7.305 -0.7060  1.8001  0.4782
  131MOL0     H17648   3.798   4.952   7.397  1.1360  4.0762  0.3175
  131MOL0     H17649   3.826   4.859   8.050  2.3370  3.0143 -1.1582
  131MOL0     H17650   4.017   4.715   8.168 -1.3056  0.9351  0.7148
  131MOL0     H17651   4.232   4.646   8.217 -0.4635 -0.8525 -0.2714
  131MOL0     H17652   4.150   4.497   8.235  1.5204  0.4868  1.8739
  131MOL0     H17653   4.356   4.395   8.094  0.1021 -3.6449  2.4786
  131MOL0     H17654   4.445   4.539   8.151 -0.4556 -1.0523 -1.6402
  131MOL0     H17655   4.306   4.319   8.300  0.9192  0.6206  0.1804
  131MOL0     H17656   4.342   4.465   8.393  2.9780 -1.1553  2.1487
  131MOL0     H17657   4.544   4.264   8.281  0.9112  0.0781 -0.0909
  131MOL0     H17658   4.576   4.434   8.287 -1.0705  1.0543 -0.1760
  131MOL0     H17659   4.548   4.423   8.537  0.2479  0.9106 -2.1839
  131MOL0     H17660   4.653   4.302   8.477 -0.2588  0.4600 -3.0766
  131MOL0     H17661   4.365   4.225   8.487  0.8325  0.9634 -1.4314
  131MOL0     H17662   4.500   4.133   8.537  2.0149  0.2312 -2.4213
  131MOL0     H17663   4.362   4.196   8.746  2.2665 -0.5185  0.8014
  131MOL0     H17664   4.385   4.361   8.725 -1.4445 -0.4439  0.4177
  131MOL0     H17665   4.534   4.241   8.891  1.8905  0.9794  0.6161
  131MOL0     H17666   4.613   4.335   8.761 -0.6389  0.6509 -0.5709
  131MOL0     H17667   4.107   4.545   7.783 -0.2186  0.2745 -1.7043
  131MOL0     H17668   3.942   4.669   7.682  1.7853  0.1649 -0.4401
  131MOL0     H17669   3.622   5.019   7.872 -0.2862  0.5235  0.2088
  131MOL0     H17670   3.480   5.215   7.834  2.5164  0.5095 -0.3832
  131MOL0     H17671   4.132   5.845   8.644 -0.8436  0.4980  0.3389
  131MOL0     H17672   4.083   5.653   8.800 -1.3705 -1.7231  2.8228
  131MOL0     H17673   3.811   5.568   9.197 -5.3684  1.9899  0.1796
  131MOL0     H17674   3.716   5.409   9.358  0.6226 -2.1311  0.5485
  131MOL0     H17675   3.664   4.970   9.407 -1.2093  2.0834  0.8946
  131MOL0     H17676   3.688   4.961   9.228  2.7441 -0.5286 -0.9527
  131MOL0     H17677   3.902   5.044   9.426 -1.2905 -0.6836  0.5478
  131MOL0     H17678   3.925   5.028   9.259  0.9241  0.0373  0.2810
  131MOL0     H17679   4.004   4.827   9.401  1.1639  0.9742 -1.6997
  131MOL0     H17680   3.914   4.792   9.257 -0.2515  0.6986 -0.4873
  131MOL0     H17681   3.738   4.808   9.497  0.5789  1.0043  1.4492
  131MOL0     H17682   3.858   4.693   9.521 -3.3264  1.9623  2.3551
  131MOL0     H17683   3.638   4.557   9.159 -0.3254  2.8299 -1.3810
  131MOL0     H17684   3.761   5.091   9.067  0.4579  0.1133 -1.0633
  131MOL0     H17685   3.849   5.229   8.914  1.2142  1.9260 -0.4004
  132MOL0     O17686   2.420   1.240   8.627 -0.4231 -0.3601  0.7800
  132MOL0     C17687   2.482   1.131   8.621  0.5260 -0.4613 -0.2132
  132MOL0     O17688   2.462   1.032   8.527  0.6298  0.0954  0.4968
  132MOL0     C17689   2.350   1.029   8.453 -0.1390  0.4118  0.2921
  132MOL0     C17690   2.306   1.144   8.380  0.0674 -0.3586  0.7122
  132MOL0     C17691   2.180   1.145   8.320 -0.4632 -0.7469  0.7937
  132MOL0     C17692   2.110   1.021   8.305 -1.2058 -0.0330  0.8612
  132MOL0     O17693   1.985   1.015   8.250 -0.4169 -0.0058 -0.2486
  132MOL0     C17694   1.940   1.123   8.171 -0.5650  0.3448 -0.2010
  132MOL0     C17695   1.793   1.094   8.130  0.3404  0.5244 -0.1195
  132MOL0     C17696   1.722   1.181   8.042 -1.4308  0.8144  0.6733
  132MOL0     C17697   1.581   1.141   8.031  0.0574  0.6458 -0.6770
  132MOL0     C17698   1.555   1.008   7.955 -0.2032  0.1956 -0.0178
  132MOL0     C17699   1.615   0.996   7.819 -0.6044 -0.4672 -0.6139
  132MOL0     C17700   1.589   0.855   7.764 -0.2128 -0.3000  0.5420
  132MOL0     C17701   1.608   0.858   7.609  0.1460  0.2668  0.1597
  132MOL0     N17702   1.504   0.933   7.530 -0.0214  0.5488 -0.6797
  132MOL0     C17703   1.388   0.874   7.500  0.5671 -1.0333  0.4912
  132MOL0     C17704   1.317   0.977   7.443 -0.0993  1.0774  0.5013
  132MOL0     C17705   1.173   0.976   7.393  1.0061 -0.2232  0.2982
  132MOL0     C17706   1.124   0.843   7.328  0.0849  0.3862  0.2093
  132MOL0     C17707   1.204   0.819   7.203  0.3643  0.5962  0.4674
  132MOL0     C17708   1.208   0.671   7.163  0.4926  0.0415 -0.4918
  132MOL0     O17709   1.238   0.578   7.283  0.3767 -0.2024  0.6703
  132MOL0     C17710   1.362   0.523   7.298  0.2090 -0.1812  0.2355
  132MOL0     C17711   1.391   0.436   7.408  0.9247 -0.2726  0.1579
  132MOL0     C17712   1.528   0.408   7.435 -1.1631  0.6936  0.1064
  132MOL0     C17713   1.553   0.303   7.534 -0.5012 -0.4409 -0.8203
  132MOL0     C17714   1.632   0.457   7.361 -0.6732 -0.2567 -0.2065
  132MOL0     C17715   1.780   0.430   7.390 -0.0748 -0.0569 -0.3744
  132MOL0     O17716   1.814   0.403   7.526 -0.2315 -0.0574 -0.3620
  132MOL0     C17717   1.945   0.357   7.562  0.5083  0.1020  0.1684
  132MOL0     C17718   2.029   0.429   7.655 -0.1661 -0.0700 -0.3271
  132MOL0     C17719   2.164   0.392   7.673 -0.8398 -0.0013 -0.7768
  132MOL0     C17720   2.214   0.278   7.615 -0.6278  0.1704 -0.7862
  132MOL0     O17721   2.347   0.240   7.638  0.6955  0.5416 -0.1511
  132MOL0     C17722   2.397   0.110   7.618 -0.0713 -0.1703  0.2136
  132MOL0     C17723   2.533   0.083   7.672  0.2316  0.3460  0.1453
  132MOL0     C17724   2.665   0.142   7.604  0.6461  0.5295 -0.2768
  132MOL0     C17725   2.777   0.101   7.691 -0.2345 -0.3938  0.5948
  132MOL0     C17726   2.898   0.196   7.654  0.1740 -0.0221  0.2354
  132MOL0     C17727   2.956   0.144   7.528  0.5235 -0.6150 -0.3398
  132MOL0     C17728   3.088   0.208   7.482 -0.2072 -0.4090 -0.7025
  132MOL0     C17729   3.117   0.187   7.340 -0.1801  0.1495  1.0067
  132MOL0    Cl17730   2.995   0.233   7.225 -0.3685 -0.0542  0.6395
  132MOL0     C17731   2.134   0.204   7.525  0.2817 -0.3886 -0.8192
  132MOL0     C17732   2.000   0.247   7.494  0.5661  0.1149  0.3150
  132MOL0     O17733   1.858   0.465   7.306 -0.0959 -0.7012  0.0830
  132MOL0     C17734   1.598   0.542   7.257  0.1702 -0.5727 -0.4402
  132MOL0     C17735   1.467   0.577   7.229 -0.9829 -0.4739 -1.2526
  132MOL0     N17736   1.395   1.086   7.418 -0.1407 -0.0165 -0.2169
  132MOL0     N17737   1.505   1.059   7.482  0.3417  0.3477  0.0480
  132MOL0     C17738   2.149   0.910   8.376  0.0027  0.1639  0.0929
  132MOL0     C17739   2.273   0.918   8.444  0.0323 -0.2165 -0.2382
  132MOL0     C17740   2.571   1.106   8.736 -0.7815  0.7957 -0.3789
  132MOL0     C17741   2.558   1.176   8.856 -0.6885 -0.2704 -0.1098
  132MOL0     C17742   2.641   1.143   8.972 -0.6878  0.6299 -0.6718
  132MOL0     C17743   2.732   1.035   8.961  0.6284 -0.0821 -0.0035
  132MOL0     O17744   2.821   1.018   9.072  0.1921  0.3687 -0.1834
  132MOL0     C17745   2.924   0.927   9.055 -0.6141  0.1497 -1.2076
  132MOL0     C17746   3.004   0.916   9.186  0.3640  0.6207  0.9830
  132MOL0     C17747   3.110   1.027   9.208  0.6574 -0.1885  0.4036
  132MOL0     C17748   3.175   0.985   9.347 -0.5335  0.7479  0.1224
  132MOL0     C17749   3.315   1.010   9.358 -0.1231  0.6666 -0.7027
  132MOL0     C17750   3.429   1.028   9.375 -0.0353  0.0336  0.5816
  132MOL0     C17751   2.726   0.955   8.843  0.0078 -0.4266  0.0646
  132MOL0     C17752   2.653   0.995   8.733 -0.2260  0.4657 -0.3228
  132MOL0     H17753   2.364   1.236   8.386 -3.2557  2.1838 -1.7313
  132MOL0     H17754   2.146   1.240   8.280 -1.3237 -1.8222 -1.1757
  132MOL0     H17755   1.936   1.220   8.220 -1.6896  0.7662 -1.0683
  132MOL0     H17756   1.997   1.130   8.078  0.5672 -2.9147  0.0879
  132MOL0     H17757   1.792   0.993   8.090  3.3506  0.8254 -1.2276
  132MOL0     H17758   1.741   1.096   8.226 -0.3075 -1.2785 -0.3935
  132MOL0     H17759   1.730   1.286   8.074  2.0574  0.7878  0.2850
  132MOL0     H17760   1.766   1.169   7.942 -4.2360 -0.7204 -0.4956
  132MOL0     H17761   1.530   1.143   8.128 -0.0666 -0.7964 -0.6968
  132MOL0     H17762   1.534   1.225   7.979  0.7801  1.9730  0.7304
  132MOL0     H17763   1.594   0.926   8.018 -0.8923  0.5747  0.9239
  132MOL0     H17764   1.449   0.985   7.941 -1.6108  6.7126 -4.2343
  132MOL0     H17765   1.567   1.073   7.758  1.4344 -0.0663 -1.7716
  132MOL0     H17766   1.723   1.008   7.825 -0.6415 -0.6440  0.6939
  132MOL0     H17767   1.662   0.789   7.812  0.3191 -0.3424 -0.3071
  132MOL0     H17768   1.497   0.802   7.793  0.6582 -1.3736  1.4095
  132MOL0     H17769   1.612   0.754   7.574  2.1228  0.2570  0.3068
  132MOL0     H17770   1.713   0.888   7.602 -0.2665  1.3028 -2.9271
  132MOL0     H17771   1.352   0.779   7.541  0.0389 -0.9143  0.3123
  132MOL0     H17772   1.111   0.985   7.483 -1.2531  0.6434 -1.2534
  132MOL0     H17773   1.145   1.064   7.334  0.8152 -0.0318  0.6684
  132MOL0     H17774   1.019   0.859   7.305 -0.5930 -2.3921  1.0160
  132MOL0     H17775   1.137   0.761   7.399 -0.1867  1.2473  1.2832
  132MOL0     H17776   1.309   0.845   7.213  0.6813  0.1713 -1.3177
  132MOL0     H17777   1.176   0.865   7.108  2.1268 -2.7924 -1.8997
  132MOL0     H17778   1.270   0.657   7.075 -1.1630 -0.9715 -1.5526
  132MOL0     H17779   1.103   0.657   7.134 -0.0561  0.8138  0.9970
  132MOL0     H17780   1.308   0.391   7.462  2.2622  0.6995  3.2545
  132MOL0     H17781   1.460   0.258   7.569 -0.2074 -1.0739 -0.8453
  132MOL0     H17782   1.625   0.228   7.501  0.6865  1.8052 -3.9350
  132MOL0     H17783   1.583   0.346   7.629 -3.0617 -3.2408  1.4479
  132MOL0     H17784   1.999   0.520   7.707  1.6515 -0.2802  1.2253
  132MOL0     H17785   2.233   0.452   7.732 -0.3175  0.8469 -2.2230
  132MOL0     H17786   2.330   0.037   7.665 -0.6527 -0.3480 -0.8595
  132MOL0     H17787   2.394   0.078   7.513  0.7362 -2.4745  0.8247
  132MOL0     H17788   2.531   0.124   7.773 -0.0755 -3.1203  1.7043
  132MOL0     H17789   2.553  -0.023   7.689  2.8159  1.1782  3.4170
  132MOL0     H17790   2.650   0.250   7.599 -1.7942  0.2245 -1.0134
  132MOL0     H17791   2.669   0.101   7.503  2.3697 -0.9050  0.3039
  132MOL0     H17792   2.756   0.117   7.797  2.5689  0.0272  1.1634
  132MOL0     H17793   2.804  -0.004   7.675  0.8428  0.0911 -0.9853
  132MOL0     H17794   2.964   0.199   7.741  1.0492  0.6510 -0.4377
  132MOL0     H17795   2.861   0.298   7.639 -1.3761 -0.3441  1.4703
  132MOL0     H17796   2.972   0.037   7.542 -1.5963 -0.6728  2.2452
  132MOL0     H17797   2.876   0.158   7.454 -0.1569  0.3082  0.5571
  132MOL0     H17798   3.166   0.172   7.550 -0.9233  0.6953  0.7573
  132MOL0     H17799   3.081   0.316   7.500  1.3087 -0.0634 -1.9464
  132MOL0     H17800   3.140   0.080   7.334  0.5011  0.2657  1.4170
  132MOL0     H17801   3.213   0.235   7.316  0.1064  0.1392  2.0688
  132MOL0     H17802   2.176   0.120   7.472 -1.9657 -2.1645  0.0578
  132MOL0     H17803   1.936   0.201   7.420 -0.2433  1.7412 -0.0292
  132MOL0     H17804   1.670   0.597   7.198  1.3590 -0.1269  1.3388
  132MOL0     H17805   1.457   0.630   7.135 -3.2513 -1.5807 -1.6847
  132MOL0     H17806   2.084   0.823   8.385 -0.3245  0.5818  2.3812
  132MOL0     H17807   2.300   0.831   8.503  3.1192 -0.1747 -1.4072
  132MOL0     H17808   2.485   1.257   8.860 -0.7447 -0.2542 -1.2158
  132MOL0     H17809   2.627   1.190   9.069  1.7450  1.1913 -0.5521
  132MOL0     H17810   2.895   0.826   9.025  0.4012  0.1137 -2.1266
  132MOL0     H17811   2.979   0.966   8.968 -0.8093  1.3548 -0.8175
  132MOL0     H17812   3.054   0.818   9.187 -0.7417  0.0234 -0.0337
  132MOL0     H17813   2.927   0.909   9.265 -1.2528 -1.4003 -0.6436
  132MOL0     H17814   3.065   1.125   9.225 -0.0238 -0.6068  1.0655
  132MOL0     H17815   3.183   1.026   9.127  0.1167  1.5047 -0.1467
  132MOL0     H17816   3.161   0.877   9.357 -0.1713  0.4467 -2.1695
  132MOL0     H17817   3.121   1.040   9.424 -0.3313  2.5859 -0.9935
  132MOL0     H17818   3.531   1.059   9.383  0.0954 -0.7206  2.3701
  132MOL0     H17819   2.790   0.868   8.832  2.1661  1.0864 -0.0515
  132MOL0     H17820   2.650   0.930   8.646  2.0901  0.8359 -0.7326
  133MOL0     O17821   8.130   2.473  10.226  0.4964 -0.0079  0.5734
  133MOL0     C17822   8.005   2.456  10.229  0.0277  0.2473 -0.1121
  133MOL0     O17823   7.940   2.347  10.287 -0.4708 -0.4378 -0.9992
  133MOL0     C17824   8.015   2.243  10.324 -0.1468  0.4232  0.1294
  133MOL0     C17825   7.968   2.109  10.292  0.5182  0.0401 -0.5020
  133MOL0     C17826   8.029   1.992  10.329 -0.7930  0.6954  0.1007
  133MOL0     C17827   8.153   1.997  10.401  0.3466 -0.0166  0.5996
  133MOL0     O17828   8.227   1.884  10.438 -1.3837 -0.6842  0.9497
  133MOL0     C17829   8.208   1.746  10.408  0.3757 -0.0884 -0.4659
  133MOL0     C17830   8.302   1.651  10.487 -0.1075  0.5502 -0.3140
  133MOL0     C17831   8.266   1.653  10.636 -0.7579 -0.0773 -0.0729
  133MOL0     C17832   8.375   1.564  10.719 -0.9544 -0.3183  0.8365
  133MOL0     C17833   8.306   1.518  10.837 -0.7439  0.4116  0.5818
  133MOL0     C17834   8.249   1.625  10.920 -0.4075 -0.3095 -0.6138
  133MOL0     C17835   8.187   1.568  11.048  0.0875 -0.2076 -0.8781
  133MOL0     C17836   8.298   1.544  11.150  0.7613  0.3551  0.2900
  133MOL0     N17837   8.239   1.525  11.284  0.3988  0.7339  0.7053
  133MOL0     C17838   8.195   1.402  11.333 -0.3766 -0.2945  0.8887
  133MOL0     C17839   8.134   1.420  11.447 -0.6527 -1.3071  0.3731
  133MOL0     C17840   8.064   1.326  11.537  0.3334 -0.4161 -1.2619
  133MOL0     C17841   7.926   1.279  11.490 -0.0996 -0.1290 -0.0709
  133MOL0     C17842   7.951   1.174  11.379 -0.0615  0.2651 -0.4074
  133MOL0     C17843   7.813   1.105  11.336 -1.1308  0.5575  0.3805
  133MOL0     O17844   7.845   1.030  11.226 -0.1409  0.0839  0.0079
  133MOL0     C17845   7.835   0.889  11.229  0.3415 -0.1960  0.7512
  133MOL0     C17846   7.849   0.809  11.119  0.1446 -0.9154 -0.0300
  133MOL0     C17847   7.837   0.666  11.118  0.2262 -0.7275 -0.8879
  133MOL0     C17848   7.825   0.606  10.985 -0.3208  0.2323  0.4491
  133MOL0     C17849   7.813   0.600  11.245  0.6004  0.2824 -0.9358
  133MOL0     C17850   7.783   0.456  11.259  1.0356  0.2606  0.3563
  133MOL0     O17851   7.689   0.430  11.358 -0.3174  0.7006  0.0028
  133MOL0     C17852   7.632   0.306  11.375 -0.4238  0.6576 -0.5822
  133MOL0     C17853   7.617   0.259  11.509  0.6020 -0.3171  0.7421
  133MOL0     C17854   7.571   0.129  11.521 -0.2622  0.7151  0.0716
  133MOL0     C17855   7.534   0.040  11.412  0.4451  0.0671  0.0868
  133MOL0     O17856   7.485  -0.080  11.451  0.0722 -0.7097  0.5518
  133MOL0     C17857   7.431  -0.172  11.359  0.9300 -0.4038 -0.6982
  133MOL0     C17858   7.285  -0.169  11.382  0.5454  0.4526 -0.5359
  133MOL0     C17859   7.214  -0.257  11.284 -0.1469 -0.5162  0.5767
  133MOL0     C17860   7.066  -0.235  11.272 -0.0956 -0.4337 -0.7709
  133MOL0     C17861   6.987  -0.340  11.187 -0.7224  0.1434  0.7324
  133MOL0     C17862   6.992  -0.319  11.031 -0.2822  0.6627 -0.0271
  133MOL0     C17863   6.917  -0.437  10.962  0.1504  0.1616  0.0266
  133MOL0     C17864   6.895  -0.412  10.812  0.1169  0.1032 -0.9730
  133MOL0    Cl17865   6.760  -0.525  10.775 -0.0126  0.0759  0.0181
  133MOL0     C17866   7.552   0.087  11.281 -0.4708  0.1520  0.5126
  133MOL0     C17867   7.596   0.215  11.270 -0.2598 -0.4106 -0.4505
  133MOL0     O17868   7.830   0.374  11.188  0.0011  0.1294  0.1708
  133MOL0     C17869   7.814   0.681  11.355 -0.4299  0.3141  0.1663
  133MOL0     C17870   7.823   0.816  11.350 -0.3684 -0.7400 -0.7292
  133MOL0     N17871   8.121   1.555  11.465 -0.3111 -0.3703  0.9559
  133MOL0     N17872   8.184   1.611  11.365  0.1222 -0.5605 -0.3951
  133MOL0     C17873   8.193   2.127  10.439  0.6297 -0.1247 -0.1283
  133MOL0     C17874   8.133   2.247  10.394 -0.4210  0.4346 -0.0858
  133MOL0     C17875   7.920   2.564  10.179 -0.2617  0.2576 -0.5169
  133MOL0     C17876   7.777   2.570  10.213 -0.6862 -0.3832 -0.0451
  133MOL0     C17877   7.704   2.683  10.161  0.1646 -0.2708  0.8290
  133MOL0     C17878   7.754   2.775  10.064 -0.2045  1.2318 -0.4474
  133MOL0     O17879   7.675   2.866   9.996 -0.1859  0.2205 -0.8097
  133MOL0     C17880   7.586   2.941  10.082 -0.0275 -0.0608 -0.5320
  133MOL0     C17881   7.451   2.927  10.011  0.3365  1.1477  0.6367
  133MOL0     C17882   7.389   2.790  10.047 -1.1864  0.1250 -0.2416
  133MOL0     C17883   7.240   2.784  10.000 -0.2455  0.4794  0.7401
  133MOL0     C17884   7.156   2.877  10.065 -0.5043 -0.1136  0.6797
  133MOL0     C17885   7.068   2.942  10.120  0.3055  0.4408 -0.1093
  133MOL0     C17886   7.882   2.771  10.033 -0.5124  0.4380 -0.1713
  133MOL0     C17887   7.964   2.653  10.079 -0.2768  0.1804  1.4112
  133MOL0     H17888   7.871   2.095  10.247 -0.5294  0.4057  1.5362
  133MOL0     H17889   7.980   1.898  10.304 -0.7934  1.5856 -3.8239
  133MOL0     H17890   8.106   1.711  10.427  0.4502  0.2887  0.6768
  133MOL0     H17891   8.229   1.728  10.302 -0.0508  3.1323 -1.2140
  133MOL0     H17892   8.274   1.550  10.456 -0.5165 -0.1525  2.1443
  133MOL0     H17893   8.406   1.681  10.469 -0.0870 -1.0157 -3.5291
  133MOL0     H17894   8.263   1.753  10.680 -0.2050 -0.4121  0.7458
  133MOL0     H17895   8.162   1.621  10.646 -0.8820  0.0954 -0.7782
  133MOL0     H17896   8.397   1.473  10.663  2.8143  1.3301 -0.6726
  133MOL0     H17897   8.468   1.620  10.728 -0.4510 -0.7214 -1.3176
  133MOL0     H17898   8.233   1.444  10.803  1.2265 -1.6258  0.5953
  133MOL0     H17899   8.374   1.459  10.899  0.1874  0.7069 -0.1447
  133MOL0     H17900   8.329   1.699  10.928 -2.1003  1.6509 -1.0908
  133MOL0     H17901   8.161   1.662  10.866 -0.7697 -2.7203 -1.8520
  133MOL0     H17902   8.122   1.646  11.088  2.4936  2.6827 -2.2250
  133MOL0     H17903   8.121   1.482  11.035 -4.4700  2.4978  1.7630
  133MOL0     H17904   8.356   1.637  11.153  0.3830  0.5663  1.4421
  133MOL0     H17905   8.357   1.461  11.109 -0.3365  0.8867 -2.6177
  133MOL0     H17906   8.209   1.304  11.288 -0.5512 -0.7460  1.7856
  133MOL0     H17907   8.137   1.245  11.547  3.0275  1.8040 -1.8814
  133MOL0     H17908   8.042   1.377  11.631  2.1652 -1.5085 -0.1657
  133MOL0     H17909   7.869   1.370  11.472 -1.8881 -0.9142  1.3220
  133MOL0     H17910   7.869   1.236  11.573 -1.2904  1.7189  0.1209
  133MOL0     H17911   8.021   1.098  11.415 -0.0097  0.5168  0.0290
  133MOL0     H17912   7.998   1.226  11.295  2.3277 -2.9490 -1.2610
  133MOL0     H17913   7.740   1.180  11.305  0.1581  0.9740 -1.8036
  133MOL0     H17914   7.759   1.041  11.408  0.8230 -3.6234 -1.5560
  133MOL0     H17915   7.866   0.865  11.028 -4.5429  0.6432 -0.2596
  133MOL0     H17916   7.720   0.577  10.975 -0.4251 -0.5365  3.0752
  133MOL0     H17917   7.855   0.681  10.911  2.5784 -1.4100 -0.1545
  133MOL0     H17918   7.890   0.521  10.964 -2.6644 -1.1865 -1.6472
  133MOL0     H17919   7.636   0.320  11.597  0.7689 -0.0050  0.4939
  133MOL0     H17920   7.561   0.094  11.624 -1.0834 -0.3741 -0.3579
  133MOL0     H17921   7.450  -0.167  11.251  0.2177 -3.2337 -1.0454
  133MOL0     H17922   7.465  -0.272  11.386  0.2985 -0.1397  1.2262
  133MOL0     H17923   7.271  -0.220  11.478 -0.3253 -0.2997 -1.0518
  133MOL0     H17924   7.240  -0.069  11.382 -0.5672  0.0066 -2.3148
  133MOL0     H17925   7.247  -0.360  11.300  3.4932  0.3744 -0.2107
  133MOL0     H17926   7.256  -0.221  11.190 -0.8138 -2.1929 -0.4221
  133MOL0     H17927   7.038  -0.235  11.378 -1.1932  0.7619 -1.0186
  133MOL0     H17928   7.054  -0.130  11.240  3.2568  0.2748 -0.0665
  133MOL0     H17929   6.882  -0.336  11.220 -1.0980  0.1542 -0.4175
  133MOL0     H17930   7.023  -0.442  11.200  2.4073  0.6481 -2.4599
  133MOL0     H17931   6.959  -0.224  10.990 -0.6464  1.5458  2.1660
  133MOL0     H17932   7.095  -0.334  10.997 -1.5357 -0.9940 -3.5739
  133MOL0     H17933   6.816  -0.419  10.998 -0.0115 -0.4786 -0.0877
  133MOL0     H17934   6.953  -0.540  10.977 -1.0804 -0.7462 -2.5480
  133MOL0     H17935   6.979  -0.451  10.754 -1.5084 -3.1421 -1.3434
  133MOL0     H17936   6.872  -0.306  10.793 -1.6930  0.2665  1.5425
  133MOL0     H17937   7.524   0.024  11.197 -0.7895 -0.0628  0.7773
  133MOL0     H17938   7.610   0.258  11.172 -1.1222 -0.2051 -0.4914
  133MOL0     H17939   7.803   0.635  11.452  1.6573  0.7505  0.6653
  133MOL0     H17940   7.796   0.868  11.441 -1.2700  1.1225 -1.9934
  133MOL0     H17941   8.295   2.126  10.478  1.5439  0.4867 -2.3722
  133MOL0     H17942   8.184   2.341  10.414  1.8594 -0.8595  0.5350
  133MOL0     H17943   7.713   2.509  10.276 -3.1385  2.4408  0.4475
  133MOL0     H17944   7.599   2.686  10.187 -0.3246  1.7263 -1.0949
  133MOL0     H17945   7.586   2.906  10.185  1.5119  1.1323 -0.0842
  133MOL0     H17946   7.621   3.045  10.080 -1.7020  0.5686  0.8743
  133MOL0     H17947   7.455   2.930   9.902 -0.0111 -1.3316  0.4940
  133MOL0     H17948   7.379   3.004  10.039 -2.5782 -1.3627  0.5314
  133MOL0     H17949   7.407   2.774  10.154 -0.0944 -2.6654 -0.7724
  133MOL0     H17950   7.446   2.711   9.998  0.6961  0.8190  0.7327
  133MOL0     H17951   7.188   2.689  10.013 -1.5580  1.1647  0.6859
  133MOL0     H17952   7.246   2.796   9.891 -0.3886  3.0230  0.9465
  133MOL0     H17953   6.998   2.998  10.178  2.6670  1.7889  1.6211
  133MOL0     H17954   7.935   2.829   9.958 -0.5183 -0.2148 -0.7008
  133MOL0     H17955   8.063   2.636  10.038 -0.7074 -1.5660  1.0157
  134MOL0     O17956   4.753   4.500   1.110 -0.2161  0.4566  0.4242
  134MOL0     C17957   4.714   4.430   1.016 -0.5699 -0.0871  1.0558
  134MOL0     O17958   4.749   4.442   0.881 -0.3867 -0.0891 -0.2037
  134MOL0     C17959   4.833   4.551   0.835  0.5191  1.1656 -0.1127
  134MOL0     C17960   4.799   4.682   0.836  0.8369 -0.7398 -0.1978
  134MOL0     C17961   4.885   4.785   0.791  0.2901 -0.3180  0.6941
  134MOL0     C17962   5.004   4.749   0.733  0.5798  0.4085 -0.8075
  134MOL0     O17963   5.102   4.834   0.685  0.8286 -0.2084 -0.3319
  134MOL0     C17964   5.075   4.970   0.658  0.5160  0.5701  0.2092
  134MOL0     C17965   5.202   5.036   0.612  0.0705  0.7992 -0.2504
  134MOL0     C17966   5.274   5.113   0.723  0.2818 -0.8005 -0.2443
  134MOL0     C17967   5.400   5.192   0.660 -0.4939  0.2628 -0.2945
  134MOL0     C17968   5.477   5.276   0.769  0.3640  0.3402 -0.4785
  134MOL0     C17969   5.556   5.190   0.863  0.0864  0.5628 -0.1784
  134MOL0     C17970   5.644   5.262   0.960 -0.3767  0.9324 -0.2233
  134MOL0     C17971   5.736   5.185   1.054  0.9905 -0.0656  0.0207
  134MOL0     N17972   5.677   5.108   1.169 -0.3019 -0.7966  0.2310
  134MOL0     C17973   5.551   5.061   1.183  0.0690  0.6304 -1.0534
  134MOL0     C17974   5.552   4.990   1.302  0.2316 -0.0355  0.6259
  134MOL0     C17975   5.439   4.915   1.363  0.1737 -0.4790  0.4344
  134MOL0     C17976   5.407   4.964   1.501 -0.2573 -0.5908  0.9314
  134MOL0     C17977   5.378   5.122   1.506 -0.3873  0.3061 -0.3338
  134MOL0     C17978   5.348   5.171   1.653 -0.7369  1.1245  0.7699
  134MOL0     O17979   5.248   5.101   1.731  0.0724  0.0866 -1.2134
  134MOL0     C17980   5.117   5.111   1.711  0.5849  0.2706 -0.2809
  134MOL0     C17981   5.065   5.213   1.631  1.1909  0.6186 -0.0575
  134MOL0     C17982   4.926   5.226   1.617 -0.2233  0.0079  0.4982
  134MOL0     C17983   4.893   5.323   1.501 -0.7396 -0.5535  0.9045
  134MOL0     C17984   4.833   5.148   1.697 -0.1194  0.2495  0.4809
  134MOL0     C17985   4.684   5.167   1.700 -0.2761 -0.0782  0.1167
  134MOL0     O17986   4.612   5.067   1.745  0.3390  0.3314  0.4165
  134MOL0     C17987   4.479   5.085   1.751 -0.6413  0.8813 -0.0729
  134MOL0     C17988   4.397   5.080   1.636 -0.2482  0.2115  0.9704
  134MOL0     C17989   4.261   5.104   1.650 -0.2172  0.6163 -0.2378
  134MOL0     C17990   4.199   5.142   1.770  0.0962 -0.2648  0.5129
  134MOL0     O17991   4.069   5.176   1.766 -0.3268 -0.4246  0.6404
  134MOL0     C17992   3.997   5.195   1.889  0.2684  0.2187  1.3390
  134MOL0     C17993   3.847   5.191   1.867 -1.0961 -0.5573 -0.3304
  134MOL0     C17994   3.795   5.204   2.010  0.7795 -0.0639 -0.0924
  134MOL0     C17995   3.654   5.270   2.008 -0.3851  0.0318 -0.9315
  134MOL0     C17996   3.552   5.176   1.936 -0.2314  0.0150  0.5530
  134MOL0     C17997   3.416   5.255   1.926  0.6203  0.9932 -0.1291
  134MOL0     C17998   3.296   5.168   1.898  0.0033  0.3976  1.3418
  134MOL0     C17999   3.203   5.252   1.802 -0.1872 -0.5382  0.0354
  134MOL0    Cl18000   3.060   5.147   1.783 -0.1936 -0.2346 -0.3849
  134MOL0     C18001   4.281   5.136   1.886 -0.6217 -0.7135 -0.6820
  134MOL0     C18002   4.419   5.113   1.879 -0.0766  0.7462  0.0693
  134MOL0     O18003   4.638   5.275   1.668  0.5563  0.1172  0.7754
  134MOL0     C18004   4.892   5.048   1.784  0.7937  0.7088 -0.4311
  134MOL0     C18005   5.030   5.033   1.791  0.6426 -0.3054 -0.1936
  134MOL0     N18006   5.679   4.988   1.348 -0.1184  0.6772 -0.0574
  134MOL0     N18007   5.755   5.059   1.274 -0.3062  0.1933 -0.4878
  134MOL0     C18008   5.030   4.614   0.722  0.0420  0.1739  0.3933
  134MOL0     C18009   4.951   4.516   0.774 -0.4366 -0.1379 -0.6711
  134MOL0     C18010   4.635   4.303   1.047  0.2513  0.8558 -0.8071
  134MOL0     C18011   4.569   4.286   1.174  0.2811  0.4691  0.0785
  134MOL0     C18012   4.508   4.167   1.211  0.3550  0.4087  0.3306
  134MOL0     C18013   4.480   4.069   1.121  0.0753  0.0027 -0.3028
  134MOL0     O18014   4.413   3.959   1.162  0.4838  0.1078  0.1758
  134MOL0     C18015   4.288   3.958   1.248  0.4148 -0.1761 -0.9081
  134MOL0     C18016   4.317   3.941   1.401 -0.2198  0.2781 -0.6315
  134MOL0     C18017   4.187   3.917   1.483  0.3643  0.3421  0.7763
  134MOL0     C18018   4.233   3.914   1.636  0.0430 -0.2729  0.9601
  134MOL0     C18019   4.271   4.038   1.697 -0.1736 -0.7592  1.2934
  134MOL0     C18020   4.300   4.153   1.729  0.2420 -0.2064  0.4678
  134MOL0     C18021   4.520   4.085   0.986 -0.3133 -1.0550 -0.4312
  134MOL0     C18022   4.597   4.203   0.947 -0.8962 -0.1152 -0.4080
  134MOL0     H18023   4.705   4.700   0.887  1.3571 -0.9411  0.8516
  134MOL0     H18024   4.870   4.890   0.814 -1.3172 -0.2655 -0.4369
  134MOL0     H18025   4.992   4.984   0.588 -2.4575 -0.2864  3.3114
  134MOL0     H18026   5.042   5.020   0.749 -0.7818  0.7457 -0.3223
  134MOL0     H18027   5.272   4.960   0.578  0.6052 -0.3597  3.1199
  134MOL0     H18028   5.172   5.100   0.528  0.0644 -1.0414 -1.6979
  134MOL0     H18029   5.211   5.188   0.773  2.2338  0.1782  0.8882
  134MOL0     H18030   5.308   5.051   0.806 -3.7531  0.5548  2.7496
  134MOL0     H18031   5.473   5.121   0.620 -1.2948 -2.4865  2.6838
  134MOL0     H18032   5.368   5.260   0.581 -1.6265 -0.3903 -0.4329
  134MOL0     H18033   5.533   5.345   0.705  2.4301 -1.5944 -0.8657
  134MOL0     H18034   5.403   5.323   0.834  1.7438  1.5969  0.2586
  134MOL0     H18035   5.496   5.113   0.913  1.0040 -1.6420 -2.2815
  134MOL0     H18036   5.619   5.134   0.793 -1.3000 -1.7626  0.2971
  134MOL0     H18037   5.705   5.328   0.897 -0.1677  1.5904  0.6646
  134MOL0     H18038   5.575   5.321   1.020 -0.5746  0.1336  0.3394
  134MOL0     H18039   5.813   5.254   1.091  0.1920 -0.0270  1.7120
  134MOL0     H18040   5.795   5.112   0.997  0.8000 -1.4961  1.5687
  134MOL0     H18041   5.473   5.062   1.108  1.4010  2.0357 -2.4732
  134MOL0     H18042   5.348   4.925   1.303 -1.7050 -1.0752  2.9973
  134MOL0     H18043   5.466   4.809   1.365 -0.7847 -0.7246  0.9433
  134MOL0     H18044   5.490   4.944   1.569 -0.2310 -0.8441  0.8253
  134MOL0     H18045   5.328   4.901   1.543 -2.0527  1.2843  0.5548
  134MOL0     H18046   5.289   5.141   1.445 -3.2369 -1.8008  2.7740
  134MOL0     H18047   5.462   5.182   1.471  3.0510 -4.3903 -1.0226
  134MOL0     H18048   5.314   5.275   1.642  1.1911  1.5403 -3.4069
  134MOL0     H18049   5.441   5.154   1.707 -0.6041 -0.8080  0.0149
  134MOL0     H18050   5.127   5.267   1.560 -0.8465  0.4790 -2.0643
  134MOL0     H18051   4.978   5.378   1.462 -2.8742  1.3028 -1.4839
  134MOL0     H18052   4.862   5.252   1.423 -0.3546 -1.8231  1.8651
  134MOL0     H18053   4.819   5.403   1.508  1.4316  1.5895  0.7002
  134MOL0     H18054   4.440   5.052   1.541 -1.8135  1.0913 -0.0326
  134MOL0     H18055   4.202   5.096   1.559 -3.4231 -0.5308  1.7720
  134MOL0     H18056   4.019   5.116   1.962 -0.3494 -0.6474  0.6029
  134MOL0     H18057   4.016   5.293   1.935 -1.7249  0.7790  1.0600
  134MOL0     H18058   3.822   5.266   1.791 -1.4568 -1.9609 -1.6657
  134MOL0     H18059   3.819   5.094   1.825 -1.0773 -2.5134  3.7316
  134MOL0     H18060   3.859   5.268   2.072  0.4456 -0.0703  0.2599
  134MOL0     H18061   3.784   5.112   2.068  0.9650 -0.5309 -0.7825
  134MOL0     H18062   3.625   5.296   2.110 -0.5074 -1.5690 -0.5231
  134MOL0     H18063   3.659   5.368   1.960  3.4434  2.8819  4.2796
  134MOL0     H18064   3.542   5.084   1.994  3.1799 -1.3960 -0.8576
  134MOL0     H18065   3.594   5.154   1.837 -0.3676 -0.7735  0.6618
  134MOL0     H18066   3.384   5.289   2.025 -1.2409 -0.3121 -0.2302
  134MOL0     H18067   3.426   5.340   1.858  0.5192  0.5763 -0.6704
  134MOL0     H18068   3.248   5.134   1.990  2.6527  0.1248  2.7121
  134MOL0     H18069   3.339   5.079   1.851  2.1723  0.5517  2.9011
  134MOL0     H18070   3.254   5.275   1.709 -3.3034  1.7992 -1.2668
  134MOL0     H18071   3.188   5.345   1.858  1.4723 -0.2436  0.0354
  134MOL0     H18072   4.242   5.165   1.983  0.5574  1.7974 -0.8863
  134MOL0     H18073   4.468   5.114   1.976 -0.6283  1.7007  0.3468
  134MOL0     H18074   4.835   4.990   1.856 -0.0087 -1.4228 -2.6082
  134MOL0     H18075   5.054   4.953   1.860 -0.2716  0.6321  1.2969
  134MOL0     H18076   5.131   4.588   0.688 -0.1804 -1.1792  0.6970
  134MOL0     H18077   4.984   4.413   0.775 -2.9538 -1.0167  0.4830
  134MOL0     H18078   4.574   4.365   1.248  3.0396  0.5986 -0.1301
  134MOL0     H18079   4.474   4.151   1.313  1.8172  0.7335  0.8936
  134MOL0     H18080   4.230   4.051   1.249 -3.1476 -2.2062 -0.3408
  134MOL0     H18081   4.214   3.882   1.219 -1.7969  0.6642  1.9681
  134MOL0     H18082   4.368   4.032   1.434 -1.7453  0.1796  2.4098
  134MOL0     H18083   4.387   3.862   1.429 -2.3338 -1.7795 -0.7985
  134MOL0     H18084   4.123   3.833   1.453 -4.0036  3.2790  0.9496
  134MOL0     H18085   4.119   4.000   1.464 -1.2770 -1.0385  0.3443
  134MOL0     H18086   4.317   3.845   1.649  0.7739 -0.1982 -2.5475
  134MOL0     H18087   4.146   3.872   1.687  0.2005 -1.6749  0.1287
  134MOL0     H18088   4.340   4.252   1.742  0.4996 -0.1115 -0.8590
  134MOL0     H18089   4.490   4.030   0.897  2.1877  1.1181 -2.8001
  134MOL0     H18090   4.623   4.237   0.847 -1.1832  0.6921 -0.2124
  135MOL0     O18091   9.841   6.715   0.553  0.5141  0.5656  0.0328
  135MOL0     C18092   9.778   6.612   0.579  0.5875 -0.1986  0.4325
  135MOL0     O18093   9.803   6.486   0.521  0.7870  0.4733 -0.0862
  135MOL0     C18094   9.930   6.461   0.486  0.2177  0.1039 -0.4204
  135MOL0     C18095  10.008   6.371   0.556 -0.3205 -0.3308 -0.5808
  135MOL0     C18096  10.144   6.337   0.512 -0.4117 -1.1298  0.5553
  135MOL0     C18097  10.209   6.416   0.413 -0.8039 -1.0409 -0.7460
  135MOL0     O18098  10.334   6.398   0.365  0.6787  0.4275  0.2626
  135MOL0     C18099  10.424   6.364   0.473  0.3365 -0.1962  0.3736
  135MOL0     C18100  10.557   6.350   0.405 -0.4272  1.0185  0.6531
  135MOL0     C18101  10.557   6.252   0.284  0.1612 -0.4493 -0.3167
  135MOL0     C18102  10.689   6.210   0.229 -0.1145 -0.4885 -0.5968
  135MOL0     C18103  10.691   6.072   0.174  0.6563  0.9636  0.1982
  135MOL0     C18104  10.622   6.066   0.035 -0.6779 -0.7764  0.0059
  135MOL0     C18105  10.698   6.150  -0.068 -0.3839 -0.1214 -0.6323
  135MOL0     C18106  10.706   6.072  -0.197  0.7538  0.3773  0.0962
  135MOL0     N18107  10.787   6.136  -0.300 -1.0540 -0.0172 -0.3761
  135MOL0     C18108  10.924   6.145  -0.304  0.4114  0.3778  0.3064
  135MOL0     C18109  10.966   6.200  -0.424  0.1318 -0.6999 -0.3206
  135MOL0     C18110  11.110   6.238  -0.463 -0.7213  0.0432 -0.0189
  135MOL0     C18111  11.170   6.354  -0.379  0.0904 -0.1183  1.0364
  135MOL0     C18112  11.258   6.463  -0.434  0.6164 -0.1255  0.1090
  135MOL0     C18113  11.345   6.414  -0.556  0.6280 -0.2532 -1.2681
  135MOL0     O18114  11.425   6.303  -0.526 -0.0050  0.1870 -0.0680
  135MOL0     C18115  11.550   6.308  -0.466 -0.4617 -0.8616 -0.4200
  135MOL0     C18116  11.610   6.187  -0.443  0.3244  0.2776 -0.5667
  135MOL0     C18117  11.733   6.187  -0.387 -0.5587  0.9466 -0.8034
  135MOL0     C18118  11.775   6.042  -0.369  0.1165  0.3214  0.4578
  135MOL0     C18119  11.806   6.298  -0.369  0.3213 -0.2700 -0.8578
  135MOL0     C18120  11.949   6.302  -0.327  0.2208  0.3653  1.2533
  135MOL0     O18121  12.010   6.420  -0.282 -0.1815 -0.5141  0.0629
  135MOL0     C18122  12.153   6.426  -0.295  1.0442 -0.5916  0.6966
  135MOL0     C18123  12.230   6.377  -0.189  0.4931 -0.1980  0.7436
  135MOL0     C18124  12.369   6.386  -0.192 -0.6366 -0.3172  0.0254
  135MOL0     C18125  12.441   6.451  -0.292  0.6312 -0.7314 -0.7873
  135MOL0     O18126  12.579   6.448  -0.306  0.2429  0.0836 -0.3404
  135MOL0     C18127  12.662   6.433  -0.192 -0.1286  0.2575  0.6247
  135MOL0     C18128  12.807   6.465  -0.220  0.4220 -0.2268 -0.3746
  135MOL0     C18129  12.879   6.481  -0.083 -0.2541  0.1975 -0.1023
  135MOL0     C18130  12.900   6.342  -0.015  0.4334  0.1039  0.4401
  135MOL0     C18131  12.977   6.348   0.110 -0.1737  0.8147  0.0352
  135MOL0     C18132  12.891   6.408   0.223 -0.1482  1.0436  0.7232
  135MOL0     C18133  12.803   6.305   0.301 -0.2536 -0.3174 -0.7563
  135MOL0     C18134  12.733   6.373   0.421 -0.0441 -0.6702 -0.9739
  135MOL0    Cl18135  12.595   6.265   0.470 -0.2320 -0.4864 -0.5633
  135MOL0     C18136  12.362   6.490  -0.407 -0.5520 -0.3111 -0.0253
  135MOL0     C18137  12.220   6.483  -0.403  0.2144 -0.4956 -0.2483
  135MOL0     O18138  12.010   6.198  -0.333 -0.4552  0.4416 -0.0061
  135MOL0     C18139  11.739   6.418  -0.387  0.9230 -0.1489  0.7696
  135MOL0     C18140  11.613   6.430  -0.438  0.7185 -0.7194  0.2426
  135MOL0     N18141  10.846   6.241  -0.478 -0.2386 -0.4619  0.6444
  135MOL0     N18142  10.747   6.203  -0.408 -0.3986  0.4211  0.3012
  135MOL0     C18143  10.130   6.508   0.348  0.4469  0.3594  0.4520
  135MOL0     C18144   9.991   6.525   0.380  0.2479 -0.1228  0.4223
  135MOL0     C18145   9.655   6.630   0.667 -0.5106  0.6559 -0.3759
  135MOL0     C18146   9.621   6.755   0.729 -1.4248  0.1087  0.0337
  135MOL0     C18147   9.501   6.767   0.788  0.2563  0.5340 -0.0766
  135MOL0     C18148   9.408   6.661   0.800  0.3847 -0.3240  0.8982
  135MOL0     O18149   9.292   6.693   0.866  0.1609  0.5177  0.0855
  135MOL0     C18150   9.239   6.592   0.956  0.1723  0.4042  0.5992
  135MOL0     C18151   9.113   6.636   1.032 -0.2073 -0.3757  0.5297
  135MOL0     C18152   9.127   6.771   1.102  0.4677 -0.4693  0.3252
  135MOL0     C18153   9.243   6.799   1.197  0.2343 -0.1001 -1.0404
  135MOL0     C18154   9.242   6.717   1.321 -0.8637  0.2895 -0.3352
  135MOL0     C18155   9.250   6.652   1.419 -1.1940 -0.4780  0.2665
  135MOL0     C18156   9.437   6.541   0.745  0.6106 -0.1107  0.1205
  135MOL0     C18157   9.565   6.522   0.688  0.1300  0.5414 -0.5365
  135MOL0     H18158   9.957   6.321   0.638 -0.8976  0.8387 -0.2111
  135MOL0     H18159  10.191   6.257   0.569  1.2111  1.8612  3.8208
  135MOL0     H18160  10.432   6.449   0.542  0.1094 -1.9485  2.6630
  135MOL0     H18161  10.395   6.276   0.530 -1.9661  1.0173  1.2150
  135MOL0     H18162  10.596   6.446   0.370  0.0171  0.6262  0.0481
  135MOL0     H18163  10.631   6.316   0.478  0.0408 -0.2676 -0.3654
  135MOL0     H18164  10.509   6.161   0.320 -0.1908 -0.1635 -0.0653
  135MOL0     H18165  10.495   6.285   0.200  2.7643  0.7164 -1.9157
  135MOL0     H18166  10.722   6.286   0.157  0.4630 -1.8022 -1.7589
  135MOL0     H18167  10.762   6.217   0.309  2.0210 -0.3790 -2.4526
  135MOL0     H18168  10.796   6.040   0.170  0.2179 -0.4449 -0.8532
  135MOL0     H18169  10.642   6.003   0.244 -0.7255 -0.4307 -2.0029
  135MOL0     H18170  10.620   5.959   0.014 -0.4003 -0.4158 -2.0125
  135MOL0     H18171  10.519   6.102   0.040 -0.8151 -1.2583  0.8056
  135MOL0     H18172  10.652   6.249  -0.072  0.3073  0.4320  2.6019
  135MOL0     H18173  10.802   6.161  -0.035 -0.7502  1.4737  0.0380
  135MOL0     H18174  10.609   6.073  -0.247  0.6462  1.2397  0.3219
  135MOL0     H18175  10.741   5.968  -0.191 -0.3436 -0.0695 -0.9020
  135MOL0     H18176  10.985   6.111  -0.221 -2.6750 -2.4933  1.6569
  135MOL0     H18177  11.176   6.152  -0.452 -1.2616 -0.2313  1.3121
  135MOL0     H18178  11.103   6.273  -0.566 -0.6811  0.6641  0.1862
  135MOL0     H18179  11.227   6.304  -0.300  1.6239  1.5258  1.0160
  135MOL0     H18180  11.090   6.410  -0.329 -0.9036  0.7301 -1.3385
  135MOL0     H18181  11.321   6.485  -0.347 -2.1736 -0.3718  2.3513
  135MOL0     H18182  11.201   6.553  -0.461  1.2902 -0.2965 -1.9811
  135MOL0     H18183  11.405   6.495  -0.597  1.4221  0.4158  1.0551
  135MOL0     H18184  11.283   6.380  -0.639 -1.4421  0.9088 -0.2864
  135MOL0     H18185  11.552   6.100  -0.470  1.2699 -0.0530 -1.6124
  135MOL0     H18186  11.852   6.011  -0.441  1.4367 -0.8287  2.2576
  135MOL0     H18187  11.797   6.036  -0.262 -1.5210  2.4649  0.9756
  135MOL0     H18188  11.694   5.971  -0.388  1.6463 -1.7054  1.1484
  135MOL0     H18189  12.175   6.337  -0.104 -1.5962  0.7996 -0.0864
  135MOL0     H18190  12.435   6.347  -0.115  1.4996  0.5812 -1.2705
  135MOL0     H18191  12.620   6.495  -0.112 -0.4688  1.7307 -0.6356
  135MOL0     H18192  12.646   6.329  -0.162  1.0002 -0.1966 -0.2919
  135MOL0     H18193  12.838   6.382  -0.285  0.1536 -0.8772  0.3128
  135MOL0     H18194  12.821   6.560  -0.272 -0.2659  1.4320  2.3061
  135MOL0     H18195  12.824   6.538  -0.007  0.0418 -1.6580  1.5989
  135MOL0     H18196  12.978   6.525  -0.102 -0.3420  0.3417 -0.2185
  135MOL0     H18197  12.812   6.283   0.011  0.9947 -1.4385 -0.9745
  135MOL0     H18198  12.959   6.294  -0.094  1.2310  2.5154 -0.5277
  135MOL0     H18199  13.070   6.405   0.100  0.2996 -0.2559 -2.2940
  135MOL0     H18200  13.003   6.248   0.144 -2.4269  1.4294  4.3385
  135MOL0     H18201  12.964   6.453   0.291  1.0893 -1.8076  1.4075
  135MOL0     H18202  12.818   6.481   0.187  1.7980  2.5236 -0.4406
  135MOL0     H18203  12.867   6.225   0.337  0.8762  0.7724 -0.2588
  135MOL0     H18204  12.720   6.259   0.245 -0.0765  1.7231 -2.8780
  135MOL0     H18205  12.691   6.472   0.399 -1.4624 -1.5913 -2.6496
  135MOL0     H18206  12.796   6.378   0.510 -3.2071 -1.8546  1.5506
  135MOL0     H18207  12.413   6.538  -0.491 -3.5434 -0.0902 -1.8502
  135MOL0     H18208  12.160   6.532  -0.479  1.9381  3.5452  0.7302
  135MOL0     H18209  11.780   6.514  -0.359 -1.5980  1.5508 -0.9612
  135MOL0     H18210  11.568   6.529  -0.436  0.4894 -0.7980  3.4423
  135MOL0     H18211  10.184   6.568   0.275  0.5049 -1.1835 -0.8524
  135MOL0     H18212   9.948   6.598   0.312  2.1348 -0.4555 -1.2339
  135MOL0     H18213   9.695   6.834   0.722 -0.8249 -0.4135  0.3818
  135MOL0     H18214   9.480   6.866   0.826 -0.7328 -0.2486  1.5445
  135MOL0     H18215   9.218   6.500   0.900 -1.1309 -1.2033  3.5129
  135MOL0     H18216   9.319   6.566   1.026 -0.8817 -0.1647  1.6305
  135MOL0     H18217   9.102   6.556   1.107 -2.4034 -1.4235 -0.8159
  135MOL0     H18218   9.024   6.636   0.970  0.6664 -3.2465 -0.8676
  135MOL0     H18219   9.036   6.798   1.155 -0.6966 -1.9004 -0.8733
  135MOL0     H18220   9.125   6.842   1.018  4.2943  0.4499  0.8075
  135MOL0     H18221   9.222   6.900   1.236 -5.1334 -1.3656  0.1303
  135MOL0     H18222   9.343   6.793   1.153  1.1130  0.5375  0.7510
  135MOL0     H18223   9.248   6.594   1.509  6.3838 -1.2680  0.5876
  135MOL0     H18224   9.361   6.463   0.750 -1.3878  1.8444  2.7992
  135MOL0     H18225   9.592   6.424   0.651  1.8515  0.3439  1.0915
  136MOL0     O18226   3.046   8.816   2.798  0.0035 -0.2351  0.5952
  136MOL0     C18227   3.137   8.885   2.751  1.3143 -0.1352 -0.0282
  136MOL0     O18228   3.127   9.020   2.727 -0.4766 -0.7043  0.5392
  136MOL0     C18229   3.026   9.108   2.747  0.1876  0.1329  0.4432
  136MOL0     C18230   3.055   9.241   2.709 -1.2027  0.2142  0.7827
  136MOL0     C18231   2.952   9.331   2.715  0.0833  1.0113 -0.9109
  136MOL0     C18232   2.825   9.299   2.771  0.4430  0.5160 -0.4446
  136MOL0     O18233   2.715   9.382   2.783  0.1962  0.6900 -0.3352
  136MOL0     C18234   2.733   9.510   2.733 -0.6198 -0.4782 -0.5986
  136MOL0     C18235   2.603   9.582   2.764  0.8583  0.2688 -0.0156
  136MOL0     C18236   2.609   9.725   2.725 -0.9315  0.0497  0.0169
  136MOL0     C18237   2.585   9.755   2.567 -0.0489  0.0899 -1.0657
  136MOL0     C18238   2.666   9.879   2.525 -0.4525 -0.2973  0.0416
  136MOL0     C18239   2.663   9.994   2.627 -0.0521 -0.7540 -0.0779
  136MOL0     C18240   2.518  10.047   2.657  0.1034  0.0357 -0.2438
  136MOL0     C18241   2.434  10.124   2.545 -0.8187  0.4733  0.0095
  136MOL0     N18242   2.503  10.242   2.496  0.2138 -0.3046 -0.1851
  136MOL0     C18243   2.602  10.232   2.400 -0.3688 -0.0185  0.6739
  136MOL0     C18244   2.646  10.365   2.395 -0.1330  0.9981 -0.0899
  136MOL0     C18245   2.756  10.418   2.307  0.4898 -0.2721  0.2598
  136MOL0     C18246   2.693  10.545   2.242 -0.7057  0.4493  0.0691
  136MOL0     C18247   2.797  10.620   2.165 -0.2935 -0.2637 -0.2561
  136MOL0     C18248   2.756  10.695   2.043 -0.2262 -0.1400  0.1224
  136MOL0     O18249   2.698  10.600   1.941 -0.7437 -0.4522  0.2567
  136MOL0     C18250   2.655  10.658   1.816 -1.7503 -0.0735 -0.4245
  136MOL0     C18251   2.563  10.588   1.743  0.8027  0.7320  0.1580
  136MOL0     C18252   2.508  10.655   1.638  0.6967  0.2896  1.0381
  136MOL0     C18253   2.403  10.566   1.570  0.6013 -0.0425 -0.6292
  136MOL0     C18254   2.535  10.791   1.601 -0.5963 -0.3537  0.0753
  136MOL0     C18255   2.464  10.864   1.490 -0.1181  0.5236  0.0206
  136MOL0     O18256   2.520  10.982   1.451  0.0234  0.3357  0.8222
  136MOL0     C18257   2.439  11.053   1.360  0.2151 -0.2075 -1.7238
  136MOL0     C18258   2.354  11.157   1.404 -0.1994  0.1595 -0.8061
  136MOL0     C18259   2.282  11.223   1.305 -0.9687 -0.5214  0.6885
  136MOL0     C18260   2.294  11.195   1.167 -0.8065  0.5835  0.0916
  136MOL0     O18261   2.234  11.278   1.086 -0.0193 -0.4267  0.1053
  136MOL0     C18262   2.197  11.252   0.952 -0.0240 -0.2988  0.3591
  136MOL0     C18263   2.094  11.149   0.930  0.6479 -0.1205  0.5381
  136MOL0     C18264   2.014  11.180   0.799 -0.5393  0.2244  0.7541
  136MOL0     C18265   1.909  11.076   0.782  1.7407  0.2083  0.1744
  136MOL0     C18266   1.791  11.115   0.689  0.2917  0.3246  0.7571
  136MOL0     C18267   1.811  11.066   0.549  0.0291  1.2579  0.0246
  136MOL0     C18268   1.686  11.096   0.460  0.6056 -0.2451  0.5789
  136MOL0     C18269   1.708  11.033   0.320  0.0439 -0.5022 -0.2698
  136MOL0    Cl18270   1.581  11.093   0.210 -0.4354  0.4987  0.1050
  136MOL0     C18271   2.369  11.079   1.127  0.5731  0.0752 -0.5293
  136MOL0     C18272   2.442  11.009   1.230 -0.3683 -0.0516  0.2873
  136MOL0     O18273   2.354  10.822   1.457  0.0144  0.2468 -0.1819
  136MOL0     C18274   2.638  10.856   1.675  0.0998  0.0076  1.1626
  136MOL0     C18275   2.701  10.784   1.778 -0.4370 -0.8564  0.1218
  136MOL0     N18276   2.568  10.439   2.485 -0.0326 -0.5681  0.7058
  136MOL0     N18277   2.481  10.367   2.545 -0.0933 -0.6791 -0.5907
  136MOL0     C18278   2.805   9.166   2.806  0.2859 -0.2801 -0.2070
  136MOL0     C18279   2.903   9.072   2.791  0.1540 -0.1846  0.3361
  136MOL0     C18280   3.273   8.834   2.724 -0.2546 -0.1685 -0.7319
  136MOL0     C18281   3.313   8.721   2.780 -0.1559  0.2279  0.1834
  136MOL0     C18282   3.445   8.667   2.767  0.0862  0.6796 -0.8399
  136MOL0     C18283   3.539   8.741   2.691 -0.0652  0.3706  0.1354
  136MOL0     O18284   3.667   8.689   2.677  0.2767 -1.0006  0.7133
  136MOL0     C18285   3.758   8.768   2.601  1.2151  0.8059  0.4677
  136MOL0     C18286   3.891   8.679   2.580 -0.4336 -0.2317  0.0999
  136MOL0     C18287   3.964   8.691   2.710 -0.1328  0.5828 -0.8007
  136MOL0     C18288   4.084   8.777   2.694 -0.8259 -0.1871  0.0882
  136MOL0     C18289   4.074   8.922   2.669 -0.7391 -0.3736  0.9713
  136MOL0     C18290   4.050   9.038   2.657  0.1902  0.0905  0.3530
  136MOL0     C18291   3.496   8.863   2.629 -0.1928  0.2446 -0.9804
  136MOL0     C18292   3.362   8.910   2.649 -0.4348  0.1242 -0.2074
  136MOL0     H18293   3.158   9.267   2.687 -1.5794  0.8279 -0.3470
  136MOL0     H18294   2.981   9.434   2.696  0.7862  1.6228  2.7250
  136MOL0     H18295   2.816   9.561   2.782  0.1919 -2.0860 -0.2397
  136MOL0     H18296   2.766   9.493   2.630  0.6688 -1.4684 -0.0479
  136MOL0     H18297   2.517   9.533   2.717  1.5233  0.6620 -1.7508
  136MOL0     H18298   2.584   9.571   2.871 -1.5477  2.0374 -0.1931
  136MOL0     H18299   2.530   9.776   2.780 -0.4669 -0.4018  1.1317
  136MOL0     H18300   2.705   9.761   2.764 -1.8652  1.6539  0.9184
  136MOL0     H18301   2.615   9.672   2.502 -3.7375 -1.4981 -1.0410
  136MOL0     H18302   2.481   9.781   2.547 -0.3349 -0.9425 -1.0181
  136MOL0     H18303   2.770   9.850   2.511  0.1360  1.4111  0.5308
  136MOL0     H18304   2.628   9.912   2.428  2.2773  1.4164 -0.5610
  136MOL0     H18305   2.720   9.989   2.720  0.7175  1.6331 -0.3503
  136MOL0     H18306   2.714  10.081   2.582 -0.7509 -0.3559 -0.1200
  136MOL0     H18307   2.460   9.960   2.688  0.9407 -0.4176  0.0673
  136MOL0     H18308   2.524  10.114   2.744  2.4613 -0.6042  0.1450
  136MOL0     H18309   2.336  10.158   2.580 -1.4456  1.8572 -2.7850
  136MOL0     H18310   2.411  10.055   2.463 -1.6754  0.2061  0.4559
  136MOL0     H18311   2.627  10.155   2.327 -0.2818  0.7809 -0.1650
  136MOL0     H18312   2.848  10.438   2.363  0.2736 -1.9591  1.2857
  136MOL0     H18313   2.775  10.341   2.232 -1.6187 -0.1472 -0.4597
  136MOL0     H18314   2.659  10.608   2.325 -1.8443 -1.3173  1.0054
  136MOL0     H18315   2.606  10.523   2.181  1.0300 -0.0853 -2.3346
  136MOL0     H18316   2.874  10.553   2.125  0.4577  1.6407 -2.1565
  136MOL0     H18317   2.854  10.689   2.228 -0.0731  2.3841 -3.1657
  136MOL0     H18318   2.851  10.744   2.023 -0.8464  1.5936  1.2620
  136MOL0     H18319   2.682  10.773   2.063 -1.8447 -2.2383  3.1650
  136MOL0     H18320   2.536  10.491   1.784  3.7464  0.0687  0.7936
  136MOL0     H18321   2.309  10.613   1.602  2.0244  3.1394 -0.7388
  136MOL0     H18322   2.400  10.568   1.460 -0.3422  0.0174 -0.6131
  136MOL0     H18323   2.416  10.461   1.594  3.1387  0.2505 -0.4645
  136MOL0     H18324   2.335  11.180   1.508 -1.9771 -0.2091 -1.0103
  136MOL0     H18325   2.226  11.311   1.336  1.6905  0.9955  1.4597
  136MOL0     H18326   2.161  11.347   0.914 -0.8047  0.3401  2.5555
  136MOL0     H18327   2.286  11.219   0.896 -1.3579 -0.5121 -1.7539
  136MOL0     H18328   2.139  11.049   0.926 -1.3885 -1.1618  2.0617
  136MOL0     H18329   2.019  11.132   1.008 -2.7210 -2.3207 -2.8525
  136MOL0     H18330   2.086  11.172   0.717 -0.8772  0.5041  0.4276
  136MOL0     H18331   1.973  11.281   0.814  0.2822  0.7217 -0.2038
  136MOL0     H18332   1.960  10.982   0.760  3.0375  0.6589  1.1258
  136MOL0     H18333   1.853  11.069   0.875  1.7499  0.3331  0.1898
  136MOL0     H18334   1.790  11.224   0.694  0.0004  0.3283  0.6810
  136MOL0     H18335   1.696  11.078   0.730 -0.8804  2.2099 -0.1072
  136MOL0     H18336   1.886  11.127   0.497 -0.8478 -0.1362 -3.1729
  136MOL0     H18337   1.831  10.958   0.551  1.0965  1.4182 -0.7316
  136MOL0     H18338   1.675  11.205   0.458 -0.2954 -0.3248  0.9504
  136MOL0     H18339   1.597  11.048   0.500  1.2980 -2.1944 -0.1320
  136MOL0     H18340   1.718  10.925   0.332 -0.5101 -0.6595 -1.0823
  136MOL0     H18341   1.799  11.068   0.270  1.7784 -0.9854  2.3900
  136MOL0     H18342   2.376  11.041   1.025 -1.9786 -0.5574 -0.5431
  136MOL0     H18343   2.505  10.926   1.198 -0.6441  0.1590 -0.8499
  136MOL0     H18344   2.678  10.953   1.650  2.6128 -0.9236  1.2675
  136MOL0     H18345   2.777  10.840   1.832  0.2059  0.8660 -2.3919
  136MOL0     H18346   2.707   9.129   2.834  0.9580 -1.5001  0.6424
  136MOL0     H18347   2.868   8.973   2.818 -2.1628  0.6751  0.6642
  136MOL0     H18348   3.251   8.648   2.830  1.2465 -1.8534 -0.9949
  136MOL0     H18349   3.480   8.569   2.799 -0.7803  1.1947  2.0637
  136MOL0     H18350   3.725   8.794   2.500 -0.1137 -0.2729  0.5901
  136MOL0     H18351   3.791   8.854   2.659  1.4110  0.2294  1.2340
  136MOL0     H18352   3.952   8.705   2.493  0.1949 -1.2062  0.2358
  136MOL0     H18353   3.850   8.578   2.575 -1.9412  0.0771  3.5931
  136MOL0     H18354   3.982   8.587   2.739 -1.8411  0.0602 -1.4710
  136MOL0     H18355   3.904   8.741   2.787  1.5354  0.9140  0.3389
  136MOL0     H18356   4.141   8.744   2.607 -1.7550  1.0166 -0.9983
  136MOL0     H18357   4.144   8.757   2.784  0.9934  1.9870 -0.5544
  136MOL0     H18358   4.017   9.137   2.636  1.8900 -0.0681 -3.9500
  136MOL0     H18359   3.563   8.925   2.570 -1.2656  3.2926  0.7370
  136MOL0     H18360   3.344   9.009   2.606  1.5463 -0.1429 -1.8368
  137MOL0     O18361   6.640  11.057   6.988 -0.4424  0.0605  0.7065
  137MOL0     C18362   6.586  10.974   6.912 -0.6704 -0.0354  0.0593
  137MOL0     O18363   6.473  10.904   6.943 -0.4098 -0.0675  1.0311
  137MOL0     C18364   6.399  10.928   7.060 -0.0040  0.8935  0.2976
  137MOL0     C18365   6.266  10.911   7.041 -0.1267 -1.2407  1.8005
  137MOL0     C18366   6.179  10.921   7.141  0.3369  0.1849 -0.3541
  137MOL0     C18367   6.234  10.940   7.274  0.6725  0.5091 -0.5319
  137MOL0     O18368   6.132  10.949   7.372 -0.5386 -0.1959  0.2363
  137MOL0     C18369   6.158  10.941   7.511 -0.0171 -0.6854  0.6614
  137MOL0     C18370   6.103  10.807   7.568 -0.5640 -0.0748 -0.6859
  137MOL0     C18371   5.947  10.798   7.557 -0.2032  0.0927 -0.5786
  137MOL0     C18372   5.880  10.897   7.648  0.8576  0.1765  0.1965
  137MOL0     C18373   5.727  10.868   7.654 -0.8884 -0.3092 -0.0852
  137MOL0     C18374   5.652  10.873   7.520  0.4351 -0.2934  0.4288
  137MOL0     C18375   5.671  11.010   7.456  0.1838 -0.0430  0.0254
  137MOL0     C18376   5.580  11.034   7.329 -1.3829  0.5234 -0.4334
  137MOL0     N18377   5.597  11.166   7.271  0.5403  0.1100  0.5641
  137MOL0     C18378   5.700  11.200   7.185 -1.1464 -0.7063  0.2733
  137MOL0     C18379   5.678  11.327   7.148  0.4567 -0.4735  0.8680
  137MOL0     C18380   5.751  11.428   7.059 -0.2592  0.9682 -0.5214
  137MOL0     C18381   5.815  11.538   7.143  0.0877 -0.6139 -0.3744
  137MOL0     C18382   5.837  11.675   7.077 -1.0946  0.7067  0.9058
  137MOL0     C18383   5.917  11.777   7.168  0.5909 -0.5492  0.7605
  137MOL0     O18384   6.040  11.722   7.201 -0.6735 -1.0671  0.0032
  137MOL0     C18385   6.135  11.796   7.264 -0.6599 -0.4998 -0.5035
  137MOL0     C18386   6.257  11.736   7.284  0.7173 -0.0039  0.5684
  137MOL0     C18387   6.373  11.809   7.323 -0.1370  0.1766  0.2170
  137MOL0     C18388   6.498  11.739   7.340  0.5627  0.1477  1.0563
  137MOL0     C18389   6.348  11.945   7.352  0.2056  0.7562 -1.1569
  137MOL0     C18390   6.453  12.047   7.366  0.1784 -0.3087  0.2427
  137MOL0     O18391   6.576  12.013   7.318 -0.5541  0.0064 -0.0658
  137MOL0     C18392   6.698  12.077   7.350  0.0199  0.3365 -0.4162
  137MOL0     C18393   6.776  12.033   7.448 -0.4938  0.5884  0.6275
  137MOL0     C18394   6.898  12.092   7.475  0.3075 -0.3325 -0.4786
  137MOL0     C18395   6.939  12.198   7.404 -0.4535 -0.6423  0.3180
  137MOL0     O18396   7.067  12.237   7.428  0.3680  0.3442 -0.0836
  137MOL0     C18397   7.138  12.314   7.330 -0.4054  0.7676  0.3112
  137MOL0     C18398   7.291  12.297   7.341 -1.1734 -0.5117 -0.0964
  137MOL0     C18399   7.357  12.389   7.241 -0.1320  0.8801  0.2591
  137MOL0     C18400   7.502  12.342   7.215  0.2457 -0.1734 -0.0335
  137MOL0     C18401   7.598  12.329   7.332  0.3591  0.2980 -0.1051
  137MOL0     C18402   7.624  12.457   7.414  1.0089  0.8559  0.3852
  137MOL0     C18403   7.658  12.592   7.346 -0.0617 -0.3237 -0.0142
  137MOL0     C18404   7.776  12.572   7.247 -0.8610 -1.1905  0.1239
  137MOL0    Cl18405   7.827  12.713   7.142  0.6129 -0.0584 -0.2408
  137MOL0     C18406   6.853  12.264   7.312 -0.3167 -0.0696 -0.6005
  137MOL0     C18407   6.731  12.198   7.288 -0.2048  0.5944  0.3986
  137MOL0     O18408   6.432  12.147   7.427 -0.1212  0.1807  0.3500
  137MOL0     C18409   6.221  12.000   7.347  0.9877 -1.5334  0.0517
  137MOL0     C18410   6.110  11.923   7.302  0.3188  0.2806 -0.4701
  137MOL0     N18411   5.550  11.361   7.194  0.5065  1.0167 -1.0718
  137MOL0     N18412   5.505  11.264   7.273 -0.1031  1.0695 -1.2139
  137MOL0     C18413   6.368  10.951   7.291  0.4141  0.4518 -0.6558
  137MOL0     C18414   6.448  10.949   7.182 -0.4907 -0.1563 -0.7279
  137MOL0     C18415   6.651  10.940   6.782  0.4474  0.2090  0.5176
  137MOL0     C18416   6.772  11.005   6.742 -0.2166  0.4515 -0.7465
  137MOL0     C18417   6.843  10.962   6.629  0.3658  0.3818  0.4015
  137MOL0     C18418   6.792  10.863   6.546 -0.3511  0.0365 -0.2995
  137MOL0     O18419   6.854  10.824   6.433 -0.3027 -0.5452  0.5728
  137MOL0     C18420   6.986  10.874   6.410 -0.7647  0.6084  0.1155
  137MOL0     C18421   7.071  10.786   6.314  0.2933 -0.4060 -0.0143
  137MOL0     C18422   6.994  10.773   6.182  0.6106  0.2390 -0.8087
  137MOL0     C18423   7.098  10.726   6.071 -0.0970  0.1361 -0.4958
  137MOL0     C18424   7.021  10.669   5.958 -0.4615  1.0013 -0.7837
  137MOL0     C18425   6.964  10.640   5.856 -0.0464 -0.5359  0.5263
  137MOL0     C18426   6.671  10.803   6.579  0.2383 -0.0448 -0.2755
  137MOL0     C18427   6.609  10.836   6.705 -0.1542  0.6974 -0.2203
  137MOL0     H18428   6.228  10.910   6.939  1.1614  3.3760  1.0536
  137MOL0     H18429   6.072  10.923   7.126  0.0809  0.7096  1.3322
  137MOL0     H18430   6.266  10.944   7.530  0.1359  0.4901 -0.2973
  137MOL0     H18431   6.105  11.028   7.551 -1.1550 -0.5382 -1.0638
  137MOL0     H18432   6.145  10.721   7.515 -1.5815 -1.6930  1.0109
  137MOL0     H18433   6.143  10.796   7.670 -0.2733  2.2445 -0.4929
  137MOL0     H18434   5.924  10.815   7.452 -3.2447 -1.9699 -0.3933
  137MOL0     H18435   5.908  10.697   7.574  1.0404 -0.1506  1.1095
  137MOL0     H18436   5.918  10.879   7.748 -0.0375 -2.0209  0.1924
  137MOL0     H18437   5.900  11.000   7.617 -2.5232  0.4529 -1.6134
  137MOL0     H18438   5.704  10.777   7.710 -2.2378 -0.0580 -0.1970
  137MOL0     H18439   5.678  10.943   7.718 -0.9471 -0.7949  0.4434
  137MOL0     H18440   5.678  10.797   7.446  1.2124  0.2482  0.1298
  137MOL0     H18441   5.550  10.852   7.554  0.9649 -2.9769  0.5439
  137MOL0     H18442   5.644  11.088   7.526 -1.6507 -1.3753  0.8785
  137MOL0     H18443   5.773  11.026   7.420 -0.5297  1.1511 -1.6035
  137MOL0     H18444   5.474  11.020   7.356 -1.9375 -0.0809 -2.7579
  137MOL0     H18445   5.598  10.965   7.247  3.9704  0.5731  0.3272
  137MOL0     H18446   5.783  11.139   7.151 -2.4182 -1.8059 -1.0258
  137MOL0     H18447   5.818  11.369   6.996 -1.7805  0.3539 -1.6014
  137MOL0     H18448   5.666  11.479   7.013  1.3895  2.7058 -1.8058
  137MOL0     H18449   5.909  11.503   7.187 -0.0511 -0.8384 -0.2581
  137MOL0     H18450   5.743  11.543   7.225 -0.0415 -1.5829 -0.4174
  137MOL0     H18451   5.735  11.711   7.064 -0.8352  1.0724 -0.2402
  137MOL0     H18452   5.892  11.666   6.982 -1.4418  0.2876  0.7424
  137MOL0     H18453   5.855  11.789   7.258 -2.5538 -1.9233 -1.0391
  137MOL0     H18454   5.916  11.871   7.112 -2.7378 -1.3203 -0.7658
  137MOL0     H18455   6.265  11.631   7.257 -0.5613  0.4467 -1.7435
  137MOL0     H18456   6.493  11.630   7.339 -1.0819  0.1527 -1.4900
  137MOL0     H18457   6.553  11.766   7.250 -1.9224 -1.4148 -1.0754
  137MOL0     H18458   6.556  11.778   7.424  2.3971 -0.1396 -0.0199
  137MOL0     H18459   6.737  11.944   7.496 -1.3024  1.0486  0.8424
  137MOL0     H18460   6.976  12.063   7.545  1.3780 -2.1185 -2.3260
  137MOL0     H18461   7.110  12.298   7.225  4.7197  0.5502 -1.2920
  137MOL0     H18462   7.116  12.421   7.336  2.3823  1.6235 -2.2291
  137MOL0     H18463   7.324  12.315   7.444  0.5286 -2.3512 -0.2687
  137MOL0     H18464   7.322  12.197   7.309  1.0341  0.9720 -3.1780
  137MOL0     H18465   7.359  12.492   7.277 -2.1586  1.2025 -0.4103
  137MOL0     H18466   7.298  12.391   7.148 -0.5075 -1.7301  0.3792
  137MOL0     H18467   7.502  12.246   7.162  1.0481 -0.5395  0.6149
  137MOL0     H18468   7.548  12.410   7.143 -1.5070  0.5938 -0.4948
  137MOL0     H18469   7.694  12.295   7.292 -0.4791  0.1708 -2.1122
  137MOL0     H18470   7.559  12.252   7.400  2.6201  0.3383  1.3386
  137MOL0     H18471   7.539  12.481   7.479  1.1962 -0.0296  0.9755
  137MOL0     H18472   7.706  12.438   7.484  0.5732 -3.5840 -0.0348
  137MOL0     H18473   7.692  12.657   7.427 -1.7039 -1.3664  1.5949
  137MOL0     H18474   7.563  12.629   7.309 -1.0876 -4.4671 -2.1193
  137MOL0     H18475   7.742  12.498   7.174  0.5350 -0.4503 -1.3554
  137MOL0     H18476   7.862  12.532   7.302  0.9420  1.4576 -0.5215
  137MOL0     H18477   6.875  12.362   7.272 -0.0361  1.0372  2.0542
  137MOL0     H18478   6.658  12.243   7.221 -2.0795  1.6926  2.9936
  137MOL0     H18479   6.201  12.107   7.353 -3.0452 -2.1222  0.1620
  137MOL0     H18480   6.011  11.967   7.293  0.9308  1.3497 -3.0897
  137MOL0     H18481   6.415  10.970   7.387  1.5292  1.8982 -1.4477
  137MOL0     H18482   6.555  10.954   7.203 -0.2218  0.5979 -2.1586
  137MOL0     H18483   6.810  11.088   6.802 -1.1584  2.0633 -2.2870
  137MOL0     H18484   6.935  11.013   6.602  0.1285  1.1717  1.0455
  137MOL0     H18485   6.976  10.977   6.375  2.7030  1.6639  1.7385
  137MOL0     H18486   7.045  10.892   6.501 -0.6689 -0.3773  0.2545
  137MOL0     H18487   7.091  10.685   6.352 -0.2104 -0.6597 -0.4180
  137MOL0     H18488   7.164  10.838   6.287 -1.6875  2.1605 -2.4194
  137MOL0     H18489   6.958  10.872   6.152 -3.2204 -0.2584  1.4132
  137MOL0     H18490   6.908  10.705   6.188  0.7388  0.0958 -0.5463
  137MOL0     H18491   7.182  10.662   6.101 -0.7318  0.2252  1.6359
  137MOL0     H18492   7.137  10.819   6.030  0.6555  0.0267 -0.0591
  137MOL0     H18493   6.908  10.639   5.765 -2.5587  3.1014  1.8249
  137MOL0     H18494   6.626  10.741   6.502 -0.5992  0.6374 -0.3461
  137MOL0     H18495   6.532  10.772   6.748 -3.0522  2.4419 -2.4196
  138MOL0     O18496   3.487   1.093   1.770  0.2802  0.8154  0.2389
  138MOL0     C18497   3.420   0.989   1.735 -0.3879 -0.3698  0.2645
  138MOL0     O18498   3.304   0.988   1.654 -0.1185 -0.4163  0.0072
  138MOL0     C18499   3.260   1.107   1.616  0.0040  0.0743  0.7037
  138MOL0     C18500   3.305   1.166   1.489 -0.5480 -0.7660 -0.3366
  138MOL0     C18501   3.254   1.292   1.453 -0.2525  0.4990  0.8912
  138MOL0     C18502   3.173   1.360   1.541  0.1762 -0.6125 -0.4709
  138MOL0     O18503   3.122   1.482   1.505 -0.4297  0.3043 -0.0307
  138MOL0     C18504   3.215   1.567   1.435 -0.0292 -0.3197 -0.1146
  138MOL0     C18505   3.191   1.720   1.458  0.0070  0.0388  0.7097
  138MOL0     C18506   3.238   1.743   1.609 -0.0198  0.1180  0.2094
  138MOL0     C18507   3.122   1.725   1.717  0.4056 -0.0453 -0.4800
  138MOL0     C18508   3.181   1.719   1.853 -0.6434  0.3984  0.5565
  138MOL0     C18509   3.078   1.689   1.961  0.0698  0.3645 -1.0064
  138MOL0     C18510   3.132   1.662   2.098  0.9167  0.9053  0.3759
  138MOL0     C18511   3.168   1.517   2.125 -0.4141 -0.3195 -0.1404
  138MOL0     N18512   3.079   1.411   2.088  0.0150 -0.0907 -0.7480
  138MOL0     C18513   2.980   1.358   2.160  0.6068  0.1865  0.0128
  138MOL0     C18514   2.931   1.257   2.078 -0.3350  0.0621 -1.0749
  138MOL0     C18515   2.831   1.156   2.128  0.3673 -0.0820  0.2113
  138MOL0     C18516   2.903   1.030   2.167  0.4082 -0.5657 -0.2166
  138MOL0     C18517   2.811   0.909   2.217  0.9123 -0.1979  0.4954
  138MOL0     C18518   2.703   0.934   2.323 -0.1742  1.3323  0.1567
  138MOL0     O18519   2.748   0.970   2.455 -0.4736  0.2548  0.0258
  138MOL0     C18520   2.683   0.928   2.565  0.3241 -0.2460  0.1216
  138MOL0     C18521   2.777   0.893   2.666 -0.2613  0.8521  0.2700
  138MOL0     C18522   2.728   0.830   2.784 -0.9261  0.7521 -0.1568
  138MOL0     C18523   2.826   0.778   2.889 -0.0173  0.2296  0.3642
  138MOL0     C18524   2.588   0.799   2.797 -0.4104 -0.1244 -0.1700
  138MOL0     C18525   2.534   0.749   2.915  0.2082 -0.6264 -0.6681
  138MOL0     O18526   2.447   0.830   2.985  0.3097 -0.3051  0.6970
  138MOL0     C18527   2.437   0.810   3.123 -0.6018  0.6906  0.5526
  138MOL0     C18528   2.543   0.858   3.201 -1.0561 -0.3983 -0.3836
  138MOL0     C18529   2.536   0.863   3.342  0.8270  0.0054 -0.6097
  138MOL0     C18530   2.416   0.811   3.399 -0.0103  0.0556 -0.4771
  138MOL0     O18531   2.396   0.844   3.535 -0.1929 -0.4549 -0.5094
  138MOL0     C18532   2.267   0.816   3.595 -0.6535  0.2917  0.2432
  138MOL0     C18533   2.287   0.855   3.741 -0.2820  0.0832 -1.3149
  138MOL0     C18534   2.166   0.838   3.842 -0.6845 -0.0617  0.8630
  138MOL0     C18535   2.169   0.934   3.965 -0.4076 -0.2826 -0.1987
  138MOL0     C18536   2.019   0.976   3.995 -0.8875  0.4630 -0.0955
  138MOL0     C18537   2.020   1.072   4.114 -0.5885  0.2482 -1.0435
  138MOL0     C18538   2.043   1.010   4.253  0.7517 -0.0067  0.1829
  138MOL0     C18539   2.011   1.104   4.370 -0.2216  0.6474  0.3512
  138MOL0    Cl18540   1.828   1.126   4.390  0.1397 -0.6147  0.0372
  138MOL0     C18541   2.315   0.758   3.321 -0.4366 -0.2992  0.5812
  138MOL0     C18542   2.322   0.756   3.178 -0.8276 -0.0001 -0.3959
  138MOL0     O18543   2.583   0.645   2.962  0.4861  0.6176  0.1397
  138MOL0     C18544   2.503   0.829   2.691  0.3082 -1.2629 -0.8375
  138MOL0     C18545   2.549   0.897   2.579  0.5665 -0.5280  0.1191
  138MOL0     N18546   3.005   1.249   1.969  0.0995 -0.6249  0.0470
  138MOL0     N18547   3.091   1.349   1.974  0.3627 -1.2433  0.1060
  138MOL0     C18548   3.128   1.304   1.660 -0.0791 -0.0970 -0.1227
  138MOL0     C18549   3.171   1.175   1.696 -0.5699 -0.2579 -0.1400
  138MOL0     C18550   3.466   0.845   1.782 -0.0561  0.0541  0.2836
  138MOL0     C18551   3.384   0.734   1.759 -0.0992 -0.3202  0.9531
  138MOL0     C18552   3.428   0.606   1.780  0.0324  0.1135 -0.1126
  138MOL0     C18553   3.554   0.577   1.838 -0.1604 -0.1840 -0.2397
  138MOL0     O18554   3.584   0.446   1.867  0.2118  0.0502  0.2914
  138MOL0     C18555   3.718   0.418   1.915  0.7529  0.4321  0.2730
  138MOL0     C18556   3.820   0.399   1.799  0.6970  0.0514  0.3472
  138MOL0     C18557   3.925   0.293   1.844  0.0217 -0.1999  0.3151
  138MOL0     C18558   4.014   0.333   1.959 -0.0163 -1.1515  0.1724
  138MOL0     C18559   3.947   0.291   2.081 -0.1552  0.6425  0.0305
  138MOL0     C18560   3.905   0.275   2.193 -0.2267 -0.4022  0.8795
  138MOL0     C18561   3.628   0.689   1.869 -0.0369  0.0215  0.8696
  138MOL0     C18562   3.588   0.820   1.839  0.0382 -0.4586 -0.1446
  138MOL0     H18563   3.367   1.102   1.427  3.8920  1.5261  1.2976
  138MOL0     H18564   3.267   1.333   1.354 -1.8660 -2.5170 -0.6910
  138MOL0     H18565   3.315   1.546   1.473 -0.3237  1.5671  1.9258
  138MOL0     H18566   3.206   1.558   1.327 -0.9473 -2.0679  0.0777
  138MOL0     H18567   3.244   1.795   1.398 -0.4878  0.8326  1.2401
  138MOL0     H18568   3.085   1.733   1.436  0.0727 -2.2696 -1.4345
  138MOL0     H18569   3.314   1.666   1.626 -0.4813 -0.7911 -1.5504
  138MOL0     H18570   3.274   1.846   1.615 -0.0638  0.1362  0.1578
  138MOL0     H18571   3.054   1.810   1.707 -0.9819 -1.0339  0.1997
  138MOL0     H18572   3.074   1.627   1.706  1.2366 -0.5028 -0.1371
  138MOL0     H18573   3.246   1.631   1.863  0.6066  1.3148  0.7131
  138MOL0     H18574   3.238   1.806   1.887  1.1313 -0.9420  1.1442
  138MOL0     H18575   3.024   1.784   1.969  1.4928  1.4451 -3.2824
  138MOL0     H18576   3.008   1.611   1.927  0.1454 -0.9362  1.5708
  138MOL0     H18577   3.225   1.718   2.115  2.3545 -0.4624 -2.4171
  138MOL0     H18578   3.057   1.687   2.174 -2.5650 -2.0544 -1.7484
  138MOL0     H18579   3.187   1.510   2.233 -4.0227  4.4804  1.1866
  138MOL0     H18580   3.256   1.510   2.061 -1.5242 -1.1640 -1.6196
  138MOL0     H18581   2.945   1.391   2.258  0.5082  1.5514 -0.4581
  138MOL0     H18582   2.773   1.197   2.211 -0.5363 -0.5592 -0.1708
  138MOL0     H18583   2.764   1.128   2.046 -0.7457 -3.0699  2.0086
  138MOL0     H18584   2.967   1.058   2.251 -0.2401  3.7851 -0.8949
  138MOL0     H18585   2.971   1.002   2.086  1.0757 -3.3751  1.1867
  138MOL0     H18586   2.882   0.834   2.254 -1.3956 -3.0234 -0.3967
  138MOL0     H18587   2.771   0.857   2.130  2.0160  0.3703 -0.3722
  138MOL0     H18588   2.649   0.840   2.341  2.3836  0.0084  1.4338
  138MOL0     H18589   2.635   1.003   2.273 -2.0703 -1.0382 -0.7423
  138MOL0     H18590   2.884   0.902   2.654 -0.1448 -1.2597 -0.6297
  138MOL0     H18591   2.818   0.669   2.879 -0.4145 -0.0764  3.2687
  138MOL0     H18592   2.925   0.819   2.863  0.7985 -2.4250 -1.1326
  138MOL0     H18593   2.786   0.808   2.986 -2.3630  2.4134 -1.1677
  138MOL0     H18594   2.616   0.909   3.139 -1.1310  1.7472  1.1584
  138MOL0     H18595   2.612   0.901   3.409 -0.2127 -0.2254  0.7578
  138MOL0     H18596   2.185   0.876   3.557 -0.6134 -1.0923 -2.3128
  138MOL0     H18597   2.252   0.708   3.582 -2.2058  0.6302 -1.1544
  138MOL0     H18598   2.376   0.810   3.784 -1.6845 -2.3850 -0.8117
  138MOL0     H18599   2.313   0.961   3.733 -1.3883  0.3242 -2.0299
  138MOL0     H18600   2.161   0.732   3.868  0.7136  0.1959  2.3580
  138MOL0     H18601   2.074   0.863   3.788 -1.3936 -0.8625  1.6842
  138MOL0     H18602   2.220   0.889   4.051  2.6366  1.0303 -1.1919
  138MOL0     H18603   2.233   1.020   3.945 -0.3369 -0.2815  0.0234
  138MOL0     H18604   1.957   0.889   4.015  0.2158 -0.7003 -1.5218
  138MOL0     H18605   1.980   1.017   3.901 -1.5781 -0.4875 -0.2322
  138MOL0     H18606   2.108   1.135   4.098 -0.0643  0.4081  1.8700
  138MOL0     H18607   1.930   1.134   4.111  0.5634  2.3756  2.2353
  138MOL0     H18608   2.147   0.982   4.269  0.3846 -0.8279  1.3169
  138MOL0     H18609   1.984   0.918   4.267 -2.2383  1.9188  1.4031
  138MOL0     H18610   2.053   1.201   4.340  2.5681 -0.1620  1.3684
  138MOL0     H18611   2.042   1.058   4.464  1.9976  0.0089 -0.6366
  138MOL0     H18612   2.219   0.727   3.361  0.3949 -0.4250  2.6327
  138MOL0     H18613   2.244   0.728   3.109  1.1623  0.5579 -3.0451
  138MOL0     H18614   2.400   0.797   2.706  0.1968 -0.5783 -0.0896
  138MOL0     H18615   2.481   0.910   2.495  2.7487 -1.1206 -1.8416
  138MOL0     H18616   3.061   1.359   1.726  0.9551  0.6621  0.3140
  138MOL0     H18617   3.141   1.130   1.790 -1.4061  0.9472  0.1964
  138MOL0     H18618   3.281   0.742   1.725 -0.3551 -1.9345  1.2904
  138MOL0     H18619   3.366   0.520   1.761  1.7781 -1.5279  1.2369
  138MOL0     H18620   3.755   0.491   1.988 -1.2219  2.3794 -0.5781
  138MOL0     H18621   3.714   0.321   1.966  0.6336 -1.0210 -2.3260
  138MOL0     H18622   3.869   0.496   1.784 -0.6633  0.8495  0.9087
  138MOL0     H18623   3.773   0.381   1.702  1.1956 -1.9153  0.4175
  138MOL0     H18624   4.001   0.272   1.768 -0.0422 -0.4295  0.3126
  138MOL0     H18625   3.878   0.197   1.867  0.3318 -0.6887 -0.9662
  138MOL0     H18626   4.051   0.437   1.959 -0.1457 -1.0225  3.2567
  138MOL0     H18627   4.114   0.287   1.956  0.7572  0.4820 -1.2454
  138MOL0     H18628   3.856   0.272   2.288 -3.6604 -1.1033 -0.7776
  138MOL0     H18629   3.722   0.696   1.922 -1.6113  1.0226  3.7675
  138MOL0     H18630   3.664   0.895   1.857 -0.4317  0.2142 -0.9140
  139MOL0     O18631   5.161   2.385   2.580  0.2985 -0.6642 -0.0102
  139MOL0     C18632   5.070   2.319   2.612 -0.2457  0.3576 -1.0925
  139MOL0     O18633   4.961   2.357   2.695 -0.3348  0.5209 -0.0946
  139MOL0     C18634   4.969   2.488   2.750 -0.4850  0.9476 -0.4197
  139MOL0     C18635   4.904   2.601   2.691  0.2075  0.9242  0.0864
  139MOL0     C18636   4.926   2.729   2.737 -0.5898  0.2665  0.0406
  139MOL0     C18637   5.010   2.751   2.842  0.0030 -0.4118 -0.8657
  139MOL0     O18638   5.045   2.877   2.890 -0.3030  0.0190  0.1778
  139MOL0     C18639   5.045   2.992   2.808  0.2560 -1.1796 -0.1601
  139MOL0     C18640   5.027   3.113   2.892 -0.2696 -0.2157  0.4620
  139MOL0     C18641   5.067   3.245   2.817  0.1524  0.3419 -0.2338
  139MOL0     C18642   5.075   3.363   2.912  0.5339 -0.2607  0.0575
  139MOL0     C18643   5.086   3.500   2.846  1.0218 -0.6308  0.3423
  139MOL0     C18644   5.001   3.600   2.917  0.1638 -0.3140  0.8214
  139MOL0     C18645   4.993   3.726   2.830 -0.5252 -0.5626 -0.1909
  139MOL0     C18646   4.880   3.817   2.884 -0.3715  0.1990 -0.3196
  139MOL0     N18647   4.864   3.924   2.789  0.9870 -1.3071 -0.6944
  139MOL0     C18648   4.830   3.928   2.660 -0.9019  0.2774 -0.0599
  139MOL0     C18649   4.839   4.056   2.616  0.4571 -0.2598 -0.8624
  139MOL0     C18650   4.793   4.109   2.477  0.1370 -0.2118  0.3967
  139MOL0     C18651   4.665   4.194   2.488 -1.0564 -0.7688 -0.1093
  139MOL0     C18652   4.629   4.270   2.358  0.0118  0.4114  0.3307
  139MOL0     C18653   4.539   4.390   2.396 -0.0481 -0.2904  0.1036
  139MOL0     O18654   4.426   4.339   2.473 -0.1427 -0.3681  0.1291
  139MOL0     C18655   4.337   4.424   2.545 -0.5335  0.1283  0.4879
  139MOL0     C18656   4.345   4.558   2.558  0.7041 -0.6467 -0.3196
  139MOL0     C18657   4.259   4.627   2.649 -0.5362 -0.1715  0.4073
  139MOL0     C18658   4.290   4.774   2.662 -0.5265  0.1388 -0.1897
  139MOL0     C18659   4.154   4.562   2.714  0.0586 -0.0510  0.3080
  139MOL0     C18660   4.065   4.626   2.817  0.5209 -0.4575  0.5575
  139MOL0     O18661   3.979   4.544   2.873 -0.1123  0.1135 -0.7750
  139MOL0     C18662   3.898   4.579   2.974 -0.5791  0.9340  0.2438
  139MOL0     C18663   3.935   4.669   3.080  0.6430  0.0057  0.5902
  139MOL0     C18664   3.862   4.684   3.197  1.0296 -0.1592  0.8323
  139MOL0     C18665   3.734   4.617   3.212 -0.5493  0.3149  0.1343
  139MOL0     O18666   3.661   4.628   3.329 -0.5962 -0.1035  0.1148
  139MOL0     C18667   3.720   4.618   3.459 -0.7002 -0.3182  1.2592
  139MOL0     C18668   3.726   4.468   3.502 -1.0508 -0.1729  0.0380
  139MOL0     C18669   3.771   4.445   3.641  0.4505 -0.4383  0.2289
  139MOL0     C18670   3.823   4.302   3.658  0.1531 -0.5859 -0.1866
  139MOL0     C18671   3.833   4.267   3.805  0.2931 -0.3186 -0.8119
  139MOL0     C18672   3.882   4.117   3.819  1.1749 -0.7475  0.1370
  139MOL0     C18673   3.949   4.086   3.946  0.4153  0.0992 -0.8048
  139MOL0     C18674   3.863   4.117   4.065 -0.3545  0.0292  0.4480
  139MOL0    Cl18675   3.959   4.115   4.220  0.2340 -0.6717  0.4245
  139MOL0     C18676   3.706   4.513   3.123 -0.7767  0.0733 -0.0423
  139MOL0     C18677   3.793   4.492   3.015  0.2239  0.6197  0.3820
  139MOL0     O18678   4.059   4.744   2.824 -0.0558  0.0847  0.0806
  139MOL0     C18679   4.140   4.425   2.682  0.3845  0.1458 -0.6625
  139MOL0     C18680   4.233   4.359   2.599  0.5327 -1.0749  0.0628
  139MOL0     N18681   4.873   4.139   2.720 -0.7442 -0.1348  0.2137
  139MOL0     N18682   4.895   4.052   2.818 -1.0331  0.1777  0.3981
  139MOL0     C18683   5.086   2.647   2.902  1.0706 -0.0349 -0.4996
  139MOL0     C18684   5.056   2.516   2.855  0.0923 -0.7263 -0.3877
  139MOL0     C18685   5.057   2.180   2.558 -0.3715  0.2472 -0.1785
  139MOL0     C18686   4.957   2.098   2.605  1.3238  0.1756  0.7450
  139MOL0     C18687   4.932   1.967   2.560 -0.6800 -0.1067  0.2515
  139MOL0     C18688   5.008   1.916   2.446  1.1771 -1.0316 -0.1904
  139MOL0     O18689   4.979   1.799   2.385 -0.5220 -0.4465  0.4935
  139MOL0     C18690   4.852   1.777   2.329 -0.1625  0.0177 -0.4372
  139MOL0     C18691   4.834   1.640   2.273 -1.1301 -0.1255  0.5271
  139MOL0     C18692   4.914   1.519   2.340 -0.3458  0.1919 -0.3701
  139MOL0     C18693   4.859   1.490   2.485  0.1857  0.1050 -0.8434
  139MOL0     C18694   4.712   1.504   2.485 -0.4359  0.1154 -0.1780
  139MOL0     C18695   4.591   1.518   2.483  0.0073  0.7798  0.4230
  139MOL0     C18696   5.108   2.005   2.398  0.3207 -0.6637  0.2972
  139MOL0     C18697   5.135   2.126   2.456 -0.1096  0.1229  0.4101
  139MOL0     H18698   4.833   2.583   2.610 -0.3359 -1.1232  0.9435
  139MOL0     H18699   4.868   2.816   2.706 -1.3578 -1.1181 -2.7386
  139MOL0     H18700   5.142   3.002   2.758  0.6580  1.0934  0.9365
  139MOL0     H18701   4.965   2.993   2.733  1.3499  0.7348 -1.3866
  139MOL0     H18702   4.920   3.109   2.915 -0.7058 -0.9490 -1.4864
  139MOL0     H18703   5.097   3.105   2.976  1.4249 -2.1452 -1.0345
  139MOL0     H18704   5.153   3.225   2.753  0.6121  0.5212  0.3190
  139MOL0     H18705   4.987   3.264   2.744  1.8177  0.6199 -2.0873
  139MOL0     H18706   4.984   3.360   2.971  0.7560 -1.6417  0.3593
  139MOL0     H18707   5.155   3.344   2.984 -1.0289  0.8385  2.1871
  139MOL0     H18708   5.190   3.529   2.829  0.2824  1.1766 -1.5033
  139MOL0     H18709   5.048   3.489   2.744  1.6988  0.2997 -0.0272
  139MOL0     H18710   4.900   3.559   2.925  0.4445 -1.8470 -2.0294
  139MOL0     H18711   5.031   3.604   3.022 -0.5832 -0.2864  1.0393
  139MOL0     H18712   5.085   3.785   2.839 -1.8034  1.2551  1.9971
  139MOL0     H18713   4.987   3.690   2.727 -1.2808 -2.7618  0.5623
  139MOL0     H18714   4.902   3.849   2.986  3.8976  3.4380 -1.9366
  139MOL0     H18715   4.781   3.772   2.890 -0.4186  0.4100  0.5445
  139MOL0     H18716   4.788   3.854   2.592 -1.1731  1.6217 -1.3918
  139MOL0     H18717   4.872   4.156   2.419  0.1049 -3.8822 -3.0839
  139MOL0     H18718   4.769   4.017   2.422 -2.3174  0.8245 -0.4048
  139MOL0     H18719   4.685   4.259   2.574 -0.5757 -0.5900 -0.3534
  139MOL0     H18720   4.579   4.130   2.513 -2.8792  1.4399 -0.3002
  139MOL0     H18721   4.586   4.198   2.288  1.3088  0.8613 -0.9806
  139MOL0     H18722   4.722   4.303   2.312 -0.0043  1.5921  1.0966
  139MOL0     H18723   4.506   4.440   2.305 -0.3181 -2.4052 -1.0205
  139MOL0     H18724   4.605   4.464   2.443  0.6678 -1.0041  0.2589
  139MOL0     H18725   4.424   4.620   2.516  1.2484  0.1238  1.7605
  139MOL0     H18726   4.214   4.821   2.598 -1.5897  0.9618  1.5934
  139MOL0     H18727   4.290   4.813   2.764 -1.2031 -0.4917  0.0645
  139MOL0     H18728   4.392   4.799   2.632  0.1728 -0.4452  1.6143
  139MOL0     H18729   4.018   4.736   3.059  0.1022  0.2438 -0.8870
  139MOL0     H18730   3.891   4.759   3.269 -2.2052  4.6332 -2.2322
  139MOL0     H18731   3.817   4.668   3.466 -1.1883  0.5758  1.7915
  139MOL0     H18732   3.651   4.679   3.518 -1.3621  1.5028 -1.2214
  139MOL0     H18733   3.625   4.427   3.491 -2.4294  2.8537  0.4905
  139MOL0     H18734   3.791   4.419   3.429 -1.2485  0.2457 -0.4210
  139MOL0     H18735   3.684   4.444   3.707  1.4627 -0.9315  1.6169
  139MOL0     H18736   3.835   4.524   3.682 -0.9983  0.1702  1.4281
  139MOL0     H18737   3.761   4.223   3.614  1.0391 -0.4991 -1.6968
  139MOL0     H18738   3.924   4.294   3.615 -1.1491  1.2998 -4.0809
  139MOL0     H18739   3.742   4.281   3.862  1.2189 -1.8377  1.1476
  139MOL0     H18740   3.907   4.345   3.827  0.2471 -0.3584 -0.5159
  139MOL0     H18741   3.792   4.056   3.809 -0.4655  1.6566 -0.6893
  139MOL0     H18742   3.954   4.086   3.742  1.7144 -0.5282  0.5404
  139MOL0     H18743   4.033   4.155   3.960 -0.2440  0.2790  4.2620
  139MOL0     H18744   3.986   3.984   3.956  2.6873  0.5106 -3.6758
  139MOL0     H18745   3.777   4.051   4.072 -1.2700  1.2709  1.3481
  139MOL0     H18746   3.825   4.219   4.056 -1.5825 -0.4065  0.6304
  139MOL0     H18747   3.624   4.443   3.139  0.3485 -1.3389 -0.2554
  139MOL0     H18748   3.783   4.396   2.967  0.4120 -0.3703  2.2362
  139MOL0     H18749   4.057   4.375   2.730  0.1566  0.8416 -0.3301
  139MOL0     H18750   4.217   4.252   2.583  5.1942 -1.9433 -0.1680
  139MOL0     H18751   5.167   2.658   2.973  1.3353  0.9751 -0.9431
  139MOL0     H18752   5.099   2.428   2.902  1.6558  1.2363  2.0725
  139MOL0     H18753   4.889   2.137   2.680 -1.0634  2.0465 -2.1325
  139MOL0     H18754   4.874   1.904   2.627  0.3348  0.7935  2.0652
  139MOL0     H18755   4.778   1.784   2.410 -0.9726  0.7839 -1.2197
  139MOL0     H18756   4.840   1.861   2.260  0.0809  0.2187 -0.2372
  139MOL0     H18757   4.878   1.627   2.174  2.6537 -0.4523  2.0928
  139MOL0     H18758   4.728   1.622   2.251 -0.5534 -0.5521 -2.2013
  139MOL0     H18759   5.021   1.538   2.348  0.2381 -2.7991  0.0492
  139MOL0     H18760   4.901   1.439   2.267  0.1334  0.6468 -0.9594
  139MOL0     H18761   4.906   1.563   2.552  0.9839  0.0947 -1.3879
  139MOL0     H18762   4.886   1.390   2.520  0.4004  0.0304 -1.2217
  139MOL0     H18763   4.486   1.516   2.465 -0.2360 -3.3118  1.3378
  139MOL0     H18764   5.170   1.984   2.312 -3.1808  0.1058 -2.6676
  139MOL0     H18765   5.217   2.181   2.411 -0.4473 -0.9615 -1.6879
  140MOL0     O18766   7.193   6.753   7.301 -0.5040  0.5303 -0.6592
  140MOL0     C18767   7.131   6.852   7.269 -0.4447  0.6643 -1.5630
  140MOL0     O18768   7.178   6.969   7.266  0.1920 -0.4237  0.8520
  140MOL0     C18769   7.313   6.994   7.286 -0.4879 -0.5943 -0.2784
  140MOL0     C18770   7.391   6.935   7.385  0.0977 -0.9437 -0.4495
  140MOL0     C18771   7.524   6.983   7.412 -0.1711 -1.0034  0.4024
  140MOL0     C18772   7.570   7.084   7.330 -0.1313  1.0116  0.1160
  140MOL0     O18773   7.703   7.118   7.349 -0.5030 -0.1622 -0.2271
  140MOL0     C18774   7.751   7.244   7.296  0.1346  0.3777 -0.2701
  140MOL0     C18775   7.906   7.235   7.298  0.8223 -0.3961  0.5628
  140MOL0     C18776   7.954   7.332   7.192 -0.3788 -0.3273  0.0569
  140MOL0     C18777   8.105   7.324   7.192 -0.7722 -0.0605  0.2079
  140MOL0     C18778   8.170   7.185   7.151 -0.6642  0.1512  0.1545
  140MOL0     C18779   8.322   7.198   7.112  0.4490  0.2483  0.6784
  140MOL0     C18780   8.380   7.069   7.093 -0.4915  0.4637  0.0906
  140MOL0     C18781   8.490   7.066   6.986 -0.4834  0.4407 -0.2967
  140MOL0     N18782   8.587   7.161   7.039  0.2750  0.9857  0.9616
  140MOL0     C18783   8.619   7.282   6.974  0.3233  0.0350 -0.4755
  140MOL0     C18784   8.691   7.349   7.058  0.4961  0.4447 -0.4148
  140MOL0     C18785   8.730   7.491   7.045 -0.4005  0.6004  0.1886
  140MOL0     C18786   8.872   7.494   7.001 -0.1695  0.3794 -1.0225
  140MOL0     C18787   8.911   7.631   6.946  0.6982 -0.2791 -0.7254
  140MOL0     C18788   8.940   7.729   7.062 -0.8037  0.4588  0.1012
  140MOL0     O18789   9.063   7.680   7.118 -0.3239  0.3696  0.0217
  140MOL0     C18790   9.126   7.754   7.213  0.0463  0.4397  0.1183
  140MOL0     C18791   9.261   7.730   7.216 -0.3076 -0.1163  0.3732
  140MOL0     C18792   9.350   7.804   7.292 -0.7092  0.1049 -1.2829
  140MOL0     C18793   9.494   7.765   7.284 -0.1319 -0.1550  0.1367
  140MOL0     C18794   9.302   7.911   7.376 -0.2098 -0.2929 -0.1084
  140MOL0     C18795   9.392   8.005   7.446 -0.4148  0.3859  0.3494
  140MOL0     O18796   9.360   8.035   7.570 -0.8329  0.3126 -0.0607
  140MOL0     C18797   9.380   8.166   7.594  0.5378  0.1398 -0.0092
  140MOL0     C18798   9.501   8.215   7.639 -0.0884 -0.0284 -0.1997
  140MOL0     C18799   9.528   8.352   7.654 -0.1435  0.1253  0.3999
  140MOL0     C18800   9.425   8.441   7.632  0.6999  0.5186  1.0522
  140MOL0     O18801   9.449   8.564   7.675  0.2788  0.4153 -0.2945
  140MOL0     C18802   9.361   8.669   7.631  0.0698 -0.1531  0.1476
  140MOL0     C18803   9.415   8.801   7.649 -0.0719  0.2328  0.2415
  140MOL0     C18804   9.353   8.911   7.556  0.4812  1.0079 -0.1455
  140MOL0     C18805   9.438   9.037   7.556 -0.5160 -0.6549 -0.0541
  140MOL0     C18806   9.376   9.152   7.627 -0.5430 -0.1785 -0.4390
  140MOL0     C18807   9.265   9.206   7.542  0.6376 -0.6530  0.1676
  140MOL0     C18808   9.216   9.334   7.615  0.3790  0.3540  0.1353
  140MOL0     C18809   9.117   9.421   7.526 -0.2731  0.3690  0.2807
  140MOL0    Cl18810   9.200   9.487   7.389 -0.1209 -0.0252 -0.2949
  140MOL0     C18811   9.297   8.395   7.585  0.6662  0.7409 -0.3213
  140MOL0     C18812   9.273   8.258   7.570 -0.2183  0.0949  0.1911
  140MOL0     O18813   9.482   8.061   7.379  1.4700 -0.3918  0.0608
  140MOL0     C18814   9.163   7.936   7.371 -0.8768 -1.5410  0.3016
  140MOL0     C18815   9.081   7.861   7.289  0.6400  0.0180  0.7030
  140MOL0     N18816   8.730   7.262   7.162  0.1239  0.5340 -0.4008
  140MOL0     N18817   8.669   7.150   7.145 -0.8925  0.1945 -0.4696
  140MOL0     C18818   7.489   7.134   7.221 -0.2567  0.0950  0.3120
  140MOL0     C18819   7.364   7.089   7.206  0.1950  0.0097 -0.1079
  140MOL0     C18820   6.993   6.838   7.225  0.0579  0.2843 -0.7810
  140MOL0     C18821   6.898   6.928   7.264  0.3567 -0.1392  0.2005
  140MOL0     C18822   6.763   6.881   7.245  0.2039  0.3159  0.4658
  140MOL0     C18823   6.736   6.772   7.163  0.1588  0.9022 -0.8280
  140MOL0     O18824   6.606   6.728   7.149  0.0527 -0.4959  0.1091
  140MOL0     C18825   6.561   6.660   7.260  1.0067  0.6438 -0.6459
  140MOL0     C18826   6.617   6.515   7.257  0.2853  0.9436 -0.5147
  140MOL0     C18827   6.578   6.433   7.389 -0.7456 -0.0421  0.3201
  140MOL0     C18828   6.600   6.281   7.366 -0.5788 -0.0503 -0.4128
  140MOL0     C18829   6.746   6.262   7.338 -0.0066  0.0692  0.4399
  140MOL0     C18830   6.866   6.251   7.305  0.2317  0.4534 -1.0732
  140MOL0     C18831   6.844   6.700   7.101 -0.2390 -0.2423  0.5363
  140MOL0     C18832   6.967   6.720   7.152  0.3360 -0.0199  0.4844
  140MOL0     H18833   7.356   6.856   7.451  1.2292 -3.0069 -2.1875
  140MOL0     H18834   7.594   6.948   7.487  0.1016 -0.7693  0.2632
  140MOL0     H18835   7.715   7.280   7.199 -0.9542  1.7842  0.6262
  140MOL0     H18836   7.714   7.321   7.365 -1.1345  1.0243 -1.6273
  140MOL0     H18837   7.942   7.257   7.399  1.5643 -0.8400  0.3975
  140MOL0     H18838   7.937   7.132   7.280  1.3078 -0.5391  2.0732
  140MOL0     H18839   7.910   7.312   7.094  0.7352 -0.8880 -0.3573
  140MOL0     H18840   7.930   7.435   7.218 -0.3152  0.2807 -2.1209
  140MOL0     H18841   8.148   7.397   7.124  0.5870 -3.1029 -2.4502
  140MOL0     H18842   8.136   7.352   7.293 -1.5461 -0.8581  0.6867
  140MOL0     H18843   8.153   7.104   7.223  0.7509  0.3721  0.7671
  140MOL0     H18844   8.117   7.145   7.064  2.2752 -1.6154 -0.9828
  140MOL0     H18845   8.340   7.265   7.028 -0.8717  0.5951  0.6428
  140MOL0     H18846   8.369   7.262   7.187  1.3799 -2.5917  2.6808
  140MOL0     H18847   8.425   7.029   7.184 -0.2445 -1.5473 -0.8584
  140MOL0     H18848   8.298   7.007   7.053  0.8002 -0.0075 -1.9689
  140MOL0     H18849   8.440   7.115   6.902 -4.1558  0.3406  1.6181
  140MOL0     H18850   8.535   6.970   6.959  0.4074  0.1247  2.0915
  140MOL0     H18851   8.569   7.324   6.887 -0.4703 -0.3812 -0.2253
  140MOL0     H18852   8.664   7.544   6.976 -1.9413 -1.1591  0.2242
  140MOL0     H18853   8.726   7.535   7.145  2.7903 -1.1927  1.2546
  140MOL0     H18854   8.892   7.425   6.919 -2.3472  0.9423 -2.1152
  140MOL0     H18855   8.931   7.451   7.082 -2.1921  1.4794  1.1427
  140MOL0     H18856   8.822   7.677   6.902  0.3082 -0.1027  0.2176
  140MOL0     H18857   8.992   7.626   6.872  4.3473  1.4921  2.7427
  140MOL0     H18858   8.857   7.729   7.134 -0.3261  2.4485  0.7447
  140MOL0     H18859   8.955   7.830   7.021 -1.3015 -1.4247 -5.5824
  140MOL0     H18860   9.295   7.651   7.150 -0.1568  0.8456 -0.7324
  140MOL0     H18861   9.536   7.782   7.184 -0.5290  0.6934  0.1047
  140MOL0     H18862   9.557   7.814   7.358  0.1571  1.8023 -1.3249
  140MOL0     H18863   9.501   7.656   7.291 -0.7222 -0.2264 -0.2909
  140MOL0     H18864   9.578   8.139   7.634 -1.1037 -1.0194 -2.6716
  140MOL0     H18865   9.615   8.381   7.711  1.0946 -1.7751 -0.4103
  140MOL0     H18866   9.352   8.652   7.523 -2.5483  1.8044 -0.0456
  140MOL0     H18867   9.264   8.655   7.680  0.4492  2.5871  1.8731
  140MOL0     H18868   9.400   8.826   7.755  0.0134 -0.8441  0.5290
  140MOL0     H18869   9.522   8.801   7.625  0.0676  4.5669  0.1381
  140MOL0     H18870   9.246   8.930   7.570 -0.1600 -0.5987 -2.3171
  140MOL0     H18871   9.363   8.869   7.456 -0.0766  0.3689  0.0620
  140MOL0     H18872   9.536   9.020   7.603 -1.1103  1.7726  2.2211
  140MOL0     H18873   9.474   9.067   7.457 -0.5021  0.4836  0.2857
  140MOL0     H18874   9.454   9.228   7.639 -0.2233 -0.7927  1.7428
  140MOL0     H18875   9.356   9.113   7.727  1.5994  1.1899  0.5922
  140MOL0     H18876   9.313   9.233   7.447  2.6354 -0.9352  1.0527
  140MOL0     H18877   9.184   9.137   7.516 -1.1054  1.0230  0.8518
  140MOL0     H18878   9.290   9.407   7.651 -0.5191  0.7859  1.1586
  140MOL0     H18879   9.163   9.307   7.707  0.7071 -0.0541  0.2085
  140MOL0     H18880   9.090   9.507   7.588  0.6381  1.9538 -1.4307
  140MOL0     H18881   9.022   9.376   7.494 -1.8216  2.7307  1.2531
  140MOL0     H18882   9.208   8.457   7.575 -0.6799 -0.4545  2.9997
  140MOL0     H18883   9.169   8.235   7.547  0.2103 -3.1674  1.0238
  140MOL0     H18884   9.120   8.015   7.432 -1.5463 -0.4725 -1.4900
  140MOL0     H18885   8.976   7.886   7.274  0.5548  1.6767  3.4302
  140MOL0     H18886   7.536   7.201   7.150 -1.8197  0.5221 -0.3569
  140MOL0     H18887   7.321   7.116   7.110  3.0587  0.2770 -1.4208
  140MOL0     H18888   6.919   7.019   7.320 -1.9759  1.2511 -1.0507
  140MOL0     H18889   6.685   6.948   7.279  0.5186  0.9155  0.0246
  140MOL0     H18890   6.597   6.714   7.349 -0.2021 -0.2609  0.4295
  140MOL0     H18891   6.452   6.655   7.271  0.6742  1.3315 -3.0431
  140MOL0     H18892   6.724   6.519   7.237  0.2362  0.0759 -0.9630
  140MOL0     H18893   6.565   6.465   7.175  1.4539 -0.2444 -0.5478
  140MOL0     H18894   6.471   6.436   7.413 -0.3768 -0.2779  2.1429
  140MOL0     H18895   6.626   6.470   7.481 -0.3417  1.1586 -0.3416
  140MOL0     H18896   6.544   6.234   7.284  2.6673 -1.3996 -2.0595
  140MOL0     H18897   6.569   6.226   7.455  0.8738 -0.1033  0.0955
  140MOL0     H18898   6.972   6.245   7.290  0.0227  1.6165 -3.4970
  140MOL0     H18899   6.824   6.622   7.029 -0.5883  0.2969  0.0445
  140MOL0     H18900   7.055   6.661   7.132 -0.8456 -1.4348 -0.7879
  141MOL0     O18901   8.088   3.851   0.503 -0.4150 -0.4467  0.9227
  141MOL0     C18902   8.206   3.823   0.496  0.0633 -0.2087 -0.5256
  141MOL0     O18903   8.289   3.856   0.387 -0.7777 -0.7530  0.0912
  141MOL0     C18904   8.226   3.885   0.271  0.7737  0.2446 -0.1891
  141MOL0     C18905   8.217   4.017   0.234  0.2536  0.4704  0.0622
  141MOL0     C18906   8.142   4.054   0.120  0.7223  0.1020  0.6875
  141MOL0     C18907   8.085   3.952   0.039  0.4302 -0.7700  0.3316
  141MOL0     O18908   7.989   3.955  -0.058  0.0917 -1.1377  0.0565
  141MOL0     C18909   7.943   4.085  -0.109 -0.4996 -1.0443  0.2357
  141MOL0     C18910   7.830   4.068  -0.206  0.3387  0.2795 -0.3865
  141MOL0     C18911   7.763   4.193  -0.261  0.2459 -0.4023  0.4021
  141MOL0     C18912   7.660   4.150  -0.363 -0.0716  0.4374 -0.1888
  141MOL0     C18913   7.603   4.272  -0.446 -0.4560  0.1774 -0.9671
  141MOL0     C18914   7.457   4.292  -0.425 -0.5636 -0.0971 -0.1095
  141MOL0     C18915   7.429   4.350  -0.288 -0.2820 -0.5747 -0.9864
  141MOL0     C18916   7.476   4.498  -0.253 -0.5626 -0.4429 -0.5457
  141MOL0     N18917   7.437   4.611  -0.339 -0.6679  0.7132  0.4871
  141MOL0     C18918   7.497   4.637  -0.465  0.7782 -0.3794 -0.9043
  141MOL0     C18919   7.480   4.770  -0.487  0.5276 -0.2965 -0.2418
  141MOL0     C18920   7.543   4.843  -0.606 -0.0824 -0.4445 -0.4646
  141MOL0     C18921   7.426   4.907  -0.682  0.4307  0.6208  0.7681
  141MOL0     C18922   7.385   5.044  -0.633  0.5303  0.6366 -0.0222
  141MOL0     C18923   7.263   5.097  -0.717 -0.5738  0.1678 -0.4208
  141MOL0     O18924   7.294   5.110  -0.858  0.2364 -0.0034  0.4997
  141MOL0     C18925   7.361   5.221  -0.896 -0.2383 -0.3728 -0.6557
  141MOL0     C18926   7.382   5.337  -0.821  0.5800  0.4941 -0.5835
  141MOL0     C18927   7.467   5.438  -0.878 -1.4291  0.0236  0.3252
  141MOL0     C18928   7.496   5.542  -0.777  0.3542 -0.4611 -0.6268
  141MOL0     C18929   7.523   5.433  -1.010 -0.1093  0.3770  0.7046
  141MOL0     C18930   7.632   5.524  -1.053  0.1432  0.0130  0.0145
  141MOL0     O18931   7.633   5.570  -1.181 -0.5554  0.8739  0.7698
  141MOL0     C18932   7.745   5.637  -1.227  0.4448  0.7095  1.0113
  141MOL0     C18933   7.872   5.588  -1.212  0.1653  0.6234 -0.5513
  141MOL0     C18934   7.984   5.659  -1.251  0.7118 -0.2745 -0.1252
  141MOL0     C18935   7.969   5.783  -1.324  0.3946 -0.1718 -0.0197
  141MOL0     O18936   8.071   5.874  -1.339 -0.1666 -0.9697 -0.5839
  141MOL0     C18937   8.208   5.835  -1.333  0.1234 -0.9550  0.0451
  141MOL0     C18938   8.243   5.778  -1.469 -0.5793 -0.7136 -0.3797
  141MOL0     C18939   8.281   5.879  -1.572  0.5159 -0.1631  1.8497
  141MOL0     C18940   8.418   5.932  -1.576 -0.2929 -0.0442  0.4770
  141MOL0     C18941   8.520   5.839  -1.643  0.3564 -0.8578 -0.9608
  141MOL0     C18942   8.654   5.832  -1.561 -0.0159 -0.5274 -0.4657
  141MOL0     C18943   8.724   5.966  -1.561 -0.1790  0.4144 -0.0236
  141MOL0     C18944   8.875   5.951  -1.531  0.4265  0.1281  0.1518
  141MOL0    Cl18945   8.951   5.854  -1.667  0.1491  0.4702  0.2185
  141MOL0     C18946   7.841   5.831  -1.353  0.5608  0.8490 -0.6002
  141MOL0     C18947   7.727   5.759  -1.299 -0.7473  1.3525  0.1623
  141MOL0     O18948   7.713   5.544  -0.964 -0.4230 -0.7623 -0.6875
  141MOL0     C18949   7.486   5.321  -1.084 -0.2604  0.5900 -0.0090
  141MOL0     C18950   7.403   5.216  -1.029 -0.7471  0.2177  0.4376
  141MOL0     N18951   7.419   4.823  -0.372 -0.4154  0.6344  0.6319
  141MOL0     N18952   7.404   4.727  -0.285 -0.7102 -0.6593 -0.4478
  141MOL0     C18953   8.108   3.813   0.075 -0.4764 -0.2173  1.0052
  141MOL0     C18954   8.184   3.777   0.186 -0.5481 -0.1461 -0.1226
  141MOL0     C18955   8.253   3.743   0.605  0.8611  0.2652 -0.2374
  141MOL0     C18956   8.204   3.749   0.740 -0.4803  0.7013 -0.4643
  141MOL0     C18957   8.263   3.666   0.839 -0.6838  0.3880  0.0380
  141MOL0     C18958   8.363   3.574   0.808  0.3645 -0.0139  0.4723
  141MOL0     O18959   8.411   3.494   0.898 -0.1373 -0.6125 -0.1883
  141MOL0     C18960   8.531   3.409   0.883  0.0653 -0.1144  0.5662
  141MOL0     C18961   8.569   3.341   1.017 -0.7458  0.1994  0.1021
  141MOL0     C18962   8.708   3.274   1.047 -1.4012  0.6074  0.6390
  141MOL0     C18963   8.765   3.200   0.929  0.0617 -0.2294  1.1945
  141MOL0     C18964   8.897   3.151   0.964 -0.1330  0.2088  0.3522
  141MOL0     C18965   9.004   3.102   0.984  0.2453  0.3228 -0.9962
  141MOL0     C18966   8.397   3.565   0.680 -0.0201 -0.7401  0.6024
  141MOL0     C18967   8.354   3.649   0.577 -0.7168  0.1434 -0.4400
  141MOL0     H18968   8.247   4.099   0.299 -0.6575  1.0033 -0.1704
  141MOL0     H18969   8.117   4.157   0.097 -0.1127 -0.3745 -0.7030
  141MOL0     H18970   7.924   4.156  -0.028  3.2298  0.0209  0.3771
  141MOL0     H18971   8.024   4.122  -0.173 -0.4978  0.0642  0.8700
  141MOL0     H18972   7.875   3.998  -0.277 -0.4962 -0.2612 -0.3919
  141MOL0     H18973   7.746   4.024  -0.153 -0.0146 -2.0373 -2.7159
  141MOL0     H18974   7.715   4.256  -0.185  0.9677 -0.6611  1.0768
  141MOL0     H18975   7.835   4.260  -0.309  0.5192 -0.5659  0.5842
  141MOL0     H18976   7.696   4.081  -0.440  1.1162  0.3987  0.3716
  141MOL0     H18977   7.577   4.096  -0.317  1.3049 -0.1931  1.6749
  141MOL0     H18978   7.657   4.358  -0.406  0.7415 -1.8793  2.2140
  141MOL0     H18979   7.632   4.269  -0.552  0.6421  2.2730 -0.7883
  141MOL0     H18980   7.417   4.360  -0.501 -0.6559  1.3014  1.1321
  141MOL0     H18981   7.405   4.196  -0.423 -3.5263  1.3891 -0.0598
  141MOL0     H18982   7.320   4.358  -0.284 -0.0835  3.1896  0.4437
  141MOL0     H18983   7.457   4.278  -0.211 -1.1728  0.4713  0.3444
  141MOL0     H18984   7.585   4.491  -0.249 -0.4588 -0.0246 -2.0203
  141MOL0     H18985   7.452   4.513  -0.148  2.7405  2.0695  0.0290
  141MOL0     H18986   7.551   4.573  -0.534 -0.3543 -0.0042 -2.1871
  141MOL0     H18987   7.611   4.911  -0.554  1.5010 -0.7719 -2.0110
  141MOL0     H18988   7.601   4.780  -0.674  0.2082 -1.6644  0.8544
  141MOL0     H18989   7.342   4.839  -0.698 -1.3798  2.4972  1.7755
  141MOL0     H18990   7.462   4.910  -0.786 -1.3197 -3.6821 -0.1671
  141MOL0     H18991   7.465   5.117  -0.644 -0.5873  1.7261 -1.2214
  141MOL0     H18992   7.361   5.039  -0.526  2.5551 -1.5648  0.4162
  141MOL0     H18993   7.218   5.185  -0.672 -0.6399  0.5982 -1.3016
  141MOL0     H18994   7.192   5.013  -0.726  2.4787 -2.5712 -0.9513
  141MOL0     H18995   7.342   5.359  -0.723 -5.0721  2.0253 -2.7972
  141MOL0     H18996   7.435   5.559  -0.688  1.3718  2.3649 -0.3791
  141MOL0     H18997   7.604   5.537  -0.758  1.0020 -0.2781 -3.7322
  141MOL0     H18998   7.493   5.642  -0.820  0.4906  1.4011  3.2302
  141MOL0     H18999   7.887   5.496  -1.157 -0.5482  0.3641 -0.7703
  141MOL0     H19000   8.083   5.629  -1.219  1.6536  3.1180  0.5619
  141MOL0     H19001   8.270   5.924  -1.319 -0.9422 -0.1871  0.0243
  141MOL0     H19002   8.245   5.767  -1.255  2.6635 -0.5008 -0.6546
  141MOL0     H19003   8.330   5.713  -1.456  3.0890  3.8976  0.7629
  141MOL0     H19004   8.163   5.714  -1.508 -1.3706 -1.0703  1.7043
  141MOL0     H19005   8.221   5.971  -1.567  2.4283  1.2388  0.4710
  141MOL0     H19006   8.269   5.823  -1.665 -0.8552 -0.4161  2.1558
  141MOL0     H19007   8.429   6.026  -1.630 -3.2578 -0.1941 -0.5683
  141MOL0     H19008   8.442   5.946  -1.470  2.1622  0.5989 -0.1049
  141MOL0     H19009   8.543   5.875  -1.744  1.9325  1.8275  0.2339
  141MOL0     H19010   8.466   5.744  -1.653  0.4739 -0.8282 -2.0163
  141MOL0     H19011   8.627   5.798  -1.461 -0.2725 -0.2181 -0.4302
  141MOL0     H19012   8.714   5.763  -1.622  0.4427 -3.6470  3.1848
  141MOL0     H19013   8.677   6.047  -1.505  0.3264  1.6608 -1.3345
  141MOL0     H19014   8.718   5.988  -1.668 -0.6276 -0.7672 -0.2527
  141MOL0     H19015   8.884   5.911  -1.430  0.6061  1.6404  0.7714
  141MOL0     H19016   8.915   6.053  -1.529  0.6153  0.0865 -0.9989
  141MOL0     H19017   7.835   5.925  -1.408  0.1715 -0.3453 -2.7356
  141MOL0     H19018   7.625   5.790  -1.318 -0.0583  3.2376 -0.7395
  141MOL0     H19019   7.531   5.294  -1.178  2.6973 -0.4417  1.5578
  141MOL0     H19020   7.378   5.124  -1.080  3.4779 -3.4493  4.1270
  141MOL0     H19021   8.078   3.731   0.011  0.8991  0.1018 -0.0955
  141MOL0     H19022   8.220   3.675   0.202 -0.7715 -0.8234 -3.3679
  141MOL0     H19023   8.125   3.816   0.773  0.1932  1.4477 -0.3407
  141MOL0     H19024   8.234   3.676   0.943  1.7292  1.7534  0.6380
  141MOL0     H19025   8.508   3.338   0.804  1.3804  1.4901 -1.3540
  141MOL0     H19026   8.619   3.461   0.844 -0.0331  1.0596  1.8151
  141MOL0     H19027   8.498   3.258   1.019  0.0142 -0.4743 -0.4150
  141MOL0     H19028   8.556   3.414   1.097  2.1916  0.2256  0.6547
  141MOL0     H19029   8.699   3.197   1.124 -0.2889 -1.6633 -1.3409
  141MOL0     H19030   8.784   3.345   1.081  1.7292 -3.5661  3.5099
  141MOL0     H19031   8.770   3.262   0.839  2.9248  0.7178  1.8963
  141MOL0     H19032   8.697   3.121   0.897  0.7865  0.0574 -1.3025
  141MOL0     H19033   9.101   3.066   1.011 -0.3583  0.2540  1.1978
  141MOL0     H19034   8.465   3.490   0.642  1.8871  1.8825 -1.5449
  141MOL0     H19035   8.400   3.640   0.479 -0.4628 -0.3734 -0.2798
  142MOL0     O19036   6.776   5.458   1.704 -0.2775 -0.2767  0.1287
  142MOL0     C19037   6.669   5.423   1.644 -0.6478 -0.7290  0.5457
  142MOL0     O19038   6.591   5.510   1.562  0.3908  0.2265  0.1929
  142MOL0     C19039   6.603   5.645   1.541  0.1876 -1.3035 -1.3109
  142MOL0     C19040   6.488   5.703   1.485  0.3761  0.2451 -0.2425
  142MOL0     C19041   6.475   5.839   1.479  0.8335 -0.0403  1.0784
  142MOL0     C19042   6.579   5.922   1.512  0.5207  0.0416  0.0443
  142MOL0     O19043   6.571   6.058   1.515 -0.6433 -0.5033 -0.1910
  142MOL0     C19044   6.463   6.126   1.448  0.0559  0.3409 -0.0588
  142MOL0     C19045   6.495   6.279   1.423 -0.4783 -0.2534  0.3408
  142MOL0     C19046   6.361   6.365   1.394 -0.5318  0.4956 -0.0548
  142MOL0     C19047   6.270   6.303   1.290 -0.7036 -0.2819  0.1858
  142MOL0     C19048   6.153   6.400   1.277  0.1006 -0.9088 -0.3761
  142MOL0     C19049   6.058   6.351   1.158  0.3414  0.3027 -0.0038
  142MOL0     C19050   5.944   6.440   1.125 -0.4232  0.0868  0.2966
  142MOL0     C19051   5.819   6.403   1.212 -0.4587  0.1483  0.0136
  142MOL0     N19052   5.712   6.498   1.178 -0.0313  0.6938 -0.0140
  142MOL0     C19053   5.634   6.502   1.066 -0.1849 -0.2718  0.7354
  142MOL0     C19054   5.516   6.560   1.109 -0.0463 -0.3595 -0.3159
  142MOL0     C19055   5.390   6.563   1.035  0.3401  0.4419 -0.3663
  142MOL0     C19056   5.343   6.703   1.031  0.1344 -0.9095 -0.0959
  142MOL0     C19057   5.211   6.717   0.989  0.3319  0.1561 -0.6334
  142MOL0     C19058   5.175   6.862   0.977  0.3062 -0.7322  0.4340
  142MOL0     O19059   5.053   6.868   0.903  0.2229 -0.3197  0.0734
  142MOL0     C19060   5.000   6.994   0.904 -0.4101 -0.0847  0.8485
  142MOL0     C19061   4.863   7.000   0.875 -0.3430  0.5643  0.1597
  142MOL0     C19062   4.793   7.123   0.892  0.5232 -0.0589  0.2910
  142MOL0     C19063   4.643   7.125   0.867  0.6721  0.4540  0.5797
  142MOL0     C19064   4.863   7.234   0.943 -0.2757 -0.1555  0.1824
  142MOL0     C19065   4.798   7.368   0.975 -0.4882  0.2745  0.5186
  142MOL0     O19066   4.882   7.481   0.997 -0.0999 -0.2255 -0.6062
  142MOL0     C19067   4.839   7.581   1.083 -1.2239  0.4815 -0.5732
  142MOL0     C19068   4.924   7.612   1.194  0.1655  0.4151 -0.1501
  142MOL0     C19069   4.886   7.723   1.269  0.2716  0.2995  0.6064
  142MOL0     C19070   4.780   7.806   1.236 -0.0266 -0.6882 -0.2829
  142MOL0     O19071   4.760   7.929   1.307 -0.8418  1.3302 -0.2185
  142MOL0     C19072   4.623   7.954   1.352 -0.5171  0.3268  0.6226
  142MOL0     C19073   4.591   8.104   1.390  0.0186  0.0578 -0.3133
  142MOL0     C19074   4.507   8.140   1.515  1.2813  0.0751 -0.3825
  142MOL0     C19075   4.357   8.130   1.493 -0.1416 -0.1225  0.1819
  142MOL0     C19076   4.285   8.130   1.624  0.5270 -0.2246  0.1955
  142MOL0     C19077   4.135   8.101   1.636 -0.0261 -0.4242 -1.1105
  142MOL0     C19078   4.076   8.203   1.538  0.0268 -0.9513 -0.4592
  142MOL0     C19079   3.929   8.201   1.565 -0.6594  1.2077  0.2255
  142MOL0    Cl19080   3.891   8.279   1.721 -0.2471 -0.4162  0.2666
  142MOL0     C19081   4.706   7.772   1.132  0.4100 -0.1070  0.8937
  142MOL0     C19082   4.726   7.659   1.062 -0.2958 -0.8120 -0.7408
  142MOL0     O19083   4.674   7.370   0.991  0.3058  0.4865  0.3903
  142MOL0     C19084   4.998   7.232   0.971 -1.0451  0.3853  0.8449
  142MOL0     C19085   5.064   7.108   0.953 -0.1881  0.8797 -1.0480
  142MOL0     N19086   5.531   6.582   1.248  0.2954 -0.4666  0.1064
  142MOL0     N19087   5.647   6.548   1.288  0.2506  0.2802 -0.3234
  142MOL0     C19088   6.701   5.866   1.550 -0.6535  0.1251 -0.2049
  142MOL0     C19089   6.715   5.729   1.578 -0.4443 -0.2875 -0.1414
  142MOL0     C19090   6.635   5.281   1.642 -0.2896 -0.6686 -0.6458
  142MOL0     C19091   6.713   5.192   1.702 -0.4290  0.7936  0.1283
  142MOL0     C19092   6.661   5.062   1.729  0.0510  0.6802  0.1221
  142MOL0     C19093   6.539   5.026   1.672  0.6048  0.6043  0.3664
  142MOL0     O19094   6.485   4.904   1.711 -0.3081  0.2160  0.3504
  142MOL0     C19095   6.416   4.819   1.610 -0.3160  0.7666  0.4522
  142MOL0     C19096   6.490   4.692   1.603  0.3605 -0.0740  0.8808
  142MOL0     C19097   6.411   4.599   1.514  1.1733 -0.7939 -1.5053
  142MOL0     C19098   6.486   4.467   1.491  0.5091 -0.1597  0.0469
  142MOL0     C19099   6.623   4.493   1.434  0.0741  1.0776  0.1015
  142MOL0     C19100   6.735   4.504   1.389  0.6930 -0.2132 -0.0501
  142MOL0     C19101   6.473   5.107   1.583  0.2437  0.5661  1.0039
  142MOL0     C19102   6.523   5.234   1.570  1.1689  0.3987  0.0158
  142MOL0     H19103   6.407   5.635   1.461  0.5438 -1.3586  3.1148
  142MOL0     H19104   6.377   5.879   1.452  1.8773  1.7970 -0.1672
  142MOL0     H19105   6.446   6.074   1.353 -1.4596 -2.2038  1.5034
  142MOL0     H19106   6.372   6.110   1.505 -0.4807 -2.4445 -1.5265
  142MOL0     H19107   6.558   6.328   1.499  1.1169  1.4666 -1.9335
  142MOL0     H19108   6.559   6.278   1.334  1.1822 -0.1138  1.4807
  142MOL0     H19109   6.298   6.367   1.483  0.3293 -0.0306  0.5924
  142MOL0     H19110   6.381   6.470   1.371  0.2718  0.5591  0.8456
  142MOL0     H19111   6.302   6.290   1.186 -3.9101  1.6171 -1.2112
  142MOL0     H19112   6.240   6.208   1.334 -0.7261 -0.2891  0.1532
  142MOL0     H19113   6.098   6.402   1.372 -0.2560  0.0135 -0.5887
  142MOL0     H19114   6.192   6.498   1.249  0.3866 -1.6088 -2.6471
  142MOL0     H19115   6.118   6.345   1.067  2.5693  0.7145  1.3413
  142MOL0     H19116   6.028   6.251   1.188  2.1325 -0.6920 -1.3391
  142MOL0     H19117   5.975   6.542   1.152 -0.0400  0.1431 -0.3490
  142MOL0     H19118   5.910   6.438   1.021  0.7282 -0.5284 -0.0855
  142MOL0     H19119   5.864   6.416   1.311 -0.0500  0.7902 -0.2458
  142MOL0     H19120   5.787   6.301   1.189  1.3262 -0.1328 -1.4987
  142MOL0     H19121   5.654   6.453   0.971 -2.0061 -0.9873  0.6812
  142MOL0     H19122   5.413   6.543   0.930  1.4124  3.7194 -0.8662
  142MOL0     H19123   5.319   6.495   1.084  1.1577  1.4046  2.3636
  142MOL0     H19124   5.413   6.763   0.973  0.2600 -0.3206  0.6536
  142MOL0     H19125   5.350   6.736   1.135  1.1328 -3.0968  0.5884
  142MOL0     H19126   5.142   6.662   1.054 -1.6937  0.1872 -2.6437
  142MOL0     H19127   5.204   6.671   0.890 -0.9309  0.3671 -0.6561
  142MOL0     H19128   5.252   6.917   0.922 -1.5470  1.5690 -0.0112
  142MOL0     H19129   5.161   6.903   1.077 -0.2446 -0.5562  0.2874
  142MOL0     H19130   4.809   6.921   0.823  0.1830  0.3729 -0.1054
  142MOL0     H19131   4.600   7.205   0.807 -1.3362 -2.1926 -1.7895
  142MOL0     H19132   4.618   7.041   0.802 -1.1052  3.5522 -3.0976
  142MOL0     H19133   4.592   7.116   0.963  1.9206 -0.0004  1.2289
  142MOL0     H19134   5.014   7.553   1.210 -1.4064 -2.1707 -0.1093
  142MOL0     H19135   4.946   7.747   1.357 -1.2779 -0.4419  1.9291
  142MOL0     H19136   4.555   7.924   1.272  1.0345  2.8168 -1.8362
  142MOL0     H19137   4.587   7.900   1.440  0.0264  0.9106  1.2161
  142MOL0     H19138   4.676   8.171   1.408 -1.4581  1.7054  0.9388
  142MOL0     H19139   4.552   8.148   1.298  1.3366 -1.3619 -1.6109
  142MOL0     H19140   4.524   8.245   1.543 -0.8908  0.6718 -1.0754
  142MOL0     H19141   4.532   8.079   1.602 -3.6318  1.3060  2.2984
  142MOL0     H19142   4.325   8.217   1.435  1.3769  0.3530  0.0138
  142MOL0     H19143   4.323   8.035   1.451 -0.2644 -0.3756  0.8505
  142MOL0     H19144   4.290   8.229   1.671 -0.3700 -0.5232  0.9406
  142MOL0     H19145   4.341   8.062   1.689  1.1578 -1.8872 -1.9815
  142MOL0     H19146   4.105   7.999   1.609 -0.1195 -0.6571 -0.1373
  142MOL0     H19147   4.116   8.113   1.743  5.1627 -1.1111  0.1643
  142MOL0     H19148   4.095   8.179   1.433  0.4923  1.5614 -1.0007
  142MOL0     H19149   4.115   8.304   1.548 -0.8543 -0.4507 -1.8446
  142MOL0     H19150   3.902   8.095   1.566 -0.3530  1.1258 -0.0921
  142MOL0     H19151   3.878   8.243   1.478 -2.1893 -1.9859 -0.5661
  142MOL0     H19152   4.618   7.833   1.112  0.3788 -0.5230 -0.3142
  142MOL0     H19153   4.659   7.627   0.982 -1.3401 -0.5775  0.0182
  142MOL0     H19154   5.053   7.320   1.003  2.4978 -1.1603 -0.4721
  142MOL0     H19155   5.172   7.102   0.964  0.1899  0.0578 -4.1304
  142MOL0     H19156   6.780   5.936   1.573  0.8110 -1.4804 -0.1804
  142MOL0     H19157   6.810   5.701   1.623 -0.8351  1.2244  1.7810
  142MOL0     H19158   6.805   5.223   1.750 -0.9456  2.3208  0.2068
  142MOL0     H19159   6.723   4.996   1.788 -0.3429 -1.0601 -1.3331
  142MOL0     H19160   6.312   4.794   1.632 -0.3133  1.6809  1.6223
  142MOL0     H19161   6.418   4.869   1.513  4.1306  0.6990  0.2972
  142MOL0     H19162   6.491   4.648   1.704 -1.5793 -1.4008  0.3948
  142MOL0     H19163   6.595   4.694   1.574 -0.0384  0.8560 -0.6062
  142MOL0     H19164   6.406   4.653   1.419  3.3418  0.2506 -1.0928
  142MOL0     H19165   6.309   4.587   1.550  0.5880  1.0468 -2.4042
  142MOL0     H19166   6.430   4.407   1.419  0.8898 -0.3292 -0.1109
  142MOL0     H19167   6.491   4.397   1.574  2.0275 -1.2007 -0.8743
  142MOL0     H19168   6.835   4.497   1.352  0.6074 -0.9763 -0.1452
  142MOL0     H19169   6.387   5.076   1.524  0.6784  0.9457  0.1671
  142MOL0     H19170   6.452   5.295   1.515 -4.9197 -4.8035  1.0154
  143MOL0     O19171   5.271   1.032   0.024 -0.9471 -0.8408  0.6243
  143MOL0     C19172   5.347   0.947   0.059  0.1752  0.0296  0.9424
  143MOL0     O19173   5.353   0.890   0.185  0.3060  0.5464  0.2640
  143MOL0     C19174   5.260   0.950   0.265  1.2425 -0.3607  0.0074
  143MOL0     C19175   5.153   0.867   0.309  0.7605 -0.0272  0.1784
  143MOL0     C19176   5.066   0.921   0.403  0.1903  0.0018 -0.1671
  143MOL0     C19177   5.074   1.056   0.455  1.0468  0.5697 -0.1763
  143MOL0     O19178   5.011   1.103   0.572 -0.1902  0.1233 -0.4866
  143MOL0     C19179   4.930   1.010   0.624  0.3050  0.6470 -1.0389
  143MOL0     C19180   4.892   1.043   0.766  0.2726 -0.6763 -0.4480
  143MOL0     C19181   4.750   1.059   0.795 -0.5338 -0.4801  0.2743
  143MOL0     C19182   4.671   0.928   0.789  0.9733  0.2449 -0.1811
  143MOL0     C19183   4.518   0.955   0.784  0.3925  0.4638  0.1597
  143MOL0     C19184   4.462   1.021   0.910  0.7703 -0.2762 -0.1128
  143MOL0     C19185   4.308   1.011   0.876  0.6354 -0.5099  0.1608
  143MOL0     C19186   4.219   1.056   0.993 -0.2153 -0.4426  0.8097
  143MOL0     N19187   4.077   1.030   0.969  0.8590  0.4284 -0.6328
  143MOL0     C19188   3.979   1.096   0.888  0.4658  0.4319 -0.5551
  143MOL0     C19189   3.870   1.023   0.906 -0.2326  1.1650 -1.7571
  143MOL0     C19190   3.743   1.028   0.826 -0.1996  1.0574 -0.2321
  143MOL0     C19191   3.767   0.977   0.675 -0.4321 -0.7587 -1.4546
  143MOL0     C19192   3.639   0.926   0.611 -0.8135  0.3349 -0.3681
  143MOL0     C19193   3.644   0.878   0.463 -0.5096 -0.1747 -0.4130
  143MOL0     O19194   3.724   0.767   0.444 -0.1931  0.5765  0.4532
  143MOL0     C19195   3.668   0.637   0.463  0.7625 -0.4038 -0.1234
  143MOL0     C19196   3.530   0.606   0.489  0.1807 -0.6532 -0.2067
  143MOL0     C19197   3.480   0.478   0.503 -0.7962  0.8256 -0.3393
  143MOL0     C19198   3.341   0.476   0.549 -0.0672  0.2911 -0.2603
  143MOL0     C19199   3.572   0.372   0.507  0.7002  0.6718  0.0618
  143MOL0     C19200   3.533   0.225   0.525  0.3061  0.3701  0.2076
  143MOL0     O19201   3.403   0.195   0.549 -0.3567  0.1478  0.2613
  143MOL0     C19202   3.370   0.081   0.606  0.0425 -0.0469  0.1592
  143MOL0     C19203   3.418   0.047   0.734  1.1362  0.4921  0.1195
  143MOL0     C19204   3.369  -0.072   0.793 -0.6676 -0.7619  0.5031
  143MOL0     C19205   3.281  -0.150   0.722 -0.2736  0.2107  0.5031
  143MOL0     O19206   3.266  -0.283   0.759 -0.0920 -0.2744 -0.3459
  143MOL0     C19207   3.192  -0.302   0.877  0.5923 -0.2533 -0.4125
  143MOL0     C19208   3.279  -0.338   0.996  0.3709  0.2419  0.5606
  143MOL0     C19209   3.199  -0.342   1.125  0.0339 -0.5050  0.1911
  143MOL0     C19210   3.290  -0.395   1.232  0.0756 -0.2041 -0.8125
  143MOL0     C19211   3.226  -0.392   1.374 -0.3809 -0.3798  0.7828
  143MOL0     C19212   3.315  -0.483   1.457  0.3559  0.2256  0.9143
  143MOL0     C19213   3.258  -0.513   1.594  1.2855 -0.4143  0.5531
  143MOL0     C19214   3.367  -0.538   1.690  0.6135  0.2867  0.1520
  143MOL0    Cl19215   3.435  -0.394   1.766  0.0143  0.5087 -0.4491
  143MOL0     C19216   3.235  -0.117   0.591 -0.2188  0.7181 -0.0632
  143MOL0     C19217   3.275   0.008   0.538 -0.0169  0.2101  0.2929
  143MOL0     O19218   3.622   0.138   0.508  0.3737 -0.2305  0.4741
  143MOL0     C19219   3.709   0.404   0.486  0.2787  0.3112 -0.0184
  143MOL0     C19220   3.762   0.528   0.453  0.7706  0.3244 -0.3998
  143MOL0     N19221   3.901   0.921   1.002 -1.0544 -0.2864 -0.2489
  143MOL0     N19222   4.027   0.927   1.042  0.1174 -0.4819  0.1038
  143MOL0     C19223   5.175   1.129   0.407 -0.0011 -0.1064  0.3672
  143MOL0     C19224   5.268   1.080   0.314  0.3960 -0.6364  0.6047
  143MOL0     C19225   5.464   0.908  -0.034 -0.5418  0.3939 -0.5244
  143MOL0     C19226   5.494   0.970  -0.152 -0.0593 -0.0597  0.2164
  143MOL0     C19227   5.595   0.923  -0.235  0.4349 -0.3730 -0.0706
  143MOL0     C19228   5.678   0.817  -0.199  0.5922  0.8739  0.0293
  143MOL0     O19229   5.783   0.783  -0.276  0.2456 -0.0503  0.1023
  143MOL0     C19230   5.819   0.640  -0.282 -0.4512 -1.2497 -0.4025
  143MOL0     C19231   5.716   0.555  -0.340  0.9393  0.1890  0.5145
  143MOL0     C19232   5.761   0.411  -0.350 -0.6885 -0.3341  0.4427
  143MOL0     C19233   5.644   0.322  -0.316 -0.5090  0.2489 -0.5349
  143MOL0     C19234   5.673   0.179  -0.347  0.5051 -0.0567  0.1804
  143MOL0     C19235   5.700   0.065  -0.388  0.4152 -1.0390 -0.7786
  143MOL0     C19236   5.653   0.759  -0.074 -0.1364 -0.6875  0.4192
  143MOL0     C19237   5.552   0.813   0.006 -0.2624  0.9036 -0.2735
  143MOL0     H19238   5.129   0.769   0.269 -0.0511  0.3451 -0.2827
  143MOL0     H19239   4.985   0.852   0.425 -0.3656  0.3229 -1.1195
  143MOL0     H19240   4.843   0.999   0.559  0.1412  1.6399 -0.9993
  143MOL0     H19241   4.977   0.914   0.645  0.2733  0.2810 -2.5088
  143MOL0     H19242   4.939   0.970   0.833  0.8925 -0.5115 -0.6907
  143MOL0     H19243   4.935   1.140   0.795 -1.0968  0.2382 -1.3542
  143MOL0     H19244   4.742   1.105   0.894 -0.8413  2.7953 -1.1425
  143MOL0     H19245   4.710   1.131   0.723  1.2749  0.3999  0.0886
  143MOL0     H19246   4.694   0.869   0.699 -0.1014 -0.5242  0.0205
  143MOL0     H19247   4.698   0.875   0.881  0.5956  1.3156  0.5634
  143MOL0     H19248   4.491   1.008   0.693 -3.0604  0.3294  0.9736
  143MOL0     H19249   4.468   0.858   0.771  1.9350 -0.8226  2.8848
  143MOL0     H19250   4.493   0.964   0.998 -0.5207 -1.3699 -0.3286
  143MOL0     H19251   4.489   1.127   0.915 -0.9885  0.1778  0.6552
  143MOL0     H19252   4.283   1.069   0.786 -0.1988 -1.0284  0.0530
  143MOL0     H19253   4.278   0.907   0.860 -2.8700  0.6470 -1.8851
  143MOL0     H19254   4.229   1.164   1.004  0.2116 -0.0982 -2.1456
  143MOL0     H19255   4.259   1.018   1.088 -1.9434 -1.1243  1.3029
  143MOL0     H19256   4.002   1.175   0.819 -0.0979  1.0389 -0.0602
  143MOL0     H19257   3.664   0.967   0.871 -0.9058  0.9975 -1.4789
  143MOL0     H19258   3.697   1.127   0.826 -5.4926 -1.0626 -0.1269
  143MOL0     H19259   3.834   0.892   0.687 -0.9946 -1.0068  0.2002
  143MOL0     H19260   3.805   1.061   0.615 -1.5735  2.1605  1.5676
  143MOL0     H19261   3.563   1.005   0.605 -2.8146 -1.5052 -0.2156
  143MOL0     H19262   3.594   0.848   0.673 -2.6587  2.3039  0.9483
  143MOL0     H19263   3.677   0.960   0.398 -2.0998 -1.1279 -2.5390
  143MOL0     H19264   3.543   0.865   0.422 -0.1061  1.7590 -2.2099
  143MOL0     H19265   3.463   0.692   0.495  1.5576  0.8216 -3.3766
  143MOL0     H19266   3.296   0.576   0.540  3.4631  2.2647  1.5880
  143MOL0     H19267   3.271   0.415   0.492 -1.1018  0.3218  0.9310
  143MOL0     H19268   3.334   0.432   0.649  0.1594 -1.0612 -0.8282
  143MOL0     H19269   3.503   0.092   0.783  0.9168  5.0320 -3.0833
  143MOL0     H19270   3.410  -0.109   0.887 -0.5150 -0.2649  0.6347
  143MOL0     H19271   3.129  -0.214   0.893  1.1249  0.4024 -1.8260
  143MOL0     H19272   3.121  -0.385   0.862  1.2482 -0.7585 -0.7892
  143MOL0     H19273   3.336  -0.429   0.972  0.2286  0.2592  0.1427
  143MOL0     H19274   3.349  -0.256   1.011 -2.2862  2.9603 -0.8510
  143MOL0     H19275   3.106  -0.397   1.108 -0.6682  0.8578 -0.5282
  143MOL0     H19276   3.177  -0.237   1.150  0.1608 -0.4053 -0.1157
  143MOL0     H19277   3.306  -0.502   1.214 -3.0550 -0.9156 -0.0336
  143MOL0     H19278   3.387  -0.345   1.242  0.7175 -1.0719 -2.3687
  143MOL0     H19279   3.125  -0.436   1.378 -0.9000  0.7883  0.8136
  143MOL0     H19280   3.219  -0.291   1.415  0.6311 -0.7814  2.0177
  143MOL0     H19281   3.325  -0.580   1.407 -2.9083 -0.6035  1.6036
  143MOL0     H19282   3.413  -0.438   1.475  2.3217 -4.5541  4.2413
  143MOL0     H19283   3.179  -0.588   1.587  1.0467 -0.5541  3.4402
  143MOL0     H19284   3.219  -0.416   1.627  0.8107 -0.1471 -0.7349
  143MOL0     H19285   3.450  -0.584   1.636 -0.9530  0.9221 -3.0020
  143MOL0     H19286   3.343  -0.612   1.767  2.0005  0.0408  0.3887
  143MOL0     H19287   3.177  -0.190   0.536  0.6477  0.6428 -0.9176
  143MOL0     H19288   3.231   0.041   0.444 -1.3985  0.2616  0.9285
  143MOL0     H19289   3.791   0.333   0.483  0.9633  0.9209  2.5168
  143MOL0     H19290   3.864   0.546   0.420  1.0140  2.2563  1.1968
  143MOL0     H19291   5.183   1.228   0.451  0.8468 -0.2232  0.4873
  143MOL0     H19292   5.349   1.143   0.276 -2.5037  1.8246 -2.0597
  143MOL0     H19293   5.433   1.053  -0.187  1.8880  0.9898 -0.8976
  143MOL0     H19294   5.617   0.954  -0.336 -1.0037 -1.7028 -0.8354
  143MOL0     H19295   5.904   0.642  -0.351  1.1086  2.5187  1.3308
  143MOL0     H19296   5.861   0.608  -0.186 -0.6439 -1.2655 -0.3232
  143MOL0     H19297   5.690   0.589  -0.440 -1.6205 -4.5425 -0.7247
  143MOL0     H19298   5.626   0.556  -0.277 -1.3570  0.9920 -2.5567
  143MOL0     H19299   5.841   0.400  -0.276 -2.1474  2.3201  2.6224
  143MOL0     H19300   5.791   0.405  -0.455  1.0151  1.3089  0.7649
  143MOL0     H19301   5.552   0.338  -0.374 -1.0968 -2.6415 -0.5405
  143MOL0     H19302   5.603   0.337  -0.216 -2.4895  0.0768 -1.2764
  143MOL0     H19303   5.741  -0.021  -0.435 -0.5250 -2.0455  0.1915
  143MOL0     H19304   5.722   0.685  -0.034  0.0004 -2.2916 -2.5054
  143MOL0     H19305   5.547   0.778   0.108  0.6494  3.4219  0.7158
  144MOL0     O19306   0.712   4.771  10.936  0.1698  0.4452 -0.2632
  144MOL0     C19307   0.696   4.893  10.945 -0.3608  0.6259 -0.7586
  144MOL0     O19308   0.584   4.943  10.991 -0.2876  0.1843  0.3762
  144MOL0     C19309   0.499   4.862  11.063  0.0400  0.2483 -0.4330
  144MOL0     C19310   0.546   4.813  11.177 -0.0716  0.3857  0.5508
  144MOL0     C19311   0.480   4.713  11.249 -1.1688  0.8906  0.2355
  144MOL0     C19312   0.353   4.682  11.211  1.0947 -0.2024 -0.6790
  144MOL0     O19313   0.294   4.588  11.297 -0.0282 -0.2099 -0.3054
  144MOL0     C19314   0.147   4.588  11.279 -0.7350  0.0058 -0.3301
  144MOL0     C19315   0.081   4.498  11.385  0.3925  0.1249  1.3454
  144MOL0     C19316   0.096   4.559  11.520  0.8822 -0.9786 -0.2757
  144MOL0     C19317   0.032   4.473  11.631  0.5047 -0.6301  0.0889
  144MOL0     C19318  -0.119   4.473  11.620 -0.2513  0.8072 -0.1545
  144MOL0     C19319  -0.160   4.389  11.743  0.6251 -0.9441  0.2799
  144MOL0     C19320  -0.304   4.334  11.734  0.1828  0.6594  0.1492
  144MOL0     C19321  -0.303   4.185  11.691 -0.4905  0.1500 -0.6602
  144MOL0     N19322  -0.431   4.125  11.707 -0.6000  0.8554 -0.5799
  144MOL0     C19323  -0.507   4.116  11.819  0.1772  0.2287  0.7486
  144MOL0     C19324  -0.632   4.076  11.771  0.1509  0.8986 -0.6946
  144MOL0     C19325  -0.756   4.071  11.847  0.0101 -0.3575  0.1289
  144MOL0     C19326  -0.870   4.136  11.770  0.8214  0.7139 -1.0285
  144MOL0     C19327  -0.852   4.283  11.743 -0.4746 -0.6239 -0.3203
  144MOL0     C19328  -0.750   4.328  11.645 -0.1163  0.6872  0.3844
  144MOL0     O19329  -0.736   4.462  11.638  0.5718  0.4369  0.2027
  144MOL0     C19330  -0.644   4.511  11.552  0.4782 -0.1669  0.3870
  144MOL0     C19331  -0.641   4.650  11.524 -0.2880  0.0589 -0.7656
  144MOL0     C19332  -0.564   4.704  11.422 -0.1222 -0.3514 -0.2142
  144MOL0     C19333  -0.595   4.849  11.390  1.3191 -0.9180 -1.2891
  144MOL0     C19334  -0.467   4.627  11.354  0.6482 -1.3927 -0.2308
  144MOL0     C19335  -0.371   4.684  11.251 -0.3884  0.1297  1.0172
  144MOL0     O19336  -0.353   4.816  11.239  0.2003 -0.8410  0.2719
  144MOL0     C19337  -0.275   4.856  11.136  0.1595 -0.1313  0.5323
  144MOL0     C19338  -0.141   4.876  11.150  0.8885  0.3317 -0.3554
  144MOL0     C19339  -0.053   4.924  11.052  0.4270  0.1332  0.1013
  144MOL0     C19340  -0.101   4.944  10.925  0.0314  0.2758 -0.5615
  144MOL0     O19341  -0.012   4.996  10.837 -0.9704  0.1541  0.2394
  144MOL0     C19342  -0.066   5.084  10.731  0.5917 -0.4745  0.2731
  144MOL0     C19343   0.033   5.162  10.653  0.0152 -0.3619 -0.4710
  144MOL0     C19344   0.110   5.265  10.746  0.1992  0.1168  0.5176
  144MOL0     C19345   0.188   5.357  10.643  0.1167  0.8639 -0.6905
  144MOL0     C19346   0.253   5.460  10.735  0.1435  0.3046  0.3066
  144MOL0     C19347   0.289   5.600  10.671 -1.4926  0.6364 -0.0224
  144MOL0     C19348   0.363   5.697  10.761 -0.3972 -0.1036 -0.2187
  144MOL0     C19349   0.276   5.751  10.872  0.2038  0.2619 -0.7585
  144MOL0    Cl19350   0.149   5.853  10.805 -0.3552 -0.2155 -0.5209
  144MOL0     C19351  -0.242   4.930  10.908 -1.0400  0.5414  0.5682
  144MOL0     C19352  -0.329   4.883  11.009  0.5604  0.7438 -0.7602
  144MOL0     O19353  -0.309   4.601  11.181  0.1906 -0.0826  0.0551
  144MOL0     C19354  -0.479   4.486  11.373  0.0293 -0.0333 -0.4620
  144MOL0     C19355  -0.570   4.429  11.466 -1.2927 -0.2369 -1.0943
  144MOL0     N19356  -0.621   4.052  11.633  0.0734  0.8957 -0.1946
  144MOL0     N19357  -0.502   4.070  11.603  0.0429  0.2389 -0.4398
  144MOL0     C19358   0.289   4.742  11.101  0.9378  0.0679 -0.8497
  144MOL0     C19359   0.366   4.836  11.029 -0.5380 -0.4550 -0.6873
  144MOL0     C19360   0.809   4.967  10.911 -0.0443 -1.1725  0.8463
  144MOL0     C19361   0.805   5.113  10.931 -0.3707 -0.3836  0.1080
  144MOL0     C19362   0.910   5.191  10.888  0.0360 -0.2798  0.1880
  144MOL0     C19363   1.019   5.130  10.818  0.0715  0.7052  0.2134
  144MOL0     O19364   1.110   5.229  10.775 -0.3888 -0.2490  0.8391
  144MOL0     C19365   1.217   5.180  10.693 -0.0359 -0.1956 -0.0307
  144MOL0     C19366   1.180   5.150  10.550  0.0854 -0.0993  0.1677
  144MOL0     C19367   1.117   5.261  10.464  0.7634  0.2107  0.3605
  144MOL0     C19368   1.079   5.227  10.324 -0.6886 -0.2361  0.1304
  144MOL0     C19369   1.202   5.186  10.258  0.3709  1.0594 -0.0277
  144MOL0     C19370   1.308   5.162  10.187  1.1152  0.2829  0.2347
  144MOL0     C19371   1.022   4.990  10.793 -0.7050  0.1727 -0.5467
  144MOL0     C19372   0.921   4.914  10.839 -0.8036 -0.2996  0.3384
  144MOL0     H19373   0.646   4.850  11.200 -0.1618  0.7473  0.3573
  144MOL0     H19374   0.536   4.680  11.336  4.4805  2.7440 -2.2224
  144MOL0     H19375   0.111   4.689  11.297 -2.9939 -0.9466  0.8876
  144MOL0     H19376   0.118   4.548  11.181 -0.2778  2.4086 -1.5167
  144MOL0     H19377  -0.022   4.476  11.359  1.4362 -3.9251 -0.0923
  144MOL0     H19378   0.124   4.397  11.387  1.9205  0.6918 -0.4653
  144MOL0     H19379   0.196   4.601  11.534  0.3032  0.1986  0.5355
  144MOL0     H19380   0.026   4.644  11.524  2.3617  0.5392 -3.2351
  144MOL0     H19381   0.073   4.373  11.612  1.0081 -0.8087  1.9544
  144MOL0     H19382   0.071   4.499  11.730  2.6790 -0.7678 -0.6665
  144MOL0     H19383  -0.156   4.576  11.624 -0.3010  0.8751 -1.8337
  144MOL0     H19384  -0.153   4.425  11.528  0.6063  0.6223 -0.3832
  144MOL0     H19385  -0.083   4.315  11.766  2.8205  1.3161  0.6509
  144MOL0     H19386  -0.158   4.462  11.824  0.5582 -0.1952 -0.3780
  144MOL0     H19387  -0.333   4.331  11.840  1.3504  2.6466  0.5873
  144MOL0     H19388  -0.360   4.398  11.665  0.3809  1.2045  0.4826
  144MOL0     H19389  -0.236   4.128  11.755 -2.0605 -3.4265 -1.9023
  144MOL0     H19390  -0.279   4.167  11.586 -0.4639 -1.0510 -0.4596
  144MOL0     H19391  -0.482   4.144  11.921 -0.4354  2.2246  0.3848
  144MOL0     H19392  -0.775   3.971  11.888  1.3430 -1.2398 -1.3152
  144MOL0     H19393  -0.745   4.132  11.937 -0.9485 -1.1370  0.8096
  144MOL0     H19394  -0.954   4.128  11.839  1.0926  0.8840 -0.6775
  144MOL0     H19395  -0.884   4.079  11.677  0.6439  1.9385 -1.7718
  144MOL0     H19396  -0.828   4.334  11.837  0.8110  0.7094 -1.3359
  144MOL0     H19397  -0.951   4.325  11.725 -0.2245 -0.5285 -1.5438
  144MOL0     H19398  -0.783   4.293  11.547 -0.9575  4.7400 -0.9456
  144MOL0     H19399  -0.651   4.292  11.675 -0.4621  1.7600  3.2255
  144MOL0     H19400  -0.697   4.718  11.587 -1.3660 -0.1657 -1.4627
  144MOL0     H19401  -0.570   4.875  11.287 -0.9937 -0.7204 -1.8526
  144MOL0     H19402  -0.698   4.877  11.412  2.2814  1.9872  0.0531
  144MOL0     H19403  -0.540   4.922  11.451  1.1567 -1.2146 -0.7787
  144MOL0     H19404  -0.120   4.843  11.251  1.3365  1.0725 -0.1999
  144MOL0     H19405   0.052   4.943  11.075  0.2997  0.2287  0.6219
  144MOL0     H19406  -0.114   5.024  10.653 -0.6919 -1.3750  1.6895
  144MOL0     H19407  -0.138   5.160  10.764 -0.1439 -0.8904 -0.3350
  144MOL0     H19408   0.098   5.090  10.602  1.7856  0.9999 -0.2508
  144MOL0     H19409  -0.018   5.215  10.572 -0.3865 -2.9274 -2.0219
  144MOL0     H19410   0.181   5.217  10.814  2.8134  1.4845 -1.0749
  144MOL0     H19411   0.032   5.322  10.797  0.4665 -0.5406  1.7150
  144MOL0     H19412   0.256   5.307  10.573  2.3961  1.2563  1.1097
  144MOL0     H19413   0.107   5.399  10.584 -0.2754 -1.6514 -2.0868
  144MOL0     H19414   0.335   5.409  10.787  1.6815  1.5817 -0.7446
  144MOL0     H19415   0.175   5.490  10.805  2.7326 -0.2713  3.6794
  144MOL0     H19416   0.331   5.586  10.571 -2.8043  1.8486 -0.7761
  144MOL0     H19417   0.191   5.645  10.655 -1.9829 -0.4335 -0.1654
  144MOL0     H19418   0.380   5.785  10.699 -2.8573  0.3898 -0.2813
  144MOL0     H19419   0.451   5.640  10.792 -0.0076 -1.4200 -3.4697
  144MOL0     H19420   0.330   5.815  10.942 -2.1095  0.4335  1.0112
  144MOL0     H19421   0.236   5.659  10.917  2.8306 -1.4919 -1.7653
  144MOL0     H19422  -0.285   4.942  10.809 -0.8827 -1.0824  0.2819
  144MOL0     H19423  -0.432   4.855  10.989  0.6430 -1.1623  1.1292
  144MOL0     H19424  -0.415   4.418  11.317  2.5799  2.6339 -1.0748
  144MOL0     H19425  -0.573   4.321  11.459  2.9874 -0.7027  0.9583
  144MOL0     H19426   0.185   4.730  11.074  0.4834  0.6312  0.5488
  144MOL0     H19427   0.325   4.891  10.945  2.0367  0.3095 -1.5335
  144MOL0     H19428   0.720   5.172  10.963 -0.0067  2.0949 -3.0205
  144MOL0     H19429   0.928   5.298  10.890  1.9681 -0.5254 -1.5370
  144MOL0     H19430   1.294   5.257  10.701 -1.4546  1.4825 -1.5387
  144MOL0     H19431   1.269   5.096  10.739 -1.3575 -1.0103  0.0095
  144MOL0     H19432   1.113   5.064  10.554 -0.5355  0.3680  0.0432
  144MOL0     H19433   1.265   5.109  10.496 -0.6435 -2.1566  0.4862
  144MOL0     H19434   1.200   5.332  10.461  0.3355  0.7043  0.0885
  144MOL0     H19435   1.038   5.319  10.512  0.6416 -0.1617  0.6190
  144MOL0     H19436   1.039   5.309  10.264 -2.8184 -1.9991 -1.0249
  144MOL0     H19437   1.004   5.146  10.324  0.3384 -1.2260  1.2521
  144MOL0     H19438   1.390   5.134  10.123 -1.0864 -1.4825 -2.0305
  144MOL0     H19439   1.097   4.933  10.738 -0.8353  0.7268 -1.3176
  144MOL0     H19440   0.929   4.807  10.828 -0.7660 -0.0436 -3.3190
  145MOL0     O19441   6.126   6.307   3.266 -0.3033  0.6762 -0.4256
  145MOL0     C19442   6.110   6.331   3.152 -0.4749  0.9447 -0.0575
  145MOL0     O19443   6.209   6.360   3.062  0.3922 -0.7046  0.2222
  145MOL0     C19444   6.336   6.326   3.101 -0.3677 -0.0924  0.3270
  145MOL0     C19445   6.405   6.212   3.059 -0.0889 -0.4088  0.6512
  145MOL0     C19446   6.543   6.187   3.063 -0.1478  0.5294  0.4062
  145MOL0     C19447   6.619   6.275   3.136 -0.3598 -0.5100 -0.3135
  145MOL0     O19448   6.754   6.258   3.173  0.9432 -0.1711 -0.2552
  145MOL0     C19449   6.804   6.131   3.143  0.0362 -0.0373  0.1447
  145MOL0     C19450   6.958   6.134   3.127 -0.5993 -0.1552  0.3654
  145MOL0     C19451   7.002   6.179   2.988  0.2118 -0.1237  0.6758
  145MOL0     C19452   7.155   6.183   2.986 -0.1614  0.4901 -0.0946
  145MOL0     C19453   7.222   6.224   2.857  0.3105  0.3338  0.5243
  145MOL0     C19454   7.362   6.168   2.854 -0.3264  0.2144  0.3268
  145MOL0     C19455   7.426   6.201   2.719  0.3692  0.8397  0.2004
  145MOL0     C19456   7.549   6.109   2.675 -0.1270 -0.8405 -0.1916
  145MOL0     N19457   7.678   6.158   2.735  0.0092  0.3633 -0.3359
  145MOL0     C19458   7.693   6.277   2.811  0.1978  0.0456  0.6993
  145MOL0     C19459   7.810   6.265   2.874  0.3716  0.3547  0.0628
  145MOL0     C19460   7.864   6.372   2.956  0.4522  0.1002 -0.0716
  145MOL0     C19461   7.983   6.442   2.882  0.0236  0.0033 -1.0712
  145MOL0     C19462   8.060   6.552   2.956 -1.0354  0.0798 -0.3177
  145MOL0     C19463   8.151   6.640   2.868  0.5864 -0.4504 -1.3927
  145MOL0     O19464   8.103   6.679   2.739  0.6403 -0.4263 -0.3274
  145MOL0     C19465   8.020   6.793   2.732 -0.0598  0.1114 -0.1621
  145MOL0     C19466   7.982   6.826   2.601 -0.2780  0.2094 -0.3409
  145MOL0     C19467   7.873   6.903   2.578 -0.1798  0.0790  0.3972
  145MOL0     C19468   7.823   6.914   2.439  0.1290  0.3967 -0.1604
  145MOL0     C19469   7.808   6.976   2.678  0.0532 -0.1748  0.7110
  145MOL0     C19470   7.696   7.070   2.669  0.1328  0.2123  0.2969
  145MOL0     O19471   7.639   7.107   2.791  0.0498  0.2388 -0.0009
  145MOL0     C19472   7.610   7.238   2.795  0.5506  0.8045  0.7750
  145MOL0     C19473   7.482   7.277   2.812  0.7246  0.3020 -0.4442
  145MOL0     C19474   7.452   7.413   2.819  0.0935 -1.0036  0.1865
  145MOL0     C19475   7.549   7.513   2.812  0.0569  0.1878  0.5752
  145MOL0     O19476   7.527   7.649   2.808 -0.4122  0.2380  0.2576
  145MOL0     C19477   7.390   7.696   2.817 -0.1091 -0.1969 -0.2873
  145MOL0     C19478   7.309   7.698   2.689 -0.1162 -0.0243  0.5230
  145MOL0     C19479   7.373   7.760   2.556 -0.2234  0.6570 -0.1535
  145MOL0     C19480   7.285   7.768   2.428 -0.6477  0.4640 -0.6357
  145MOL0     C19481   7.368   7.801   2.305  0.5098  0.2627 -0.2676
  145MOL0     C19482   7.280   7.794   2.181 -0.4574 -0.8216 -0.0059
  145MOL0     C19483   7.142   7.862   2.188 -0.0483  0.2619 -0.9931
  145MOL0     C19484   7.071   7.884   2.052 -0.0908  0.2469  0.4630
  145MOL0    Cl19485   6.898   7.955   2.071 -0.2100 -0.2278  0.2690
  145MOL0     C19486   7.679   7.471   2.800  0.0767 -0.4328  0.3061
  145MOL0     C19487   7.716   7.338   2.793  0.8908  0.0667  0.1193
  145MOL0     O19488   7.650   7.103   2.556  0.1354  0.4737 -1.1166
  145MOL0     C19489   7.870   6.963   2.803 -0.2018 -0.5070  0.3753
  145MOL0     C19490   7.965   6.863   2.839  0.0097 -0.9439  0.7596
  145MOL0     N19491   7.862   6.147   2.848  0.3023 -0.2304  0.3965
  145MOL0     N19492   7.783   6.079   2.768  0.7314  0.8928 -0.1935
  145MOL0     C19493   6.557   6.395   3.186 -0.3712  0.7505  0.4096
  145MOL0     C19494   6.421   6.421   3.166 -0.1732 -0.2563 -0.4260
  145MOL0     C19495   5.979   6.316   3.107  0.2021  0.4862  0.1652
  145MOL0     C19496   5.934   6.322   2.968 -0.0461 -0.2327  0.2400
  145MOL0     C19497   5.803   6.291   2.932 -0.0710 -0.0226  0.0447
  145MOL0     C19498   5.707   6.258   3.025 -0.2012  0.0006  0.5385
  145MOL0     O19499   5.576   6.236   2.989 -0.1570  0.2547 -0.8158
  145MOL0     C19500   5.558   6.112   2.923  0.1818  0.2926  0.2316
  145MOL0     C19501   5.572   5.986   3.015 -0.7860  0.6206  0.1361
  145MOL0     C19502   5.518   5.861   2.943  0.1902 -0.8613  0.8099
  145MOL0     C19503   5.525   5.746   3.032  0.3955  0.8062  0.3370
  145MOL0     C19504   5.469   5.627   2.963  1.3595 -0.2953  1.3763
  145MOL0     C19505   5.429   5.526   2.898 -0.9881  0.1918 -0.2605
  145MOL0     C19506   5.746   6.246   3.156  0.2643 -0.3755  0.2594
  145MOL0     C19507   5.872   6.269   3.195 -0.4813 -0.1466 -0.0557
  145MOL0     H19508   6.352   6.129   3.013 -2.4161 -0.5084  3.2578
  145MOL0     H19509   6.581   6.092   3.027  0.5669 -0.2650  3.0208
  145MOL0     H19510   6.787   6.064   3.228 -0.0063 -0.0839  0.0993
  145MOL0     H19511   6.776   6.085   3.048  0.6073 -1.0678  0.4626
  145MOL0     H19512   6.989   6.207   3.201  1.0059  1.0652 -1.4309
  145MOL0     H19513   6.994   6.032   3.146 -2.5926 -0.7067  1.5925
  145MOL0     H19514   6.971   6.111   2.908  0.7990  0.0291  0.3079
  145MOL0     H19515   6.959   6.279   2.975 -0.9310 -0.7877 -1.0901
  145MOL0     H19516   7.206   6.234   3.069  1.6231  0.0353 -0.8619
  145MOL0     H19517   7.189   6.084   3.019 -0.7511 -0.1484 -1.3399
  145MOL0     H19518   7.163   6.173   2.780  0.0509  0.7109  0.4738
  145MOL0     H19519   7.226   6.331   2.837  4.2706  0.5004  1.3451
  145MOL0     H19520   7.424   6.221   2.927 -0.3974  2.1829 -0.9689
  145MOL0     H19521   7.361   6.061   2.875 -0.6759  0.5094  1.9478
  145MOL0     H19522   7.362   6.176   2.634 -1.9208  0.2673  1.9701
  145MOL0     H19523   7.447   6.307   2.700 -1.9070  1.1020 -1.2478
  145MOL0     H19524   7.556   6.102   2.566 -1.5555  2.4397 -0.6064
  145MOL0     H19525   7.533   6.014   2.727 -0.0568  1.1846  3.9129
  145MOL0     H19526   7.630   6.364   2.825 -1.8147 -1.2288 -0.0987
  145MOL0     H19527   7.792   6.454   2.966 -3.7120 -3.4455  2.4666
  145MOL0     H19528   7.867   6.343   3.061 -1.8235 -3.3785 -0.7925
  145MOL0     H19529   7.941   6.485   2.791 -1.2163 -3.1550 -2.1249
  145MOL0     H19530   8.068   6.374   2.871  0.5345  0.2805  0.8419
  145MOL0     H19531   8.114   6.520   3.046 -0.5442  1.1092 -0.2254
  145MOL0     H19532   7.983   6.616   3.000 -1.0398  1.1884 -1.8520
  145MOL0     H19533   8.238   6.576   2.850 -0.0531 -0.7739 -3.6046
  145MOL0     H19534   8.181   6.730   2.923 -1.9128 -0.3510 -0.0374
  145MOL0     H19535   8.022   6.754   2.530 -0.7533 -0.6010  0.1868
  145MOL0     H19536   7.881   6.854   2.369 -3.1298  0.4273 -3.2108
  145MOL0     H19537   7.723   6.870   2.448  0.5278 -0.1028  3.1285
  145MOL0     H19538   7.826   7.018   2.405  0.1594  1.1963  2.1167
  145MOL0     H19539   7.404   7.201   2.817 -0.2704  1.4076  1.9243
  145MOL0     H19540   7.350   7.445   2.833  0.7629  1.3852 -0.0481
  145MOL0     H19541   7.336   7.644   2.896 -1.0395 -1.9558 -1.9851
  145MOL0     H19542   7.392   7.803   2.840 -1.7672 -0.3776  0.9238
  145MOL0     H19543   7.265   7.605   2.654 -0.8333  1.1623 -1.9993
  145MOL0     H19544   7.226   7.764   2.714 -0.2564 -0.0680  0.1838
  145MOL0     H19545   7.465   7.703   2.539 -0.9025 -1.4500  2.5421
  145MOL0     H19546   7.403   7.865   2.568 -0.3884  1.0579 -2.7074
  145MOL0     H19547   7.239   7.669   2.431  2.8143 -1.2940  1.8805
  145MOL0     H19548   7.213   7.850   2.440 -0.7626 -0.0022  2.9765
  145MOL0     H19549   7.451   7.732   2.287  0.4799  0.3023 -0.5458
  145MOL0     H19550   7.398   7.906   2.302 -1.1051  0.7382 -3.2660
  145MOL0     H19551   7.337   7.838   2.098 -0.2750  2.3668  1.6720
  145MOL0     H19552   7.261   7.687   2.167  1.0513 -1.4453  2.2292
  145MOL0     H19553   7.147   7.963   2.229 -1.9573  1.7190 -3.9716
  145MOL0     H19554   7.080   7.788   2.239  3.7983 -1.9914  0.8608
  145MOL0     H19555   7.065   7.785   2.005  0.0127  1.0913 -1.4376
  145MOL0     H19556   7.135   7.950   1.993 -1.8811  2.8068  1.2330
  145MOL0     H19557   7.761   7.542   2.799  1.4003 -1.8770 -1.4707
  145MOL0     H19558   7.818   7.308   2.771  0.7977 -0.7542  0.7409
  145MOL0     H19559   7.839   7.025   2.887 -1.8086  0.7605 -1.0870
  145MOL0     H19560   7.981   6.843   2.944 -0.2580 -2.1443  0.5858
  145MOL0     H19561   6.614   6.465   3.247  1.0044 -0.3765  0.4932
  145MOL0     H19562   6.385   6.517   3.201 -2.6486 -1.1129 -0.4411
  145MOL0     H19563   6.010   6.323   2.891 -1.8789  0.0074 -1.6590
  145MOL0     H19564   5.771   6.303   2.829  0.7975 -0.1590 -0.2490
  145MOL0     H19565   5.452   6.116   2.899 -0.1723 -0.6130  1.5155
  145MOL0     H19566   5.619   6.094   2.834  0.5825 -0.0564  0.5713
  145MOL0     H19567   5.522   6.013   3.108 -1.0065 -0.4085  0.3337
  145MOL0     H19568   5.680   5.982   3.034 -0.1750 -0.1997 -2.8448
  145MOL0     H19569   5.578   5.846   2.853 -1.9478  0.9022 -1.0622
  145MOL0     H19570   5.416   5.886   2.910 -0.8602 -3.6389  1.6573
  145MOL0     H19571   5.468   5.772   3.122  1.1091  4.1939 -0.0521
  145MOL0     H19572   5.631   5.735   3.054  0.8681  2.1266 -1.0857
  145MOL0     H19573   5.389   5.440   2.849  0.8191 -1.1133  0.4438
  145MOL0     H19574   5.674   6.218   3.232 -0.5877 -0.3632 -0.5316
  145MOL0     H19575   5.901   6.249   3.298  0.8291 -0.3926 -0.4493
  146MOL0     O19576   3.271   3.307   6.580  0.0692 -0.8567 -0.6610
  146MOL0     C19577   3.336   3.402   6.630  0.0742 -0.4774 -0.5513
  146MOL0     O19578   3.305   3.541   6.625 -0.2462  0.2035 -0.2384
  146MOL0     C19579   3.191   3.582   6.555 -0.4353  0.9894 -0.1125
  146MOL0     C19580   3.188   3.597   6.415 -0.1698  0.5578 -0.0096
  146MOL0     C19581   3.070   3.634   6.352  0.0783 -1.2353 -0.5725
  146MOL0     C19582   2.955   3.658   6.428  0.0578  0.2355  1.5974
  146MOL0     O19583   2.834   3.687   6.368  0.8679  0.8251 -0.0034
  146MOL0     C19584   2.817   3.817   6.325 -0.2664 -0.3170  0.6568
  146MOL0     C19585   2.705   3.898   6.390 -1.2286 -0.0177  0.8826
  146MOL0     C19586   2.720   3.906   6.541 -0.0653  0.5022  0.1310
  146MOL0     C19587   2.617   3.994   6.603  0.4910 -1.0560  0.4452
  146MOL0     C19588   2.474   3.962   6.559 -0.5028  1.0261 -0.2617
  146MOL0     C19589   2.370   4.048   6.631  0.2233  0.4985 -0.2335
  146MOL0     C19590   2.363   4.194   6.586 -0.2023  0.3382  0.2489
  146MOL0     C19591   2.258   4.265   6.663  1.1010  1.0726  0.4113
  146MOL0     N19592   2.241   4.397   6.591 -0.4297 -0.2840  0.1345
  146MOL0     C19593   2.182   4.433   6.476  0.0750 -0.6377  0.2972
  146MOL0     C19594   2.199   4.565   6.464  0.5752 -0.2774 -0.4657
  146MOL0     C19595   2.174   4.653   6.341  0.2105 -0.0134  0.1340
  146MOL0     C19596   2.267   4.601   6.223 -0.3242 -0.6095 -0.0001
  146MOL0     C19597   2.293   4.704   6.117 -0.9348  0.0910  0.0070
  146MOL0     C19598   2.167   4.746   6.039 -0.8677 -0.3698 -0.3205
  146MOL0     O19599   2.190   4.826   5.926 -0.0112  0.0971 -0.1170
  146MOL0     C19600   2.079   4.865   5.856 -0.5334 -0.2920  0.8204
  146MOL0     C19601   1.950   4.801   5.856  0.5357 -0.3425 -0.4875
  146MOL0     C19602   1.845   4.867   5.803 -0.0787 -0.2660 -0.0099
  146MOL0     C19603   1.706   4.799   5.815 -0.8148 -0.6935 -0.6599
  146MOL0     C19604   1.864   4.988   5.740 -0.2542 -0.0055  0.5478
  146MOL0     C19605   1.756   5.061   5.670 -1.0429 -0.8313  0.2725
  146MOL0     O19606   1.777   5.196   5.641 -0.0132 -0.5819  0.2772
  146MOL0     C19607   1.687   5.276   5.573  0.6706  0.2996 -0.1827
  146MOL0     C19608   1.645   5.407   5.617 -0.3070 -0.0412  0.1648
  146MOL0     C19609   1.541   5.476   5.560 -0.3637  0.6714  0.0175
  146MOL0     C19610   1.455   5.413   5.462  0.2624  1.0255 -0.1516
  146MOL0     O19611   1.336   5.474   5.421 -0.2759  0.1506  0.2115
  146MOL0     C19612   1.323   5.617   5.418 -1.0090  0.3142  1.3211
  146MOL0     C19613   1.423   5.654   5.297 -0.4756 -0.2627  0.1896
  146MOL0     C19614   1.386   5.590   5.162 -0.7541  0.6326  0.3342
  146MOL0     C19615   1.492   5.634   5.049  0.4079  0.1630  0.5004
  146MOL0     C19616   1.428   5.589   4.914 -0.1384  0.2472  0.0978
  146MOL0     C19617   1.508   5.643   4.788 -0.1122 -0.4369 -0.1028
  146MOL0     C19618   1.418   5.677   4.677 -0.6336  0.7645 -0.4118
  146MOL0     C19619   1.494   5.736   4.544  1.0329  0.7428 -0.4528
  146MOL0    Cl19620   1.534   5.905   4.583  0.0290  0.0819 -0.1179
  146MOL0     C19621   1.492   5.291   5.415 -0.2841 -0.2537  0.8427
  146MOL0     C19622   1.610   5.230   5.464  0.3782  0.3685 -0.4785
  146MOL0     O19623   1.666   4.994   5.623 -0.8113  0.4363  0.0260
  146MOL0     C19624   1.997   5.040   5.727 -0.0591  0.1690  0.3111
  146MOL0     C19625   2.099   4.974   5.781 -0.0428  0.2551 -0.0858
  146MOL0     N19626   2.264   4.616   6.578  0.0787 -0.2844  0.1910
  146MOL0     N19627   2.287   4.510   6.650 -0.3609  1.7237  0.0109
  146MOL0     C19628   2.959   3.629   6.562 -0.2462 -0.2246 -0.0541
  146MOL0     C19629   3.073   3.590   6.623 -0.4408  0.0020 -0.3097
  146MOL0     C19630   3.460   3.360   6.694 -1.0223 -0.4823  0.2914
  146MOL0     C19631   3.487   3.219   6.722 -0.1614 -0.3773 -0.5776
  146MOL0     C19632   3.600   3.189   6.789  0.5756  0.7118 -0.5158
  146MOL0     C19633   3.703   3.277   6.822 -0.2077  0.6064 -0.1117
  146MOL0     O19634   3.814   3.221   6.883  0.3632  0.1258 -0.3276
  146MOL0     C19635   3.909   3.310   6.947  0.4405 -0.5651  0.5281
  146MOL0     C19636   4.005   3.233   7.048 -0.1208  1.0315 -0.2305
  146MOL0     C19637   4.068   3.115   6.982  0.2939 -0.4747 -0.5132
  146MOL0     C19638   4.199   3.137   6.912 -0.5529  0.8385  0.2323
  146MOL0     C19639   4.295   3.196   7.001  0.0364 -0.2095 -0.8864
  146MOL0     C19640   4.377   3.251   7.075 -0.4907 -0.6733 -0.4857
  146MOL0     C19641   3.682   3.414   6.789  0.0730  0.1922  0.3858
  146MOL0     C19642   3.556   3.461   6.731  0.4382 -0.3911 -0.2980
  146MOL0     H19643   3.277   3.571   6.357 -0.8697 -3.5604  0.4543
  146MOL0     H19644   3.076   3.646   6.244 -1.9648 -0.9201 -0.6823
  146MOL0     H19645   2.910   3.870   6.349  0.7715 -1.9446  0.4728
  146MOL0     H19646   2.805   3.810   6.216 -1.1913 -2.4774  0.8441
  146MOL0     H19647   2.690   3.994   6.339  1.0845 -0.0932 -0.0706
  146MOL0     H19648   2.617   3.833   6.383 -2.7903  1.8323  2.2139
  146MOL0     H19649   2.706   3.804   6.579 -0.4183 -0.5962 -2.7303
  146MOL0     H19650   2.820   3.923   6.582  1.4462 -4.6373 -0.6906
  146MOL0     H19651   2.621   4.000   6.712  1.1679  3.0388  0.3227
  146MOL0     H19652   2.654   4.093   6.576  1.7371 -0.9961  2.2365
  146MOL0     H19653   2.449   3.984   6.455 -1.1428 -0.7162 -0.5061
  146MOL0     H19654   2.464   3.854   6.571 -1.8597  1.0598 -0.8546
  146MOL0     H19655   2.279   3.991   6.612  0.4073 -0.7798  2.3343
  146MOL0     H19656   2.397   4.037   6.736 -3.4312  2.1536  1.0443
  146MOL0     H19657   2.456   4.245   6.615  0.9660 -1.0545 -0.8859
  146MOL0     H19658   2.368   4.209   6.477 -2.4786 -0.2959  0.0081
  146MOL0     H19659   2.279   4.264   6.770  0.4761 -2.8958  0.6505
  146MOL0     H19660   2.162   4.216   6.645  2.5105 -0.4676 -4.5810
  146MOL0     H19661   2.145   4.361   6.403  1.2743 -1.9230  0.9186
  146MOL0     H19662   2.071   4.631   6.314 -0.5138  1.6479  1.4206
  146MOL0     H19663   2.167   4.759   6.363  0.9901 -0.3888  2.5224
  146MOL0     H19664   2.224   4.510   6.181 -0.4450  0.0798 -1.4321
  146MOL0     H19665   2.362   4.562   6.261 -1.0190 -1.4310  0.9717
  146MOL0     H19666   2.364   4.658   6.047  0.4856  1.5135  0.4470
  146MOL0     H19667   2.347   4.786   6.165  1.5224 -0.0149 -2.3140
  146MOL0     H19668   2.094   4.793   6.105  1.6644 -0.1588  2.5428
  146MOL0     H19669   2.126   4.653   5.999  0.1871 -0.6518 -0.7780
  146MOL0     H19670   1.951   4.702   5.901  2.2159  0.2516  0.9105
  146MOL0     H19671   1.627   4.868   5.846 -0.6541  0.1607 -2.0471
  146MOL0     H19672   1.679   4.767   5.714 -0.4730 -0.9967 -0.6590
  146MOL0     H19673   1.711   4.713   5.883  2.1087 -0.6365 -0.6812
  146MOL0     H19674   1.685   5.464   5.701 -3.0708 -0.9912  2.3007
  146MOL0     H19675   1.500   5.568   5.603 -1.6658 -0.3823  1.1235
  146MOL0     H19676   1.226   5.643   5.375  0.0589 -0.1820 -1.6311
  146MOL0     H19677   1.347   5.671   5.509 -0.6584  0.1864  1.3069
  146MOL0     H19678   1.427   5.761   5.275 -0.5696  0.0130  1.4465
  146MOL0     H19679   1.527   5.631   5.326 -0.1188  0.8793 -0.1407
  146MOL0     H19680   1.288   5.632   5.139 -0.7163 -0.3312 -1.8146
  146MOL0     H19681   1.375   5.481   5.161 -4.9075  0.7483 -4.7061
  146MOL0     H19682   1.518   5.740   5.055  2.3505 -0.3575  2.3715
  146MOL0     H19683   1.584   5.578   5.064  0.0874  0.1667  2.7287
  146MOL0     H19684   1.326   5.629   4.906 -0.7232 -1.4395 -1.6196
  146MOL0     H19685   1.411   5.481   4.917  0.9181  0.0847  0.3213
  146MOL0     H19686   1.556   5.740   4.804  0.1169 -0.1677 -2.1089
  146MOL0     H19687   1.588   5.576   4.757  0.3575  0.1393 -0.1571
  146MOL0     H19688   1.343   5.753   4.700  0.7304  1.9413  0.2679
  146MOL0     H19689   1.362   5.588   4.649  0.1325 -0.2593  1.1720
  146MOL0     H19690   1.429   5.735   4.456  1.3388 -1.4907 -0.7129
  146MOL0     H19691   1.589   5.684   4.528 -1.2482 -3.9394 -0.6147
  146MOL0     H19692   1.427   5.248   5.339 -0.4731  2.1594 -0.4317
  146MOL0     H19693   1.638   5.133   5.426 -1.8348 -1.1016  1.3653
  146MOL0     H19694   2.016   5.127   5.665  1.0805 -1.8229 -2.3258
  146MOL0     H19695   2.198   5.018   5.784  0.4554 -0.8567  0.1620
  146MOL0     H19696   2.863   3.626   6.614  0.0744 -0.3656  0.5438
  146MOL0     H19697   3.070   3.559   6.727 -1.2784 -0.3687 -0.4394
  146MOL0     H19698   3.418   3.142   6.690  0.2919 -1.2012  0.3405
  146MOL0     H19699   3.619   3.083   6.800 -1.0320  0.3639 -0.9186
  146MOL0     H19700   3.983   3.351   6.878  1.1231 -0.2826  1.4194
  146MOL0     H19701   3.855   3.382   7.008 -1.4947 -2.1399  0.7885
  146MOL0     H19702   3.935   3.197   7.123 -1.9061  1.6619 -1.5335
  146MOL0     H19703   4.076   3.304   7.090 -0.9587  1.6530  0.1551
  146MOL0     H19704   4.000   3.062   6.915 -1.2734  0.2002  0.4987
  146MOL0     H19705   4.093   3.050   7.067 -1.5231 -0.6291 -0.0539
  146MOL0     H19706   4.175   3.220   6.843 -2.9362  2.7212  3.0699
  146MOL0     H19707   4.236   3.047   6.862  0.0215  0.4896  1.2705
  146MOL0     H19708   4.442   3.295   7.148 -0.8339 -0.1051 -0.5224
  146MOL0     H19709   3.738   3.499   6.828 -1.4434  1.8869 -0.9402
  146MOL0     H19710   3.554   3.566   6.706  2.5821 -0.7043 -2.1007
  147MOL0     O19711  10.710   7.940   2.123  0.4674 -0.2203 -0.5133
  147MOL0     C19712  10.600   7.881   2.140  0.8267  0.4065 -0.5628
  147MOL0     O19713  10.591   7.751   2.195 -0.4321  0.5935 -0.0975
  147MOL0     C19714  10.704   7.672   2.214 -0.3891  0.0113  0.4371
  147MOL0     C19715  10.751   7.660   2.345  0.0279  0.5845  0.9017
  147MOL0     C19716  10.856   7.572   2.374 -0.2840 -0.4339  0.4998
  147MOL0     C19717  10.925   7.510   2.274 -0.6728  0.1108 -0.3857
  147MOL0     O19718  11.026   7.417   2.293 -0.1256  0.3634  0.4485
  147MOL0     C19719  11.081   7.405   2.422  0.0482 -0.2435  0.2501
  147MOL0     C19720  11.194   7.291   2.417  0.5917 -0.1256 -0.2618
  147MOL0     C19721  11.140   7.148   2.398 -0.1358 -0.3501 -0.1515
  147MOL0     C19722  11.227   7.040   2.449 -0.9549 -0.1117 -0.7172
  147MOL0     C19723  11.193   6.914   2.376 -0.7715 -0.0358 -0.6457
  147MOL0     C19724  11.294   6.807   2.417 -0.6430  0.6198 -0.5372
  147MOL0     C19725  11.277   6.731   2.553 -0.5428  0.8597 -0.3946
  147MOL0     C19726  11.391   6.759   2.649  0.0734  0.1280  0.3474
  147MOL0     N19727  11.406   6.904   2.680 -0.7918  0.3997 -0.6587
  147MOL0     C19728  11.346   6.961   2.793  0.1281 -1.1839  0.4986
  147MOL0     C19729  11.406   7.082   2.810  0.1334 -0.1677  0.6787
  147MOL0     C19730  11.382   7.185   2.916  0.1135 -0.1842  0.4297
  147MOL0     C19731  11.247   7.254   2.882  0.4611  0.0006 -1.0879
  147MOL0     C19732  11.178   7.328   2.993  0.5497  0.4510  0.3221
  147MOL0     C19733  11.051   7.399   2.942 -0.2986 -0.5475 -0.4337
  147MOL0     O19734  10.999   7.336   2.822 -0.0765 -0.2927  0.2239
  147MOL0     C19735  10.878   7.385   2.789  0.0220 -0.7175  0.1134
  147MOL0     C19736  10.816   7.306   2.691  0.2738 -0.6384  0.4202
  147MOL0     C19737  10.694   7.341   2.635  0.6990  0.2068 -0.5851
  147MOL0     C19738  10.651   7.259   2.508 -0.3692 -0.4789 -0.0559
  147MOL0     C19739  10.618   7.453   2.682  0.3905 -0.5029 -0.6545
  147MOL0     C19740  10.473   7.493   2.648  0.3277  0.5855  0.0483
  147MOL0     O19741  10.414   7.580   2.735  0.8872 -0.0003 -0.1835
  147MOL0     C19742  10.288   7.633   2.714 -0.3897 -0.0659  1.2634
  147MOL0     C19743  10.217   7.660   2.826  0.0339 -0.2008  0.5597
  147MOL0     C19744  10.096   7.728   2.808 -0.1703  0.0989 -0.4995
  147MOL0     C19745  10.032   7.758   2.681  0.7624 -0.6148  0.2873
  147MOL0     O19746   9.910   7.815   2.656  0.4390 -0.2373 -0.0905
  147MOL0     C19747   9.826   7.874   2.761 -1.1850 -0.9290 -0.7496
  147MOL0     C19748   9.712   7.780   2.779  0.3475 -0.4911 -0.6234
  147MOL0     C19749   9.761   7.642   2.833 -0.4758 -0.3616  0.6476
  147MOL0     C19750   9.655   7.549   2.892  0.2697 -0.0766  0.5722
  147MOL0     C19751   9.702   7.436   2.977  0.5823  0.0565 -0.1432
  147MOL0     C19752   9.594   7.371   3.059  0.0992  0.6231  0.6475
  147MOL0     C19753   9.463   7.328   2.989  0.2757 -0.6858 -0.3853
  147MOL0     C19754   9.376   7.233   3.066 -0.3706 -0.0917 -0.5672
  147MOL0    Cl19755   9.325   7.280   3.232  0.2203 -0.3406 -0.0518
  147MOL0     C19756  10.104   7.724   2.566 -0.2888 -0.8174 -0.0123
  147MOL0     C19757  10.237   7.668   2.588  0.0778 -0.0826 -0.3646
  147MOL0     O19758  10.422   7.427   2.559  1.0185 -0.3726 -0.3266
  147MOL0     C19759  10.672   7.525   2.788 -0.4710 -0.4162  0.2165
  147MOL0     C19760  10.809   7.505   2.828 -0.1255 -0.0814  0.6511
  147MOL0     N19761  11.490   7.103   2.706  0.4538  0.6456  0.3633
  147MOL0     N19762  11.490   6.996   2.623 -0.1887 -0.0176  0.4383
  147MOL0     C19763  10.884   7.533   2.141  0.1238  0.0670  0.1625
  147MOL0     C19764  10.774   7.618   2.104 -0.3475  0.1710  0.0086
  147MOL0     C19765  10.465   7.950   2.105  0.0952  0.9764 -0.4239
  147MOL0     C19766  10.344   7.881   2.102 -0.1113  1.0099  0.3529
  147MOL0     C19767  10.221   7.941   2.095 -0.1984 -0.2966  0.4412
  147MOL0     C19768  10.223   8.083   2.089 -0.5950  0.0639 -0.0273
  147MOL0     O19769  10.099   8.151   2.093  0.6928  0.3052 -0.1793
  147MOL0     C19770  10.024   8.148   1.967 -0.2813 -0.1493 -0.9731
  147MOL0     C19771   9.997   8.290   1.922 -0.3280  0.5312 -0.2690
  147MOL0     C19772   9.906   8.293   1.794 -0.7043 -0.0037 -0.0517
  147MOL0     C19773   9.772   8.219   1.814 -0.2682 -0.5372 -0.3609
  147MOL0     C19774   9.687   8.221   1.689  0.2889 -0.5634 -0.7219
  147MOL0     C19775   9.601   8.221   1.603  0.1802 -0.1347 -0.4732
  147MOL0     C19776  10.343   8.153   2.086  0.5170  0.2484  0.3960
  147MOL0     C19777  10.463   8.089   2.085  0.4214  0.2878 -0.8927
  147MOL0     H19778  10.687   7.698   2.424 -1.1097 -0.2731  0.4396
  147MOL0     H19779  10.875   7.569   2.481  0.9413  1.1857  0.3710
  147MOL0     H19780  11.132   7.497   2.452 -0.2717  0.6529 -1.8245
  147MOL0     H19781  11.003   7.372   2.491 -1.4816 -0.9126 -1.7351
  147MOL0     H19782  11.266   7.308   2.337  3.0272 -1.3358  1.5415
  147MOL0     H19783  11.253   7.296   2.509  1.4435  1.1501 -0.8584
  147MOL0     H19784  11.048   7.138   2.457  0.5613 -2.8732  0.6358
  147MOL0     H19785  11.115   7.139   2.292 -3.3586 -0.0148  0.4763
  147MOL0     H19786  11.329   7.072   2.424 -0.7423 -0.1767  0.0441
  147MOL0     H19787  11.216   7.043   2.557 -2.2720 -4.3884 -0.5394
  147MOL0     H19788  11.095   6.874   2.403 -0.5743  1.4377  2.8056
  147MOL0     H19789  11.202   6.922   2.267 -2.0660  0.7622 -0.7213
  147MOL0     H19790  11.285   6.724   2.346  0.2624 -0.4400  0.5384
  147MOL0     H19791  11.395   6.848   2.420 -1.6207  3.1924  0.9260
  147MOL0     H19792  11.177   6.757   2.590 -1.1483 -0.1818 -1.2172
  147MOL0     H19793  11.266   6.623   2.539  2.1842  0.2785  1.4106
  147MOL0     H19794  11.485   6.721   2.610 -0.3150  0.6228 -1.1690
  147MOL0     H19795  11.361   6.691   2.729 -3.1978 -0.5926 -1.2955
  147MOL0     H19796  11.266   6.925   2.858 -0.6866 -0.3298 -0.0073
  147MOL0     H19797  11.388   7.139   3.014  4.3742 -3.7240 -1.1745
  147MOL0     H19798  11.469   7.250   2.910 -0.7375  1.3377  2.8939
  147MOL0     H19799  11.172   7.180   2.850 -0.8350  0.8186 -0.0626
  147MOL0     H19800  11.260   7.317   2.793 -1.9936  1.2411 -0.6710
  147MOL0     H19801  11.237   7.404   3.044 -3.5123  3.4810  0.9612
  147MOL0     H19802  11.138   7.247   3.055 -1.1257 -1.3904 -2.8909
  147MOL0     H19803  11.078   7.505   2.930  0.7994 -0.8605 -0.8605
  147MOL0     H19804  10.972   7.398   3.017  1.1323  1.7970  1.2458
  147MOL0     H19805  10.856   7.211   2.658 -1.7973 -0.5032 -2.9421
  147MOL0     H19806  10.552   7.214   2.523 -0.7475  0.2057 -0.4184
  147MOL0     H19807  10.647   7.317   2.415 -3.0433  0.6429  0.6507
  147MOL0     H19808  10.718   7.173   2.504  1.0994  0.1086  5.0225
  147MOL0     H19809  10.261   7.633   2.921 -1.7948 -0.1991  1.4607
  147MOL0     H19810  10.037   7.756   2.894  2.7113  1.9461  1.0564
  147MOL0     H19811   9.887   7.877   2.852  0.7149 -2.9484 -1.8735
  147MOL0     H19812   9.808   7.980   2.739  0.7212 -0.4387 -0.0902
  147MOL0     H19813   9.651   7.818   2.862  1.7418 -2.6304  1.5168
  147MOL0     H19814   9.653   7.764   2.689 -1.1878  1.5204 -0.0675
  147MOL0     H19815   9.833   7.658   2.914  1.1545 -0.5661 -0.6881
  147MOL0     H19816   9.808   7.602   2.742 -1.8802  0.7343 -0.6200
  147MOL0     H19817   9.580   7.598   2.955  0.7712 -1.3137  2.1842
  147MOL0     H19818   9.599   7.517   2.803 -1.1440  3.1665  0.1709
  147MOL0     H19819   9.772   7.478   3.050  0.2687 -0.2299  0.3260
  147MOL0     H19820   9.750   7.355   2.921 -0.4994 -1.0140  0.4306
  147MOL0     H19821   9.630   7.286   3.118  1.6390  0.7630 -0.0371
  147MOL0     H19822   9.578   7.451   3.131 -1.6840  2.4031 -1.5604
  147MOL0     H19823   9.504   7.283   2.898 -4.0472 -0.6193 -2.6464
  147MOL0     H19824   9.407   7.416   2.957  1.7355 -1.0892 -4.7630
  147MOL0     H19825   9.438   7.143   3.077 -2.6102 -1.6632 -0.1765
  147MOL0     H19826   9.297   7.203   2.996  1.1292  0.8632 -2.7887
  147MOL0     H19827  10.066   7.744   2.466  0.5544 -0.4479 -0.2743
  147MOL0     H19828  10.294   7.648   2.498  0.3139  0.6794 -0.3901
  147MOL0     H19829  10.629   7.608   2.842  2.3004 -0.2840  2.4327
  147MOL0     H19830  10.856   7.573   2.898 -1.0386  4.0672 -2.3594
  147MOL0     H19831  10.933   7.489   2.055 -0.0824 -2.0312  1.0663
  147MOL0     H19832  10.752   7.646   2.002  2.5167 -0.5104 -0.8927
  147MOL0     H19833  10.341   7.772   2.109  3.8733  0.7305  0.2389
  147MOL0     H19834  10.137   7.873   2.100 -0.5648  0.1922  1.1784
  147MOL0     H19835  10.075   8.077   1.901  0.8001 -3.0156  2.6191
  147MOL0     H19836   9.926   8.106   1.990 -2.1958  2.0541 -4.2322
  147MOL0     H19837  10.092   8.339   1.900  0.7286 -2.2403 -2.6432
  147MOL0     H19838   9.959   8.350   2.005 -0.5670  3.1209 -2.1366
  147MOL0     H19839   9.965   8.260   1.708  0.9507 -1.1749  1.4647
  147MOL0     H19840   9.877   8.397   1.775  0.3831  0.5469  1.0916
  147MOL0     H19841   9.713   8.270   1.891 -2.5439 -1.6149 -1.2857
  147MOL0     H19842   9.791   8.115   1.840 -2.7454 -0.7332  0.9605
  147MOL0     H19843   9.531   8.223   1.523 -0.8443  1.3039  0.4009
  147MOL0     H19844  10.334   8.260   2.071  0.1695  0.1764  0.0868
  147MOL0     H19845  10.551   8.152   2.077 -0.4041  1.4981 -0.6245
  148MOL0     O19846   0.095   7.200   3.775  0.3205  0.0110  0.4850
  148MOL0     C19847   0.026   7.129   3.702  1.0731  0.0595 -1.5382
  148MOL0     O19848  -0.003   7.148   3.575 -0.4445 -0.7421  0.0481
  148MOL0     C19849   0.037   7.264   3.499 -0.1433  0.4341 -0.1278
  148MOL0     C19850   0.102   7.376   3.546 -0.4054 -0.6603 -0.4492
  148MOL0     C19851   0.145   7.480   3.460  0.1973 -0.0977  0.9393
  148MOL0     C19852   0.110   7.473   3.322 -0.8619 -0.9403  0.0478
  148MOL0     O19853   0.142   7.582   3.251  0.1548  0.0485  0.6190
  148MOL0     C19854   0.219   7.533   3.138  0.3670  0.7475 -0.1777
  148MOL0     C19855   0.304   7.639   3.069 -0.6464  0.7136 -0.5004
  148MOL0     C19856   0.375   7.575   2.947  0.5468 -1.2560 -1.0641
  148MOL0     C19857   0.471   7.684   2.884 -1.8896  0.2754  1.1752
  148MOL0     C19858   0.533   7.634   2.755 -0.1645  0.2183  0.3938
  148MOL0     C19859   0.652   7.533   2.768  0.4130  0.2850 -0.4963
  148MOL0     C19860   0.689   7.482   2.634  0.7695  0.5877  0.2950
  148MOL0     C19861   0.791   7.372   2.648  0.0486  0.2733  0.2012
  148MOL0     N19862   0.840   7.337   2.515  0.6083 -0.1796 -0.6620
  148MOL0     C19863   0.801   7.231   2.439  0.0766 -0.8693  1.1929
  148MOL0     C19864   0.884   7.230   2.329  0.4794  0.2611 -0.6619
  148MOL0     C19865   0.879   7.131   2.218 -0.3448  0.5897 -0.0270
  148MOL0     C19866   0.759   7.162   2.129 -0.6390  0.7586 -0.2984
  148MOL0     C19867   0.769   7.093   1.987  0.2850  0.3389 -0.8150
  148MOL0     C19868   0.626   7.085   1.926 -0.2808  0.7294 -0.7066
  148MOL0     O19869   0.532   7.015   2.008  0.4565 -0.0997 -0.7815
  148MOL0     C19870   0.395   7.017   1.981  0.1764  0.9088  0.3112
  148MOL0     C19871   0.318   6.952   2.074  0.6480 -0.0925 -0.0632
  148MOL0     C19872   0.183   6.950   2.048 -0.0147  0.8451 -0.4529
  148MOL0     C19873   0.099   6.884   2.150 -0.7188 -0.3023 -0.1364
  148MOL0     C19874   0.122   7.016   1.939 -0.1780  0.4702 -0.6777
  148MOL0     C19875  -0.022   7.036   1.924  0.0853  0.6547  0.3165
  148MOL0     O19876  -0.062   7.054   1.790  0.3443  0.0544 -0.2822
  148MOL0     C19877  -0.197   7.070   1.757 -0.1965 -0.8666 -0.2301
  148MOL0     C19878  -0.293   6.972   1.753  0.2653  0.4724 -0.2031
  148MOL0     C19879  -0.431   6.987   1.731  0.2659 -0.3777 -0.3984
  148MOL0     C19880  -0.479   7.121   1.728 -0.0902  0.6428 -1.2148
  148MOL0     O19881  -0.611   7.154   1.700 -1.0003 -0.2652 -0.1254
  148MOL0     C19882  -0.711   7.054   1.721  0.8139  0.0841  1.0937
  148MOL0     C19883  -0.848   7.127   1.716  0.2603  0.1771 -0.4042
  148MOL0     C19884  -0.955   7.018   1.672 -1.3187  0.5171  0.5441
  148MOL0     C19885  -1.089   7.081   1.631 -0.3227 -0.1920  0.6354
  148MOL0     C19886  -1.186   6.980   1.576 -0.5558 -0.0466  0.4439
  148MOL0     C19887  -1.170   6.961   1.422 -0.1319 -0.3836 -1.1971
  148MOL0     C19888  -1.273   6.860   1.377 -0.6499  0.5035  0.6086
  148MOL0     C19889  -1.262   6.843   1.224  0.1786 -0.2182  0.0118
  148MOL0    Cl19890  -1.095   6.826   1.169 -0.0299 -0.1642  0.3649
  148MOL0     C19891  -0.387   7.227   1.748 -0.2631  0.2699  0.4558
  148MOL0     C19892  -0.250   7.197   1.766 -0.0378 -0.4649 -1.0549
  148MOL0     O19893  -0.097   7.049   2.020  0.1741 -0.2016 -0.4279
  148MOL0     C19894   0.200   7.086   1.845  0.3663  0.3692 -0.7594
  148MOL0     C19895   0.334   7.084   1.871 -0.1972 -0.1156 -0.5327
  148MOL0     N19896   0.980   7.332   2.349  0.5881  0.0789  0.6277
  148MOL0     N19897   0.959   7.388   2.464 -0.3935  0.0086 -0.4103
  148MOL0     C19898   0.055   7.353   3.268 -0.5941 -0.4197  0.6231
  148MOL0     C19899   0.020   7.257   3.357  1.2710  0.4834  0.1443
  148MOL0     C19900  -0.035   7.022   3.796 -0.1257  0.4784  0.5897
  148MOL0     C19901   0.016   6.989   3.925 -0.3759  0.7850 -0.3002
  148MOL0     C19902  -0.053   6.888   4.004  0.3634 -0.0837  0.3452
  148MOL0     C19903  -0.182   6.842   3.964  0.4079  0.5004  0.3824
  148MOL0     O19904  -0.259   6.759   4.046 -0.2847  1.2373 -0.4418
  148MOL0     C19905  -0.219   6.731   4.180  0.0156  0.8470 -0.2053
  148MOL0     C19906  -0.325   6.641   4.234  0.1956  0.8815  0.2621
  148MOL0     C19907  -0.303   6.485   4.196  0.0735 -0.0911 -0.7946
  148MOL0     C19908  -0.410   6.397   4.266 -0.6176 -0.0850 -0.1307
  148MOL0     C19909  -0.378   6.255   4.238 -0.0049 -0.0027 -0.5900
  148MOL0     C19910  -0.337   6.140   4.207 -0.2557  0.3016 -0.2353
  148MOL0     C19911  -0.234   6.886   3.840 -1.2671  0.8554 -0.2055
  148MOL0     C19912  -0.161   6.972   3.771  0.1198 -0.0070 -0.1993
  148MOL0     H19913   0.123   7.391   3.652 -5.2005  0.5106  0.5546
  148MOL0     H19914   0.218   7.550   3.497  3.0198  0.1981 -4.2502
  148MOL0     H19915   0.285   7.447   3.147  1.7763  1.7714 -0.3451
  148MOL0     H19916   0.140   7.501   3.069 -1.1472  3.4777  0.1234
  148MOL0     H19917   0.238   7.719   3.036 -0.7743  1.1535  0.7656
  148MOL0     H19918   0.378   7.683   3.136  1.4941  0.0006 -2.2646
  148MOL0     H19919   0.438   7.488   2.969 -0.6610 -2.3030 -1.6512
  148MOL0     H19920   0.297   7.542   2.879 -0.5258 -0.2450 -0.3570
  148MOL0     H19921   0.409   7.770   2.859  0.0161  2.4030  3.2970
  148MOL0     H19922   0.544   7.708   2.961  0.3455  1.3174 -1.1192
  148MOL0     H19923   0.454   7.588   2.695  0.5528 -1.8651  0.9441
  148MOL0     H19924   0.563   7.726   2.704 -1.4519  0.1940 -0.4581
  148MOL0     H19925   0.736   7.582   2.817  0.1518  0.7571 -0.5176
  148MOL0     H19926   0.620   7.452   2.834  2.3995  1.2137  1.7629
  148MOL0     H19927   0.605   7.448   2.574 -0.7890  2.6883  1.1825
  148MOL0     H19928   0.743   7.560   2.580  1.4855 -1.1106 -1.5787
  148MOL0     H19929   0.737   7.287   2.693 -0.9728 -0.6856 -2.5929
  148MOL0     H19930   0.869   7.410   2.714 -0.4914 -0.2151  1.1524
  148MOL0     H19931   0.720   7.159   2.450 -0.6795 -0.9461 -3.1960
  148MOL0     H19932   0.978   7.135   2.171 -0.9549 -0.7035 -1.4933
  148MOL0     H19933   0.855   7.038   2.269  0.0697 -0.1585 -1.1686
  148MOL0     H19934   0.749   7.270   2.120 -3.8973  0.5373 -0.4910
  148MOL0     H19935   0.671   7.119   2.178 -1.3936  1.9655 -0.5506
  148MOL0     H19936   0.813   6.996   2.012 -2.3726 -1.4395 -2.5708
  148MOL0     H19937   0.835   7.145   1.918  2.3485 -1.1908 -0.1231
  148MOL0     H19938   0.637   7.035   1.829 -0.7950 -0.3327 -0.2265
  148MOL0     H19939   0.573   7.177   1.900 -5.0060 -1.3654  0.4422
  148MOL0     H19940   0.365   6.922   2.167 -1.3437  1.5883  1.5908
  148MOL0     H19941   0.158   6.825   2.221 -2.6334  1.2192  2.9330
  148MOL0     H19942   0.044   6.954   2.212  0.6470  0.6176  0.0818
  148MOL0     H19943   0.016   6.831   2.102 -0.0049  0.7605 -2.6913
  148MOL0     H19944  -0.259   6.869   1.756  2.0091  1.0253  0.3279
  148MOL0     H19945  -0.496   6.900   1.726  1.2352 -1.3951  2.3306
  148MOL0     H19946  -0.705   6.969   1.652 -1.8580 -1.7780  2.9512
  148MOL0     H19947  -0.713   7.002   1.817  1.2366  0.7972  1.4990
  148MOL0     H19948  -0.870   7.167   1.816 -1.0217 -2.2812  0.3782
  148MOL0     H19949  -0.841   7.208   1.643 -0.3103  1.3928  0.8422
  148MOL0     H19950  -0.989   6.947   1.748 -1.7275 -1.2634 -1.2061
  148MOL0     H19951  -0.909   6.973   1.583  0.3149 -0.7159  1.9381
  148MOL0     H19952  -1.142   7.145   1.702  1.2561  0.3419  1.3785
  148MOL0     H19953  -1.054   7.144   1.548  0.5728  0.6546  1.6335
  148MOL0     H19954  -1.286   7.022   1.593 -1.0077  0.5207 -2.8396
  148MOL0     H19955  -1.170   6.884   1.625 -1.9441  1.7172  4.8311
  148MOL0     H19956  -1.181   7.052   1.361  1.4003  0.0695 -0.8575
  148MOL0     H19957  -1.070   6.918   1.410 -0.1923 -0.2702 -2.1744
  148MOL0     H19958  -1.372   6.903   1.398 -0.2642  1.2098  0.9934
  148MOL0     H19959  -1.260   6.760   1.420 -2.5679  0.1553  0.5089
  148MOL0     H19960  -1.298   6.940   1.189 -0.8421  0.2784  2.2262
  148MOL0     H19961  -1.329   6.760   1.203 -1.2574 -0.2774  3.9560
  148MOL0     H19962  -0.410   7.332   1.736  0.4531  0.4439  0.5959
  148MOL0     H19963  -0.178   7.276   1.785  1.8677 -2.6917  1.6772
  148MOL0     H19964   0.154   7.131   1.758 -1.5033 -0.0151 -0.0118
  148MOL0     H19965   0.404   7.137   1.807  1.3586 -1.9847 -0.5105
  148MOL0     H19966   0.025   7.349   3.164  1.7481 -0.8797 -0.1016
  148MOL0     H19967  -0.046   7.180   3.319  3.7222 -1.3075 -0.7153
  148MOL0     H19968   0.105   7.042   3.956 -1.0307  1.4478  0.4775
  148MOL0     H19969  -0.001   6.860   4.095  5.2381 -0.4622 -2.2399
  148MOL0     H19970  -0.120   6.686   4.184 -0.1313  0.6453  1.5627
  148MOL0     H19971  -0.218   6.824   4.237 -0.1178  1.2685 -0.8775
  148MOL0     H19972  -0.423   6.680   4.204 -0.0100  0.1068 -0.1041
  148MOL0     H19973  -0.316   6.652   4.343  1.0935  0.5453  0.2284
  148MOL0     H19974  -0.209   6.448   4.239 -0.4505 -3.0478 -1.9995
  148MOL0     H19975  -0.300   6.469   4.088  0.9841  4.0744 -1.5859
  148MOL0     H19976  -0.510   6.437   4.253 -0.1435  0.3437 -3.4408
  148MOL0     H19977  -0.389   6.406   4.373 -0.0222 -1.7013 -0.0710
  148MOL0     H19978  -0.294   6.045   4.182  2.8179  0.4924  3.3645
  148MOL0     H19979  -0.334   6.851   3.813  0.0208 -2.7588 -0.8817
  148MOL0     H19980  -0.205   7.014   3.681  1.4274  0.4918 -0.6277
  149MOL0     O19981   1.092   4.420   9.918 -0.1979  0.7233  0.0640
  149MOL0     C19982   1.163   4.476   9.996 -0.2894 -0.5152 -0.8456
  149MOL0     O19983   1.134   4.510  10.121 -0.5440  0.3892 -0.0142
  149MOL0     C19984   1.013   4.450  10.160  0.8070  0.3680  0.2559
  149MOL0     C19985   1.018   4.335  10.228 -0.2102  0.4561 -0.4953
  149MOL0     C19986   0.903   4.267  10.277 -0.1121  0.5380  0.7819
  149MOL0     C19987   0.784   4.328  10.254  0.6268 -0.0246  0.3534
  149MOL0     O19988   0.666   4.286  10.313 -0.3455  0.7990  0.3411
  149MOL0     C19989   0.674   4.201  10.429  0.6411  0.7081  0.3547
  149MOL0     C19990   0.535   4.173  10.478 -0.4632  0.8290 -0.2587
  149MOL0     C19991   0.463   4.080  10.386  0.3162  0.2128 -0.2274
  149MOL0     C19992   0.336   4.019  10.454 -0.0876  0.9273  0.2529
  149MOL0     C19993   0.249   3.942  10.360 -0.6311 -0.3734 -0.5370
  149MOL0     C19994   0.155   4.022  10.267 -0.7244 -0.4690 -0.5319
  149MOL0     C19995   0.016   3.951  10.277 -0.3416 -0.3079 -0.4772
  149MOL0     C19996  -0.067   4.005  10.391  1.0525 -0.2725 -0.2940
  149MOL0     N19997  -0.195   3.929  10.398  0.6326 -0.7804  0.4504
  149MOL0     C19998  -0.318   3.963  10.345  0.0556 -0.0620  0.7543
  149MOL0     C19999  -0.410   3.883  10.406 -0.8280 -0.4501 -1.2555
  149MOL0     C20000  -0.555   3.853  10.370 -0.7012  0.8943 -0.6826
  149MOL0     C20001  -0.607   3.892  10.230 -0.6745 -0.1100 -0.4770
  149MOL0     C20002  -0.757   3.876  10.224 -0.0371  0.0348  0.5517
  149MOL0     C20003  -0.839   3.962  10.321 -0.1226 -0.6711 -0.0232
  149MOL0     O20004  -0.981   3.951  10.294 -0.0143 -0.2444  0.0484
  149MOL0     C20005  -1.070   4.030  10.363  0.2269  0.7067  0.0964
  149MOL0     C20006  -1.198   4.002  10.330  0.3406  0.9518 -1.2637
  149MOL0     C20007  -1.303   4.079  10.380  1.2543 -0.1005 -0.0452
  149MOL0     C20008  -1.438   4.058  10.320  0.2144 -0.2696  0.5095
  149MOL0     C20009  -1.274   4.183  10.475 -0.5157 -0.7880 -0.0441
  149MOL0     C20010  -1.381   4.263  10.529  0.0079 -0.2157 -0.0064
  149MOL0     O20011  -1.354   4.388  10.568  0.0076 -0.7560  0.4730
  149MOL0     C20012  -1.448   4.449  10.645  0.5406 -0.2856  0.3788
  149MOL0     C20013  -1.464   4.420  10.779 -0.4458  0.5870 -0.7960
  149MOL0     C20014  -1.542   4.500  10.853 -0.5313 -0.3694  0.7517
  149MOL0     C20015  -1.598   4.628  10.801 -0.2701  0.0507 -0.8199
  149MOL0     O20016  -1.659   4.735  10.872 -0.1547  0.5871  0.2835
  149MOL0     C20017  -1.714   4.698  10.993 -0.0600  0.3307  0.1434
  149MOL0     C20018  -1.842   4.619  10.985 -0.5372  0.1972  0.1813
  149MOL0     C20019  -1.948   4.698  10.906 -0.0700 -1.2725  0.3874
  149MOL0     C20020  -2.075   4.626  10.911  0.0328 -0.3713  0.7221
  149MOL0     C20021  -2.196   4.708  10.846  0.0031  0.9704 -0.8526
  149MOL0     C20022  -2.263   4.810  10.935 -0.4808  0.1649 -0.6343
  149MOL0     C20023  -2.338   4.739  11.049 -0.6366 -0.1520  1.5027
  149MOL0     C20024  -2.427   4.835  11.124  0.2916  0.2498 -0.3889
  149MOL0    Cl20025  -2.571   4.877  11.018  0.2314 -0.4282 -0.0150
  149MOL0     C20026  -1.585   4.653  10.662 -0.8805  0.4850  0.6213
  149MOL0     C20027  -1.515   4.559  10.586  0.3225  0.2972  0.5736
  149MOL0     O20028  -1.488   4.206  10.552  0.2219  0.2738  0.5013
  149MOL0     C20029  -1.147   4.215  10.513 -0.0502 -0.1110 -0.0639
  149MOL0     C20030  -1.042   4.137  10.455 -1.3112  0.9880 -0.0425
  149MOL0     N20031  -0.329   3.788  10.484 -0.2908 -0.0423 -0.1447
  149MOL0     N20032  -0.203   3.818  10.484  0.4122 -0.4424  0.3703
  149MOL0     C20033   0.776   4.453  10.193  0.5934  0.2643 -0.0608
  149MOL0     C20034   0.890   4.507  10.138  0.1237  0.2096 -0.2911
  149MOL0     C20035   1.302   4.499   9.949 -0.5439 -0.6077 -0.5425
  149MOL0     C20036   1.389   4.560  10.041 -0.4720 -0.1199  0.7401
  149MOL0     C20037   1.523   4.571  10.011 -0.7129  0.3205  0.8781
  149MOL0     C20038   1.577   4.529   9.882 -0.1263  0.3089 -0.1928
  149MOL0     O20039   1.706   4.562   9.842 -0.9030  0.0164  0.1280
  149MOL0     C20040   1.808   4.635   9.916  0.3171  0.7634 -0.2989
  149MOL0     C20041   1.877   4.543  10.024 -0.2236  0.3738 -0.1767
  149MOL0     C20042   1.946   4.427   9.949 -0.8503  0.2964  0.0051
  149MOL0     C20043   2.094   4.390  10.004 -0.4317 -1.0118  0.0166
  149MOL0     C20044   2.200   4.479   9.945 -0.9589 -0.4219  0.3308
  149MOL0     C20045   2.290   4.547   9.893  0.2377 -0.1775  1.0402
  149MOL0     C20046   1.491   4.458   9.798  0.1350  0.1606  0.2767
  149MOL0     C20047   1.358   4.438   9.833  0.4140  0.0995  0.2967
  149MOL0     H20048   1.113   4.287  10.250 -0.8656 -0.5212  0.3097
  149MOL0     H20049   0.918   4.186  10.347  2.2547  3.1516  3.5825
  149MOL0     H20050   0.722   4.110  10.393  0.8606 -0.0505  2.4844
  149MOL0     H20051   0.735   4.240  10.510  3.0289 -1.0334 -0.5057
  149MOL0     H20052   0.547   4.117  10.571  1.8128 -1.2010 -1.6696
  149MOL0     H20053   0.484   4.267  10.498 -2.0746  0.0320 -0.4152
  149MOL0     H20054   0.437   4.138  10.296  2.8331  0.1856 -1.0649
  149MOL0     H20055   0.531   3.996  10.369  0.9221  0.7333 -0.4028
  149MOL0     H20056   0.373   3.946  10.527 -2.5130  0.1577  0.8161
  149MOL0     H20057   0.273   4.089  10.511 -1.5651  0.7905 -1.1542
  149MOL0     H20058   0.314   3.893  10.288 -0.7993  0.5905 -1.3697
  149MOL0     H20059   0.193   3.872  10.423 -1.1291 -1.8486 -2.5470
  149MOL0     H20060   0.152   4.127  10.298  0.2814 -0.2927 -1.0129
  149MOL0     H20061   0.198   4.024  10.167  2.0402  0.9138  0.5911
  149MOL0     H20062  -0.050   3.969  10.191 -2.5970 -0.8053  1.0807
  149MOL0     H20063   0.026   3.842  10.283 -1.3681 -0.5920 -2.8287
  149MOL0     H20064  -0.083   4.112  10.371  0.2538 -0.4407 -0.5679
  149MOL0     H20065  -0.017   3.994  10.487 -1.3959 -1.3883  0.9328
  149MOL0     H20066  -0.333   4.041  10.271  0.9521  0.5396  1.1823
  149MOL0     H20067  -0.567   3.744  10.375 -3.7620  1.1423 -0.7753
  149MOL0     H20068  -0.627   3.888  10.445 -1.0806 -2.8978  0.9923
  149MOL0     H20069  -0.564   3.824  10.156 -0.2243  1.0161 -1.2560
  149MOL0     H20070  -0.583   3.993  10.197  0.8101 -0.3829 -0.2678
  149MOL0     H20071  -0.780   3.771  10.245  0.2223  0.1987  1.7213
  149MOL0     H20072  -0.791   3.898  10.122  0.1572 -3.6895 -0.4768
  149MOL0     H20073  -0.802   4.065  10.322 -2.1722  0.1106 -0.2206
  149MOL0     H20074  -0.820   3.919  10.419 -0.5667  2.1230  1.3833
  149MOL0     H20075  -1.210   3.928  10.252  1.5922  1.1131 -1.6174
  149MOL0     H20076  -1.499   3.992  10.381 -1.6680 -0.1395 -1.1170
  149MOL0     H20077  -1.496   4.150  10.304 -1.9568 -1.3651  1.7072
  149MOL0     H20078  -1.432   4.005  10.224 -1.7719  1.3832 -0.6197
  149MOL0     H20079  -1.424   4.330  10.826 -0.2680  1.4794  0.8392
  149MOL0     H20080  -1.546   4.488  10.961 -0.5907 -0.6728  0.7154
  149MOL0     H20081  -1.637   4.649  11.053 -0.9232 -0.3170  0.7570
  149MOL0     H20082  -1.741   4.794  11.039  0.1070 -1.5159  4.7117
  149MOL0     H20083  -1.811   4.527  10.933 -2.1855  0.1850 -0.8470
  149MOL0     H20084  -1.877   4.605  11.087  0.0653 -0.9273  0.2474
  149MOL0     H20085  -1.922   4.719  10.802 -2.1235  0.2617  0.1140
  149MOL0     H20086  -1.969   4.795  10.953 -0.0208 -1.5084  0.9088
  149MOL0     H20087  -2.057   4.541  10.845 -0.9723  1.3658 -1.9713
  149MOL0     H20088  -2.108   4.587  11.007 -1.9855  1.3832  0.8336
  149MOL0     H20089  -2.264   4.632  10.807  1.0334 -1.0250  1.0233
  149MOL0     H20090  -2.155   4.753  10.756 -1.2069  2.4943 -0.6887
  149MOL0     H20091  -2.184   4.874  10.975 -0.4612 -0.5977  0.5911
  149MOL0     H20092  -2.330   4.876  10.878  0.4945  1.5823 -0.1874
  149MOL0     H20093  -2.264   4.692  11.115  1.5721  0.4165 -0.4537
  149MOL0     H20094  -2.383   4.650  11.004  3.8616 -1.7984 -0.3619
  149MOL0     H20095  -2.382   4.927  11.163 -0.8346 -0.1310  1.9561
  149MOL0     H20096  -2.477   4.782  11.205  1.9696 -2.0417 -0.7454
  149MOL0     H20097  -1.619   4.741  10.610  5.0767  1.4435 -2.5334
  149MOL0     H20098  -1.511   4.593  10.483  0.3974 -0.7960  0.2100
  149MOL0     H20099  -1.118   4.295  10.581  0.6849 -0.5548  0.1555
  149MOL0     H20100  -0.938   4.164  10.470 -1.4812  2.4367 -1.2969
  149MOL0     H20101   0.677   4.497  10.198 -0.7895 -2.6102  4.9147
  149MOL0     H20102   0.890   4.603  10.087 -0.4614 -0.0721 -0.8235
  149MOL0     H20103   1.360   4.595  10.139 -0.6899 -0.1258  0.6775
  149MOL0     H20104   1.578   4.629  10.085  1.2400 -2.9710  2.2276
  149MOL0     H20105   1.880   4.677   9.844  0.5761 -0.4398 -0.7606
  149MOL0     H20106   1.763   4.722   9.965 -1.6717 -0.1376 -0.4576
  149MOL0     H20107   1.810   4.493  10.094  1.0967 -0.0365  0.8420
  149MOL0     H20108   1.956   4.596  10.078  0.4759  0.2030 -1.0237
  149MOL0     H20109   1.968   4.452   9.845  0.4715  1.0693  0.4504
  149MOL0     H20110   1.891   4.336   9.975 -1.5046  1.6759  4.2785
  149MOL0     H20111   2.119   4.292   9.964  0.2901 -1.1962  0.8732
  149MOL0     H20112   2.099   4.393  10.114 -1.1609 -0.3994  0.0428
  149MOL0     H20113   2.382   4.589   9.858  0.0341  0.9189  1.7745
  149MOL0     H20114   1.539   4.419   9.708  1.1707 -2.8675  2.0234
  149MOL0     H20115   1.292   4.385   9.766 -0.1307  0.5506  0.4732
  150MOL0     O20116  10.330   4.383   1.660 -0.5305 -0.7234  0.2745
  150MOL0     C20117  10.421   4.369   1.581  0.2465 -0.2966 -0.3897
  150MOL0     O20118  10.395   4.352   1.450 -0.1447 -0.1373  0.3274
  150MOL0     C20119  10.278   4.300   1.409 -0.3331 -0.3015 -0.1868
  150MOL0     C20120  10.284   4.201   1.312 -0.4107 -0.5879 -0.9110
  150MOL0     C20121  10.171   4.156   1.240 -0.0621  0.7965  0.9018
  150MOL0     C20122  10.044   4.201   1.287  0.7531  0.3204 -0.0642
  150MOL0     O20123   9.932   4.149   1.221 -0.5451 -0.1182 -0.1622
  150MOL0     C20124   9.851   4.071   1.312 -0.8154  0.3787 -0.4595
  150MOL0     C20125   9.705   4.112   1.311  0.4814 -0.5573  0.6053
  150MOL0     C20126   9.637   4.047   1.435 -1.3867 -0.2334 -0.2422
  150MOL0     C20127   9.492   4.070   1.423  0.0539 -0.0336  0.3072
  150MOL0     C20128   9.432   4.163   1.530 -0.4838 -0.2766 -0.7038
  150MOL0     C20129   9.288   4.201   1.482 -0.6397 -0.4704 -0.4590
  150MOL0     C20130   9.224   4.291   1.582  0.2089  0.0141  0.4456
  150MOL0     C20131   9.080   4.337   1.542 -0.4173 -0.0620 -0.5449
  150MOL0     N20132   9.018   4.424   1.643  0.0784 -1.0295  0.2499
  150MOL0     C20133   9.051   4.558   1.646  0.5573 -1.1511  0.6381
  150MOL0     C20134   8.978   4.606   1.748 -0.3124 -0.6448  0.8363
  150MOL0     C20135   8.976   4.754   1.779 -0.3350  0.7277 -0.2559
  150MOL0     C20136   8.870   4.832   1.703  0.2198  0.6414 -0.3974
  150MOL0     C20137   8.780   4.922   1.781 -0.5889 -0.1488 -1.1207
  150MOL0     C20138   8.655   4.972   1.711 -1.0620  0.4549  0.8315
  150MOL0     O20139   8.581   4.851   1.684  0.0208  0.4881 -0.2078
  150MOL0     C20140   8.446   4.852   1.722  0.0501 -0.0063 -0.1753
  150MOL0     C20141   8.355   4.792   1.649 -0.0748 -0.2878 -0.5022
  150MOL0     C20142   8.219   4.784   1.691 -0.0329  0.5307  0.6633
  150MOL0     C20143   8.115   4.748   1.582 -0.2301  0.6120  0.0948
  150MOL0     C20144   8.185   4.807   1.822  1.1074  0.0032 -0.4978
  150MOL0     C20145   8.059   4.769   1.893  0.1253  0.6344  0.0083
  150MOL0     O20146   8.041   4.804   2.024  0.2951  0.0271  0.3146
  150MOL0     C20147   7.942   4.731   2.087  0.4652  0.1823  0.5774
  150MOL0     C20148   7.830   4.791   2.136 -0.5973 -0.1438 -0.4472
  150MOL0     C20149   7.730   4.710   2.198 -0.2284 -0.3763  0.4668
  150MOL0     C20150   7.742   4.572   2.216  0.0918  0.3610  0.8195
  150MOL0     O20151   7.655   4.492   2.276 -0.5749  0.5504 -1.0081
  150MOL0     C20152   7.584   4.560   2.380  0.4224  0.0942  0.0933
  150MOL0     C20153   7.533   4.458   2.492 -0.1223 -0.7611  0.6810
  150MOL0     C20154   7.409   4.386   2.443 -0.1078  0.4551 -0.5275
  150MOL0     C20155   7.283   4.462   2.461  0.3175  0.5502 -0.4203
  150MOL0     C20156   7.172   4.386   2.544  0.5115  0.2964  0.2859
  150MOL0     C20157   7.073   4.491   2.578  0.6291  0.4449 -0.5030
  150MOL0     C20158   6.944   4.436   2.642 -0.5628 -0.4660 -0.7423
  150MOL0     C20159   6.831   4.538   2.657  0.3998 -0.2392  0.5599
  150MOL0    Cl20160   6.668   4.461   2.685 -0.0104  0.2576 -0.2795
  150MOL0     C20161   7.861   4.512   2.171 -0.6864  0.1378 -0.8893
  150MOL0     C20162   7.959   4.596   2.111  0.5807 -0.4826 -0.9781
  150MOL0     O20163   7.971   4.712   1.824 -0.3243 -0.8420  0.2268
  150MOL0     C20164   8.292   4.857   1.908 -0.6820  0.2853  0.4697
  150MOL0     C20165   8.415   4.898   1.853  0.4796  0.4764  0.2022
  150MOL0     N20166   8.935   4.502   1.827 -0.4365 -0.6101 -0.1244
  150MOL0     N20167   8.961   4.389   1.769  1.2002 -0.7738 -0.7241
  150MOL0     C20168  10.035   4.299   1.385  0.9005 -0.2975  0.4919
  150MOL0     C20169  10.150   4.356   1.433 -0.6876 -0.8128  0.0686
  150MOL0     C20170  10.557   4.388   1.631 -0.9795  0.1958  1.2080
  150MOL0     C20171  10.586   4.405   1.766  1.3170 -0.0589 -0.0097
  150MOL0     C20172  10.717   4.418   1.811 -0.7378 -0.4789 -0.2790
  150MOL0     C20173  10.818   4.427   1.717  0.4806 -0.3536 -0.0700
  150MOL0     O20174  10.952   4.443   1.749  0.2843 -0.8583  0.3444
  150MOL0     C20175  10.989   4.509   1.879  0.0843  0.4753 -0.0542
  150MOL0     C20176  10.993   4.655   1.863 -0.3845 -0.3297  0.6438
  150MOL0     C20177  11.087   4.698   1.748 -0.4355 -0.4885  0.7219
  150MOL0     C20178  11.105   4.850   1.744 -0.3436  1.4528 -1.2039
  150MOL0     C20179  10.992   4.928   1.694 -1.0545  0.0745  0.0647
  150MOL0     C20180  10.893   4.975   1.646  0.0064  0.2277 -0.5701
  150MOL0     C20181  10.784   4.424   1.584 -1.1534  0.3366  0.1670
  150MOL0     C20182  10.659   4.389   1.538  0.1121 -0.8909 -0.7165
  150MOL0     H20183  10.385   4.164   1.294  0.1178 -0.0030  0.7116
  150MOL0     H20184  10.194   4.087   1.159 -0.5127 -1.1315  2.3265
  150MOL0     H20185   9.852   3.965   1.285 -1.0742  0.5476 -1.1507
  150MOL0     H20186   9.888   4.085   1.414  0.0855 -1.1146 -0.5521
  150MOL0     H20187   9.683   4.220   1.315  0.2686 -0.5640 -0.1425
  150MOL0     H20188   9.665   4.087   1.212 -1.2125 -0.4013  1.2188
  150MOL0     H20189   9.664   3.941   1.448 -0.0444 -0.1167 -1.6850
  150MOL0     H20190   9.665   4.100   1.526 -2.0052 -0.2428 -0.0421
  150MOL0     H20191   9.473   4.115   1.326 -0.9656 -0.4335  0.3017
  150MOL0     H20192   9.438   3.975   1.431  0.8409 -0.4205  1.2876
  150MOL0     H20193   9.424   4.125   1.632 -0.6284  2.2891  0.3183
  150MOL0     H20194   9.496   4.252   1.533 -1.8729  0.7564 -0.1968
  150MOL0     H20195   9.300   4.242   1.382 -1.2593 -2.2777 -1.3190
  150MOL0     H20196   9.238   4.104   1.480  4.1424 -3.4007  1.6076
  150MOL0     H20197   9.220   4.239   1.678 -0.6977  1.8491  1.4419
  150MOL0     H20198   9.273   4.388   1.595  0.2075 -0.0864  1.2204
  150MOL0     H20199   9.023   4.245   1.529 -0.5337  0.0087 -0.5308
  150MOL0     H20200   9.091   4.383   1.444 -2.7577 -2.4742 -2.0758
  150MOL0     H20201   9.108   4.618   1.576 -2.5655 -0.0822 -1.1796
  150MOL0     H20202   8.968   4.782   1.884 -0.4664 -0.3445  0.0227
  150MOL0     H20203   9.073   4.792   1.743  1.5742 -3.1572  0.2396
  150MOL0     H20204   8.804   4.750   1.675  0.8624 -0.5229  1.3119
  150MOL0     H20205   8.910   4.888   1.618 -1.7360  1.8973 -0.5503
  150MOL0     H20206   8.848   5.003   1.809  0.9801 -1.1726 -1.8666
  150MOL0     H20207   8.755   4.863   1.870  1.0058 -0.5937 -0.9364
  150MOL0     H20208   8.686   5.019   1.617 -0.3277  1.7844  1.7075
  150MOL0     H20209   8.602   5.048   1.769  0.6230  3.6917 -1.5284
  150MOL0     H20210   8.389   4.767   1.548 -1.6612  3.8103 -2.2726
  150MOL0     H20211   8.106   4.639   1.586 -2.8697  0.6751 -1.7746
  150MOL0     H20212   8.021   4.800   1.601  2.3795  5.1644  2.3111
  150MOL0     H20213   8.152   4.780   1.485 -1.6995 -0.4042 -0.8344
  150MOL0     H20214   7.827   4.899   2.121 -1.1945 -0.3920 -2.4545
  150MOL0     H20215   7.648   4.770   2.237  1.3239  2.9979 -1.0181
  150MOL0     H20216   7.642   4.637   2.433 -3.0020  0.1471  4.2406
  150MOL0     H20217   7.489   4.596   2.340  0.2140  0.2790  0.7542
  150MOL0     H20218   7.616   4.393   2.521  0.8831  0.4632  0.6395
  150MOL0     H20219   7.502   4.506   2.585 -1.1807  1.1694 -0.6080
  150MOL0     H20220   7.412   4.306   2.518  0.0848  2.3109  1.5574
  150MOL0     H20221   7.410   4.353   2.339  0.4528  2.9653 -1.3874
  150MOL0     H20222   7.308   4.557   2.509 -0.7205 -0.0606  1.4155
  150MOL0     H20223   7.243   4.492   2.363  2.2754  4.3851 -0.2212
  150MOL0     H20224   7.221   4.337   2.629 -0.3895 -1.5573 -0.2063
  150MOL0     H20225   7.133   4.310   2.476 -0.0633  1.9957 -1.3943
  150MOL0     H20226   7.128   4.555   2.648  0.9366  0.5657 -0.8553
  150MOL0     H20227   7.039   4.532   2.483  0.3143 -3.6750 -2.3946
  150MOL0     H20228   6.970   4.403   2.743 -2.3475 -2.1220 -0.7642
  150MOL0     H20229   6.909   4.353   2.580  1.7125 -1.0611 -1.3224
  150MOL0     H20230   6.814   4.586   2.560 -2.4554 -0.2517  0.9448
  150MOL0     H20231   6.854   4.615   2.731 -2.6330  2.5944 -1.1532
  150MOL0     H20232   7.876   4.405   2.159 -0.5857  0.2563 -1.9376
  150MOL0     H20233   8.048   4.554   2.064  2.4463  0.1153  1.8309
  150MOL0     H20234   8.280   4.862   2.016  0.5219  0.8193  0.6028
  150MOL0     H20235   8.486   4.948   1.919 -0.4117  2.4310 -0.2287
  150MOL0     H20236   9.933   4.330   1.405  0.3892 -0.7827 -1.1799
  150MOL0     H20237  10.137   4.439   1.502  1.8519  0.0994 -0.4418
  150MOL0     H20238  10.498   4.386   1.827 -0.8383  2.6757 -1.9986
  150MOL0     H20239  10.735   4.428   1.917 -2.1195  1.9472 -0.2092
  150MOL0     H20240  10.914   4.484   1.954 -1.2370  2.8517 -0.5117
  150MOL0     H20241  11.082   4.469   1.922 -0.7010 -0.2737  1.0012
  150MOL0     H20242  11.039   4.700   1.952  2.1697 -1.2083 -0.1371
  150MOL0     H20243  10.890   4.686   1.846  0.0336  0.5412 -0.3824
  150MOL0     H20244  11.044   4.680   1.649  0.0798  3.2751 -0.3578
  150MOL0     H20245  11.182   4.644   1.752 -0.6410 -0.7604  3.2509
  150MOL0     H20246  11.187   4.867   1.674 -0.1413  0.5613 -1.1901
  150MOL0     H20247  11.133   4.889   1.843  1.5701  0.4391 -1.3020
  150MOL0     H20248  10.806   5.018   1.600 -0.0793 -0.3183 -0.9338
  150MOL0     H20249  10.869   4.444   1.520 -0.0994 -2.1967  0.6428
  150MOL0     H20250  10.643   4.409   1.433 -1.3262  7.5064  0.3765
  151MOL0     O20251   7.350   9.805   1.093  0.1511 -0.2268 -0.2111
  151MOL0     C20252   7.408   9.791   0.985 -0.1547 -0.9457 -0.7548
  151MOL0     O20253   7.510   9.707   0.970 -0.1732 -0.3151 -0.3091
  151MOL0     C20254   7.544   9.616   1.069  0.1405  0.1439  0.2116
  151MOL0     C20255   7.684   9.604   1.083 -0.1037  0.3199  0.0183
  151MOL0     C20256   7.739   9.512   1.171 -0.2254 -0.5898 -1.1665
  151MOL0     C20257   7.659   9.427   1.249 -0.1278 -0.1237 -0.9413
  151MOL0     O20258   7.707   9.336   1.336  0.0618  0.6546 -0.0508
  151MOL0     C20259   7.848   9.342   1.375 -1.0332  1.1401  0.4762
  151MOL0     C20260   7.886   9.219   1.456 -0.3844 -0.2199  0.2784
  151MOL0     C20261   7.842   9.091   1.393 -0.2691  0.6907 -1.0954
  151MOL0     C20262   7.945   8.979   1.436 -0.3162 -0.1309  0.2310
  151MOL0     C20263   7.936   8.868   1.332  0.8599 -1.2365  0.0685
  151MOL0     C20264   8.033   8.740   1.360 -0.2160  0.4812  0.2001
  151MOL0     C20265   7.982   8.622   1.275  0.5801 -0.2326  0.3410
  151MOL0     C20266   8.059   8.489   1.320 -0.4158 -0.5387 -0.1391
  151MOL0     N20267   8.004   8.375   1.245 -0.2098 -0.0704  0.3466
  151MOL0     C20268   8.015   8.344   1.114 -0.2017  0.5835  0.9834
  151MOL0     C20269   7.959   8.228   1.091 -0.1807 -0.5583  0.5422
  151MOL0     C20270   7.951   8.185   0.949 -0.2114  0.6047 -0.1425
  151MOL0     C20271   7.814   8.209   0.887  0.4947  0.2927  0.3195
  151MOL0     C20272   7.824   8.185   0.731 -0.2895 -0.6901 -1.0502
  151MOL0     C20273   7.689   8.211   0.652 -0.8655 -0.0950 -0.4497
  151MOL0     O20274   7.582   8.127   0.702  0.6409  0.2075  0.3952
  151MOL0     C20275   7.471   8.166   0.777 -0.5746  1.3890 -0.7839
  151MOL0     C20276   7.403   8.055   0.838  0.4273 -0.2984  0.6705
  151MOL0     C20277   7.284   8.064   0.902  0.2856 -0.1474  0.0409
  151MOL0     C20278   7.219   7.936   0.959  0.2385  0.8947  0.3749
  151MOL0     C20279   7.238   8.194   0.934 -0.2711 -0.3208 -0.0134
  151MOL0     C20280   7.096   8.222   0.981 -0.1867  0.4748 -0.0271
  151MOL0     O20281   7.078   8.361   1.022  0.1165 -0.1095  0.1595
  151MOL0     C20282   6.961   8.429   1.004  0.5480 -1.3580 -0.2485
  151MOL0     C20283   6.963   8.562   1.041 -0.0210 -0.0540 -0.3600
  151MOL0     C20284   6.859   8.652   1.010 -0.1538  0.5771 -0.6810
  151MOL0     C20285   6.743   8.604   0.957  1.2173  0.3181  0.8298
  151MOL0     O20286   6.627   8.672   0.928 -1.1317 -0.2681 -0.1917
  151MOL0     C20287   6.618   8.806   0.980  0.6341 -0.3684 -1.7411
  151MOL0     C20288   6.470   8.834   0.961 -1.4894 -0.4782  0.1669
  151MOL0     C20289   6.432   8.968   1.022  0.4194 -0.6317  0.5333
  151MOL0     C20290   6.279   9.005   0.983 -1.6137 -0.7603 -0.0575
  151MOL0     C20291   6.224   9.120   1.060  0.1250  0.0001 -0.3626
  151MOL0     C20292   6.079   9.141   1.017  0.3636  0.6004  0.4197
  151MOL0     C20293   6.026   9.281   1.036  0.0736  0.0388 -0.5541
  151MOL0     C20294   5.934   9.313   0.926 -0.3118  0.6756 -0.1152
  151MOL0    Cl20295   6.021   9.357   0.761 -0.1641  0.4990 -0.6868
  151MOL0     C20296   6.736   8.461   0.931  0.8457 -0.0873  0.4942
  151MOL0     C20297   6.838   8.382   0.953  0.0196  0.1528 -0.8929
  151MOL0     O20298   7.008   8.141   0.959 -0.0465  0.0636 -0.0116
  151MOL0     C20299   7.314   8.309   0.894  0.6535 -0.6837 -0.4351
  151MOL0     C20300   7.432   8.288   0.819  0.1853  0.1251  0.8130
  151MOL0     N20301   7.912   8.174   1.210 -0.0323 -0.1836 -0.2894
  151MOL0     N20302   7.944   8.266   1.295 -0.2177  0.3385  0.1497
  151MOL0     C20303   7.520   9.431   1.228 -1.1566  0.2802 -0.1854
  151MOL0     C20304   7.465   9.530   1.149 -0.0755 -0.2165 -0.1501
  151MOL0     C20305   7.354   9.875   0.878  0.1233 -0.4668  0.6168
  151MOL0     C20306   7.227   9.934   0.880 -0.0271 -1.0290 -0.2983
  151MOL0     C20307   7.188  10.021   0.777  0.2604 -0.0901  0.7357
  151MOL0     C20308   7.274  10.043   0.675 -1.2339  0.3489 -0.6425
  151MOL0     O20309   7.237  10.136   0.586 -0.5397 -0.0395 -0.9682
  151MOL0     C20310   7.248  10.094   0.449 -0.4103  0.3642  0.0741
  151MOL0     C20311   7.124  10.122   0.367 -0.5217  0.4724  0.9070
  151MOL0     C20312   7.117  10.271   0.323 -0.1612  0.2920  0.0356
  151MOL0     C20313   7.233  10.306   0.223  0.8434  1.2534  0.1322
  151MOL0     C20314   7.229  10.450   0.206 -0.0807 -0.0980  0.3674
  151MOL0     C20315   7.238  10.574   0.187 -0.1904  1.2356  0.5905
  151MOL0     C20316   7.401   9.992   0.677 -0.8769 -0.8497  1.0371
  151MOL0     C20317   7.438   9.905   0.772 -0.7961  0.0287 -0.1341
  151MOL0     H20318   7.745   9.675   1.027 -0.5986  2.0166  1.5356
  151MOL0     H20319   7.846   9.497   1.180 -0.1711 -0.2687 -1.2329
  151MOL0     H20320   7.892   9.329   1.275 -3.0767  0.5508 -0.4062
  151MOL0     H20321   7.885   9.433   1.423  0.0918  1.1399 -0.3328
  151MOL0     H20322   7.996   9.222   1.458 -0.3603 -0.8791 -0.1097
  151MOL0     H20323   7.842   9.231   1.556 -3.1119 -2.1029 -0.6104
  151MOL0     H20324   7.738   9.069   1.418 -0.9853 -1.4949 -5.0572
  151MOL0     H20325   7.850   9.093   1.284 -0.9107  1.0379 -1.1439
  151MOL0     H20326   8.046   9.020   1.449 -0.6236  1.3487 -1.5001
  151MOL0     H20327   7.913   8.934   1.530  0.7529 -1.5991 -0.0830
  151MOL0     H20328   7.833   8.831   1.328 -0.5342  1.6689  3.5151
  151MOL0     H20329   7.958   8.903   1.230 -1.1395  1.1582  0.3767
  151MOL0     H20330   8.138   8.757   1.335  0.7679 -3.7366  0.6900
  151MOL0     H20331   8.029   8.709   1.465  0.0739 -0.0185  0.0661
  151MOL0     H20332   7.873   8.614   1.275  0.6862 -3.4787 -1.1139
  151MOL0     H20333   8.009   8.649   1.172 -3.3590 -0.9565 -1.0485
  151MOL0     H20334   8.029   8.470   1.424  1.0641 -0.3354  0.3378
  151MOL0     H20335   8.167   8.497   1.304 -0.3281  0.3344  0.8078
  151MOL0     H20336   8.062   8.393   1.030 -1.4983 -3.2714 -2.3253
  151MOL0     H20337   8.026   8.231   0.885  0.3680 -0.1861 -0.0471
  151MOL0     H20338   7.978   8.079   0.945 -2.1981  0.0970 -2.2295
  151MOL0     H20339   7.789   8.309   0.923 -2.2702 -0.7447  1.5130
  151MOL0     H20340   7.743   8.137   0.928 -0.8449  1.5776  0.3107
  151MOL0     H20341   7.855   8.084   0.702  0.8480 -1.2125  1.6937
  151MOL0     H20342   7.897   8.257   0.693 -3.0505  2.3566 -1.0880
  151MOL0     H20343   7.713   8.192   0.547  2.3567 -0.2728  0.2387
  151MOL0     H20344   7.659   8.316   0.650  0.0536  0.2119  1.1009
  151MOL0     H20345   7.459   7.964   0.815 -0.3909 -0.1578 -2.1990
  151MOL0     H20346   7.287   7.856   0.988 -2.2028 -0.0515  4.2747
  151MOL0     H20347   7.172   7.948   1.058  0.3278 -0.5803  0.6084
  151MOL0     H20348   7.149   7.898   0.884  0.1192 -0.5093  1.1600
  151MOL0     H20349   7.046   8.595   1.102 -0.0864 -0.8037  0.1554
  151MOL0     H20350   6.860   8.760   1.025  2.4747  0.5985 -0.4901
  151MOL0     H20351   6.654   8.819   1.083 -1.3342  3.3870 -1.3805
  151MOL0     H20352   6.661   8.880   0.913 -1.1275  1.4496 -0.9307
  151MOL0     H20353   6.444   8.838   0.855 -1.8427  1.4211  0.2877
  151MOL0     H20354   6.418   8.755   1.017 -2.1614 -1.0039 -1.1330
  151MOL0     H20355   6.503   9.037   0.975  0.2465 -0.4688  0.5078
  151MOL0     H20356   6.457   8.963   1.128 -0.2520 -3.2854  0.6217
  151MOL0     H20357   6.275   9.034   0.878 -1.6214 -0.2385  0.0820
  151MOL0     H20358   6.218   8.919   1.012 -2.0408  0.1236  1.8241
  151MOL0     H20359   6.277   9.213   1.035 -2.4919  1.0580 -2.3746
  151MOL0     H20360   6.227   9.092   1.166 -0.3286 -3.1176 -1.0850
  151MOL0     H20361   6.071   9.109   0.912  0.6313  0.5405  0.4180
  151MOL0     H20362   6.012   9.076   1.074  0.9746 -0.8609 -0.4606
  151MOL0     H20363   6.107   9.355   1.046 -0.3475  0.3218  1.1097
  151MOL0     H20364   5.971   9.291   1.130 -1.5459  2.7413 -1.6873
  151MOL0     H20365   5.879   9.400   0.963 -1.1216 -1.1987  3.4426
  151MOL0     H20366   5.852   9.243   0.907  1.2952 -1.3818  0.1443
  151MOL0     H20367   6.646   8.413   0.894  0.9871 -1.9443  2.3683
  151MOL0     H20368   6.817   8.278   0.930  1.8333  0.1321 -2.7052
  151MOL0     H20369   7.279   8.411   0.903 -1.3639 -1.0038 -3.2222
  151MOL0     H20370   7.493   8.375   0.795 -0.2713 -0.1102 -1.4232
  151MOL0     H20371   7.455   9.356   1.271 -0.3725 -0.1218  0.3379
  151MOL0     H20372   7.362   9.537   1.115 -0.4360  0.3685  0.9984
  151MOL0     H20373   7.166   9.901   0.964  2.6693 -0.8344  1.8985
  151MOL0     H20374   7.093  10.074   0.786 -0.8510 -2.2816  2.6800
  151MOL0     H20375   7.335  10.143   0.403  1.0709 -1.2811  0.9788
  151MOL0     H20376   7.278   9.989   0.444  1.0816  0.7437  0.4964
  151MOL0     H20377   7.039  10.089   0.426  0.0265 -1.1104  0.8669
  151MOL0     H20378   7.146  10.055   0.283  0.4174  2.6869 -0.7167
  151MOL0     H20379   7.145  10.335   0.407  0.4377 -0.9728  0.8476
  151MOL0     H20380   7.023  10.304   0.278  1.9638  3.0640 -2.8341
  151MOL0     H20381   7.235  10.262   0.122  3.8287  0.5381  0.4121
  151MOL0     H20382   7.331  10.286   0.266  0.5273  1.0210  0.7583
  151MOL0     H20383   7.261  10.676   0.167  1.6423  0.6734 -0.4346
  151MOL0     H20384   7.474  10.005   0.598  0.3401 -3.6112  1.5769
  151MOL0     H20385   7.528   9.846   0.776 -1.9233 -1.6630  2.4680
  152MOL0     O20386  10.293  11.074  10.747 -0.1258  0.0423  0.1719
  152MOL0     C20387  10.226  11.067  10.650 -0.3467 -0.1083  0.3044
  152MOL0     O20388  10.269  11.086  10.524  0.4039 -0.1019  0.4076
  152MOL0     C20389  10.401  11.110  10.498 -0.9992 -0.1643 -1.1852
  152MOL0     C20390  10.434  11.220  10.414  0.0861 -0.1096  0.0441
  152MOL0     C20391  10.568  11.246  10.381  0.1937  0.1856 -0.2462
  152MOL0     C20392  10.669  11.148  10.401  0.2579 -1.2863  0.6292
  152MOL0     O20393  10.801  11.172  10.367  0.0598 -0.0652  0.0059
  152MOL0     C20394  10.863  11.056  10.308 -0.6054 -1.2845  0.0402
  152MOL0     C20395  10.843  11.049  10.155  0.5489  0.0249  0.0299
  152MOL0     C20396  10.708  10.995  10.113 -0.9849  0.2853  0.7934
  152MOL0     C20397  10.611  11.100  10.062 -1.1101  0.3619 -0.6803
  152MOL0     C20398  10.594  11.099   9.908  0.2570  0.5511 -0.6899
  152MOL0     C20399  10.693  11.190   9.815  0.5867 -0.9636 -0.2272
  152MOL0     C20400  10.722  11.136   9.687  0.8897  0.5684  0.1031
  152MOL0     C20401  10.697  11.227   9.571  0.0320 -1.1393  0.0930
  152MOL0     N20402  10.724  11.188   9.434  0.5444 -0.2226  0.4247
  152MOL0     C20403  10.720  11.265   9.318 -0.2719 -0.0532 -0.7564
  152MOL0     C20404  10.727  11.178   9.220 -0.7666  0.1579  0.4135
  152MOL0     C20405  10.745  11.220   9.071  0.2895  0.6534  0.0978
  152MOL0     C20406  10.640  11.147   8.985 -0.2304 -0.3970  0.1485
  152MOL0     C20407  10.512  11.218   8.959  0.3428 -0.0879  0.7956
  152MOL0     C20408  10.420  11.143   8.858  0.7075  0.1628 -0.0644
  152MOL0     O20409  10.293  11.213   8.855  0.1932 -0.7635 -0.1686
  152MOL0     C20410  10.184  11.144   8.815 -0.1902 -1.0060  0.6522
  152MOL0     C20411  10.141  11.175   8.691 -0.2969  0.0918  0.0871
  152MOL0     C20412  10.030  11.112   8.631 -0.0754  0.7281 -0.1269
  152MOL0     C20413   9.969  11.169   8.505  0.4485  0.7503 -0.5691
  152MOL0     C20414   9.954  11.016   8.711  0.5165 -0.5430  0.1036
  152MOL0     C20415   9.838  10.945   8.668 -0.3430 -0.6733  0.1411
  152MOL0     O20416   9.822  10.819   8.727  0.0498  0.2133  0.1189
  152MOL0     C20417   9.717  10.743   8.681  0.7425 -0.2226 -0.5294
  152MOL0     C20418   9.691  10.727   8.542  0.4099  0.2720  0.2762
  152MOL0     C20419   9.580  10.654   8.504 -0.0442  0.0669 -0.4546
  152MOL0     C20420   9.500  10.591   8.598  0.0397 -0.1298  0.6335
  152MOL0     O20421   9.391  10.519   8.564  0.3076  0.2784  0.2957
  152MOL0     C20422   9.356  10.489   8.427  0.8788 -0.8435  0.2032
  152MOL0     C20423   9.239  10.394   8.405  0.3232 -0.6432  0.3417
  152MOL0     C20424   9.126  10.434   8.496  0.0118  0.3083 -0.2415
  152MOL0     C20425   9.017  10.332   8.493 -0.5987  0.0595 -0.2428
  152MOL0     C20426   8.895  10.378   8.577  0.2216 -0.2538 -0.3332
  152MOL0     C20427   8.799  10.253   8.594 -1.2590  0.0357 -0.8123
  152MOL0     C20428   8.656  10.282   8.648 -0.3413  0.5681  1.0605
  152MOL0     C20429   8.596  10.155   8.704 -0.0345 -0.8810 -0.5955
  152MOL0    Cl20430   8.597  10.013   8.592  0.0578 -0.1029 -0.3774
  152MOL0     C20431   9.532  10.604   8.733 -0.0312  0.1800  0.2354
  152MOL0     C20432   9.639  10.679   8.773  0.3752 -0.1766  0.7369
  152MOL0     O20433   9.761  11.003   8.596 -0.1930  0.8613 -0.0642
  152MOL0     C20434  10.009  10.983   8.830 -0.0340  0.0595 -0.5376
  152MOL0     C20435  10.118  11.048   8.883 -0.4903  0.3970 -0.3860
  152MOL0     N20436  10.724  11.045   9.272 -0.0930 -0.4032 -0.5877
  152MOL0     N20437  10.724  11.056   9.402 -0.0684 -0.3071 -0.0155
  152MOL0     C20438  10.633  11.037  10.470 -0.6004  0.2666  0.6923
  152MOL0     C20439  10.505  11.024  10.526 -0.1899 -0.0245 -0.0436
  152MOL0     C20440  10.083  11.047  10.670 -0.1287  0.6957  0.5812
  152MOL0     C20441   9.989  11.055  10.564  0.7180  0.1386  0.2446
  152MOL0     C20442   9.857  11.019  10.587 -0.5884  0.0929 -0.8194
  152MOL0     C20443   9.809  10.976  10.708 -0.5021 -0.9176  0.2625
  152MOL0     O20444   9.679  10.941  10.737  0.4563 -0.0614  0.0568
  152MOL0     C20445   9.571  11.007  10.667  0.4327 -0.4275  0.1965
  152MOL0     C20446   9.532  11.146  10.736 -0.9151 -0.6299 -0.4005
  152MOL0     C20447   9.522  11.138  10.893  0.0320  0.0868 -0.3238
  152MOL0     C20448   9.392  11.218  10.934  0.1406  0.8557  0.8672
  152MOL0     C20449   9.382  11.220  11.085 -0.1128  0.7533  0.8513
  152MOL0     C20450   9.356  11.200  11.199 -1.1241  0.0218 -0.2394
  152MOL0     C20451   9.904  10.968  10.804 -0.0140  0.5811 -0.0665
  152MOL0     C20452  10.038  11.010  10.803  0.2271 -1.1914  0.8879
  152MOL0     H20453  10.347  11.272  10.374 -0.0783 -1.0758 -0.9192
  152MOL0     H20454  10.597  11.342  10.339 -0.3051  0.4128 -0.0830
  152MOL0     H20455  10.971  11.066  10.323 -0.3615  2.7750 -2.7717
  152MOL0     H20456  10.841  10.956  10.346  3.7872 -2.4253  0.1836
  152MOL0     H20457  10.864  11.148  10.112  0.7777  0.4171  0.9935
  152MOL0     H20458  10.921  10.982  10.118  0.8885 -0.1068  0.9430
  152MOL0     H20459  10.730  10.930  10.027 -2.9401 -1.1412  1.2846
  152MOL0     H20460  10.645  10.931  10.176 -2.5590 -0.5171 -1.4531
  152MOL0     H20461  10.514  11.065  10.100 -1.2910  1.7922  0.2810
  152MOL0     H20462  10.619  11.201  10.103 -0.8565 -0.4223  1.3508
  152MOL0     H20463  10.612  10.995   9.882 -0.2683 -0.1154  1.4573
  152MOL0     H20464  10.488  11.119   9.892 -0.7660 -1.0127  3.0595
  152MOL0     H20465  10.650  11.290   9.811 -0.4007 -1.3396  0.6809
  152MOL0     H20466  10.783  11.194   9.876 -1.8674 -1.2031  3.7114
  152MOL0     H20467  10.825  11.100   9.694  0.3191 -2.1308 -3.1127
  152MOL0     H20468  10.650  11.056   9.667  0.1870  0.8388  1.4413
  152MOL0     H20469  10.724  11.332   9.589 -1.9418 -0.3259 -1.3546
  152MOL0     H20470  10.589  11.245   9.571 -0.5791 -4.0691 -2.4387
  152MOL0     H20471  10.723  11.373   9.308 -1.2286 -0.0382 -1.0179
  152MOL0     H20472  10.736  11.326   9.046  2.9484  0.4341 -2.3530
  152MOL0     H20473  10.845  11.186   9.041 -0.1983  0.4023 -1.3631
  152MOL0     H20474  10.620  11.052   9.036  0.5509 -1.3024 -1.1801
  152MOL0     H20475  10.683  11.128   8.886 -0.8391 -1.1858  0.0210
  152MOL0     H20476  10.551  11.308   8.912 -0.3646  0.3629  1.0591
  152MOL0     H20477  10.461  11.246   9.052 -1.5399 -1.6083  0.2848
  152MOL0     H20478  10.417  11.036   8.877 -3.8469 -0.0459 -0.7128
  152MOL0     H20479  10.454  11.147   8.754  0.3115 -1.8605 -0.3074
  152MOL0     H20480  10.182  11.256   8.632 -3.7303  1.3328 -0.8100
  152MOL0     H20481   9.932  11.084   8.447 -0.2631  0.7214 -0.0771
  152MOL0     H20482   9.886  11.235   8.531  1.1493  1.1129  0.8303
  152MOL0     H20483  10.058  11.217   8.462 -0.2665  5.0308  2.1963
  152MOL0     H20484   9.743  10.766   8.455  0.2848 -1.7681 -0.7786
  152MOL0     H20485   9.558  10.639   8.399 -1.0334  0.9515 -0.3865
  152MOL0     H20486   9.329  10.573   8.362 -2.8586 -2.7977 -1.0634
  152MOL0     H20487   9.440  10.429   8.388  1.7005  0.0748  0.5130
  152MOL0     H20488   9.220  10.398   8.298  1.3789 -4.9047 -0.1874
  152MOL0     H20489   9.289  10.298   8.424  1.1239  0.0380  1.9146
  152MOL0     H20490   9.081  10.528   8.464 -0.9972 -0.2037 -0.3844
  152MOL0     H20491   9.167  10.443   8.597 -0.9355 -2.2767  0.4402
  152MOL0     H20492   8.992  10.308   8.389 -1.0638  0.9850 -0.3528
  152MOL0     H20493   9.052  10.239   8.539 -1.2584  0.0802  0.3305
  152MOL0     H20494   8.838  10.457   8.528  1.0436 -0.1423 -1.1244
  152MOL0     H20495   8.945  10.406   8.671  1.0701  0.2471 -0.9280
  152MOL0     H20496   8.783  10.211   8.495 -0.6388 -2.2638 -0.0174
  152MOL0     H20497   8.862  10.179   8.646  2.6515  2.5386 -1.5246
  152MOL0     H20498   8.589  10.318   8.570  0.2461 -1.6148 -0.5386
  152MOL0     H20499   8.673  10.357   8.726 -0.5002  0.7519  0.9187
  152MOL0     H20500   8.499  10.169   8.751  0.2311  1.5980 -0.6713
  152MOL0     H20501   8.667  10.119   8.779 -1.3451  3.3596  3.1487
  152MOL0     H20502   9.472  10.559   8.811  1.7063  0.6053  1.9202
  152MOL0     H20503   9.643  10.679   8.882  0.5237  0.1845  0.7339
  152MOL0     H20504   9.968  10.902   8.889 -0.5988 -0.6461 -1.8576
  152MOL0     H20505  10.143  11.009   8.981  0.4669  0.8640 -0.4369
  152MOL0     H20506  10.694  10.958  10.513 -3.0112 -3.1207 -1.5864
  152MOL0     H20507  10.484  10.950  10.602 -0.5845  2.1878  2.1561
  152MOL0     H20508  10.014  11.075  10.460  3.9043 -2.6742  0.2937
  152MOL0     H20509   9.791  11.023  10.501 -1.2554 -0.3492 -0.3471
  152MOL0     H20510   9.591  11.030  10.562  0.6067  0.4974  0.4182
  152MOL0     H20511   9.481  10.946  10.675 -0.3930  0.5690 -1.1024
  152MOL0     H20512   9.436  11.178  10.694  0.5171  3.6258 -0.9214
  152MOL0     H20513   9.613  11.218  10.719 -0.4218 -1.0123  0.3061
  152MOL0     H20514   9.609  11.176  10.946  0.7443  1.1664 -2.1615
  152MOL0     H20515   9.502  11.037  10.929  1.4740 -0.8968 -2.1264
  152MOL0     H20516   9.301  11.171  10.894 -0.3458  1.7335  0.9208
  152MOL0     H20517   9.397  11.322  10.902 -3.7260  1.4015  1.5431
  152MOL0     H20518   9.341  11.177  11.302 -0.7034 -0.1647 -0.2163
  152MOL0     H20519   9.860  10.934  10.897 -1.3903  0.6909 -0.6417
  152MOL0     H20520  10.109  11.016  10.885  2.3606  1.7308 -0.9713
  153MOL0     O20521   8.087   9.663   0.087  0.0069  0.6100 -0.1112
  153MOL0     C20522   8.072   9.770   0.033 -0.0241  0.4573 -0.3516
  153MOL0     O20523   8.171   9.870   0.035  0.2291  0.1424 -0.2520
  153MOL0     C20524   8.270   9.854   0.130 -0.0274 -0.6450  0.5228
  153MOL0     C20525   8.266   9.913   0.254 -0.2765  0.1312 -0.2352
  153MOL0     C20526   8.370   9.904   0.348  0.6832  0.4805 -0.0881
  153MOL0     C20527   8.477   9.832   0.313  0.6594  1.1388  0.0303
  153MOL0     O20528   8.573   9.828   0.411  0.2588 -0.9268 -0.0478
  153MOL0     C20529   8.679   9.729   0.401 -0.4366  0.5986 -0.1001
  153MOL0     C20530   8.609   9.596   0.427 -0.4297 -0.7453 -0.0099
  153MOL0     C20531   8.701   9.474   0.430 -0.5785 -0.6291 -0.9178
  153MOL0     C20532   8.764   9.452   0.297 -0.5140 -0.2044  0.2352
  153MOL0     C20533   8.864   9.343   0.293  0.4717  0.6554 -0.4077
  153MOL0     C20534   8.982   9.367   0.383 -1.1369 -0.3286  0.3216
  153MOL0     C20535   9.062   9.498   0.359 -0.1499 -0.0763  0.7309
  153MOL0     C20536   9.200   9.486   0.437  0.5500  0.4655 -0.0053
  153MOL0     N20537   9.194   9.546   0.575  0.5881  0.7351 -0.6404
  153MOL0     C20538   9.109   9.509   0.675  0.4229 -0.5690  1.2245
  153MOL0     C20539   9.138   9.603   0.765  0.4811 -0.3351  0.3021
  153MOL0     C20540   9.054   9.630   0.890  0.2176  0.7056 -0.5565
  153MOL0     C20541   8.901   9.614   0.873 -0.4193 -0.2262 -0.0674
  153MOL0     C20542   8.817   9.615   1.005 -0.1525 -0.2522 -0.8156
  153MOL0     C20543   8.668   9.610   0.986  1.4073 -0.0387 -0.2454
  153MOL0     O20544   8.618   9.478   0.958  0.0151 -0.0604 -0.3341
  153MOL0     C20545   8.484   9.434   0.955 -0.0981 -0.9135 -0.3402
  153MOL0     C20546   8.385   9.484   1.036 -0.7388 -0.6572 -0.7737
  153MOL0     C20547   8.251   9.435   1.039 -0.1867 -0.3132  0.1066
  153MOL0     C20548   8.159   9.493   1.147 -0.3662  0.7424 -0.3252
  153MOL0     C20549   8.218   9.322   0.958 -0.1296 -0.5773 -0.7142
  153MOL0     C20550   8.076   9.263   0.931 -0.2555  0.1648  0.5016
  153MOL0     O20551   8.079   9.160   0.847  0.0402  0.8605  0.6026
  153MOL0     C20552   7.969   9.117   0.781 -0.7803 -1.5645  0.4793
  153MOL0     C20553   7.964   9.139   0.648 -0.7623 -0.1925 -1.0856
  153MOL0     C20554   7.841   9.142   0.579 -0.3088 -0.6569  0.1500
  153MOL0     C20555   7.727   9.099   0.643  0.1175  0.1866 -0.4497
  153MOL0     O20556   7.609   9.098   0.581 -0.3307  0.2744 -0.5572
  153MOL0     C20557   7.621   9.036   0.448 -0.0581 -1.1875 -0.5022
  153MOL0     C20558   7.483   9.026   0.395 -0.3658  0.0096  0.8781
  153MOL0     C20559   7.426   9.158   0.345  0.8985 -0.2187 -0.7954
  153MOL0     C20560   7.268   9.156   0.354  0.0676  0.7505 -0.0336
  153MOL0     C20561   7.217   9.301   0.325 -0.0067 -0.1817 -0.3950
  153MOL0     C20562   7.066   9.311   0.342  0.5448 -0.1684 -0.1398
  153MOL0     C20563   6.975   9.218   0.254  0.1228  0.2307  0.8219
  153MOL0     C20564   6.838   9.274   0.246  1.0760 -0.0036  0.9080
  153MOL0    Cl20565   6.733   9.231   0.394 -0.4350 -0.2085  0.1039
  153MOL0     C20566   7.739   9.059   0.780  0.2854  0.6019  0.1341
  153MOL0     C20567   7.861   9.072   0.842  0.3393 -0.4107 -0.6354
  153MOL0     O20568   7.976   9.320   0.968 -0.2607 -0.3828 -0.2444
  153MOL0     C20569   8.326   9.269   0.875  0.5365  0.3084 -0.8484
  153MOL0     C20570   8.457   9.324   0.882  1.2561  0.4669 -0.2041
  153MOL0     N20571   9.234   9.686   0.721 -0.2528 -0.2766  1.0563
  153MOL0     N20572   9.263   9.651   0.610 -0.4362 -0.0877  0.2979
  153MOL0     C20573   8.490   9.771   0.186 -0.5884 -0.3434  0.1118
  153MOL0     C20574   8.388   9.785   0.100  0.0010  0.3091  0.3764
  153MOL0     C20575   7.944   9.776  -0.049 -0.4097 -1.4925  0.0584
  153MOL0     C20576   7.897   9.907  -0.086  0.1832  0.1842 -0.0740
  153MOL0     C20577   7.784   9.911  -0.175 -0.0813 -0.7778 -0.1629
  153MOL0     C20578   7.711   9.804  -0.215  0.1617  0.0469  1.0788
  153MOL0     O20579   7.605   9.797  -0.303  1.0819  0.4636  0.5788
  153MOL0     C20580   7.561   9.920  -0.367  0.0307 -0.1899 -0.3378
  153MOL0     C20581   7.667   9.983  -0.458  1.3987 -0.1635  0.4375
  153MOL0     C20582   7.607   9.987  -0.598  0.2461  0.0288  0.6066
  153MOL0     C20583   7.703  10.016  -0.712 -0.3982 -0.3100 -0.7494
  153MOL0     C20584   7.764  10.151  -0.689 -0.4548  0.1491  0.2691
  153MOL0     C20585   7.830  10.257  -0.686 -0.1710  0.3449  0.1893
  153MOL0     C20586   7.760   9.679  -0.171 -0.4927  0.9724 -0.0218
  153MOL0     C20587   7.864   9.658  -0.081 -0.2317 -0.0079  0.0715
  153MOL0     H20588   8.189   9.983   0.282  1.2648  1.1893  1.5481
  153MOL0     H20589   8.373   9.952   0.445  4.9430 -0.1124  0.2751
  153MOL0     H20590   8.740   9.734   0.310 -0.0841 -1.9529 -0.0843
  153MOL0     H20591   8.748   9.731   0.485  2.2484 -1.9425 -2.0206
  153MOL0     H20592   8.547   9.598   0.517 -1.2138  1.4651 -0.5266
  153MOL0     H20593   8.547   9.559   0.345  1.2316 -2.0800 -0.7062
  153MOL0     H20594   8.774   9.494   0.509 -0.7439  3.4396 -1.5934
  153MOL0     H20595   8.624   9.400   0.457 -2.2802  1.8443  1.5615
  153MOL0     H20596   8.679   9.440   0.229 -4.1996  4.0331  3.3882
  153MOL0     H20597   8.811   9.545   0.263  1.6214 -1.0652  0.6879
  153MOL0     H20598   8.819   9.250   0.329  1.0490 -0.0552 -1.4425
  153MOL0     H20599   8.901   9.323   0.192 -0.5831  1.1269 -0.9016
  153MOL0     H20600   8.949   9.347   0.486  0.1992 -1.0422  0.6300
  153MOL0     H20601   9.049   9.283   0.364 -1.9021 -0.6111 -1.2646
  153MOL0     H20602   9.080   9.512   0.252 -1.4335 -1.3077  0.3272
  153MOL0     H20603   9.014   9.586   0.403  0.1836  1.1365 -1.1951
  153MOL0     H20604   9.274   9.536   0.374  2.4070 -0.2553  1.5272
  153MOL0     H20605   9.234   9.383   0.445  1.6049  0.9180  1.5832
  153MOL0     H20606   9.026   9.441   0.685 -0.0899 -0.1094  0.3161
  153MOL0     H20607   9.096   9.561   0.963 -0.4901 -1.0960 -1.7949
  153MOL0     H20608   9.077   9.726   0.937  0.0097  0.0213  0.9931
  153MOL0     H20609   8.886   9.521   0.817 -1.0147 -0.0604 -0.1898
  153MOL0     H20610   8.868   9.703   0.819  0.4456  1.0457  1.4266
  153MOL0     H20611   8.846   9.706   1.059  1.1338 -1.9169  1.4256
  153MOL0     H20612   8.858   9.538   1.070 -1.7549  2.4006  3.7688
  153MOL0     H20613   8.640   9.678   0.905 -0.6298 -0.0388  0.4054
  153MOL0     H20614   8.615   9.655   1.071 -0.8123  0.2200 -1.6950
  153MOL0     H20615   8.407   9.567   1.101  0.5813  1.3716 -3.5928
  153MOL0     H20616   8.136   9.419   1.224 -0.7766  1.7891  0.5762
  153MOL0     H20617   8.212   9.572   1.201 -1.1174  1.1309 -0.1450
  153MOL0     H20618   8.076   9.544   1.099 -2.0466 -3.5257 -2.5093
  153MOL0     H20619   8.057   9.175   0.606  0.0981 -1.5475 -0.4169
  153MOL0     H20620   7.858   9.174   0.477  0.9132 -2.2315 -0.1781
  153MOL0     H20621   7.692   9.089   0.384  2.8519 -3.8584  0.2403
  153MOL0     H20622   7.668   8.937   0.456  4.0865  0.4564 -1.7016
  153MOL0     H20623   7.496   8.959   0.309 -0.7106  0.5813  0.3755
  153MOL0     H20624   7.415   8.976   0.465 -3.7707  2.0699 -0.7495
  153MOL0     H20625   7.445   9.174   0.238 -0.9179  5.5670 -0.6175
  153MOL0     H20626   7.467   9.246   0.396 -2.7037  0.1629  1.8496
  153MOL0     H20627   7.225   9.089   0.279 -0.4713 -0.1872  1.0809
  153MOL0     H20628   7.246   9.118   0.454 -1.4957  1.6159 -0.0110
  153MOL0     H20629   7.243   9.335   0.225  1.1483  1.9350  0.5501
  153MOL0     H20630   7.261   9.370   0.398 -1.1902  0.1813  0.0116
  153MOL0     H20631   7.041   9.297   0.448 -0.5507  2.9490  0.1115
  153MOL0     H20632   7.038   9.416   0.334 -0.0791 -0.2284  1.0689
  153MOL0     H20633   6.985   9.123   0.306  2.4018 -0.0373  0.0279
  153MOL0     H20634   7.018   9.202   0.154 -2.8174 -0.4353 -0.4332
  153MOL0     H20635   6.774   9.227   0.171 -2.4725  2.7987  1.8574
  153MOL0     H20636   6.845   9.382   0.227 -0.6713  0.1712  1.0806
  153MOL0     H20637   7.655   9.018   0.836  0.2148 -1.5406 -1.4412
  153MOL0     H20638   7.881   9.046   0.946  0.4470  1.3774 -0.1661
  153MOL0     H20639   8.310   9.192   0.800  1.0489 -1.0707  0.3920
  153MOL0     H20640   8.538   9.286   0.821  0.8545 -2.0435  0.7274
  153MOL0     H20641   8.572   9.704   0.161 -0.9894 -0.2694 -1.4860
  153MOL0     H20642   8.397   9.741   0.001 -1.3954  3.3712 -1.2667
  153MOL0     H20643   7.940  10.002  -0.057  1.6318 -0.3768 -0.3146
  153MOL0     H20644   7.760  10.013  -0.203  1.8456 -0.4485 -0.7765
  153MOL0     H20645   7.469   9.889  -0.417  1.0486 -3.6822 -0.3147
  153MOL0     H20646   7.540   9.999  -0.295  0.1367  0.2004 -0.7291
  153MOL0     H20647   7.756   9.920  -0.458 -0.2536 -2.6806 -1.1959
  153MOL0     H20648   7.697  10.084  -0.427  0.7172  0.3264 -0.4380
  153MOL0     H20649   7.520  10.052  -0.608 -0.5729 -1.3164 -2.1095
  153MOL0     H20650   7.558   9.892  -0.623 -3.2221  1.6190  0.7127
  153MOL0     H20651   7.645  10.009  -0.805 -0.8488 -1.9755 -0.3778
  153MOL0     H20652   7.774   9.933  -0.715 -0.7856 -0.6522 -0.5590
  153MOL0     H20653   7.897  10.340  -0.682  0.6668 -0.3324  0.4635
  153MOL0     H20654   7.715   9.592  -0.218 -0.3251 -0.4404  2.2445
  153MOL0     H20655   7.899   9.558  -0.057  0.9927  0.0467 -1.3304
  154MOL0     O20656   8.768  11.125  11.320  0.1327  0.0379 -0.4056
  154MOL0     C20657   8.831  11.140  11.217 -0.8811  0.5084 -0.0838
  154MOL0     O20658   8.781  11.205  11.107  0.1117  0.2912  0.2462
  154MOL0     C20659   8.663  11.272  11.112 -0.0498 -0.2714  0.6332
  154MOL0     C20660   8.602  11.346  11.213 -0.9418  0.5807 -0.4260
  154MOL0     C20661   8.488  11.428  11.193 -0.4521  0.2418 -0.3877
  154MOL0     C20662   8.429  11.439  11.069  0.7489 -0.7305 -0.1998
  154MOL0     O20663   8.316  11.512  11.048 -0.3308  0.0189 -0.3303
  154MOL0     C20664   8.320  11.653  11.066 -1.2182 -0.5493  0.1540
  154MOL0     C20665   8.183  11.718  11.071  0.3508  0.0203  0.4088
  154MOL0     C20666   8.208  11.871  11.110  0.3662  0.5220  0.9634
  154MOL0     C20667   8.258  11.973  11.009 -0.5331  0.3747 -0.0909
  154MOL0     C20668   8.242  12.124  11.049  0.5690 -0.4973  0.8350
  154MOL0     C20669   8.249  12.228  10.933 -0.5453 -0.5508  0.0236
  154MOL0     C20670   8.383  12.239  10.859 -0.0949  0.1306 -0.4769
  154MOL0     C20671   8.500  12.256  10.956 -0.6564  0.1136 -1.1289
  154MOL0     N20672   8.554  12.120  10.994 -0.6313  0.1415  1.0387
  154MOL0     C20673   8.594  12.030  10.895 -0.9447 -1.1068  0.1598
  154MOL0     C20674   8.637  11.921  10.958 -0.1831  0.3665 -0.6767
  154MOL0     C20675   8.682  11.802  10.873  0.1725  0.4137 -0.3955
  154MOL0     C20676   8.823  11.796  10.813  0.8047  0.0784  1.6333
  154MOL0     C20677   8.936  11.862  10.883 -0.8317  0.7730 -0.3206
  154MOL0     C20678   8.954  11.828  11.028 -0.5833 -0.2895 -0.2929
  154MOL0     O20679   9.084  11.879  11.085  0.1926  0.2743  0.1458
  154MOL0     C20680   9.093  12.011  11.134 -0.0228  0.7714 -0.0089
  154MOL0     C20681   9.006  12.121  11.126 -0.1000 -0.6197 -0.1482
  154MOL0     C20682   9.035  12.251  11.186  0.5443 -0.4190  0.6229
  154MOL0     C20683   8.924  12.350  11.164 -0.6410 -0.9714  1.2410
  154MOL0     C20684   9.166  12.270  11.240  0.7990  0.7314 -1.1140
  154MOL0     C20685   9.214  12.405  11.291 -0.3997 -0.9845  1.1376
  154MOL0     O20686   9.343  12.431  11.319  0.5389 -0.5525  0.3024
  154MOL0     C20687   9.366  12.548  11.391 -0.2503 -0.0833  0.3150
  154MOL0     C20688   9.465  12.629  11.331  1.8039  0.4762 -0.3622
  154MOL0     C20689   9.490  12.752  11.387 -0.4582  0.1998  0.0976
  154MOL0     C20690   9.424  12.801  11.499  0.1914  0.1155  0.1666
  154MOL0     O20691   9.443  12.919  11.566 -0.1070 -0.1714 -0.1637
  154MOL0     C20692   9.565  12.989  11.556 -0.6298  0.1248  0.6962
  154MOL0     C20693   9.563  13.123  11.629 -0.1252  0.4986 -1.3016
  154MOL0     C20694   9.696  13.193  11.617 -0.6042  0.3291  0.2764
  154MOL0     C20695   9.708  13.293  11.727  0.2628 -0.4777  0.2506
  154MOL0     C20696   9.823  13.386  11.701 -0.2385  0.2513  0.4962
  154MOL0     C20697   9.803  13.504  11.801 -0.7031 -0.1093  0.0506
  154MOL0     C20698   9.803  13.457  11.947  0.0499  0.3182  0.0650
  154MOL0     C20699   9.767  13.579  12.028  0.0090  0.0327 -0.1619
  154MOL0    Cl20700   9.611  13.641  11.975  0.1774 -0.2829 -0.0384
  154MOL0     C20701   9.313  12.727  11.544 -0.0665  0.2100  0.1611
  154MOL0     C20702   9.285  12.598  11.498  0.4484 -0.0902  0.7799
  154MOL0     O20703   9.114  12.470  11.317 -0.7136 -0.0120 -0.2079
  154MOL0     C20704   9.248  12.163  11.242  0.1301  0.3054 -0.7617
  154MOL0     C20705   9.213  12.036  11.201  0.5893 -0.4738  0.4732
  154MOL0     N20706   8.615  11.938  11.092 -0.1954  0.0403 -0.4164
  154MOL0     N20707   8.566  12.059  11.115  0.2143  0.4714 -0.0086
  154MOL0     C20708   8.484  11.362  10.967 -0.0653  0.0577  0.4782
  154MOL0     C20709   8.600  11.285  10.986 -1.1865 -0.7210 -0.9192
  154MOL0     C20710   8.958  11.066  11.203  0.6317  0.2944  0.2317
  154MOL0     C20711   9.032  11.058  11.082 -0.3408 -0.6666 -0.2330
  154MOL0     C20712   9.150  10.978  11.067 -0.0589 -1.2618 -0.4428
  154MOL0     C20713   9.204  10.918  11.184 -0.2383  0.2152  0.9151
  154MOL0     O20714   9.318  10.855  11.173  1.0501 -0.3848 -0.3535
  154MOL0     C20715   9.309  10.708  11.169 -0.2976  0.0632 -0.4778
  154MOL0     C20716   9.447  10.647  11.158  0.0291 -0.4987  0.3034
  154MOL0     C20717   9.514  10.676  11.025  1.0021  0.5890 -1.7926
  154MOL0     C20718   9.660  10.637  11.037 -0.7382 -0.1536 -1.4333
  154MOL0     C20719   9.701  10.557  10.928  0.0284 -0.5280 -0.2711
  154MOL0     C20720   9.735  10.485  10.840  0.9246  0.3244 -0.0867
  154MOL0     C20721   9.125  10.918  11.300 -0.7756 -0.1177  0.2388
  154MOL0     C20722   9.014  10.987  11.309  0.2982 -0.2704  0.6423
  154MOL0     H20723   8.659  11.347  11.305 -2.1237  0.9062  0.3277
  154MOL0     H20724   8.443  11.471  11.282  1.0060 -1.6174  1.3497
  154MOL0     H20725   8.395  11.685  11.140 -0.9850  0.6651 -0.5907
  154MOL0     H20726   8.361  11.693  10.973 -2.0421  1.6519  0.6848
  154MOL0     H20727   8.134  11.706  10.974  0.8687 -1.3980  0.3034
  154MOL0     H20728   8.125  11.676  11.153  3.6908 -1.7757  2.0858
  154MOL0     H20729   8.115  11.907  11.154 -1.5715  0.0509 -2.3862
  154MOL0     H20730   8.277  11.868  11.195 -2.1325 -0.2389  3.0996
  154MOL0     H20731   8.362  11.941  10.996 -1.1783 -1.7254 -0.4809
  154MOL0     H20732   8.210  11.941  10.916  0.2477 -4.0463  0.8313
  154MOL0     H20733   8.147  12.134  11.102  0.3934  1.3298  0.2704
  154MOL0     H20734   8.320  12.149  11.122  3.1818 -2.8172 -0.9396
  154MOL0     H20735   8.178  12.198  10.855 -0.8591 -1.9927  0.8155
  154MOL0     H20736   8.232  12.327  10.976 -1.7603 -0.4402 -0.7017
  154MOL0     H20737   8.407  12.164  10.783  2.7252  1.1992 -0.7626
  154MOL0     H20738   8.387  12.330  10.799  2.1313  0.6214  0.3068
  154MOL0     H20739   8.465  12.315  11.041 -1.5277  0.2901 -1.6043
  154MOL0     H20740   8.575  12.315  10.902 -1.6914  2.9433  0.3319
  154MOL0     H20741   8.612  12.041  10.789 -0.8495  0.8588  0.3535
  154MOL0     H20742   8.666  11.712  10.933 -2.5641  1.7624  1.1344
  154MOL0     H20743   8.615  11.800  10.786  1.6420 -0.9099 -1.5494
  154MOL0     H20744   8.812  11.831  10.710 -3.0110  1.3672  2.2852
  154MOL0     H20745   8.849  11.690  10.806 -0.6566 -0.2521  0.6079
  154MOL0     H20746   8.936  11.971  10.880  0.0485  0.8807  1.7331
  154MOL0     H20747   9.024  11.829  10.827 -0.8429 -0.3974  0.3123
  154MOL0     H20748   8.954  11.719  11.033 -1.6159 -0.2490  0.9170
  154MOL0     H20749   8.867  11.860  11.085 -0.4854 -1.6037  0.6234
  154MOL0     H20750   8.908  12.104  11.081 -0.8321 -0.8830  1.4799
  154MOL0     H20751   8.834  12.299  11.130 -1.6884  0.3621  1.9333
  154MOL0     H20752   8.903  12.387  11.264  1.6673 -1.2802  1.8922
  154MOL0     H20753   8.961  12.426  11.094  3.2554 -1.8160  2.1175
  154MOL0     H20754   9.509  12.585  11.243 -0.6339 -0.8291 -1.0333
  154MOL0     H20755   9.566  12.810  11.336 -1.9880  1.3986 -0.9263
  154MOL0     H20756   9.641  12.925  11.602  0.2780  1.7172  1.5008
  154MOL0     H20757   9.593  13.007  11.452 -1.2735  3.2900  0.9564
  154MOL0     H20758   9.478  13.187  11.603 -0.7029 -0.8752 -3.0241
  154MOL0     H20759   9.547  13.090  11.732  1.3973  0.0220 -1.1913
  154MOL0     H20760   9.718  13.237  11.519  0.6569 -1.5223 -0.3362
  154MOL0     H20761   9.767  13.111  11.632  0.0183  0.3220 -2.2431
  154MOL0     H20762   9.612  13.344  11.731  0.9587  1.0383 -1.1856
  154MOL0     H20763   9.728  13.244  11.823 -1.5892 -1.9295 -0.0382
  154MOL0     H20764   9.824  13.434  11.603  0.0265  0.0198  0.3858
  154MOL0     H20765   9.909  13.322  11.720 -0.1235 -0.3984 -1.9692
  154MOL0     H20766   9.882  13.578  11.784 -0.8930  0.4230  1.4130
  154MOL0     H20767   9.720  13.562  11.759  3.3798  3.2366 -4.6062
  154MOL0     H20768   9.906  13.426  11.964  0.7275  0.3903 -3.2756
  154MOL0     H20769   9.731  13.381  11.979  0.1622  0.7800  1.4937
  154MOL0     H20770   9.827  13.669  12.016 -0.8519  0.8532  1.3509
  154MOL0     H20771   9.775  13.535  12.128  0.1162  1.2077  0.3567
  154MOL0     H20772   9.265  12.781  11.625  0.5959 -1.2262  1.5654
  154MOL0     H20773   9.204  12.537  11.537 -3.3377  3.0791 -1.4036
  154MOL0     H20774   9.345  12.178  11.289  0.1708  0.2007 -0.8104
  154MOL0     H20775   9.284  11.958  11.226 -1.4448 -2.2367  0.9614
  154MOL0     H20776   8.428  11.356  10.874  1.8254  0.2790 -0.7199
  154MOL0     H20777   8.648  11.224  10.910 -0.8977 -3.4887  1.3300
  154MOL0     H20778   8.984  11.107  10.997 -0.4415  0.9073  0.7006
  154MOL0     H20779   9.197  10.982  10.970 -1.6584  1.7521 -1.2450
  154MOL0     H20780   9.249  10.676  11.254 -1.2678 -0.5240 -1.3678
  154MOL0     H20781   9.251  10.679  11.081 -0.1609  1.5591 -1.1065
  154MOL0     H20782   9.431  10.539  11.166  1.0327 -0.5988  1.2925
  154MOL0     H20783   9.507  10.682  11.243 -0.5282  0.1751  0.4238
  154MOL0     H20784   9.512  10.784  11.005  1.0399  0.4661 -2.4585
  154MOL0     H20785   9.468  10.633  10.936  0.9149  0.6584 -1.7808
  154MOL0     H20786   9.666  10.584  11.133 -1.2336  2.2084 -0.0112
  154MOL0     H20787   9.718  10.729  11.037 -2.3331  0.9222 -3.1732
  154MOL0     H20788   9.772  10.410  10.773 -1.4102  0.6512 -1.8350
  154MOL0     H20789   9.157  10.868  11.391  1.8146 -2.0151 -1.5831
  154MOL0     H20790   8.957  10.980  11.402  2.2672 -2.0765  1.8062
  155MOL0     O20791  10.553   6.319   5.381 -0.1023 -0.3952  0.6548
  155MOL0     C20792  10.457   6.265   5.332  0.1005 -1.0868  0.3494
  155MOL0     O20793  10.462   6.217   5.201 -0.5591  0.2851  1.0448
  155MOL0     C20794  10.575   6.246   5.134  0.6265 -1.3011 -0.0481
  155MOL0     C20795  10.647   6.143   5.065 -0.1684  1.0927  0.2507
  155MOL0     C20796  10.772   6.180   4.996 -0.3852 -0.2377 -0.7339
  155MOL0     C20797  10.817   6.318   4.990  0.1838 -0.1648  0.2162
  155MOL0     O20798  10.927   6.365   4.922 -0.5474  1.1309  0.1652
  155MOL0     C20799  11.046   6.335   4.971 -0.4159  0.9557  0.3489
  155MOL0     C20800  11.154   6.376   4.871 -0.6113 -0.0380 -0.4929
  155MOL0     C20801  11.222   6.272   4.781  0.3674 -0.0921 -0.1539
  155MOL0     C20802  11.312   6.348   4.681 -0.6324 -0.1282  0.1373
  155MOL0     C20803  11.390   6.265   4.573 -0.2282  0.5753 -0.0708
  155MOL0     C20804  11.469   6.342   4.480 -0.6628 -0.0776 -0.2784
  155MOL0     C20805  11.593   6.418   4.539 -0.6504  0.5970  0.5772
  155MOL0     C20806  11.685   6.321   4.613 -0.2919 -0.2688 -0.2448
  155MOL0     N20807  11.783   6.391   4.689  0.4206  0.0982  0.2374
  155MOL0     C20808  11.879   6.477   4.632  0.1647  0.0245  1.1077
  155MOL0     C20809  11.942   6.527   4.745  0.0433  1.4051  0.6553
  155MOL0     C20810  12.041   6.654   4.728  0.8291  1.0739  0.4895
  155MOL0     C20811  12.005   6.762   4.831 -0.3286 -0.2430  0.2406
  155MOL0     C20812  12.091   6.881   4.794 -0.5214 -0.2459  0.5794
  155MOL0     C20813  12.085   6.987   4.903 -0.5497  0.3960 -0.1666
  155MOL0     O20814  11.955   7.042   4.910 -0.0882  0.9765 -0.1739
  155MOL0     C20815  11.930   7.149   4.993  0.1442 -0.8912 -0.4086
  155MOL0     C20816  12.031   7.231   5.044 -0.4280 -1.0326 -1.3183
  155MOL0     C20817  11.994   7.340   5.130  0.9103  0.4801  0.2021
  155MOL0     C20818  12.108   7.435   5.170 -0.3038 -0.7876  0.1546
  155MOL0     C20819  11.865   7.353   5.182 -0.2570 -0.3517  0.0255
  155MOL0     C20820  11.838   7.447   5.297 -0.3208 -0.3945  0.5909
  155MOL0     O20821  11.923   7.469   5.406  1.0859  0.1990 -0.3803
  155MOL0     C20822  11.876   7.534   5.522  0.7027 -0.2916 -0.8326
  155MOL0     C20823  11.912   7.667   5.547 -0.1173 -0.3656  0.4596
  155MOL0     C20824  11.908   7.707   5.678 -0.4100 -1.1216 -0.2179
  155MOL0     C20825  11.850   7.638   5.777 -0.0647 -0.3395 -0.2225
  155MOL0     O20826  11.849   7.692   5.907 -0.8705  0.7709  0.8551
  155MOL0     C20827  11.985   7.737   5.948  0.9513  0.7046  0.5583
  155MOL0     C20828  12.011   7.776   6.097  0.3617  0.0037  0.2567
  155MOL0     C20829  11.891   7.857   6.159 -0.4628 -0.7557  0.4194
  155MOL0     C20830  11.906   8.012   6.145 -0.5571  0.2573  0.4255
  155MOL0     C20831  11.768   8.077   6.140 -0.5778 -0.0062  0.0446
  155MOL0     C20832  11.776   8.220   6.116 -0.4050  0.7980  0.3858
  155MOL0     C20833  11.638   8.294   6.113  0.0078 -0.9198 -0.9410
  155MOL0     C20834  11.574   8.301   6.263  0.0193  0.7203  0.2035
  155MOL0    Cl20835  11.432   8.394   6.248 -0.1192  0.1025 -0.0089
  155MOL0     C20836  11.796   7.518   5.755  0.1685  0.5006  0.3410
  155MOL0     C20837  11.806   7.464   5.629  0.4069 -0.4105 -0.8380
  155MOL0     O20838  11.722   7.493   5.291 -0.6781 -0.3818  0.2297
  155MOL0     C20839  11.762   7.263   5.137 -0.7452 -0.3061  0.0956
  155MOL0     C20840  11.799   7.172   5.028  0.7419  0.2097  1.1682
  155MOL0     N20841  11.907   6.473   4.862 -0.6241  0.2724 -0.2388
  155MOL0     N20842  11.813   6.387   4.825  0.3519  0.3902 -0.0329
  155MOL0     C20843  10.730   6.419   5.039 -0.1184  0.5665  0.7435
  155MOL0     C20844  10.615   6.380   5.109 -0.6289  0.6582  0.4500
  155MOL0     C20845  10.332   6.264   5.404  0.1180  0.8698  0.3936
  155MOL0     C20846  10.321   6.269   5.547 -0.1557  0.5336 -0.0102
  155MOL0     C20847  10.193   6.256   5.610 -0.4415 -1.4140 -0.0429
  155MOL0     C20848  10.077   6.241   5.536 -0.6917 -0.2334 -1.1992
  155MOL0     O20849   9.949   6.225   5.589 -0.2407  0.7493 -0.9515
  155MOL0     C20850   9.941   6.178   5.719 -0.5660  0.4079 -0.7618
  155MOL0     C20851   9.797   6.151   5.769 -0.1692 -0.2868 -0.3507
  155MOL0     C20852   9.716   6.060   5.681 -0.6445 -0.2630  0.8523
  155MOL0     C20853   9.670   6.125   5.549 -1.1421  0.1218  1.2999
  155MOL0     C20854   9.614   6.013   5.473 -0.1217  1.1926  0.0536
  155MOL0     C20855   9.573   5.936   5.383  0.2567 -0.1456  0.5613
  155MOL0     C20856  10.090   6.252   5.396  0.9148 -0.2360 -0.5173
  155MOL0     C20857  10.212   6.261   5.336 -1.1671  0.0164  0.8192
  155MOL0     H20858  10.618   6.038   5.067 -1.1820  1.3571 -0.0793
  155MOL0     H20859  10.833   6.109   4.942 -1.0062  1.4238 -3.8258
  155MOL0     H20860  11.074   6.389   5.062  1.7589  0.5910 -0.0609
  155MOL0     H20861  11.057   6.227   4.987 -0.4267  0.0667 -4.0962
  155MOL0     H20862  11.122   6.458   4.806  2.2804 -0.1192 -2.1469
  155MOL0     H20863  11.242   6.417   4.921  0.4594 -2.9110  0.2093
  155MOL0     H20864  11.282   6.211   4.849  0.5021 -0.5032 -0.6298
  155MOL0     H20865  11.139   6.215   4.737 -3.3114  2.4740  2.8140
  155MOL0     H20866  11.238   6.402   4.621 -2.3883 -2.3772  0.1200
  155MOL0     H20867  11.376   6.425   4.723 -0.3625  2.0685 -3.8934
  155MOL0     H20868  11.436   6.180   4.624 -0.3051  1.2237  1.1220
  155MOL0     H20869  11.312   6.213   4.516 -1.8178  0.6256  1.9380
  155MOL0     H20870  11.501   6.271   4.402  1.8701  0.1586  0.4476
  155MOL0     H20871  11.404   6.413   4.429 -1.7303 -0.2453  0.8011
  155MOL0     H20872  11.645   6.472   4.459 -4.0347  1.3683 -1.2993
  155MOL0     H20873  11.562   6.498   4.607  3.7093  2.5570  0.6488
  155MOL0     H20874  11.734   6.248   4.548  0.2297  0.9150 -1.2414
  155MOL0     H20875  11.632   6.264   4.689 -2.4723  0.7096 -0.9449
  155MOL0     H20876  11.890   6.498   4.527 -2.3964 -1.0352  0.5563
  155MOL0     H20877  12.141   6.611   4.737  1.2174  1.6778 -0.7299
  155MOL0     H20878  12.037   6.688   4.624  2.5028  0.9849  0.3663
  155MOL0     H20879  12.027   6.728   4.933 -6.1470 -1.0369  1.5764
  155MOL0     H20880  11.897   6.776   4.837 -0.2576  0.9551 -0.9646
  155MOL0     H20881  12.045   6.917   4.701  1.6890 -0.5452 -0.7071
  155MOL0     H20882  12.195   6.849   4.782  0.6018  2.3824  2.4250
  155MOL0     H20883  12.156   7.068   4.880 -1.3273  0.6162 -1.9285
  155MOL0     H20884  12.120   6.954   5.001  1.9026  1.4345 -0.5940
  155MOL0     H20885  12.134   7.222   5.010 -0.2594 -0.6054 -0.9328
  155MOL0     H20886  12.184   7.381   5.226  0.0491 -1.9603 -1.3729
  155MOL0     H20887  12.159   7.451   5.075  0.4944  0.7294  0.8127
  155MOL0     H20888  12.071   7.530   5.209  1.1020 -0.6029  1.1037
  155MOL0     H20889  11.960   7.730   5.472 -3.5370  0.5125 -1.2219
  155MOL0     H20890  11.941   7.810   5.690  0.3946 -1.3253 -0.6716
  155MOL0     H20891  12.055   7.657   5.921 -1.1958 -1.4068  0.9803
  155MOL0     H20892  12.009   7.830   5.895  1.5348  1.0852  1.4486
  155MOL0     H20893  12.025   7.680   6.149 -2.2218 -0.1054  0.8890
  155MOL0     H20894  12.105   7.831   6.108  1.1345 -0.9512 -1.2393
  155MOL0     H20895  11.893   7.834   6.265  1.0304 -1.8224  0.1845
  155MOL0     H20896  11.794   7.823   6.121 -1.7047  2.5341  0.2791
  155MOL0     H20897  11.952   8.055   6.235 -0.0997 -0.9852  0.8009
  155MOL0     H20898  11.984   8.040   6.075  0.3654  1.0574  1.7194
  155MOL0     H20899  11.705   8.058   6.228 -1.0059 -0.1025 -0.2805
  155MOL0     H20900  11.714   8.025   6.061  1.0514 -1.3034 -0.2823
  155MOL0     H20901  11.830   8.267   6.198 -3.2223  3.9031  0.7093
  155MOL0     H20902  11.817   8.238   6.016 -0.2476 -0.2403  0.2577
  155MOL0     H20903  11.560   8.253   6.048 -3.0106  0.6117  1.4140
  155MOL0     H20904  11.671   8.390   6.073  0.1243 -1.0902 -1.2496
  155MOL0     H20905  11.652   8.354   6.318  1.3386 -0.2839 -0.6347
  155MOL0     H20906  11.561   8.204   6.312  1.3610 -1.6999 -3.7001
  155MOL0     H20907  11.747   7.472   5.840  0.4147 -0.8718 -0.2281
  155MOL0     H20908  11.769   7.362   5.622  2.5415 -1.5010  1.8729
  155MOL0     H20909  11.661   7.280   5.171 -0.0803  0.6028  1.7016
  155MOL0     H20910  11.716   7.114   4.990 -0.2776  2.2495  0.1117
  155MOL0     H20911  10.761   6.521   5.015  1.5730 -0.4019 -1.5720
  155MOL0     H20912  10.548   6.455   5.150  0.5442  2.1890 -0.3326
  155MOL0     H20913  10.413   6.272   5.605  0.1119 -2.4068 -0.1206
  155MOL0     H20914  10.185   6.259   5.719 -0.2800 -0.1556 -0.0578
  155MOL0     H20915   9.997   6.084   5.720  0.7432  1.1594  0.2146
  155MOL0     H20916   9.983   6.247   5.794  0.8389  0.0308 -1.1827
  155MOL0     H20917   9.748   6.249   5.767 -4.8504 -2.3300  0.0493
  155MOL0     H20918   9.783   6.119   5.873 -0.2435 -1.6946 -0.7866
  155MOL0     H20919   9.627   6.027   5.735 -0.8514 -0.9772  0.0980
  155MOL0     H20920   9.776   5.972   5.656  1.4866  1.1455  0.7111
  155MOL0     H20921   9.744   6.172   5.483 -1.6129  0.6653  1.1538
  155MOL0     H20922   9.604   6.206   5.581  0.6133  2.3807 -0.4322
  155MOL0     H20923   9.541   5.885   5.294  0.7351 -2.9897  1.9079
  155MOL0     H20924  10.002   6.237   5.334  1.6718 -3.5437 -0.9688
  155MOL0     H20925  10.209   6.272   5.228  2.4289  0.0148  0.5984
  156MOL0     O20926   1.650   7.922   5.496 -0.2971 -0.1271  0.2073
  156MOL0     C20927   1.575   7.990   5.421 -0.7337 -0.9688 -0.4579
  156MOL0     O20928   1.606   8.124   5.384  0.2192  0.4638  0.2792
  156MOL0     C20929   1.716   8.176   5.441 -0.1014 -0.5800  0.3979
  156MOL0     C20930   1.707   8.234   5.567  0.7920  0.3861  0.4423
  156MOL0     C20931   1.810   8.321   5.615  0.6677  0.5909  0.8958
  156MOL0     C20932   1.925   8.346   5.536  0.4043  0.1984  0.7433
  156MOL0     O20933   2.029   8.423   5.579  0.3495 -0.1938 -0.1766
  156MOL0     C20934   2.006   8.534   5.661  0.0534 -0.3133  0.1624
  156MOL0     C20935   2.136   8.601   5.694 -0.6253  0.0313 -0.6156
  156MOL0     C20936   2.220   8.507   5.788 -0.4137 -0.9021 -0.4530
  156MOL0     C20937   2.367   8.565   5.750 -0.6604  1.3523  0.0473
  156MOL0     C20938   2.465   8.514   5.858 -0.2745  0.0193 -0.2793
  156MOL0     C20939   2.596   8.596   5.849 -0.8698 -0.2523  0.3770
  156MOL0     C20940   2.721   8.506   5.905 -0.2722  0.7290 -0.6779
  156MOL0     C20941   2.854   8.582   5.934 -0.3288 -0.4211 -0.6408
  156MOL0     N20942   2.964   8.486   5.943 -0.6708  0.2780  0.0739
  156MOL0     C20943   3.003   8.409   6.059  0.3746 -0.0715  0.1731
  156MOL0     C20944   3.094   8.326   6.010  0.0115  0.5727  0.4632
  156MOL0     C20945   3.135   8.199   6.080  0.9053 -0.0398 -0.2946
  156MOL0     C20946   3.246   8.124   6.008 -0.3262 -0.7490 -0.2604
  156MOL0     C20947   3.196   8.004   5.930  0.1291 -0.2970 -0.3591
  156MOL0     C20948   3.292   7.928   5.836  0.3639 -0.3102  0.4135
  156MOL0     O20949   3.378   7.849   5.915  0.1435  0.3757 -0.2663
  156MOL0     C20950   3.329   7.727   5.969 -0.2287  0.7877 -0.0736
  156MOL0     C20951   3.405   7.671   6.069  0.7406 -0.1548 -0.2286
  156MOL0     C20952   3.369   7.545   6.124  0.0655 -0.5291 -0.7423
  156MOL0     C20953   3.494   7.489   6.190  0.4039 -0.8222  0.0667
  156MOL0     C20954   3.254   7.476   6.088 -0.7767  0.4261  0.2656
  156MOL0     C20955   3.201   7.359   6.147 -0.5587 -0.7100 -0.3386
  156MOL0     O20956   3.260   7.319   6.274 -0.6201  0.9255  0.0468
  156MOL0     C20957   3.212   7.204   6.336 -1.2696 -0.0236  0.1648
  156MOL0     C20958   3.255   7.075   6.332 -1.1580 -0.5962 -0.1804
  156MOL0     C20959   3.215   6.978   6.419  0.7277 -0.1256 -0.9281
  156MOL0     C20960   3.124   7.007   6.519  0.2009 -0.2493 -0.9231
  156MOL0     O20961   3.089   6.925   6.626  0.2443  0.2209  0.1626
  156MOL0     C20962   3.122   6.789   6.622  0.4088  0.6835 -0.0793
  156MOL0     C20963   3.068   6.705   6.737  0.3558 -0.5538 -0.0554
  156MOL0     C20964   2.918   6.687   6.746  0.3767 -0.1484  0.1035
  156MOL0     C20965   2.846   6.701   6.874  0.3019 -0.2376  0.6704
  156MOL0     C20966   2.686   6.704   6.868 -0.2208 -0.8903 -0.4338
  156MOL0     C20967   2.630   6.670   7.005  0.0966  0.3848 -0.8891
  156MOL0     C20968   2.472   6.672   7.012  0.3967 -0.5203 -0.4121
  156MOL0     C20969   2.428   6.571   7.127  0.1659  0.7355  0.2107
  156MOL0    Cl20970   2.444   6.401   7.058  0.0232 -0.1830 -0.2050
  156MOL0     C20971   3.084   7.141   6.538 -0.5505  0.8359  0.3123
  156MOL0     C20972   3.134   7.236   6.450 -0.7361 -0.4466 -0.1396
  156MOL0     O20973   3.105   7.309   6.087  0.9406  0.5305  0.2273
  156MOL0     C20974   3.174   7.539   5.987  0.3716 -0.0987 -0.2827
  156MOL0     C20975   3.214   7.656   5.926 -0.2452  0.6157  0.2874
  156MOL0     N20976   3.131   8.368   5.887  0.1384 -0.0036  0.3162
  156MOL0     N20977   3.051   8.463   5.845  0.2003 -0.4377 -0.2779
  156MOL0     C20978   1.927   8.294   5.401 -0.5974 -0.3574 -0.1546
  156MOL0     C20979   1.824   8.208   5.358  0.4088 -0.1720  0.0889
  156MOL0     C20980   1.464   7.914   5.350 -0.1624  0.2911  0.7504
  156MOL0     C20981   1.390   7.983   5.255 -0.4297  0.0315 -0.1687
  156MOL0     C20982   1.294   7.910   5.174  0.2207 -0.0875  0.0045
  156MOL0     C20983   1.270   7.773   5.184  0.4001 -0.0380  0.2260
  156MOL0     O20984   1.179   7.714   5.099 -0.0579 -0.6630 -0.0496
  156MOL0     C20985   1.138   7.580   5.131  0.1328  1.5488 -0.6334
  156MOL0     C20986   1.044   7.569   5.249 -0.2305 -0.6075 -0.9534
  156MOL0     C20987   0.947   7.689   5.255 -0.3720  0.2370 -0.7636
  156MOL0     C20988   0.869   7.718   5.128  0.5578  0.0218 -0.0725
  156MOL0     C20989   0.727   7.766   5.148 -1.4975 -0.1163 -0.0463
  156MOL0     C20990   0.615   7.810   5.155 -0.8651 -0.7611 -0.2783
  156MOL0     C20991   1.346   7.704   5.291  0.4240 -0.3484 -0.3403
  156MOL0     C20992   1.445   7.777   5.372  0.3491  1.2185 -0.0373
  156MOL0     H20993   1.616   8.218   5.624  0.9737  3.8350  1.9445
  156MOL0     H20994   1.802   8.349   5.720 -1.5709  0.4372  0.8208
  156MOL0     H20995   1.959   8.610   5.598 -0.1320 -2.3265 -2.2665
  156MOL0     H20996   1.948   8.518   5.753  0.8281 -0.8986  0.5599
  156MOL0     H20997   2.181   8.619   5.596 -1.7305  0.3368 -1.0874
  156MOL0     H20998   2.123   8.701   5.736  0.6427 -0.1162  0.1756
  156MOL0     H20999   2.203   8.516   5.896 -1.2805 -3.4426 -0.3018
  156MOL0     H21000   2.200   8.406   5.751  1.1542 -0.0684 -3.9063
  156MOL0     H21001   2.399   8.557   5.646  1.2466  1.6526  0.5821
  156MOL0     H21002   2.358   8.673   5.744  0.3299  1.4383  0.0757
  156MOL0     H21003   2.427   8.512   5.960  2.2276 -0.8025  0.7063
  156MOL0     H21004   2.497   8.414   5.828 -3.4436 -2.1133  2.6858
  156MOL0     H21005   2.605   8.630   5.746  0.8786 -2.8953 -0.4562
  156MOL0     H21006   2.579   8.682   5.914 -0.0569  1.4546 -1.5545
  156MOL0     H21007   2.693   8.450   5.996 -2.5317 -1.1883 -2.4194
  156MOL0     H21008   2.736   8.423   5.835  1.2720 -1.8501  2.4254
  156MOL0     H21009   2.840   8.655   6.014 -0.9856  0.4058 -1.4719
  156MOL0     H21010   2.870   8.642   5.844  0.5517  0.6793  0.2191
  156MOL0     H21011   2.961   8.409   6.159  1.4727  1.2074  0.6707
  156MOL0     H21012   3.155   8.239   6.180 -0.9826 -1.6584  0.7947
  156MOL0     H21013   3.053   8.129   6.100  0.2998  0.8983  0.6475
  156MOL0     H21014   3.318   8.095   6.085  0.3553 -0.5056 -0.7872
  156MOL0     H21015   3.308   8.183   5.939 -2.6375 -0.2805 -2.0708
  156MOL0     H21016   3.109   8.036   5.872  1.2894 -0.7498 -2.4532
  156MOL0     H21017   3.161   7.933   6.005  2.5086 -0.0250  1.1418
  156MOL0     H21018   3.344   8.003   5.776  1.3937  1.2485  3.1218
  156MOL0     H21019   3.229   7.867   5.770  1.0885  0.7038 -1.2998
  156MOL0     H21020   3.502   7.715   6.092  0.1030  0.4089  1.5249
  156MOL0     H21021   3.513   7.540   6.285 -1.8175 -2.4491  1.4746
  156MOL0     H21022   3.494   7.383   6.219 -0.8905 -1.3056 -1.5466
  156MOL0     H21023   3.571   7.494   6.112  0.0471 -0.1269 -0.2485
  156MOL0     H21024   3.335   7.047   6.265  0.7228 -3.4810  2.9510
  156MOL0     H21025   3.254   6.880   6.393 -2.8529 -1.5061 -1.6175
  156MOL0     H21026   3.088   6.745   6.528 -0.9920  1.7569 -0.1205
  156MOL0     H21027   3.231   6.784   6.620  0.5127  1.5877  1.5068
  156MOL0     H21028   3.116   6.607   6.731  1.6425 -0.2829  3.7191
  156MOL0     H21029   3.103   6.757   6.826  1.2258 -0.2898 -0.5374
  156MOL0     H21030   2.903   6.581   6.722  1.8766 -0.5973  1.0379
  156MOL0     H21031   2.867   6.745   6.668  2.4970  0.8133 -0.6422
  156MOL0     H21032   2.891   6.626   6.939  2.4224  1.8464  1.8034
  156MOL0     H21033   2.868   6.804   6.905  0.7596 -0.0577 -0.2150
  156MOL0     H21034   2.638   6.629   6.805 -1.7079 -2.4036  2.3029
  156MOL0     H21035   2.644   6.800   6.836 -1.3551 -0.4649  2.0215
  156MOL0     H21036   2.655   6.570   7.041 -1.3100 -0.7993 -2.9443
  156MOL0     H21037   2.666   6.748   7.071  2.7569  1.0733 -2.9941
  156MOL0     H21038   2.426   6.644   6.917  0.1398  2.0020 -1.1123
  156MOL0     H21039   2.432   6.773   7.026 -1.3665 -0.6924 -3.3569
  156MOL0     H21040   2.322   6.585   7.150 -0.5525 -2.0219 -0.9215
  156MOL0     H21041   2.500   6.590   7.206  1.6420 -0.9151 -0.6638
  156MOL0     H21042   3.034   7.178   6.626  1.2427  3.1963  0.4419
  156MOL0     H21043   3.113   7.341   6.467  0.9105  0.4340 -2.9090
  156MOL0     H21044   3.081   7.493   5.954  0.8763 -1.6685  0.3791
  156MOL0     H21045   3.149   7.692   5.847 -0.5952 -1.0995 -0.2461
  156MOL0     H21046   2.012   8.311   5.337 -0.9824  0.0113 -0.5754
  156MOL0     H21047   1.825   8.186   5.251 -1.3822 -0.9145  0.1949
  156MOL0     H21048   1.401   8.088   5.228 -2.8824  0.0954 -1.1450
  156MOL0     H21049   1.233   7.958   5.097 -0.6740 -0.2205  0.6154
  156MOL0     H21050   1.079   7.543   5.046 -0.8026  0.2844  0.5231
  156MOL0     H21051   1.220   7.511   5.152 -2.1893 -0.1300  4.6405
  156MOL0     H21052   1.106   7.578   5.339  1.7718  0.8916 -2.4010
  156MOL0     H21053   0.981   7.481   5.258 -1.5749  0.5055  2.8272
  156MOL0     H21054   1.005   7.779   5.278  0.5273 -0.7387  0.9525
  156MOL0     H21055   0.877   7.659   5.334  2.1766 -2.9035  0.4891
  156MOL0     H21056   0.875   7.625   5.070  0.8135  0.4037 -0.6561
  156MOL0     H21057   0.927   7.791   5.072 -1.6815  2.4703  0.6121
  156MOL0     H21058   0.516   7.847   5.176 -0.9110 -1.0463  0.0097
  156MOL0     H21059   1.324   7.601   5.316  0.0016 -0.0162  0.7526
  156MOL0     H21060   1.504   7.726   5.447  0.2382  0.2890 -0.5633
  157MOL0     O21061   8.863   0.759   8.184 -0.9662 -0.7788  0.0945
  157MOL0     C21062   8.894   0.641   8.172 -0.2462  0.0694 -0.3004
  157MOL0     O21063   8.821   0.536   8.214 -0.2362 -0.0184  0.0506
  157MOL0     C21064   8.687   0.554   8.264  0.0386 -0.1427 -0.1698
  157MOL0     C21065   8.597   0.449   8.254 -0.1941 -0.0267  0.0884
  157MOL0     C21066   8.458   0.474   8.279 -0.3283  0.5765 -0.3487
  157MOL0     C21067   8.413   0.595   8.322  0.3802 -0.2537  0.2633
  157MOL0     O21068   8.283   0.624   8.360  0.7752 -0.2787 -0.7664
  157MOL0     C21069   8.192   0.509   8.380 -0.9035  0.2911  0.4678
  157MOL0     C21070   8.068   0.547   8.448  0.1730  0.2173 -0.8640
  157MOL0     C21071   8.083   0.579   8.597 -0.2519 -0.1130 -0.0286
  157MOL0     C21072   7.956   0.637   8.667 -0.0754  0.0163  0.6624
  157MOL0     C21073   7.862   0.518   8.723 -0.3579 -0.2174  0.3561
  157MOL0     C21074   7.744   0.563   8.804 -0.2053  1.0419  0.1792
  157MOL0     C21075   7.648   0.442   8.840  0.4896 -0.2790 -0.0367
  157MOL0     C21076   7.527   0.417   8.747  0.0096 -0.0933 -0.1168
  157MOL0     N21077   7.410   0.367   8.825 -0.2934  0.2375 -0.1405
  157MOL0     C21078   7.283   0.425   8.837  0.2607 -0.7046 -1.3513
  157MOL0     C21079   7.208   0.329   8.897 -0.0314  0.5516 -0.6854
  157MOL0     C21080   7.060   0.322   8.912 -0.3289  0.3120  0.1231
  157MOL0     C21081   6.990   0.216   8.823  0.8242 -0.6945  1.0994
  157MOL0     C21082   7.012   0.250   8.670  0.4229  0.0480  0.5258
  157MOL0     C21083   6.969   0.394   8.642 -0.4046  0.5438  0.0211
  157MOL0     O21084   6.827   0.417   8.637 -0.3177 -0.4043  0.2411
  157MOL0     C21085   6.789   0.540   8.583  0.5623 -0.2070 -0.5983
  157MOL0     C21086   6.736   0.647   8.669 -0.1528 -0.1771  0.7229
  157MOL0     C21087   6.698   0.770   8.619  0.5894 -0.6003  0.6270
  157MOL0     C21088   6.663   0.880   8.709  0.0055 -0.4957 -0.5632
  157MOL0     C21089   6.694   0.788   8.481 -0.3015  1.2597 -0.0430
  157MOL0     C21090   6.639   0.907   8.413  0.2943  0.1505  0.2730
  157MOL0     O21091   6.577   0.894   8.288  0.0117 -0.4947 -0.2631
  157MOL0     C21092   6.505   1.006   8.250 -0.3953 -0.1228 -0.2893
  157MOL0     C21093   6.550   1.093   8.150  0.0069 -0.7550 -0.7894
  157MOL0     C21094   6.487   1.211   8.113 -1.8123 -0.7723 -0.6048
  157MOL0     C21095   6.362   1.223   8.161 -0.3067 -0.7044  0.0202
  157MOL0     O21096   6.286   1.317   8.093 -0.1389  0.7654  0.0452
  157MOL0     C21097   6.145   1.340   8.112 -0.5124 -0.3760  1.0071
  157MOL0     C21098   6.064   1.258   8.018  0.2322  0.1778 -1.0444
  157MOL0     C21099   5.922   1.203   8.070 -1.1116 -0.0846  0.1070
  157MOL0     C21100   5.812   1.315   8.090 -0.2060 -0.9514 -0.0541
  157MOL0     C21101   5.674   1.262   8.132 -0.0891  0.4109 -0.2515
  157MOL0     C21102   5.555   1.348   8.113  0.3405  0.4703 -1.0529
  157MOL0     C21103   5.439   1.313   8.221  0.3569  0.5993  0.3967
  157MOL0     C21104   5.459   1.369   8.359 -0.2466 -0.1713 -0.0276
  157MOL0    Cl21105   5.482   1.549   8.332 -0.1320  0.0670 -0.4254
  157MOL0     C21106   6.315   1.154   8.267 -0.6550  0.0659  0.3436
  157MOL0     C21107   6.394   1.052   8.314 -0.1945 -0.2423  0.3163
  157MOL0     O21108   6.663   1.016   8.461 -0.3590 -0.5811 -0.4707
  157MOL0     C21109   6.721   0.685   8.399 -0.2728  0.6335 -0.2001
  157MOL0     C21110   6.780   0.565   8.446 -0.7318 -0.0835 -0.0622
  157MOL0     N21111   7.274   0.211   8.911  0.6509  0.2518  0.3552
  157MOL0     N21112   7.393   0.231   8.850  0.5174 -0.9224  0.7950
  157MOL0     C21113   8.504   0.696   8.353 -0.1702 -0.0650 -0.1468
  157MOL0     C21114   8.635   0.673   8.330 -0.6119  0.6472  0.6048
  157MOL0     C21115   9.024   0.619   8.116 -0.0588 -0.4323 -0.6445
  157MOL0     C21116   9.087   0.497   8.118 -0.3289 -0.0705 -0.0117
  157MOL0     C21117   9.202   0.459   8.049 -0.3371 -0.1619  0.6076
  157MOL0     C21118   9.239   0.548   7.946  0.1067 -0.0707  0.0611
  157MOL0     O21119   9.326   0.504   7.847 -0.5359 -0.0673  0.4775
  157MOL0     C21120   9.264   0.467   7.726 -0.1812  0.1892  0.2741
  157MOL0     C21121   9.211   0.332   7.738  1.0582  0.1012  0.5039
  157MOL0     C21122   9.305   0.212   7.779  0.6995  0.2890 -0.2996
  157MOL0     C21123   9.397   0.201   7.661  0.4644 -0.1426  0.3486
  157MOL0     C21124   9.460   0.072   7.654  0.6631  0.4963 -0.6792
  157MOL0     C21125   9.491  -0.044   7.655  0.4454  0.1964 -0.7487
  157MOL0     C21126   9.202   0.680   7.958 -0.3934  0.3603 -1.0012
  157MOL0     C21127   9.097   0.715   8.040  0.0350  0.7949 -0.4194
  157MOL0     H21128   8.629   0.358   8.204  2.7613  0.6206  0.6100
  157MOL0     H21129   8.390   0.389   8.271  1.3697 -0.8739 -0.0607
  157MOL0     H21130   8.161   0.460   8.287  4.7797 -1.4290 -0.9246
  157MOL0     H21131   8.247   0.434   8.438 -0.2280  0.6320  0.2816
  157MOL0     H21132   8.019   0.629   8.394  1.6770  0.8937 -1.2483
  157MOL0     H21133   8.005   0.458   8.448  0.7077 -0.1729 -0.0176
  157MOL0     H21134   8.115   0.489   8.650  2.4839  0.9080  0.2056
  157MOL0     H21135   8.170   0.645   8.607 -0.0514 -0.4742  0.6000
  157MOL0     H21136   7.988   0.680   8.762  2.2972 -2.3800  1.0745
  157MOL0     H21137   7.899   0.702   8.600 -1.3937  1.0372  2.6489
  157MOL0     H21138   7.816   0.469   8.637 -0.1530  0.5531 -0.1999
  157MOL0     H21139   7.927   0.446   8.775  0.5878 -0.3986 -1.0216
  157MOL0     H21140   7.771   0.613   8.897  1.8935 -1.1872  0.8793
  157MOL0     H21141   7.686   0.635   8.746 -0.7586  0.7223  0.3321
  157MOL0     H21142   7.696   0.344   8.845 -1.8356 -1.4651  0.5406
  157MOL0     H21143   7.608   0.460   8.941 -1.3747  0.2770 -0.8233
  157MOL0     H21144   7.566   0.337   8.684 -0.6755 -2.5060  2.3155
  157MOL0     H21145   7.496   0.505   8.691 -2.6216  0.1178  1.4740
  157MOL0     H21146   7.244   0.524   8.817  0.5642  0.5753  3.2012
  157MOL0     H21147   7.041   0.294   9.016 -1.5986 -0.5409 -0.3204
  157MOL0     H21148   7.023   0.425   8.904  0.0407  0.5686  1.4858
  157MOL0     H21149   6.883   0.208   8.841  0.7273 -1.7778  0.1835
  157MOL0     H21150   7.033   0.116   8.839  1.3867 -0.9887 -1.6156
  157MOL0     H21151   6.954   0.190   8.600 -0.1115  0.2009  0.8330
  157MOL0     H21152   7.119   0.236   8.651  0.3289 -0.2328  0.2020
  157MOL0     H21153   7.008   0.405   8.541  3.3680 -0.8290  1.1320
  157MOL0     H21154   7.013   0.470   8.708 -2.4987  1.9454 -0.1163
  157MOL0     H21155   6.730   0.620   8.775 -0.0850  2.4009  1.4452
  157MOL0     H21156   6.740   0.955   8.690 -0.1301 -0.9931 -3.6165
  157MOL0     H21157   6.564   0.923   8.690 -1.2200 -0.5676  4.3723
  157MOL0     H21158   6.675   0.859   8.816 -0.8800  2.3218  0.1813
  157MOL0     H21159   6.639   1.054   8.102  1.2657 -0.2330  0.9940
  157MOL0     H21160   6.523   1.280   8.037  0.1107 -1.0129  0.0420
  157MOL0     H21161   6.110   1.324   8.214 -4.3794  0.1550 -0.0981
  157MOL0     H21162   6.126   1.447   8.107  2.2105  0.2744  2.3352
  157MOL0     H21163   6.059   1.312   7.923  0.1334  2.6206  0.2899
  157MOL0     H21164   6.120   1.165   8.002 -2.1476 -1.7219  0.7808
  157MOL0     H21165   5.924   1.152   8.167  2.1303 -1.9441 -0.7940
  157MOL0     H21166   5.885   1.140   7.989 -1.6973  0.6374 -0.2014
  157MOL0     H21167   5.838   1.390   8.164 -1.3214  0.2486 -0.8281
  157MOL0     H21168   5.825   1.387   8.009  4.7075 -0.9824  0.3894
  157MOL0     H21169   5.678   1.236   8.238 -2.4851 -4.1552 -1.0045
  157MOL0     H21170   5.649   1.166   8.085  0.8023 -0.4134  0.9132
  157MOL0     H21171   5.588   1.452   8.120  0.7668  0.3044 -0.4535
  157MOL0     H21172   5.517   1.342   8.010  1.2109  0.8647 -1.4087
  157MOL0     H21173   5.413   1.208   8.230 -0.3815  0.3521 -3.0025
  157MOL0     H21174   5.348   1.361   8.183  0.1785  0.7656  1.0211
  157MOL0     H21175   5.541   1.331   8.421 -0.0969 -0.3164 -0.3125
  157MOL0     H21176   5.369   1.359   8.421  0.6828 -2.8651  1.0403
  157MOL0     H21177   6.220   1.169   8.317 -1.1536 -1.6030 -0.0459
  157MOL0     H21178   6.374   0.985   8.397 -0.6795 -4.2121 -2.7070
  157MOL0     H21179   6.702   0.700   8.293  1.8665  5.1368 -0.1696
  157MOL0     H21180   6.814   0.485   8.381  0.2773 -0.0169  0.3592
  157MOL0     H21181   8.458   0.788   8.387  1.9703  0.3466  1.8162
  157MOL0     H21182   8.685   0.770   8.337 -2.2080  1.8089 -2.2688
  157MOL0     H21183   9.048   0.421   8.186  1.4164 -1.2774 -0.3021
  157MOL0     H21184   9.246   0.361   8.064 -1.1490 -0.5030  0.8199
  157MOL0     H21185   9.188   0.539   7.695  2.1768  2.6441 -0.1236
  157MOL0     H21186   9.335   0.480   7.644 -0.5643 -0.8415 -0.2359
  157MOL0     H21187   9.162   0.302   7.645  0.2554 -2.2058  1.5699
  157MOL0     H21188   9.135   0.341   7.817  0.7425  2.5061 -0.0227
  157MOL0     H21189   9.247   0.122   7.804 -0.7221  0.8678 -1.3868
  157MOL0     H21190   9.356   0.246   7.870 -1.1650 -0.4950  1.1040
  157MOL0     H21191   9.472   0.280   7.652  3.0576 -2.4164  0.6042
  157MOL0     H21192   9.337   0.205   7.570 -0.9164 -0.2709  1.2210
  157MOL0     H21193   9.492  -0.151   7.649 -1.9532  0.1001 -0.2897
  157MOL0     H21194   9.239   0.758   7.892  2.5084  1.2158  1.4043
  157MOL0     H21195   9.066   0.819   8.039 -2.7604  0.1296  2.2393
  158MOL0     O21196  10.996   0.106   6.711  0.5956  0.4735  0.2040
  158MOL0     C21197  10.949   0.180   6.799 -0.7963 -0.3322 -0.6651
  158MOL0     O21198  11.016   0.290   6.859  0.2879 -0.1155  0.5669
  158MOL0     C21199  11.133   0.338   6.819  0.0283  0.5499 -0.5443
  158MOL0     C21200  11.258   0.284   6.883 -0.0378 -0.7215  0.9088
  158MOL0     C21201  11.375   0.354   6.850 -0.5877 -0.1852  0.2560
  158MOL0     C21202  11.378   0.465   6.765  0.5776  0.1374  0.1181
  158MOL0     O21203  11.501   0.513   6.733  0.6402  0.1107 -0.0059
  158MOL0     C21204  11.515   0.632   6.650 -0.2813 -0.9318 -0.8697
  158MOL0     C21205  11.655   0.642   6.606  0.6451  0.5861 -1.1045
  158MOL0     C21206  11.686   0.756   6.507  0.0810  0.3174  0.5301
  158MOL0     C21207  11.831   0.761   6.476  0.6454  0.4770 -0.1530
  158MOL0     C21208  11.872   0.888   6.402 -0.6150  0.4213 -0.5128
  158MOL0     C21209  12.017   0.918   6.426  0.4969 -0.0653 -0.6658
  158MOL0     C21210  12.041   0.980   6.574  0.2619 -0.4118  1.0736
  158MOL0     C21211  12.183   1.028   6.586 -0.9137  0.5934  0.2474
  158MOL0     N21212  12.219   1.111   6.696 -0.5677 -0.2738 -1.4149
  158MOL0     C21213  12.271   1.243   6.691 -0.4405 -0.3451 -0.5630
  158MOL0     C21214  12.277   1.285   6.820  0.1597 -0.3715  0.5688
  158MOL0     C21215  12.334   1.415   6.856  0.5126  0.1311 -0.2441
  158MOL0     C21216  12.473   1.407   6.921  0.5658 -0.1322 -0.4571
  158MOL0     C21217  12.534   1.550   6.944 -0.5122  0.3544  0.1037
  158MOL0     C21218  12.679   1.545   6.982  0.4764 -0.7325  0.4521
  158MOL0     O21219  12.703   1.460   7.092  0.5188  0.3518 -0.3252
  158MOL0     C21220  12.829   1.447   7.141  0.4282 -0.2318  0.1228
  158MOL0     C21221  12.946   1.473   7.070 -0.6258  0.0079 -0.1651
  158MOL0     C21222  13.068   1.441   7.137 -0.0463 -0.7569 -0.5340
  158MOL0     C21223  13.192   1.440   7.049 -0.3226  0.5682  0.4041
  158MOL0     C21224  13.070   1.402   7.272 -0.5239  0.9610  1.6228
  158MOL0     C21225  13.192   1.370   7.345 -0.1408  0.2617 -0.5973
  158MOL0     O21226  13.179   1.341   7.482  0.1042  0.3124 -0.0935
  158MOL0     C21227  13.289   1.327   7.557 -0.5639  0.0867 -0.5959
  158MOL0     C21228  13.301   1.216   7.633  0.7192  0.7017  0.4599
  158MOL0     C21229  13.407   1.180   7.717  0.5592 -0.4582  0.6275
  158MOL0     C21230  13.511   1.267   7.728  0.2285 -0.1674  0.0670
  158MOL0     O21231  13.626   1.245   7.804  0.4368 -0.2008 -0.0914
  158MOL0     C21232  13.647   1.126   7.883  0.2312 -0.8107  0.2348
  158MOL0     C21233  13.762   1.041   7.833  0.0027 -0.5458 -0.4750
  158MOL0     C21234  13.791   0.927   7.933 -0.0174  0.1954 -0.9090
  158MOL0     C21235  13.877   0.803   7.896 -0.7213  0.2295 -0.4207
  158MOL0     C21236  13.831   0.736   7.766  0.6580  0.4451  0.4855
  158MOL0     C21237  13.940   0.666   7.677 -0.2537 -0.2597  0.0081
  158MOL0     C21238  13.982   0.760   7.567  0.8014  0.6877 -0.0850
  158MOL0     C21239  14.111   0.714   7.492 -0.1322  0.5005  0.2218
  158MOL0    Cl21240  14.238   0.715   7.619 -0.7231  0.2880  0.4720
  158MOL0     C21241  13.511   1.373   7.641 -0.1807  0.3337 -0.3024
  158MOL0     C21242  13.404   1.405   7.549  0.6870  0.3453  0.4469
  158MOL0     O21243  13.297   1.385   7.288 -0.1318 -0.9942 -0.1738
  158MOL0     C21244  12.948   1.378   7.336  0.3676 -0.0220  0.3118
  158MOL0     C21245  12.833   1.397   7.272 -0.1700  0.0628 -0.8746
  158MOL0     N21246  12.233   1.189   6.904 -0.1456  0.0810  0.5654
  158MOL0     N21247  12.183   1.092   6.830 -0.1592 -0.1655 -0.3363
  158MOL0     C21248  11.256   0.507   6.691 -0.2010  0.5255 -0.9598
  158MOL0     C21249  11.135   0.447   6.734  0.2871 -0.9092  0.2488
  158MOL0     C21250  10.818   0.146   6.852 -0.2979  0.0697 -0.0796
  158MOL0     C21251  10.772   0.182   6.978  0.2488  0.0940 -0.1680
  158MOL0     C21252  10.653   0.132   7.018 -0.3344 -0.3007  1.5372
  158MOL0     C21253  10.581   0.043   6.936 -0.1607 -0.2696 -0.9188
  158MOL0     O21254  10.473  -0.010   6.994 -0.4949  0.5828 -0.5530
  158MOL0     C21255  10.382  -0.085   6.914  0.5025  0.1968  0.4483
  158MOL0     C21256  10.267  -0.125   7.011 -0.5583  0.4887  0.2227
  158MOL0     C21257  10.144  -0.182   6.945 -0.1277 -0.2685 -1.0826
  158MOL0     C21258  10.088  -0.309   7.010 -0.2113 -0.0363  0.1051
  158MOL0     C21259  10.066  -0.277   7.154  0.7286  0.3691 -0.1433
  158MOL0     C21260  10.048  -0.253   7.275  0.6894  0.1882 -0.1722
  158MOL0     C21261  10.617   0.024   6.807 -0.2968 -0.1109  0.6046
  158MOL0     C21262  10.739   0.072   6.764  0.1506 -0.0654 -0.8815
  158MOL0     H21263  11.249   0.206   6.958 -0.6277 -3.4766 -1.8501
  158MOL0     H21264  11.472   0.349   6.898 -1.0152  3.4165  1.8020
  158MOL0     H21265  11.456   0.625   6.558 -0.6843 -0.3492 -0.6599
  158MOL0     H21266  11.496   0.724   6.706  0.4618 -1.6677  0.6560
  158MOL0     H21267  11.717   0.651   6.696 -0.9884 -1.1900  0.2803
  158MOL0     H21268  11.660   0.544   6.557 -2.5845  1.4400 -3.4766
  158MOL0     H21269  11.637   0.736   6.412 -1.1362  0.9251  1.0072
  158MOL0     H21270  11.654   0.855   6.541 -1.3663  1.3389 -3.3017
  158MOL0     H21271  11.901   0.730   6.555  2.1604  0.5621 -1.4065
  158MOL0     H21272  11.842   0.676   6.408  0.5261  0.4565 -0.1466
  158MOL0     H21273  11.854   0.869   6.296 -2.0327 -1.1348 -0.0226
  158MOL0     H21274  11.815   0.973   6.441 -2.4431 -1.6783  1.7100
  158MOL0     H21275  12.067   0.822   6.408  0.4582 -0.7868  2.5666
  158MOL0     H21276  12.053   1.002   6.367  2.0544 -0.5661 -0.4748
  158MOL0     H21277  11.975   1.064   6.595 -1.0600 -1.0693 -0.2439
  158MOL0     H21278  12.018   0.906   6.651 -0.6700 -0.2096  0.9999
  158MOL0     H21279  12.220   1.071   6.493  2.0683 -0.5294  0.8016
  158MOL0     H21280  12.241   0.935   6.586 -1.7640  0.0584  0.3825
  158MOL0     H21281  12.311   1.298   6.607  1.5053  0.5762  0.8970
  158MOL0     H21282  12.344   1.478   6.767  0.0015  0.6914  0.0838
  158MOL0     H21283  12.262   1.475   6.913  0.1618  2.9920 -3.3478
  158MOL0     H21284  12.534   1.345   6.853 -2.9469 -2.8049 -1.4525
  158MOL0     H21285  12.472   1.355   7.017 -0.9796  0.0499 -0.3607
  158MOL0     H21286  12.482   1.602   7.026  0.0940  0.6908  0.2859
  158MOL0     H21287  12.520   1.613   6.856  1.1974 -2.5384 -2.4162
  158MOL0     H21288  12.707   1.646   7.013 -0.9680 -1.5091  5.0848
  158MOL0     H21289  12.742   1.503   6.903  1.3394  2.2642 -0.5845
  158MOL0     H21290  12.941   1.497   6.964 -0.8605 -0.4792 -0.2665
  158MOL0     H21291  13.235   1.342   7.071 -0.8075  1.2131  5.0259
  158MOL0     H21292  13.165   1.436   6.943  2.0254  1.3105 -0.2761
  158MOL0     H21293  13.262   1.523   7.061  0.8413 -0.5556  1.7402
  158MOL0     H21294  13.211   1.156   7.622  1.6165 -0.3334 -2.4725
  158MOL0     H21295  13.403   1.084   7.768  1.7158 -1.3325 -0.8342
  158MOL0     H21296  13.651   1.164   7.985 -3.7079 -0.5858  0.4612
  158MOL0     H21297  13.557   1.065   7.890  0.1269 -1.2909 -3.4184
  158MOL0     H21298  13.739   0.987   7.741 -0.5247 -0.6682 -0.2731
  158MOL0     H21299  13.853   1.102   7.831  1.8746 -3.1490 -0.6364
  158MOL0     H21300  13.702   0.887   7.983  0.4045  0.2904 -0.0667
  158MOL0     H21301  13.846   0.970   8.017 -0.3293  0.4939 -0.8559
  158MOL0     H21302  13.983   0.827   7.881 -0.5176 -1.7800 -2.8508
  158MOL0     H21303  13.851   0.740   7.982 -2.9414 -0.4695 -1.5270
  158MOL0     H21304  13.772   0.796   7.696 -2.2621 -0.8486  1.7016
  158MOL0     H21305  13.760   0.665   7.809 -1.5067  1.3213 -1.4499
  158MOL0     H21306  14.027   0.649   7.741 -1.8628  0.5925  2.5701
  158MOL0     H21307  13.911   0.575   7.625  0.3432  1.9800 -4.9308
  158MOL0     H21308  13.998   0.859   7.612 -1.1684  2.1655 -2.4083
  158MOL0     H21309  13.896   0.756   7.501  1.9174  3.1409 -1.8223
  158MOL0     H21310  14.128   0.777   7.404  0.5960 -2.5104 -1.9660
  158MOL0     H21311  14.097   0.608   7.465  0.8249  0.1194  1.1537
  158MOL0     H21312  13.596   1.440   7.645  0.4040 -0.1871 -2.5930
  158MOL0     H21313  13.419   1.486   7.479  0.3395  1.4049  1.5642
  158MOL0     H21314  12.947   1.354   7.442 -0.0804  3.0991  1.1266
  158MOL0     H21315  12.742   1.382   7.330 -0.5678 -1.9627 -1.9488
  158MOL0     H21316  11.258   0.597   6.629 -0.7993 -0.9811 -3.2703
  158MOL0     H21317  11.042   0.473   6.685  0.2213 -2.6973 -0.6644
  158MOL0     H21318  10.837   0.237   7.046 -0.3892  0.4134  0.1942
  158MOL0     H21319  10.619   0.152   7.119  0.6335  2.0406  1.4804
  158MOL0     H21320  10.338  -0.015   6.843 -1.7792 -1.7074 -0.1832
  158MOL0     H21321  10.431  -0.172   6.870 -0.6016 -0.4847  0.5275
  158MOL0     H21322  10.247  -0.046   7.085  1.7071  0.9680  0.4028
  158MOL0     H21323  10.319  -0.210   7.055 -0.1965 -1.3346 -3.3451
  158MOL0     H21324  10.156  -0.195   6.837 -1.9893  2.1284 -1.6691
  158MOL0     H21325  10.068  -0.103   6.949 -0.7176 -0.8889  1.3604
  158MOL0     H21326  10.164  -0.386   6.993 -1.3690 -1.2481  0.2271
  158MOL0     H21327   9.995  -0.336   6.958 -1.8937  0.4509  2.6796
  158MOL0     H21328  10.028  -0.226   7.376 -3.3029 -0.1576 -0.7064
  158MOL0     H21329  10.558  -0.036   6.739 -1.5533 -0.9162  2.3113
  158MOL0     H21330  10.774   0.051   6.663  0.3761 -1.9146 -0.4538
  159MOL0     O21331   0.394  10.817   5.727 -0.4684  0.1290 -0.0433
  159MOL0     C21332   0.275  10.827   5.708 -0.6583  0.4353 -0.0388
  159MOL0     O21333   0.183  10.805   5.803  0.6329  0.1078 -0.2660
  159MOL0     C21334   0.233  10.760   5.923  0.8480  0.3534  0.0930
  159MOL0     C21335   0.231  10.851   6.022 -0.6774 -0.0842  0.1484
  159MOL0     C21336   0.286  10.820   6.151 -0.1211 -0.5712  0.0544
  159MOL0     C21337   0.324  10.689   6.170 -0.0856 -0.9908 -0.9293
  159MOL0     O21338   0.400  10.659   6.279 -0.4601  0.2330  0.0606
  159MOL0     C21339   0.540  10.649   6.265  0.7607  0.0699  0.4450
  159MOL0     C21340   0.612  10.743   6.364 -0.1526  0.0010  0.0488
  159MOL0     C21341   0.573  10.729   6.506  0.6018  0.1896 -0.2015
  159MOL0     C21342   0.622  10.851   6.581  0.3495 -0.6844  0.3700
  159MOL0     C21343   0.774  10.839   6.618 -0.0374  0.0016  0.2248
  159MOL0     C21344   0.847  10.972   6.613 -0.0597 -0.3866 -0.1753
  159MOL0     C21345   0.791  11.080   6.693  0.3155 -0.4382  0.6047
  159MOL0     C21346   0.843  11.216   6.620 -1.4339  0.6143  0.6627
  159MOL0     N21347   0.791  11.330   6.700 -0.0887  0.6820  0.4131
  159MOL0     C21348   0.662  11.360   6.734  0.2758  0.1124  0.7057
  159MOL0     C21349   0.663  11.466   6.821  0.6418 -0.4417 -0.1339
  159MOL0     C21350   0.554  11.541   6.898 -0.0195 -0.2021 -0.1713
  159MOL0     C21351   0.504  11.656   6.820 -0.4780 -0.1021 -1.0262
  159MOL0     C21352   0.383  11.727   6.894 -0.2824  0.2703 -0.1043
  159MOL0     C21353   0.331  11.841   6.812  0.8127  0.3543 -0.3701
  159MOL0     O21354   0.417  11.900   6.718 -0.7196 -0.2139 -0.3524
  159MOL0     C21355   0.518  11.972   6.771 -0.3544 -0.5716 -0.1633
  159MOL0     C21356   0.530  12.042   6.900 -0.0881 -0.0357  1.0264
  159MOL0     C21357   0.640  12.118   6.927 -0.2984 -0.4582 -0.9118
  159MOL0     C21358   0.618  12.209   7.041 -0.2488 -0.5377 -0.3191
  159MOL0     C21359   0.742  12.138   6.837 -0.0465  0.2266 -0.5655
  159MOL0     C21360   0.872  12.196   6.873 -0.0219 -0.2561  0.3903
  159MOL0     O21361   0.941  12.255   6.773  0.0628  0.3882  0.4045
  159MOL0     C21362   1.060  12.305   6.808 -0.4714 -0.5433  0.5059
  159MOL0     C21363   1.167  12.216   6.790 -0.0684 -0.1130 -0.8308
  159MOL0     C21364   1.302  12.269   6.811 -0.4400 -0.1672  0.7026
  159MOL0     C21365   1.323  12.396   6.863  0.2561  0.2166 -0.3689
  159MOL0     O21366   1.447  12.428   6.904  0.6906  0.4950  0.1014
  159MOL0     C21367   1.452  12.514   7.022 -0.1226 -0.7293  0.0666
  159MOL0     C21368   1.590  12.544   7.079  0.4807  1.0421 -0.2423
  159MOL0     C21369   1.656  12.418   7.116  0.2179  0.2964  0.6042
  159MOL0     C21370   1.773  12.443   7.215 -0.3515  0.1799  0.3529
  159MOL0     C21371   1.859  12.312   7.220 -0.6438  0.5752 -0.5507
  159MOL0     C21372   1.976  12.337   7.318 -0.1751  0.3651  0.2917
  159MOL0     C21373   1.936  12.332   7.464 -0.6197  0.0965  0.8891
  159MOL0     C21374   2.041  12.271   7.553  0.4562  0.0670  0.0905
  159MOL0    Cl21375   1.994  12.259   7.722  0.3791 -0.2669 -0.5357
  159MOL0     C21376   1.214  12.488   6.875 -0.3964 -0.3178  0.3458
  159MOL0     C21377   1.084  12.444   6.838  0.2738 -0.1837 -0.9649
  159MOL0     O21378   0.915  12.178   6.982  0.1247 -0.0792  0.1365
  159MOL0     C21379   0.740  12.081   6.717  0.1374 -0.3845  0.1334
  159MOL0     C21380   0.626  12.000   6.679  0.0597 -0.2040  0.8705
  159MOL0     N21381   0.789  11.514   6.824 -0.4061  0.5142 -0.1642
  159MOL0     N21382   0.869  11.426   6.760  0.1629 -0.0706  0.3416
  159MOL0     C21383   0.326  10.592   6.063  0.1255 -0.1418  0.2852
  159MOL0     C21384   0.273  10.632   5.947 -0.1918 -0.0965  0.7892
  159MOL0     C21385   0.231  10.856   5.571 -0.3109 -0.1693 -1.2199
  159MOL0     C21386   0.328  10.899   5.474 -0.3509  0.1360  0.0359
  159MOL0     C21387   0.304  10.903   5.336  0.5543 -0.1357 -0.3516
  159MOL0     C21388   0.176  10.878   5.284 -0.5799  0.3541 -0.0186
  159MOL0     O21389   0.172  10.890   5.146 -0.3262  0.1188 -0.3645
  159MOL0     C21390   0.134  10.776   5.066  0.2940 -0.3296 -0.4976
  159MOL0     C21391   0.139  10.813   4.922  0.3524  0.7641  0.3671
  159MOL0     C21392   0.062  10.713   4.842  0.1903  0.1200 -0.6705
  159MOL0     C21393   0.122  10.570   4.850 -0.3008  0.6229  1.0151
  159MOL0     C21394   0.264  10.565   4.792 -0.8139  0.2831  1.1659
  159MOL0     C21395   0.370  10.572   4.738 -0.0853  0.5300 -0.0100
  159MOL0     C21396   0.070  10.847   5.378  0.7831 -0.1138  0.5149
  159MOL0     C21397   0.103  10.836   5.518  0.9382 -0.1279  0.0088
  159MOL0     H21398   0.183  10.948   6.010 -1.1694 -0.3671 -0.2266
  159MOL0     H21399   0.311  10.897   6.224 -0.4454  1.0237 -1.4381
  159MOL0     H21400   0.564  10.544   6.283 -1.3233 -0.6436 -0.4942
  159MOL0     H21401   0.575  10.676   6.165 -3.7385  1.1189 -1.0820
  159MOL0     H21402   0.718  10.724   6.344  0.3929  0.5169  2.1943
  159MOL0     H21403   0.582  10.841   6.326  1.6635  0.3766 -0.5371
  159MOL0     H21404   0.464  10.737   6.515  0.5365 -0.8203 -0.0386
  159MOL0     H21405   0.607  10.637   6.554 -4.4303 -1.7223  0.3474
  159MOL0     H21406   0.593  10.940   6.525 -3.6548 -1.7307  0.5184
  159MOL0     H21407   0.559  10.861   6.670 -1.4088 -0.0440 -0.9020
  159MOL0     H21408   0.796  10.805   6.720  2.5725 -0.1629 -0.3155
  159MOL0     H21409   0.817  10.762   6.553 -2.2876 -2.7512  1.7765
  159MOL0     H21410   0.954  10.967   6.631  0.5313  1.7541 -2.5001
  159MOL0     H21411   0.848  10.997   6.506 -0.9173 -1.8798 -0.5736
  159MOL0     H21412   0.685  11.083   6.666  0.4213  0.9705  0.2485
  159MOL0     H21413   0.813  11.077   6.800  0.4616 -0.3437  0.5782
  159MOL0     H21414   0.807  11.219   6.517 -0.4459 -0.8113  0.2537
  159MOL0     H21415   0.952  11.220   6.626 -1.2628 -1.6247 -0.1842
  159MOL0     H21416   0.573  11.306   6.702 -1.1484  1.7169  1.8025
  159MOL0     H21417   0.480  11.466   6.928  2.3981 -1.8605  2.0935
  159MOL0     H21418   0.609  11.585   6.982  0.6757  3.1178 -2.1862
  159MOL0     H21419   0.464  11.613   6.728 -1.4482 -0.9567 -0.2230
  159MOL0     H21420   0.591  11.719   6.798  0.1531 -0.3360  0.6682
  159MOL0     H21421   0.419  11.770   6.988 -1.0758 -0.9323  0.7757
  159MOL0     H21422   0.300  11.657   6.901 -1.8346  1.6761 -2.6230
  159MOL0     H21423   0.284  11.917   6.876 -1.6728 -1.7724  0.5254
  159MOL0     H21424   0.252  11.809   6.743  1.1939  0.8723 -1.0557
  159MOL0     H21425   0.449  12.050   6.972 -0.6694  1.5436  0.2296
  159MOL0     H21426   0.622  12.149   7.132 -1.0791  0.6701  0.5439
  159MOL0     H21427   0.695  12.286   7.047 -1.0321  0.1273  2.5342
  159MOL0     H21428   0.522  12.263   7.043  0.5009  0.8279  1.4597
  159MOL0     H21429   1.153  12.115   6.755 -0.7633 -0.9326  1.5834
  159MOL0     H21430   1.383  12.202   6.783 -1.3471 -0.5985 -1.0855
  159MOL0     H21431   1.405  12.612   7.007  1.3640  0.2995  1.7894
  159MOL0     H21432   1.393  12.470   7.103 -1.5258  0.6816 -0.1398
  159MOL0     H21433   1.646  12.609   7.011 -0.7565  1.7002 -0.6608
  159MOL0     H21434   1.570  12.606   7.167  1.6197  1.7906 -0.4802
  159MOL0     H21435   1.692  12.363   7.029 -0.6615 -0.1870  0.5326
  159MOL0     H21436   1.584  12.345   7.153 -1.5471  0.0696 -2.8912
  159MOL0     H21437   1.841  12.522   7.184 -0.5856  0.1737 -0.1830
  159MOL0     H21438   1.714  12.470   7.304 -0.6551  3.1709 -0.6663
  159MOL0     H21439   1.906  12.288   7.124  3.3244  1.7842  0.8907
  159MOL0     H21440   1.797  12.230   7.258 -1.8546  1.4765 -0.5194
  159MOL0     H21441   2.048  12.259   7.292 -1.4848 -0.2940 -1.6536
  159MOL0     H21442   2.033  12.428   7.299  2.7637 -0.9421  2.1156
  159MOL0     H21443   1.846  12.272   7.481  0.4206 -2.2532 -1.1772
  159MOL0     H21444   1.919  12.439   7.479  0.5363  0.5403 -0.6713
  159MOL0     H21445   2.131  12.329   7.529 -0.3276  1.0969 -0.4172
  159MOL0     H21446   2.051  12.165   7.529 -1.8242 -0.3687  0.8362
  159MOL0     H21447   1.226  12.584   6.924  0.4594  0.2118 -0.8506
  159MOL0     H21448   0.998  12.509   6.850 -0.0682 -0.6077 -1.0900
  159MOL0     H21449   0.800  12.111   6.632 -1.9078  0.0654 -1.2271
  159MOL0     H21450   0.625  11.955   6.580 -0.1118  2.1814 -0.2953
  159MOL0     H21451   0.373  10.495   6.076 -0.5544 -0.5115  0.0353
  159MOL0     H21452   0.258  10.570   5.860 -1.8286  0.6679  0.5000
  159MOL0     H21453   0.431  10.904   5.507  0.1207  1.3809 -1.4806
  159MOL0     H21454   0.381  10.911   5.260  1.1375 -1.5254  0.0729
  159MOL0     H21455   0.205  10.695   5.086 -1.8001 -1.6423  2.2868
  159MOL0     H21456   0.030  10.751   5.086  0.0011  0.2644 -1.2471
  159MOL0     H21457   0.246  10.819   4.900  1.0091  0.1738  2.9719
  159MOL0     H21458   0.094  10.912   4.911  0.0015  0.8075  1.9438
  159MOL0     H21459   0.061  10.740   4.736 -1.5989 -0.8036 -0.9342
  159MOL0     H21460  -0.043  10.711   4.874  0.0712 -3.2178 -0.8949
  159MOL0     H21461   0.065  10.503   4.785 -0.9652  0.7995  1.4082
  159MOL0     H21462   0.110  10.524   4.948  1.5063  0.9711  1.4475
  159MOL0     H21463   0.474  10.588   4.718 -0.1677  1.0939  0.0005
  159MOL0     H21464  -0.029  10.843   5.334  1.3728  0.7760 -0.9963
  159MOL0     H21465   0.021  10.795   5.576  0.7356 -1.6820 -1.3004
  160MOL0     O21466   2.823   5.110   6.875  0.0895  0.9231 -0.1075
  160MOL0     C21467   2.727   5.050   6.911 -0.6860 -0.3440  0.1841
  160MOL0     O21468   2.593   5.076   6.870  0.8066  0.1048  0.1413
  160MOL0     C21469   2.549   5.203   6.852 -0.5371  0.8130  0.2588
  160MOL0     C21470   2.560   5.297   6.963 -0.6419 -0.6917 -0.1277
  160MOL0     C21471   2.498   5.420   6.951  0.8783  0.4444 -0.2427
  160MOL0     C21472   2.428   5.448   6.836  1.3677  0.2789  0.3488
  160MOL0     O21473   2.355   5.560   6.798  0.1926  0.0177  0.2599
  160MOL0     C21474   2.420   5.686   6.825  1.0628  0.1789  0.3098
  160MOL0     C21475   2.318   5.791   6.802  0.0960 -0.2659 -0.0166
  160MOL0     C21476   2.369   5.935   6.826  0.0709  0.1964 -0.2640
  160MOL0     C21477   2.258   6.025   6.773 -0.7922  0.7893  0.4567
  160MOL0     C21478   2.308   6.168   6.776 -0.5093  0.5112  0.4336
  160MOL0     C21479   2.197   6.266   6.743 -0.0248 -0.3885  0.4415
  160MOL0     C21480   2.250   6.407   6.724  0.3583 -1.1545 -0.4907
  160MOL0     C21481   2.146   6.502   6.659 -0.6195 -0.1695 -0.7414
  160MOL0     N21482   2.204   6.639   6.665 -0.0131 -0.4733 -0.3755
  160MOL0     C21483   2.156   6.732   6.745 -0.4444  0.7343 -0.4071
  160MOL0     C21484   2.214   6.844   6.708 -0.4757  0.0837  0.1869
  160MOL0     C21485   2.193   6.975   6.767 -0.3178  0.2489 -0.4977
  160MOL0     C21486   2.263   6.976   6.901 -0.8822  0.4412 -0.0527
  160MOL0     C21487   2.270   7.102   6.982 -0.6025  0.6676  0.7613
  160MOL0     C21488   2.328   7.083   7.129  0.2310  1.5141 -0.0019
  160MOL0     O21489   2.354   7.214   7.175  0.6735  0.0526 -0.4804
  160MOL0     C21490   2.417   7.227   7.298 -0.0655  0.6299  0.7970
  160MOL0     C21491   2.531   7.303   7.303 -1.1986  0.4655 -1.3867
  160MOL0     C21492   2.611   7.303   7.420  0.2085  0.4350  0.2516
  160MOL0     C21493   2.741   7.377   7.432  0.1590 -0.9294  0.1558
  160MOL0     C21494   2.562   7.242   7.540 -0.1043 -0.2045  0.1879
  160MOL0     C21495   2.650   7.216   7.655  0.4060  0.2763 -0.2982
  160MOL0     O21496   2.770   7.161   7.624  0.0061  0.3027  0.0520
  160MOL0     C21497   2.865   7.156   7.730  0.3625  0.2060  0.1928
  160MOL0     C21498   2.870   7.041   7.807 -0.7338  0.0120  0.9062
  160MOL0     C21499   2.962   7.024   7.908  0.2405 -0.4351 -0.2876
  160MOL0     C21500   3.043   7.137   7.944  0.0910 -0.3254 -0.6608
  160MOL0     O21501   3.115   7.129   8.054  0.9267 -0.5673  0.0090
  160MOL0     C21502   3.254   7.154   8.061 -0.4121 -0.1121 -0.0522
  160MOL0     C21503   3.293   7.168   8.210 -0.0451 -0.6056  0.0591
  160MOL0     C21504   3.317   7.031   8.271 -0.1594  0.7802  0.0036
  160MOL0     C21505   3.332   7.052   8.421 -0.7922  0.9134  0.2734
  160MOL0     C21506   3.342   6.919   8.496  0.5452 -0.0019 -0.1325
  160MOL0     C21507   3.319   6.946   8.648 -0.0088 -0.4724 -0.0558
  160MOL0     C21508   3.303   6.825   8.733 -1.3217  0.1489 -0.0829
  160MOL0     C21509   3.287   6.859   8.885 -0.3564  1.0569  0.4271
  160MOL0    Cl21510   3.294   6.716   8.995 -0.2787 -0.0076 -0.2600
  160MOL0     C21511   3.042   7.249   7.866 -0.0761  0.0333  0.0966
  160MOL0     C21512   2.945   7.266   7.760  0.2981 -0.0760 -0.2817
  160MOL0     O21513   2.608   7.252   7.765 -0.2776 -0.0404  0.0008
  160MOL0     C21514   2.424   7.203   7.531 -0.9190  0.6195 -0.1928
  160MOL0     C21515   2.360   7.182   7.412  0.9798 -1.4370  0.1032
  160MOL0     N21516   2.325   6.812   6.624  0.1019  0.4574 -0.5390
  160MOL0     N21517   2.314   6.680   6.596 -0.8745 -0.3167  0.4755
  160MOL0     C21518   2.417   5.358   6.726 -0.3701 -0.1825 -0.4270
  160MOL0     C21519   2.480   5.231   6.733 -0.2089  0.1010 -0.5737
  160MOL0     C21520   2.744   4.921   6.989  0.0532 -0.7212  0.5375
  160MOL0     C21521   2.865   4.848   6.960 -0.7764  0.9701  0.0494
  160MOL0     C21522   2.885   4.716   7.024  0.4961 -0.2440  0.5261
  160MOL0     C21523   2.800   4.674   7.124 -0.3006 -0.7520  0.1464
  160MOL0     O21524   2.827   4.573   7.206 -0.7872  1.0368  0.9025
  160MOL0     C21525   2.950   4.501   7.191  0.8458  0.2494  0.5770
  160MOL0     C21526   2.954   4.383   7.287  0.6285 -0.2530 -0.7013
  160MOL0     C21527   2.937   4.438   7.427  0.2292 -0.3573  0.2072
  160MOL0     C21528   2.952   4.345   7.546 -0.8947  0.2147  0.9641
  160MOL0     C21529   2.893   4.206   7.517 -0.5114 -0.7436  0.3785
  160MOL0     C21530   2.858   4.094   7.491  1.1252  0.3837  0.1250
  160MOL0     C21531   2.692   4.752   7.153 -0.1261 -0.3571 -0.3447
  160MOL0     C21532   2.658   4.864   7.082 -1.0008  0.4834 -0.0781
  160MOL0     H21533   2.609   5.268   7.055 -1.5846 -0.5642  0.4288
  160MOL0     H21534   2.486   5.496   7.027  1.9099  0.5280 -0.1437
  160MOL0     H21535   2.465   5.681   6.925 -1.2049 -1.4508  1.3317
  160MOL0     H21536   2.497   5.703   6.749 -0.9627  0.2495 -1.8460
  160MOL0     H21537   2.283   5.784   6.698  1.5951  1.9389 -0.7367
  160MOL0     H21538   2.228   5.767   6.859  1.1612  0.2612  1.9602
  160MOL0     H21539   2.390   5.955   6.932 -2.5487 -4.2705  1.3642
  160MOL0     H21540   2.462   5.939   6.768 -1.3344 -0.1014 -2.6776
  160MOL0     H21541   2.249   5.997   6.667  1.9237  1.4607 -0.0203
  160MOL0     H21542   2.167   5.998   6.828 -0.8980 -1.6731 -0.7973
  160MOL0     H21543   2.355   6.190   6.872 -0.7747 -0.4285  0.7905
  160MOL0     H21544   2.395   6.176   6.711  1.6831  3.2171  3.3683
  160MOL0     H21545   2.141   6.236   6.653 -2.4932 -0.9254  2.0342
  160MOL0     H21546   2.127   6.247   6.825 -3.6066  1.3932 -1.8998
  160MOL0     H21547   2.294   6.458   6.810  0.5294 -1.1926 -0.5546
  160MOL0     H21548   2.337   6.415   6.659 -1.2535  0.7947 -2.5673
  160MOL0     H21549   2.049   6.501   6.709 -1.3986  5.0476 -1.5575
  160MOL0     H21550   2.135   6.460   6.558  1.3023  1.8535 -1.8919
  160MOL0     H21551   2.084   6.716   6.824  0.4192  0.8959  0.4303
  160MOL0     H21552   2.223   7.051   6.695  2.1283  1.5779  1.7315
  160MOL0     H21553   2.087   6.985   6.792  0.3408  0.5798  2.6549
  160MOL0     H21554   2.365   6.950   6.873 -1.3934  2.1454 -4.1470
  160MOL0     H21555   2.228   6.892   6.962 -0.9805  0.8302  0.4300
  160MOL0     H21556   2.165   7.133   6.980 -1.0405 -0.7202 -1.1715
  160MOL0     H21557   2.327   7.171   6.919 -0.8022 -0.0693 -0.2674
  160MOL0     H21558   2.420   7.027   7.144 -0.2009  1.1374  1.3287
  160MOL0     H21559   2.258   7.030   7.193  1.0490 -0.2549 -0.5205
  160MOL0     H21560   2.567   7.346   7.210  3.2767  1.2406  0.4076
  160MOL0     H21561   2.777   7.391   7.535  0.3042 -2.1452  0.2776
  160MOL0     H21562   2.825   7.332   7.378  0.5847 -4.0587  3.0976
  160MOL0     H21563   2.714   7.480   7.403  0.0462 -0.9329  0.2473
  160MOL0     H21564   2.799   6.968   7.769 -0.2293  0.6380 -1.4041
  160MOL0     H21565   2.950   6.942   7.978 -1.2200 -2.4734 -2.7388
  160MOL0     H21566   3.306   7.071   8.013 -0.6361 -0.1709 -0.1912
  160MOL0     H21567   3.276   7.249   8.011  2.5208 -0.5166  0.3123
  160MOL0     H21568   3.387   7.221   8.227 -1.0014  0.1203  4.1950
  160MOL0     H21569   3.222   7.236   8.258 -1.8578  0.3621 -3.6276
  160MOL0     H21570   3.404   6.982   8.227 -0.6213  0.8154 -0.9818
  160MOL0     H21571   3.238   6.959   8.246  0.1824  0.0576  0.9204
  160MOL0     H21572   3.428   7.101   8.439  0.2551 -0.4162 -1.3413
  160MOL0     H21573   3.247   7.103   8.468 -0.8895 -1.8265  3.4175
  160MOL0     H21574   3.426   6.854   8.472  1.4336  0.5206  1.4094
  160MOL0     H21575   3.262   6.856   8.456 -1.0824  2.7674 -1.5675
  160MOL0     H21576   3.406   7.003   8.683  0.9679 -1.2679 -1.0953
  160MOL0     H21577   3.233   7.013   8.649 -1.5711 -2.3744 -1.1509
  160MOL0     H21578   3.391   6.761   8.723  0.1655  1.8142  1.6108
  160MOL0     H21579   3.209   6.776   8.704 -0.1226 -1.9483 -0.6735
  160MOL0     H21580   3.208   6.933   8.903  0.2463  1.3359  2.0591
  160MOL0     H21581   3.376   6.914   8.917 -0.0798 -0.0836  1.6891
  160MOL0     H21582   3.105   7.333   7.895  1.4327 -0.8449 -0.5438
  160MOL0     H21583   2.945   7.359   7.703  0.3409  0.3345  0.3746
  160MOL0     H21584   2.384   7.151   7.617 -0.7271 -3.3937 -2.3134
  160MOL0     H21585   2.263   7.134   7.408 -0.3746  0.8251  2.7750
  160MOL0     H21586   2.344   5.382   6.649 -2.9745 -0.8339  1.6671
  160MOL0     H21587   2.466   5.148   6.665  0.1046 -1.5931  1.3347
  160MOL0     H21588   2.938   4.883   6.887  2.0296 -2.3499  0.9854
  160MOL0     H21589   2.974   4.664   6.989  1.0921  3.4058 -4.3950
  160MOL0     H21590   2.962   4.460   7.090 -2.4835 -0.5823  0.4005
  160MOL0     H21591   3.030   4.575   7.199  0.1286  1.5124 -2.4311
  160MOL0     H21592   3.049   4.332   7.268  0.7827  0.9772 -3.8845
  160MOL0     H21593   2.872   4.319   7.254  0.8831  0.8234 -3.7517
  160MOL0     H21594   2.836   4.480   7.425  1.2987  2.4342 -1.4930
  160MOL0     H21595   3.005   4.523   7.440  1.3216 -1.5335  3.0065
  160MOL0     H21596   2.914   4.389   7.638 -1.5426  0.1259  0.7422
  160MOL0     H21597   3.061   4.330   7.554 -0.7638  0.1045 -0.6570
  160MOL0     H21598   2.829   3.994   7.465  2.6526  0.1482 -0.8247
  160MOL0     H21599   2.633   4.727   7.241 -1.3421 -0.5412 -1.1741
  160MOL0     H21600   2.557   4.898   7.102 -1.1327  1.1920 -1.8186
  161MOL0     O21601   0.862  11.193   8.496  0.6214  0.2334 -0.1110
  161MOL0     C21602   0.758  11.132   8.494  0.6142 -0.3221  0.2583
  161MOL0     O21603   0.718  11.039   8.586 -0.2657  0.1358  0.9167
  161MOL0     C21604   0.789  11.008   8.698  0.2282  0.0077  0.2210
  161MOL0     C21605   0.785  10.867   8.730  0.3483 -0.8046 -0.0250
  161MOL0     C21606   0.835  10.829   8.848  0.1411 -0.5320 -0.7261
  161MOL0     C21607   0.887  10.919   8.941 -0.3612  0.1977  0.5408
  161MOL0     O21608   0.935  10.872   9.056 -0.3980 -0.0186 -0.1722
  161MOL0     C21609   1.066  10.919   9.094  0.1605 -0.1050 -0.4077
  161MOL0     C21610   1.119  10.819   9.204  1.1542 -0.3871  0.2291
  161MOL0     C21611   1.160  10.681   9.134  0.4566  0.4510  0.0485
  161MOL0     C21612   1.272  10.692   9.036 -0.6515  0.7909 -0.2209
  161MOL0     C21613   1.321  10.549   8.985  0.6226  0.1865 -0.0673
  161MOL0     C21614   1.456  10.549   8.901  0.6393  0.2975 -0.3294
  161MOL0     C21615   1.577  10.612   8.953  0.6958  0.0629 -0.2346
  161MOL0     C21616   1.623  10.567   9.097 -0.3879  0.4708  0.1100
  161MOL0     N21617   1.707  10.661   9.175 -0.8007  0.4146 -0.5995
  161MOL0     C21618   1.841  10.646   9.205 -0.6393  1.0641 -0.2679
  161MOL0     C21619   1.871  10.756   9.273 -0.1075 -0.7342  0.6511
  161MOL0     C21620   2.004  10.788   9.335 -0.5770  0.0783  0.1661
  161MOL0     C21621   2.067  10.919   9.279  0.1295 -0.2966 -0.4851
  161MOL0     C21622   2.182  10.952   9.386  0.6036 -0.6335 -0.1347
  161MOL0     C21623   2.264  11.067   9.340  0.1190 -0.4452  0.1307
  161MOL0     O21624   2.403  11.032   9.371  0.5998  0.6382 -0.6241
  161MOL0     C21625   2.465  11.070   9.494 -0.1689  0.3644 -1.0366
  161MOL0     C21626   2.401  11.156   9.589  0.3538 -0.8284  0.2352
  161MOL0     C21627   2.465  11.188   9.716 -0.4831  0.2380 -0.0808
  161MOL0     C21628   2.396  11.283   9.807 -0.3323  0.4197 -0.6138
  161MOL0     C21629   2.594  11.131   9.743 -0.1454 -0.6133 -0.6049
  161MOL0     C21630   2.679  11.172   9.864  0.4561  0.7819  0.0232
  161MOL0     O21631   2.809  11.157   9.852  0.3754  0.1648  1.0085
  161MOL0     C21632   2.891  11.210   9.948 -0.3765  0.2154 -0.5720
  161MOL0     C21633   2.906  11.352   9.962 -0.0615  1.4642  0.4621
  161MOL0     C21634   2.980  11.393  10.062 -0.6972  0.2229 -0.5400
  161MOL0     C21635   3.050  11.306  10.159  0.4110 -0.1809 -0.3823
  161MOL0     O21636   3.133  11.342  10.264  0.0417  0.2739 -0.0149
  161MOL0     C21637   3.152  11.482  10.296  0.0248  0.3215  0.6119
  161MOL0     C21638   3.242  11.484  10.427 -0.0007 -0.1485  0.5011
  161MOL0     C21639   3.184  11.428  10.554  1.2797 -0.4980 -0.9170
  161MOL0     C21640   3.281  11.426  10.674 -0.8416 -0.4011  0.3382
  161MOL0     C21641   3.204  11.407  10.802  0.3265  0.2753  0.7155
  161MOL0     C21642   3.255  11.292  10.881  0.2372 -0.0842  0.7985
  161MOL0     C21643   3.163  11.254  11.004 -0.3574  0.3545 -0.0176
  161MOL0     C21644   3.190  11.105  11.025  1.1073 -1.2058 -0.0354
  161MOL0    Cl21645   3.078  11.090  11.169 -0.4196 -0.0751  0.4763
  161MOL0     C21646   3.037  11.166  10.145  0.0173 -0.5983  0.0945
  161MOL0     C21647   2.954  11.118  10.037 -0.1354 -0.5307  0.0498
  161MOL0     O21648   2.629  11.218   9.966 -0.2334  0.8458  0.8027
  161MOL0     C21649   2.656  11.048   9.651  0.0577  0.9109 -1.0931
  161MOL0     C21650   2.589  11.011   9.533  0.1308  0.7737  0.2555
  161MOL0     N21651   1.768  10.839   9.264  0.0864 -0.2893  0.5078
  161MOL0     N21652   1.665  10.781   9.223  0.0878 -0.2455  0.2353
  161MOL0     C21653   0.910  11.056   8.903 -0.0699  0.2735  0.2013
  161MOL0     C21654   0.857  11.102   8.779 -0.4100 -0.2158 -0.0829
  161MOL0     C21655   0.658  11.171   8.383  0.6799 -0.6418  0.0463
  161MOL0     C21656   0.688  11.260   8.279 -0.4757 -0.1776 -0.3793
  161MOL0     C21657   0.598  11.306   8.182  0.3227  0.0926 -0.0242
  161MOL0     C21658   0.471  11.256   8.168  0.2118  0.0413 -0.1892
  161MOL0     O21659   0.378  11.269   8.069 -0.3085  0.2507  0.5926
  161MOL0     C21660   0.399  11.382   7.978  0.5340  0.2247 -0.0140
  161MOL0     C21661   0.310  11.367   7.857 -0.5589 -0.2492  0.0781
  161MOL0     C21662   0.356  11.268   7.761 -1.2667 -0.3406 -0.1545
  161MOL0     C21663   0.245  11.210   7.683  0.4504  0.1594  0.9131
  161MOL0     C21664   0.215  11.287   7.557 -0.2781  0.2394 -0.2714
  161MOL0     C21665   0.177  11.338   7.454 -1.3016  0.0883 -0.4969
  161MOL0     C21666   0.435  11.166   8.273 -0.6340  0.0030 -0.3636
  161MOL0     C21667   0.521  11.125   8.376 -0.4768  0.0554 -1.2711
  161MOL0     H21668   0.740  10.787   8.673  2.8616 -2.8776  0.7015
  161MOL0     H21669   0.828  10.726   8.882  0.0074 -0.6645 -1.1531
  161MOL0     H21670   1.142  10.935   9.017  4.2138 -0.3655  3.0936
  161MOL0     H21671   1.051  11.013   9.147 -1.9437  0.0778 -1.2501
  161MOL0     H21672   1.206  10.861   9.255  0.3867  1.9102 -0.2390
  161MOL0     H21673   1.036  10.799   9.271  0.0132  5.1684  0.8779
  161MOL0     H21674   1.193  10.614   9.214  2.9057  0.5599 -0.7998
  161MOL0     H21675   1.070  10.637   9.090 -1.7099  0.5978  3.8876
  161MOL0     H21676   1.244  10.739   8.942  2.4657 -4.0723 -4.0992
  161MOL0     H21677   1.355  10.748   9.080  0.4467  0.3352 -1.6157
  161MOL0     H21678   1.343  10.482   9.069  1.9289 -0.9872 -1.2910
  161MOL0     H21679   1.244  10.499   8.925  0.3472 -1.4677  1.5724
  161MOL0     H21680   1.474  10.449   8.863  3.9952  2.3428 -5.0954
  161MOL0     H21681   1.438  10.604   8.808 -2.8478  1.2480  0.7279
  161MOL0     H21682   1.656  10.597   8.879 -0.5016 -1.8396 -1.2050
  161MOL0     H21683   1.558  10.720   8.945  3.5146  0.6515  0.0805
  161MOL0     H21684   1.663  10.465   9.090 -0.7775  0.4539 -4.3846
  161MOL0     H21685   1.534  10.545   9.158 -0.8969 -1.1053 -1.1277
  161MOL0     H21686   1.909  10.564   9.188  0.3684  1.5433  1.1877
  161MOL0     H21687   1.970  10.814   9.436 -4.1446 -3.6329  0.1678
  161MOL0     H21688   2.073  10.704   9.335  0.7060  1.0423  2.3607
  161MOL0     H21689   1.996  11.002   9.284  1.8633  1.2650 -0.3532
  161MOL0     H21690   2.097  10.908   9.174  3.7900  0.8679  0.2787
  161MOL0     H21691   2.246  10.865   9.397 -0.9750 -1.9806 -1.1354
  161MOL0     H21692   2.132  10.971   9.482 -0.0222 -0.5573 -0.4648
  161MOL0     H21693   2.215  11.157   9.379 -1.3922 -1.1475 -0.0514
  161MOL0     H21694   2.261  11.083   9.232  2.4958  1.0567  0.2206
  161MOL0     H21695   2.297  11.186   9.580  0.8735  0.9405 -0.1326
  161MOL0     H21696   2.454  11.376   9.810 -0.1732  0.3269  1.7114
  161MOL0     H21697   2.294  11.300   9.772 -2.5300 -1.8141  3.8158
  161MOL0     H21698   2.396  11.237   9.906 -0.2445 -2.5258 -1.8904
  161MOL0     H21699   2.853  11.416   9.891  0.9812  0.8725 -0.9102
  161MOL0     H21700   2.994  11.500  10.073  1.8606 -0.3262  3.1200
  161MOL0     H21701   3.193  11.536  10.210 -3.2437  0.7340 -0.8474
  161MOL0     H21702   3.059  11.531  10.328 -0.5232 -0.6988  0.6391
  161MOL0     H21703   3.342  11.445  10.410  0.7804  1.5667  0.8836
  161MOL0     H21704   3.270  11.589  10.439  1.1985 -0.3689 -0.2410
  161MOL0     H21705   3.140  11.329  10.538  0.2124  0.0785 -1.6328
  161MOL0     H21706   3.101  11.494  10.577 -0.3280 -1.5580 -3.3056
  161MOL0     H21707   3.361  11.354  10.654  1.0336  0.7556  3.0261
  161MOL0     H21708   3.334  11.522  10.673  2.3723 -2.0158  1.5250
  161MOL0     H21709   3.102  11.391  10.767  0.8168  0.5561 -0.9676
  161MOL0     H21710   3.211  11.490  10.873 -1.2592 -0.3634  1.6644
  161MOL0     H21711   3.258  11.213  10.805 -0.5263 -0.8138  1.5102
  161MOL0     H21712   3.361  11.312  10.902  0.6571 -1.6421  0.3495
  161MOL0     H21713   3.057  11.273  10.987 -0.7226 -2.1905 -0.9379
  161MOL0     H21714   3.182  11.322  11.088  0.2547  0.7653 -0.4800
  161MOL0     H21715   3.294  11.078  11.043  1.3421 -2.5015 -2.8651
  161MOL0     H21716   3.152  11.049  10.939 -3.3263  0.8517  0.3020
  161MOL0     H21717   3.089  11.099  10.212 -0.0046 -0.2809  0.4341
  161MOL0     H21718   2.947  11.011  10.026  0.0401 -0.4415 -1.1130
  161MOL0     H21719   2.751  10.998   9.672 -1.8774 -3.7112 -2.0470
  161MOL0     H21720   2.630  10.931   9.472 -2.3323 -0.2292 -0.1939
  161MOL0     H21721   0.977  11.117   8.962  0.4734  0.7376 -0.8625
  161MOL0     H21722   0.879  11.201   8.742  3.1146 -1.2851 -1.3636
  161MOL0     H21723   0.786  11.304   8.288 -0.8353  0.1952  2.6392
  161MOL0     H21724   0.626  11.376   8.104 -0.8815 -1.5028 -2.0060
  161MOL0     H21725   0.369  11.474   8.030 -0.5340 -0.3917  0.4941
  161MOL0     H21726   0.503  11.387   7.944  1.0351 -2.5093  0.8809
  161MOL0     H21727   0.315  11.463   7.805  1.9213 -0.1462  0.3804
  161MOL0     H21728   0.205  11.343   7.875 -0.4658 -0.3699  0.4900
  161MOL0     H21729   0.406  11.188   7.816 -0.3985  0.6612  0.5743
  161MOL0     H21730   0.441  11.304   7.702  0.1197 -2.3244  0.5105
  161MOL0     H21731   0.149  11.193   7.732 -1.5110  0.0064 -2.6354
  161MOL0     H21732   0.275  11.109   7.653 -0.9458 -0.4065  1.3179
  161MOL0     H21733   0.145  11.373   7.358  1.6088  2.2048 -0.8472
  161MOL0     H21734   0.347  11.104   8.264  0.0983 -1.1100 -0.0822
  161MOL0     H21735   0.494  11.064   8.461 -3.6340  2.9071 -0.0227
  162MOL0     O21736   5.005   7.304   5.852 -0.6159 -0.1737  0.0043
  162MOL0     C21737   5.001   7.421   5.884 -0.4416 -0.4879 -0.3650
  162MOL0     O21738   4.972   7.465   6.011  0.8652  0.1771 -0.6961
  162MOL0     C21739   4.921   7.373   6.099 -0.4070 -0.7000 -0.8883
  162MOL0     C21740   5.011   7.307   6.184 -0.6456 -0.6268  0.8931
  162MOL0     C21741   4.959   7.230   6.294  0.6173 -0.9599  0.5412
  162MOL0     C21742   4.822   7.205   6.307 -1.2551  0.0902 -0.0219
  162MOL0     O21743   4.769   7.123   6.398  0.1130  0.3467 -0.6563
  162MOL0     C21744   4.839   7.001   6.429 -0.2013 -0.8102 -0.2380
  162MOL0     C21745   4.736   6.895   6.480  0.9188 -0.3100  0.2545
  162MOL0     C21746   4.804   6.755   6.508 -0.0773 -1.0217 -0.8056
  162MOL0     C21747   4.899   6.706   6.391  0.0324 -0.8653 -0.0047
  162MOL0     C21748   4.931   6.556   6.403  1.5424  0.4374  0.3784
  162MOL0     C21749   5.050   6.519   6.311 -0.1911  0.4768 -0.2685
  162MOL0     C21750   5.110   6.373   6.337 -0.0068  0.3261  0.6390
  162MOL0     C21751   5.219   6.319   6.235  0.4094  0.7568 -0.3088
  162MOL0     N21752   5.311   6.418   6.188  0.3000  0.0117 -0.2401
  162MOL0     C21753   5.294   6.501   6.074  0.0026  0.0002  0.6130
  162MOL0     C21754   5.411   6.561   6.064 -0.2177  0.2333 -0.0365
  162MOL0     C21755   5.440   6.673   5.961 -0.9428  0.0821 -0.0717
  162MOL0     C21756   5.587   6.656   5.903  1.1000  0.0530  0.1353
  162MOL0     C21757   5.614   6.516   5.822 -0.0445 -0.0591 -0.0740
  162MOL0     C21758   5.592   6.541   5.677  0.4471  0.0599 -1.2875
  162MOL0     O21759   5.674   6.640   5.625 -0.1196  0.6240  0.1042
  162MOL0     C21760   5.789   6.596   5.568 -0.0956  0.1118  0.2419
  162MOL0     C21761   5.831   6.468   5.545  0.3752  0.5112 -0.4277
  162MOL0     C21762   5.954   6.434   5.497  0.3810 -0.1216  0.2036
  162MOL0     C21763   6.000   6.294   5.499  0.3793  0.0900  0.3609
  162MOL0     C21764   6.043   6.537   5.453 -0.1691  0.3731 -0.6072
  162MOL0     C21765   6.176   6.520   5.397 -0.6033  0.3910  1.0913
  162MOL0     O21766   6.276   6.605   5.431  0.2721 -0.2920  0.7192
  162MOL0     C21767   6.403   6.571   5.392 -0.7130 -0.0811  0.2837
  162MOL0     C21768   6.483   6.683   5.354 -0.3752 -0.9742  0.7857
  162MOL0     C21769   6.618   6.666   5.327 -0.7167 -0.0855 -0.3375
  162MOL0     C21770   6.671   6.540   5.320  0.2848  0.0859 -0.6835
  162MOL0     O21771   6.798   6.540   5.281 -0.2690  0.1437 -0.0526
  162MOL0     C21772   6.827   6.590   5.142 -0.1807 -0.0967 -0.8626
  162MOL0     C21773   6.898   6.724   5.143 -0.1721  0.1801 -0.3117
  162MOL0     C21774   6.996   6.712   5.260 -0.6593 -0.3676  0.3215
  162MOL0     C21775   7.085   6.838   5.259  0.3518  0.1677 -0.4810
  162MOL0     C21776   7.160   6.878   5.390  0.7604 -0.0992 -0.2616
  162MOL0     C21777   7.201   7.015   5.426 -0.1728 -0.5194  1.1382
  162MOL0     C21778   7.309   7.061   5.333  0.0188 -0.4539 -0.0783
  162MOL0     C21779   7.384   7.199   5.365  0.6413  0.4366 -0.4956
  162MOL0    Cl21780   7.491   7.234   5.231 -0.1040 -0.3165  0.0902
  162MOL0     C21781   6.595   6.426   5.347  1.4788 -0.4915  0.1143
  162MOL0     C21782   6.462   6.446   5.391  0.9780  0.1464  0.4106
  162MOL0     O21783   6.185   6.422   5.321 -0.3570  0.2606 -0.1777
  162MOL0     C21784   6.004   6.675   5.488 -0.4051  0.9515  0.6784
  162MOL0     C21785   5.881   6.697   5.544  0.0577  1.2136  0.0789
  162MOL0     N21786   5.497   6.508   6.153 -0.0137 -0.0376  0.7152
  162MOL0     N21787   5.440   6.428   6.229 -0.4791  0.4335  1.2370
  162MOL0     C21788   4.737   7.276   6.214 -0.4601 -0.3770 -0.2599
  162MOL0     C21789   4.783   7.357   6.110 -1.2731  0.2236 -0.8380
  162MOL0     C21790   5.016   7.520   5.775 -0.4184  0.8433  0.3916
  162MOL0     C21791   4.992   7.472   5.640  0.8930  0.6715  0.1183
  162MOL0     C21792   5.015   7.560   5.531 -0.6090 -0.0435 -0.3938
  162MOL0     C21793   5.045   7.695   5.556  0.1636 -0.0669  0.5732
  162MOL0     O21794   5.049   7.777   5.448  0.8360 -0.2771  0.8770
  162MOL0     C21795   4.980   7.912   5.456 -0.1791 -0.5686  0.9408
  162MOL0     C21796   5.082   8.031   5.471 -0.5240  0.7871 -0.2646
  162MOL0     C21797   5.193   8.030   5.376  0.2445 -0.5035  0.4012
  162MOL0     C21798   5.162   8.041   5.225  0.2377  0.0530  0.6637
  162MOL0     C21799   5.275   8.041   5.140  0.9337 -0.4613 -0.3022
  162MOL0     C21800   5.371   8.062   5.069  0.7548 -0.1978  0.1905
  162MOL0     C21801   5.065   7.738   5.683 -0.7343 -0.4326 -0.8764
  162MOL0     C21802   5.054   7.650   5.793 -0.6216 -0.5010 -0.7556
  162MOL0     H21803   5.113   7.342   6.170 -0.9871 -0.2597 -0.9581
  162MOL0     H21804   5.025   7.185   6.368 -2.5755 -3.5262  2.0534
  162MOL0     H21805   4.878   6.955   6.337  0.5800  0.2915 -0.4828
  162MOL0     H21806   4.932   6.998   6.486  0.3089 -4.2351 -0.9882
  162MOL0     H21807   4.685   6.936   6.568  1.0709  0.3601  0.0379
  162MOL0     H21808   4.656   6.875   6.408  1.6926 -0.0240 -0.7157
  162MOL0     H21809   4.866   6.754   6.598  1.3226  1.8916 -1.6193
  162MOL0     H21810   4.718   6.689   6.523 -2.6135  1.6687 -2.4011
  162MOL0     H21811   4.851   6.729   6.295  0.8813 -0.7798 -0.4182
  162MOL0     H21812   4.988   6.769   6.391 -1.2027  1.1662  3.8391
  162MOL0     H21813   4.959   6.540   6.507  2.1160  5.2443  1.1787
  162MOL0     H21814   4.836   6.506   6.380  0.5244  3.2136 -2.0675
  162MOL0     H21815   5.022   6.526   6.205 -1.5723 -2.8515 -0.2171
  162MOL0     H21816   5.126   6.598   6.319 -1.8618  2.1526 -0.4066
  162MOL0     H21817   5.148   6.373   6.440 -0.2176  0.3076  0.7160
  162MOL0     H21818   5.023   6.308   6.335 -0.4930  0.9719 -0.1388
  162MOL0     H21819   5.181   6.283   6.139 -1.5914  1.7606  0.0609
  162MOL0     H21820   5.274   6.242   6.290 -0.9265  1.6081  2.3806
  162MOL0     H21821   5.209   6.549   6.026  0.6970 -2.3889 -3.3552
  162MOL0     H21822   5.383   6.672   5.867  2.7230  0.3455 -2.4752
  162MOL0     H21823   5.449   6.769   6.012  1.8655 -0.1057 -0.0944
  162MOL0     H21824   5.667   6.688   5.971  1.7007  0.9390 -0.9467
  162MOL0     H21825   5.586   6.735   5.827 -0.6684  1.3017  1.3553
  162MOL0     H21826   5.537   6.444   5.847 -0.0265  0.1062  0.4604
  162MOL0     H21827   5.718   6.481   5.828 -0.3803 -0.8655  1.6107
  162MOL0     H21828   5.492   6.583   5.667  0.5451  0.7447  0.2924
  162MOL0     H21829   5.587   6.443   5.627 -5.1514 -2.1161  2.5482
  162MOL0     H21830   5.762   6.385   5.554 -0.8411  1.3565 -1.6145
  162MOL0     H21831   6.098   6.293   5.548 -0.3487  2.4885  2.0327
  162MOL0     H21832   5.932   6.231   5.556  0.8538  1.8142  2.9762
  162MOL0     H21833   5.999   6.258   5.395 -0.2386  0.0699  0.3751
  162MOL0     H21834   6.436   6.779   5.335  0.5047 -0.9743 -1.9769
  162MOL0     H21835   6.685   6.751   5.319  1.0675 -0.9945  3.0456
  162MOL0     H21836   6.880   6.510   5.089  0.4672  0.1866 -0.6487
  162MOL0     H21837   6.729   6.593   5.092 -0.6871 -1.9816 -0.0905
  162MOL0     H21838   6.952   6.726   5.048  0.9167 -1.8833  0.2074
  162MOL0     H21839   6.832   6.811   5.151  1.2538  1.7477 -3.7972
  162MOL0     H21840   7.058   6.622   5.248 -1.4652 -1.0232  0.9291
  162MOL0     H21841   6.949   6.705   5.359 -1.1855 -2.5731 -0.0443
  162MOL0     H21842   7.159   6.820   5.180  1.1805 -1.6176  0.6354
  162MOL0     H21843   7.021   6.922   5.229 -0.6566 -0.9406 -1.5292
  162MOL0     H21844   7.252   6.821   5.403  0.0260 -0.7527  2.7438
  162MOL0     H21845   7.100   6.859   5.479  3.6550  1.7481  2.2956
  162MOL0     H21846   7.114   7.076   5.398  2.1766  2.5846  0.1440
  162MOL0     H21847   7.238   7.034   5.527  1.1020  1.8881  0.3019
  162MOL0     H21848   7.275   7.059   5.229  0.1996  1.5007 -0.2046
  162MOL0     H21849   7.380   6.978   5.342 -0.1824 -0.4612  1.7627
  162MOL0     H21850   7.448   7.188   5.453 -1.1435 -3.6739  0.5210
  162MOL0     H21851   7.311   7.277   5.389  0.6815  0.2948  0.1037
  162MOL0     H21852   6.623   6.321   5.356 -2.6339 -1.8719 -0.8465
  162MOL0     H21853   6.417   6.358   5.438  2.9519 -1.2399 -0.1642
  162MOL0     H21854   6.064   6.764   5.472  1.9216 -0.7760 -0.7695
  162MOL0     H21855   5.855   6.801   5.558 -0.9130  0.7838  1.8735
  162MOL0     H21856   4.631   7.265   6.236 -0.3113  0.9624  1.2660
  162MOL0     H21857   4.715   7.406   6.042 -0.2838  1.5222 -0.9396
  162MOL0     H21858   4.963   7.368   5.626  0.6645  0.6917  0.4265
  162MOL0     H21859   5.003   7.519   5.432  2.1162  0.3889 -0.9996
  162MOL0     H21860   4.917   7.924   5.367  2.4873 -4.5812 -1.8255
  162MOL0     H21861   4.903   7.919   5.533  0.1451 -2.7206  1.5206
  162MOL0     H21862   5.120   8.004   5.570 -1.4375 -0.4880 -0.2231
  162MOL0     H21863   5.021   8.122   5.470 -0.8404  0.5843  0.1297
  162MOL0     H21864   5.244   7.935   5.392 -2.2139 -2.0938 -0.7533
  162MOL0     H21865   5.264   8.109   5.403 -0.3547  0.5719 -1.0161
  162MOL0     H21866   5.118   8.141   5.217 -2.1060 -1.0395 -1.7447
  162MOL0     H21867   5.080   7.976   5.193 -2.6716  2.9995  1.5140
  162MOL0     H21868   5.457   8.076   5.008  0.4000 -0.2740 -0.3330
  162MOL0     H21869   5.088   7.841   5.706  1.4913 -1.1061  0.2613
  162MOL0     H21870   5.085   7.676   5.894 -0.0512  0.0624 -1.0636
  163MOL0     O21871   5.753   1.138   3.802 -0.1589  0.1318 -0.5839
  163MOL0     C21872   5.740   1.036   3.876  1.2204 -0.6145 -0.4664
  163MOL0     O21873   5.805   0.914   3.874 -0.0730 -0.4538  0.0102
  163MOL0     C21874   5.895   0.901   3.771 -0.1126  0.0113 -0.1246
  163MOL0     C21875   6.032   0.911   3.801  0.5427  0.3201 -0.1917
  163MOL0     C21876   6.125   0.893   3.701  0.3399  0.0820  0.1492
  163MOL0     C21877   6.087   0.895   3.565 -0.2335  0.1170  0.4773
  163MOL0     O21878   6.188   0.898   3.471  0.6821 -0.3269 -0.4583
  163MOL0     C21879   6.158   0.839   3.341  0.4449  0.1009 -0.2064
  163MOL0     C21880   6.281   0.757   3.290  0.0375  0.2671  0.3029
  163MOL0     C21881   6.288   0.628   3.380  0.2910 -0.2150  0.6662
  163MOL0     C21882   6.316   0.499   3.301 -1.0587  0.9056 -0.7644
  163MOL0     C21883   6.323   0.373   3.380  0.5771 -0.6873 -0.4226
  163MOL0     C21884   6.414   0.254   3.321  0.8858 -0.2218 -0.2091
  163MOL0     C21885   6.343   0.193   3.193 -1.6173 -0.2744 -0.3077
  163MOL0     C21886   6.433   0.098   3.112 -0.1724  0.6185 -0.0500
  163MOL0     N21887   6.362   0.027   3.014  0.0336 -0.2206  0.5623
  163MOL0     C21888   6.355   0.065   2.886 -0.1512  0.1161  0.2903
  163MOL0     C21889   6.253  -0.012   2.837 -0.0311 -0.3683 -0.8698
  163MOL0     C21890   6.185  -0.002   2.704 -0.1973 -1.1930 -0.5789
  163MOL0     C21891   6.288  -0.011   2.585  0.3098 -0.8465 -0.0444
  163MOL0     C21892   6.207  -0.045   2.456 -0.2002  0.8733 -0.3736
  163MOL0     C21893   6.235   0.056   2.354  0.4769 -0.3495 -0.2293
  163MOL0     O21894   6.190   0.021   2.219  0.0793 -0.1974  0.6037
  163MOL0     C21895   6.228   0.099   2.108  0.5226  0.8593  0.2302
  163MOL0     C21896   6.349   0.166   2.092  0.1182 -0.6751  0.8184
  163MOL0     C21897   6.377   0.258   1.992 -0.1734  0.0923  0.2241
  163MOL0     C21898   6.511   0.321   2.002 -0.1068  0.3993 -0.6496
  163MOL0     C21899   6.287   0.269   1.887 -0.0403 -0.4120 -0.1594
  163MOL0     C21900   6.307   0.357   1.768 -0.4935  1.2534  0.5673
  163MOL0     O21901   6.396   0.464   1.776  0.5472 -0.6677  0.1137
  163MOL0     C21902   6.401   0.544   1.668  0.1371  0.0317 -0.5416
  163MOL0     C21903   6.362   0.678   1.687  0.1447 -0.3816 -0.4063
  163MOL0     C21904   6.394   0.781   1.600 -0.0351 -0.3835 -0.3094
  163MOL0     C21905   6.465   0.752   1.479 -0.1333 -0.2513  0.0467
  163MOL0     O21906   6.506   0.850   1.383  0.0189 -0.4700  0.2020
  163MOL0     C21907   6.449   0.983   1.411  0.5928 -0.9645  0.0963
  163MOL0     C21908   6.493   1.070   1.290 -1.0251  0.7350 -0.0424
  163MOL0     C21909   6.426   1.214   1.286  0.0309  0.3378 -0.8484
  163MOL0     C21910   6.462   1.282   1.152 -0.0463  0.1166  0.1988
  163MOL0     C21911   6.392   1.420   1.148 -0.2363  0.5790  0.5873
  163MOL0     C21912   6.473   1.517   1.228  0.1994  0.6341 -0.1856
  163MOL0     C21913   6.418   1.660   1.207 -0.0140 -0.9500  0.1242
  163MOL0     C21914   6.479   1.759   1.315 -0.1469  0.4966 -0.6451
  163MOL0    Cl21915   6.650   1.784   1.261  0.2934 -0.0983  0.2312
  163MOL0     C21916   6.504   0.616   1.458 -0.0075  1.1627 -0.1906
  163MOL0     C21917   6.492   0.522   1.556  0.7707 -1.1047 -0.2113
  163MOL0     O21918   6.234   0.334   1.672 -0.8822 -0.2792  0.2726
  163MOL0     C21919   6.171   0.188   1.890 -0.1038  0.5534 -0.1295
  163MOL0     C21920   6.139   0.105   1.997 -0.0125 -0.1952 -0.2903
  163MOL0     N21921   6.204  -0.099   2.932 -0.1821 -0.2008 -1.0751
  163MOL0     N21922   6.272  -0.071   3.040  0.0797  0.0799 -0.2499
  163MOL0     C21923   5.953   0.896   3.531 -0.5277  0.0078 -0.1950
  163MOL0     C21924   5.865   0.897   3.636  0.1709 -0.4966 -0.4591
  163MOL0     C21925   5.636   1.048   3.978  0.4154  0.1401 -0.0787
  163MOL0     C21926   5.578   1.170   4.013 -0.1823 -0.6359 -0.7909
  163MOL0     C21927   5.481   1.186   4.109 -0.0220 -0.2111  0.1272
  163MOL0     C21928   5.432   1.070   4.175  0.1745  0.1769  1.0003
  163MOL0     O21929   5.346   1.090   4.276  0.1745 -0.0401 -0.8688
  163MOL0     C21930   5.289   0.976   4.337  0.3465 -0.0192  0.3686
  163MOL0     C21931   5.189   1.023   4.445 -1.5221 -0.4672 -0.1916
  163MOL0     C21932   5.087   1.125   4.420  0.0097  0.8056  0.2543
  163MOL0     C21933   5.008   1.154   4.547  0.2380  0.4810  0.1514
  163MOL0     C21934   4.922   1.281   4.522 -0.7814 -0.2513  1.0107
  163MOL0     C21935   4.864   1.382   4.490 -0.2844  0.1431  0.1507
  163MOL0     C21936   5.491   0.945   4.147  0.5519  0.0146  0.2349
  163MOL0     C21937   5.582   0.931   4.044  0.2363  0.6314 -0.8259
  163MOL0     H21938   6.064   0.924   3.904 -1.1918  1.5067  0.2488
  163MOL0     H21939   6.231   0.874   3.713  0.5557 -1.3738 -3.2017
  163MOL0     H21940   6.068   0.778   3.351 -1.3462  2.4572 -1.1164
  163MOL0     H21941   6.132   0.926   3.281  3.4000 -0.0209 -1.8627
  163MOL0     H21942   6.265   0.734   3.184 -2.2056  4.1156 -0.3880
  163MOL0     H21943   6.375   0.811   3.305  0.0127  0.1956  0.7287
  163MOL0     H21944   6.364   0.646   3.455 -2.6350 -1.0430  4.1135
  163MOL0     H21945   6.192   0.624   3.433  0.3206 -2.1423  0.6266
  163MOL0     H21946   6.230   0.499   3.234  0.0493 -0.4600 -2.2413
  163MOL0     H21947   6.409   0.502   3.244  0.5893 -3.0809  1.2951
  163MOL0     H21948   6.378   0.389   3.474  0.8520 -1.5118 -0.4282
  163MOL0     H21949   6.222   0.334   3.391  0.9027 -2.5728 -3.0773
  163MOL0     H21950   6.510   0.299   3.296 -0.2726  4.5095  2.6002
  163MOL0     H21951   6.427   0.172   3.391 -0.3338  1.8510  2.6394
  163MOL0     H21952   6.247   0.148   3.221 -0.5463 -1.4224  1.8273
  163MOL0     H21953   6.339   0.285   3.134  1.6922 -0.3759 -0.8797
  163MOL0     H21954   6.475   0.028   3.185 -1.5822  1.7673  1.9324
  163MOL0     H21955   6.509   0.156   3.059 -0.8828  2.1557  0.5598
  163MOL0     H21956   6.418   0.139   2.837 -0.4333 -0.1251 -0.4600
  163MOL0     H21957   6.094  -0.061   2.689 -3.4834  3.1175  0.2566
  163MOL0     H21958   6.141   0.098   2.693 -2.7364 -2.1906 -0.2337
  163MOL0     H21959   6.366  -0.081   2.616  0.2706 -0.3164  1.3227
  163MOL0     H21960   6.327   0.090   2.567 -0.1451 -0.6618 -0.0071
  163MOL0     H21961   6.098  -0.048   2.463 -0.2666 -3.5218 -0.6655
  163MOL0     H21962   6.248  -0.140   2.421  0.7794  0.4065  1.8384
  163MOL0     H21963   6.344   0.064   2.352  0.5831 -1.4726  0.3651
  163MOL0     H21964   6.201   0.148   2.404 -1.2755 -1.5478  0.8945
  163MOL0     H21965   6.405   0.158   2.184  0.9287 -3.3507  0.1901
  163MOL0     H21966   6.576   0.246   2.049 -3.5951 -2.6038 -0.1838
  163MOL0     H21967   6.563   0.342   1.908  1.6461  1.1321  0.4296
  163MOL0     H21968   6.502   0.412   2.062  0.9708 -0.6853  1.2514
  163MOL0     H21969   6.289   0.696   1.766  1.4067 -0.0256  0.7219
  163MOL0     H21970   6.351   0.879   1.620 -0.6535 -0.8331  0.5892
  163MOL0     H21971   6.341   0.975   1.431  0.7785  2.4354  3.6143
  163MOL0     H21972   6.489   1.017   1.507  0.3595 -1.3478  0.3316
  163MOL0     H21973   6.602   1.071   1.281 -0.9783 -1.3715 -0.2523
  163MOL0     H21974   6.459   1.012   1.204 -0.4812  1.6183 -0.8622
  163MOL0     H21975   6.454   1.269   1.376  0.3761  1.3126 -1.5347
  163MOL0     H21976   6.318   1.203   1.297  0.0451  1.0320  0.0605
  163MOL0     H21977   6.571   1.293   1.152  0.1868 -1.7684  0.3654
  163MOL0     H21978   6.425   1.222   1.068 -1.5078 -0.2180  1.0497
  163MOL0     H21979   6.287   1.413   1.180  0.0335 -2.4853  1.0848
  163MOL0     H21980   6.390   1.448   1.042  2.5838  3.9877  1.2541
  163MOL0     H21981   6.454   1.483   1.330 -0.8428 -1.6266 -1.0669
  163MOL0     H21982   6.580   1.512   1.209 -0.0031  1.7359 -1.8639
  163MOL0     H21983   6.310   1.646   1.223 -0.1374 -1.7238 -1.2277
  163MOL0     H21984   6.430   1.703   1.107 -2.5092  2.3291  1.0619
  163MOL0     H21985   6.477   1.710   1.413 -1.3656  2.0979  0.1707
  163MOL0     H21986   6.435   1.858   1.327  1.5546  1.2088 -0.0113
  163MOL0     H21987   6.558   0.596   1.366 -1.0718  0.0601 -0.6040
  163MOL0     H21988   6.546   0.428   1.559 -0.9242 -2.1430 -1.2017
  163MOL0     H21989   6.106   0.173   1.804  1.2499  1.0259 -1.2868
  163MOL0     H21990   6.049   0.045   2.009 -0.2306 -0.0158 -0.9976
  163MOL0     H21991   5.931   0.891   3.425  1.6124 -3.3888 -0.6301
  163MOL0     H21992   5.762   0.891   3.603  0.4923 -2.0826 -1.2462
  163MOL0     H21993   5.622   1.246   3.950  2.0891 -1.4958 -0.3381
  163MOL0     H21994   5.441   1.281   4.144 -0.1325  0.0468 -0.6788
  163MOL0     H21995   5.221   0.915   4.277 -0.7178  1.8013 -0.3661
  163MOL0     H21996   5.365   0.915   4.387 -0.0834  0.0525  1.1189
  163MOL0     H21997   5.251   1.072   4.521 -0.6283  0.2369 -1.3498
  163MOL0     H21998   5.145   0.934   4.491  0.2959 -2.1021 -1.4371
  163MOL0     H21999   5.029   1.081   4.338 -1.5783  1.2491  1.1088
  163MOL0     H22000   5.137   1.217   4.389 -0.1144  2.1483  3.6432
  163MOL0     H22001   5.068   1.167   4.638  0.3612  1.2316 -0.0284
  163MOL0     H22002   4.937   1.073   4.565 -1.2124  1.3177 -1.5443
  163MOL0     H22003   4.809   1.473   4.477 -1.3546 -0.2259  1.7503
  163MOL0     H22004   5.458   0.856   4.199 -2.7059 -0.0150 -1.5602
  163MOL0     H22005   5.623   0.834   4.020  0.9724  0.4851  0.8923
  164MOL0     O22006   0.158   5.781   9.701 -0.2822  0.5354 -0.3068
  164MOL0     C22007   0.067   5.721   9.762  0.3362  0.1255 -0.6084
  164MOL0     O22008   0.011   5.600   9.735 -0.1256 -0.4162 -0.4092
  164MOL0     C22009   0.054   5.534   9.629  0.3033  0.4775 -0.6880
  164MOL0     C22010   0.075   5.584   9.496  0.3340 -0.3997 -1.2028
  164MOL0     C22011   0.125   5.506   9.392  0.6501 -0.5652 -0.1179
  164MOL0     C22012   0.161   5.377   9.420  0.5973 -0.4717 -0.6268
  164MOL0     O22013   0.207   5.303   9.311 -0.4853 -0.4094  0.2267
  164MOL0     C22014   0.319   5.218   9.334 -0.5907 -0.0853 -0.1390
  164MOL0     C22015   0.274   5.074   9.354 -0.1594  0.1157  0.1092
  164MOL0     C22016   0.266   4.995   9.216 -0.2851  0.0820 -0.2924
  164MOL0     C22017   0.198   4.863   9.237  0.5452  1.0604  0.0101
  164MOL0     C22018   0.123   4.801   9.120  0.6137  0.2552 -0.2975
  164MOL0     C22019   0.084   4.664   9.164  0.0178  0.7477  0.1978
  164MOL0     C22020  -0.019   4.605   9.069  0.7951 -0.2640  0.2301
  164MOL0     C22021  -0.061   4.467   9.108  0.2935 -0.3986  0.7627
  164MOL0     N22022  -0.060   4.367   8.994  0.2791  0.5528 -0.3883
  164MOL0     C22023  -0.101   4.383   8.865  0.1024  0.0531 -0.1741
  164MOL0     C22024  -0.077   4.272   8.797 -0.5700 -0.3593 -0.2980
  164MOL0     C22025  -0.111   4.251   8.649  1.0856 -0.1161 -0.1919
  164MOL0     C22026  -0.268   4.225   8.633 -0.0406 -0.7091 -1.3363
  164MOL0     C22027  -0.325   4.196   8.493 -0.7973 -0.7198 -0.6522
  164MOL0     C22028  -0.300   4.300   8.389  0.4764  0.9198  0.4776
  164MOL0     O22029  -0.410   4.392   8.406  0.8169 -0.0512  0.6256
  164MOL0     C22030  -0.383   4.522   8.378  0.4712 -0.5814 -0.0164
  164MOL0     C22031  -0.298   4.568   8.275 -0.7632  0.0251  0.0988
  164MOL0     C22032  -0.277   4.704   8.243 -0.4141 -0.3688 -0.3292
  164MOL0     C22033  -0.176   4.748   8.138  0.4090  0.1480 -0.3424
  164MOL0     C22034  -0.352   4.803   8.311 -0.1297 -0.2113  0.8236
  164MOL0     C22035  -0.351   4.955   8.301 -0.2164 -0.6779 -0.1986
  164MOL0     O22036  -0.426   5.028   8.394  0.4549  0.3646 -0.3876
  164MOL0     C22037  -0.455   5.156   8.378  0.0168  0.3015 -0.1917
  164MOL0     C22038  -0.581   5.197   8.369  0.2856  0.6712 -0.8676
  164MOL0     C22039  -0.629   5.332   8.373 -0.2925  0.3705 -0.1925
  164MOL0     C22040  -0.535   5.430   8.391  0.5091  0.1445  0.6359
  164MOL0     O22041  -0.578   5.562   8.387  0.1676 -0.0866  0.5512
  164MOL0     C22042  -0.485   5.667   8.433 -0.7813 -0.1550 -0.3838
  164MOL0     C22043  -0.552   5.799   8.443 -0.1397  0.1525 -0.5056
  164MOL0     C22044  -0.471   5.914   8.489 -0.1891 -0.1205 -0.0226
  164MOL0     C22045  -0.521   5.973   8.625 -0.7923 -0.7870 -0.2787
  164MOL0     C22046  -0.445   6.105   8.654 -0.5826 -0.3634 -0.2505
  164MOL0     C22047  -0.524   6.193   8.753 -0.6417  0.1930  0.9264
  164MOL0     C22048  -0.440   6.323   8.787  0.3319 -0.2715  0.7251
  164MOL0     C22049  -0.444   6.423   8.672  0.4850 -0.8110  0.0387
  164MOL0    Cl22050  -0.591   6.510   8.676 -0.1692 -0.2033  0.2119
  164MOL0     C22051  -0.400   5.390   8.396 -0.1529  0.4190  0.1842
  164MOL0     C22052  -0.360   5.257   8.394 -0.2355  0.3339  0.4622
  164MOL0     O22053  -0.279   5.010   8.217  0.2984 -0.1748 -0.7220
  164MOL0     C22054  -0.446   4.753   8.410 -0.4525 -0.9203  0.2254
  164MOL0     C22055  -0.449   4.621   8.454  0.2152 -0.2204  1.3858
  164MOL0     N22056  -0.021   4.189   8.889 -0.4441 -0.5838  0.2439
  164MOL0     N22057  -0.008   4.241   9.003  0.3829  0.7178 -0.9249
  164MOL0     C22058   0.131   5.326   9.547 -0.7603 -0.3607 -0.4169
  164MOL0     C22059   0.082   5.403   9.647  0.6698  0.5436 -0.4658
  164MOL0     C22060   0.022   5.776   9.892  0.4311  0.8765  0.3250
  164MOL0     C22061   0.054   5.910   9.925 -0.0913  0.0103 -0.2429
  164MOL0     C22062   0.009   5.974  10.042 -0.2256 -0.5463 -0.2049
  164MOL0     C22063  -0.062   5.903  10.136  0.3293  0.2724  0.4044
  164MOL0     O22064  -0.095   5.960  10.256  0.4354 -0.9731 -0.0822
  164MOL0     C22065  -0.156   5.876  10.344  0.5213 -0.3547  0.3564
  164MOL0     C22066  -0.187   5.947  10.484  0.2692  0.4544  0.8776
  164MOL0     C22067  -0.180   5.841  10.588  0.3676  0.0532  0.2311
  164MOL0     C22068  -0.225   5.886  10.723 -0.3391  0.0516  0.3440
  164MOL0     C22069  -0.354   5.949  10.721 -1.0356 -0.0898  0.4075
  164MOL0     C22070  -0.455   6.021  10.729 -0.3215 -0.4579  0.3828
  164MOL0     C22071  -0.100   5.771  10.103  0.0814  0.3103  0.7334
  164MOL0     C22072  -0.064   5.714   9.976 -0.3442 -0.0102 -0.7911
  164MOL0     H22073   0.061   5.690   9.479 -0.6888 -0.1564  0.7811
  164MOL0     H22074   0.155   5.552   9.298 -0.7667 -1.2840 -0.9599
  164MOL0     H22075   0.394   5.215   9.254  1.9737 -0.2968  2.1405
  164MOL0     H22076   0.373   5.257   9.420 -0.3533  1.0224 -0.7706
  164MOL0     H22077   0.346   5.019   9.416 -1.4773 -1.7686  0.0221
  164MOL0     H22078   0.175   5.078   9.399  1.4598 -2.8131  4.7423
  164MOL0     H22079   0.205   5.050   9.144  0.5742  2.1852  0.5151
  164MOL0     H22080   0.364   4.977   9.170  0.0934 -1.8637  1.1309
  164MOL0     H22081   0.281   4.797   9.264  0.7530 -0.2960 -3.4778
  164MOL0     H22082   0.126   4.864   9.319 -0.6654 -2.6580 -0.7975
  164MOL0     H22083   0.037   4.867   9.108 -0.1294  0.1854  3.3753
  164MOL0     H22084   0.183   4.795   9.028 -0.9049  1.4827 -1.4199
  164MOL0     H22085   0.171   4.599   9.158 -0.2735  0.4947 -3.2732
  164MOL0     H22086   0.025   4.670   9.257 -0.8002 -1.5224 -0.1136
  164MOL0     H22087  -0.103   4.675   9.077  3.0180  2.3257  2.8116
  164MOL0     H22088   0.026   4.622   8.971  1.3571 -0.0111  0.5305
  164MOL0     H22089  -0.159   4.473   9.155 -1.0073  3.7423 -1.9310
  164MOL0     H22090   0.004   4.426   9.186 -2.5755 -1.5956  2.7095
  164MOL0     H22091  -0.153   4.470   8.827 -5.1595 -1.5899  2.3212
  164MOL0     H22092  -0.083   4.350   8.613 -0.7410  0.2325 -0.7837
  164MOL0     H22093  -0.052   4.168   8.610  0.4009 -2.2074  2.8055
  164MOL0     H22094  -0.328   4.305   8.676  0.9838 -0.6659  0.1002
  164MOL0     H22095  -0.300   4.137   8.690  1.7526  0.0933  1.0933
  164MOL0     H22096  -0.434   4.198   8.507 -0.7110  1.6848 -0.0033
  164MOL0     H22097  -0.292   4.099   8.453  0.5933 -0.1707 -0.8808
  164MOL0     H22098  -0.310   4.257   8.289 -0.9781  0.2182  0.8946
  164MOL0     H22099  -0.200   4.343   8.397  1.0404 -0.6391  3.5508
  164MOL0     H22100  -0.238   4.503   8.212 -0.4760  0.9876 -0.6458
  164MOL0     H22101  -0.163   4.676   8.056 -2.3355  0.1896 -0.9126
  164MOL0     H22102  -0.201   4.835   8.077  1.1127 -0.4419 -1.4939
  164MOL0     H22103  -0.078   4.759   8.185  0.2231  0.6405 -0.0618
  164MOL0     H22104  -0.660   5.124   8.361 -0.5469  1.3915  0.4725
  164MOL0     H22105  -0.730   5.361   8.346  0.7175  4.2700 -0.3230
  164MOL0     H22106  -0.435   5.638   8.526  2.6268  0.9022 -1.7336
  164MOL0     H22107  -0.412   5.678   8.353 -2.8105  2.5671 -2.0403
  164MOL0     H22108  -0.590   5.822   8.343 -3.5540  1.1375  0.8802
  164MOL0     H22109  -0.639   5.787   8.508 -0.2204 -0.3998 -0.7031
  164MOL0     H22110  -0.461   5.990   8.411  1.6765 -0.2130  0.0879
  164MOL0     H22111  -0.370   5.880   8.510  0.9512  2.4739 -0.9214
  164MOL0     H22112  -0.627   5.992   8.607 -0.5252 -1.0347 -2.4850
  164MOL0     H22113  -0.505   5.912   8.714  1.8651 -0.0572 -0.1604
  164MOL0     H22114  -0.431   6.151   8.556  1.8416 -1.0008 -0.2725
  164MOL0     H22115  -0.346   6.090   8.698 -0.0621  2.7078 -0.2054
  164MOL0     H22116  -0.620   6.218   8.705 -0.0890 -1.4163 -1.1734
  164MOL0     H22117  -0.549   6.131   8.839  2.4046 -0.9646  1.0857
  164MOL0     H22118  -0.338   6.294   8.816 -0.7206 -1.4856  3.5354
  164MOL0     H22119  -0.468   6.373   8.880  1.2817 -0.4263  1.1128
  164MOL0     H22120  -0.433   6.387   8.569 -0.9721  1.6296 -1.0791
  164MOL0     H22121  -0.370   6.502   8.686  0.2733 -0.6917  0.4923
  164MOL0     H22122  -0.328   5.470   8.410  1.0476 -0.6820  0.5228
  164MOL0     H22123  -0.258   5.220   8.397 -0.5031 -0.4483  0.1484
  164MOL0     H22124  -0.513   4.820   8.462  0.8651  2.0598 -1.5975
  164MOL0     H22125  -0.502   4.591   8.544  2.5655  1.5603  3.4839
  164MOL0     H22126   0.158   5.226   9.579  2.8604  0.1102 -1.4962
  164MOL0     H22127   0.062   5.357   9.743 -1.3087  1.1124 -0.5690
  164MOL0     H22128   0.116   5.960   9.851 -1.6894 -1.5272 -2.7975
  164MOL0     H22129   0.037   6.076  10.065 -0.5716 -0.1617 -1.4127
  164MOL0     H22130  -0.244   5.827  10.300  0.6610 -1.5442  1.3807
  164MOL0     H22131  -0.079   5.805  10.371  1.4186  1.8262  4.1985
  164MOL0     H22132  -0.278   6.008  10.482  1.0232  1.6031 -1.8267
  164MOL0     H22133  -0.106   6.018  10.502  0.7546  0.0342  0.3711
  164MOL0     H22134  -0.079   5.801  10.597  0.3640  0.4047  2.5298
  164MOL0     H22135  -0.247   5.757  10.566 -1.2885  1.0755  1.1381
  164MOL0     H22136  -0.171   5.968  10.771 -0.8096  0.3121  0.4354
  164MOL0     H22137  -0.238   5.799  10.788 -4.8610 -0.1977 -0.5928
  164MOL0     H22138  -0.548   6.068  10.705  0.6412  0.8692 -0.8829
  164MOL0     H22139  -0.171   5.708  10.155 -0.0152  0.9215  1.3651
  164MOL0     H22140  -0.100   5.612   9.968 -1.1516  0.3785 -2.4570
  165MOL0     O22141   3.340   3.653   9.203  0.7115 -0.1282  0.1239
  165MOL0     C22142   3.311   3.768   9.189 -0.5983 -0.2288 -0.4880
  165MOL0     O22143   3.379   3.871   9.243  0.2536 -0.7203  0.0934
  165MOL0     C22144   3.478   3.838   9.334 -0.2104 -0.7663  0.3076
  165MOL0     C22145   3.609   3.809   9.305 -0.5322 -0.3009 -0.5471
  165MOL0     C22146   3.710   3.782   9.403 -0.3943 -0.3397 -0.9302
  165MOL0     C22147   3.675   3.770   9.539 -0.3248 -0.4736  0.1473
  165MOL0     O22148   3.776   3.776   9.631  0.5272 -1.2660 -0.1569
  165MOL0     C22149   3.743   3.795   9.773 -0.4688 -0.6783  0.5409
  165MOL0     C22150   3.874   3.823   9.851 -0.5651 -0.2022 -0.1239
  165MOL0     C22151   3.849   3.831  10.004 -0.0210 -0.5136  0.1454
  165MOL0     C22152   3.983   3.839  10.091 -0.7401  0.6495 -0.1651
  165MOL0     C22153   3.964   3.822  10.241  0.1735 -0.9767 -0.0155
  165MOL0     C22154   3.873   3.931  10.305  0.2673 -0.4382 -0.5464
  165MOL0     C22155   3.939   4.070  10.284  0.5220  0.9169  0.9369
  165MOL0     C22156   4.073   4.080  10.345 -0.1128  0.3479  0.6065
  165MOL0     N22157   4.071   4.182  10.443 -0.2735  0.0926  0.9227
  165MOL0     C22158   4.115   4.313  10.451 -0.5461  0.5278 -0.1484
  165MOL0     C22159   4.074   4.359  10.575  0.1774  0.1720 -0.0797
  165MOL0     C22160   4.103   4.487  10.635  0.2817  0.1692 -1.3121
  165MOL0     C22161   4.005   4.601  10.615  0.5874  0.0356 -0.2365
  165MOL0     C22162   3.880   4.573  10.710  0.4136 -0.6334 -0.6612
  165MOL0     C22163   3.799   4.692  10.757  0.5780  0.2869 -0.5121
  165MOL0     O22164   3.707   4.640  10.865  0.0385  0.3020  0.3382
  165MOL0     C22165   3.603   4.724  10.889 -0.5952  0.1052 -0.8419
  165MOL0     C22166   3.607   4.860  10.870  0.2011 -0.5040  0.5995
  165MOL0     C22167   3.504   4.955  10.887 -1.1956  0.4994  0.0581
  165MOL0     C22168   3.525   5.095  10.868  0.7722 -0.8539 -0.4049
  165MOL0     C22169   3.381   4.884  10.936 -0.9184 -0.6726 -0.3370
  165MOL0     C22170   3.255   4.962  10.980  0.6273 -0.7070  0.3341
  165MOL0     O22171   3.138   4.903  10.980  0.1295  0.6986  0.3949
  165MOL0     C22172   3.031   4.962  11.038  0.4136 -0.6857 -0.2475
  165MOL0     C22173   3.001   5.097  11.084  0.4927  0.5628  0.1264
  165MOL0     C22174   2.875   5.135  11.145  0.6501 -0.5959 -0.2035
  165MOL0     C22175   2.779   5.048  11.148  0.0884 -0.1828 -0.7616
  165MOL0     O22176   2.659   5.095  11.193  0.3002  0.2884  0.2913
  165MOL0     C22177   2.548   5.018  11.140  0.2943  0.0140 -0.0605
  165MOL0     C22178   2.418   5.097  11.143  0.1543  1.5017 -0.3728
  165MOL0     C22179   2.308   4.993  11.143 -0.1857  0.2567 -0.8234
  165MOL0     C22180   2.172   5.066  11.131 -1.1558  0.1185 -0.1283
  165MOL0     C22181   2.062   4.989  11.205  0.7806  0.7259 -0.0309
  165MOL0     C22182   1.925   5.048  11.160  0.3243  0.2188 -0.5511
  165MOL0     C22183   1.803   4.963  11.185  0.7336 -0.4792  0.4911
  165MOL0     C22184   1.710   5.031  11.292 -0.1532 -0.1901  0.1680
  165MOL0    Cl22185   1.546   4.968  11.252 -0.0428  0.0207  0.5253
  165MOL0     C22186   2.804   4.921  11.099  0.1216  0.1205 -0.5917
  165MOL0     C22187   2.923   4.882  11.045 -0.2092 -0.5820  0.3170
  165MOL0     O22188   3.278   5.075  11.026 -1.2820 -0.3884 -0.0128
  165MOL0     C22189   3.382   4.748  10.969 -0.1493  0.8328 -0.4033
  165MOL0     C22190   3.489   4.666  10.939 -0.0054  0.6076  0.1087
  165MOL0     N22191   4.013   4.256  10.640 -0.1841 -0.4002  0.1875
  165MOL0     N22192   4.002   4.153  10.559  0.5971 -0.8236  0.3456
  165MOL0     C22193   3.541   3.781   9.558 -0.0430 -0.6040  0.2229
  165MOL0     C22194   3.440   3.827   9.466  0.0567 -0.5819 -0.6629
  165MOL0     C22195   3.189   3.799   9.101 -0.2862 -0.5554  0.2836
  165MOL0     C22196   3.157   3.933   9.066 -0.0200 -0.9689 -0.2377
  165MOL0     C22197   3.050   3.967   8.980  0.4852  0.5978  0.0974
  165MOL0     C22198   2.968   3.867   8.927 -0.5648  0.7553 -0.3906
  165MOL0     O22199   2.850   3.900   8.869 -0.5567  0.1749  0.2372
  165MOL0     C22200   2.783   4.027   8.890 -1.1728 -0.0601 -0.5140
  165MOL0     C22201   2.631   4.026   8.880 -0.0451  0.1041  0.5650
  165MOL0     C22202   2.568   4.099   8.761 -0.8367 -0.4787  0.9425
  165MOL0     C22203   2.566   4.253   8.799  0.4206  0.6673  0.6102
  165MOL0     C22204   2.684   4.329   8.804 -0.1164  0.4512 -0.3278
  165MOL0     C22205   2.767   4.413   8.798  0.3787 -0.2729 -0.4176
  165MOL0     C22206   3.000   3.731   8.955 -0.5422 -0.1779 -0.8580
  165MOL0     C22207   3.109   3.698   9.048  0.4143  0.0663 -0.0380
  165MOL0     H22208   3.633   3.834   9.202 -2.3665  0.0953 -0.9027
  165MOL0     H22209   3.816   3.784   9.378 -0.4247  2.8566 -1.1708
  165MOL0     H22210   3.669   3.874   9.785 -0.9072 -1.3543  2.6392
  165MOL0     H22211   3.710   3.704   9.825  1.3170 -0.6481  1.8070
  165MOL0     H22212   3.948   3.748   9.820  2.5164  3.5109 -2.6584
  165MOL0     H22213   3.917   3.916   9.813 -0.5130 -0.3953 -0.5492
  165MOL0     H22214   3.790   3.915  10.042  0.6080 -1.2792  3.1315
  165MOL0     H22215   3.806   3.735  10.034  0.4263 -0.6614  0.3242
  165MOL0     H22216   4.059   3.769  10.054 -1.6937 -0.5499  0.0919
  165MOL0     H22217   4.034   3.934  10.071  0.7280 -0.3342 -1.3279
  165MOL0     H22218   3.917   3.725  10.258 -0.9674 -0.8956 -2.3070
  165MOL0     H22219   4.057   3.821  10.299 -0.4180  0.8083  1.0507
  165MOL0     H22220   3.776   3.931  10.256 -0.0469  1.0947  0.0158
  165MOL0     H22221   3.870   3.906  10.411  3.2011 -2.3978 -0.8083
  165MOL0     H22222   3.944   4.095  10.178  1.0968  1.0385  0.9908
  165MOL0     H22223   3.863   4.139  10.322  0.4044  0.6880  1.1202
  165MOL0     H22224   4.135   4.127  10.267 -0.0993  1.2419  1.1403
  165MOL0     H22225   4.129   3.995  10.384  1.0700  0.3059 -1.0531
  165MOL0     H22226   4.177   4.366  10.380  1.4940 -0.6773  0.6277
  165MOL0     H22227   4.111   4.468  10.743 -1.5331 -0.8604 -1.3273
  165MOL0     H22228   4.199   4.521  10.596 -0.4849  0.8102 -2.6975
  165MOL0     H22229   3.964   4.607  10.514  1.8802 -2.0313 -0.9442
  165MOL0     H22230   4.049   4.697  10.644 -0.4799  0.3805  0.2900
  165MOL0     H22231   3.937   4.532  10.794  2.3976  5.2734  1.3695
  165MOL0     H22232   3.816   4.503  10.656  0.8523 -0.8075 -0.9620
  165MOL0     H22233   3.740   4.723  10.670 -0.9954 -0.5848  0.2098
  165MOL0     H22234   3.865   4.775  10.785 -2.1415  2.0491  1.1850
  165MOL0     H22235   3.696   4.901  10.824 -0.4414  0.0880 -0.1620
  165MOL0     H22236   3.620   5.118  10.820 -0.9220  0.9354 -3.1972
  165MOL0     H22237   3.448   5.138  10.802  1.1909  3.9228  1.7943
  165MOL0     H22238   3.512   5.153  10.960  1.9966  1.2343 -1.4884
  165MOL0     H22239   3.080   5.171  11.090  1.7050 -0.7787  1.3900
  165MOL0     H22240   2.863   5.236  11.183  0.8796 -1.4231  2.2510
  165MOL0     H22241   2.565   4.995  11.034  1.3762 -1.4581  0.4016
  165MOL0     H22242   2.531   4.928  11.199 -0.8891  0.5467  0.4448
  165MOL0     H22243   2.416   5.155  11.236  2.7234  0.1086  0.6548
  165MOL0     H22244   2.408   5.164  11.056  2.1930  0.7339 -1.2540
  165MOL0     H22245   2.314   4.940  11.238 -1.3017  0.0887 -0.8352
  165MOL0     H22246   2.317   4.929  11.054 -2.6187  1.4528 -2.0244
  165MOL0     H22247   2.171   5.168  11.170 -2.5830  1.4005 -3.1205
  165MOL0     H22248   2.143   5.059  11.025 -1.0210 -1.4878 -0.0751
  165MOL0     H22249   2.063   4.983  11.314 -1.0460 -1.4076 -0.0751
  165MOL0     H22250   2.067   4.886  11.169  1.8686  2.2419 -5.0561
  165MOL0     H22251   1.925   5.147  11.206  1.3996  0.0337 -0.1203
  165MOL0     H22252   1.941   5.074  11.055 -1.3146 -0.4336 -1.0027
  165MOL0     H22253   1.840   4.863  11.207  2.4614 -1.4135 -5.0791
  165MOL0     H22254   1.751   4.959  11.089 -0.0775  6.4040  0.1045
  165MOL0     H22255   1.710   5.140  11.282  2.2105 -0.1803 -0.4242
  165MOL0     H22256   1.744   5.003  11.393  3.2685  0.7745 -0.5626
  165MOL0     H22257   2.726   4.846  11.106  0.0635  0.1513 -0.8947
  165MOL0     H22258   2.938   4.777  11.018 -1.0637 -0.1370 -2.1739
  165MOL0     H22259   3.294   4.698  11.009 -0.4607  1.8576  0.2277
  165MOL0     H22260   3.487   4.563  10.972  0.0649  0.7701  0.6414
  165MOL0     H22261   3.491   3.757   9.652 -0.5991 -3.0920 -0.6458
  165MOL0     H22262   3.340   3.851   9.499  0.7538 -2.6700  3.6194
  165MOL0     H22263   3.216   4.014   9.106  1.9824 -1.4106 -2.0546
  165MOL0     H22264   3.027   4.072   8.965  0.1799  0.2683 -2.0713
  165MOL0     H22265   2.815   4.069   8.985  3.6579 -2.2570 -0.8862
  165MOL0     H22266   2.835   4.095   8.822  3.0363 -0.4486  2.0034
  165MOL0     H22267   2.591   4.066   8.974 -3.1931 -1.1233 -0.1361
  165MOL0     H22268   2.598   3.921   8.883 -1.4448  0.4895  3.9521
  165MOL0     H22269   2.467   4.062   8.742 -1.1784  1.1608 -0.5888
  165MOL0     H22270   2.626   4.080   8.670 -0.6562 -1.0320  1.1636
  165MOL0     H22271   2.511   4.254   8.894  0.0717  1.6756  0.4070
  165MOL0     H22272   2.499   4.298   8.726 -0.3824 -2.9187 -1.1203
  165MOL0     H22273   2.837   4.495   8.794 -0.7344  0.8045  0.9635
  165MOL0     H22274   2.926   3.661   8.919 -0.8603  0.4276 -1.4015
  165MOL0     H22275   3.130   3.597   9.083 -3.5046  0.0747  2.9826
  166MOL0     O22276   4.013   6.780   5.914  0.6681 -0.4206  0.0919
  166MOL0     C22277   4.124   6.735   5.903 -1.1669  0.9962 -0.4778
  166MOL0     O22278   4.161   6.607   5.877 -0.5760 -0.5001  0.6006
  166MOL0     C22279   4.081   6.498   5.879 -0.0668  0.4267  0.5237
  166MOL0     C22280   3.941   6.489   5.851  0.0759 -0.1621 -0.3210
  166MOL0     C22281   3.872   6.362   5.849 -0.0606 -1.2219  0.1650
  166MOL0     C22282   3.934   6.243   5.878 -1.0020  0.4886  0.5791
  166MOL0     O22283   3.880   6.124   5.889 -0.2251  0.6408  0.2105
  166MOL0     C22284   3.745   6.109   5.924  0.0652 -0.3192  0.2696
  166MOL0     C22285   3.742   6.114   6.077 -1.2155  0.0427  0.5611
  166MOL0     C22286   3.605   6.075   6.135  0.6604 -0.1149  0.5063
  166MOL0     C22287   3.518   5.965   6.071 -0.2238  0.0861  0.4695
  166MOL0     C22288   3.397   5.937   6.161  0.2874  0.3863  0.2077
  166MOL0     C22289   3.314   5.821   6.112 -0.1125  1.0452 -0.3186
  166MOL0     C22290   3.208   5.769   6.211  0.1466 -0.0664  0.1071
  166MOL0     C22291   3.101   5.865   6.251  0.7309 -0.1140  0.5051
  166MOL0     N22292   2.972   5.830   6.187 -0.2630 -0.4815  0.1067
  166MOL0     C22293   2.924   5.915   6.091  0.6063 -0.4872  0.3111
  166MOL0     C22294   2.789   5.903   6.109 -0.4970  0.9048 -0.4693
  166MOL0     C22295   2.677   5.991   6.063 -0.2268 -0.2576 -1.0086
  166MOL0     C22296   2.721   6.128   6.000  0.5479  0.6812 -0.5090
  166MOL0     C22297   2.603   6.216   5.958 -0.0957 -0.2438  0.1632
  166MOL0     C22298   2.538   6.169   5.823  0.7331  0.6784 -0.6820
  166MOL0     O22299   2.432   6.263   5.796  0.2662  0.4037  0.6496
  166MOL0     C22300   2.449   6.342   5.691  0.1489 -0.9108  0.0420
  166MOL0     C22301   2.450   6.475   5.734 -0.0376 -0.1788  1.0616
  166MOL0     C22302   2.471   6.578   5.644 -0.2061 -0.8075  0.4711
  166MOL0     C22303   2.439   6.717   5.695  0.8489  0.0228  0.1786
  166MOL0     C22304   2.517   6.544   5.508  0.7837  0.1475 -0.4905
  166MOL0     C22305   2.528   6.638   5.394 -0.3767 -0.0658 -0.5427
  166MOL0     O22306   2.539   6.774   5.424  0.1658 -0.0521 -0.5441
  166MOL0     C22307   2.542   6.858   5.318  0.2698 -0.2893  0.1541
  166MOL0     C22308   2.674   6.902   5.272  0.8453 -0.1677 -0.1500
  166MOL0     C22309   2.684   6.970   5.147  0.1269  0.7883 -0.2512
  166MOL0     C22310   2.570   6.991   5.068  0.1895 -0.9390  0.2690
  166MOL0     O22311   2.570   7.049   4.939 -0.1724  0.2854 -0.6333
  166MOL0     C22312   2.686   7.126   4.912 -1.0135 -0.2672 -0.4512
  166MOL0     C22313   2.679   7.215   4.784 -0.2005 -0.2722 -0.5889
  166MOL0     C22314   2.693   7.126   4.659  0.4867  0.1816 -0.1477
  166MOL0     C22315   2.583   7.035   4.627  0.2023 -0.9765  0.9861
  166MOL0     C22316   2.623   6.922   4.534  0.1701 -0.1503 -0.1654
  166MOL0     C22317   2.719   6.816   4.588 -0.3189  0.7079  0.8296
  166MOL0     C22318   2.715   6.678   4.505  0.3055 -0.5274 -0.4489
  166MOL0     C22319   2.758   6.709   4.351 -0.0471  0.2354 -0.3443
  166MOL0    Cl22320   2.923   6.753   4.336  0.1873 -0.0463  0.0892
  166MOL0     C22321   2.442   6.960   5.121  0.2127 -0.0808  0.3160
  166MOL0     C22322   2.422   6.897   5.248 -0.7089  0.3269 -0.5893
  166MOL0     O22323   2.510   6.593   5.280 -0.5621 -0.6199  0.0902
  166MOL0     C22324   2.522   6.408   5.472 -0.6168 -0.6232  0.4147
  166MOL0     C22325   2.473   6.311   5.554 -0.5205 -0.4779 -0.9440
  166MOL0     N22326   2.761   5.814   6.217 -0.0031  1.1347 -0.1315
  166MOL0     N22327   2.874   5.776   6.261 -0.0013 -0.7844 -0.3869
  166MOL0     C22328   4.069   6.251   5.911  0.7256  0.3100  0.7706
  166MOL0     C22329   4.140   6.372   5.906  0.5846  0.8493 -0.4467
  166MOL0     C22330   4.238   6.830   5.921 -0.1768  0.4715  0.0229
  166MOL0     C22331   4.212   6.965   5.947 -0.7824 -0.8784  0.7607
  166MOL0     C22332   4.318   7.055   5.951  0.0752 -0.2387 -1.1616
  166MOL0     C22333   4.451   7.012   5.948 -0.7279 -0.3285 -0.4838
  166MOL0     O22334   4.556   7.113   5.956  0.6281 -0.1239  1.0013
  166MOL0     C22335   4.656   7.115   5.858 -0.4301 -0.3904 -0.4158
  166MOL0     C22336   4.614   7.173   5.713 -0.2145  0.9640 -0.3835
  166MOL0     C22337   4.616   7.326   5.711  0.6953 -0.2234 -0.2924
  166MOL0     C22338   4.625   7.371   5.569  0.0867 -0.5350 -0.0795
  166MOL0     C22339   4.645   7.520   5.559  0.8082  0.4961  0.3469
  166MOL0     C22340   4.660   7.638   5.549  0.1710 -0.5756 -0.2382
  166MOL0     C22341   4.475   6.875   5.924 -0.5519 -0.9073 -0.2473
  166MOL0     C22342   4.369   6.787   5.901 -0.0884  0.4627  0.5181
  166MOL0     H22343   3.878   6.577   5.843  2.3771  1.7328  1.2416
  166MOL0     H22344   3.767   6.369   5.825  0.2888  0.7168 -0.9535
  166MOL0     H22345   3.685   6.187   5.876  1.3220  0.7561  0.4036
  166MOL0     H22346   3.701   6.011   5.901 -0.5649  0.3856 -1.7303
  166MOL0     H22347   3.820   6.049   6.119 -1.3677  0.5227  1.6110
  166MOL0     H22348   3.781   6.210   6.111  2.7111 -1.0286 -0.3491
  166MOL0     H22349   3.613   6.048   6.241 -0.8472  2.0547  1.2680
  166MOL0     H22350   3.539   6.163   6.139  1.5354  0.9778 -3.7515
  166MOL0     H22351   3.490   5.985   5.967  2.9952 -0.1768 -0.5457
  166MOL0     H22352   3.574   5.871   6.071 -1.4208 -0.6746 -0.8295
  166MOL0     H22353   3.436   5.919   6.262  3.1019  2.2823 -0.4303
  166MOL0     H22354   3.337   6.028   6.164  2.7479  2.1391 -0.7790
  166MOL0     H22355   3.280   5.818   6.008 -0.8469 -1.5003 -0.0759
  166MOL0     H22356   3.390   5.743   6.111  0.5013  1.6255  0.5090
  166MOL0     H22357   3.153   5.685   6.168 -0.9845  1.0769 -0.7502
  166MOL0     H22358   3.260   5.738   6.302  1.1046 -2.0693 -1.0535
  166MOL0     H22359   3.129   5.965   6.215  0.3449 -0.5825 -1.1885
  166MOL0     H22360   3.079   5.872   6.358 -0.9488  0.5500  0.1633
  166MOL0     H22361   2.980   5.984   6.030 -0.8290  0.2572 -0.2085
  166MOL0     H22362   2.622   5.929   5.990  0.9126 -1.0708 -1.2032
  166MOL0     H22363   2.612   6.018   6.147 -0.3221  2.5547 -1.8809
  166MOL0     H22364   2.776   6.097   5.912 -1.6400  0.6274 -1.9385
  166MOL0     H22365   2.790   6.191   6.057 -1.5223  5.4698 -2.6543
  166MOL0     H22366   2.632   6.321   5.945  0.1419 -0.4628 -1.1797
  166MOL0     H22367   2.540   6.225   6.047 -1.5723 -2.4878 -0.5918
  166MOL0     H22368   2.481   6.075   5.831 -3.1301  2.9420  1.0165
  166MOL0     H22369   2.608   6.161   5.739  2.4597 -0.5826  0.8053
  166MOL0     H22370   2.429   6.501   5.837 -0.6944  0.3157  0.8083
  166MOL0     H22371   2.337   6.754   5.684  1.5745  1.7431 -1.1176
  166MOL0     H22372   2.458   6.728   5.802  1.0037  3.2887 -0.1012
  166MOL0     H22373   2.511   6.786   5.651 -0.7190  0.1974 -2.3012
  166MOL0     H22374   2.762   6.878   5.331 -0.8581 -2.4040  1.6473
  166MOL0     H22375   2.784   7.008   5.127  0.4067  1.0172  1.3923
  166MOL0     H22376   2.701   7.191   4.999 -0.1706  0.4830 -1.1300
  166MOL0     H22377   2.768   7.054   4.905 -1.4312 -0.7860 -0.0340
  166MOL0     H22378   2.580   7.261   4.788 -0.5068 -1.0047  1.0437
  166MOL0     H22379   2.757   7.291   4.782 -0.6764  0.2185 -1.5994
  166MOL0     H22380   2.786   7.069   4.669  0.2723 -0.4568 -1.5768
  166MOL0     H22381   2.707   7.195   4.575  0.1634 -0.3834 -0.6760
  166MOL0     H22382   2.525   6.993   4.709  0.1080 -0.7213  1.0529
  166MOL0     H22383   2.504   7.098   4.584 -1.3500 -2.1271  2.0513
  166MOL0     H22384   2.656   6.975   4.445  0.8528  2.3256  1.4410
  166MOL0     H22385   2.530   6.866   4.524  2.2590 -3.6963 -1.4016
  166MOL0     H22386   2.820   6.856   4.575  1.4377 -3.7564 -1.2041
  166MOL0     H22387   2.709   6.777   4.689  1.1216 -0.7847  0.4381
  166MOL0     H22388   2.612   6.643   4.515  1.8407 -5.3140  1.0896
  166MOL0     H22389   2.765   6.594   4.553  0.8600 -1.3083 -2.2992
  166MOL0     H22390   2.689   6.787   4.317 -0.6533 -0.5086 -0.8678
  166MOL0     H22391   2.735   6.625   4.285 -1.1505  0.5226 -0.3571
  166MOL0     H22392   2.355   6.977   5.058 -1.1104  0.6707  2.2660
  166MOL0     H22393   2.318   6.874   5.269 -0.1778 -1.3203  0.4124
  166MOL0     H22394   2.548   6.377   5.372 -0.0031  3.2041 -0.7741
  166MOL0     H22395   2.467   6.207   5.526 -1.1339 -0.1015 -2.3210
  166MOL0     H22396   4.122   6.161   5.941 -2.0386 -1.8407 -0.3977
  166MOL0     H22397   4.246   6.373   5.931  0.1097 -0.3973  1.8842
  166MOL0     H22398   4.110   6.993   5.972 -0.2554  1.9897 -0.0193
  166MOL0     H22399   4.293   7.160   5.963  0.3974 -0.1222 -1.4799
  166MOL0     H22400   4.741   7.169   5.900 -1.9546  2.4889 -0.8121
  166MOL0     H22401   4.705   7.018   5.842  0.3789 -0.1081  0.3116
  166MOL0     H22402   4.517   7.128   5.691  0.5981 -2.9503  2.7440
  166MOL0     H22403   4.691   7.126   5.651 -0.7848  0.4529 -0.7176
  166MOL0     H22404   4.700   7.367   5.769  0.8148  3.5639 -2.7344
  166MOL0     H22405   4.525   7.357   5.762  0.1754 -2.6214  0.3271
  166MOL0     H22406   4.534   7.336   5.521  0.8393 -1.5289 -0.8197
  166MOL0     H22407   4.708   7.323   5.516 -0.2575  0.0457 -1.1645
  166MOL0     H22408   4.675   7.741   5.572 -1.3701 -0.7568  1.8292
  166MOL0     H22409   4.576   6.837   5.914 -0.3733 -2.8141  5.4775
  166MOL0     H22410   4.394   6.687   5.868 -0.8695 -0.5095  2.7020
  167MOL0     O22411   0.319   5.992   0.539  0.0275 -0.3474  0.6111
  167MOL0     C22412   0.323   5.930   0.641 -0.2849 -0.8969 -0.2642
  167MOL0     O22413   0.432   5.856   0.687 -0.1146  0.3076 -0.5102
  167MOL0     C22414   0.549   5.834   0.626 -0.2576  0.7686  0.8580
  167MOL0     C22415   0.609   5.901   0.523  0.2048  0.0659  0.1006
  167MOL0     C22416   0.744   5.876   0.487  0.3630  0.2525 -0.0420
  167MOL0     C22417   0.806   5.764   0.529 -0.5383  0.2088 -1.3602
  167MOL0     O22418   0.932   5.729   0.479  0.2355  0.1156 -0.2739
  167MOL0     C22419   1.016   5.629   0.544 -0.3398 -0.0466 -0.2982
  167MOL0     C22420   1.150   5.619   0.485 -1.0782  0.9661 -0.5322
  167MOL0     C22421   1.222   5.492   0.538  0.5934  0.0647  0.1918
  167MOL0     C22422   1.362   5.485   0.483 -0.0265 -0.0920 -0.5774
  167MOL0     C22423   1.419   5.342   0.520 -0.5961  0.2693  0.0171
  167MOL0     C22424   1.569   5.321   0.485 -0.5008  0.8334 -0.0586
  167MOL0     C22425   1.606   5.167   0.460 -0.3297  1.0150 -0.6018
  167MOL0     C22426   1.753   5.139   0.466  0.5430 -0.1080 -0.1658
  167MOL0     N22427   1.771   4.994   0.481 -0.5513 -0.8373 -0.7865
  167MOL0     C22428   1.745   4.926   0.597 -0.2065 -0.0920 -0.5876
  167MOL0     C22429   1.759   4.793   0.578 -0.1902 -0.4329  0.5949
  167MOL0     C22430   1.715   4.697   0.682 -0.3566 -0.6943 -0.6192
  167MOL0     C22431   1.798   4.710   0.818  0.0110  0.7198 -0.3934
  167MOL0     C22432   1.887   4.594   0.858 -0.9805  0.8784 -0.6880
  167MOL0     C22433   2.016   4.641   0.922  0.0008 -0.1961  0.4259
  167MOL0     O22434   1.994   4.711   1.042 -0.8123 -0.2228 -0.3937
  167MOL0     C22435   1.952   4.643   1.158  0.2695 -0.2801 -0.5663
  167MOL0     C22436   1.909   4.728   1.265 -0.2067 -0.0284  0.1383
  167MOL0     C22437   1.886   4.679   1.390  0.4983  1.3539 -0.3248
  167MOL0     C22438   1.869   4.785   1.500 -0.6684 -0.8357  0.8364
  167MOL0     C22439   1.874   4.536   1.416 -0.4813  0.8794  0.1865
  167MOL0     C22440   1.846   4.480   1.547  0.8819  0.9819 -0.2959
  167MOL0     O22441   1.906   4.362   1.560 -0.0322  0.1848  0.0980
  167MOL0     C22442   1.894   4.299   1.686  0.8396 -0.2168 -0.5873
  167MOL0     C22443   1.988   4.323   1.788  0.3566 -0.3981 -0.4873
  167MOL0     C22444   1.981   4.244   1.910 -0.5053 -0.3515 -0.1309
  167MOL0     C22445   1.884   4.141   1.923 -0.0753 -0.6918  0.0992
  167MOL0     O22446   1.877   4.079   2.045  0.1080 -0.5518  0.7698
  167MOL0     C22447   1.823   3.941   2.057 -0.1157 -0.7372  0.2004
  167MOL0     C22448   1.859   3.921   2.210  0.1009 -0.1367  0.1607
  167MOL0     C22449   1.810   3.791   2.265 -0.1035 -0.1974 -0.3432
  167MOL0     C22450   1.659   3.772   2.264 -0.7011  0.4549  0.1715
  167MOL0     C22451   1.614   3.622   2.287  0.4074 -0.9389 -0.4545
  167MOL0     C22452   1.661   3.522   2.180  0.6626  0.0727  0.1389
  167MOL0     C22453   1.573   3.394   2.198 -0.9970 -1.4451 -0.1407
  167MOL0     C22454   1.600   3.312   2.324 -0.5942  0.0953 -0.6736
  167MOL0    Cl22455   1.503   3.368   2.457 -0.2093 -0.4150  0.6158
  167MOL0     C22456   1.791   4.108   1.820 -0.3033 -0.6977  0.1258
  167MOL0     C22457   1.795   4.190   1.706  0.3835 -0.1721  0.7401
  167MOL0     O22458   1.765   4.531   1.623 -0.9525 -0.4582  0.3329
  167MOL0     C22459   1.924   4.458   1.304 -0.6594 -0.2319  0.2098
  167MOL0     C22460   1.955   4.509   1.180  0.1023  0.6203  0.5438
  167MOL0     N22461   1.806   4.787   0.446  1.1273  0.0816  0.0134
  167MOL0     N22462   1.808   4.899   0.392 -0.1012 -0.5465 -0.2488
  167MOL0     C22463   0.741   5.689   0.631  0.5937  0.0481 -0.1246
  167MOL0     C22464   0.621   5.722   0.681  0.2142 -0.9250  0.4161
  167MOL0     C22465   0.201   5.936   0.736 -0.3355 -0.4003  0.5454
  167MOL0     C22466   0.183   5.853   0.847 -0.8604 -0.3607  0.9177
  167MOL0     C22467   0.074   5.870   0.929 -0.0503  0.1050 -0.5400
  167MOL0     C22468  -0.022   5.962   0.910  0.3449  0.7766 -0.2308
  167MOL0     O22469  -0.133   5.951   0.993 -0.5922 -1.1108 -0.1311
  167MOL0     C22470  -0.255   6.017   0.953  0.2556 -0.3869  0.6002
  167MOL0     C22471  -0.349   6.007   1.075 -0.1063 -0.4347  1.1874
  167MOL0     C22472  -0.501   6.030   1.023  0.3311 -0.1753  0.2111
  167MOL0     C22473  -0.586   5.965   1.134 -0.3211 -0.0962  0.2867
  167MOL0     C22474  -0.717   5.944   1.068  0.2853 -0.9292  0.0972
  167MOL0     C22475  -0.820   5.925   1.016  0.3674  0.0653  0.6766
  167MOL0     C22476  -0.005   6.055   0.803 -0.5125  0.7723 -0.6144
  167MOL0     C22477   0.104   6.045   0.712 -0.7043 -0.5067 -0.1729
  167MOL0     H22478   0.562   5.986   0.473 -2.3124 -2.5984 -2.5293
  167MOL0     H22479   0.790   5.946   0.418 -1.0882 -0.0521 -1.3601
  167MOL0     H22480   1.018   5.669   0.645 -2.7132  0.3942 -0.3614
  167MOL0     H22481   0.972   5.529   0.554 -0.7707  0.1559 -0.1573
  167MOL0     H22482   1.138   5.625   0.376 -3.9768  1.3532 -0.2711
  167MOL0     H22483   1.208   5.708   0.512  2.3262 -1.6683  1.7221
  167MOL0     H22484   1.215   5.499   0.647 -1.2898  1.1614  0.0411
  167MOL0     H22485   1.166   5.405   0.504 -0.5360  0.4744  0.9572
  167MOL0     H22486   1.361   5.491   0.374 -1.7556  1.6036 -0.5195
  167MOL0     H22487   1.430   5.565   0.514 -0.9508  0.1917  0.7784
  167MOL0     H22488   1.392   5.333   0.626 -0.5901  0.1944  0.0116
  167MOL0     H22489   1.357   5.271   0.465 -0.9227 -0.2766  1.0667
  167MOL0     H22490   1.588   5.379   0.394 -3.7717  1.4981 -0.4174
  167MOL0     H22491   1.629   5.370   0.562  1.0435  1.5356 -1.6247
  167MOL0     H22492   1.558   5.110   0.540  2.3905 -0.8482 -0.1607
  167MOL0     H22493   1.565   5.134   0.364 -1.0597  0.9366 -0.2692
  167MOL0     H22494   1.800   5.183   0.554 -1.0341  0.8886  0.2283
  167MOL0     H22495   1.803   5.192   0.385  0.7758  1.1985  0.8073
  167MOL0     H22496   1.690   4.960   0.684 -0.4143  1.3552 -1.2645
  167MOL0     H22497   1.611   4.717   0.708  0.6820  3.8561  0.9289
  167MOL0     H22498   1.719   4.597   0.639  1.6650  0.3069 -3.0252
  167MOL0     H22499   1.729   4.728   0.900 -0.7464  0.8050 -1.0401
  167MOL0     H22500   1.860   4.800   0.806  0.8133  0.1938 -0.2504
  167MOL0     H22501   1.925   4.533   0.775  1.2328 -0.5216  1.2368
  167MOL0     H22502   1.835   4.520   0.921 -0.0911  0.1571 -0.7764
  167MOL0     H22503   2.050   4.716   0.850 -3.4936  1.7109  0.5573
  167MOL0     H22504   2.087   4.558   0.932 -2.3096 -2.4354 -0.5761
  167MOL0     H22505   1.904   4.835   1.249  1.2973 -0.1468 -1.4879
  167MOL0     H22506   1.924   4.773   1.594  0.2777 -0.9097  0.2838
  167MOL0     H22507   1.896   4.887   1.471 -2.7801 -0.5859 -0.4343
  167MOL0     H22508   1.768   4.800   1.539 -0.9394  1.6159 -0.5925
  167MOL0     H22509   2.067   4.394   1.768 -0.3112 -0.1174 -2.3163
  167MOL0     H22510   2.053   4.261   1.990  0.7877  0.4447 -1.4037
  167MOL0     H22511   1.720   3.936   2.019  0.2074  0.1987 -0.8579
  167MOL0     H22512   1.878   3.876   1.988 -4.0264 -0.0635 -4.0100
  167MOL0     H22513   1.968   3.929   2.223  0.2178 -1.7687  0.4628
  167MOL0     H22514   1.799   3.996   2.262 -1.6859 -0.9073 -0.7070
  167MOL0     H22515   1.856   3.769   2.361  0.3915 -0.0089 -0.5281
  167MOL0     H22516   1.850   3.710   2.203  2.3977  2.0270 -1.8677
  167MOL0     H22517   1.608   3.848   2.325 -0.7263  1.7332 -1.3838
  167MOL0     H22518   1.630   3.788   2.160  1.5812 -0.1940 -0.5996
  167MOL0     H22519   1.504   3.616   2.290  0.2829  1.0588  1.2210
  167MOL0     H22520   1.652   3.596   2.386 -1.6612 -1.3779  0.2784
  167MOL0     H22521   1.666   3.573   2.084  0.8714  3.3677  1.7534
  167MOL0     H22522   1.761   3.482   2.202 -0.0127 -4.0625 -3.0585
  167MOL0     H22523   1.597   3.330   2.112  1.3822  0.0030 -0.6668
  167MOL0     H22524   1.467   3.420   2.196 -0.8832 -0.2001  3.3599
  167MOL0     H22525   1.703   3.315   2.360 -0.8245  0.2337 -0.0076
  167MOL0     H22526   1.580   3.205   2.317 -0.2541 -0.2620  2.2870
  167MOL0     H22527   1.724   4.022   1.827 -1.4155  0.1505  0.1952
  167MOL0     H22528   1.728   4.165   1.624  0.9064 -0.9472  0.5408
  167MOL0     H22529   1.937   4.353   1.327 -3.4848 -0.7576 -0.3057
  167MOL0     H22530   2.007   4.453   1.103 -0.3147  0.0496  0.6716
  167MOL0     H22531   0.798   5.609   0.678  1.9983  0.7117 -0.6533
  167MOL0     H22532   0.566   5.682   0.766 -1.9276  3.5010  1.4365
  167MOL0     H22533   0.255   5.772   0.858  0.6196  0.5020 -1.6109
  167MOL0     H22534   0.072   5.808   1.018  0.4640 -1.2464 -1.4434
  167MOL0     H22535  -0.236   6.122   0.931  1.0631 -0.5996  0.2303
  167MOL0     H22536  -0.293   5.968   0.862 -0.2384  1.1933 -0.0722
  167MOL0     H22537  -0.315   6.086   1.143  0.1335 -1.1985  1.9601
  167MOL0     H22538  -0.342   5.909   1.122  1.2984 -1.1018 -0.3427
  167MOL0     H22539  -0.510   5.979   0.927  2.3956 -1.7506  0.7648
  167MOL0     H22540  -0.532   6.131   0.996 -1.1222 -0.4938  0.5945
  167MOL0     H22541  -0.589   6.021   1.228  0.5892 -2.4608  1.7852
  167MOL0     H22542  -0.553   5.867   1.168  3.5140 -0.3017 -3.1649
  167MOL0     H22543  -0.908   5.884   0.970  1.5482 -0.2415 -1.4715
  167MOL0     H22544  -0.082   6.132   0.790 -2.3203 -0.8071  0.2907
  167MOL0     H22545   0.118   6.109   0.626 -2.4652  0.2766  0.0835
  168MOL0     O22546   2.266   1.509   6.672 -0.3470  0.5060 -0.2313
  168MOL0     C22547   2.176   1.446   6.725  0.9580  0.1060 -0.6349
  168MOL0     O22548   2.049   1.507   6.748  0.1809  0.1302 -0.8345
  168MOL0     C22549   2.034   1.646   6.753  0.5107  0.0071  0.3254
  168MOL0     C22550   1.921   1.706   6.698 -0.8514 -0.1301 -0.6254
  168MOL0     C22551   1.912   1.845   6.690 -0.1068  0.3062 -0.5498
  168MOL0     C22552   2.013   1.923   6.742  0.4761 -0.8379  0.5142
  168MOL0     O22553   1.989   2.059   6.732  0.0611 -0.0137  0.2470
  168MOL0     C22554   2.080   2.165   6.752 -0.5120 -0.1929 -0.0577
  168MOL0     C22555   2.193   2.185   6.654  0.6318 -0.0310 -0.2512
  168MOL0     C22556   2.278   2.316   6.684  0.0037 -0.1184 -0.1625
  168MOL0     C22557   2.357   2.358   6.554 -0.7990 -0.6596 -0.5390
  168MOL0     C22558   2.450   2.485   6.581 -0.3381  0.4481 -0.1220
  168MOL0     C22559   2.519   2.525   6.450  0.1223  0.0033 -0.8507
  168MOL0     C22560   2.572   2.661   6.481  0.3065  0.3431 -0.0657
  168MOL0     C22561   2.638   2.718   6.352 -0.0481  0.1958  0.5718
  168MOL0     N22562   2.674   2.855   6.373 -0.2154  0.2858  0.8547
  168MOL0     C22563   2.613   2.971   6.400  0.8069 -0.9691 -0.1557
  168MOL0     C22564   2.701   3.071   6.428 -0.5621  0.6098  0.3133
  168MOL0     C22565   2.671   3.216   6.454 -0.2206 -0.7869  0.9321
  168MOL0     C22566   2.635   3.271   6.313 -0.1858 -0.1635  0.3161
  168MOL0     C22567   2.641   3.424   6.297 -0.1798 -0.2345  0.8561
  168MOL0     C22568   2.540   3.500   6.382  0.3826 -0.2636 -0.4385
  168MOL0     O22569   2.587   3.492   6.521  0.1778  0.3669  0.3230
  168MOL0     C22570   2.507   3.560   6.610  0.0885  0.5699  0.2008
  168MOL0     C22571   2.566   3.602   6.724 -0.3649 -0.1389 -0.6045
  168MOL0     C22572   2.494   3.663   6.829 -0.9256  0.4299  0.8034
  168MOL0     C22573   2.572   3.722   6.943  0.6189  0.0756 -0.1943
  168MOL0     C22574   2.358   3.660   6.824 -0.4464 -0.0281 -0.8385
  168MOL0     C22575   2.264   3.724   6.935 -0.2141  0.6691  0.2780
  168MOL0     O22576   2.156   3.787   6.891  0.4525  0.2553  0.6087
  168MOL0     C22577   2.129   3.911   6.943  0.2729  0.1910 -0.9585
  168MOL0     C22578   2.054   3.997   6.864 -0.5624 -0.3444  0.6809
  168MOL0     C22579   2.037   4.131   6.911 -0.7278 -0.9865 -0.0217
  168MOL0     C22580   2.085   4.182   7.026 -0.6382  1.3633  0.2818
  168MOL0     O22581   2.064   4.319   7.045  0.8527  0.4163  0.2865
  168MOL0     C22582   2.053   4.366   7.178 -0.4013 -0.2126  0.6758
  168MOL0     C22583   1.999   4.513   7.180  0.0360 -0.6673 -0.0017
  168MOL0     C22584   1.944   4.566   7.317 -1.1369 -0.1608 -0.2117
  168MOL0     C22585   1.825   4.662   7.295 -0.1025  0.0896  0.1229
  168MOL0     C22586   1.732   4.658   7.425 -1.0216  0.0847 -0.5412
  168MOL0     C22587   1.624   4.776   7.430 -0.6809  0.2907 -0.0707
  168MOL0     C22588   1.506   4.752   7.326 -0.5717 -0.6249 -1.0524
  168MOL0     C22589   1.410   4.645   7.358 -0.4569 -0.0049  0.0410
  168MOL0    Cl22590   1.280   4.646   7.244  0.1751 -0.1687 -0.3431
  168MOL0     C22591   2.174   4.095   7.095 -0.4582 -0.8098 -0.0502
  168MOL0     C22592   2.199   3.968   7.057  0.7996  0.2965 -0.1211
  168MOL0     O22593   2.296   3.696   7.048 -0.1204 -0.0272  0.6302
  168MOL0     C22594   2.296   3.614   6.705 -0.1968 -0.4944  0.4998
  168MOL0     C22595   2.364   3.577   6.594  0.3850  0.1019 -0.3271
  168MOL0     N22596   2.820   3.004   6.413  0.6317 -0.7970  0.1550
  168MOL0     N22597   2.803   2.882   6.390  0.2260 -0.0819 -0.4939
  168MOL0     C22598   2.130   1.869   6.791 -0.1159  0.6230 -0.6053
  168MOL0     C22599   2.141   1.728   6.789 -0.1989  0.2818  0.2213
  168MOL0     C22600   2.202   1.321   6.804 -0.7818 -0.7316 -0.0525
  168MOL0     C22601   2.324   1.256   6.787  0.4719 -0.3724 -0.5180
  168MOL0     C22602   2.353   1.142   6.861 -0.1471 -0.3162 -0.1660
  168MOL0     C22603   2.258   1.092   6.944  0.6386 -0.5796 -0.2698
  168MOL0     O22604   2.259   0.970   7.003 -0.1303 -0.7164 -0.6446
  168MOL0     C22605   2.378   0.894   7.001 -0.7194  0.8207  0.1930
  168MOL0     C22606   2.359   0.751   7.054 -0.4103  0.1918 -0.4098
  168MOL0     C22607   2.332   0.763   7.204 -0.0293  0.8106 -0.0578
  168MOL0     C22608   2.287   0.637   7.272 -0.0090 -0.1572 -0.0504
  168MOL0     C22609   2.386   0.522   7.265  1.1594  0.1728 -0.0236
  168MOL0     C22610   2.468   0.438   7.283 -0.5800  0.2622 -0.4937
  168MOL0     C22611   2.130   1.160   6.961  0.0997  0.4245  0.4913
  168MOL0     C22612   2.101   1.278   6.891 -1.1602 -0.6408  0.5090
  168MOL0     H22613   1.836   1.658   6.649 -2.3221  2.3178 -0.6144
  168MOL0     H22614   1.825   1.900   6.654 -0.9107  0.9688  2.1568
  168MOL0     H22615   2.023   2.258   6.755  1.9789  1.4254  1.5338
  168MOL0     H22616   2.130   2.153   6.849 -3.8222  0.2749  1.8355
  168MOL0     H22617   2.256   2.096   6.654 -1.4323 -1.6028 -1.8056
  168MOL0     H22618   2.146   2.184   6.555 -0.5785 -3.3598  0.2336
  168MOL0     H22619   2.207   2.387   6.728  1.1693 -0.2868  2.1498
  168MOL0     H22620   2.358   2.291   6.754  0.9414 -0.5234 -1.3534
  168MOL0     H22621   2.415   2.273   6.518 -0.7252 -0.5302 -0.7272
  168MOL0     H22622   2.290   2.385   6.472 -3.0162  1.5650  1.7989
  168MOL0     H22623   2.392   2.563   6.631  0.1686 -0.7313  2.4844
  168MOL0     H22624   2.525   2.460   6.656 -0.5165  0.7017  0.1393
  168MOL0     H22625   2.602   2.456   6.433 -0.5284 -1.3482  1.0649
  168MOL0     H22626   2.452   2.533   6.364  2.7613 -0.2797 -3.0738
  168MOL0     H22627   2.501   2.737   6.515 -0.3997  1.2177 -3.1718
  168MOL0     H22628   2.653   2.636   6.550 -1.4150 -1.1868  1.4968
  168MOL0     H22629   2.563   2.707   6.273 -0.6667  0.4060  1.1179
  168MOL0     H22630   2.732   2.667   6.328  1.2736  1.7011  2.2601
  168MOL0     H22631   2.511   3.005   6.391  1.0541 -0.3888 -0.8361
  168MOL0     H22632   2.577   3.230   6.508 -1.1807  3.3197 -1.3553
  168MOL0     H22633   2.751   3.272   6.502 -0.6920  0.4415  0.3204
  168MOL0     H22634   2.536   3.239   6.280  0.7811 -0.4441 -2.6253
  168MOL0     H22635   2.703   3.220   6.244 -0.1014  0.1205  0.1839
  168MOL0     H22636   2.619   3.456   6.195 -1.7284  0.2946  1.3194
  168MOL0     H22637   2.742   3.448   6.332  0.1925 -1.0578  0.3535
  168MOL0     H22638   2.442   3.451   6.384  1.1276 -1.7754 -0.3699
  168MOL0     H22639   2.539   3.606   6.356  0.2289  0.1391  1.0659
  168MOL0     H22640   2.672   3.582   6.736 -0.4851 -0.8900 -0.6997
  168MOL0     H22641   2.672   3.754   6.912 -0.6164  3.1938 -1.4766
  168MOL0     H22642   2.523   3.817   6.969 -0.8903 -0.6064 -0.4099
  168MOL0     H22643   2.570   3.660   7.033  0.2437 -2.6695 -1.9724
  168MOL0     H22644   2.017   3.947   6.776  3.1383  0.5265 -1.6228
  168MOL0     H22645   1.974   4.198   6.854  0.7211  1.0394  0.6342
  168MOL0     H22646   1.984   4.300   7.232 -1.6830 -2.5462 -3.4258
  168MOL0     H22647   2.151   4.368   7.228 -0.3104  0.8647  0.4756
  168MOL0     H22648   2.074   4.581   7.139  0.6902  0.1582  2.4084
  168MOL0     H22649   1.922   4.516   7.101  0.7849  0.3888 -0.7148
  168MOL0     H22650   2.025   4.619   7.368  2.7081 -3.2078 -2.6305
  168MOL0     H22651   1.911   4.482   7.378  0.1218  0.3504  1.2407
  168MOL0     H22652   1.858   4.767   7.297  0.0059  0.0835 -0.8832
  168MOL0     H22653   1.757   4.642   7.212  1.3493  0.0894 -1.1222
  168MOL0     H22654   1.803   4.664   7.508  0.4476  2.3961 -1.8812
  168MOL0     H22655   1.693   4.556   7.439 -1.3112  0.1294 -1.0196
  168MOL0     H22656   1.579   4.776   7.530  1.1267  1.2230  0.7897
  168MOL0     H22657   1.666   4.876   7.419 -0.3372  0.1011 -0.4888
  168MOL0     H22658   1.554   4.739   7.229  1.8930 -2.2253  0.2834
  168MOL0     H22659   1.454   4.848   7.329  1.2156  0.6197 -4.3221
  168MOL0     H22660   1.368   4.649   7.459 -3.0931 -4.5919 -0.5734
  168MOL0     H22661   1.446   4.542   7.361 -1.7405 -0.4987  3.1178
  168MOL0     H22662   2.235   4.133   7.177  0.2056  1.1552 -1.4104
  168MOL0     H22663   2.265   3.911   7.122  0.4062 -1.2638 -1.0483
  168MOL0     H22664   2.187   3.614   6.706 -0.2838  0.3810 -2.0053
  168MOL0     H22665   2.309   3.548   6.505  0.2299  0.7921 -0.4684
  168MOL0     H22666   2.210   1.923   6.842 -1.9870  2.3763  0.6321
  168MOL0     H22667   2.232   1.687   6.832 -2.5836 -3.0925  2.5486
  168MOL0     H22668   2.405   1.295   6.725 -0.1533  0.9738 -0.5290
  168MOL0     H22669   2.450   1.094   6.853 -1.0132 -3.5756  4.6112
  168MOL0     H22670   2.414   0.889   6.898  2.7434 -0.8317  1.3259
  168MOL0     H22671   2.463   0.942   7.050 -0.6299  2.9804 -1.8944
  168MOL0     H22672   2.452   0.696   7.036  0.8959  1.9234  0.7480
  168MOL0     H22673   2.276   0.711   6.996  0.0043 -1.6800  0.2348
  168MOL0     H22674   2.256   0.842   7.210 -0.3491  0.4063  1.5892
  168MOL0     H22675   2.423   0.787   7.258  0.3253 -0.9386  0.1743
  168MOL0     H22676   2.184   0.614   7.244 -0.1268 -1.4565  1.2804
  168MOL0     H22677   2.281   0.669   7.377  0.2498  1.6225 -0.5526
  168MOL0     H22678   2.549   0.375   7.316  0.2032  1.4269 -0.1407
  168MOL0     H22679   2.053   1.118   7.025 -1.3380  1.5901 -0.3968
  168MOL0     H22680   2.004   1.327   6.903 -0.9758 -0.5862  1.9342
  169MOL0     O22681   6.664   9.718   2.403  0.0652 -0.5631 -0.4308
  169MOL0     C22682   6.710   9.606   2.431  0.0545  0.0634  0.5089
  169MOL0     O22683   6.830   9.548   2.396 -0.6108 -0.5741  0.0320
  169MOL0     C22684   6.940   9.616   2.350 -0.1218  0.3187 -0.4942
  169MOL0     C22685   7.040   9.530   2.312 -1.2728 -0.1053  0.0353
  169MOL0     C22686   7.168   9.571   2.266 -0.6510  0.4440 -0.6112
  169MOL0     C22687   7.186   9.711   2.243  0.0963  0.6417  0.3667
  169MOL0     O22688   7.295   9.771   2.191  0.3972  0.0459  0.6818
  169MOL0     C22689   7.339   9.701   2.076 -0.4949  0.5123  0.0696
  169MOL0     C22690   7.447   9.773   2.008  0.2634 -0.4996  0.5004
  169MOL0     C22691   7.580   9.734   2.073  0.0816  0.4907 -0.6554
  169MOL0     C22692   7.687   9.790   1.986 -1.5107  0.6853 -0.3673
  169MOL0     C22693   7.817   9.717   2.016 -0.5651  0.0165 -0.3680
  169MOL0     C22694   7.895   9.763   2.144  0.3217 -0.9632 -0.2336
  169MOL0     C22695   7.976   9.639   2.199  1.4528  0.1021 -0.0102
  169MOL0     C22696   8.047   9.685   2.323  0.9493  0.2632 -0.1245
  169MOL0     N22697   8.139   9.584   2.386  0.4096 -0.6876  1.0066
  169MOL0     C22698   8.278   9.585   2.365 -0.1375  0.5296 -0.3250
  169MOL0     C22699   8.311   9.476   2.427 -0.2113 -1.1263  0.2423
  169MOL0     C22700   8.457   9.442   2.439 -0.1454  0.4844  0.5675
  169MOL0     C22701   8.530   9.568   2.495 -0.3241  0.1182  0.1277
  169MOL0     C22702   8.676   9.548   2.543  0.0779  0.1757  0.3733
  169MOL0     C22703   8.781   9.504   2.438  0.1592  0.7400  0.1835
  169MOL0     O22704   8.908   9.495   2.510 -0.6902 -0.1930  0.9475
  169MOL0     C22705   9.026   9.441   2.451  0.3008  0.1082  1.0213
  169MOL0     C22706   9.131   9.423   2.534  0.1718 -0.4685 -0.0749
  169MOL0     C22707   9.253   9.374   2.487 -0.8684  0.0459 -1.1602
  169MOL0     C22708   9.373   9.382   2.573 -0.0319  0.3732 -0.1818
  169MOL0     C22709   9.267   9.318   2.360  0.4224  0.7622  1.3711
  169MOL0     C22710   9.385   9.245   2.302 -0.1874 -0.1297 -0.2932
  169MOL0     O22711   9.508   9.285   2.327  0.2378 -0.1031 -0.1084
  169MOL0     C22712   9.625   9.233   2.266 -0.3231 -0.1505 -0.0251
  169MOL0     C22713   9.628   9.170   2.133  0.1936 -0.7126  0.9285
  169MOL0     C22714   9.753   9.131   2.085  0.1483  0.4749 -0.4659
  169MOL0     C22715   9.873   9.147   2.148 -1.1372  0.0173 -0.8831
  169MOL0     O22716   9.997   9.132   2.088  0.8369  0.0326 -0.8112
  169MOL0     C22717   9.994   9.029   1.988 -0.1288  1.0431  0.8293
  169MOL0     C22718  10.127   8.961   1.967  0.5200 -0.9090 -0.7649
  169MOL0     C22719  10.235   9.062   1.908 -0.2494  0.2678  0.5247
  169MOL0     C22720  10.341   8.979   1.831  0.0565 -0.4995 -1.0978
  169MOL0     C22721  10.457   9.086   1.800 -0.0852  0.1030 -0.3055
  169MOL0     C22722  10.569   9.028   1.721 -0.5898  0.2604  0.7768
  169MOL0     C22723  10.638   8.922   1.809 -0.5253 -0.0901  1.2031
  169MOL0     C22724  10.759   8.845   1.733 -0.2455 -0.2256  0.1557
  169MOL0    Cl22725  10.844   8.724   1.831 -0.5539  0.7175 -0.6150
  169MOL0     C22726   9.864   9.194   2.278  0.5527  0.0600 -0.0497
  169MOL0     C22727   9.748   9.248   2.329 -0.3670 -0.4602  0.3102
  169MOL0     O22728   9.360   9.150   2.226  0.2011 -0.4045  0.4831
  169MOL0     C22729   9.159   9.334   2.274  0.2167 -0.6402  0.6133
  169MOL0     C22730   9.047   9.401   2.312 -0.1462  0.3904  0.4586
  169MOL0     N22731   8.202   9.401   2.453  0.1229  0.4976 -0.3324
  169MOL0     N22732   8.093   9.465   2.431 -0.2485 -1.2690 -0.1495
  169MOL0     C22733   7.089   9.798   2.291  0.3209 -0.2836  0.2091
  169MOL0     C22734   6.964   9.752   2.348 -0.2135 -0.6706  0.8342
  169MOL0     C22735   6.614   9.524   2.515  0.8252 -0.1137 -0.2961
  169MOL0     C22736   6.489   9.567   2.557  0.1544  0.2356  0.2129
  169MOL0     C22737   6.393   9.476   2.609 -1.0409 -0.8691  0.9901
  169MOL0     C22738   6.439   9.348   2.646  0.3231  0.4066 -0.2930
  169MOL0     O22739   6.360   9.261   2.699  0.6758  0.1511  0.0999
  169MOL0     C22740   6.234   9.225   2.639  0.4392 -0.7372  0.7678
  169MOL0     C22741   6.204   9.078   2.665  0.1695  0.6458 -0.2134
  169MOL0     C22742   6.316   8.974   2.623  0.1391  0.3579 -0.3741
  169MOL0     C22743   6.380   9.000   2.487  0.0515 -0.0931  0.4922
  169MOL0     C22744   6.280   8.988   2.380  0.5829  0.0217  0.1742
  169MOL0     C22745   6.191   8.971   2.299  0.5416 -0.1651  0.7123
  169MOL0     C22746   6.565   9.304   2.617 -0.3223 -0.6028  0.9584
  169MOL0     C22747   6.652   9.391   2.545  0.5035 -0.1070  0.2425
  169MOL0     H22748   7.028   9.423   2.322 -1.5546 -0.1617 -0.8639
  169MOL0     H22749   7.241   9.494   2.242  0.1709  2.1564 -4.3275
  169MOL0     H22750   7.364   9.599   2.106  0.0831  0.7458  0.4111
  169MOL0     H22751   7.265   9.685   1.998  0.0332 -1.1065 -0.1365
  169MOL0     H22752   7.444   9.747   1.902  2.7030  0.9737 -0.0174
  169MOL0     H22753   7.444   9.883   2.016  4.9295  0.1849 -3.0232
  169MOL0     H22754   7.586   9.763   2.178  1.3154  2.1194 -1.1468
  169MOL0     H22755   7.583   9.624   2.066 -1.1804  0.4070 -0.0278
  169MOL0     H22756   7.664   9.773   1.881  0.0840 -3.3265 -0.2300
  169MOL0     H22757   7.709   9.897   1.995  2.7229 -0.0400 -0.1424
  169MOL0     H22758   7.796   9.610   2.027  5.0806 -1.2147  1.7224
  169MOL0     H22759   7.883   9.731   1.930  0.1057  1.9188  0.3925
  169MOL0     H22760   7.959   9.848   2.118 -0.1201 -0.1031  1.3633
  169MOL0     H22761   7.833   9.814   2.218 -0.1359 -1.0374 -0.5682
  169MOL0     H22762   7.909   9.557   2.230 -1.5874  1.5074 -2.3985
  169MOL0     H22763   8.038   9.599   2.118  1.4560  1.2794 -0.6047
  169MOL0     H22764   7.965   9.704   2.392 -0.0355 -0.7550 -0.9705
  169MOL0     H22765   8.108   9.768   2.285  3.6757 -2.5295 -2.4247
  169MOL0     H22766   8.340   9.663   2.321 -1.6469  2.2449  0.4420
  169MOL0     H22767   8.468   9.360   2.511 -1.0967 -1.1170 -1.0187
  169MOL0     H22768   8.499   9.391   2.351 -3.6642 -1.8519  0.0152
  169MOL0     H22769   8.477   9.609   2.582 -3.3169  2.0003 -2.3883
  169MOL0     H22770   8.525   9.643   2.416 -0.7821 -1.7855 -1.7528
  169MOL0     H22771   8.679   9.479   2.628 -1.1210 -0.8516 -0.3710
  169MOL0     H22772   8.712   9.639   2.591  1.1012 -0.2907  0.5213
  169MOL0     H22773   8.772   9.551   2.339 -1.4760 -1.9790 -1.1029
  169MOL0     H22774   8.769   9.399   2.409  0.9574  0.8079 -0.4539
  169MOL0     H22775   9.115   9.452   2.637  1.3658  0.7199 -0.1944
  169MOL0     H22776   9.348   9.434   2.666 -2.0844  2.2276 -1.6586
  169MOL0     H22777   9.415   9.285   2.599 -0.0248  0.1028 -1.1618
  169MOL0     H22778   9.455   9.438   2.525  0.9314 -0.4837  0.4339
  169MOL0     H22779   9.543   9.184   2.067  2.6559  2.3417 -1.9581
  169MOL0     H22780   9.770   9.105   1.981 -0.5947  0.4642 -0.5865
  169MOL0     H22781   9.930   8.947   2.021  0.4263  0.0811 -0.4404
  169MOL0     H22782   9.962   9.075   1.894  0.3244  2.3514  1.2797
  169MOL0     H22783  10.162   8.925   2.064  2.3099  0.4246 -0.8458
  169MOL0     H22784  10.102   8.878   1.901 -4.2796  0.6919 -1.3527
  169MOL0     H22785  10.277   9.121   1.989 -0.6983 -0.4890  1.3334
  169MOL0     H22786  10.200   9.150   1.854 -1.1950  0.6515  1.7000
  169MOL0     H22787  10.376   8.900   1.899 -0.1128 -0.0343 -0.4649
  169MOL0     H22788  10.301   8.936   1.739 -0.3730  0.5017 -1.3878
  169MOL0     H22789  10.499   9.131   1.890  1.1306 -1.4151 -0.0730
  169MOL0     H22790  10.414   9.166   1.739  0.5950  0.4972 -0.2697
  169MOL0     H22791  10.532   8.979   1.630  2.0543  0.5498 -0.5669
  169MOL0     H22792  10.640   9.105   1.689 -0.5261  0.3941  1.2337
  169MOL0     H22793  10.573   8.838   1.838 -2.8445  1.4051  0.6431
  169MOL0     H22794  10.685   8.970   1.896  4.2288  0.3679 -1.2979
  169MOL0     H22795  10.827   8.925   1.703  0.3719  0.3446  2.8203
  169MOL0     H22796  10.709   8.790   1.653  1.0067 -2.1644  0.6445
  169MOL0     H22797   9.961   9.215   2.320  0.6296  0.8520 -0.6020
  169MOL0     H22798   9.755   9.313   2.415  1.7880 -0.0440 -0.1028
  169MOL0     H22799   9.163   9.302   2.170 -0.3446  2.6724 -0.5336
  169MOL0     H22800   8.957   9.415   2.252 -0.9033  1.8959  1.8545
  169MOL0     H22801   7.104   9.905   2.278 -0.6360  0.0454  1.5332
  169MOL0     H22802   6.889   9.823   2.380 -0.8245 -0.2407 -1.4183
  169MOL0     H22803   6.457   9.670   2.545 -2.1530 -0.6344 -1.6972
  169MOL0     H22804   6.294   9.516   2.625  0.2302  4.2028 -1.6630
  169MOL0     H22805   6.155   9.292   2.676 -0.4062 -0.3397 -1.5890
  169MOL0     H22806   6.237   9.253   2.533  2.5315 -0.6299  0.8045
  169MOL0     H22807   6.112   9.049   2.613 -1.3366  0.4989  2.3849
  169MOL0     H22808   6.183   9.075   2.772  3.1742  1.8712  0.5266
  169MOL0     H22809   6.272   8.873   2.623 -0.0884  0.4505  0.8767
  169MOL0     H22810   6.393   8.968   2.699 -0.8910 -0.5160  0.6389
  169MOL0     H22811   6.458   8.926   2.466 -0.4833 -0.5890  0.2221
  169MOL0     H22812   6.426   9.099   2.479  2.0491 -1.0966 -1.9662
  169MOL0     H22813   6.112   8.962   2.227  2.9057  2.1082 -2.4484
  169MOL0     H22814   6.595   9.209   2.660 -0.5085 -1.1331 -0.0715
  169MOL0     H22815   6.747   9.344   2.522  0.7676  0.7687 -0.5486
  170MOL0     O22816  11.453   1.107   1.400 -0.2005 -0.0829  0.0748
  170MOL0     C22817  11.548   1.185   1.383  0.3106 -0.2581  1.6964
  170MOL0     O22818  11.633   1.222   1.469  0.8581 -0.0333 -0.0403
  170MOL0     C22819  11.629   1.159   1.592 -1.5723 -0.0652  0.3610
  170MOL0     C22820  11.623   1.242   1.706  0.3975  0.3443  0.4322
  170MOL0     C22821  11.616   1.184   1.837 -0.8197  0.1525 -0.1893
  170MOL0     C22822  11.627   1.051   1.850 -0.3317  0.6443  1.0136
  170MOL0     O22823  11.654   0.992   1.972  0.3789  0.1100 -0.4317
  170MOL0     C22824  11.551   1.000   2.077 -0.7526  0.1936  0.5338
  170MOL0     C22825  11.610   0.940   2.201  0.0886 -0.8560  0.4174
  170MOL0     C22826  11.514   0.933   2.315 -0.0536  0.2444  0.4202
  170MOL0     C22827  11.585   0.869   2.436  1.3658 -0.0760 -0.7763
  170MOL0     C22828  11.490   0.835   2.556 -0.4460  0.2662  0.5933
  170MOL0     C22829  11.590   0.811   2.676  0.1016  0.4798  0.7452
  170MOL0     C22830  11.505   0.718   2.765  0.1638  0.8404 -0.2311
  170MOL0     C22831  11.524   0.566   2.741  0.2095  0.5231  0.2208
  170MOL0     N22832  11.461   0.478   2.840  0.2972  0.5346 -0.0402
  170MOL0     C22833  11.386   0.371   2.801 -0.1095  0.8085 -0.4543
  170MOL0     C22834  11.372   0.305   2.919  0.4342 -1.2618  0.4692
  170MOL0     C22835  11.293   0.178   2.933  0.6285  0.8382 -0.3275
  170MOL0     C22836  11.392   0.072   2.985  0.1609 -0.6967  0.2007
  170MOL0     C22837  11.302  -0.022   3.063 -0.7279  0.4194  0.7927
  170MOL0     C22838  11.224  -0.119   2.981 -0.5392 -0.1823 -0.1155
  170MOL0     O22839  11.296  -0.179   2.874 -0.2681  0.6887 -0.3344
  170MOL0     C22840  11.251  -0.271   2.787 -0.1102  0.1055  0.5655
  170MOL0     C22841  11.117  -0.321   2.793 -0.6188 -0.4227 -0.2840
  170MOL0     C22842  11.073  -0.421   2.706 -0.0510 -0.3093  1.1148
  170MOL0     C22843  10.934  -0.457   2.687  0.0539  0.7745  0.3352
  170MOL0     C22844  11.170  -0.479   2.614 -0.1753 -0.1997 -0.0001
  170MOL0     C22845  11.139  -0.593   2.516  1.0877  0.2452  0.8130
  170MOL0     O22846  11.245  -0.636   2.443  0.6939 -0.4739 -0.1006
  170MOL0     C22847  11.231  -0.738   2.351 -0.1340 -0.1515 -0.9852
  170MOL0     C22848  11.162  -0.711   2.233  0.3179  0.4031  0.6982
  170MOL0     C22849  11.139  -0.823   2.144 -0.3317  0.0287  0.5591
  170MOL0     C22850  11.171  -0.950   2.182  0.7983  1.2639  0.3444
  170MOL0     O22851  11.120  -1.063   2.114  0.6096  0.0859 -0.0993
  170MOL0     C22852  11.009  -1.046   2.021 -0.3147 -0.2344 -0.6516
  170MOL0     C22853  10.985  -1.179   1.956  0.2976  0.2063  0.1766
  170MOL0     C22854  10.871  -1.182   1.849 -1.0912  0.1777  0.1108
  170MOL0     C22855  10.855  -1.328   1.797  1.1941 -0.0985 -0.6135
  170MOL0     C22856  10.942  -1.366   1.668  0.0019  0.0749  0.2711
  170MOL0     C22857  10.869  -1.469   1.588 -0.2284  0.4856 -0.4139
  170MOL0     C22858  10.872  -1.611   1.648  0.1913 -0.8288  0.1575
  170MOL0     C22859  10.773  -1.718   1.605 -0.2309  0.2981 -0.2091
  170MOL0    Cl22860  10.833  -1.873   1.683  0.2755 -0.0399  0.0155
  170MOL0     C22861  11.252  -0.962   2.285  0.4326 -0.0403 -0.6296
  170MOL0     C22862  11.288  -0.863   2.375  1.5246  0.0122 -0.4406
  170MOL0     O22863  11.032  -0.659   2.522 -0.1757 -0.2784 -0.5687
  170MOL0     C22864  11.295  -0.422   2.607 -0.2049  0.3265 -0.2566
  170MOL0     C22865  11.338  -0.321   2.687 -0.1590  0.3427  0.4501
  170MOL0     N22866  11.433   0.381   3.020  0.1173 -0.4901  0.4371
  170MOL0     N22867  11.499   0.471   2.967 -0.1573 -0.6990 -0.2603
  170MOL0     C22868  11.633   0.967   1.739 -0.6588 -0.7886  0.8287
  170MOL0     C22869  11.634   1.025   1.609 -0.5083  0.4663 -0.0140
  170MOL0     C22870  11.568   1.252   1.249  0.4934  0.1365 -0.9367
  170MOL0     C22871  11.516   1.206   1.127  0.3897  0.5688  0.5090
  170MOL0     C22872  11.533   1.273   1.005 -0.6338 -0.3860 -0.0481
  170MOL0     C22873  11.611   1.395   0.996 -0.6313 -0.0082 -0.1716
  170MOL0     O22874  11.641   1.467   0.889 -0.6159  0.0735  0.1029
  170MOL0     C22875  11.610   1.408   0.760 -0.2783  0.0701  0.7709
  170MOL0     C22876  11.621   1.524   0.663  0.1697 -0.9289 -0.0397
  170MOL0     C22877  11.600   1.473   0.512  0.3559 -0.3558  0.7203
  170MOL0     C22878  11.676   1.563   0.416  0.5977  0.9315 -0.6996
  170MOL0     C22879  11.633   1.541   0.282 -0.0217 -0.8535  0.3686
  170MOL0     C22880  11.589   1.549   0.167  0.0101  0.6194  1.1087
  170MOL0     C22881  11.665   1.443   1.120 -0.1816 -0.3822  0.7820
  170MOL0     C22882  11.635   1.372   1.245 -0.2789 -0.2434 -0.1775
  170MOL0     H22883  11.624   1.351   1.704 -1.5908  0.4070  0.7470
  170MOL0     H22884  11.622   1.253   1.921 -0.9787  0.2647 -0.2688
  170MOL0     H22885  11.514   1.101   2.097  0.5418  0.5852  1.0139
  170MOL0     H22886  11.464   0.945   2.039  0.2451 -1.0509 -0.0013
  170MOL0     H22887  11.638   0.836   2.181  1.4657 -0.9530  2.4863
  170MOL0     H22888  11.696   0.995   2.240 -0.7457 -0.2719  1.4954
  170MOL0     H22889  11.476   1.031   2.345  0.3188  0.1634  1.1816
  170MOL0     H22890  11.425   0.872   2.295  1.2080 -0.9483 -2.0766
  170MOL0     H22891  11.635   0.778   2.402  2.5218 -0.9427  2.8493
  170MOL0     H22892  11.665   0.938   2.460 -0.1146  1.0788  1.0590
  170MOL0     H22893  11.419   0.915   2.584  0.9591  1.4245  0.9696
  170MOL0     H22894  11.442   0.741   2.527  0.8196  0.5835 -3.0025
  170MOL0     H22895  11.675   0.755   2.637 -0.1747 -0.3279  1.2785
  170MOL0     H22896  11.633   0.902   2.719  3.7229 -1.5211  1.7220
  170MOL0     H22897  11.536   0.738   2.868 -1.4088 -0.7696  0.5919
  170MOL0     H22898  11.400   0.748   2.767 -0.3983 -0.8142 -2.1829
  170MOL0     H22899  11.629   0.539   2.755  0.1210  0.6769  1.2879
  170MOL0     H22900  11.490   0.539   2.641  1.6323 -1.2697  0.1699
  170MOL0     H22901  11.353   0.343   2.701 -3.1211  0.2554  0.6110
  170MOL0     H22902  11.204   0.196   2.995 -0.7691  2.0261 -2.5429
  170MOL0     H22903  11.251   0.139   2.840 -0.4282  2.1342 -0.4319
  170MOL0     H22904  11.454   0.117   3.063 -1.1097 -0.2916  1.0110
  170MOL0     H22905  11.455   0.029   2.907  1.7712  1.8432 -0.0209
  170MOL0     H22906  11.239   0.027   3.138 -0.8916  0.3678  0.6920
  170MOL0     H22907  11.375  -0.091   3.106  2.7309  1.9756 -2.1035
  170MOL0     H22908  11.146  -0.060   2.931  1.5226  2.4843 -0.4081
  170MOL0     H22909  11.190  -0.200   3.046  2.4657 -1.6142 -0.1679
  170MOL0     H22910  11.040  -0.282   2.859 -2.1062 -0.6054 -1.8545
  170MOL0     H22911  10.905  -0.445   2.582  0.9630 -1.1515 -0.1760
  170MOL0     H22912  10.906  -0.560   2.710 -1.2467  0.2955 -2.8036
  170MOL0     H22913  10.876  -0.386   2.748 -0.5178  0.4787  0.1447
  170MOL0     H22914  11.135  -0.607   2.213  0.4956  0.3099 -0.0674
  170MOL0     H22915  11.096  -0.785   2.052  2.7193 -0.1633 -1.0842
  170MOL0     H22916  10.917  -1.020   2.074 -0.6813  2.4853 -2.4095
  170MOL0     H22917  11.020  -0.972   1.941 -2.2726  1.2034  0.3088
  170MOL0     H22918  11.074  -1.206   1.898 -2.1428  0.0336 -3.8493
  170MOL0     H22919  10.951  -1.255   2.027 -1.9129  0.4916 -0.5268
  170MOL0     H22920  10.891  -1.110   1.769 -0.4578 -0.3765 -0.2424
  170MOL0     H22921  10.778  -1.144   1.891 -0.6088  1.7171 -0.1206
  170MOL0     H22922  10.873  -1.402   1.876 -1.1208  0.2504  0.3184
  170MOL0     H22923  10.751  -1.338   1.764  0.1001 -0.2904  2.5111
  170MOL0     H22924  11.039  -1.398   1.707 -0.0340  0.4748  0.7038
  170MOL0     H22925  10.960  -1.272   1.615 -3.1018  0.4841 -0.2900
  170MOL0     H22926  10.765  -1.438   1.584 -1.0255 -2.0096 -1.2434
  170MOL0     H22927  10.898  -1.464   1.482 -2.1221 -0.6280 -1.0290
  170MOL0     H22928  10.870  -1.597   1.756 -1.1201  0.7128 -0.0251
  170MOL0     H22929  10.970  -1.648   1.617 -0.0488 -2.6819  1.4430
  170MOL0     H22930  10.758  -1.722   1.496  0.2867 -1.3682 -0.2418
  170MOL0     H22931  10.676  -1.700   1.652  1.0804  0.7750  2.4836
  170MOL0     H22932  11.301  -1.056   2.311 -0.1231  0.1844  1.4428
  170MOL0     H22933  11.351  -0.876   2.462 -0.7874  1.5246  1.5820
  170MOL0     H22934  11.367  -0.462   2.536 -1.6586  1.0892 -2.2480
  170MOL0     H22935  11.441  -0.287   2.680 -0.3708  1.0435  0.6942
  170MOL0     H22936  11.639   0.860   1.755 -1.1663 -1.1723 -1.2530
  170MOL0     H22937  11.631   0.953   1.527 -2.3976 -0.4631  0.8113
  170MOL0     H22938  11.467   1.110   1.137  1.0606  0.2195  0.5617
  170MOL0     H22939  11.487   1.236   0.914 -0.0510  3.3253 -2.0801
  170MOL0     H22940  11.684   1.333   0.733  2.0097  2.6560 -0.6737
  170MOL0     H22941  11.512   1.359   0.756  1.0054 -2.6310 -2.5251
  170MOL0     H22942  11.720   1.570   0.672  0.0057 -0.7039  0.6947
  170MOL0     H22943  11.540   1.597   0.670 -1.9292 -3.0640 -0.9694
  170MOL0     H22944  11.495   1.463   0.483  0.7195 -0.0968 -0.7942
  170MOL0     H22945  11.647   1.375   0.505 -0.6629 -0.9762  2.1770
  170MOL0     H22946  11.781   1.535   0.424  0.7047  1.6176  0.4510
  170MOL0     H22947  11.676   1.668   0.444  4.0933  0.1115  3.2677
  170MOL0     H22948  11.544   1.571   0.073 -0.1125  0.4496  1.1276
  170MOL0     H22949  11.736   1.525   1.118 -2.3936  1.6332 -1.5677
  170MOL0     H22950  11.682   1.414   1.333  0.7902  0.8505 -1.2255
  171MOL0     O22951   9.327  11.077  10.477 -0.7258 -0.2701  0.7642
  171MOL0     C22952   9.269  11.147  10.389 -0.3916 -0.0254 -0.9221
  171MOL0     O22953   9.330  11.236  10.303 -0.2601 -0.0102  0.4206
  171MOL0     C22954   9.470  11.246  10.300  0.4923  0.4405 -1.5887
  171MOL0     C22955   9.534  11.375  10.286 -1.1820 -0.4689  0.3695
  171MOL0     C22956   9.669  11.384  10.272 -0.1274 -0.1873  0.4799
  171MOL0     C22957   9.751  11.273  10.296  0.1635 -0.7441  0.4151
  171MOL0     O22958   9.891  11.286  10.306  0.0995  0.2835 -0.4980
  171MOL0     C22959   9.967  11.292  10.183  0.1757 -0.4274 -1.2524
  171MOL0     C22960  10.106  11.315  10.220 -1.1145  0.7655  0.2021
  171MOL0     C22961  10.195  11.284  10.097  0.4741 -0.3502 -0.2354
  171MOL0     C22962  10.191  11.130  10.043 -0.5184 -0.3370  0.4001
  171MOL0     C22963  10.224  11.025  10.156  0.6670  0.3022  0.3472
  171MOL0     C22964  10.244  10.894  10.100 -0.1752 -0.0152 -0.0351
  171MOL0     C22965  10.273  10.801  10.209  0.6951  0.1466  0.1886
  171MOL0     C22966  10.316  10.657  10.158  0.5601 -0.6571  0.2392
  171MOL0     N22967  10.203  10.564  10.144 -0.1204 -0.2877 -0.3872
  171MOL0     C22968  10.109  10.548  10.041 -0.1803 -0.3330  1.2666
  171MOL0     C22969  10.059  10.432  10.070  0.3757  0.5307 -0.2576
  171MOL0     C22970   9.971  10.348   9.973  0.0975 -0.7907 -0.7405
  171MOL0     C22971   9.819  10.374  10.002 -0.0660  0.1641  0.4839
  171MOL0     C22972   9.745  10.386   9.861 -0.0318 -0.0702  0.2774
  171MOL0     C22973   9.594  10.405   9.892 -1.6901 -0.3404 -0.5938
  171MOL0     O22974   9.516  10.465   9.789 -0.4958  0.4868 -0.3434
  171MOL0     C22975   9.382  10.484   9.811  0.1428 -0.9201 -0.4208
  171MOL0     C22976   9.315  10.558   9.708  0.8898  0.5555 -0.6091
  171MOL0     C22977   9.178  10.588   9.729 -0.7324 -0.4113  0.7785
  171MOL0     C22978   9.119  10.688   9.635  0.5216 -0.1859  0.3375
  171MOL0     C22979   9.111  10.522   9.828 -0.0274 -0.3323 -0.1560
  171MOL0     C22980   8.961  10.543   9.846 -1.2876  0.7592 -0.8954
  171MOL0     O22981   8.869  10.517   9.753 -0.3239 -0.4304  0.3296
  171MOL0     C22982   8.741  10.573   9.774 -0.8750  0.7189  0.8607
  171MOL0     C22983   8.719  10.699   9.712 -0.5223 -0.6772 -0.9139
  171MOL0     C22984   8.590  10.760   9.720 -0.4021 -0.2014 -0.5483
  171MOL0     C22985   8.487  10.689   9.784  0.0046 -0.0320 -0.7744
  171MOL0     O22986   8.360  10.733   9.802  0.0123  0.0131  0.0594
  171MOL0     C22987   8.285  10.786   9.697  0.6513 -0.0359  1.0392
  171MOL0     C22988   8.156  10.847   9.751  0.0375  0.3240  0.9707
  171MOL0     C22989   8.070  10.746   9.826 -0.2565 -0.1777  0.0909
  171MOL0     C22990   7.967  10.841   9.898  0.1141  0.4926 -0.1691
  171MOL0     C22991   7.858  10.746   9.951  0.4226 -0.9801 -0.3613
  171MOL0     C22992   7.779  10.816  10.066 -0.1497 -0.3980  0.1134
  171MOL0     C22993   7.662  10.735  10.123  0.9872  0.5960 -0.9573
  171MOL0     C22994   7.608  10.778  10.260 -0.4327  0.2333  0.4980
  171MOL0    Cl22995   7.606  10.956  10.278  0.3510  0.0036  0.1457
  171MOL0     C22996   8.513  10.561   9.841  0.5277  0.3929 -0.2006
  171MOL0     C22997   8.638  10.508   9.830 -0.0787 -0.5821 -0.8981
  171MOL0     O22998   8.931  10.565   9.965  0.2119 -0.0934  0.0691
  171MOL0     C22999   9.175  10.438   9.921  0.3602  0.3778 -0.6669
  171MOL0     C23000   9.308  10.424   9.916 -0.2813  0.0058  0.2623
  171MOL0     N23001  10.106  10.379  10.191  0.1656 -0.1443 -0.1427
  171MOL0     N23002  10.193  10.464  10.236 -0.1026  0.7932 -0.0537
  171MOL0     C23003   9.687  11.144  10.286 -0.0196  0.6180 -0.0686
  171MOL0     C23004   9.546  11.130  10.301  0.0529 -0.1663  0.1079
  171MOL0     C23005   9.120  11.123  10.363  0.3707 -0.7019  0.0072
  171MOL0     C23006   9.036  11.053  10.444 -0.6482 -0.1919  0.6105
  171MOL0     C23007   8.897  11.051  10.422 -0.1304  0.2957  0.6258
  171MOL0     C23008   8.846  11.130  10.327 -0.0141 -0.4863 -1.0664
  171MOL0     O23009   8.705  11.137  10.304  0.1420 -0.0367  0.4168
  171MOL0     C23010   8.623  11.108  10.419  0.5962 -0.5921 -0.1649
  171MOL0     C23011   8.498  11.036  10.361 -0.8400  0.1626  0.0192
  171MOL0     C23012   8.393  10.993  10.463 -1.2095 -0.4594 -0.0978
  171MOL0     C23013   8.259  11.058  10.435 -0.8357 -0.1650 -0.2540
  171MOL0     C23014   8.223  10.998  10.312  0.0352 -0.3955  0.1379
  171MOL0     C23015   8.193  10.938  10.208  0.6778  0.5645 -0.3208
  171MOL0     C23016   8.929  11.200  10.232 -0.0942  0.3385 -0.3238
  171MOL0     C23017   9.068  11.199  10.256  0.1892 -0.3930  0.4458
  171MOL0     H23018   9.471  11.463  10.278 -1.8793 -1.0310 -0.4790
  171MOL0     H23019   9.718  11.481  10.266 -1.3362  0.5544  1.8616
  171MOL0     H23020   9.956  11.209  10.112  0.3833 -0.8328 -0.8123
  171MOL0     H23021   9.923  11.376  10.129 -3.1877  0.3203  2.1789
  171MOL0     H23022  10.131  11.410  10.267  7.1742 -0.8566  0.5408
  171MOL0     H23023  10.144  11.238  10.287  0.7862  0.3009 -1.3167
  171MOL0     H23024  10.161  11.349  10.015 -0.0424 -0.1894  0.0968
  171MOL0     H23025  10.298  11.308  10.125  0.7042 -0.2067 -1.1614
  171MOL0     H23026  10.095  11.097  10.002 -0.2439  1.0595 -1.5175
  171MOL0     H23027  10.265  11.120   9.963 -1.3498 -3.5069 -0.0916
  171MOL0     H23028  10.318  11.049  10.207  0.7753 -0.7630  0.6786
  171MOL0     H23029  10.146  11.021  10.233 -1.0984  0.3709 -1.3598
  171MOL0     H23030  10.153  10.865  10.046  1.2137  0.7666 -3.0278
  171MOL0     H23031  10.328  10.895  10.029  0.6512 -0.4239  0.9201
  171MOL0     H23032  10.353  10.844  10.270 -2.5669  4.7751  1.7822
  171MOL0     H23033  10.180  10.801  10.267  0.1512 -0.3382 -0.6663
  171MOL0     H23034  10.383  10.617  10.234  0.2095 -1.3742  0.1717
  171MOL0     H23035  10.373  10.660  10.064 -0.0950 -2.0985 -0.2304
  171MOL0     H23036  10.092  10.605   9.950 -0.3803  0.7601  1.9730
  171MOL0     H23037  10.005  10.372   9.872  1.7216  1.2948  0.2239
  171MOL0     H23038   9.977  10.241   9.998 -2.8968 -0.4756  2.0207
  171MOL0     H23039   9.808  10.449  10.081 -0.9169  2.3157 -1.5676
  171MOL0     H23040   9.783  10.290  10.062 -0.1935  1.1653  1.8667
  171MOL0     H23041   9.743  10.298   9.795 -0.6904  0.9832 -1.1651
  171MOL0     H23042   9.773  10.470   9.797 -0.4016  0.8591  1.3020
  171MOL0     H23043   9.582  10.475   9.975 -1.3582  1.9010 -2.3369
  171MOL0     H23044   9.555  10.312   9.933  1.7452 -0.6428  2.4690
  171MOL0     H23045   9.372  10.603   9.628  1.5476  3.4863  1.3518
  171MOL0     H23046   9.017  10.715   9.663  0.3826  0.0670 -0.3886
  171MOL0     H23047   9.184  10.773   9.658  2.6777 -2.3918  3.0490
  171MOL0     H23048   9.131  10.658   9.530  0.1222 -0.9309  0.5016
  171MOL0     H23049   8.799  10.747   9.657  0.2559  0.9803  1.4834
  171MOL0     H23050   8.569  10.856   9.675 -0.1022  0.0196 -0.2265
  171MOL0     H23051   8.325  10.868   9.636  1.8980 -0.3256  1.4308
  171MOL0     H23052   8.264  10.705   9.625  1.2646  0.7972 -0.1125
  171MOL0     H23053   8.194  10.931   9.810  0.1191  1.4439 -0.6118
  171MOL0     H23054   8.089  10.893   9.677 -1.7079  0.3971  2.5198
  171MOL0     H23055   8.130  10.693   9.900  3.0230  2.0916 -0.7426
  171MOL0     H23056   8.018  10.684   9.752  2.2480 -0.6449 -1.3891
  171MOL0     H23057   8.020  10.892   9.979  0.1130  0.9600 -0.4618
  171MOL0     H23058   7.926  10.914   9.828 -1.8268 -2.8052 -2.7832
  171MOL0     H23059   7.908  10.657   9.989  0.9476 -0.6712 -0.3322
  171MOL0     H23060   7.781  10.726   9.876 -0.5954 -0.1012  0.4112
  171MOL0     H23061   7.859  10.827  10.139 -0.9876  1.7981  0.7946
  171MOL0     H23062   7.748  10.915  10.031  1.1225 -0.0575 -0.1172
  171MOL0     H23063   7.690  10.632  10.142 -0.5578  0.1242 -1.1104
  171MOL0     H23064   7.576  10.739  10.055 -0.1453  1.8523  0.4674
  171MOL0     H23065   7.663  10.722  10.337 -1.2455 -1.8022 -0.3243
  171MOL0     H23066   7.504  10.745  10.271 -1.4685  3.1091  0.1473
  171MOL0     H23067   8.437  10.494   9.879  0.4979  0.4738 -0.1165
  171MOL0     H23068   8.657  10.410   9.875  0.5891  1.4473  3.9077
  171MOL0     H23069   9.124  10.376   9.994  4.3156  1.0909  3.1940
  171MOL0     H23070   9.350  10.359   9.993 -0.4058  0.3618  0.6382
  171MOL0     H23071   9.738  11.052  10.260 -1.4997 -0.4096  0.5342
  171MOL0     H23072   9.492  11.035  10.305  1.1766 -0.7999  1.1783
  171MOL0     H23073   9.080  10.997  10.527  0.8598 -2.8729 -1.8278
  171MOL0     H23074   8.850  10.973  10.481 -0.1722  0.1455  0.3955
  171MOL0     H23075   8.657  11.032  10.490  1.3141  1.2657  1.5908
  171MOL0     H23076   8.604  11.206  10.463 -1.7802 -1.7312  1.5395
  171MOL0     H23077   8.527  10.940  10.317 -3.3058 -1.1636  1.0791
  171MOL0     H23078   8.466  11.097  10.276 -1.0391 -4.3525 -3.5157
  171MOL0     H23079   8.425  11.011  10.567  1.3446  0.2311 -0.9132
  171MOL0     H23080   8.378  10.885  10.456 -0.2145 -0.6218  0.0888
  171MOL0     H23081   8.285  11.164  10.425  4.9062 -1.4373 -3.1223
  171MOL0     H23082   8.178  11.028  10.502 -0.4404 -1.7792 -0.4530
  171MOL0     H23083   8.191  10.893  10.111 -0.7548  0.5838 -0.3150
  171MOL0     H23084   8.888  11.253  10.147  1.6602  1.9894 -0.2155
  171MOL0     H23085   9.114  11.271  10.190 -2.2105  2.6906  1.9020
  172MOL0     O23086   7.182   2.838   6.543 -0.3976 -0.1267  0.9065
  172MOL0     C23087   7.177   2.781   6.649 -0.4550  0.1275  0.2100
  172MOL0     O23088   7.268   2.806   6.756  0.2921  0.0036  0.5757
  172MOL0     C23089   7.371   2.892   6.726  0.2426  0.3156 -0.4440
  172MOL0     C23090   7.490   2.830   6.691 -0.7897  0.0316  0.5179
  172MOL0     C23091   7.613   2.906   6.683 -0.8915  0.7683 -0.5000
  172MOL0     C23092   7.602   3.042   6.674 -0.4096  1.1235 -0.4773
  172MOL0     O23093   7.712   3.123   6.649 -0.0578 -0.3486  0.1441
  172MOL0     C23094   7.825   3.096   6.731 -0.7441  0.3535  0.3815
  172MOL0     C23095   7.936   3.197   6.721  0.6706  0.0448  0.9095
  172MOL0     C23096   8.061   3.159   6.793 -0.6596  0.8530 -0.3894
  172MOL0     C23097   8.184   3.222   6.720 -0.1563  0.0198 -0.2877
  172MOL0     C23098   8.223   3.375   6.751 -0.4280  0.1449  1.0088
  172MOL0     C23099   8.368   3.404   6.702  0.8934  0.2787  0.0642
  172MOL0     C23100   8.424   3.529   6.762 -0.2169 -0.0009 -0.0380
  172MOL0     C23101   8.338   3.656   6.723  0.4810  0.5673 -0.6001
  172MOL0     N23102   8.338   3.675   6.582  0.9768 -0.9659  0.5416
  172MOL0     C23103   8.427   3.746   6.498 -0.2211 -0.2884  0.5517
  172MOL0     C23104   8.405   3.687   6.374  0.1787  0.4618 -0.3219
  172MOL0     C23105   8.481   3.711   6.260  0.2376  0.2481 -0.3350
  172MOL0     C23106   8.572   3.578   6.227  0.1125 -0.1789 -0.0847
  172MOL0     C23107   8.676   3.531   6.335  0.8203  0.2890  0.7353
  172MOL0     C23108   8.789   3.625   6.346 -0.0630 -0.0360  0.0541
  172MOL0     O23109   8.893   3.548   6.413 -0.2221 -0.7147 -0.3743
  172MOL0     C23110   9.021   3.606   6.421  0.0364 -0.1541 -0.0398
  172MOL0     C23111   9.049   3.745   6.390 -0.0812  0.5390  0.6405
  172MOL0     C23112   9.178   3.801   6.406  0.2539 -0.1467  0.1746
  172MOL0     C23113   9.195   3.942   6.358  0.6446  0.6367 -0.2420
  172MOL0     C23114   9.290   3.734   6.456  0.2826  0.5078 -0.4992
  172MOL0     C23115   9.432   3.780   6.475 -0.5955  0.7127 -0.1910
  172MOL0     O23116   9.506   3.709   6.562 -0.7900 -0.3006  0.4137
  172MOL0     C23117   9.646   3.739   6.566  0.3552 -0.1512  0.1112
  172MOL0     C23118   9.697   3.858   6.632 -0.2852  0.4722 -0.5287
  172MOL0     C23119   9.834   3.867   6.653 -0.5143 -0.3534  0.3223
  172MOL0     C23120   9.920   3.762   6.625 -0.1221 -0.2091 -0.8120
  172MOL0     O23121  10.052   3.788   6.637 -0.2296  0.0731 -0.3550
  172MOL0     C23122  10.097   3.815   6.770 -0.9356 -0.1391  0.0902
  172MOL0     C23123  10.231   3.881   6.762 -0.5435 -0.2712 -0.2528
  172MOL0     C23124  10.220   4.031   6.727 -0.7108 -0.2930 -0.6004
  172MOL0     C23125  10.358   4.084   6.696  0.2637  0.3468  0.1156
  172MOL0     C23126  10.379   4.236   6.665 -0.5790  0.5319  0.6029
  172MOL0     C23127  10.532   4.272   6.650 -0.1447  0.7019  0.1023
  172MOL0     C23128  10.555   4.425   6.666  0.2343  0.2131  0.0657
  172MOL0     C23129  10.707   4.455   6.653 -0.8752 -0.4185  1.1022
  172MOL0    Cl23130  10.744   4.609   6.716 -0.1593  0.1382  0.0847
  172MOL0     C23131   9.869   3.643   6.560 -0.9449  0.0364  0.2411
  172MOL0     C23132   9.730   3.628   6.537  0.8405 -0.0703 -0.4146
  172MOL0     O23133   9.482   3.858   6.394 -0.1604  0.4998  0.5411
  172MOL0     C23134   9.261   3.598   6.490 -0.3251 -0.7368  0.6077
  172MOL0     C23135   9.132   3.540   6.479  0.8466  0.1833 -0.1959
  172MOL0     N23136   8.280   3.628   6.375 -0.2608  0.1108  0.0320
  172MOL0     N23137   8.246   3.627   6.499 -0.1125  0.5859 -0.1577
  172MOL0     C23138   7.480   3.100   6.698  0.1751 -0.3946  0.8154
  172MOL0     C23139   7.364   3.026   6.727 -0.8835 -0.7141 -0.0704
  172MOL0     C23140   7.074   2.685   6.666  0.2986  0.9385 -0.1208
  172MOL0     C23141   7.000   2.634   6.556  0.6674 -0.6462 -0.7896
  172MOL0     C23142   6.895   2.546   6.575 -0.5935  0.2719 -0.2444
  172MOL0     C23143   6.855   2.511   6.704 -0.9678 -1.3173 -0.1132
  172MOL0     O23144   6.755   2.421   6.717 -0.1021 -0.3966 -0.3040
  172MOL0     C23145   6.619   2.466   6.719  1.8203  0.6957  0.4334
  172MOL0     C23146   6.540   2.363   6.800 -0.0103  0.2200  0.5601
  172MOL0     C23147   6.556   2.214   6.756  0.5459 -0.3688 -0.4578
  172MOL0     C23148   6.508   2.094   6.843 -0.1981 -0.5248  0.2872
  172MOL0     C23149   6.363   2.091   6.863  0.0056  0.8137  0.2854
  172MOL0     C23150   6.245   2.094   6.890  0.5250  2.0200 -0.0658
  172MOL0     C23151   6.928   2.559   6.815 -0.4297 -0.4472 -0.5798
  172MOL0     C23152   7.038   2.637   6.791  0.4125 -1.3963  0.3396
  172MOL0     H23153   7.509   2.723   6.697  1.8702  0.3300 -1.1096
  172MOL0     H23154   7.707   2.857   6.659 -0.7004  0.2152  1.2406
  172MOL0     H23155   7.789   3.085   6.834 -0.5632 -2.3563  0.2116
  172MOL0     H23156   7.863   2.999   6.698  1.4949  2.0408 -2.4912
  172MOL0     H23157   7.961   3.198   6.615 -3.1537  0.5841 -0.1510
  172MOL0     H23158   7.888   3.292   6.748 -0.2097 -0.1194 -0.0264
  172MOL0     H23159   8.067   3.177   6.901 -1.8599 -0.6122 -0.0634
  172MOL0     H23160   8.081   3.052   6.793  3.0052  1.3795 -0.5170
  172MOL0     H23161   8.274   3.166   6.749 -1.0429 -0.1471  2.3907
  172MOL0     H23162   8.183   3.217   6.610 -1.1087  2.4741 -0.4435
  172MOL0     H23163   8.150   3.443   6.707  0.3962  0.6251  0.3749
  172MOL0     H23164   8.226   3.387   6.860  1.8254 -1.1686  1.1581
  172MOL0     H23165   8.436   3.325   6.734 -0.9385 -1.6388 -0.5821
  172MOL0     H23166   8.374   3.406   6.593 -0.5516 -1.5926 -0.0877
  172MOL0     H23167   8.426   3.514   6.870 -0.3032 -3.1147 -0.3896
  172MOL0     H23168   8.523   3.557   6.726  0.6253  2.1516  3.4358
  172MOL0     H23169   8.374   3.747   6.771  1.0694  0.5606 -1.0181
  172MOL0     H23170   8.241   3.632   6.766  1.7111 -0.5933  1.7092
  172MOL0     H23171   8.513   3.809   6.518 -1.0149  1.2869 -0.7320
  172MOL0     H23172   8.416   3.738   6.176 -0.1762 -2.3603 -0.9592
  172MOL0     H23173   8.552   3.793   6.275  0.4892  0.1027 -0.7027
  172MOL0     H23174   8.628   3.606   6.137 -0.6151 -0.1587 -0.5395
  172MOL0     H23175   8.499   3.499   6.208  0.0441 -0.6668  1.9656
  172MOL0     H23176   8.715   3.440   6.290 -2.5313  0.4067 -3.0978
  172MOL0     H23177   8.633   3.516   6.434  0.0115  1.9893  0.6990
  172MOL0     H23178   8.748   3.708   6.405  1.4205  0.5069  0.3681
  172MOL0     H23179   8.822   3.669   6.251  4.4864  0.5339  1.6657
  172MOL0     H23180   8.971   3.811   6.354  0.0189  0.7846  0.8725
  172MOL0     H23181   9.095   3.984   6.351 -0.2659 -1.2003  0.7526
  172MOL0     H23182   9.254   3.989   6.437 -0.6874 -1.8676  2.4718
  172MOL0     H23183   9.253   3.951   6.266  1.5565  3.0437  0.5131
  172MOL0     H23184   9.631   3.939   6.663 -1.3905 -0.0377 -1.4805
  172MOL0     H23185   9.872   3.960   6.693  1.8894 -2.3814  3.2678
  172MOL0     H23186  10.025   3.885   6.814 -0.5498 -0.7675  1.8004
  172MOL0     H23187  10.105   3.722   6.826 -0.4739 -0.6788 -0.8580
  172MOL0     H23188  10.281   3.879   6.859 -0.2616  0.1682 -0.3810
  172MOL0     H23189  10.296   3.824   6.694 -1.2045 -0.7543 -0.4871
  172MOL0     H23190  10.188   4.083   6.818  2.1886 -0.2856  0.5348
  172MOL0     H23191  10.149   4.036   6.644  0.0826 -1.0211 -1.3398
  172MOL0     H23192  10.416   4.051   6.783 -2.7495  1.3269  2.6653
  172MOL0     H23193  10.414   4.033   6.616  3.2901 -1.0358  2.8994
  172MOL0     H23194  10.337   4.290   6.750  0.1669 -2.1933  2.8467
  172MOL0     H23195  10.332   4.253   6.567 -2.5781 -1.4111  1.1507
  172MOL0     H23196  10.590   4.217   6.725  1.2118  0.4956 -1.0588
  172MOL0     H23197  10.571   4.243   6.551 -1.1286  0.9861 -0.3830
  172MOL0     H23198  10.508   4.460   6.759 -0.7430  0.5782 -0.5487
  172MOL0     H23199  10.509   4.470   6.577 -1.5523 -2.3003 -0.3790
  172MOL0     H23200  10.733   4.457   6.546 -0.5894 -2.4727  1.0953
  172MOL0     H23201  10.753   4.374   6.709 -0.5140 -1.0262 -0.0342
  172MOL0     H23202   9.931   3.560   6.529 -2.6802 -1.9049  1.6446
  172MOL0     H23203   9.678   3.538   6.508 -0.6025 -0.7193  3.5539
  172MOL0     H23204   9.339   3.531   6.527 -1.5733 -0.3367  4.3964
  172MOL0     H23205   9.099   3.445   6.521  2.0418 -0.9281 -1.6903
  172MOL0     H23206   7.477   3.208   6.691  4.0831 -0.1869 -0.2678
  172MOL0     H23207   7.275   3.083   6.752  2.0823  4.2028  0.6468
  172MOL0     H23208   7.030   2.672   6.458  0.4132  2.4159  0.2164
  172MOL0     H23209   6.841   2.495   6.495  0.5451 -1.6075  0.1062
  172MOL0     H23210   6.602   2.562   6.768  1.4006  1.1111 -0.5038
  172MOL0     H23211   6.581   2.485   6.618  0.8310  0.4113  0.7333
  172MOL0     H23212   6.432   2.374   6.789 -0.0745 -1.5501 -1.1021
  172MOL0     H23213   6.567   2.368   6.906  0.9966 -2.4637  0.5052
  172MOL0     H23214   6.663   2.188   6.756  1.0243  1.4980  0.1192
  172MOL0     H23215   6.515   2.204   6.655 -0.3524 -1.7201  0.0221
  172MOL0     H23216   6.565   2.085   6.937  0.7456 -2.3001 -0.4109
  172MOL0     H23217   6.545   2.007   6.788  0.1245 -1.4178  1.8398
  172MOL0     H23218   6.138   2.093   6.898  0.3613  0.7567 -1.8268
  172MOL0     H23219   6.896   2.531   6.915 -1.4459  0.8617 -0.5138
  172MOL0     H23220   7.086   2.688   6.874 -2.8430 -0.2050  1.6836
  173MOL0     O23221   3.508   8.794   1.402  0.1866  0.7522 -0.4235
  173MOL0     C23222   3.537   8.907   1.437  0.6471 -0.1406  0.2218
  173MOL0     O23223   3.580   9.005   1.345 -0.7910  0.0242  0.1826
  173MOL0     C23224   3.553   8.973   1.214 -1.0643  0.3045  0.3715
  173MOL0     C23225   3.421   8.969   1.160 -0.0587  0.2163 -0.2435
  173MOL0     C23226   3.405   8.951   1.018 -0.0246  1.2996  0.7095
  173MOL0     C23227   3.517   8.938   0.928  0.5232  0.2502 -0.7073
  173MOL0     O23228   3.493   8.924   0.790  0.1478  0.1388 -0.5485
  173MOL0     C23229   3.585   8.831   0.729 -0.4761  0.2219 -0.5540
  173MOL0     C23230   3.511   8.763   0.618  0.5301  0.0632  0.4319
  173MOL0     C23231   3.598   8.654   0.534 -0.5312 -0.2815  0.4605
  173MOL0     C23232   3.518   8.569   0.438 -0.1737  0.0594 -0.1653
  173MOL0     C23233   3.598   8.465   0.357 -0.1948 -0.7448 -0.6225
  173MOL0     C23234   3.685   8.372   0.442  0.6223 -0.0308 -0.1207
  173MOL0     C23235   3.756   8.260   0.358  0.0711  0.2707 -0.2892
  173MOL0     C23236   3.656   8.183   0.275 -0.0569  0.0052  1.0494
  173MOL0     N23237   3.720   8.090   0.176  0.6781 -0.2898  0.2750
  173MOL0     C23238   3.774   7.973   0.220 -0.6699  1.0302 -0.6534
  173MOL0     C23239   3.793   7.893   0.111 -0.6605 -0.2366  0.5455
  173MOL0     C23240   3.824   7.748   0.120 -0.5027 -0.1493 -0.6793
  173MOL0     C23241   3.707   7.675   0.059  1.0543  0.3513  0.3595
  173MOL0     C23242   3.715   7.532   0.112 -0.3413  0.7244  0.6679
  173MOL0     C23243   3.586   7.462   0.069  0.4921  0.2734 -0.2585
  173MOL0     O23244   3.465   7.504   0.138  0.4886  0.0435 -0.5356
  173MOL0     C23245   3.345   7.445   0.104 -0.3981  1.2285 -0.8950
  173MOL0     C23246   3.324   7.344   0.003  0.8091 -0.0625  0.1075
  173MOL0     C23247   3.202   7.285  -0.017 -0.4445  0.5453  0.2753
  173MOL0     C23248   3.195   7.187  -0.136  0.2379 -0.9830  0.0100
  173MOL0     C23249   3.086   7.334   0.061  0.3840 -0.5612 -0.0622
  173MOL0     C23250   2.946   7.313   0.027  0.1808  0.4610 -0.2470
  173MOL0     O23251   2.930   7.236  -0.080  0.2571 -0.1773  0.2146
  173MOL0     C23252   2.817   7.194  -0.124  0.5026  0.9491  0.0400
  173MOL0     C23253   2.813   7.068  -0.169  0.7332  0.0177  0.0435
  173MOL0     C23254   2.698   7.002  -0.224  0.8032  0.0410  0.8010
  173MOL0     C23255   2.578   7.067  -0.207  0.1837 -0.5042 -0.2280
  173MOL0     O23256   2.459   7.030  -0.253  0.3257  0.6735  0.0661
  173MOL0     C23257   2.444   6.891  -0.250 -0.1322  0.6074  0.5296
  173MOL0     C23258   2.418   6.843  -0.389  0.0134 -1.3639  0.8753
  173MOL0     C23259   2.367   6.707  -0.388  0.1178 -0.1892  0.3248
  173MOL0     C23260   2.315   6.662  -0.524  0.3325  0.0405  1.6343
  173MOL0     C23261   2.334   6.514  -0.556  0.1433  0.0122  0.3672
  173MOL0     C23262   2.250   6.414  -0.485  0.2193 -0.5033  0.0783
  173MOL0     C23263   2.104   6.462  -0.465  0.1973 -0.6004 -0.0959
  173MOL0     C23264   2.004   6.479  -0.585  0.7284 -1.0269  0.2424
  173MOL0    Cl23265   2.060   6.354  -0.700  0.2541  0.3482 -0.4077
  173MOL0     C23266   2.580   7.197  -0.148  0.4582  0.2573 -0.2972
  173MOL0     C23267   2.693   7.259  -0.112 -0.4787 -0.6780 -0.2751
  173MOL0     O23268   2.862   7.369   0.090 -0.8136  0.7874 -0.4329
  173MOL0     C23269   3.114   7.426   0.163  1.0153  0.8542 -0.0816
  173MOL0     C23270   3.238   7.480   0.190 -0.0192  0.5613 -0.2619
  173MOL0     N23271   3.777   7.974   0.002 -0.0734  0.0944 -0.1202
  173MOL0     N23272   3.733   8.090   0.037  0.4571 -0.1795 -0.1518
  173MOL0     C23273   3.641   8.940   0.984 -0.9380 -0.6517  0.9194
  173MOL0     C23274   3.663   8.951   1.121  0.7666 -0.1828 -0.1708
  173MOL0     C23275   3.523   8.938   1.577 -0.8403 -0.2867  0.8737
  173MOL0     C23276   3.497   8.840   1.677 -0.0777 -0.0537  0.3038
  173MOL0     C23277   3.494   8.883   1.805  0.3919  0.7862  0.4056
  173MOL0     C23278   3.520   9.017   1.850 -0.8870 -0.2595  0.8173
  173MOL0     O23279   3.506   9.045   1.981  1.4728 -0.2791 -0.1777
  173MOL0     C23280   3.566   9.164   2.045 -0.7254 -0.3925  1.1807
  173MOL0     C23281   3.531   9.174   2.191 -0.2347 -0.2933  0.1768
  173MOL0     C23282   3.636   9.258   2.274  1.0835  0.0297  0.2973
  173MOL0     C23283   3.613   9.228   2.420 -0.0370 -0.4181 -0.6252
  173MOL0     C23284   3.718   9.304   2.490  0.0273  0.1251  0.0923
  173MOL0     C23285   3.804   9.360   2.550  0.0051  0.4384 -0.2300
  173MOL0     C23286   3.532   9.118   1.750  0.8313  0.7801  0.1244
  173MOL0     C23287   3.553   9.071   1.623  0.2609 -0.2948  0.0932
  173MOL0     H23288   3.336   8.978   1.228  1.1486  0.2706  1.3263
  173MOL0     H23289   3.306   8.921   0.984  0.8397 -0.7533 -0.1860
  173MOL0     H23290   3.673   8.882   0.687 -0.5840  0.8900  0.0087
  173MOL0     H23291   3.625   8.760   0.801 -0.0267  0.9671 -0.0547
  173MOL0     H23292   3.429   8.702   0.656  2.4754 -2.0173  1.5762
  173MOL0     H23293   3.473   8.844   0.555 -0.1764 -1.4685 -1.2113
  173MOL0     H23294   3.673   8.707   0.474 -0.7760  2.5537  2.4478
  173MOL0     H23295   3.646   8.586   0.604  3.1435  1.3741 -0.1716
  173MOL0     H23296   3.440   8.519   0.496 -2.7662  1.5790 -2.0942
  173MOL0     H23297   3.474   8.635   0.362 -2.4391  0.0235  1.0397
  173MOL0     H23298   3.523   8.419   0.293  0.3422 -1.2154 -0.9224
  173MOL0     H23299   3.668   8.517   0.291 -0.0159  0.8932  0.7657
  173MOL0     H23300   3.753   8.422   0.511  0.0089 -3.1381  2.9768
  173MOL0     H23301   3.620   8.309   0.504 -2.1722  1.1517 -1.6375
  173MOL0     H23302   3.828   8.309   0.291 -1.1443 -0.4486 -2.1979
  173MOL0     H23303   3.817   8.187   0.414 -0.9150  0.4828  1.1237
  173MOL0     H23304   3.600   8.250   0.211  1.7923  2.1173  1.5188
  173MOL0     H23305   3.587   8.123   0.335 -0.8295 -1.1732 -0.9264
  173MOL0     H23306   3.784   7.950   0.326  0.7565  0.5168 -0.8801
  173MOL0     H23307   3.917   7.728   0.066  1.3138  4.1816  0.4461
  173MOL0     H23308   3.828   7.722   0.226 -1.4641 -4.7563 -1.5305
  173MOL0     H23309   3.691   7.673  -0.049  0.7339  0.5586  0.3998
  173MOL0     H23310   3.618   7.733   0.084  1.7972  2.7461 -2.0205
  173MOL0     H23311   3.727   7.514   0.219  1.1641 -0.0053  0.4033
  173MOL0     H23312   3.794   7.483   0.055 -1.5388 -1.4359  0.7726
  173MOL0     H23313   3.604   7.356   0.090 -1.2475  0.0702  0.3130
  173MOL0     H23314   3.572   7.476  -0.039 -1.1908 -0.0593 -0.1109
  173MOL0     H23315   3.396   7.332  -0.078 -0.1179 -0.3119 -0.6990
  173MOL0     H23316   3.123   7.107  -0.123 -1.4406  0.8387  3.7884
  173MOL0     H23317   3.178   7.245  -0.227 -0.3061  0.6612  1.1025
  173MOL0     H23318   3.294   7.141  -0.144 -0.0558 -1.9713  1.6370
  173MOL0     H23319   2.905   7.011  -0.175  1.3199  0.7703  1.4486
  173MOL0     H23320   2.698   6.911  -0.284  2.5104  0.7298 -0.3515
  173MOL0     H23321   2.521   6.824  -0.210 -0.6629  0.7399  1.8415
  173MOL0     H23322   2.351   6.869  -0.196  1.2990 -4.5939  1.5218
  173MOL0     H23323   2.346   6.912  -0.433  0.7137 -1.4124 -0.4057
  173MOL0     H23324   2.511   6.844  -0.447 -0.9959  0.3287 -0.7991
  173MOL0     H23325   2.287   6.697  -0.315 -0.4426 -2.6047 -0.5246
  173MOL0     H23326   2.456   6.644  -0.380  0.2009 -0.1766 -0.4373
  173MOL0     H23327   2.209   6.689  -0.536 -0.0692 -2.3967 -1.4060
  173MOL0     H23328   2.366   6.714  -0.605 -0.9673 -1.5220 -0.2665
  173MOL0     H23329   2.438   6.487  -0.540 -0.3288 -1.9487  0.3568
  173MOL0     H23330   2.309   6.505  -0.663  2.2727 -1.0849 -0.0851
  173MOL0     H23331   2.253   6.319  -0.538 -0.5764 -1.0543  0.9965
  173MOL0     H23332   2.290   6.403  -0.383 -3.6228  0.8811  1.9271
  173MOL0     H23333   2.100   6.543  -0.392  0.5259 -1.5881  1.0388
  173MOL0     H23334   2.052   6.376  -0.421  0.0295 -2.1050 -2.9493
  173MOL0     H23335   2.009   6.582  -0.621 -4.1891  0.4020  2.7134
  173MOL0     H23336   1.901   6.455  -0.554  0.5337 -1.5325 -0.7459
  173MOL0     H23337   2.481   7.237  -0.126 -0.3348 -1.2829 -0.8840
  173MOL0     H23338   2.699   7.359  -0.071  0.5999 -0.5651 -0.6819
  173MOL0     H23339   3.039   7.466   0.232  0.1037  0.6770 -0.9503
  173MOL0     H23340   3.234   7.556   0.268 -4.5305  1.6998 -1.2726
  173MOL0     H23341   3.728   8.919   0.922 -0.8192  0.6706  0.5893
  173MOL0     H23342   3.755   8.961   1.177 -0.9839 -2.9223  3.6073
  173MOL0     H23343   3.471   8.739   1.646  0.5591 -0.1516  0.0714
  173MOL0     H23344   3.463   8.810   1.879 -0.4942 -0.0635 -0.7600
  173MOL0     H23345   3.675   9.156   2.043 -0.6576  0.0536  2.3760
  173MOL0     H23346   3.549   9.252   1.983  2.5768  0.1256  0.8860
  173MOL0     H23347   3.534   9.072   2.230  0.6252  0.7397  3.0881
  173MOL0     H23348   3.436   9.225   2.210 -0.5113 -1.5350  2.5696
  173MOL0     H23349   3.622   9.365   2.259 -0.1798 -0.2647 -0.7989
  173MOL0     H23350   3.738   9.226   2.250  1.2510  0.9881 -0.3338
  173MOL0     H23351   3.602   9.121   2.441 -1.8533 -1.0262 -3.9791
  173MOL0     H23352   3.516   9.274   2.443 -0.7564 -2.4320  0.6746
  173MOL0     H23353   3.873   9.432   2.589  2.8344 -2.3261  0.2837
  173MOL0     H23354   3.546   9.224   1.769  2.4174  0.4506  0.9602
  173MOL0     H23355   3.584   9.151   1.555 -2.7413 -1.4662 -2.9333
  174MOL0     O23356   2.724   7.690   0.649  0.2887  0.0713  0.2895
  174MOL0     C23357   2.834   7.683   0.699 -0.6959 -0.1250  0.0085
  174MOL0     O23358   2.956   7.706   0.635 -0.1789  0.0117 -0.1315
  174MOL0     C23359   2.959   7.772   0.513  0.4514 -0.2143 -0.1680
  174MOL0     C23360   2.906   7.708   0.396 -0.4263  0.4053  0.2377
  174MOL0     C23361   2.897   7.781   0.277 -0.2387 -1.1889  0.8816
  174MOL0     C23362   2.950   7.910   0.266  0.5603  0.0480  0.1539
  174MOL0     O23363   2.945   7.967   0.138 -0.7563  0.2086  0.6723
  174MOL0     C23364   2.925   8.108   0.110 -0.2372  1.3209 -0.5144
  174MOL0     C23365   2.792   8.142   0.062  0.5758 -0.7592  0.4602
  174MOL0     C23366   2.757   8.067  -0.071  0.5325  0.4915  0.0739
  174MOL0     C23367   2.780   8.162  -0.197 -0.5915 -0.1910  0.1781
  174MOL0     C23368   2.719   8.088  -0.314 -0.5448  0.3484  1.4402
  174MOL0     C23369   2.694   8.173  -0.443 -0.5259 -0.1995 -0.4912
  174MOL0     C23370   2.679   8.071  -0.559 -0.8150  0.4392 -0.3671
  174MOL0     C23371   2.546   7.999  -0.538  0.5246 -0.2342 -0.2574
  174MOL0     N23372   2.535   7.893  -0.635 -0.0714  0.8876  0.3397
  174MOL0     C23373   2.415   7.874  -0.706 -0.7994 -0.2273 -0.9283
  174MOL0     C23374   2.461   7.782  -0.798 -0.4074 -0.0864  0.2610
  174MOL0     C23375   2.391   7.720  -0.905 -0.1036  0.5416  0.0676
  174MOL0     C23376   2.258   7.669  -0.852 -0.2732 -0.4037 -0.4614
  174MOL0     C23377   2.211   7.552  -0.938 -0.0435 -0.6929 -0.2142
  174MOL0     C23378   2.266   7.416  -0.891 -0.9233 -0.7063 -0.0971
  174MOL0     O23379   2.228   7.303  -0.977  0.3339  0.1232 -0.2429
  174MOL0     C23380   2.279   7.175  -0.978  0.9033 -0.5466 -0.1037
  174MOL0     C23381   2.390   7.141  -0.900 -0.3745  0.0621  0.2730
  174MOL0     C23382   2.434   7.011  -0.900 -0.5147 -0.3507 -0.6512
  174MOL0     C23383   2.565   6.972  -0.826 -0.9114 -0.1623 -0.0593
  174MOL0     C23384   2.378   6.909  -0.975 -0.1603 -0.3348  0.5277
  174MOL0     C23385   2.452   6.787  -0.986  0.1163 -0.7744 -0.4751
  174MOL0     O23386   2.516   6.772  -1.110 -0.6096 -0.3632 -1.1792
  174MOL0     C23387   2.585   6.655  -1.130  0.6228  0.8296 -0.6475
  174MOL0     C23388   2.586   6.594  -1.253  0.2184  0.2063  0.3801
  174MOL0     C23389   2.670   6.485  -1.286  0.7569 -0.5421  0.3801
  174MOL0     C23390   2.759   6.445  -1.188  0.2687  0.5197 -0.1774
  174MOL0     O23391   2.847   6.340  -1.203  0.2110  0.4648 -0.9511
  174MOL0     C23392   2.845   6.263  -1.325  0.0713  0.1184  0.6747
  174MOL0     C23393   2.738   6.149  -1.314  0.1480  0.7029  0.4322
  174MOL0     C23394   2.750   6.062  -1.182  1.2214  0.4304 -0.1546
  174MOL0     C23395   2.661   5.935  -1.191 -0.0604 -0.2921  0.1047
  174MOL0     C23396   2.656   5.847  -1.076 -0.5459 -0.0468 -1.3069
  174MOL0     C23397   2.776   5.764  -1.041  0.2859 -0.0619  0.5818
  174MOL0     C23398   2.822   5.689  -1.175 -0.3307  0.3379 -0.5699
  174MOL0     C23399   2.939   5.595  -1.133 -0.3508 -1.1431  0.0281
  174MOL0    Cl23400   2.959   5.475  -1.251 -0.1299 -0.2967  0.1115
  174MOL0     C23401   2.765   6.506  -1.063  0.3097  0.4644  0.1685
  174MOL0     C23402   2.679   6.611  -1.042 -0.1789  0.9018 -0.1565
  174MOL0     O23403   2.432   6.704  -0.894  0.9742  0.1257 -0.3019
  174MOL0     C23404   2.269   6.944  -1.054  0.7105 -0.0231 -0.5051
  174MOL0     C23405   2.215   7.078  -1.052  0.5278  0.7889  0.2539
  174MOL0     N23406   2.595   7.757  -0.778 -0.1417  0.3106 -0.4517
  174MOL0     N23407   2.637   7.811  -0.677 -0.4014  0.2946 -0.9008
  174MOL0     C23408   3.001   7.974   0.380 -0.8638 -0.2588  0.1052
  174MOL0     C23409   3.000   7.902   0.503 -0.4423 -0.1238  0.1176
  174MOL0     C23410   2.822   7.655   0.853  0.7799 -0.7482 -0.3835
  174MOL0     C23411   2.945   7.655   0.923 -0.6431 -0.1937  0.3153
  174MOL0     C23412   2.949   7.635   1.062 -0.2427 -0.0344  0.2501
  174MOL0     C23413   2.834   7.617   1.135 -0.6531  0.6798  0.2293
  174MOL0     O23414   2.836   7.585   1.266 -0.2716 -0.8552  0.6512
  174MOL0     C23415   2.943   7.615   1.348  0.2612 -0.7167  0.1182
  174MOL0     C23416   2.912   7.595   1.496 -1.4137 -0.1572 -0.8223
  174MOL0     C23417   2.997   7.668   1.589 -0.3812  0.5179  0.7723
  174MOL0     C23418   3.087   7.570   1.663  1.0400 -0.4076  0.0880
  174MOL0     C23419   3.018   7.502   1.775  0.0993  0.4718  0.5427
  174MOL0     C23420   2.968   7.447   1.871 -0.5321 -0.4850  0.0391
  174MOL0     C23421   2.708   7.624   1.066 -1.2343 -0.2647 -1.2798
  174MOL0     C23422   2.704   7.648   0.930 -0.5978  0.8634 -0.5262
  174MOL0     H23423   2.867   7.609   0.412 -2.6918  1.1271 -0.4658
  174MOL0     H23424   2.860   7.747   0.181  1.9568  0.4706 -0.6607
  174MOL0     H23425   2.944   8.161   0.203  0.6274 -1.0699  0.7550
  174MOL0     H23426   3.010   8.137   0.047 -1.4781 -1.2768 -3.7330
  174MOL0     H23427   2.720   8.121   0.141 -0.0337  1.6381  0.6341
  174MOL0     H23428   2.784   8.250   0.043 -2.7404 -1.1983 -1.4330
  174MOL0     H23429   2.808   7.970  -0.076 -1.2147 -0.4416 -0.4919
  174MOL0     H23430   2.650   8.045  -0.062  0.0910  2.2392 -0.6010
  174MOL0     H23431   2.728   8.258  -0.195  0.8641  0.6693 -0.8381
  174MOL0     H23432   2.888   8.173  -0.211 -0.5402  0.6857  1.1405
  174MOL0     H23433   2.798   8.017  -0.338 -0.7477  1.0516 -1.6772
  174MOL0     H23434   2.629   8.032  -0.288 -1.6140  0.1058 -2.3056
  174MOL0     H23435   2.603   8.234  -0.440  0.0529  0.9498 -3.1377
  174MOL0     H23436   2.783   8.234  -0.462  0.6272 -2.5352 -3.3954
  174MOL0     H23437   2.673   8.127  -0.653  1.4768 -0.8181 -1.3187
  174MOL0     H23438   2.769   8.010  -0.565 -1.7699 -1.4516  2.4524
  174MOL0     H23439   2.460   8.067  -0.544 -0.8605 -1.4896  3.0051
  174MOL0     H23440   2.529   7.948  -0.443 -2.6146  0.9764 -0.0297
  174MOL0     H23441   2.315   7.906  -0.679 -0.7296 -1.5155  1.0629
  174MOL0     H23442   2.391   7.791  -0.988  3.9992 -1.4701 -1.9715
  174MOL0     H23443   2.451   7.635  -0.939 -0.0251  1.3482 -1.9504
  174MOL0     H23444   2.180   7.745  -0.837  0.3353  0.7899 -2.8529
  174MOL0     H23445   2.280   7.623  -0.755  2.8973 -0.4737 -1.1066
  174MOL0     H23446   2.229   7.579  -1.042  0.2547  2.2791  0.5313
  174MOL0     H23447   2.104   7.556  -0.917 -0.2682 -0.8327 -1.2944
  174MOL0     H23448   2.230   7.393  -0.790  0.9355  0.3216  0.8520
  174MOL0     H23449   2.375   7.422  -0.898 -0.9794 -0.4093 -0.8442
  174MOL0     H23450   2.439   7.216  -0.839  0.4728 -0.3097  0.0626
  174MOL0     H23451   2.654   6.950  -0.885  0.5020  1.9876  1.1583
  174MOL0     H23452   2.601   7.062  -0.775  2.0156 -1.6034  0.6210
  174MOL0     H23453   2.535   6.903  -0.746  2.0782 -1.3416  0.1802
  174MOL0     H23454   2.526   6.638  -1.331 -0.0643  0.8341  0.9486
  174MOL0     H23455   2.679   6.456  -1.390 -0.0180 -0.9074  0.4024
  174MOL0     H23456   2.844   6.325  -1.415  2.0658  0.0685  0.5665
  174MOL0     H23457   2.935   6.201  -1.331 -1.6675 -2.4266 -0.8510
  174MOL0     H23458   2.639   6.191  -1.334  0.5282  0.2132 -3.2165
  174MOL0     H23459   2.762   6.078  -1.394  1.0363  1.8126 -0.3071
  174MOL0     H23460   2.720   6.120  -1.094 -1.7865 -1.7971  0.4546
  174MOL0     H23461   2.847   6.019  -1.157  2.8958  4.5409  1.3379
  174MOL0     H23462   2.560   5.969  -1.214  0.9128  0.6531 -3.2819
  174MOL0     H23463   2.688   5.879  -1.281  0.8523  0.2232  0.0399
  174MOL0     H23464   2.570   5.780  -1.086 -2.2289  1.7938  0.1746
  174MOL0     H23465   2.642   5.902  -0.983  0.7835  1.5075 -1.9869
  174MOL0     H23466   2.856   5.836  -1.019  0.9474 -0.1140 -1.4115
  174MOL0     H23467   2.752   5.705  -0.953  0.6051  1.0438  1.4301
  174MOL0     H23468   2.852   5.759  -1.253 -1.8541  0.4377 -1.1142
  174MOL0     H23469   2.738   5.637  -1.224 -0.5726  0.8733 -0.7312
  174MOL0     H23470   2.920   5.544  -1.039 -3.2150  0.9424  0.7393
  174MOL0     H23471   3.033   5.650  -1.122  0.3436 -2.0871 -0.9461
  174MOL0     H23472   2.837   6.471  -0.989 -0.0739  1.3065  0.9609
  174MOL0     H23473   2.687   6.661  -0.946 -0.6522 -0.9298  0.8839
  174MOL0     H23474   2.247   6.876  -1.136  2.1060  0.6887 -1.5078
  174MOL0     H23475   2.132   7.103  -1.117  0.7938  0.9353 -0.0298
  174MOL0     H23476   3.027   8.079   0.386 -1.5071  0.2064 -3.1806
  174MOL0     H23477   3.014   7.966   0.589 -1.0920 -1.2961  1.1113
  174MOL0     H23478   3.044   7.671   0.881 -0.9208  0.7763 -0.0066
  174MOL0     H23479   3.044   7.625   1.113 -0.5532 -0.3551  0.7720
  174MOL0     H23480   3.029   7.556   1.317  1.2875  2.3185 -3.6249
  174MOL0     H23481   2.963   7.722   1.336  3.0223 -1.2429 -0.5843
  174MOL0     H23482   2.903   7.490   1.524 -1.0373 -0.0448 -0.2716
  174MOL0     H23483   2.813   7.640   1.504 -2.1701 -1.4660 -2.1983
  174MOL0     H23484   2.935   7.732   1.654 -1.6691  0.8708 -0.7412
  174MOL0     H23485   3.059   7.734   1.528  1.9561 -3.1299 -1.1352
  174MOL0     H23486   3.165   7.631   1.712 -0.3160 -0.1767  2.0933
  174MOL0     H23487   3.129   7.493   1.598 -1.0925 -1.5783  0.0266
  174MOL0     H23488   2.930   7.397   1.958 -2.4249 -0.1626 -0.5477
  174MOL0     H23489   2.627   7.621   1.139  1.0997 -0.7702  1.4746
  174MOL0     H23490   2.605   7.646   0.885  0.1665 -3.5458 -2.6115
  175MOL0     O23491   7.725  10.694   8.926  0.3296 -0.4779  0.0249
  175MOL0     C23492   7.693  10.815   8.911 -0.0289  1.5337 -0.0688
  175MOL0     O23493   7.656  10.900   9.004 -0.1769 -0.4166  0.6205
  175MOL0     C23494   7.596  10.856   9.127 -0.3783 -0.0019  0.9625
  175MOL0     C23495   7.519  10.732   9.137 -0.8741 -0.3943  0.1761
  175MOL0     C23496   7.450  10.693   9.253 -1.6291 -0.5928 -0.0071
  175MOL0     C23497   7.470  10.770   9.366  0.0340 -0.0108 -0.9153
  175MOL0     O23498   7.407  10.715   9.476 -1.0931  0.4427  0.2038
  175MOL0     C23499   7.437  10.765   9.604 -0.1604 -0.0944  0.0594
  175MOL0     C23500   7.361  10.684   9.709  0.0687  0.3755 -0.3235
  175MOL0     C23501   7.416  10.539   9.729  0.2875 -0.9608  0.1479
  175MOL0     C23502   7.322  10.463   9.827  0.0500 -0.5450 -0.2863
  175MOL0     C23503   7.375  10.322   9.860  0.9256  0.2550  0.5565
  175MOL0     C23504   7.495  10.318   9.952  0.7800  0.1239  0.4108
  175MOL0     C23505   7.480  10.394  10.084  0.0506 -0.5689 -0.0651
  175MOL0     C23506   7.356  10.369  10.169 -0.2295  0.5567 -0.4437
  175MOL0     N23507   7.372  10.439  10.302  0.2134 -0.1389  0.5973
  175MOL0     C23508   7.433  10.380  10.404  0.5442  0.3749 -0.5204
  175MOL0     C23509   7.412  10.474  10.501  0.1134  0.2646 -0.0822
  175MOL0     C23510   7.460  10.457  10.642 -0.2898 -0.9415  0.1018
  175MOL0     C23511   7.587  10.520  10.675 -0.3508  0.5013 -0.1901
  175MOL0     C23512   7.579  10.669  10.672 -0.1456  0.6864  0.4259
  175MOL0     C23513   7.713  10.733  10.697 -0.8089 -0.8649 -0.1443
  175MOL0     O23514   7.794  10.747  10.577 -0.6883  0.0803 -0.4894
  175MOL0     C23515   7.910  10.679  10.547  0.5233 -0.0835  0.0685
  175MOL0     C23516   7.978  10.588  10.637  0.1576 -0.3314 -0.8218
  175MOL0     C23517   8.099  10.530  10.611 -0.6280 -0.8792  0.2867
  175MOL0     C23518   8.150  10.438  10.721  0.6988  1.2534  0.0338
  175MOL0     C23519   8.162  10.561  10.491  0.2627  1.1304 -1.3133
  175MOL0     C23520   8.294  10.529  10.463 -0.3533  0.0593 -0.2490
  175MOL0     O23521   8.380  10.633  10.439 -0.2279 -0.5330  0.0458
  175MOL0     C23522   8.516  10.601  10.431  1.2559 -0.6133  0.7142
  175MOL0     C23523   8.577  10.598  10.306  0.3291  0.1786  1.7124
  175MOL0     C23524   8.714  10.595  10.301  0.5151 -0.3868  1.0990
  175MOL0     C23525   8.790  10.604  10.414 -0.0257 -0.1530 -0.2361
  175MOL0     O23526   8.927  10.595  10.426  0.1775 -0.3236 -0.0578
  175MOL0     C23527   8.995  10.641  10.308 -1.1171 -1.4117  0.7130
  175MOL0     C23528   9.131  10.685  10.364  0.6055 -0.4597  0.1618
  175MOL0     C23529   9.254  10.636  10.271 -0.6167 -0.0892 -0.4058
  175MOL0     C23530   9.376  10.706  10.335  0.5444  0.0027  0.4455
  175MOL0     C23531   9.512  10.648  10.304  0.2321  0.4447 -0.1052
  175MOL0     C23532   9.635  10.725  10.324  0.0467 -0.4571 -0.5908
  175MOL0     C23533   9.753  10.636  10.329  0.4116 -0.5470 -0.6681
  175MOL0     C23534   9.872  10.732  10.331 -0.5895 -0.0184 -0.4455
  175MOL0    Cl23535   9.887  10.835  10.177 -0.8774 -0.1687  0.1976
  175MOL0     C23536   8.727  10.597  10.539  0.0530  0.1316 -0.2299
  175MOL0     C23537   8.585  10.591  10.543 -0.3501 -0.3958  0.2767
  175MOL0     O23538   8.320  10.407  10.457 -0.5924 -0.0657  0.0757
  175MOL0     C23539   8.099  10.652  10.399 -0.2332 -0.4200  0.1156
  175MOL0     C23540   7.975  10.715  10.430  0.2531  0.4799  0.2286
  175MOL0     N23541   7.346  10.591  10.447 -0.2337  0.1557 -0.6176
  175MOL0     N23542   7.317  10.559  10.325  0.0176  0.2378  0.1539
  175MOL0     C23543   7.540  10.893   9.362  0.7264 -0.2087  1.0000
  175MOL0     C23544   7.607  10.931   9.241  0.1001 -0.6322 -0.0495
  175MOL0     C23545   7.709  10.882   8.777 -0.6275 -0.0732  0.3856
  175MOL0     C23546   7.698  11.022   8.769 -0.1588  0.2861  0.3930
  175MOL0     C23547   7.707  11.083   8.652  0.0711  0.5527 -0.4664
  175MOL0     C23548   7.741  11.014   8.541  0.6179  0.0947  0.3048
  175MOL0     O23549   7.773  11.100   8.434 -0.0500  0.3649  0.5148
  175MOL0     C23550   7.851  11.049   8.323  0.8771  0.5131 -0.2613
  175MOL0     C23551   7.983  11.121   8.323  0.2100  0.7015 -0.5871
  175MOL0     C23552   8.068  11.088   8.448  0.4061  0.3345  0.6173
  175MOL0     C23553   8.191  11.162   8.482  0.2805  0.5065 -0.2670
  175MOL0     C23554   8.168  11.301   8.529  0.1832 -0.5906  0.4322
  175MOL0     C23555   8.134  11.413   8.560 -0.3344 -0.2064 -0.2679
  175MOL0     C23556   7.749  10.878   8.536  0.7411  0.6482 -0.2268
  175MOL0     C23557   7.730  10.811   8.658  0.7052 -0.1220 -0.4893
  175MOL0     H23558   7.510  10.675   9.046 -0.0955  0.6315 -0.5776
  175MOL0     H23559   7.397  10.599   9.260  2.8903 -3.5575 -1.2028
  175MOL0     H23560   7.544  10.779   9.625  0.1013  1.6031 -2.0868
  175MOL0     H23561   7.399  10.868   9.597 -1.5551 -0.7021 -2.3032
  175MOL0     H23562   7.358  10.743   9.801 -1.4298 -1.6932  1.0443
  175MOL0     H23563   7.257  10.678   9.676  0.1190  2.2998 -0.9200
  175MOL0     H23564   7.404  10.490   9.632 -0.5663 -0.8683  0.1915
  175MOL0     H23565   7.523  10.532   9.749  0.8842 -2.7520 -3.0311
  175MOL0     H23566   7.317  10.525   9.917 -1.0124 -2.8433  1.3376
  175MOL0     H23567   7.231  10.448   9.769 -0.2370  2.5403 -0.7634
  175MOL0     H23568   7.291  10.272   9.908  1.6015  0.9460  2.5765
  175MOL0     H23569   7.413  10.274   9.769 -1.8286  2.2182 -1.8175
  175MOL0     H23570   7.520  10.212   9.961  3.0494  0.5782  0.1531
  175MOL0     H23571   7.573  10.373   9.899  2.3239 -1.1369  1.2902
  175MOL0     H23572   7.571  10.363  10.135 -0.2130 -0.5669  0.4095
  175MOL0     H23573   7.490  10.501  10.061  0.3766 -0.2958  1.3066
  175MOL0     H23574   7.353  10.263  10.193 -2.2726  1.0552  1.9464
  175MOL0     H23575   7.259  10.393  10.122  0.1707  2.6174 -0.3362
  175MOL0     H23576   7.486  10.285  10.411 -1.7040 -1.1369 -2.5126
  175MOL0     H23577   7.378  10.497  10.703  0.9827  3.4570 -0.7056
  175MOL0     H23578   7.478  10.350  10.658  0.5609 -0.6883  0.9236
  175MOL0     H23579   7.654  10.485  10.595 -1.4289 -0.8660 -0.5274
  175MOL0     H23580   7.615  10.484  10.774 -0.3687  1.7490  0.2838
  175MOL0     H23581   7.505  10.700  10.747 -0.9344 -0.9922  0.3696
  175MOL0     H23582   7.539  10.688  10.572  0.2565 -0.4239  0.0401
  175MOL0     H23583   7.765  10.710  10.790 -1.1963 -0.2863  0.2197
  175MOL0     H23584   7.692  10.836  10.725  0.4066 -0.4038 -0.8428
  175MOL0     H23585   7.926  10.584  10.731  3.5222  2.8348  1.4671
  175MOL0     H23586   8.259  10.432  10.716  0.7645  0.5554  1.4887
  175MOL0     H23587   8.112  10.464  10.821 -0.3105 -1.0427  0.3225
  175MOL0     H23588   8.111  10.339  10.693  4.5020 -0.5719  0.4483
  175MOL0     H23589   8.524  10.588  10.212  1.0404 -2.1757  1.4820
  175MOL0     H23590   8.762  10.585  10.205 -0.9020  3.7722 -0.2520
  175MOL0     H23591   9.014  10.565  10.232  0.2643 -0.7344  0.3602
  175MOL0     H23592   8.960  10.734  10.262  3.3069  1.3737  2.3673
  175MOL0     H23593   9.128  10.794  10.373 -2.2548 -0.5569  1.4290
  175MOL0     H23594   9.140  10.640  10.464  1.8428 -3.4395 -1.1496
  175MOL0     H23595   9.245  10.667  10.166 -0.4787 -2.2837 -1.1223
  175MOL0     H23596   9.259  10.528  10.281 -2.1538  0.0127  2.2712
  175MOL0     H23597   9.396  10.807  10.297  0.1918  0.1361  0.6141
  175MOL0     H23598   9.362  10.718  10.442 -0.3048  2.6824  0.1205
  175MOL0     H23599   9.505  10.625  10.198 -1.6590 -1.7312  0.3941
  175MOL0     H23600   9.518  10.551  10.355 -0.6399  0.5486  0.2046
  175MOL0     H23601   9.634  10.812  10.259  2.0841 -0.1755 -0.3218
  175MOL0     H23602   9.635  10.781  10.418  2.5965 -0.9233 -0.2359
  175MOL0     H23603   9.751  10.570  10.242 -2.2974 -1.2411 -0.1723
  175MOL0     H23604   9.747  10.578  10.422  0.7364  2.5565  1.4512
  175MOL0     H23605   9.961  10.672  10.355 -1.6799 -1.6927 -0.3610
  175MOL0     H23606   9.865  10.795  10.420  2.7534 -0.0341 -0.0327
  175MOL0     H23607   8.785  10.605  10.630  2.0354  3.9445 -1.6212
  175MOL0     H23608   8.529  10.582  10.636  0.4139  1.1167  0.9237
  175MOL0     H23609   8.145  10.662  10.301 -3.6381 -2.0735 -1.8271
  175MOL0     H23610   7.932  10.789  10.364  0.1211  2.5613  2.5186
  175MOL0     H23611   7.539  10.966   9.443 -3.1260  0.3158  0.6579
  175MOL0     H23612   7.653  11.029   9.245  3.7022 -2.1593 -0.4845
  175MOL0     H23613   7.672  11.087   8.852  0.6521  1.8626 -0.5368
  175MOL0     H23614   7.705  11.192   8.648 -0.7676  0.5290 -0.9667
  175MOL0     H23615   7.868  10.941   8.327  1.9382  0.6662 -0.2308
  175MOL0     H23616   7.801  11.062   8.227  0.8367  2.4726 -0.0146
  175MOL0     H23617   7.964  11.228   8.330  3.9760  1.5125 -0.2751
  175MOL0     H23618   8.040  11.096   8.233  1.4294 -1.8104  0.7741
  175MOL0     H23619   8.087  10.981   8.443 -3.1168 -0.4408  1.2912
  175MOL0     H23620   8.001  11.106   8.533 -1.6851 -0.3860 -0.7822
  175MOL0     H23621   8.248  11.173   8.389 -0.4393 -0.1470 -0.7955
  175MOL0     H23622   8.244  11.105   8.559  0.9694 -1.9523 -2.4154
  175MOL0     H23623   8.117  11.510   8.601  1.0589 -1.2222  3.0731
  175MOL0     H23624   7.766  10.827   8.442 -0.4509  5.5970 -3.5130
  175MOL0     H23625   7.732  10.702   8.664  4.1529 -0.2269 -1.3118
  176MOL0     O23626   8.454  10.728  10.823  0.1395  0.5187 -0.0445
  176MOL0     C23627   8.447  10.846  10.848 -0.7105 -0.3087  0.1435
  176MOL0     O23628   8.561  10.923  10.858  0.1742 -0.4121  0.1417
  176MOL0     C23629   8.685  10.865  10.859 -0.4657  0.0388 -0.7777
  176MOL0     C23630   8.741  10.831  10.984 -2.2107  0.1540 -0.9961
  176MOL0     C23631   8.872  10.785  10.991  0.5886 -0.8454 -0.9091
  176MOL0     C23632   8.959  10.779  10.879  0.4118  1.3322 -0.6956
  176MOL0     O23633   9.085  10.740  10.903  0.2485 -0.4827  0.2284
  176MOL0     C23634   9.169  10.703  10.790 -0.6858  0.4467  0.6108
  176MOL0     C23635   9.132  10.569  10.733 -0.4556  0.0058  0.0369
  176MOL0     C23636   9.116  10.459  10.840  0.2876  0.1106 -0.1730
  176MOL0     C23637   9.251  10.385  10.863 -0.1035 -0.2050  1.2892
  176MOL0     C23638   9.249  10.289  10.984 -0.8766  0.8700 -0.2976
  176MOL0     C23639   9.389  10.228  11.001  0.7785  0.1559 -0.2341
  176MOL0     C23640   9.441  10.128  10.906 -0.5770 -0.4509 -0.8042
  176MOL0     C23641   9.352  10.013  10.866 -0.2755  0.6803  0.3638
  176MOL0     N23642   9.312   9.933  10.982  0.4807  0.3127  0.6447
  176MOL0     C23643   9.393   9.871  11.064 -0.1454 -0.3120 -0.2388
  176MOL0     C23644   9.321   9.811  11.156 -0.3639 -0.0380  0.1575
  176MOL0     C23645   9.372   9.722  11.264 -0.1445 -0.2553 -0.2319
  176MOL0     C23646   9.385   9.810  11.394 -0.3084  1.2816 -0.5019
  176MOL0     C23647   9.424   9.725  11.515 -0.4166  0.4033 -0.3027
  176MOL0     C23648   9.397   9.790  11.654 -0.0295 -0.9574  0.8107
  176MOL0     O23649   9.249   9.773  11.668 -0.5542 -0.5762 -0.0514
  176MOL0     C23650   9.189   9.837  11.772 -0.3105 -1.3622 -0.3974
  176MOL0     C23651   9.252   9.904  11.887  0.1452 -1.3926 -0.7619
  176MOL0     C23652   9.172   9.990  11.980 -0.3235 -0.5835 -0.7943
  176MOL0     C23653   9.237  10.061  12.099  0.4449 -0.3991 -0.0325
  176MOL0     C23654   9.037  10.003  11.961 -0.9004  1.0863  0.7469
  176MOL0     C23655   8.953  10.072  12.061 -0.4989  0.8955 -0.0919
  176MOL0     O23656   8.950  10.209  12.067  0.4313  0.3590  0.0714
  176MOL0     C23657   8.826  10.256  12.105  0.3938  0.6531 -0.0830
  176MOL0     C23658   8.696  10.225  12.040  0.5244 -0.0859 -0.0058
  176MOL0     C23659   8.579  10.282  12.090 -0.1831  0.4073 -0.0312
  176MOL0     C23660   8.575  10.367  12.198  0.0300  0.5766  0.6321
  176MOL0     O23661   8.458  10.442  12.223  0.1636 -0.1343 -0.0400
  176MOL0     C23662   8.413  10.458  12.364 -1.1596  0.0237  0.0087
  176MOL0     C23663   8.295  10.366  12.403  0.2597 -0.3239 -0.1113
  176MOL0     C23664   8.236  10.416  12.535 -0.2773  0.5979  0.1424
  176MOL0     C23665   8.147  10.318  12.596  0.1700 -0.0650 -0.3723
  176MOL0     C23666   8.127  10.354  12.753 -1.1156 -0.5837 -0.0422
  176MOL0     C23667   8.033  10.465  12.804 -0.5089  0.0170 -0.1735
  176MOL0     C23668   8.099  10.612  12.800  0.0779  0.1310 -0.3770
  176MOL0     C23669   8.010  10.696  12.894  0.2999 -0.6922 -0.7749
  176MOL0    Cl23670   8.025  10.670  13.071 -0.4526 -0.3076  0.5270
  176MOL0     C23671   8.697  10.389  12.263  0.3113  0.6582 -0.5835
  176MOL0     C23672   8.822  10.345  12.214  0.4537 -0.2243  0.3569
  176MOL0     O23673   8.898  10.001  12.149 -0.1545  0.1230  0.4280
  176MOL0     C23674   8.984   9.937  11.849 -0.8478 -0.3184 -0.1739
  176MOL0     C23675   9.052   9.852  11.760 -0.2772 -0.0961  0.1781
  176MOL0     N23676   9.190   9.834  11.133 -0.7992  0.2939 -0.8462
  176MOL0     N23677   9.189   9.908  11.037  1.0197 -0.6060 -0.3204
  176MOL0     C23678   8.898  10.819  10.754 -0.7683  0.4899 -0.3315
  176MOL0     C23679   8.765  10.856  10.751  0.1591  0.7091  1.4769
  176MOL0     C23680   8.312  10.914  10.857 -0.2800  0.3635 -0.3391
  176MOL0     C23681   8.213  10.894  10.770 -0.0143 -0.8512  0.0419
  176MOL0     C23682   8.081  10.953  10.788 -0.5557  0.0208 -0.5808
  176MOL0     C23683   8.061  11.042  10.897 -0.5632 -0.6782  0.1936
  176MOL0     O23684   7.936  11.108  10.902  0.2356 -0.2059 -0.0716
  176MOL0     C23685   7.932  11.248  10.929  0.6558  0.0771  0.2794
  176MOL0     C23686   8.016  11.323  10.833  0.6315  0.3384 -0.1466
  176MOL0     C23687   7.988  11.289  10.679  0.5147  1.1191  0.1096
  176MOL0     C23688   8.061  11.387  10.574  0.1456 -0.0374  0.0766
  176MOL0     C23689   8.064  11.326  10.440 -1.1272 -1.1763  0.7166
  176MOL0     C23690   8.058  11.280  10.328 -0.0151 -0.5186 -0.4118
  176MOL0     C23691   8.172  11.067  10.987  0.6551  0.3812  0.1630
  176MOL0     C23692   8.296  11.005  10.966 -0.1874  0.0534 -0.6520
  176MOL0     H23693   8.691  10.844  11.080 -0.0646 -0.3984  0.2603
  176MOL0     H23694   8.910  10.747  11.086  3.2213  3.8140  0.2316
  176MOL0     H23695   9.167  10.772  10.705 -2.9666  2.0933  1.8870
  176MOL0     H23696   9.273  10.696  10.824 -0.7617 -4.1609  0.4982
  176MOL0     H23697   9.036  10.574  10.681  0.5185 -0.8076 -1.9548
  176MOL0     H23698   9.213  10.538  10.667  1.2630  1.1591  1.4988
  176MOL0     H23699   9.075  10.491  10.936 -1.9587 -2.1202 -0.2904
  176MOL0     H23700   9.044  10.380  10.816  1.1956 -0.8095  0.0890
  176MOL0     H23701   9.276  10.327  10.773  0.5637  3.1224 -0.8252
  176MOL0     H23702   9.331  10.459  10.865  1.4303 -1.7391  0.1010
  176MOL0     H23703   9.223  10.350  11.071  0.6905 -3.3766  3.5405
  176MOL0     H23704   9.181  10.205  10.968  0.2242 -0.4803  1.6140
  176MOL0     H23705   9.458  10.308  11.029 -0.7566  0.6121  2.6853
  176MOL0     H23706   9.381  10.174  11.096  2.6276  0.7035  0.2745
  176MOL0     H23707   9.465  10.189  10.819  0.0977 -0.1098 -0.3879
  176MOL0     H23708   9.538  10.089  10.936 -0.2519 -0.6018 -2.0232
  176MOL0     H23709   9.404   9.954  10.790 -0.8990 -0.0021  0.4659
  176MOL0     H23710   9.262  10.036  10.809 -0.5167 -1.0841 -0.0116
  176MOL0     H23711   9.498   9.858  11.044 -0.2202  1.5783 -2.3760
  176MOL0     H23712   9.308   9.634  11.269  2.4339 -2.5220 -2.9497
  176MOL0     H23713   9.470   9.675  11.251  0.9290  1.0637  2.3800
  176MOL0     H23714   9.286   9.856  11.402 -0.3576  1.0099  0.6806
  176MOL0     H23715   9.452   9.890  11.362  2.0699 -1.4990 -3.0743
  176MOL0     H23716   9.531   9.705  11.508  0.7836  5.3210  0.6694
  176MOL0     H23717   9.370   9.630  11.505 -4.0441  2.2590 -0.1513
  176MOL0     H23718   9.415   9.898  11.650 -1.7021 -0.6847 -0.0254
  176MOL0     H23719   9.451   9.738  11.733 -2.5184 -1.4201  2.2823
  176MOL0     H23720   9.359   9.894  11.894  0.6089  0.1982 -4.0040
  176MOL0     H23721   9.163  10.066  12.180 -0.0541  1.7591 -0.5607
  176MOL0     H23722   9.322  10.003  12.136  0.9646  0.2539 -0.1935
  176MOL0     H23723   9.275  10.158  12.069 -0.4623  0.8822  2.6144
  176MOL0     H23724   8.698  10.160  11.954  0.1230 -1.0403  0.6860
  176MOL0     H23725   8.479  10.272  12.049 -1.4015  0.8610  2.5804
  176MOL0     H23726   8.493  10.448  12.438 -2.7946  0.7160  1.9278
  176MOL0     H23727   8.392  10.565  12.364  1.4488  0.6497  2.4381
  176MOL0     H23728   8.213  10.378  12.331 -0.0196  1.1414  0.4131
  176MOL0     H23729   8.323  10.261  12.415 -2.3525 -1.0734  0.0928
  176MOL0     H23730   8.175  10.506  12.524 -2.0729 -0.2427  2.5547
  176MOL0     H23731   8.318  10.441  12.603 -0.6733  0.2108  0.7651
  176MOL0     H23732   8.051  10.305  12.544  1.7734 -1.2886 -3.2600
  176MOL0     H23733   8.206  10.227  12.602  0.0243 -0.1875 -0.7424
  176MOL0     H23734   8.228  10.363  12.795  0.1092  0.8433 -3.0158
  176MOL0     H23735   8.096  10.271  12.817 -0.6014  1.3231  2.9054
  176MOL0     H23736   7.933  10.468  12.760 -0.7842  0.9463  0.4999
  176MOL0     H23737   8.007  10.446  12.908  2.3098  3.5427  1.3609
  176MOL0     H23738   8.090  10.658  12.701 -1.6846  1.0246  0.1645
  176MOL0     H23739   8.202  10.618  12.838 -0.9347  2.4406  2.3968
  176MOL0     H23740   7.907  10.690  12.858  0.2351  1.2852 -1.0593
  176MOL0     H23741   8.038  10.800  12.875 -2.3619 -0.0693 -1.8169
  176MOL0     H23742   8.686  10.473  12.330 -2.7427  0.5972 -0.8926
  176MOL0     H23743   8.911  10.382  12.265 -1.9848  1.9030  3.4623
  176MOL0     H23744   8.878   9.959  11.837 -0.8678  1.0901  2.0206
  176MOL0     H23745   9.004   9.816  11.670  0.4613 -1.1831  0.1930
  176MOL0     H23746   8.949  10.798  10.660 -1.4537  1.0611 -0.8411
  176MOL0     H23747   8.712  10.874  10.658  0.6614  1.3654  1.3125
  176MOL0     H23748   8.234  10.834  10.683  0.3613  0.9554 -1.1815
  176MOL0     H23749   7.990  10.931  10.733 -1.0157 -0.4159  0.3447
  176MOL0     H23750   7.827  11.279  10.931  0.7484  0.5148 -0.7582
  176MOL0     H23751   7.980  11.267  11.025  1.1626 -0.8476  0.2186
  176MOL0     H23752   8.122  11.308  10.854  0.4456 -0.8751  0.0464
  176MOL0     H23753   8.000  11.429  10.855  1.9932  0.7355 -0.9645
  176MOL0     H23754   7.881  11.293  10.656  0.8061  3.6125 -1.2723
  176MOL0     H23755   8.033  11.191  10.665 -4.0325 -1.1502 -0.5118
  176MOL0     H23756   8.161  11.404  10.613 -0.0701  2.5430 -0.3042
  176MOL0     H23757   7.999  11.477  10.574 -1.6522 -1.1923 -1.5168
  176MOL0     H23758   8.046  11.231  10.233 -0.4792 -1.9822  0.3722
  176MOL0     H23759   8.157  11.137  11.068  0.3543 -0.3164  0.7146
  176MOL0     H23760   8.375  11.018  11.039  0.6240 -1.8027 -1.1198
  177MOL0     O23761  10.386   1.480   2.571 -0.0296  0.1519 -0.0433
  177MOL0     C23762  10.451   1.464   2.675  0.7147 -1.3619 -0.6554
  177MOL0     O23763  10.424   1.527   2.793  0.7626 -0.1574  0.3738
  177MOL0     C23764  10.301   1.593   2.789 -0.2382 -0.2866  0.0406
  177MOL0     C23765  10.176   1.537   2.785  0.6517  0.0999  0.5546
  177MOL0     C23766  10.056   1.598   2.809  0.8343 -0.2584 -0.2184
  177MOL0     C23767  10.058   1.728   2.851  0.5350 -0.1930  0.5356
  177MOL0     O23768   9.930   1.780   2.862  0.0620 -0.6400  0.9178
  177MOL0     C23769   9.933   1.908   2.920 -0.5042 -0.2946  0.1105
  177MOL0     C23770   9.787   1.960   2.931 -0.9457  0.8395  0.2548
  177MOL0     C23771   9.731   1.958   3.065  0.8092  0.7934  0.0744
  177MOL0     C23772   9.811   2.046   3.168 -0.7212  0.7034  0.3214
  177MOL0     C23773   9.739   2.047   3.302  0.1337  0.3054  1.6122
  177MOL0     C23774   9.814   2.132   3.404  0.0230 -0.5896 -0.8539
  177MOL0     C23775   9.771   2.103   3.548  0.9637 -0.1368 -0.3763
  177MOL0     C23776   9.890   2.115   3.644 -0.0628 -0.0061 -0.2676
  177MOL0     N23777   9.857   2.086   3.786 -0.0938 -0.3830 -0.1258
  177MOL0     C23778   9.862   1.961   3.846  0.9168  0.1736 -0.1435
  177MOL0     C23779   9.794   1.983   3.959 -0.7847  0.7947 -0.9177
  177MOL0     C23780   9.753   1.871   4.045 -0.3624  0.3650  0.5146
  177MOL0     C23781   9.608   1.873   4.104  0.3034 -0.2341 -0.7860
  177MOL0     C23782   9.588   1.730   4.172 -0.4417 -0.1293  0.4296
  177MOL0     C23783   9.656   1.723   4.308 -0.4830 -0.4148 -1.1402
  177MOL0     O23784   9.675   1.596   4.361  0.6865 -0.9648 -0.7993
  177MOL0     C23785   9.581   1.551   4.450 -0.2909  0.6786 -0.6472
  177MOL0     C23786   9.645   1.462   4.541 -0.5176  0.1666 -0.2205
  177MOL0     C23787   9.575   1.394   4.639 -0.7989 -0.5983 -0.7130
  177MOL0     C23788   9.647   1.311   4.734 -1.0020 -0.5370 -0.4019
  177MOL0     C23789   9.435   1.418   4.645  0.4984  0.3690  1.2729
  177MOL0     C23790   9.350   1.349   4.739 -0.5714 -0.2053  0.4165
  177MOL0     O23791   9.229   1.414   4.774 -0.1829  0.3161  0.1749
  177MOL0     C23792   9.130   1.384   4.862 -0.8539  0.3472  0.2424
  177MOL0     C23793   9.143   1.277   4.958  0.9559 -0.7297 -0.2675
  177MOL0     C23794   9.038   1.259   5.049  0.1707  0.5711 -0.2805
  177MOL0     C23795   8.922   1.333   5.028  1.0436 -0.2554 -0.6360
  177MOL0     O23796   8.821   1.302   5.109 -0.3514 -0.7444 -0.4211
  177MOL0     C23797   8.708   1.388   5.125  0.0584 -0.0802 -0.4260
  177MOL0     C23798   8.614   1.317   5.212  0.8402  0.0273 -0.3465
  177MOL0     C23799   8.642   1.346   5.366  0.9236 -0.4028 -0.7818
  177MOL0     C23800   8.515   1.285   5.447  0.1325  0.3622  0.4394
  177MOL0     C23801   8.529   1.322   5.595  0.4574  0.3511 -0.3260
  177MOL0     C23802   8.408   1.336   5.677  0.5875  0.6885 -0.0313
  177MOL0     C23803   8.349   1.472   5.661  0.4832 -0.2426  0.3034
  177MOL0     C23804   8.227   1.479   5.747 -0.2942 -0.0445  0.3609
  177MOL0    Cl23805   8.272   1.518   5.914 -0.1179  0.1534  0.1573
  177MOL0     C23806   8.908   1.433   4.931 -0.3236  0.7129  0.4414
  177MOL0     C23807   9.020   1.460   4.855 -0.9365  0.6039  1.3999
  177MOL0     O23808   9.382   1.236   4.771 -0.2636  0.6782  0.0348
  177MOL0     C23809   9.367   1.502   4.550 -0.0897  0.6057  0.5895
  177MOL0     C23810   9.444   1.576   4.452 -0.1014 -0.0446 -0.5203
  177MOL0     N23811   9.765   2.120   3.972  0.7124  0.0066 -0.5465
  177MOL0     N23812   9.797   2.177   3.864  0.0862  0.0436 -0.7430
  177MOL0     C23813  10.181   1.791   2.867 -0.1289 -0.6026  0.2259
  177MOL0     C23814  10.300   1.724   2.830  1.0798  0.5118 -1.1046
  177MOL0     C23815  10.569   1.364   2.682  0.7047 -0.4703 -0.3627
  177MOL0     C23816  10.657   1.340   2.792 -0.1980  0.4875 -0.4348
  177MOL0     C23817  10.768   1.252   2.781  0.0388 -0.1804 -0.1887
  177MOL0     C23818  10.789   1.181   2.664  1.4944  0.0469 -0.0614
  177MOL0     O23819  10.890   1.093   2.652 -0.2066 -0.2962  0.0447
  177MOL0     C23820  10.917   1.014   2.537 -0.3400 -0.1963  0.3329
  177MOL0     C23821  11.046   0.939   2.542  0.5075  0.3179  1.0335
  177MOL0     C23822  11.085   0.864   2.674  0.5558 -0.2317 -0.3158
  177MOL0     C23823  10.984   0.757   2.715  0.6488 -0.8195 -0.4518
  177MOL0     C23824  11.053   0.653   2.794  0.3128 -0.8582  1.1386
  177MOL0     C23825  11.100   0.565   2.861 -0.0469  0.8506  0.5809
  177MOL0     C23826  10.705   1.207   2.554  0.5790  0.8825  0.8192
  177MOL0     C23827  10.595   1.299   2.566 -0.2596  0.2873  0.4675
  177MOL0     H23828  10.164   1.436   2.749 -2.7382  0.8744 -0.8645
  177MOL0     H23829   9.967   1.546   2.775  2.1494 -0.8272 -3.1124
  177MOL0     H23830   9.985   1.896   3.016 -0.6026  0.8351  0.3216
  177MOL0     H23831   9.994   1.974   2.859 -0.3162 -1.1652 -0.6690
  177MOL0     H23832   9.782   2.063   2.893 -1.1873  0.9722  0.6410
  177MOL0     H23833   9.719   1.908   2.864  1.0030 -0.3896 -0.8761
  177MOL0     H23834   9.628   1.991   3.052  1.3480  1.5621 -2.8946
  177MOL0     H23835   9.721   1.858   3.108  0.1075  0.6988 -0.3096
  177MOL0     H23836   9.912   2.008   3.183 -1.8373 -1.8630  2.1439
  177MOL0     H23837   9.822   2.144   3.122  0.4210 -1.2570 -4.0737
  177MOL0     H23838   9.642   2.092   3.282 -0.0435 -0.5408  0.4945
  177MOL0     H23839   9.724   1.945   3.338 -0.0713 -0.6533 -0.9525
  177MOL0     H23840   9.923   2.133   3.396  0.3812  1.9802  2.3499
  177MOL0     H23841   9.785   2.236   3.388  0.0572 -0.7121 -1.7926
  177MOL0     H23842   9.691   2.170   3.580 -2.2302 -3.0478 -1.7475
  177MOL0     H23843   9.728   2.003   3.555 -0.0410  0.3495  0.6911
  177MOL0     H23844   9.924   2.218   3.637 -1.5573  0.4712 -0.9223
  177MOL0     H23845   9.974   2.050   3.616  0.2433  0.0595  0.4704
  177MOL0     H23846   9.897   1.862   3.821 -1.5104 -1.3357  1.9000
  177MOL0     H23847   9.769   1.778   3.991 -0.1875  0.4575  0.4033
  177MOL0     H23848   9.835   1.856   4.117  1.1787 -0.1373 -1.2622
  177MOL0     H23849   9.536   1.892   4.024  0.5146 -0.2740 -0.9863
  177MOL0     H23850   9.609   1.956   4.176 -2.5905 -1.6131  1.0057
  177MOL0     H23851   9.633   1.648   4.115  2.6589 -0.3218  2.9082
  177MOL0     H23852   9.481   1.707   4.175 -0.9854  2.0109 -0.8566
  177MOL0     H23853   9.599   1.785   4.378 -3.1890 -1.2446 -2.4623
  177MOL0     H23854   9.755   1.768   4.298 -0.8817  0.7322 -0.2247
  177MOL0     H23855   9.753   1.457   4.531 -0.3349 -0.2841  1.6186
  177MOL0     H23856   9.602   1.322   4.833  0.7716 -3.8112  0.9376
  177MOL0     H23857   9.638   1.206   4.704  1.1223  0.0017 -3.4504
  177MOL0     H23858   9.750   1.349   4.736 -1.1514 -0.1174 -0.6426
  177MOL0     H23859   9.236   1.222   4.967  2.7584  2.2687  1.3423
  177MOL0     H23860   9.065   1.187   5.126  0.8884  1.1609  0.0231
  177MOL0     H23861   8.737   1.486   5.165 -1.5250  0.1128  0.3335
  177MOL0     H23862   8.657   1.398   5.029 -0.0098  2.2356 -0.1954
  177MOL0     H23863   8.513   1.351   5.186  0.9423  1.5054  1.0651
  177MOL0     H23864   8.614   1.210   5.188  0.1605 -0.2898  0.9992
  177MOL0     H23865   8.647   1.453   5.389 -0.7361 -1.0957  3.9175
  177MOL0     H23866   8.736   1.302   5.401  0.8786 -0.2665 -0.4835
  177MOL0     H23867   8.424   1.323   5.401 -2.0848 -0.7069  3.5776
  177MOL0     H23868   8.509   1.176   5.436 -2.7568  0.5947 -1.2230
  177MOL0     H23869   8.585   1.416   5.604 -0.4312  0.6987  3.8380
  177MOL0     H23870   8.586   1.234   5.628  1.2459 -0.1706 -2.8932
  177MOL0     H23871   8.331   1.270   5.636 -2.1983  4.0914 -0.7244
  177MOL0     H23872   8.424   1.315   5.783 -0.8418  0.1433  0.0944
  177MOL0     H23873   8.326   1.479   5.554  0.6080 -1.4419  0.1873
  177MOL0     H23874   8.402   1.562   5.693 -1.1342  1.2595 -1.0082
  177MOL0     H23875   8.176   1.382   5.739  0.1449 -0.2988  0.5911
  177MOL0     H23876   8.157   1.561   5.727 -2.9850 -2.1322  0.6381
  177MOL0     H23877   8.818   1.492   4.913 -1.6014 -1.0769  0.6202
  177MOL0     H23878   9.024   1.542   4.784  1.8606  0.0553  0.8305
  177MOL0     H23879   9.259   1.518   4.557 -0.3294 -0.4531 -0.3464
  177MOL0     H23880   9.409   1.647   4.378 -0.5315  2.0224  1.5297
  177MOL0     H23881  10.187   1.893   2.905 -0.3930 -1.0850  1.6202
  177MOL0     H23882  10.387   1.785   2.854 -0.7186  2.6729  0.3245
  177MOL0     H23883  10.646   1.391   2.887  0.7056  1.0012 -0.5933
  177MOL0     H23884  10.817   1.245   2.877  2.0383  1.0655 -1.0464
  177MOL0     H23885  10.832   0.946   2.529 -1.3327  0.8142  1.8506
  177MOL0     H23886  10.926   1.076   2.447  2.1595 -2.7727 -1.3402
  177MOL0     H23887  11.122   1.014   2.517 -0.3702  0.3002 -2.2197
  177MOL0     H23888  11.052   0.864   2.462  0.4975 -0.3409  1.6465
  177MOL0     H23889  11.087   0.935   2.757 -1.5326 -0.9989  0.4479
  177MOL0     H23890  11.184   0.817   2.668  0.3906 -0.9620  1.9030
  177MOL0     H23891  10.937   0.720   2.623  0.4730  1.5326 -1.3874
  177MOL0     H23892  10.904   0.807   2.770  1.6478 -1.8392  2.0445
  177MOL0     H23893  11.136   0.483   2.920 -1.6813  1.6909  2.8625
  177MOL0     H23894  10.718   1.166   2.454  1.2343  0.2968  1.1377
  177MOL0     H23895  10.535   1.320   2.478 -0.8347  1.7982  1.1912
  178MOL0     O23896   3.606  11.345   4.310 -0.2211 -0.3057 -0.3101
  178MOL0     C23897   3.524  11.303   4.220 -0.4850 -0.0104  0.0173
  178MOL0     O23898   3.500  11.350   4.101  0.5252 -0.4762  1.0568
  178MOL0     C23899   3.570  11.461   4.053  0.4796 -0.4155 -0.2252
  178MOL0     C23900   3.508  11.584   4.022  0.9321  0.4674 -0.2321
  178MOL0     C23901   3.585  11.690   3.973  0.0158 -0.1183 -0.1763
  178MOL0     C23902   3.720  11.678   3.955 -0.3069 -0.2728  0.0783
  178MOL0     O23903   3.786  11.785   3.903 -0.4183 -0.0388 -0.2245
  178MOL0     C23904   3.913  11.769   3.827 -0.2438 -0.4154 -0.5474
  178MOL0     C23905   3.974  11.911   3.800  0.2648 -0.6004  0.1316
  178MOL0     C23906   4.037  11.921   3.660  0.2170  0.1616 -0.2863
  178MOL0     C23907   3.934  11.913   3.543 -0.5336  0.3314  0.7851
  178MOL0     C23908   3.991  11.974   3.413  0.0246 -0.5414 -0.7417
  178MOL0     C23909   4.121  11.920   3.372 -0.2185  0.1948 -0.8976
  178MOL0     C23910   4.167  11.976   3.238  0.1759  0.0675 -0.6307
  178MOL0     C23911   4.292  11.898   3.197  0.0688  0.5987  0.0685
  178MOL0     N23912   4.408  11.991   3.222  0.5898 -0.4158  0.1174
  178MOL0     C23913   4.497  12.046   3.132  0.0120 -0.5468  0.0227
  178MOL0     C23914   4.586  12.125   3.198  0.5142 -0.0338 -0.5912
  178MOL0     C23915   4.709  12.195   3.147 -0.3911  0.2489  0.5982
  178MOL0     C23916   4.687  12.351   3.152  0.6491  0.3689  0.1073
  178MOL0     C23917   4.695  12.400   3.286 -0.2388 -0.9069 -0.0575
  178MOL0     C23918   4.719  12.556   3.285 -0.3320 -0.1811 -0.2515
  178MOL0     O23919   4.853  12.592   3.266 -0.4705 -0.0692  0.3023
  178MOL0     C23920   4.894  12.724   3.280  0.6732 -0.2255 -0.0049
  178MOL0     C23921   5.026  12.742   3.253 -0.2345 -0.3995  0.0321
  178MOL0     C23922   5.085  12.864   3.258  0.0306 -0.4058  0.1579
  178MOL0     C23923   5.234  12.865   3.223 -0.4413  1.3142 -0.6709
  178MOL0     C23924   5.002  12.978   3.278 -0.4773  0.0314 -0.6444
  178MOL0     C23925   5.052  13.115   3.267  0.6195 -0.3895 -0.4236
  178MOL0     O23926   4.971  13.213   3.214 -0.7139 -0.2957 -0.3203
  178MOL0     C23927   5.003  13.348   3.224  1.3914  0.5635 -1.1255
  178MOL0     C23928   5.097  13.397   3.314 -0.7249 -0.0255  0.1678
  178MOL0     C23929   5.111  13.536   3.338 -0.6772  0.6479 -0.0105
  178MOL0     C23930   5.048  13.632   3.252 -0.8376 -0.2114 -0.5694
  178MOL0     O23931   5.049  13.767   3.270  0.1884  0.0025  0.0266
  178MOL0     C23932   5.139  13.830   3.360  0.3068  0.7569  0.3361
  178MOL0     C23933   5.131  13.980   3.337  0.3602 -1.3222 -0.2059
  178MOL0     C23934   5.186  14.045   3.462 -0.4385 -0.3558  0.5424
  178MOL0     C23935   5.337  14.038   3.451 -0.6199 -1.0823  0.3433
  178MOL0     C23936   5.399  14.150   3.552  0.0255  0.3696  0.4039
  178MOL0     C23937   5.548  14.126   3.587  0.7415 -0.2070  0.1022
  178MOL0     C23938   5.645  14.138   3.465  0.1469  0.2326 -0.2383
  178MOL0     C23939   5.795  14.154   3.499 -0.0716 -0.4103  0.3423
  178MOL0    Cl23940   5.913  14.111   3.375 -0.3020 -0.1782  0.6082
  178MOL0     C23941   4.961  13.580   3.156 -0.2505 -0.7626 -0.6319
  178MOL0     C23942   4.948  13.440   3.141 -0.8341 -0.5517 -0.2589
  178MOL0     O23943   5.171  13.127   3.295  0.0536 -0.2526 -0.4200
  178MOL0     C23944   4.867  12.966   3.300 -0.3262 -0.1263 -0.2108
  178MOL0     C23945   4.810  12.835   3.307 -0.1134  0.2279 -0.8501
  178MOL0     N23946   4.546  12.110   3.328 -0.5201 -0.2646 -0.9715
  178MOL0     N23947   4.442  12.031   3.347 -0.3730  0.0055  0.2224
  178MOL0     C23948   3.775  11.560   3.971 -0.1980  0.2246 -0.4062
  178MOL0     C23949   3.701  11.449   4.014 -0.2368  0.2709  0.2829
  178MOL0     C23950   3.444  11.182   4.260  0.1180 -0.5362 -0.2203
  178MOL0     C23951   3.470  11.105   4.377  0.5901  0.1010 -0.4061
  178MOL0     C23952   3.415  10.978   4.397 -0.3023  0.3988  0.6811
  178MOL0     C23953   3.330  10.923   4.305  0.6790  0.6838  0.3711
  178MOL0     O23954   3.266  10.806   4.322  0.1295 -0.6093  0.0387
  178MOL0     C23955   3.342  10.712   4.406  1.0853 -1.1931 -0.2401
  178MOL0     C23956   3.277  10.574   4.382 -0.1665 -0.7022 -0.2474
  178MOL0     C23957   3.355  10.451   4.440  0.1101  0.1931 -0.1688
  178MOL0     C23958   3.271  10.321   4.439  0.3178 -0.9430 -0.3343
  178MOL0     C23959   3.180  10.314   4.556 -0.1572  0.1921 -0.3943
  178MOL0     C23960   3.107  10.322   4.651  0.6927  0.2639 -0.5580
  178MOL0     C23961   3.306  11.005   4.195 -0.1671 -0.7534 -0.4541
  178MOL0     C23962   3.353  11.132   4.165 -0.0731 -0.4306  1.1022
  178MOL0     H23963   3.400  11.594   4.021  0.6309 -2.0265 -1.2240
  178MOL0     H23964   3.534  11.785   3.962  0.5918  0.1730 -0.3899
  178MOL0     H23965   3.986  11.709   3.884  3.0881  2.4056 -1.5073
  178MOL0     H23966   3.884  11.712   3.738 -1.1900  0.7447 -0.9993
  178MOL0     H23967   3.897  11.987   3.816 -0.1477 -0.9055 -0.3569
  178MOL0     H23968   4.044  11.933   3.881 -0.7390  0.2530  0.7962
  178MOL0     H23969   4.098  12.011   3.658  2.0151 -0.9404 -3.2933
  178MOL0     H23970   4.123  11.855   3.643  3.9751  2.5845  6.0740
  178MOL0     H23971   3.922  11.806   3.524 -0.4892  0.1514  1.6875
  178MOL0     H23972   3.838  11.962   3.564  0.2036  2.5778 -0.6793
  178MOL0     H23973   3.915  11.974   3.334 -2.9045  4.2904  1.5744
  178MOL0     H23974   4.015  12.079   3.434  0.9060 -0.5854 -1.5167
  178MOL0     H23975   4.202  11.937   3.444 -0.0360 -0.6828 -0.8823
  178MOL0     H23976   4.112  11.811   3.363  1.4352 -0.0617  0.1875
  178MOL0     H23977   4.091  11.955   3.162 -1.0797  1.8988  0.0524
  178MOL0     H23978   4.176  12.084   3.225 -2.1021  0.5653  1.2541
  178MOL0     H23979   4.281  11.890   3.088  1.3997  3.9710 -0.4682
  178MOL0     H23980   4.314  11.799   3.238  2.1026  0.5135 -1.0611
  178MOL0     H23981   4.507  12.033   3.024 -1.5088  2.6334 -0.6056
  178MOL0     H23982   4.790  12.170   3.216  1.9241  0.0724 -2.0308
  178MOL0     H23983   4.740  12.157   3.050  1.8679  0.3566  1.2253
  178MOL0     H23984   4.586  12.384   3.127  0.2524 -1.2856 -0.5704
  178MOL0     H23985   4.757  12.395   3.080 -0.7573  2.4072 -0.0893
  178MOL0     H23986   4.784  12.362   3.337 -1.6669  0.1879  3.5259
  178MOL0     H23987   4.616  12.371   3.356 -0.9666  0.0853 -0.4461
  178MOL0     H23988   4.693  12.600   3.382  1.4923  1.1409 -0.3187
  178MOL0     H23989   4.659  12.593   3.201 -0.7600  0.8259  0.4739
  178MOL0     H23990   5.071  12.648   3.224 -2.7548 -0.7461 -3.3985
  178MOL0     H23991   5.285  12.958   3.197  1.1248  0.0728 -2.2076
  178MOL0     H23992   5.279  12.812   3.308 -0.6975  0.5982 -0.9750
  178MOL0     H23993   5.256  12.796   3.141  1.0949  2.7955 -1.5602
  178MOL0     H23994   5.145  13.342   3.394 -1.3359 -2.4886 -1.0726
  178MOL0     H23995   5.174  13.565   3.421  2.7431  1.9041 -2.7970
  178MOL0     H23996   5.100  13.810   3.460 -1.7427  1.8158 -0.1990
  178MOL0     H23997   5.243  13.797   3.353  0.2168  0.7324 -1.1935
  178MOL0     H23998   5.176  13.999   3.239 -2.0344  1.2233 -0.9559
  178MOL0     H23999   5.025  14.007   3.330  0.6293 -0.2463 -0.3565
  178MOL0     H24000   5.154  13.993   3.553 -1.0767  0.6590  0.9140
  178MOL0     H24001   5.157  14.150   3.466 -2.6077 -0.6411 -2.8958
  178MOL0     H24002   5.384  13.942   3.472  1.1952 -0.6273 -1.2951
  178MOL0     H24003   5.357  14.066   3.347 -3.4520 -1.0126 -0.2461
  178MOL0     H24004   5.339  14.150   3.644  1.4540  0.5577  1.3730
  178MOL0     H24005   5.411  14.250   3.509 -0.6956  1.2281  2.1126
  178MOL0     H24006   5.572  14.204   3.661 -3.0886  0.7354  0.5622
  178MOL0     H24007   5.571  14.032   3.637  4.1749 -0.4016 -1.5682
  178MOL0     H24008   5.623  14.226   3.404 -0.8110  0.4269  0.3615
  178MOL0     H24009   5.629  14.045   3.410 -0.6135 -2.1314  3.6266
  178MOL0     H24010   5.824  14.097   3.587 -0.5248 -0.1741  0.6473
  178MOL0     H24011   5.815  14.258   3.529  3.3676 -0.8812  0.1120
  178MOL0     H24012   4.910  13.662   3.108 -0.0314 -0.7408 -0.8309
  178MOL0     H24013   4.885  13.404   3.061  0.2152 -1.9928 -0.4834
  178MOL0     H24014   4.796  13.048   3.303  0.1063  0.2161  1.4892
  178MOL0     H24015   4.705  12.809   3.317  0.4141 -2.1830 -0.9593
  178MOL0     H24016   3.883  11.557   3.962 -0.0407  1.3748  0.7958
  178MOL0     H24017   3.760  11.359   4.028  1.2968  0.6382 -2.8731
  178MOL0     H24018   3.528  11.143   4.460 -0.0109 -1.2182  0.6606
  178MOL0     H24019   3.446  10.945   4.496  0.4116  2.3279  1.1444
  178MOL0     H24020   3.448  10.717   4.380  1.1626 -1.9232 -0.0959
  178MOL0     H24021   3.316  10.730   4.510 -1.6595 -1.6411 -0.7504
  178MOL0     H24022   3.271  10.566   4.273  2.9791  1.2406 -0.6855
  178MOL0     H24023   3.176  10.574   4.422 -0.2551 -2.1607 -0.4015
  178MOL0     H24024   3.392  10.460   4.542  1.4579 -4.0038 -0.1141
  178MOL0     H24025   3.437  10.440   4.368  2.4078 -0.2821  2.3836
  178MOL0     H24026   3.320  10.224   4.423  0.8592 -1.1075  2.0297
  178MOL0     H24027   3.203  10.326   4.353 -0.9134 -1.1655  0.5995
  178MOL0     H24028   3.031  10.326   4.726 -0.4312  1.4041 -1.7133
  178MOL0     H24029   3.215  10.961   4.155  0.0168 -0.1507 -1.5822
  178MOL0     H24030   3.314  11.183   4.078  0.4069 -1.2130  0.4097
  179MOL0     O24031   0.543   9.078   3.585 -0.5555  0.2396  0.1162
  179MOL0     C24032   0.606   9.170   3.629 -0.6220  0.3695  0.4906
  179MOL0     O24033   0.585   9.304   3.607  0.1493  0.2069 -0.4432
  179MOL0     C24034   0.462   9.337   3.572  0.0162 -0.6989 -0.3631
  179MOL0     C24035   0.351   9.275   3.636  0.2384 -0.2063  0.8168
  179MOL0     C24036   0.222   9.328   3.605 -1.6403  0.1277 -0.3724
  179MOL0     C24037   0.210   9.435   3.525 -0.0664 -1.5828 -0.6433
  179MOL0     O24038   0.088   9.481   3.503  0.1889 -1.1231  1.1797
  179MOL0     C24039  -0.028   9.397   3.491  0.7281 -0.6409  0.3623
  179MOL0     C24040  -0.111   9.446   3.375  0.7224  0.0268 -0.5824
  179MOL0     C24041  -0.196   9.563   3.411 -0.0510 -0.7574 -0.0928
  179MOL0     C24042  -0.339   9.512   3.446 -0.1070 -0.2827 -0.3865
  179MOL0     C24043  -0.412   9.488   3.309 -0.0092 -0.1416  0.8588
  179MOL0     C24044  -0.559   9.479   3.329  0.1246  0.0418  0.0488
  179MOL0     C24045  -0.634   9.462   3.200  0.7411  1.1706 -0.7081
  179MOL0     C24046  -0.791   9.449   3.220  0.4725 -0.0038 -0.1110
  179MOL0     N24047  -0.850   9.578   3.252  0.1407 -1.3472  0.3486
  179MOL0     C24048  -0.863   9.677   3.157  0.1527  0.0510  0.3222
  179MOL0     C24049  -0.929   9.773   3.228 -0.5365 -0.5449  1.2675
  179MOL0     C24050  -0.957   9.916   3.192 -0.1112  0.6964  0.1121
  179MOL0     C24051  -1.091   9.938   3.116 -0.3680  0.7799 -0.5182
  179MOL0     C24052  -1.084  10.067   3.046  0.2119  0.0005 -0.0611
  179MOL0     C24053  -1.220  10.111   2.997  0.0843  0.0360  0.3953
  179MOL0     O24054  -1.305  10.145   3.106  0.8562 -0.2643 -0.0912
  179MOL0     C24055  -1.421  10.080   3.120  0.6081  0.2761 -0.8450
  179MOL0     C24056  -1.460   9.953   3.079  0.0498 -0.4006  0.6528
  179MOL0     C24057  -1.580   9.895   3.123  0.5121 -0.2703  0.0416
  179MOL0     C24058  -1.609   9.756   3.085 -0.5376  0.8370  0.2416
  179MOL0     C24059  -1.666   9.968   3.208 -0.4555 -0.4095 -0.1505
  179MOL0     C24060  -1.796   9.923   3.254  0.3063  0.0704  0.4073
  179MOL0     O24061  -1.854   9.982   3.362  0.5686 -0.4348 -0.5888
  179MOL0     C24062  -1.966   9.923   3.422 -0.3556 -0.0379 -1.0220
  179MOL0     C24063  -1.967   9.788   3.464 -0.5985 -0.4902 -0.4540
  179MOL0     C24064  -2.075   9.737   3.534  0.2389  0.2211 -0.1376
  179MOL0     C24065  -2.177   9.831   3.573  0.6522 -0.8263  0.1075
  179MOL0     O24066  -2.294   9.812   3.640 -0.9121  0.0127 -0.5545
  179MOL0     C24067  -2.323   9.674   3.655 -0.7390  0.2604  0.3676
  179MOL0     C24068  -2.386   9.612   3.530 -0.0868  0.0709  0.9186
  179MOL0     C24069  -2.461   9.474   3.553 -0.3263  0.5764  1.2300
  179MOL0     C24070  -2.360   9.357   3.542 -0.1897 -0.1840 -0.5222
  179MOL0     C24071  -2.428   9.221   3.548 -0.4906  0.5440  0.2423
  179MOL0     C24072  -2.321   9.124   3.499 -0.2352 -0.0633  0.2629
  179MOL0     C24073  -2.375   8.979   3.528 -0.5909  0.0769 -1.0491
  179MOL0     C24074  -2.474   8.920   3.428 -0.6383  0.3917  0.2248
  179MOL0    Cl24075  -2.520   8.771   3.515 -0.1851  0.1633  0.1469
  179MOL0     C24076  -2.156   9.973   3.539 -0.7855  0.9578 -0.1544
  179MOL0     C24077  -2.056  10.017   3.459  0.7547  0.3119  0.3381
  179MOL0     O24078  -1.842   9.821   3.202 -0.1813  0.6062  0.1340
  179MOL0     C24079  -1.626  10.096   3.252 -0.3514  0.7093 -0.1155
  179MOL0     C24080  -1.509  10.154   3.205 -0.5495  0.6512  0.0574
  179MOL0     N24081  -0.935   9.736   3.361 -0.1903  0.0982  0.7027
  179MOL0     N24082  -0.893   9.620   3.374  0.4296 -0.9148  0.3072
  179MOL0     C24083   0.314   9.500   3.468  0.2997 -0.3986 -0.3048
  179MOL0     C24084   0.437   9.449   3.487 -0.3573 -0.5395 -0.5749
  179MOL0     C24085   0.727   9.133   3.702 -0.3482  0.3532 -0.2941
  179MOL0     C24086   0.831   9.224   3.727 -0.4363 -0.3300 -0.2485
  179MOL0     C24087   0.943   9.197   3.801 -0.8266  0.1884 -0.2657
  179MOL0     C24088   0.962   9.074   3.856 -1.0470  0.4830 -0.3025
  179MOL0     O24089   1.068   9.036   3.934 -0.0677  0.4918 -0.6177
  179MOL0     C24090   1.173   9.133   3.976  0.9930 -0.1765  1.1495
  179MOL0     C24091   1.282   9.051   4.035  0.1197 -0.1865  0.0065
  179MOL0     C24092   1.417   9.115   4.071  0.2131  0.8940  0.1599
  179MOL0     C24093   1.502   9.112   3.947 -0.3915  0.3477  0.1376
  179MOL0     C24094   1.611   9.019   3.956 -0.4095  1.1677 -0.9601
  179MOL0     C24095   1.707   8.939   3.967 -0.3108 -1.0128 -0.7020
  179MOL0     C24096   0.866   8.978   3.830  0.6052  0.1453 -0.1289
  179MOL0     C24097   0.754   8.999   3.753 -0.0377 -0.5017 -0.4098
  179MOL0     H24098   0.349   9.198   3.712 -3.4451  0.6566  1.8245
  179MOL0     H24099   0.129   9.287   3.643 -1.3371  1.2642  1.7657
  179MOL0     H24100  -0.002   9.294   3.464 -4.1529 -1.2108 -3.4861
  179MOL0     H24101  -0.082   9.391   3.586 -0.4133  0.7598 -0.1735
  179MOL0     H24102  -0.040   9.468   3.294 -0.0714  0.8017 -1.0893
  179MOL0     H24103  -0.171   9.362   3.342  1.0278  0.1127 -1.3883
  179MOL0     H24104  -0.162   9.615   3.500 -3.4338 -0.7605  1.3695
  179MOL0     H24105  -0.207   9.630   3.326 -2.1594  0.9100  1.3756
  179MOL0     H24106  -0.330   9.413   3.490  3.6493 -0.5855 -1.4581
  179MOL0     H24107  -0.385   9.582   3.516  1.4598 -0.0189  0.4289
  179MOL0     H24108  -0.377   9.566   3.241 -0.1473 -0.3232  0.5805
  179MOL0     H24109  -0.365   9.397   3.271  1.2337  0.6405  0.4264
  179MOL0     H24110  -0.576   9.388   3.389 -1.6882  0.6880  0.5856
  179MOL0     H24111  -0.601   9.564   3.383 -0.0253  0.1172 -0.1868
  179MOL0     H24112  -0.619   9.557   3.147 -1.3618  2.3085  0.6131
  179MOL0     H24113  -0.596   9.371   3.153 -0.4714 -1.7637  3.4261
  179MOL0     H24114  -0.810   9.375   3.298  0.4714  1.7004  1.5676
  179MOL0     H24115  -0.833   9.404   3.129 -0.1468  1.3728 -0.5301
  179MOL0     H24116  -0.853   9.676   3.049 -2.7101  3.1880 -0.1390
  179MOL0     H24117  -0.957   9.987   3.275  0.2891 -1.1870  1.7938
  179MOL0     H24118  -0.875   9.939   3.123  0.3537 -1.2351 -0.0324
  179MOL0     H24119  -1.166   9.947   3.195 -0.2427 -3.8804  0.4367
  179MOL0     H24120  -1.112   9.864   3.039  0.7693 -0.6239  0.4605
  179MOL0     H24121  -1.007  10.053   2.970  1.5569  0.5060  1.1646
  179MOL0     H24122  -1.048  10.148   3.110  0.2164  1.2480 -1.5853
  179MOL0     H24123  -1.254  10.034   2.926  0.4606  0.9192 -0.7808
  179MOL0     H24124  -1.204  10.198   2.932 -2.4505 -2.0904 -3.5068
  179MOL0     H24125  -1.401   9.889   3.013  0.2198 -1.2919  1.6421
  179MOL0     H24126  -1.521   9.704   3.046 -0.3642 -0.8848  2.7302
  179MOL0     H24127  -1.636   9.696   3.172 -4.2585 -1.2913 -2.0923
  179MOL0     H24128  -1.700   9.743   3.026  1.0657 -2.9189 -1.7825
  179MOL0     H24129  -1.892   9.719   3.425 -2.3870 -0.7150 -3.9444
  179MOL0     H24130  -2.070   9.634   3.568  2.6029  1.1675  2.9345
  179MOL0     H24131  -2.243   9.612   3.697 -2.6205 -1.7527  1.1887
  179MOL0     H24132  -2.401   9.664   3.731  0.9781 -0.0282  2.1765
  179MOL0     H24133  -2.466   9.677   3.494  0.1620  0.0765  0.3747
  179MOL0     H24134  -2.325   9.600   3.440 -1.2385 -3.7614  0.4429
  179MOL0     H24135  -2.548   9.455   3.489  0.5498 -1.1058  0.4735
  179MOL0     H24136  -2.499   9.465   3.655 -0.1684  1.8384  1.4076
  179MOL0     H24137  -2.307   9.363   3.447  0.0811 -3.4269 -0.6612
  179MOL0     H24138  -2.287   9.357   3.624 -0.9321 -0.5298  0.1612
  179MOL0     H24139  -2.518   9.220   3.485  1.4239  1.7533 -2.7434
  179MOL0     H24140  -2.457   9.199   3.651  1.3883 -0.0633  0.6913
  179MOL0     H24141  -2.310   9.135   3.391 -2.7678 -1.4805 -0.2229
  179MOL0     H24142  -2.225   9.139   3.549 -0.1103 -1.7415  0.5861
  179MOL0     H24143  -2.398   8.973   3.635  1.7250  1.3117 -0.4071
  179MOL0     H24144  -2.288   8.914   3.518  0.5483  1.2197  0.8332
  179MOL0     H24145  -2.429   8.889   3.333  1.2962  1.2282  0.7953
  179MOL0     H24146  -2.562   8.978   3.400 -0.7558 -0.3444 -0.9705
  179MOL0     H24147  -2.221  10.055   3.568 -1.4906 -0.6661  3.2787
  179MOL0     H24148  -2.038  10.121   3.433 -1.1852  0.7256  0.4854
  179MOL0     H24149  -1.673  10.157   3.328  3.3636 -0.5277  3.5278
  179MOL0     H24150  -1.486  10.254   3.240 -1.0231  0.3861  1.1745
  179MOL0     H24151   0.287   9.588   3.410  1.0751 -1.8012 -2.9345
  179MOL0     H24152   0.522   9.491   3.433 -0.8132 -1.1325 -1.7823
  179MOL0     H24153   0.812   9.325   3.693 -0.2263  0.6626  2.3812
  179MOL0     H24154   1.020   9.271   3.820  0.4743 -1.5742  1.7601
  179MOL0     H24155   1.213   9.189   3.891  1.6009  2.2439  2.8825
  179MOL0     H24156   1.131   9.204   4.049  0.4350 -0.7176  1.3597
  179MOL0     H24157   1.309   8.966   3.972  0.1972 -0.0784 -0.1064
  179MOL0     H24158   1.242   8.993   4.119 -0.5177 -1.1887 -0.9641
  179MOL0     H24159   1.456   9.080   4.167 -0.5112  1.9061  0.8458
  179MOL0     H24160   1.387   9.219   4.086  0.6543  1.2739 -1.4338
  179MOL0     H24161   1.552   9.209   3.946  0.0747  0.3063  4.4169
  179MOL0     H24162   1.441   9.095   3.857  1.7217  1.0426 -1.5261
  179MOL0     H24163   1.784   8.867   3.982  2.1363  1.1625 -1.8679
  179MOL0     H24164   0.886   8.883   3.879 -0.7599 -0.2723 -0.3362
  179MOL0     H24165   0.689   8.920   3.716  0.3612 -0.9929 -0.0653
  180MOL0     O24166   2.308   8.006   0.932 -0.1037 -0.1832  0.2884
  180MOL0     C24167   2.379   7.921   0.976  0.3148 -0.3346 -0.1480
  180MOL0     O24168   2.405   7.805   0.909 -0.2769  0.1859  0.4167
  180MOL0     C24169   2.338   7.760   0.799  0.0261 -0.0475 -0.3040
  180MOL0     C24170   2.207   7.700   0.807  0.0601 -0.8656  1.3562
  180MOL0     C24171   2.147   7.654   0.690  0.0959  0.3277  0.0545
  180MOL0     C24172   2.204   7.668   0.567  0.5132 -0.9275 -0.0231
  180MOL0     O24173   2.135   7.630   0.454 -0.6774 -0.5934 -0.0139
  180MOL0     C24174   2.059   7.507   0.444  0.3126  0.3933 -0.4313
  180MOL0     C24175   1.909   7.520   0.447  0.4181 -1.0037 -0.5465
  180MOL0     C24176   1.858   7.629   0.360 -0.2936 -0.2869  0.5623
  180MOL0     C24177   1.704   7.650   0.370 -0.8668  0.5975 -0.7508
  180MOL0     C24178   1.663   7.781   0.305 -0.0973  0.1052 -0.6093
  180MOL0     C24179   1.509   7.772   0.283  0.2535  0.7269 -0.2898
  180MOL0     C24180   1.443   7.899   0.238  0.3414 -0.3960  0.2110
  180MOL0     C24181   1.497   7.963   0.111 -0.2655  0.6146  0.7698
  180MOL0     N24182   1.441   8.095   0.089  0.3904 -0.2132 -0.2250
  180MOL0     C24183   1.391   8.136  -0.029 -0.6382  0.1167 -0.6091
  180MOL0     C24184   1.310   8.240  -0.011 -0.1058  0.1930  0.8658
  180MOL0     C24185   1.251   8.326  -0.123 -0.5656  0.3174 -0.5062
  180MOL0     C24186   1.352   8.374  -0.235 -0.2499 -0.5535 -0.4767
  180MOL0     C24187   1.306   8.497  -0.316 -0.0458 -0.0820 -0.5352
  180MOL0     C24188   1.189   8.472  -0.397 -0.7036  0.3649  0.2862
  180MOL0     O24189   1.174   8.577  -0.494  0.8599  0.4050  0.0849
  180MOL0     C24190   1.050   8.625  -0.535 -0.0564  0.0446 -0.2094
  180MOL0     C24191   1.051   8.734  -0.628 -0.9840  0.1939 -0.7895
  180MOL0     C24192   0.938   8.766  -0.687  1.4261  0.2376  1.0104
  180MOL0     C24193   0.936   8.872  -0.795 -0.1941  0.8669  0.4004
  180MOL0     C24194   0.812   8.718  -0.640  0.3060 -0.0708 -0.3688
  180MOL0     C24195   0.678   8.748  -0.693  0.1937 -1.1848  0.3825
  180MOL0     O24196   0.655   8.879  -0.725  0.4105 -0.3920  0.6578
  180MOL0     C24197   0.555   8.910  -0.813  0.1834  0.0898  0.1828
  180MOL0     C24198   0.426   8.870  -0.781  1.3966 -1.2064 -0.0359
  180MOL0     C24199   0.327   8.897  -0.875  0.2464  0.6537  0.3308
  180MOL0     C24200   0.349   8.963  -0.998  0.7784  0.6290  1.0215
  180MOL0     O24201   0.238   8.987  -1.085 -0.5516  0.4110 -0.1943
  180MOL0     C24202   0.223   9.132  -1.117  0.0672  0.6276 -0.1853
  180MOL0     C24203   0.261   9.146  -1.264 -0.7871  1.0435 -0.0819
  180MOL0     C24204   0.329   9.276  -1.312  0.9781 -0.5758  0.7314
  180MOL0     C24205   0.455   9.257  -1.397 -0.0525  0.0559  0.1847
  180MOL0     C24206   0.469   9.379  -1.501  0.4265 -0.3724 -0.2493
  180MOL0     C24207   0.549   9.340  -1.633 -0.1494  0.4887  0.4066
  180MOL0     C24208   0.483   9.232  -1.728  0.6300  0.8456  0.4606
  180MOL0     C24209   0.342   9.281  -1.760 -0.7723  0.2392  0.7910
  180MOL0    Cl24210   0.353   9.439  -1.847  1.0900  0.4670  0.0162
  180MOL0     C24211   0.474   8.991  -1.025 -0.1065 -0.0656  0.2013
  180MOL0     C24212   0.577   8.980  -0.928  0.0708 -0.2993 -0.4461
  180MOL0     O24213   0.611   8.650  -0.726  0.1944 -0.3337 -0.6642
  180MOL0     C24214   0.817   8.621  -0.538 -0.2644  0.4683 -0.5388
  180MOL0     C24215   0.931   8.565  -0.489  0.4605  0.2716 -0.5503
  180MOL0     N24216   1.318   8.265   0.120 -0.4167 -0.0658 -0.4673
  180MOL0     N24217   1.392   8.179   0.181 -0.2197  0.4636 -0.4185
  180MOL0     C24218   2.325   7.735   0.558 -0.0166 -0.3606 -0.2013
  180MOL0     C24219   2.399   7.771   0.673 -0.3355  0.9103  0.1241
  180MOL0     C24220   2.445   7.939   1.103  0.7879  0.0161 -0.3051
  180MOL0     C24221   2.457   7.826   1.185  0.1897  0.3541 -0.5872
  180MOL0     C24222   2.523   7.836   1.316 -0.6179  0.0016  0.0145
  180MOL0     C24223   2.574   7.962   1.357 -0.3949  0.1053  0.3263
  180MOL0     O24224   2.638   7.996   1.470  0.5735  0.4105  0.1019
  180MOL0     C24225   2.644   7.889   1.570 -0.1112 -0.1327 -0.2513
  180MOL0     C24226   2.725   7.943   1.689 -0.0958  0.0350  0.0396
  180MOL0     C24227   2.639   8.041   1.764 -0.1728 -0.5942  0.0659
  180MOL0     C24228   2.707   8.105   1.882 -1.0518 -0.1251  0.2331
  180MOL0     C24229   2.633   8.211   1.933  0.6747 -0.1750  1.1433
  180MOL0     C24230   2.553   8.294   1.979 -0.0122 -0.3282  0.5987
  180MOL0     C24231   2.554   8.075   1.276 -0.0693  0.1162  0.2818
  180MOL0     C24232   2.497   8.057   1.150  0.4075  0.6304  0.7033
  180MOL0     H24233   2.171   7.687   0.908  1.3571 -0.4390  1.8960
  180MOL0     H24234   2.049   7.617   0.721  1.0687 -0.3494  2.5963
  180MOL0     H24235   2.081   7.459   0.348  0.1637  0.6378 -0.5907
  180MOL0     H24236   2.080   7.444   0.531 -0.8418  1.1675  0.4451
  180MOL0     H24237   1.861   7.426   0.417  1.8202 -0.9503 -3.3702
  180MOL0     H24238   1.885   7.540   0.551  0.1147 -0.8320 -0.6502
  180MOL0     H24239   1.904   7.722   0.394 -1.2768  0.4247 -0.0145
  180MOL0     H24240   1.881   7.615   0.254 -0.9104  1.6213  0.1399
  180MOL0     H24241   1.655   7.567   0.319  3.4254 -4.8239  2.7587
  180MOL0     H24242   1.675   7.652   0.475 -1.1309  2.5600 -0.8097
  180MOL0     H24243   1.683   7.865   0.372 -0.0952  0.3648 -0.9346
  180MOL0     H24244   1.714   7.799   0.210  1.8207  0.6113  0.4748
  180MOL0     H24245   1.495   7.698   0.204 -0.4126 -0.0781  0.5532
  180MOL0     H24246   1.448   7.728   0.363  2.0153 -2.8094 -0.6822
  180MOL0     H24247   1.340   7.885   0.205  0.9516 -0.5142 -1.7773
  180MOL0     H24248   1.443   7.961   0.328  0.1194 -1.6699  1.1138
  180MOL0     H24249   1.477   7.898   0.026 -2.6262  0.5141  1.3192
  180MOL0     H24250   1.603   7.974   0.135  0.2234 -2.7576  0.5431
  180MOL0     H24251   1.411   8.090  -0.125 -3.4151 -1.4287 -0.5455
  180MOL0     H24252   1.175   8.266  -0.174 -0.0877 -0.2379 -0.5863
  180MOL0     H24253   1.216   8.409  -0.062  3.0001  1.2629  0.4862
  180MOL0     H24254   1.388   8.295  -0.301  3.4914 -0.2276  0.9419
  180MOL0     H24255   1.449   8.402  -0.193  1.2758 -4.2745 -1.1615
  180MOL0     H24256   1.387   8.533  -0.380  0.3892  3.3593  1.6797
  180MOL0     H24257   1.289   8.577  -0.244 -0.6668  0.5880 -1.4039
  180MOL0     H24258   1.104   8.449  -0.333  0.1766 -0.6204  1.1325
  180MOL0     H24259   1.217   8.378  -0.445 -0.6099 -0.1795  1.3727
  180MOL0     H24260   1.137   8.793  -0.659 -0.1963  0.9172  2.3777
  180MOL0     H24261   0.842   8.881  -0.850  0.0732  1.2963  0.0118
  180MOL0     H24262   0.940   8.968  -0.742 -3.7259  0.7555  1.0851
  180MOL0     H24263   1.017   8.864  -0.868 -1.2461  1.0178 -0.8176
  180MOL0     H24264   0.399   8.832  -0.683  0.9521  0.2869  0.4484
  180MOL0     H24265   0.231   8.849  -0.855 -0.0600  2.0531  2.5895
  180MOL0     H24266   0.126   9.177  -1.095 -0.0281  0.2041  0.2763
  180MOL0     H24267   0.287   9.196  -1.056  0.6974 -1.1215  1.0664
  180MOL0     H24268   0.312   9.058  -1.302  1.3784  0.8885  2.9066
  180MOL0     H24269   0.165   9.134  -1.316 -2.3158 -2.7198  3.1594
  180MOL0     H24270   0.358   9.345  -1.232 -0.4791  0.2877  0.5479
  180MOL0     H24271   0.256   9.331  -1.372  0.6929 -2.3874 -0.6623
  180MOL0     H24272   0.547   9.246  -1.338 -1.0555  0.9632  2.0112
  180MOL0     H24273   0.438   9.162  -1.448 -0.3377  0.3163 -0.2123
  180MOL0     H24274   0.521   9.461  -1.449 -2.0242  0.2549  1.3622
  180MOL0     H24275   0.374   9.424  -1.532  0.2040 -0.5984  0.1072
  180MOL0     H24276   0.563   9.434  -1.686  1.7444  0.2925  0.4930
  180MOL0     H24277   0.646   9.294  -1.609  0.4984  2.0064  0.7729
  180MOL0     H24278   0.477   9.133  -1.683 -2.2414  1.5307  1.7991
  180MOL0     H24279   0.544   9.204  -1.814 -0.8039 -0.0571 -0.3006
  180MOL0     H24280   0.274   9.295  -1.675 -3.0970  0.4535 -0.9859
  180MOL0     H24281   0.292   9.206  -1.823 -2.6186  4.0955 -2.8478
  180MOL0     H24282   0.502   9.044  -1.116  1.6602  1.6721  1.6479
  180MOL0     H24283   0.677   9.012  -0.956  1.4056 -1.6082  2.4004
  180MOL0     H24284   0.727   8.578  -0.496 -0.3573  0.4423 -0.7625
  180MOL0     H24285   0.934   8.485  -0.416  0.7119  0.5211 -0.2831
  180MOL0     H24286   2.358   7.745   0.455  1.4264 -0.2952  0.2559
  180MOL0     H24287   2.497   7.817   0.661 -0.7133  1.8573  0.5923
  180MOL0     H24288   2.426   7.726   1.153  1.6287 -1.2227  2.5136
  180MOL0     H24289   2.539   7.749   1.379 -2.5409 -0.6064 -0.2506
  180MOL0     H24290   2.540   7.870   1.597 -0.0266 -0.5899 -0.2501
  180MOL0     H24291   2.682   7.793   1.536 -2.0920 -2.3897  3.2815
  180MOL0     H24292   2.822   7.974   1.648 -0.6187  1.3733 -0.2084
  180MOL0     H24293   2.750   7.858   1.754 -1.5433 -0.9934 -0.6876
  180MOL0     H24294   2.549   7.982   1.784 -1.1583  1.0121  0.5174
  180MOL0     H24295   2.607   8.119   1.694 -1.6165 -0.7516  0.5238
  180MOL0     H24296   2.807   8.145   1.867 -1.6389  0.8854 -1.2794
  180MOL0     H24297   2.726   8.038   1.967  1.4175  0.7131  0.4170
  180MOL0     H24298   2.464   8.347   2.005  0.4124  0.7598 -0.0694
  180MOL0     H24299   2.598   8.169   1.307  1.8290 -0.8031  0.5034
  180MOL0     H24300   2.473   8.144   1.090 -0.6267  0.4524  0.8334
  181MOL0     O24301  10.382  10.844   5.752 -0.0462  0.1770 -1.2129
  181MOL0     C24302  10.282  10.775   5.774 -0.1462 -0.4073 -1.0268
  181MOL0     O24303  10.282  10.653   5.803  0.0256  0.0971  0.1024
  181MOL0     C24304  10.398  10.581   5.825 -0.8383  0.5527 -0.6712
  181MOL0     C24305  10.524  10.599   5.775 -0.9438  0.0285 -0.0809
  181MOL0     C24306  10.631  10.509   5.794 -0.1686  0.6695 -0.8871
  181MOL0     C24307  10.610  10.389   5.865 -0.4908 -0.1183 -0.0078
  181MOL0     O24308  10.708  10.307   5.905  0.6039  0.0818 -0.1636
  181MOL0     C24309  10.841  10.351   5.936  0.0318  0.2074  0.1334
  181MOL0     C24310  10.845  10.422   6.064 -0.7473  0.3130 -0.0541
  181MOL0     C24311  10.852  10.308   6.173  0.3175  0.3415 -0.5029
  181MOL0     C24312  10.860  10.376   6.316 -0.4079  0.6348  0.0488
  181MOL0     C24313  10.887  10.269   6.429  0.2383 -0.4603  0.0530
  181MOL0     C24314  11.033  10.216   6.432  0.0432  1.3083  0.6300
  181MOL0     C24315  11.041  10.116   6.551  0.6719 -0.0097  0.5126
  181MOL0     C24316  11.178  10.035   6.534  0.9142  0.6263  0.4009
  181MOL0     N24317  11.297  10.127   6.495  0.5362  1.1029  0.1866
  181MOL0     C24318  11.341  10.149   6.371  0.6041 -0.9157  0.3491
  181MOL0     C24319  11.414  10.267   6.369  1.0494  0.5167 -0.0906
  181MOL0     C24320  11.493  10.328   6.264  0.1787 -0.3472  0.5523
  181MOL0     C24321  11.468  10.477   6.254  0.0202 -0.9600  0.7591
  181MOL0     C24322  11.326  10.520   6.217 -0.0545  0.2971  0.2958
  181MOL0     C24323  11.314  10.671   6.182 -0.7911 -0.5506  0.5112
  181MOL0     O24324  11.241  10.760   6.269 -1.0169 -0.0321  0.6363
  181MOL0     C24325  11.108  10.747   6.289  0.5248  0.4323 -0.6085
  181MOL0     C24326  11.019  10.770   6.180  0.4338  0.8842  0.7877
  181MOL0     C24327  10.876  10.759   6.191  0.3200 -0.8697  0.0405
  181MOL0     C24328  10.795  10.783   6.068  0.6642 -0.4254 -0.3422
  181MOL0     C24329  10.820  10.736   6.320  0.0400  0.1413 -0.1190
  181MOL0     C24330  10.676  10.713   6.352 -0.3542 -0.1766 -0.4235
  181MOL0     O24331  10.595  10.679   6.254  0.0134  0.1385  0.0684
  181MOL0     C24332  10.460  10.657   6.284 -0.5097 -0.2459  0.1634
  181MOL0     C24333  10.398  10.548   6.350  0.0032 -0.3505 -0.9863
  181MOL0     C24334  10.264  10.542   6.366 -0.1591 -0.6899 -0.4205
  181MOL0     C24335  10.191  10.652   6.337  0.6437 -0.4078  0.2548
  181MOL0     O24336  10.055  10.640   6.353  0.0489  0.0222  0.3182
  181MOL0     C24337   9.975  10.747   6.381  0.2656  0.2550 -0.6628
  181MOL0     C24338   9.829  10.691   6.373  1.0490  0.5776 -0.3774
  181MOL0     C24339   9.740  10.796   6.442  0.1202 -0.6565  0.1636
  181MOL0     C24340   9.598  10.765   6.418 -0.0738  0.4444  0.4259
  181MOL0     C24341   9.529  10.793   6.549  0.0457 -0.1295  0.3600
  181MOL0     C24342   9.374  10.773   6.534 -0.6659 -0.0942 -0.4307
  181MOL0     C24343   9.292  10.786   6.657  0.1225 -0.6961  0.1774
  181MOL0     C24344   9.177  10.690   6.668 -0.3516 -0.1321 -1.3770
  181MOL0    Cl24345   9.039  10.778   6.738  0.5213  0.0284  0.5215
  181MOL0     C24346  10.249  10.771   6.286 -0.4144 -0.7644 -0.8552
  181MOL0     C24347  10.382  10.769   6.254 -0.4628 -1.1900 -0.3439
  181MOL0     O24348  10.648  10.718   6.469 -0.2158 -0.3913 -0.4612
  181MOL0     C24349  10.912  10.732   6.431 -0.1451  0.8700  0.0618
  181MOL0     C24350  11.053  10.728   6.417  1.2303 -0.4369  0.0902
  181MOL0     N24351  11.417  10.309   6.503  0.2316  0.1665 -0.8036
  181MOL0     N24352  11.337  10.227   6.576  0.3355 -0.1294  0.4892
  181MOL0     C24353  10.484  10.371   5.917  0.3491 -0.2409 -0.0061
  181MOL0     C24354  10.382  10.462   5.884 -0.2774  0.2959  0.4158
  181MOL0     C24355  10.151  10.841   5.732  0.6740  0.8155  1.0615
  181MOL0     C24356  10.034  10.762   5.713 -0.0272 -0.0198 -0.1120
  181MOL0     C24357   9.915  10.817   5.673 -1.7009  0.2791 -0.2092
  181MOL0     C24358   9.894  10.956   5.651  0.4012 -0.1056 -0.1021
  181MOL0     O24359   9.766  10.996   5.627  0.3204  0.4151  0.5364
  181MOL0     C24360   9.717  11.131   5.623  1.0695 -0.0348  1.0621
  181MOL0     C24361   9.569  11.117   5.560 -0.6933 -0.1064  0.0066
  181MOL0     C24362   9.490  11.250   5.578 -0.8229 -1.0542 -0.6009
  181MOL0     C24363   9.347  11.218   5.539 -0.8302 -0.6936 -0.3982
  181MOL0     C24364   9.263  11.336   5.540 -0.7558  0.0730  0.3798
  181MOL0     C24365   9.192  11.433   5.532  0.4899  0.7034  0.7265
  181MOL0     C24366  10.011  11.035   5.668 -0.4518 -1.0291 -0.2867
  181MOL0     C24367  10.131  10.979   5.707 -0.7594  0.1657 -0.1612
  181MOL0     H24368  10.548  10.688   5.717 -2.8533  1.6505  1.4472
  181MOL0     H24369  10.726  10.529   5.745 -0.5900  2.4513 -1.0653
  181MOL0     H24370  10.907  10.265   5.923 -1.3071 -0.5677 -2.0992
  181MOL0     H24371  10.880  10.404   5.849  0.4328 -2.4195 -1.3981
  181MOL0     H24372  10.937  10.479   6.073 -0.0256 -0.6047 -1.3040
  181MOL0     H24373  10.754  10.479   6.085 -2.0312 -1.8434  0.6506
  181MOL0     H24374  10.766  10.243   6.155  0.5483  0.5359 -2.5537
  181MOL0     H24375  10.947  10.254   6.165 -1.1608 -2.2815 -1.8733
  181MOL0     H24376  10.946  10.442   6.331 -0.0538 -0.1832  2.0244
  181MOL0     H24377  10.763  10.423   6.332 -2.6496 -3.1397 -1.2549
  181MOL0     H24378  10.843  10.298   6.525 -1.4776 -1.1974 -0.4717
  181MOL0     H24379  10.820  10.188   6.399  0.3689  1.1519 -5.9492
  181MOL0     H24380  11.049  10.159   6.340 -0.5125  4.2024 -1.3958
  181MOL0     H24381  11.104  10.299   6.435  1.7799 -0.0944  0.1090
  181MOL0     H24382  11.061  10.168   6.646  1.7239  2.0386 -0.7631
  181MOL0     H24383  10.961  10.043   6.563  1.9226 -1.0744  3.3724
  181MOL0     H24384  11.156   9.965   6.453 -0.4806  1.7963 -0.2840
  181MOL0     H24385  11.185   9.980   6.628 -2.1033  1.1057  1.0031
  181MOL0     H24386  11.317  10.095   6.280  2.8288 -0.3779 -0.6341
  181MOL0     H24387  11.596  10.293   6.276  0.6917 -2.0093 -5.5338
  181MOL0     H24388  11.472  10.272   6.173 -0.9894 -2.1124  1.8360
  181MOL0     H24389  11.527  10.514   6.170 -1.7652 -1.0526 -0.6052
  181MOL0     H24390  11.500  10.532   6.342  0.8697  2.9015 -1.7323
  181MOL0     H24391  11.249  10.505   6.293 -0.3542 -1.0886 -0.2505
  181MOL0     H24392  11.294  10.461   6.131  3.1808 -1.3711  0.0740
  181MOL0     H24393  11.269  10.684   6.083 -1.0796  0.6285  0.7763
  181MOL0     H24394  11.411  10.716   6.162 -1.9214  1.5063 -0.7383
  181MOL0     H24395  11.051  10.788   6.078  0.2300 -0.9278  0.3765
  181MOL0     H24396  10.703  10.834   6.097  0.6354 -1.0715  0.7671
  181MOL0     H24397  10.851  10.844   5.997 -0.9041 -0.4386 -1.6475
  181MOL0     H24398  10.758  10.691   6.021 -1.2296 -0.2963  0.7707
  181MOL0     H24399  10.446  10.457   6.385  1.9823  1.1121  0.4130
  181MOL0     H24400  10.199  10.459   6.392 -0.4616 -0.3688 -0.1410
  181MOL0     H24401   9.997  10.786   6.480  0.6972 -0.9485 -0.2614
  181MOL0     H24402   9.982  10.832   6.313 -2.3754 -0.3339 -1.7690
  181MOL0     H24403   9.796  10.676   6.269 -1.3111 -0.3664  0.4377
  181MOL0     H24404   9.824  10.596   6.425  0.7594 -0.3420 -2.0025
  181MOL0     H24405   9.765  10.897   6.410 -0.8054 -0.6401 -0.5702
  181MOL0     H24406   9.766  10.793   6.548 -1.1802  1.1014  0.5791
  181MOL0     H24407   9.558  10.829   6.339 -1.5281 -2.0760 -1.0073
  181MOL0     H24408   9.594  10.663   6.378  0.9632  0.1616  1.0019
  181MOL0     H24409   9.546  10.899   6.569  0.7602  0.2255 -1.7639
  181MOL0     H24410   9.566  10.741   6.637 -0.4414  0.9772  1.2365
  181MOL0     H24411   9.348  10.854   6.465  0.0187  0.3017 -0.2239
  181MOL0     H24412   9.351  10.677   6.488  1.1161 -0.8092  0.0822
  181MOL0     H24413   9.258  10.890   6.655  1.7681 -0.0380  2.2286
  181MOL0     H24414   9.354  10.771   6.746 -0.9202 -0.7007  0.9206
  181MOL0     H24415   9.212  10.601   6.722 -1.0614  0.5229  0.2392
  181MOL0     H24416   9.140  10.671   6.567 -1.8322 -2.0844 -0.5412
  181MOL0     H24417  10.173  10.847   6.270 -3.3013 -2.6783  2.2308
  181MOL0     H24418  10.436  10.852   6.208 -0.1916 -1.1106  0.1203
  181MOL0     H24419  10.884  10.714   6.534  0.3922 -0.1454  0.0438
  181MOL0     H24420  11.104  10.717   6.512  0.9761  2.7549  0.7064
  181MOL0     H24421  10.462  10.281   5.972 -1.7241  0.7621  0.9150
  181MOL0     H24422  10.277  10.440   5.896 -0.3509 -1.5489 -2.4411
  181MOL0     H24423  10.036  10.654   5.723  0.3536 -0.1520 -1.4029
  181MOL0     H24424   9.830  10.749   5.675 -1.7170  0.2598 -1.0046
  181MOL0     H24425   9.715  11.179   5.721  0.4187  0.5620  0.7583
  181MOL0     H24426   9.770  11.193   5.551  0.6750  0.4482  1.1886
  181MOL0     H24427   9.516  11.031   5.602 -0.7231 -0.2622 -0.3480
  181MOL0     H24428   9.572  11.105   5.452  0.0274  0.1944 -0.0138
  181MOL0     H24429   9.543  11.321   5.514 -2.1910 -1.1211 -1.8578
  181MOL0     H24430   9.490  11.295   5.678  0.9077 -0.2224 -0.9400
  181MOL0     H24431   9.303  11.151   5.613 -0.6024 -0.7695 -0.3298
  181MOL0     H24432   9.344  11.149   5.453 -1.6894 -1.5061  0.2690
  181MOL0     H24433   9.131  11.521   5.521  1.5377  1.2788 -0.7482
  181MOL0     H24434  10.005  11.143   5.673  1.2102 -0.8850 -0.7788
  181MOL0     H24435  10.216  11.045   5.719 -0.0687 -0.9992  1.6217
  182MOL0     O24436   1.264   6.958  10.557 -0.6209 -0.8773 -0.2622
  182MOL0     C24437   1.232   6.849  10.510 -0.6947  0.2130  0.2845
  182MOL0     O24438   1.162   6.750  10.573  0.4666  1.1413  0.1381
  182MOL0     C24439   1.114   6.768  10.697  0.4363 -0.0351 -0.5546
  182MOL0     C24440   1.165   6.690  10.799 -0.4277  0.5497 -0.7674
  182MOL0     C24441   1.130   6.719  10.933  0.1759 -1.0552  0.0396
  182MOL0     C24442   1.038   6.825  10.963 -0.9540  0.1826  0.4385
  182MOL0     O24443   1.001   6.852  11.090  0.0391 -0.2365  0.3903
  182MOL0     C24444   1.062   6.806  11.208 -0.1163  0.3659 -0.0526
  182MOL0     C24445   0.971   6.854  11.324 -0.0419  0.7262  0.0032
  182MOL0     C24446   1.011   6.778  11.456  0.0780  0.0109  0.1571
  182MOL0     C24447   0.915   6.821  11.568  0.4917  0.3052 -0.5704
  182MOL0     C24448   0.916   6.727  11.693  0.0687  0.8602 -0.1176
  182MOL0     C24449   1.017   6.753  11.802 -0.3438 -0.9863 -0.4654
  182MOL0     C24450   0.993   6.669  11.923  0.4936 -1.0358 -0.0568
  182MOL0     C24451   1.087   6.722  12.025  0.2440 -0.7484 -0.0888
  182MOL0     N24452   1.084   6.633  12.139 -0.3454 -1.0545 -0.3489
  182MOL0     C24453   1.019   6.652  12.261 -0.4242 -1.1058  0.9311
  182MOL0     C24454   1.020   6.535  12.318  0.0271 -0.4362 -0.4986
  182MOL0     C24455   0.952   6.500  12.443  0.2875 -0.1734  0.2624
  182MOL0     C24456   0.823   6.587  12.474 -0.0364 -0.1692  0.0117
  182MOL0     C24457   0.693   6.507  12.449 -0.2115 -0.2892  0.2659
  182MOL0     C24458   0.583   6.560  12.539  0.2855  0.0485  0.9899
  182MOL0     O24459   0.553   6.694  12.523 -0.9939  0.3814 -0.0521
  182MOL0     C24460   0.431   6.734  12.568 -0.3054  0.2549 -0.2253
  182MOL0     C24461   0.434   6.853  12.649  0.3676  0.2946 -0.7620
  182MOL0     C24462   0.313   6.896  12.707 -0.0778  0.0235 -0.2043
  182MOL0     C24463   0.319   7.030  12.774 -0.0443 -0.3264 -0.3137
  182MOL0     C24464   0.192   6.826  12.684 -0.1574 -1.1273  0.4255
  182MOL0     C24465   0.058   6.864  12.738 -0.0532  0.0656 -0.1342
  182MOL0     O24466  -0.049   6.841  12.653  0.4687  0.7508 -0.9314
  182MOL0     C24467  -0.183   6.868  12.667 -0.9928  0.0813 -0.2247
  182MOL0     C24468  -0.234   6.958  12.764 -0.7026  0.2305  0.5233
  182MOL0     C24469  -0.373   6.973  12.781  0.9347  0.3112 -0.6528
  182MOL0     C24470  -0.459   6.906  12.699  0.2540  0.1691 -0.1737
  182MOL0     O24471  -0.592   6.928  12.696  0.7570 -0.0919 -0.4067
  182MOL0     C24472  -0.671   6.990  12.809 -0.2751 -0.1503 -0.5492
  182MOL0     C24473  -0.654   7.139  12.800  0.6164 -0.2304  0.4699
  182MOL0     C24474  -0.747   7.213  12.707 -0.4317 -0.5925 -0.1898
  182MOL0     C24475  -0.891   7.190  12.693  0.5703  0.1369  0.1054
  182MOL0     C24476  -0.941   7.275  12.572 -0.2745  0.3791 -0.1596
  182MOL0     C24477  -1.088   7.255  12.555 -0.5960  0.8491  0.2180
  182MOL0     C24478  -1.161   7.362  12.635 -0.2181 -0.5539 -0.4007
  182MOL0     C24479  -1.311   7.385  12.603  1.4174 -0.0954 -0.2191
  182MOL0    Cl24480  -1.425   7.282  12.695  0.0405  0.5718  0.0534
  182MOL0     C24481  -0.404   6.816  12.602 -0.0650 -0.9973 -1.0218
  182MOL0     C24482  -0.265   6.804  12.591 -0.0709  0.5417  1.4667
  182MOL0     O24483   0.055   6.930  12.842 -0.5701  0.7383 -0.4217
  182MOL0     C24484   0.199   6.715  12.597  0.6382  0.7683 -0.2180
  182MOL0     C24485   0.313   6.668  12.539 -0.2840 -0.6515 -0.1818
  182MOL0     N24486   1.104   6.453  12.244  0.0639 -0.1209 -0.3428
  182MOL0     N24487   1.144   6.511  12.134  0.2907  0.4998 -0.0296
  182MOL0     C24488   0.980   6.893  10.856  1.3361 -0.1853  0.0244
  182MOL0     C24489   1.017   6.872  10.723  0.0447  0.6032 -1.1195
  182MOL0     C24490   1.254   6.815  10.370  0.7469 -1.1656  0.7431
  182MOL0     C24491   1.320   6.909  10.288  0.1795  0.7299 -0.0875
  182MOL0     C24492   1.311   6.905  10.148 -1.0666  0.2024  0.4449
  182MOL0     C24493   1.269   6.793  10.088  0.0877 -1.1791 -0.4881
  182MOL0     O24494   1.271   6.789   9.952  0.1927  0.3848 -0.1992
  182MOL0     C24495   1.204   6.679   9.886  0.3093 -0.0420 -0.2938
  182MOL0     C24496   1.291   6.555   9.880 -0.2278  0.2503 -0.2045
  182MOL0     C24497   1.434   6.574   9.841 -0.3883  1.6031 -0.9941
  182MOL0     C24498   1.447   6.593   9.693  0.5249  1.2798 -0.0151
  182MOL0     C24499   1.577   6.629   9.645 -0.6485 -0.2722 -0.6310
  182MOL0     C24500   1.693   6.661   9.612  0.8928  0.7172 -0.0884
  182MOL0     C24501   1.222   6.687  10.168  0.4013  0.5980 -0.2850
  182MOL0     C24502   1.208   6.697  10.308 -0.7953  0.8884 -0.4182
  182MOL0     H24503   1.241   6.612  10.789 -0.5424  0.1627  1.0054
  182MOL0     H24504   1.192   6.670  11.008 -0.7360  0.4471  1.8517
  182MOL0     H24505   1.069   6.697  11.201 -1.4278  0.3290 -1.3373
  182MOL0     H24506   1.164   6.847  11.212  0.0393 -0.1149  1.4307
  182MOL0     H24507   0.975   6.963  11.333  2.7400  1.0253 -2.9965
  182MOL0     H24508   0.879   6.824  11.273  0.1673  1.1090 -0.6050
  182MOL0     H24509   1.005   6.671  11.434  1.9721 -0.0291 -0.3018
  182MOL0     H24510   1.116   6.802  11.474 -0.4083  2.5938  0.0252
  182MOL0     H24511   0.929   6.925  11.598 -0.9326  0.5304 -0.6188
  182MOL0     H24512   0.814   6.814  11.525  0.4405  0.1105 -0.4151
  182MOL0     H24513   0.819   6.738  11.742  0.0315 -2.1670  0.6816
  182MOL0     H24514   0.913   6.624  11.657 -0.0245  0.7356  0.2411
  182MOL0     H24515   1.117   6.736  11.761 -0.9112 -1.5640 -1.6475
  182MOL0     H24516   1.012   6.858  11.832 -0.8133 -0.9355 -0.7179
  182MOL0     H24517   0.896   6.675  11.974  1.8192 -1.9074  2.7748
  182MOL0     H24518   0.998   6.564  11.893 -4.8315 -0.9348 -2.4745
  182MOL0     H24519   1.058   6.823  12.057  0.6470 -0.7792  0.3808
  182MOL0     H24520   1.191   6.739  11.997 -0.1708  0.3432 -1.0390
  182MOL0     H24521   0.962   6.743  12.279 -0.6456 -0.8926 -0.7363
  182MOL0     H24522   0.914   6.398  12.433  0.3750 -0.1079 -0.9075
  182MOL0     H24523   1.025   6.505  12.524  0.1691 -0.7688  0.4060
  182MOL0     H24524   0.801   6.678  12.418 -2.7128  0.4667  1.9284
  182MOL0     H24525   0.826   6.620  12.578  1.0893 -1.5312  0.4479
  182MOL0     H24526   0.714   6.401  12.459  2.0366 -0.1825 -2.0940
  182MOL0     H24527   0.649   6.526  12.350  1.0542 -1.2015 -0.5086
  182MOL0     H24528   0.594   6.537  12.645  0.2972  3.0946  1.7653
  182MOL0     H24529   0.495   6.505  12.505 -0.0086  0.7889  0.5334
  182MOL0     H24530   0.518   6.920  12.666  1.4120 -1.4571  1.6206
  182MOL0     H24531   0.424   7.062  12.776 -0.6782  1.9544 -0.5903
  182MOL0     H24532   0.254   7.106  12.730 -2.0318  1.1808  4.5183
  182MOL0     H24533   0.296   7.023  12.881  2.9524 -3.1486  0.3002
  182MOL0     H24534  -0.178   7.008  12.842 -0.1807 -2.7317  2.1803
  182MOL0     H24535  -0.396   7.041  12.863  0.4067 -0.8030  0.1472
  182MOL0     H24536  -0.777   6.965  12.807 -1.7326  4.1887  3.6303
  182MOL0     H24537  -0.624   6.950  12.900  0.0999 -0.6518 -0.9552
  182MOL0     H24538  -0.667   7.186  12.898 -1.2365 -0.8926  0.5908
  182MOL0     H24539  -0.550   7.168  12.782 -0.8087  4.7286 -1.3935
  182MOL0     H24540  -0.701   7.209  12.608  2.2115  2.0228  0.7780
  182MOL0     H24541  -0.741   7.317  12.742 -0.6737 -1.1818  1.6887
  182MOL0     H24542  -0.912   7.087  12.664  0.3373  0.2368 -0.0822
  182MOL0     H24543  -0.940   7.225  12.784  0.3544  0.4343 -0.1237
  182MOL0     H24544  -0.897   7.235  12.480  0.9175  0.9804  0.1253
  182MOL0     H24545  -0.910   7.380  12.575  0.3562  0.1847  2.2938
  182MOL0     H24546  -1.111   7.254  12.448  2.4945 -2.6598 -0.6338
  182MOL0     H24547  -1.119   7.154  12.583  0.9987 -0.4392 -2.2713
  182MOL0     H24548  -1.115   7.459  12.617 -0.6247 -0.3399 -0.2792
  182MOL0     H24549  -1.153   7.343  12.742  2.0805  2.6464  0.1318
  182MOL0     H24550  -1.331   7.387  12.496  1.0981 -0.1791 -0.1639
  182MOL0     H24551  -1.341   7.487  12.628 -0.8739 -0.6960 -0.3125
  182MOL0     H24552  -0.459   6.758  12.529 -2.1462 -0.0154 -0.2899
  182MOL0     H24553  -0.227   6.735  12.516  2.6335  1.0022  2.2931
  182MOL0     H24554   0.110   6.670  12.555 -0.9737  4.2563 -0.8979
  182MOL0     H24555   0.310   6.591  12.462  2.3243  2.0767 -3.3412
  182MOL0     H24556   0.921   6.975  10.893  0.7212 -0.4469 -0.3692
  182MOL0     H24557   0.971   6.937  10.649 -0.7398 -1.7476 -2.8330
  182MOL0     H24558   1.363   6.995  10.339  1.9500 -0.3551  0.3270
  182MOL0     H24559   1.353   6.988  10.091 -1.5977 -0.3828 -0.8416
  182MOL0     H24560   1.107   6.663   9.934 -0.4518  3.2728 -0.4698
  182MOL0     H24561   1.186   6.712   9.783  0.2629 -3.0738 -1.3408
  182MOL0     H24562   1.248   6.486   9.806 -2.2756 -0.7612  1.7773
  182MOL0     H24563   1.292   6.488   9.967 -0.5324 -3.2726 -2.7031
  182MOL0     H24564   1.489   6.485   9.873 -0.7290  1.5996 -0.3837
  182MOL0     H24565   1.468   6.663   9.895 -1.5911  2.4868 -1.6618
  182MOL0     H24566   1.369   6.666   9.668 -1.1507 -0.3195  0.3129
  182MOL0     H24567   1.410   6.499   9.650  0.0567  0.7525  1.4661
  182MOL0     H24568   1.793   6.685   9.581  0.9257 -0.3150 -0.8590
  182MOL0     H24569   1.172   6.601  10.125 -1.2078  1.4878 -0.2777
  182MOL0     H24570   1.163   6.615  10.363 -3.2145  2.1723 -0.3481
  183MOL0     O24571   0.699   3.555   4.795 -0.2276 -0.0615 -0.0556
  183MOL0     C24572   0.666   3.521   4.909  0.5405  0.2851  0.5319
  183MOL0     O24573   0.554   3.565   4.980  0.2014 -0.1596 -0.1490
  183MOL0     C24574   0.484   3.663   4.920 -0.1457 -0.6963  1.4220
  183MOL0     C24575   0.520   3.798   4.921  0.0900 -0.8783 -0.0414
  183MOL0     C24576   0.455   3.892   4.839  0.3402 -0.2806  0.4775
  183MOL0     C24577   0.344   3.855   4.760 -0.8609  0.6530 -0.4038
  183MOL0     O24578   0.289   3.941   4.671  0.9269 -0.3399  0.0766
  183MOL0     C24579   0.277   4.078   4.705 -0.6395 -0.0994 -0.5196
  183MOL0     C24580   0.341   4.171   4.602 -0.3895 -1.0130  0.6670
  183MOL0     C24581   0.259   4.152   4.472 -0.4358 -0.4004 -0.1560
  183MOL0     C24582   0.295   4.255   4.355 -0.0179  0.8213  0.2727
  183MOL0     C24583   0.195   4.245   4.236 -0.1371 -0.8269  0.0929
  183MOL0     C24584   0.193   4.384   4.169 -0.8346 -0.2322  0.1812
  183MOL0     C24585   0.077   4.386   4.063 -0.7671 -0.7791  0.9624
  183MOL0     C24586  -0.047   4.451   4.110  0.2862 -0.3164  0.1753
  183MOL0     N24587  -0.164   4.382   4.067  0.5334  0.2709 -0.1908
  183MOL0     C24588  -0.222   4.273   4.126 -0.5895  0.7246  0.3971
  183MOL0     C24589  -0.341   4.245   4.074  0.0419 -0.3086  0.5340
  183MOL0     C24590  -0.440   4.137   4.100 -0.8873  0.2903  1.0350
  183MOL0     C24591  -0.449   4.024   3.994  0.7596  0.1963  0.0395
  183MOL0     C24592  -0.579   3.932   4.022  0.1420 -0.9209 -0.3739
  183MOL0     C24593  -0.594   3.852   3.900  0.2714 -1.5309 -0.4751
  183MOL0     O24594  -0.484   3.754   3.882 -0.6879  0.1723  0.2905
  183MOL0     C24595  -0.505   3.653   3.789  0.3550  0.3391  0.8427
  183MOL0     C24596  -0.563   3.532   3.838 -0.1595 -0.5673  0.4496
  183MOL0     C24597  -0.583   3.421   3.752 -1.0938 -0.0659  0.1248
  183MOL0     C24598  -0.640   3.298   3.817 -0.0088  0.5343  0.1211
  183MOL0     C24599  -0.543   3.437   3.605 -0.1343 -0.3948  0.0084
  183MOL0     C24600  -0.553   3.331   3.495  0.5614 -0.7297 -0.4066
  183MOL0     O24601  -0.539   3.375   3.364 -0.0971  0.0348 -0.0375
  183MOL0     C24602  -0.533   3.277   3.265  0.3841 -0.0266 -0.0025
  183MOL0     C24603  -0.644   3.214   3.212  0.0991  0.6807  0.3491
  183MOL0     C24604  -0.638   3.114   3.114 -0.6628 -0.0437  0.0286
  183MOL0     C24605  -0.510   3.065   3.084  0.7704  0.9473  0.6050
  183MOL0     O24606  -0.500   2.967   2.987  0.4352 -0.1775 -0.6517
  183MOL0     C24607  -0.595   2.861   3.013 -0.6977  0.2409 -0.6676
  183MOL0     C24608  -0.543   2.755   2.919 -0.8893  0.1706 -0.9047
  183MOL0     C24609  -0.410   2.689   2.957  0.1717 -0.6421 -0.2004
  183MOL0     C24610  -0.405   2.626   3.087  0.7489  0.3168 -0.0281
  183MOL0     C24611  -0.324   2.698   3.185 -0.1879 -0.1139  0.4164
  183MOL0     C24612  -0.173   2.663   3.173  0.4832  0.4282  0.5677
  183MOL0     C24613  -0.075   2.752   3.262  0.1784  0.2027  0.2090
  183MOL0     C24614  -0.059   2.891   3.204 -0.7472 -0.6911 -0.6259
  183MOL0    Cl24615   0.008   2.876   3.042  0.0287 -0.0436  0.2993
  183MOL0     C24616  -0.403   3.112   3.157 -1.1025  0.5384 -0.0137
  183MOL0     C24617  -0.417   3.211   3.253  1.1794 -0.2540 -0.1088
  183MOL0     O24618  -0.577   3.218   3.531 -0.5800 -0.0053  0.5682
  183MOL0     C24619  -0.489   3.566   3.560  0.5388 -0.7283 -0.2311
  183MOL0     C24620  -0.482   3.671   3.646  0.1544 -0.7828 -1.1027
  183MOL0     N24621  -0.349   4.338   3.962 -0.7180  0.4958 -0.0832
  183MOL0     N24622  -0.248   4.417   3.966 -0.2774  0.3479  0.0388
  183MOL0     C24623   0.300   3.718   4.767  0.3389  0.2271 -0.1730
  183MOL0     C24624   0.374   3.622   4.845  0.0894  0.5352 -0.0252
  183MOL0     C24625   0.775   3.444   4.981  0.2177 -0.2147 -0.7075
  183MOL0     C24626   0.909   3.429   4.923 -0.5122  0.3781 -0.2348
  183MOL0     C24627   1.017   3.380   5.000  0.6481 -0.1934  0.0794
  183MOL0     C24628   0.998   3.325   5.126 -0.3165  0.9181  0.0266
  183MOL0     O24629   1.103   3.289   5.203 -0.4450  0.1823  0.2393
  183MOL0     C24630   1.089   3.235   5.335  0.0569 -0.1430  0.8230
  183MOL0     C24631   1.211   3.191   5.410  0.1772 -0.5912  0.4691
  183MOL0     C24632   1.307   3.309   5.429  0.6179 -0.8489 -0.4626
  183MOL0     C24633   1.381   3.297   5.558  0.6700  0.6959  0.0411
  183MOL0     C24634   1.302   3.355   5.667 -0.9488  0.6920 -0.6807
  183MOL0     C24635   1.237   3.417   5.755 -0.3423 -0.2003  0.0681
  183MOL0     C24636   0.868   3.333   5.174  0.5732  0.4570 -0.2899
  183MOL0     C24637   0.763   3.393   5.114  0.0449  0.4579  0.6188
  183MOL0     H24638   0.612   3.820   4.974  0.2028  0.3103 -0.6935
  183MOL0     H24639   0.501   3.990   4.826  0.0941  0.2213  2.9447
  183MOL0     H24640   0.171   4.108   4.702 -0.3119  1.1580 -0.3221
  183MOL0     H24641   0.311   4.118   4.802 -0.7470  2.2821 -1.3832
  183MOL0     H24642   0.336   4.278   4.625 -2.1943 -0.7453 -0.7149
  183MOL0     H24643   0.448   4.151   4.595 -0.2254 -0.0772  0.3811
  183MOL0     H24644   0.272   4.051   4.432 -1.2504 -0.7453  0.4184
  183MOL0     H24645   0.152   4.162   4.492 -0.5088  1.3080 -1.1556
  183MOL0     H24646   0.281   4.351   4.405 -0.0765  0.5935  0.6923
  183MOL0     H24647   0.395   4.226   4.322  0.2074  0.2843  1.3850
  183MOL0     H24648   0.234   4.181   4.156  0.1739  1.2875 -1.5204
  183MOL0     H24649   0.099   4.201   4.264 -2.0858  2.5878 -0.6654
  183MOL0     H24650   0.179   4.458   4.249 -1.3338 -1.3996  1.1980
  183MOL0     H24651   0.289   4.411   4.124 -1.6853 -0.0409 -1.5930
  183MOL0     H24652   0.099   4.452   3.980 -1.7533 -0.2384  1.1135
  183MOL0     H24653   0.063   4.284   4.025 -0.4923 -0.6207  0.4405
  183MOL0     H24654  -0.056   4.551   4.068  0.7678 -1.1592 -2.0768
  183MOL0     H24655  -0.040   4.470   4.218 -1.6901 -0.7277  0.4160
  183MOL0     H24656  -0.174   4.209   4.199  0.9247  4.3184  2.8547
  183MOL0     H24657  -0.400   4.075   4.181 -2.0365 -0.7413  0.8506
  183MOL0     H24658  -0.531   4.190   4.128 -0.9320  1.0400 -0.4313
  183MOL0     H24659  -0.353   3.971   3.993  0.1857 -0.8735  0.2433
  183MOL0     H24660  -0.467   4.077   3.900  2.5607  1.4923  0.3764
  183MOL0     H24661  -0.666   3.993   4.047 -0.4685 -2.5835  1.8828
  183MOL0     H24662  -0.562   3.864   4.107  2.3250 -1.0902 -0.8865
  183MOL0     H24663  -0.596   3.925   3.819  0.5009 -1.1906 -0.1751
  183MOL0     H24664  -0.688   3.796   3.900 -0.3324 -0.6255  1.2060
  183MOL0     H24665  -0.569   3.537   3.946  0.1653  3.3934  0.4344
  183MOL0     H24666  -0.556   3.235   3.847  1.7596  2.4454 -0.6328
  183MOL0     H24667  -0.704   3.319   3.903  1.6273 -2.9140  2.4272
  183MOL0     H24668  -0.701   3.231   3.755 -1.4181  0.2753  1.7302
  183MOL0     H24669  -0.738   3.258   3.242  1.9797  3.6446  2.3677
  183MOL0     H24670  -0.725   3.072   3.066  0.3618  1.3451 -3.3972
  183MOL0     H24671  -0.599   2.820   3.114 -2.0197  0.6985 -0.5159
  183MOL0     H24672  -0.699   2.871   2.979 -1.6477 -2.2668  1.2704
  183MOL0     H24673  -0.611   2.670   2.912  3.3211 -3.6889  0.2629
  183MOL0     H24674  -0.545   2.794   2.817 -1.9361 -2.8890 -2.1505
  183MOL0     H24675  -0.328   2.759   2.940 -1.3311  1.1315 -0.4402
  183MOL0     H24676  -0.382   2.610   2.888 -1.1828 -0.9020 -0.4588
  183MOL0     H24677  -0.510   2.609   3.112  1.5056 -1.6576  2.2058
  183MOL0     H24678  -0.365   2.525   3.073 -0.5119 -0.5216  2.1129
  183MOL0     H24679  -0.352   2.676   3.288  1.6785  1.5395  1.3486
  183MOL0     H24680  -0.345   2.802   3.159  0.5972  0.0603  0.4502
  183MOL0     H24681  -0.155   2.561   3.209  0.4921  0.7568  1.5070
  183MOL0     H24682  -0.151   2.659   3.066  0.1021 -4.1379  0.4738
  183MOL0     H24683   0.024   2.706   3.250  0.9203  1.9455 -0.8233
  183MOL0     H24684  -0.107   2.747   3.367  2.6791 -0.2203  1.0138
  183MOL0     H24685   0.012   2.950   3.263 -2.5449  0.2199  0.7434
  183MOL0     H24686  -0.158   2.937   3.201 -0.5349  0.3703  3.1510
  183MOL0     H24687  -0.298   3.088   3.138 -1.1937  1.7569 -2.4872
  183MOL0     H24688  -0.331   3.244   3.311  0.0959  1.0640  0.7811
  183MOL0     H24689  -0.458   3.590   3.459 -1.4352  2.7218 -0.1874
  183MOL0     H24690  -0.445   3.769   3.617  0.0133 -0.3127  0.2289
  183MOL0     H24691   0.212   3.700   4.707  0.5159 -0.4520 -0.2283
  183MOL0     H24692   0.356   3.515   4.845  1.7829  0.2130 -0.4761
  183MOL0     H24693   0.934   3.476   4.828  1.8835 -2.0794 -0.9444
  183MOL0     H24694   1.115   3.395   4.956 -0.0677  0.6593 -1.3037
  183MOL0     H24695   1.036   3.312   5.392 -2.5127 -0.2210 -1.2709
  183MOL0     H24696   1.015   3.155   5.324 -0.2050 -0.1898  2.5870
  183MOL0     H24697   1.244   3.101   5.358  1.0823 -0.5160  0.9031
  183MOL0     H24698   1.184   3.154   5.510  0.8893  0.0034  0.8933
  183MOL0     H24699   1.254   3.405   5.424  1.5751 -0.3756 -2.2232
  183MOL0     H24700   1.375   3.318   5.343  1.9690 -3.1232  0.2873
  183MOL0     H24701   1.470   3.361   5.554 -0.1390  2.1535  2.6793
  183MOL0     H24702   1.394   3.192   5.585  0.5293  0.4503 -0.8267
  183MOL0     H24703   1.176   3.467   5.828 -2.3976  0.1062 -1.7536
  183MOL0     H24704   0.844   3.296   5.274  0.3112 -3.0866 -1.5145
  183MOL0     H24705   0.659   3.384   5.142 -1.2419 -2.0968 -3.8783
  184MOL0     O24706   5.927   9.373  11.283 -0.2215 -0.4709  0.4160
  184MOL0     C24707   6.039   9.322  11.273  0.1704  1.0611  0.2336
  184MOL0     O24708   6.061   9.189  11.255  0.0206 -0.2076  0.5150
  184MOL0     C24709   5.960   9.108  11.207 -0.4257  1.0128  0.0280
  184MOL0     C24710   5.919   9.002  11.284  0.2354 -0.9067 -0.1299
  184MOL0     C24711   5.814   8.919  11.241 -0.1991 -0.3367  0.2629
  184MOL0     C24712   5.754   8.944  11.110 -0.4981 -0.4112 -0.6495
  184MOL0     O24713   5.648   8.866  11.068 -0.3061  0.8474  0.4274
  184MOL0     C24714   5.605   8.862  10.934 -0.2826 -0.5465 -0.8699
  184MOL0     C24715   5.498   8.963  10.906 -0.1336  0.4234 -0.4015
  184MOL0     C24716   5.419   8.922  10.785  0.8156 -0.3745 -0.4576
  184MOL0     C24717   5.272   8.984  10.809 -0.0786 -0.4968  0.7507
  184MOL0     C24718   5.172   8.927  10.708 -0.2389  0.0814  0.4755
  184MOL0     C24719   5.219   8.933  10.555 -0.8311 -0.1918 -0.3082
  184MOL0     C24720   5.262   9.076  10.509 -0.0535 -0.2345  0.3345
  184MOL0     C24721   5.336   9.061  10.376  0.2605 -0.3702  0.3827
  184MOL0     N24722   5.472   8.998  10.382  0.4769 -0.4195  0.4283
  184MOL0     C24723   5.504   8.867  10.350  0.4635 -0.4643  0.2296
  184MOL0     C24724   5.636   8.859  10.379 -0.4772 -0.1996  1.0951
  184MOL0     C24725   5.720   8.760  10.309 -0.4394  1.5781  0.7744
  184MOL0     C24726   5.826   8.696  10.406 -0.3383  0.5839 -0.1765
  184MOL0     C24727   5.850   8.554  10.369  0.5772 -0.2091 -0.3237
  184MOL0     C24728   5.952   8.502  10.467  0.5649 -0.5960  0.1624
  184MOL0     O24729   6.086   8.556  10.426  0.9208 -0.5459  0.2873
  184MOL0     C24730   6.175   8.479  10.359 -0.3935 -0.8441 -0.5562
  184MOL0     C24731   6.146   8.360  10.286  0.3012 -0.0188 -0.6485
  184MOL0     C24732   6.242   8.304  10.200  0.0372  0.3118  0.6617
  184MOL0     C24733   6.194   8.194  10.104  0.4300  0.4121  0.5830
  184MOL0     C24734   6.361   8.370  10.187 -0.2210 -0.0442  0.1352
  184MOL0     C24735   6.468   8.317  10.096 -0.1538 -0.6728  0.4124
  184MOL0     O24736   6.567   8.403  10.048 -0.0444  0.0087 -0.1495
  184MOL0     C24737   6.692   8.346  10.029 -0.3560  0.8944 -0.6157
  184MOL0     C24738   6.748   8.266  10.128 -0.6428  0.1921  0.5674
  184MOL0     C24739   6.882   8.214  10.116 -0.0901 -0.2166 -0.0619
  184MOL0     C24740   6.963   8.247  10.007  0.6038 -0.8123  0.4132
  184MOL0     O24741   7.094   8.220   9.992  0.3109 -0.4241 -0.5845
  184MOL0     C24742   7.139   8.084   9.995  0.8570  1.1149 -0.2938
  184MOL0     C24743   7.279   8.072   9.957 -1.4278 -0.4345 -0.0993
  184MOL0     C24744   7.339   7.930   9.983  0.1889  0.0123  0.2726
  184MOL0     C24745   7.474   7.916   9.934 -0.7737  0.3695 -0.2061
  184MOL0     C24746   7.538   7.792   9.969 -1.7007  0.1540  0.7930
  184MOL0     C24747   7.694   7.774   9.926 -0.6618 -0.1650 -0.4903
  184MOL0     C24748   7.698   7.758   9.770 -0.0813 -0.3075 -0.2252
  184MOL0     C24749   7.820   7.682   9.713 -0.4950 -0.3851  0.3708
  184MOL0    Cl24750   7.817   7.676   9.535 -0.1453  0.0512 -0.1646
  184MOL0     C24751   6.906   8.330   9.906 -0.3403 -0.9955  1.0428
  184MOL0     C24752   6.769   8.370   9.916  0.2534 -0.8783 -0.7697
  184MOL0     O24753   6.473   8.202  10.078 -0.5354  0.5116  0.2861
  184MOL0     C24754   6.393   8.490  10.257 -0.5586  0.1981  0.2609
  184MOL0     C24755   6.299   8.541  10.341 -0.6935  0.0396 -0.3853
  184MOL0     N24756   5.677   8.977  10.443 -0.2285  0.5376  0.0024
  184MOL0     N24757   5.580   9.057  10.443  0.1112 -0.1546 -0.3579
  184MOL0     C24758   5.797   9.058  11.031 -0.2027  0.4860  0.5247
  184MOL0     C24759   5.909   9.139  11.078 -0.2080  0.3349  0.1272
  184MOL0     C24760   6.167   9.403  11.281 -0.3136 -0.1064 -0.5483
  184MOL0     C24761   6.291   9.343  11.291 -0.9084  0.3271  0.8090
  184MOL0     C24762   6.407   9.416  11.306  0.5189  1.1347 -0.1704
  184MOL0     C24763   6.408   9.552  11.314  0.4145  0.1495 -0.1441
  184MOL0     O24764   6.515   9.618  11.352 -0.0311  0.1113 -0.2330
  184MOL0     C24765   6.637   9.559  11.393 -0.0162 -0.9435  0.2880
  184MOL0     C24766   6.765   9.634  11.339 -0.0307  1.1723 -0.3932
  184MOL0     C24767   6.888   9.560  11.380 -0.2805 -0.1186 -0.9279
  184MOL0     C24768   6.998   9.658  11.424 -0.2038  0.1778 -0.5205
  184MOL0     C24769   7.009   9.677  11.572 -0.0052  0.5833 -0.4796
  184MOL0     C24770   7.014   9.685  11.695  0.2401  0.0518 -0.9257
  184MOL0     C24771   6.281   9.616  11.275  0.1800 -1.7688 -0.1176
  184MOL0     C24772   6.163   9.541  11.267 -0.8287 -0.3100 -1.2014
  184MOL0     H24773   5.952   8.989  11.387  3.5266 -0.3012 -0.9746
  184MOL0     H24774   5.785   8.830  11.296 -3.0407  0.1094 -0.4082
  184MOL0     H24775   5.693   8.871  10.869 -0.1439 -3.1814 -1.1286
  184MOL0     H24776   5.565   8.765  10.903 -1.3219 -0.6437  0.6901
  184MOL0     H24777   5.443   8.973  10.999  1.5918 -0.1429  0.7350
  184MOL0     H24778   5.528   9.065  10.879 -2.6880  0.8034 -2.1594
  184MOL0     H24779   5.474   8.954  10.696  3.4235 -0.8983  0.8634
  184MOL0     H24780   5.412   8.813  10.776 -0.3102 -0.1979 -2.3624
  184MOL0     H24781   5.241   8.955  10.909 -0.3874 -1.0057  0.5113
  184MOL0     H24782   5.273   9.093  10.818  1.6903 -0.6046  2.6554
  184MOL0     H24783   5.154   8.823  10.738 -3.0395  1.1940  3.1981
  184MOL0     H24784   5.081   8.982  10.736 -0.3697 -0.2932  0.8053
  184MOL0     H24785   5.298   8.862  10.531  0.3405  0.7548  0.6427
  184MOL0     H24786   5.129   8.903  10.500 -2.2026 -1.0699  2.2346
  184MOL0     H24787   5.174   9.140  10.499  1.0003  1.2772  0.3603
  184MOL0     H24788   5.334   9.112  10.583  0.6428  0.3393 -0.6003
  184MOL0     H24789   5.332   9.159  10.327  1.4972  0.7893  2.4582
  184MOL0     H24790   5.272   9.006  10.306  0.0615  0.6472 -0.2621
  184MOL0     H24791   5.440   8.791  10.307  0.4157 -0.5482  0.4454
  184MOL0     H24792   5.660   8.677  10.272  2.1141  0.1791 -0.5579
  184MOL0     H24793   5.772   8.799  10.221  3.3863 -0.8633  1.6752
  184MOL0     H24794   5.781   8.696  10.505  0.1326 -0.7520  0.0510
  184MOL0     H24795   5.918   8.756  10.403 -2.1593  3.7228  1.1753
  184MOL0     H24796   5.893   8.542  10.269  0.1382  1.2622 -0.7049
  184MOL0     H24797   5.763   8.488  10.365  1.0200 -0.7918 -0.5771
  184MOL0     H24798   5.949   8.393  10.461 -2.2940 -0.5655 -0.5460
  184MOL0     H24799   5.943   8.539  10.569 -1.6646  1.2175 -0.5967
  184MOL0     H24800   6.051   8.308  10.287 -1.3948  2.8624 -0.9696
  184MOL0     H24801   6.211   8.217   9.998  0.8948 -1.4254  0.2293
  184MOL0     H24802   6.233   8.095  10.128 -3.0375 -1.1247  0.4550
  184MOL0     H24803   6.085   8.186  10.100  0.3139  0.0828  2.9044
  184MOL0     H24804   6.690   8.243  10.216  0.5595 -0.5510  1.1879
  184MOL0     H24805   6.929   8.153  10.193  1.0530  2.4612  1.5182
  184MOL0     H24806   7.123   8.042  10.095  1.6034  1.8428  0.1443
  184MOL0     H24807   7.072   8.031   9.927  0.8093  1.9185 -0.8989
  184MOL0     H24808   7.286   8.086   9.848  0.0290 -6.2413 -1.0750
  184MOL0     H24809   7.342   8.150  10.001  0.0049 -1.1040 -0.8858
  184MOL0     H24810   7.273   7.857   9.936  2.1557 -3.0352  1.8687
  184MOL0     H24811   7.345   7.914  10.091  2.1512  3.2760  0.8126
  184MOL0     H24812   7.472   7.931   9.826  0.3987 -0.6703 -0.3843
  184MOL0     H24813   7.530   8.002   9.973 -0.2248  0.2726 -0.7731
  184MOL0     H24814   7.489   7.710   9.916  1.7459 -2.4317  1.2034
  184MOL0     H24815   7.532   7.775  10.077 -0.7904  1.2279  1.0321
  184MOL0     H24816   7.766   7.851   9.957 -0.0700  0.1446 -2.4419
  184MOL0     H24817   7.745   7.690   9.974  0.2796  0.3768 -0.4973
  184MOL0     H24818   7.695   7.859   9.730  1.5796  0.4010  1.2700
  184MOL0     H24819   7.605   7.707   9.744 -0.5984  0.4117  0.1662
  184MOL0     H24820   7.815   7.581   9.753  1.5520 -0.5961  0.2037
  184MOL0     H24821   7.911   7.723   9.758 -0.9761 -1.7792  2.7670
  184MOL0     H24822   6.950   8.351   9.809 -3.1750  1.0789  0.0572
  184MOL0     H24823   6.733   8.433   9.835  1.0966  1.6502  0.7417
  184MOL0     H24824   6.494   8.528  10.264 -0.1498 -0.7467 -0.2769
  184MOL0     H24825   6.329   8.632  10.391  1.4335  0.6650 -2.6383
  184MOL0     H24826   5.748   9.081  10.937 -1.1682 -1.3662  0.5164
  184MOL0     H24827   5.963   9.215  11.022  0.8615  0.9550  1.9111
  184MOL0     H24828   6.293   9.239  11.260 -0.2607  1.5426 -4.0442
  184MOL0     H24829   6.486   9.352  11.343 -2.6143 -1.2100  3.3033
  184MOL0     H24830   6.648   9.564  11.501  1.5892  0.9535  0.1031
  184MOL0     H24831   6.647   9.454  11.366 -1.8441 -0.8864 -0.8344
  184MOL0     H24832   6.757   9.732  11.388  0.2097  1.1839 -0.3809
  184MOL0     H24833   6.757   9.637  11.230  3.1530 -2.0106 -0.8699
  184MOL0     H24834   6.932   9.498  11.301  1.9007  1.6790 -1.2483
  184MOL0     H24835   6.877   9.504  11.473  0.7025  1.2486  0.0697
  184MOL0     H24836   6.979   9.752  11.372 -0.5395 -0.2703 -1.2201
  184MOL0     H24837   7.095   9.617  11.393 -0.0071 -0.8809  1.3013
  184MOL0     H24838   7.018   9.686  11.802 -1.0416 -0.4617 -0.8607
  184MOL0     H24839   6.266   9.723  11.267  0.7156 -1.5481  1.5255
  184MOL0     H24840   6.068   9.583  11.237 -0.3443  0.7727 -1.2688
  185MOL0     O24841   0.805   1.695  11.104  0.2603 -0.6024 -0.8373
  185MOL0     C24842   0.801   1.808  11.067  0.4504 -0.4548 -0.4987
  185MOL0     O24843   0.909   1.894  11.080 -0.3399  0.7155 -0.2395
  185MOL0     C24844   1.000   1.892  11.185 -0.9108 -0.7041 -0.9543
  185MOL0     C24845   1.098   1.991  11.179 -0.8068  0.4373  0.3337
  185MOL0     C24846   1.203   2.000  11.269  0.3186  0.4791  0.7438
  185MOL0     C24847   1.204   1.920  11.385  0.5487  0.3378 -0.1816
  185MOL0     O24848   1.297   1.940  11.488 -0.9122 -1.2417  0.5560
  185MOL0     C24849   1.407   1.861  11.482 -0.4950  0.4531  1.0375
  185MOL0     C24850   1.445   1.831  11.627 -0.2217 -0.5742 -0.4139
  185MOL0     C24851   1.396   1.691  11.668  0.1258  0.1534 -0.1296
  185MOL0     C24852   1.403   1.655  11.813  0.0583  0.7336  0.2041
  185MOL0     C24853   1.369   1.504  11.827  0.2153 -0.6468  0.6273
  185MOL0     C24854   1.364   1.453  11.971  0.1803 -1.4176 -0.0695
  185MOL0     C24855   1.302   1.320  11.984 -0.1851  0.8775  0.4147
  185MOL0     C24856   1.354   1.201  11.895 -0.8354 -1.0793 -0.5132
  185MOL0     N24857   1.447   1.111  11.964  0.7574 -0.9821  0.6766
  185MOL0     C24858   1.417   0.984  12.000  0.0305  0.4556 -0.9656
  185MOL0     C24859   1.536   0.932  12.032  0.2816 -0.3551  0.4119
  185MOL0     C24860   1.565   0.787  12.081 -0.3061 -0.9433  0.2525
  185MOL0     C24861   1.512   0.685  11.976  0.3807  1.0400  0.3821
  185MOL0     C24862   1.603   0.696  11.855 -0.4069 -0.4303  0.3094
  185MOL0     C24863   1.569   0.578  11.758  0.0083  0.9862  0.2229
  185MOL0     O24864   1.519   0.630  11.637  1.4829 -0.5808  0.2884
  185MOL0     C24865   1.441   0.549  11.565 -0.0002 -0.2020 -0.3345
  185MOL0     C24866   1.507   0.440  11.493  0.0938  0.2192 -0.0793
  185MOL0     C24867   1.432   0.351  11.412  0.8245  0.6808  0.2333
  185MOL0     C24868   1.509   0.241  11.343 -0.0558  0.0548  0.1577
  185MOL0     C24869   1.282   0.360  11.411 -0.3456 -0.0572 -0.1677
  185MOL0     C24870   1.191   0.280  11.334  0.4987 -0.1793 -0.0275
  185MOL0     O24871   1.069   0.327  11.284  0.3368  0.1481 -0.2620
  185MOL0     C24872   0.968   0.247  11.230  0.2799  0.3840  0.3260
  185MOL0     C24873   0.955   0.235  11.093  0.1636 -0.2878 -0.4506
  185MOL0     C24874   0.851   0.161  11.035 -0.1264  0.3510  0.0668
  185MOL0     C24875   0.758   0.095  11.110 -0.8280  0.5040 -0.7860
  185MOL0     O24876   0.662   0.009  11.063 -0.4059  0.0287  0.3343
  185MOL0     C24877   0.628   0.005  10.924 -0.1803  0.1966 -0.4287
  185MOL0     C24878   0.572   0.135  10.871 -1.0344 -0.5083 -0.1565
  185MOL0     C24879   0.526   0.104  10.726 -0.3226 -0.7928  0.3012
  185MOL0     C24880   0.422  -0.007  10.716  0.0920 -0.2576  0.6198
  185MOL0     C24881   0.317   0.009  10.600  0.6062  0.2209 -0.0897
  185MOL0     C24882   0.366   0.014  10.459  0.0350 -0.1867  0.3535
  185MOL0     C24883   0.262   0.051  10.356 -0.4231 -0.2085  0.2262
  185MOL0     C24884   0.313   0.054  10.210 -0.4628  0.4686 -0.4920
  185MOL0    Cl24885   0.475   0.140  10.194  0.4800  0.3243  0.0185
  185MOL0     C24886   0.777   0.103  11.253  0.1804  1.0331 -0.4418
  185MOL0     C24887   0.873   0.185  11.307  0.0527 -0.4894  0.1123
  185MOL0     O24888   1.227   0.160  11.324  0.2832 -0.5150  0.0134
  185MOL0     C24889   1.218   0.470  11.482 -0.5087 -0.1213 -0.1984
  185MOL0     C24890   1.301   0.564  11.557 -0.6455 -1.5104  0.7991
  185MOL0     N24891   1.633   1.023  12.003  0.6096 -0.3773 -0.1533
  185MOL0     N24892   1.579   1.129  11.961  0.1689 -0.4061 -0.4539
  185MOL0     C24893   1.099   1.822  11.399 -1.5722 -0.6324 -0.2239
  185MOL0     C24894   1.000   1.811  11.299  0.5211  0.7611 -0.0088
  185MOL0     C24895   0.683   1.855  10.990 -0.3258 -0.6964 -0.1358
  185MOL0     C24896   0.705   1.947  10.885  0.0028 -0.4718 -0.9534
  185MOL0     C24897   0.598   1.976  10.791 -0.1935  0.6575 -0.6801
  185MOL0     C24898   0.477   1.919  10.813  0.8914 -0.4485  0.3869
  185MOL0     O24899   0.367   1.941  10.737 -0.1304 -0.2960  0.1285
  185MOL0     C24900   0.331   2.083  10.722 -0.0677  0.3550  0.1639
  185MOL0     C24901   0.279   2.143  10.851 -0.0117 -0.9369 -0.5634
  185MOL0     C24902   0.146   2.078  10.901 -0.2702 -0.4298 -0.7856
  185MOL0     C24903   0.043   2.192  10.902  0.4111 -0.0033  0.0174
  185MOL0     C24904  -0.087   2.138  10.955 -0.1466  0.0229  1.1289
  185MOL0     C24905  -0.194   2.119  10.994  1.4172 -0.9194  0.5743
  185MOL0     C24906   0.457   1.846  10.928 -0.0209  0.2590 -0.3378
  185MOL0     C24907   0.555   1.816  11.020  0.2207 -0.3128 -0.3416
  185MOL0     H24908   1.093   2.056  11.092 -0.2702 -0.5502 -0.4571
  185MOL0     H24909   1.272   2.084  11.263  3.3019 -1.6666  2.6520
  185MOL0     H24910   1.395   1.760  11.443  2.2715  1.0063 -1.6816
  185MOL0     H24911   1.492   1.911  11.435 -1.4253  0.3317 -0.8576
  185MOL0     H24912   1.554   1.828  11.630 -0.2454 -0.9030  0.1853
  185MOL0     H24913   1.408   1.904  11.699 -0.0419  0.6261 -1.4902
  185MOL0     H24914   1.295   1.688  11.626  0.3973 -0.4251 -0.7553
  185MOL0     H24915   1.457   1.619  11.613 -0.9017 -0.6995 -0.1828
  185MOL0     H24916   1.503   1.668  11.856 -0.1424  3.0371  0.0944
  185MOL0     H24917   1.325   1.708  11.869 -0.0870  1.6426 -0.8325
  185MOL0     H24918   1.273   1.488  11.777  0.7100  2.8878 -1.8014
  185MOL0     H24919   1.447   1.452  11.772  1.0534  0.8641  0.3288
  185MOL0     H24920   1.465   1.443  12.012  0.1455 -5.1852 -0.6095
  185MOL0     H24921   1.304   1.518  12.036 -1.8269 -2.3285 -0.9218
  185MOL0     H24922   1.297   1.294  12.091  0.2303 -0.3983  0.1386
  185MOL0     H24923   1.198   1.332  11.954  0.2507  1.3515 -0.9464
  185MOL0     H24924   1.403   1.249  11.810  3.0555 -0.9829  1.5746
  185MOL0     H24925   1.270   1.144  11.853 -2.9240  0.8747  0.7383
  185MOL0     H24926   1.320   0.940  12.021 -0.3009  1.4011 -0.4460
  185MOL0     H24927   1.670   0.769  12.106  0.9407  1.4879 -2.6287
  185MOL0     H24928   1.505   0.770  12.172 -2.8785  4.0874 -0.1308
  185MOL0     H24929   1.411   0.698  11.937  0.9410 -1.0963 -2.0093
  185MOL0     H24930   1.506   0.588  12.027 -0.3696  0.7071 -0.3307
  185MOL0     H24931   1.708   0.684  11.881  0.9925  2.3175 -3.1881
  185MOL0     H24932   1.597   0.791  11.800  0.1340 -0.6156 -0.0763
  185MOL0     H24933   1.501   0.510  11.809  2.8207 -0.6482  2.0294
  185MOL0     H24934   1.654   0.519  11.725 -1.7735 -0.3236 -2.4502
  185MOL0     H24935   1.612   0.419  11.508 -0.5876 -3.8767  0.0593
  185MOL0     H24936   1.444   0.237  11.255 -0.6983  0.8373  0.5801
  185MOL0     H24937   1.611   0.259  11.307 -1.3218 -0.7468 -4.3697
  185MOL0     H24938   1.503   0.144  11.394  5.9185 -0.5282  0.4900
  185MOL0     H24939   1.031   0.293  11.041 -0.9480  1.5246 -0.1780
  185MOL0     H24940   0.856   0.157  10.927  0.3394 -0.9293  0.1210
  185MOL0     H24941   0.713  -0.030  10.863  2.0760  4.3054 -0.0204
  185MOL0     H24942   0.547  -0.067  10.910 -0.9050  0.8505  0.3031
  185MOL0     H24943   0.481   0.174  10.918  0.2294  2.2995  0.1281
  185MOL0     H24944   0.655   0.206  10.863 -0.4312 -1.4483 -3.6587
  185MOL0     H24945   0.617   0.081  10.671  0.7272  2.9468  0.1832
  185MOL0     H24946   0.487   0.200  10.692  1.0417 -0.0028  0.8895
  185MOL0     H24947   0.466  -0.107  10.711 -0.4009 -0.6027  2.4931
  185MOL0     H24948   0.371  -0.001  10.813 -0.9727  1.7492 -0.0150
  185MOL0     H24949   0.275   0.109  10.616  1.0019  0.5603 -1.0831
  185MOL0     H24950   0.242  -0.070  10.610 -0.4603  1.3913  1.7718
  185MOL0     H24951   0.445   0.090  10.455  4.2118 -4.0303  1.4267
  185MOL0     H24952   0.418  -0.077  10.429  1.1051  0.6655 -0.4735
  185MOL0     H24953   0.240   0.156  10.379  0.7271  0.4900 -1.6642
  185MOL0     H24954   0.176  -0.016  10.367 -0.1290 -0.3696  1.7935
  185MOL0     H24955   0.244   0.119  10.154  0.5202  0.7898 -1.3594
  185MOL0     H24956   0.321  -0.050  10.179  3.0758  0.6118 -0.3864
  185MOL0     H24957   0.733   0.037  11.326 -1.5213  0.4952 -1.8863
  185MOL0     H24958   0.884   0.191  11.415 -0.1960 -0.7014  0.1519
  185MOL0     H24959   1.113   0.495  11.474 -0.4637  0.2092  0.1921
  185MOL0     H24960   1.256   0.646  11.611  1.6883  2.3594 -2.5769
  185MOL0     H24961   1.108   1.770  11.494  1.9665  1.1131  0.5501
  185MOL0     H24962   0.926   1.732  11.305  1.2205  0.1042  0.1270
  185MOL0     H24963   0.805   1.985  10.868  0.4880 -0.8920  0.8063
  185MOL0     H24964   0.631   2.034  10.705  1.8010  1.1453  0.3625
  185MOL0     H24965   0.415   2.137  10.677 -0.3004 -1.8670 -3.3671
  185MOL0     H24966   0.257   2.085  10.641  2.2404 -0.5641 -2.1568
  185MOL0     H24967   0.267   2.250  10.833  0.8645 -0.7172  0.0481
  185MOL0     H24968   0.354   2.127  10.930 -2.5637 -0.3658  2.1384
  185MOL0     H24969   0.158   2.035  11.000  0.2729 -0.4405 -0.8517
  185MOL0     H24970   0.120   1.998  10.831 -2.7799 -0.5267  0.1827
  185MOL0     H24971   0.030   2.232  10.801  0.2623  2.3811  0.9208
  185MOL0     H24972   0.080   2.272  10.967 -2.7099  0.2059  1.7414
  185MOL0     H24973  -0.293   2.124  11.036  1.1606 -3.2635  0.3789
  185MOL0     H24974   0.359   1.800  10.933  0.5288 -1.2886 -2.1214
  185MOL0     H24975   0.552   1.740  11.098  6.0558  0.0359  0.7251
  186MOL0     O24976   7.232   3.420   2.203 -0.0825 -0.8833 -0.3225
  186MOL0     C24977   7.269   3.530   2.174 -0.5953  0.0037  0.8673
  186MOL0     O24978   7.200   3.637   2.158 -0.5304  0.0121  0.2522
  186MOL0     C24979   7.063   3.638   2.182  0.3263 -0.2695  0.2489
  186MOL0     C24980   6.983   3.727   2.115  1.2590 -0.5856 -0.0542
  186MOL0     C24981   6.843   3.738   2.134  0.4226 -0.3885 -0.7123
  186MOL0     C24982   6.779   3.656   2.228 -0.3223  0.3559 -0.5080
  186MOL0     O24983   6.654   3.692   2.260 -0.3523  0.1063  0.3370
  186MOL0     C24984   6.599   3.629   2.379 -0.2961 -0.2298  0.1034
  186MOL0     C24985   6.453   3.658   2.395 -0.6518  0.0841 -0.2190
  186MOL0     C24986   6.422   3.801   2.362  0.7259  0.1425  0.1373
  186MOL0     C24987   6.285   3.803   2.273  0.5680 -0.9241 -0.3679
  186MOL0     C24988   6.282   3.932   2.188 -0.1753  0.5284  0.5045
  186MOL0     C24989   6.156   3.926   2.100  0.6183 -0.2724 -0.3753
  186MOL0     C24990   6.104   4.062   2.050  0.8377  0.1332 -0.3330
  186MOL0     C24991   6.205   4.132   1.965 -0.6910  0.5524  0.0827
  186MOL0     N24992   6.182   4.275   1.968 -0.2070  0.2137 -0.0114
  186MOL0     C24993   6.086   4.343   1.897 -0.5922 -0.7938 -0.6076
  186MOL0     C24994   6.131   4.471   1.878 -0.3110 -0.2071 -0.5877
  186MOL0     C24995   6.076   4.582   1.793 -0.5915 -0.1809 -0.2302
  186MOL0     C24996   6.071   4.719   1.869 -0.3559 -0.1659  0.0233
  186MOL0     C24997   5.968   4.829   1.831  0.0877  0.5136 -0.1088
  186MOL0     C24998   5.828   4.770   1.827 -0.1617 -0.6949 -0.2205
  186MOL0     O24999   5.728   4.874   1.851 -0.4252  0.2865  0.6828
  186MOL0     C25000   5.609   4.835   1.900 -0.4738  0.2713  0.0275
  186MOL0     C25001   5.560   4.705   1.904  0.9720  0.3556  0.0376
  186MOL0     C25002   5.439   4.658   1.953  0.2194  0.2219  0.6023
  186MOL0     C25003   5.420   4.507   1.955  0.0018 -0.9361 -0.6057
  186MOL0     C25004   5.352   4.752   2.007  0.2976 -0.0033 -0.2779
  186MOL0     C25005   5.211   4.713   2.058  0.5913  0.1573 -0.2596
  186MOL0     O25006   5.150   4.600   2.013  0.7013  0.6837 -0.5687
  186MOL0     C25007   5.019   4.601   2.034  0.0013  0.3246 -1.0601
  186MOL0     C25008   4.930   4.657   1.943 -0.0934 -0.0417  0.2714
  186MOL0     C25009   4.797   4.654   1.966 -0.6824  0.8044 -0.7227
  186MOL0     C25010   4.751   4.623   2.091  0.1362 -0.6772 -0.4397
  186MOL0     O25011   4.625   4.639   2.116 -0.2562 -0.1981 -0.0676
  186MOL0     C25012   4.582   4.775   2.133 -0.3297 -0.2474 -0.3619
  186MOL0     C25013   4.514   4.786   2.269 -0.3949 -0.2905  0.7455
  186MOL0     C25014   4.442   4.920   2.295  0.9421 -0.7935  0.6565
  186MOL0     C25015   4.542   5.023   2.330  0.6657  0.3757 -0.0115
  186MOL0     C25016   4.473   5.152   2.371  0.0582  0.9177 -0.6899
  186MOL0     C25017   4.573   5.257   2.409  0.3775 -0.5059  0.4252
  186MOL0     C25018   4.629   5.251   2.554 -0.1785 -0.2667 -1.4155
  186MOL0     C25019   4.717   5.368   2.589 -0.5149  0.3710 -0.9802
  186MOL0    Cl25020   4.751   5.350   2.766 -0.1171  0.3083 -0.5418
  186MOL0     C25021   4.835   4.570   2.187  0.0293 -0.0041 -0.8568
  186MOL0     C25022   4.976   4.557   2.163  0.6764 -0.6482  0.1391
  186MOL0     O25023   5.163   4.803   2.127 -0.0768 -0.0421 -0.3440
  186MOL0     C25024   5.400   4.889   2.012 -0.1009 -0.1662  0.3156
  186MOL0     C25025   5.524   4.927   1.948 -0.7321 -0.6489 -0.7334
  186MOL0     N25026   6.262   4.472   1.932  0.2898  0.0594 -0.2722
  186MOL0     N25027   6.287   4.363   1.986  0.7874  0.7963  0.4963
  186MOL0     C25028   6.858   3.551   2.289 -0.1332 -0.4717 -0.1972
  186MOL0     C25029   6.994   3.555   2.279 -0.1094 -0.1876  1.2186
  186MOL0     C25030   7.416   3.536   2.176 -0.0366 -0.0977  0.6338
  186MOL0     C25031   7.505   3.435   2.224 -0.1403 -0.9247  0.8041
  186MOL0     C25032   7.639   3.445   2.227  0.3528  0.6597  0.4378
  186MOL0     C25033   7.704   3.570   2.194  0.4057 -0.0699 -0.8101
  186MOL0     O25034   7.838   3.569   2.199 -0.7684 -0.0689  0.4252
  186MOL0     C25035   7.892   3.695   2.231  0.4841  0.3609 -0.6123
  186MOL0     C25036   7.866   3.726   2.387  0.2984 -0.5736  0.6628
  186MOL0     C25037   7.904   3.604   2.467  0.3075  0.3510 -0.4339
  186MOL0     C25038   8.049   3.568   2.482 -0.4964  0.7469  0.1228
  186MOL0     C25039   8.066   3.427   2.506  0.1917 -0.0918 -0.3361
  186MOL0     C25040   8.081   3.307   2.503  0.4304  0.1310  0.5126
  186MOL0     C25041   7.625   3.681   2.166  0.0870 -0.9151 -0.4284
  186MOL0     C25042   7.489   3.657   2.150  0.9211 -0.2780  0.1505
  186MOL0     H25043   7.044   3.790   2.050 -0.1105 -1.0321 -1.8819
  186MOL0     H25044   6.793   3.829   2.102 -1.7905 -0.6341  1.7483
  186MOL0     H25045   6.602   3.520   2.370  1.8521 -0.2244  0.3216
  186MOL0     H25046   6.645   3.655   2.474 -2.8023  0.7816  1.1256
  186MOL0     H25047   6.405   3.599   2.316  1.2133  0.1613 -1.4910
  186MOL0     H25048   6.411   3.622   2.489  1.2639 -0.5113  0.4569
  186MOL0     H25049   6.399   3.858   2.452  1.1415 -0.4900  0.6538
  186MOL0     H25050   6.510   3.850   2.319  1.7643  0.8759  2.8887
  186MOL0     H25051   6.296   3.726   2.195  1.8168  1.4285 -2.6732
  186MOL0     H25052   6.190   3.791   2.327 -0.9504 -2.0697 -3.0644
  186MOL0     H25053   6.281   4.018   2.255  1.1249 -1.4304  3.1998
  186MOL0     H25054   6.372   3.941   2.126 -0.4445  0.8326  0.1537
  186MOL0     H25055   6.187   3.867   2.013  1.3298  0.4466 -0.6223
  186MOL0     H25056   6.066   3.885   2.145 -1.3649  1.2368 -2.7158
  186MOL0     H25057   6.014   4.041   1.991  2.2981 -2.4555 -1.8328
  186MOL0     H25058   6.059   4.114   2.134  0.6033 -2.3032  1.1612
  186MOL0     H25059   6.199   4.102   1.860 -1.8456 -2.9515  1.0273
  186MOL0     H25060   6.309   4.110   1.994  0.7989  1.4385 -3.9880
  186MOL0     H25061   5.994   4.304   1.854 -0.9942  0.9195 -1.3720
  186MOL0     H25062   6.134   4.583   1.701  1.6215  1.5820  1.0723
  186MOL0     H25063   5.974   4.546   1.776 -1.4712  0.8751  2.2373
  186MOL0     H25064   6.172   4.760   1.865 -0.7757  0.8077 -0.9896
  186MOL0     H25065   6.042   4.696   1.972  2.2208 -0.7006  0.7063
  186MOL0     H25066   6.008   4.856   1.733  5.3672 -3.2017  0.5782
  186MOL0     H25067   5.961   4.913   1.901 -0.8246  0.1422  0.2606
  186MOL0     H25068   5.817   4.703   1.913 -2.0361 -3.8634 -2.7299
  186MOL0     H25069   5.807   4.716   1.735 -1.0612 -1.2589  0.3017
  186MOL0     H25070   5.624   4.633   1.853  0.0887 -1.5589  1.5265
  186MOL0     H25071   5.345   4.473   2.027  1.7582  1.5055  2.6660
  186MOL0     H25072   5.401   4.484   1.850 -3.0916  0.4398 -0.4499
  186MOL0     H25073   5.514   4.458   1.983  0.6400 -0.2395 -1.5087
  186MOL0     H25074   4.963   4.700   1.848 -1.3895  0.8897  0.2224
  186MOL0     H25075   4.736   4.675   1.878  0.2759  2.5941 -1.0008
  186MOL0     H25076   4.671   4.838   2.134  0.1214 -0.6752 -3.6156
  186MOL0     H25077   4.526   4.794   2.041  0.1156 -0.8836 -0.7708
  186MOL0     H25078   4.443   4.703   2.258  0.7650 -1.1288 -0.7735
  186MOL0     H25079   4.590   4.757   2.342 -0.6523  0.8633  1.4917
  186MOL0     H25080   4.364   4.907   2.370 -1.5068  6.2126  0.0213
  186MOL0     H25081   4.393   4.954   2.204  1.4635 -0.5427  0.4646
  186MOL0     H25082   4.599   4.982   2.414 -0.7285 -1.9352 -0.1238
  186MOL0     H25083   4.608   5.054   2.248 -0.3763  4.0750  0.3395
  186MOL0     H25084   4.405   5.134   2.454 -0.0976 -0.3072 -1.0599
  186MOL0     H25085   4.416   5.189   2.285 -2.1910 -2.4818 -0.8548
  186MOL0     H25086   4.652   5.269   2.333 -0.2396 -2.9896 -0.7039
  186MOL0     H25087   4.520   5.352   2.397 -2.1061 -2.0245 -1.3989
  186MOL0     H25088   4.694   5.164   2.567  1.0233  0.1645 -3.9433
  186MOL0     H25089   4.541   5.259   2.620  2.3866  3.4322  1.9846
  186MOL0     H25090   4.674   5.466   2.565 -1.0829  0.8312  1.6061
  186MOL0     H25091   4.802   5.367   2.521 -0.2045 -1.3945 -0.6295
  186MOL0     H25092   4.809   4.528   2.283  3.3212 -0.9733 -0.2413
  186MOL0     H25093   5.049   4.523   2.236  1.4048  1.7221  0.5936
  186MOL0     H25094   5.346   4.967   2.066  3.0398 -0.3256  4.1262
  186MOL0     H25095   5.548   5.031   1.965 -0.7236 -0.7102 -0.3428
  186MOL0     H25096   6.809   3.489   2.364  0.2282  0.5836  0.9503
  186MOL0     H25097   7.032   3.475   2.342 -3.1061 -0.4435  2.8791
  186MOL0     H25098   7.467   3.335   2.242  0.3704 -1.2530  0.1474
  186MOL0     H25099   7.698   3.354   2.227  0.7560  0.6657 -4.1208
  186MOL0     H25100   7.999   3.686   2.211  0.6180 -0.6842  0.4810
  186MOL0     H25101   7.865   3.776   2.162  0.9057  1.1664  0.1451
  186MOL0     H25102   7.758   3.739   2.397 -0.2733 -3.0736 -1.1942
  186MOL0     H25103   7.906   3.823   2.418 -2.1452  1.8060 -2.8531
  186MOL0     H25104   7.847   3.516   2.437  1.9794 -1.0952  0.4635
  186MOL0     H25105   7.868   3.624   2.568  0.4692 -0.6510 -0.1754
  186MOL0     H25106   8.089   3.624   2.567  0.5304 -1.3840  1.1227
  186MOL0     H25107   8.112   3.604   2.400  1.0334  2.2564  1.8773
  186MOL0     H25108   8.096   3.201   2.509 -0.8265  0.0343  3.0820
  186MOL0     H25109   7.663   3.780   2.143 -1.2277 -0.2793  0.0307
  186MOL0     H25110   7.428   3.743   2.126  0.6132 -1.1147 -2.2899
  187MOL0     O25111   8.876   5.444   8.924  0.2269 -0.1442 -0.5285
  187MOL0     C25112   8.990   5.485   8.918  0.6039  0.1745 -0.7325
  187MOL0     O25113   9.080   5.448   8.828 -0.9718 -0.0453 -0.3064
  187MOL0     C25114   9.070   5.345   8.739  0.1963  0.8853  0.3186
  187MOL0     C25115   8.964   5.249   8.742  0.2324  0.3181 -0.2277
  187MOL0     C25116   8.944   5.174   8.621 -0.6513 -0.4381  0.9872
  187MOL0     C25117   9.040   5.173   8.521  0.5722 -0.7956  0.7497
  187MOL0     O25118   9.024   5.107   8.397  0.3034  0.5455  0.3689
  187MOL0     C25119   8.994   4.967   8.392 -0.3083 -0.1783  0.6533
  187MOL0     C25120   9.107   4.889   8.334  0.2165 -0.2724 -0.0745
  187MOL0     C25121   9.133   4.897   8.182 -0.7860  0.2290 -0.4282
  187MOL0     C25122   9.249   4.806   8.138  0.9267  0.0381  0.0883
  187MOL0     C25123   9.266   4.812   7.984  0.4192 -0.4806 -0.0183
  187MOL0     C25124   9.386   4.737   7.934 -0.3531  0.2277  0.0203
  187MOL0     C25125   9.523   4.811   7.979  0.0653 -0.3132 -0.3458
  187MOL0     C25126   9.637   4.780   7.880 -0.6144 -0.5778 -0.1060
  187MOL0     N25127   9.681   4.642   7.886 -0.6519  1.3410 -0.0188
  187MOL0     C25128   9.629   4.527   7.835 -0.3642  0.7968  0.1536
  187MOL0     C25129   9.710   4.428   7.875  0.2865 -0.5020 -0.4442
  187MOL0     C25130   9.705   4.293   7.820 -0.3838 -0.3948  0.4830
  187MOL0     C25131   9.698   4.178   7.926  0.1002  0.2849  0.0276
  187MOL0     C25132   9.704   4.040   7.861  0.3312  0.7237  0.6182
  187MOL0     C25133   9.561   3.993   7.821 -0.1040 -0.3440  0.0300
  187MOL0     O25134   9.487   3.931   7.917 -0.6299 -0.7982  0.5070
  187MOL0     C25135   9.527   3.797   7.944  0.6808 -0.3822  0.1069
  187MOL0     C25136   9.547   3.778   8.083 -0.0847 -0.2188 -0.0558
  187MOL0     C25137   9.579   3.649   8.130 -0.2324  0.0452  1.0708
  187MOL0     C25138   9.607   3.623   8.274 -0.5481 -0.8180 -0.7272
  187MOL0     C25139   9.582   3.546   8.043  0.6450  0.1033  0.0653
  187MOL0     C25140   9.591   3.403   8.094 -1.0644 -0.2807 -0.2554
  187MOL0     O25141   9.696   3.322   8.053 -0.1088 -0.8182 -0.8980
  187MOL0     C25142   9.736   3.218   8.135 -0.1778 -0.1964 -0.8781
  187MOL0     C25143   9.708   3.198   8.279 -0.1722 -0.3110 -0.4597
  187MOL0     C25144   9.743   3.076   8.339  1.1317  0.1209  0.6411
  187MOL0     C25145   9.806   2.978   8.267 -1.4145 -0.4682  0.0887
  187MOL0     O25146   9.836   2.869   8.343 -0.2079  0.4760  0.4878
  187MOL0     C25147   9.852   2.751   8.265  0.1055  0.3314  0.0596
  187MOL0     C25148   9.826   2.632   8.347  0.2767  0.0757 -0.0538
  187MOL0     C25149   9.866   2.497   8.268 -0.7961 -0.2612 -0.7942
  187MOL0     C25150   9.754   2.463   8.177  0.3796 -0.2130 -0.1926
  187MOL0     C25151   9.756   2.323   8.115  0.0503  0.3846  0.5551
  187MOL0     C25152   9.652   2.295   8.006  0.0179  0.5495  0.2089
  187MOL0     C25153   9.504   2.327   8.038 -0.1013  0.4840  0.8116
  187MOL0     C25154   9.408   2.293   7.919  0.1817 -1.0210 -0.1794
  187MOL0    Cl25155   9.266   2.395   7.929 -0.0587 -0.0877 -0.1773
  187MOL0     C25156   9.845   3.000   8.137 -0.5317 -0.8530  0.0081
  187MOL0     C25157   9.806   3.117   8.068 -0.2354 -0.4039 -0.3183
  187MOL0     O25158   9.506   3.358   8.170 -0.2459 -0.5347  0.4743
  187MOL0     C25159   9.569   3.559   7.909 -0.2136  0.5938 -0.5977
  187MOL0     C25160   9.538   3.688   7.858 -0.0411 -0.2213 -0.0805
  187MOL0     N25161   9.805   4.485   7.954 -0.0716  0.0143  0.2269
  187MOL0     N25162   9.790   4.618   7.966  0.0646  0.0567  0.0222
  187MOL0     C25163   9.159   5.251   8.543 -0.2001  0.2033  0.5471
  187MOL0     C25164   9.172   5.341   8.645  0.1245  0.1522 -0.1411
  187MOL0     C25165   9.023   5.590   9.022  0.0481  1.1514 -0.2713
  187MOL0     C25166   8.923   5.650   9.100  0.1562 -0.1621  0.3995
  187MOL0     C25167   8.970   5.724   9.212  0.6283  0.3059  0.4232
  187MOL0     C25168   9.100   5.754   9.231 -0.3302 -0.1239 -0.1393
  187MOL0     O25169   9.129   5.833   9.337  0.2980 -0.5614 -0.3960
  187MOL0     C25170   9.250   5.899   9.333  0.0213 -0.4690  0.3224
  187MOL0     C25171   9.366   5.802   9.387  0.4596  0.1637  0.5896
  187MOL0     C25172   9.432   5.864   9.508  0.2923 -0.6202 -0.6477
  187MOL0     C25173   9.573   5.812   9.531 -0.1745  0.3825  1.2533
  187MOL0     C25174   9.620   5.848   9.663  0.2598 -0.3614  0.2056
  187MOL0     C25175   9.667   5.889   9.766 -0.2942  0.0351 -1.0637
  187MOL0     C25176   9.191   5.702   9.140  0.0396  0.0879  0.0321
  187MOL0     C25177   9.162   5.611   9.040  0.3387  0.9451 -0.4790
  187MOL0     H25178   8.890   5.244   8.821  2.8678  0.9798  2.4549
  187MOL0     H25179   8.848   5.123   8.622 -1.4538  0.8937 -1.0443
  187MOL0     H25180   8.973   4.919   8.488  1.5854 -0.7702  0.8112
  187MOL0     H25181   8.902   4.954   8.335  0.0422  2.0814 -0.5142
  187MOL0     H25182   9.197   4.901   8.394 -0.4190 -1.9596  1.2878
  187MOL0     H25183   9.074   4.785   8.344 -0.0709 -1.2380 -6.4050
  187MOL0     H25184   9.042   4.863   8.132 -2.5840  1.0016  2.1129
  187MOL0     H25185   9.143   4.998   8.142  3.5233 -0.3876 -1.3768
  187MOL0     H25186   9.336   4.826   8.201 -0.1632  0.5862  1.4571
  187MOL0     H25187   9.236   4.701   8.166  2.2447 -0.0700  0.3491
  187MOL0     H25188   9.184   4.766   7.928  0.3861  0.1421 -0.4863
  187MOL0     H25189   9.280   4.916   7.954  1.3672 -0.1109  1.5528
  187MOL0     H25190   9.384   4.630   7.957  1.4250 -0.3453 -2.1438
  187MOL0     H25191   9.382   4.718   7.826  3.4411 -1.1023 -0.0255
  187MOL0     H25192   9.497   4.917   7.976 -2.3273 -0.8629 -1.5008
  187MOL0     H25193   9.533   4.783   8.085 -1.0751 -1.3989 -0.5072
  187MOL0     H25194   9.729   4.839   7.894 -0.0743 -1.6121  0.8683
  187MOL0     H25195   9.594   4.802   7.782  0.7624  3.8406  0.0358
  187MOL0     H25196   9.540   4.523   7.774 -1.3010  1.3207  1.4488
  187MOL0     H25197   9.627   4.278   7.745  0.1204 -0.5648 -0.0124
  187MOL0     H25198   9.794   4.273   7.760 -1.4917 -1.3211 -0.9404
  187MOL0     H25199   9.605   4.173   7.983  0.1703 -1.1019  0.0491
  187MOL0     H25200   9.776   4.193   8.002 -0.2953  3.4244 -0.0223
  187MOL0     H25201   9.749   3.961   7.923 -1.1824 -0.1266  0.6899
  187MOL0     H25202   9.765   4.039   7.771  2.0660 -1.6201  1.6859
  187MOL0     H25203   9.559   3.920   7.740 -0.4776 -1.0270  0.6483
  187MOL0     H25204   9.497   4.073   7.782  0.7225  0.5824  0.5097
  187MOL0     H25205   9.519   3.863   8.145  0.4948  0.5519 -0.8384
  187MOL0     H25206   9.614   3.717   8.329 -4.5719 -1.5945  1.5597
  187MOL0     H25207   9.514   3.588   8.320 -0.9083  1.2343  0.2407
  187MOL0     H25208   9.691   3.560   8.303 -1.6371 -2.9724 -2.0142
  187MOL0     H25209   9.660   3.273   8.341 -1.5379 -1.7926  0.3638
  187MOL0     H25210   9.700   3.059   8.437 -0.6671 -1.5158 -0.3619
  187MOL0     H25211   9.789   2.750   8.176  0.9047  0.5467 -0.5261
  187MOL0     H25212   9.957   2.745   8.235  0.4180 -1.1876  1.3016
  187MOL0     H25213   9.884   2.633   8.439 -0.5042 -2.0104  0.5235
  187MOL0     H25214   9.722   2.630   8.381  0.6619 -1.5856  1.1827
  187MOL0     H25215   9.878   2.422   8.347  0.0434  0.3150 -0.3613
  187MOL0     H25216   9.961   2.505   8.215 -0.7535  0.5751 -0.6012
  187MOL0     H25217   9.666   2.476   8.242  0.3689  0.1211 -0.2703
  187MOL0     H25218   9.745   2.538   8.098 -0.0738 -1.1268 -1.0266
  187MOL0     H25219   9.744   2.252   8.197 -1.4410 -0.2528 -0.1808
  187MOL0     H25220   9.854   2.315   8.068  0.9851  1.1860  2.2665
  187MOL0     H25221   9.694   2.345   7.918  0.3491 -0.7478 -0.3935
  187MOL0     H25222   9.656   2.188   7.986  2.2003 -0.2858  4.0224
  187MOL0     H25223   9.490   2.434   8.054  0.1318  1.0259 -2.0034
  187MOL0     H25224   9.483   2.279   8.134  4.6595 -0.0557  1.8330
  187MOL0     H25225   9.399   2.184   7.909 -1.8022 -0.7325 -2.7007
  187MOL0     H25226   9.463   2.334   7.834  0.6308  2.4096  1.6051
  187MOL0     H25227   9.904   2.926   8.085 -1.2433 -0.6936 -1.0708
  187MOL0     H25228   9.832   3.119   7.962  0.9549 -0.7948 -0.0403
  187MOL0     H25229   9.580   3.484   7.831  0.6745  1.9092 -1.7689
  187MOL0     H25230   9.537   3.711   7.752 -0.9742  1.5481  0.2733
  187MOL0     H25231   9.241   5.255   8.471 -0.1143  1.0503  0.6832
  187MOL0     H25232   9.260   5.402   8.661 -2.7071  4.2184  1.6745
  187MOL0     H25233   8.821   5.625   9.073  0.6055 -0.9044 -0.6468
  187MOL0     H25234   8.892   5.744   9.285 -0.0144 -2.1101  0.4667
  187MOL0     H25235   9.272   5.925   9.229 -1.1381 -0.6198  0.0316
  187MOL0     H25236   9.257   5.990   9.394 -0.1058  0.0637 -0.4510
  187MOL0     H25237   9.438   5.785   9.306 -1.6120 -1.2873 -1.0831
  187MOL0     H25238   9.324   5.704   9.414 -2.1311  2.1493  4.9414
  187MOL0     H25239   9.371   5.834   9.594 -0.0230  0.1613 -0.5887
  187MOL0     H25240   9.445   5.973   9.504  2.6839 -0.9046 -3.5001
  187MOL0     H25241   9.645   5.843   9.455 -1.5395  0.2851 -0.1225
  187MOL0     H25242   9.572   5.703   9.538  1.7226  0.2021 -0.6065
  187MOL0     H25243   9.729   5.907   9.852  1.5662  0.1072 -2.3777
  187MOL0     H25244   9.298   5.719   9.144  0.3793 -1.7341 -0.4604
  187MOL0     H25245   9.238   5.555   8.986 -1.0027 -0.7347 -0.7028
  188MOL0     O25246   8.372   5.531  11.130  0.4294 -0.4222 -0.8480
  188MOL0     C25247   8.459   5.554  11.055 -0.5252  0.2522  0.2053
  188MOL0     O25248   8.513   5.674  11.031  0.6596 -0.4050  0.0762
  188MOL0     C25249   8.479   5.797  11.084 -0.1866 -0.2700  0.8805
  188MOL0     C25250   8.381   5.825  11.176  0.1187 -0.9809 -0.5130
  188MOL0     C25251   8.373   5.949  11.243  0.8766  0.1481 -0.1021
  188MOL0     C25252   8.462   6.050  11.209 -0.7246  0.3338  0.4776
  188MOL0     O25253   8.453   6.176  11.273  0.4857  0.0149  0.3040
  188MOL0     C25254   8.335   6.246  11.245  0.5821 -0.8431 -0.2471
  188MOL0     C25255   8.374   6.374  11.176 -0.5089  0.9390  1.0190
  188MOL0     C25256   8.454   6.458  11.268  0.4178 -0.2503  0.3280
  188MOL0     C25257   8.460   6.595  11.199  0.2311 -0.5036 -0.6567
  188MOL0     C25258   8.572   6.677  11.270 -0.6133 -0.0261  0.2020
  188MOL0     C25259   8.514   6.748  11.395 -0.2337 -0.0140  1.0463
  188MOL0     C25260   8.617   6.842  11.469  0.3823 -0.2139  0.0397
  188MOL0     C25261   8.605   6.847  11.621  0.8620  0.7452 -0.4834
  188MOL0     N25262   8.686   6.953  11.682 -0.2787  0.2447 -0.1436
  188MOL0     C25263   8.821   6.961  11.678  0.4542 -0.1897  0.3471
  188MOL0     C25264   8.853   7.056  11.760 -0.0092  0.1334  0.5783
  188MOL0     C25265   9.001   7.096  11.786  0.1289  0.2603 -0.4106
  188MOL0     C25266   9.038   7.239  11.832 -0.4585  0.7908  0.2450
  188MOL0     C25267   9.007   7.341  11.726  0.4426  0.3441 -0.0167
  188MOL0     C25268   8.940   7.464  11.785  0.8510  0.2704  0.9586
  188MOL0     O25269   8.916   7.575  11.699  0.0606 -0.0078  0.3343
  188MOL0     C25270   9.026   7.646  11.660  1.2553  0.1371  0.0424
  188MOL0     C25271   9.154   7.642  11.709 -0.7358 -0.2570  0.3126
  188MOL0     C25272   9.267   7.706  11.663 -0.0507 -0.6543 -0.0902
  188MOL0     C25273   9.403   7.678  11.726  0.5426 -0.1000 -0.0156
  188MOL0     C25274   9.248   7.797  11.555  0.9132  0.4166  0.4135
  188MOL0     C25275   9.352   7.879  11.491 -0.8826 -1.4490  0.9158
  188MOL0     O25276   9.476   7.869  11.543  0.4069  0.3029  0.1883
  188MOL0     C25277   9.577   7.951  11.496  0.8726  0.0115  0.2092
  188MOL0     C25278   9.634   7.954  11.369 -0.2717  0.0486 -0.6682
  188MOL0     C25279   9.719   8.062  11.332  0.1408  0.8760 -0.3408
  188MOL0     C25280   9.733   8.173  11.415  0.0820  0.8795 -1.1474
  188MOL0     O25281   9.806   8.282  11.385  0.2185 -0.1888  0.3293
  188MOL0     C25282   9.825   8.300  11.241 -0.5497 -0.1783 -0.1296
  188MOL0     C25283   9.853   8.453  11.228 -0.0575 -0.2755 -0.4296
  188MOL0     C25284  10.002   8.477  11.238 -0.9236 -1.2883 -0.5593
  188MOL0     C25285  10.036   8.621  11.198 -0.2554 -0.4513  0.1526
  188MOL0     C25286  10.189   8.625  11.168  0.6952  0.1967  0.3433
  188MOL0     C25287  10.232   8.754  11.109 -0.8760 -0.4429 -0.2204
  188MOL0     C25288  10.376   8.756  11.045  0.2376 -0.6626  0.3102
  188MOL0     C25289  10.481   8.763  11.152  0.9282  0.1073 -0.1331
  188MOL0    Cl25290  10.638   8.768  11.071  0.5839 -0.0993  0.1418
  188MOL0     C25291   9.686   8.164  11.547  0.1132 -0.5184 -0.1094
  188MOL0     C25292   9.603   8.056  11.583 -0.1844  0.4483  0.4166
  188MOL0     O25293   9.323   7.940  11.390  0.0191 -0.2079  0.2365
  188MOL0     C25294   9.111   7.815  11.518  0.0027 -0.4805  0.0245
  188MOL0     C25295   9.004   7.745  11.561  0.3022  0.8558  0.1330
  188MOL0     N25296   8.740   7.103  11.817 -0.3153 -0.2268  0.0683
  188MOL0     N25297   8.638   7.052  11.765 -0.0662  1.7960  0.1781
  188MOL0     C25298   8.560   6.029  11.114 -0.9623  0.0701  0.9963
  188MOL0     C25299   8.568   5.898  11.044 -0.3197  0.3841 -0.0390
  188MOL0     C25300   8.510   5.446  10.964 -0.4179 -0.1575  0.1864
  188MOL0     C25301   8.481   5.318  11.006 -0.1566  0.2860 -0.6013
  188MOL0     C25302   8.528   5.214  10.929 -0.1166  0.5047  0.4845
  188MOL0     C25303   8.601   5.229  10.809  0.1132  0.2640  0.2015
  188MOL0     O25304   8.661   5.133  10.735 -0.1091  0.1917  0.0765
  188MOL0     C25305   8.702   5.002  10.805 -0.4731 -0.0214  0.3900
  188MOL0     C25306   8.662   4.876  10.737 -0.1539 -0.8743  0.2671
  188MOL0     C25307   8.518   4.874  10.683  0.1220 -0.3851 -0.7404
  188MOL0     C25308   8.427   4.898  10.803 -0.0894  0.5005 -0.0626
  188MOL0     C25309   8.286   4.858  10.775 -0.3942  0.0052 -0.1610
  188MOL0     C25310   8.169   4.822  10.766  0.3748  0.0193  0.0362
  188MOL0     C25311   8.609   5.359  10.755  0.0283 -0.7272 -1.5201
  188MOL0     C25312   8.573   5.471  10.836  0.2410  0.1618  0.3135
  188MOL0     H25313   8.312   5.748  11.210  0.6902 -0.9317  0.8442
  188MOL0     H25314   8.301   5.957  11.324 -1.1743  2.0857 -1.9855
  188MOL0     H25315   8.258   6.188  11.195 -2.9054  2.9248  0.2089
  188MOL0     H25316   8.297   6.270  11.345  0.1134  1.1158 -0.8491
  188MOL0     H25317   8.438   6.362  11.088  0.3297  1.9551  1.4772
  188MOL0     H25318   8.283   6.425  11.142 -0.0405  0.7748 -0.5508
  188MOL0     H25319   8.407   6.474  11.366  1.7371  0.0642  0.9390
  188MOL0     H25320   8.548   6.404  11.282  0.0162 -1.5215 -1.5299
  188MOL0     H25321   8.488   6.589  11.094  1.1139  1.9403 -0.6074
  188MOL0     H25322   8.365   6.649  11.213  3.4108  5.5344  0.9916
  188MOL0     H25323   8.653   6.618  11.314  2.8682  2.9799 -1.5644
  188MOL0     H25324   8.621   6.746  11.200  1.6972 -1.3088  0.4483
  188MOL0     H25325   8.424   6.801  11.362 -0.8796 -1.2821  0.6684
  188MOL0     H25326   8.483   6.660  11.452  0.5887 -1.2403 -0.3421
  188MOL0     H25327   8.717   6.806  11.446 -0.2506 -2.7848  0.9474
  188MOL0     H25328   8.620   6.945  11.432  0.2631 -0.7571 -1.5537
  188MOL0     H25329   8.644   6.750  11.653 -0.9988 -0.3631 -1.4312
  188MOL0     H25330   8.503   6.869  11.654 -0.9167 -2.0972 -3.4807
  188MOL0     H25331   8.890   6.896  11.626 -1.3465 -0.4247 -1.8965
  188MOL0     H25332   9.037   7.028  11.864 -1.4441 -0.4839 -0.2925
  188MOL0     H25333   9.054   7.072  11.693 -0.1531  2.3486 -1.1660
  188MOL0     H25334   9.143   7.237  11.863  0.1650  0.7379 -1.6958
  188MOL0     H25335   8.981   7.267  11.920 -0.4934  0.1638  0.4296
  188MOL0     H25336   8.944   7.293  11.652 -0.7365  2.4550 -0.4573
  188MOL0     H25337   9.101   7.372  11.680  2.1285 -3.6872  0.2632
  188MOL0     H25338   9.008   7.486  11.868  0.6382 -1.2816  1.5911
  188MOL0     H25339   8.850   7.433  11.839  1.3829  0.0077  1.7258
  188MOL0     H25340   9.174   7.564  11.782  0.6890 -0.0214  0.1892
  188MOL0     H25341   9.469   7.635  11.650  0.0502  2.6481 -2.1413
  188MOL0     H25342   9.459   7.761  11.770  3.0853 -3.1902  3.2384
  188MOL0     H25343   9.384   7.609  11.809 -1.7562  0.5123  0.0315
  188MOL0     H25344   9.612   7.875  11.298 -0.7333 -0.9379  0.5396
  188MOL0     H25345   9.756   8.046  11.231 -1.3413  0.7876 -0.8990
  188MOL0     H25346   9.909   8.237  11.210 -1.1935 -1.7201  1.1281
  188MOL0     H25347   9.731   8.280  11.190 -1.2308  0.7476  0.7107
  188MOL0     H25348   9.827   8.470  11.123  3.9161 -3.1439 -2.1280
  188MOL0     H25349   9.803   8.519  11.299  2.9483 -1.1519  2.7553
  188MOL0     H25350  10.049   8.423  11.155  0.7232 -0.2575 -0.3434
  188MOL0     H25351  10.051   8.451  11.332 -0.6444  0.6901 -0.1051
  188MOL0     H25352   9.995   8.668  11.108 -0.5954 -1.2950 -0.1329
  188MOL0     H25353  10.010   8.679  11.287 -0.2860 -1.8239  1.0685
  188MOL0     H25354  10.209   8.557  11.085  3.9960  3.4823 -1.8497
  188MOL0     H25355  10.254   8.605  11.255 -0.9798  4.2766  2.8209
  188MOL0     H25356  10.160   8.773  11.028  0.5217  0.6798 -1.2504
  188MOL0     H25357  10.221   8.841  11.175  1.3684 -0.9371  0.8967
  188MOL0     H25358  10.372   8.837  10.972 -2.3552 -0.2197  0.8565
  188MOL0     H25359  10.389   8.662  10.990 -1.8043 -0.4984 -0.5461
  188MOL0     H25360  10.480   8.669  11.209  7.6796 -0.0928  0.4903
  188MOL0     H25361  10.464   8.845  11.222  0.8244 -0.2595  0.2770
  188MOL0     H25362   9.706   8.252  11.607 -0.3754 -1.3663  1.3389
  188MOL0     H25363   9.544   8.069  11.673 -2.4844  1.1651 -1.1096
  188MOL0     H25364   9.087   7.892  11.445 -2.3343  1.5435  2.6736
  188MOL0     H25365   8.914   7.770  11.506  0.7506 -0.6440 -1.3907
  188MOL0     H25366   8.624   6.116  11.104 -3.0138  1.5563 -0.1378
  188MOL0     H25367   8.645   5.879  10.970  2.3652  2.4082  2.0135
  188MOL0     H25368   8.438   5.291  11.102 -1.2904 -1.8261 -1.6226
  188MOL0     H25369   8.521   5.119  10.982 -3.4759  0.5801  0.3747
  188MOL0     H25370   8.812   5.006  10.803 -0.3837 -0.4248  2.2186
  188MOL0     H25371   8.680   5.012  10.912  1.5056  0.9129  0.7584
  188MOL0     H25372   8.685   4.797  10.809  0.7622 -1.8910 -1.0953
  188MOL0     H25373   8.729   4.870  10.651 -0.5137 -0.4061 -0.0453
  188MOL0     H25374   8.499   4.774  10.643  0.3104 -1.1206  0.9551
  188MOL0     H25375   8.505   4.942  10.598  0.4532  0.7423  0.0823
  188MOL0     H25376   8.430   5.003  10.834  1.0510  0.2553  0.7216
  188MOL0     H25377   8.449   4.833  10.888 -0.9746 -2.3195 -1.8348
  188MOL0     H25378   8.068   4.790  10.758  0.3537  0.4002 -1.3834
  188MOL0     H25379   8.642   5.393  10.657  0.1886  0.9927 -0.9140
  188MOL0     H25380   8.570   5.570  10.792  1.3656  0.8161  1.6131
  189MOL0     O25381  11.100   3.021   1.647 -0.2208 -0.2904  0.0280
  189MOL0     C25382  11.185   2.952   1.704  0.2969  0.1909  0.1338
  189MOL0     O25383  11.255   2.851   1.642  0.1743 -0.4015  0.4778
  189MOL0     C25384  11.229   2.833   1.504  0.5543 -1.4823 -0.2373
  189MOL0     C25385  11.332   2.876   1.422  0.0127 -0.1548  1.1533
  189MOL0     C25386  11.325   2.845   1.285 -0.1715  0.3272 -0.1351
  189MOL0     C25387  11.214   2.771   1.226 -0.6069 -0.4075  0.2303
  189MOL0     O25388  11.219   2.753   1.095 -0.6079  0.2932 -0.7421
  189MOL0     C25389  11.183   2.614   1.061 -0.0438 -1.0301 -0.1116
  189MOL0     C25390  11.235   2.572   0.917  0.0885 -0.0675  0.5741
  189MOL0     C25391  11.114   2.538   0.827  0.0375  0.1560  0.2890
  189MOL0     C25392  11.182   2.503   0.688 -0.0956 -0.5330  0.8442
  189MOL0     C25393  11.075   2.471   0.581  0.5031  0.0636 -0.3954
  189MOL0     C25394  11.154   2.447   0.442 -0.4627 -0.7076  0.1055
  189MOL0     C25395  11.065   2.390   0.335 -0.3569  0.5889 -0.2948
  189MOL0     C25396  11.158   2.333   0.230 -0.3324  0.7630  0.0482
  189MOL0     N25397  11.085   2.300   0.110  0.2976 -0.1433 -0.6499
  189MOL0     C25398  11.080   2.380   0.010 -0.1385  0.0798 -0.2443
  189MOL0     C25399  11.023   2.306  -0.087  0.4157 -0.5640  0.0563
  189MOL0     C25400  11.028   2.335  -0.240 -0.6075 -1.1542 -1.0894
  189MOL0     C25401  10.909   2.294  -0.316 -0.0484 -0.1770  0.1058
  189MOL0     C25402  10.905   2.305  -0.474 -0.3531  0.0080  0.0237
  189MOL0     C25403  10.780   2.257  -0.533  0.9324  0.2247 -0.0374
  189MOL0     O25404  10.671   2.352  -0.518 -0.8671 -0.3171 -0.7586
  189MOL0     C25405  10.556   2.290  -0.560  0.6845 -0.0257 -0.3185
  189MOL0     C25406  10.460   2.261  -0.463  0.6347  1.0259  0.8918
  189MOL0     C25407  10.327   2.232  -0.495  0.0584  0.9399  0.3956
  189MOL0     C25408  10.235   2.199  -0.378 -0.4648  1.1678  0.1170
  189MOL0     C25409  10.289   2.222  -0.636 -0.3755 -0.4083 -0.3001
  189MOL0     C25410  10.158   2.185  -0.688  0.3896 -0.0363 -0.7050
  189MOL0     O25411  10.130   2.239  -0.812 -0.0870  0.5726 -0.2554
  189MOL0     C25412  10.015   2.186  -0.872 -1.2718 -0.3221  0.3078
  189MOL0     C25413  10.033   2.118  -0.993  0.0744 -0.7558  0.1987
  189MOL0     C25414   9.913   2.084  -1.071 -0.2809  0.0657  0.6727
  189MOL0     C25415   9.785   2.106  -1.026 -0.4460  0.3322 -0.1090
  189MOL0     O25416   9.682   2.073  -1.104 -0.1892  0.4017 -0.3686
  189MOL0     C25417   9.559   2.067  -1.035  1.1583  0.1775 -0.0873
  189MOL0     C25418   9.458   1.979  -1.104  0.1361  0.9868  0.3764
  189MOL0     C25419   9.421   2.025  -1.246 -0.2916 -0.4995  0.6033
  189MOL0     C25420   9.337   1.911  -1.314 -0.7149 -0.8196 -0.7339
  189MOL0     C25421   9.305   1.948  -1.460  0.0918 -1.0371 -0.0034
  189MOL0     C25422   9.189   1.865  -1.510  0.3007 -0.3249 -1.1568
  189MOL0     C25423   9.139   1.910  -1.639  0.0246 -0.2772  0.1003
  189MOL0     C25424   8.994   1.862  -1.631 -0.4378  0.0079 -0.4658
  189MOL0    Cl25425   8.903   1.978  -1.528  0.4214 -0.1149 -0.3760
  189MOL0     C25426   9.774   2.182  -0.911  0.2783  0.2047 -1.1945
  189MOL0     C25427   9.887   2.220  -0.837  0.0146  0.7983  0.2556
  189MOL0     O25428  10.087   2.105  -0.628 -1.2456  0.3088 -0.6073
  189MOL0     C25429  10.397   2.237  -0.732  1.0324 -0.4712 -0.0645
  189MOL0     C25430  10.527   2.278  -0.699  0.0622  0.8543 -0.6515
  189MOL0     N25431  10.983   2.190  -0.030  0.8988  0.6770 -0.4111
  189MOL0     N25432  11.011   2.184   0.091  0.0256 -0.3897  0.3389
  189MOL0     C25433  11.105   2.734   1.312  0.3409  0.2861 -0.1362
  189MOL0     C25434  11.113   2.764   1.453  0.3489  0.1126 -0.0342
  189MOL0     C25435  11.225   2.996   1.842  0.0284 -0.6248 -1.1504
  189MOL0     C25436  11.149   3.075   1.932 -0.3749 -0.3283  1.4254
  189MOL0     C25437  11.195   3.117   2.052  0.2657 -0.5591 -0.4066
  189MOL0     C25438  11.315   3.068   2.108 -0.1146  0.2080 -0.1623
  189MOL0     O25439  11.358   3.116   2.228 -0.6594  0.1779 -0.1207
  189MOL0     C25440  11.487   3.057   2.270 -0.1378 -0.7094  0.4801
  189MOL0     C25441  11.520   3.113   2.408 -1.0268 -0.5190  0.1082
  189MOL0     C25442  11.522   3.267   2.401  0.3355  0.4421  0.3206
  189MOL0     C25443  11.628   3.338   2.498  0.0077  0.2101  0.0527
  189MOL0     C25444  11.763   3.329   2.445 -0.2517  0.1002  0.4199
  189MOL0     C25445  11.862   3.353   2.385  0.1313  1.6087  0.3483
  189MOL0     C25446  11.400   2.993   2.017  0.3292 -0.0704  1.7986
  189MOL0     C25447  11.354   2.954   1.886 -0.1871  0.4504 -0.1357
  189MOL0     H25448  11.411   2.933   1.468 -1.3090  1.1715  1.8540
  189MOL0     H25449  11.406   2.878   1.220  0.8671  0.2311  1.0626
  189MOL0     H25450  11.226   2.548   1.137  3.2650 -2.0264 -2.6272
  189MOL0     H25451  11.076   2.588   1.058 -0.1543 -0.6454  0.5200
  189MOL0     H25452  11.288   2.657   0.872 -1.1352  0.3105 -0.1961
  189MOL0     H25453  11.302   2.486   0.919 -0.0090 -0.1565  0.1539
  189MOL0     H25454  11.066   2.450   0.871  0.6763 -1.0026 -1.2050
  189MOL0     H25455  11.030   2.607   0.819 -1.8848 -2.1592 -0.7062
  189MOL0     H25456  11.244   2.584   0.648 -1.9547 -0.3801 -1.9762
  189MOL0     H25457  11.237   2.410   0.705 -2.0089 -1.9321 -0.2770
  189MOL0     H25458  11.016   2.386   0.615 -3.2245  1.3750 -2.9151
  189MOL0     H25459  11.000   2.550   0.590  0.0295 -0.5226  0.9284
  189MOL0     H25460  11.191   2.545   0.412 -0.7942  0.2132  2.4990
  189MOL0     H25461  11.239   2.380   0.460 -1.1253 -1.2272  1.4998
  189MOL0     H25462  11.009   2.303   0.369 -0.0398  0.5299  0.0819
  189MOL0     H25463  11.009   2.468   0.281 -0.6384 -1.9212 -4.0641
  189MOL0     H25464  11.204   2.241   0.267 -2.0101  0.8148  2.5056
  189MOL0     H25465  11.240   2.398   0.200 -1.2211  1.5758 -0.6881
  189MOL0     H25466  11.124   2.480   0.004  1.1455 -0.4307  0.2909
  189MOL0     H25467  11.042   2.442  -0.254 -0.8341 -0.9856 -0.0999
  189MOL0     H25468  11.119   2.283  -0.274  1.5048  0.5935  1.4866
  189MOL0     H25469  10.820   2.351  -0.286  1.4053  2.4621 -0.3311
  189MOL0     H25470  10.903   2.189  -0.286  5.7546 -0.5175  1.1645
  189MOL0     H25471  10.985   2.244  -0.517  3.1326  0.5054  4.9041
  189MOL0     H25472  10.918   2.409  -0.503 -2.0124  0.8505  2.0505
  189MOL0     H25473  10.748   2.162  -0.488 -3.2046  0.5967 -1.8011
  189MOL0     H25474  10.807   2.238  -0.637 -0.3201 -2.1777  0.0026
  189MOL0     H25475  10.493   2.272  -0.360  1.7399  1.6509  0.4796
  189MOL0     H25476  10.226   2.091  -0.366 -0.9895  1.3369  1.3110
  189MOL0     H25477  10.269   2.251  -0.288 -0.2776  3.3432 -1.1345
  189MOL0     H25478  10.133   2.237  -0.388  0.0631  2.7931  0.6156
  189MOL0     H25479  10.133   2.098  -1.031 -0.0263  0.0385 -0.5170
  189MOL0     H25480   9.924   2.043  -1.170  1.4813  0.1991  0.7797
  189MOL0     H25481   9.560   2.016  -0.938  2.0167  1.9883  0.9027
  189MOL0     H25482   9.517   2.162  -1.003  1.3018 -0.9911  4.1778
  189MOL0     H25483   9.513   1.887  -1.127 -2.5024  0.1235 -3.8040
  189MOL0     H25484   9.362   1.965  -1.054 -0.3726 -0.4017 -0.8860
  189MOL0     H25485   9.508   2.065  -1.299 -1.0825 -0.5981 -0.8535
  189MOL0     H25486   9.358   2.114  -1.249  0.2413 -0.1280 -1.8598
  189MOL0     H25487   9.397   1.820  -1.316 -1.3661 -1.2453 -2.2369
  189MOL0     H25488   9.252   1.892  -1.248  0.3988  0.7380  1.2689
  189MOL0     H25489   9.391   1.930  -1.525 -0.8339 -1.6442 -1.0820
  189MOL0     H25490   9.274   2.053  -1.463 -2.4521 -1.6797  1.4758
  189MOL0     H25491   9.217   1.759  -1.512  0.4829 -0.4200  1.9250
  189MOL0     H25492   9.116   1.868  -1.429  2.3905  0.2286  0.8014
  189MOL0     H25493   9.196   1.876  -1.726 -3.2781  1.1747 -2.8821
  189MOL0     H25494   9.128   2.019  -1.645 -0.1541 -0.1424  2.0127
  189MOL0     H25495   8.978   1.757  -1.603  0.2102 -0.4650 -1.8213
  189MOL0     H25496   8.944   1.879  -1.727 -2.5277 -1.0945  0.3709
  189MOL0     H25497   9.675   2.209  -0.875 -0.0934  0.1973 -2.1681
  189MOL0     H25498   9.869   2.285  -0.752 -2.4781  0.3264  0.1849
  189MOL0     H25499  10.381   2.222  -0.838  4.6701  0.6121 -0.9123
  189MOL0     H25500  10.613   2.296  -0.762  0.0403  0.7842 -0.7017
  189MOL0     H25501  11.014   2.689   1.274  2.0161 -2.0124 -1.6797
  189MOL0     H25502  11.027   2.741   1.516  0.5801  0.7156  0.5075
  189MOL0     H25503  11.048   3.104   1.903 -0.6652 -0.3560  2.3939
  189MOL0     H25504  11.134   3.175   2.122 -2.1428 -1.3663 -1.7420
  189MOL0     H25505  11.482   2.947   2.267  0.7139 -0.7427 -0.2976
  189MOL0     H25506  11.561   3.089   2.196  0.2456 -1.7071  0.4155
  189MOL0     H25507  11.618   3.087   2.449 -1.3644 -1.6459  0.2568
  189MOL0     H25508  11.447   3.078   2.482 -1.6619  0.7451  0.0965
  189MOL0     H25509  11.422   3.302   2.425  0.4679  0.2463  1.1960
  189MOL0     H25510  11.547   3.308   2.303  1.2395  1.8941  1.1261
  189MOL0     H25511  11.623   3.311   2.604 -1.6134  2.1331  0.5296
  189MOL0     H25512  11.598   3.442   2.488 -1.5769 -0.1896  0.3450
  189MOL0     H25513  11.941   3.376   2.316 -0.6126 -0.4024 -1.2686
  189MOL0     H25514  11.505   2.970   2.026  0.8950  0.8421 -1.2469
  189MOL0     H25515  11.411   2.908   1.806  0.6625 -0.7084  1.1036
  190MOL0     O25516   5.400   2.364   3.004  0.4633 -0.4315  0.5183
  190MOL0     C25517   5.517   2.366   2.976 -0.3681  0.9430  0.6187
  190MOL0     O25518   5.615   2.318   3.055 -0.3752  0.6012 -0.5699
  190MOL0     C25519   5.595   2.272   3.187  0.1883 -0.1790 -0.4839
  190MOL0     C25520   5.657   2.334   3.294  0.1064 -0.9044 -0.0242
  190MOL0     C25521   5.641   2.283   3.427  0.0077  0.9128  0.0505
  190MOL0     C25522   5.550   2.174   3.456  0.0733 -1.1314 -0.3666
  190MOL0     O25523   5.533   2.128   3.585 -0.3332 -0.4609 -0.5578
  190MOL0     C25524   5.513   2.224   3.689 -0.0626 -0.5254 -0.2404
  190MOL0     C25525   5.371   2.266   3.734 -0.1892  0.8001  0.6800
  190MOL0     C25526   5.365   2.389   3.827 -0.3588 -0.0342  0.3888
  190MOL0     C25527   5.401   2.348   3.971 -0.2837  0.5033 -0.0350
  190MOL0     C25528   5.413   2.467   4.064  0.6619 -1.0871 -0.2849
  190MOL0     C25529   5.449   2.433   4.206 -0.2128  0.0356  0.1565
  190MOL0     C25530   5.465   2.566   4.297  0.4772  0.4858  0.0349
  190MOL0     C25531   5.332   2.581   4.383  0.6680  0.7713  0.1024
  190MOL0     N25532   5.333   2.481   4.494  0.5410 -0.3229 -0.1404
  190MOL0     C25533   5.382   2.484   4.624  0.3941 -0.2087  0.5106
  190MOL0     C25534   5.334   2.372   4.685 -0.2196 -0.1746 -0.1524
  190MOL0     C25535   5.379   2.303   4.815  0.0635 -0.1388 -1.0910
  190MOL0     C25536   5.251   2.302   4.900 -0.6306 -0.2590 -0.9976
  190MOL0     C25537   5.293   2.219   5.027  0.0657  0.2542 -1.1477
  190MOL0     C25538   5.172   2.212   5.120  0.2125 -0.6872  0.0133
  190MOL0     O25539   5.098   2.338   5.130 -0.1170  0.3602  0.0705
  190MOL0     C25540   5.070   2.380   5.259 -0.4420 -0.4426  0.6212
  190MOL0     C25541   5.011   2.298   5.361 -0.4413  0.3544  0.8317
  190MOL0     C25542   4.970   2.345   5.480 -0.3098  0.7228  0.1788
  190MOL0     C25543   4.930   2.234   5.584  0.3431 -0.1522  0.0967
  190MOL0     C25544   4.993   2.479   5.516 -0.2597 -0.0013 -0.5747
  190MOL0     C25545   4.972   2.533   5.657 -0.7429  0.0754  0.2120
  190MOL0     O25546   4.952   2.451   5.759  0.5345  0.1153 -0.0667
  190MOL0     C25547   4.903   2.499   5.880  0.0076  1.3482 -1.2014
  190MOL0     C25548   4.852   2.622   5.913 -0.9776  0.4909 -0.5557
  190MOL0     C25549   4.818   2.652   6.052 -1.3534  0.3321  0.6359
  190MOL0     C25550   4.828   2.559   6.157 -0.2620  0.2133 -0.1168
  190MOL0     O25551   4.788   2.604   6.283 -0.7917  0.3841 -0.5799
  190MOL0     C25552   4.857   2.551   6.396  0.4373 -0.3116  0.8526
  190MOL0     C25553   4.821   2.617   6.535  0.1296  0.5405 -0.0824
  190MOL0     C25554   4.909   2.539   6.644  0.2150  0.6623  0.2987
  190MOL0     C25555   4.871   2.392   6.647 -0.4077 -0.8120 -0.5908
  190MOL0     C25556   4.920   2.315   6.766  0.2000 -0.4337  0.6083
  190MOL0     C25557   4.921   2.162   6.747  0.2757 -0.6197 -0.2868
  190MOL0     C25558   5.001   2.081   6.853  0.9050 -1.0534 -0.5322
  190MOL0     C25559   4.992   1.924   6.837 -1.4731  0.2120 -0.3589
  190MOL0    Cl25560   4.830   1.867   6.803  0.0661 -0.0190 -0.0443
  190MOL0     C25561   4.861   2.424   6.119 -0.4799 -0.8704 -0.5269
  190MOL0     C25562   4.905   2.401   5.990  1.1277 -0.1462  0.9586
  190MOL0     O25563   4.983   2.652   5.662  0.4160  0.1095  0.0031
  190MOL0     C25564   5.045   2.560   5.412  0.7104  0.7414 -0.1892
  190MOL0     C25565   5.084   2.511   5.287 -0.1257  0.1875  0.1317
  190MOL0     N25566   5.246   2.312   4.598 -0.3575  0.1338  0.8764
  190MOL0     N25567   5.244   2.379   4.487 -0.3217 -0.1764 -0.3464
  190MOL0     C25568   5.482   2.117   3.346 -0.3470  0.1998  0.3055
  190MOL0     C25569   5.509   2.161   3.215 -0.2201 -0.4003 -0.1426
  190MOL0     C25570   5.555   2.421   2.846 -0.6609 -0.1807 -0.3849
  190MOL0     C25571   5.456   2.453   2.748 -0.4310  0.3008  0.3616
  190MOL0     C25572   5.494   2.514   2.625 -0.3864 -0.5088  1.0954
  190MOL0     C25573   5.629   2.522   2.595  0.2722  0.0618  0.1001
  190MOL0     O25574   5.673   2.583   2.478 -0.7352  0.8366 -0.0594
  190MOL0     C25575   5.738   2.494   2.387  0.3531 -0.1401  0.1862
  190MOL0     C25576   5.854   2.571   2.306 -0.0263  0.1763 -0.0149
  190MOL0     C25577   5.947   2.654   2.384 -0.1442 -0.0805 -0.8015
  190MOL0     C25578   6.058   2.572   2.452 -0.0568 -0.5672  0.7115
  190MOL0     C25579   6.147   2.669   2.512 -0.4604  0.0952  0.2228
  190MOL0     C25580   6.235   2.731   2.574 -0.3513 -0.1271  0.3720
  190MOL0     C25581   5.726   2.502   2.699 -0.3983  0.4257 -0.1497
  190MOL0     C25582   5.689   2.447   2.819 -0.6924 -0.5102  0.2811
  190MOL0     H25583   5.729   2.414   3.279 -1.5404  0.6130 -0.2047
  190MOL0     H25584   5.693   2.325   3.513 -0.5796 -0.2970  1.0408
  190MOL0     H25585   5.555   2.176   3.778  2.3757 -0.0562 -1.0689
  190MOL0     H25586   5.590   2.301   3.681  1.9792 -2.4454 -0.2958
  190MOL0     H25587   5.315   2.291   3.644  1.1765 -0.9469 -0.7330
  190MOL0     H25588   5.336   2.177   3.788  0.3627 -0.5302 -1.0628
  190MOL0     H25589   5.436   2.466   3.796 -2.0646  2.5558  2.3965
  190MOL0     H25590   5.261   2.422   3.837 -0.1296  0.7183  0.3111
  190MOL0     H25591   5.327   2.276   4.008  2.4375 -2.5932 -0.1168
  190MOL0     H25592   5.495   2.292   3.971 -0.4883  0.1452 -1.0543
  190MOL0     H25593   5.485   2.536   4.020 -0.7222 -0.4740 -1.7053
  190MOL0     H25594   5.319   2.522   4.072  1.1612 -0.1487 -0.8228
  190MOL0     H25595   5.379   2.360   4.247 -0.1167  0.4434  1.0736
  190MOL0     H25596   5.544   2.381   4.199 -1.1490 -1.6394 -0.6795
  190MOL0     H25597   5.552   2.573   4.363 -1.1994  0.8931  2.2859
  190MOL0     H25598   5.467   2.655   4.234  3.5277 -0.9427 -2.2108
  190MOL0     H25599   5.241   2.569   4.324  1.1445 -1.8221 -0.1992
  190MOL0     H25600   5.342   2.681   4.427 -3.7489  1.6489 -0.4644
  190MOL0     H25601   5.465   2.543   4.661  0.8595  0.4607 -1.4728
  190MOL0     H25602   5.409   2.200   4.798 -2.8390 -1.2549 -0.1409
  190MOL0     H25603   5.453   2.370   4.860  0.1581 -1.4544  0.8224
  190MOL0     H25604   5.169   2.258   4.841 -2.8535  3.0114 -0.6204
  190MOL0     H25605   5.221   2.405   4.922 -0.3934 -0.4754  0.4516
  190MOL0     H25606   5.381   2.265   5.072 -0.5820  0.0735  0.3665
  190MOL0     H25607   5.313   2.113   5.010  0.4269 -0.1326  1.3419
  190MOL0     H25608   5.218   2.189   5.217 -2.4864 -2.3526  1.0062
  190MOL0     H25609   5.091   2.145   5.090 -0.9906  0.7159  0.0383
  190MOL0     H25610   4.990   2.195   5.333  0.1373  0.9120 -1.9650
  190MOL0     H25611   4.852   2.261   5.657  1.3819  1.6279  0.6238
  190MOL0     H25612   4.896   2.148   5.526  1.8568  0.8021 -2.3356
  190MOL0     H25613   5.017   2.197   5.638 -1.3236  0.5108  3.5335
  190MOL0     H25614   4.837   2.711   5.852 -4.2686  0.5051  0.0730
  190MOL0     H25615   4.800   2.755   6.079  1.1173  0.8610  0.4916
  190MOL0     H25616   4.833   2.445   6.395 -1.3554  0.0565 -1.1609
  190MOL0     H25617   4.966   2.545   6.389  0.4488 -1.1091  1.5459
  190MOL0     H25618   4.836   2.725   6.530 -2.2956  1.0579 -6.8708
  190MOL0     H25619   4.714   2.600   6.549 -0.0797  0.7582 -1.3220
  190MOL0     H25620   4.890   2.568   6.748  1.1925 -1.7829  1.2185
  190MOL0     H25621   5.014   2.550   6.615  0.5484 -1.3050  0.6416
  190MOL0     H25622   4.765   2.377   6.626 -0.5462  1.2203 -1.5619
  190MOL0     H25623   4.931   2.348   6.566  2.8008  1.2328  0.4877
  190MOL0     H25624   4.870   2.363   6.851 -3.3687  1.6450 -2.3289
  190MOL0     H25625   5.027   2.334   6.778  0.0892 -0.2091  1.2492
  190MOL0     H25626   4.816   2.136   6.763  0.1280  1.0230  1.9726
  190MOL0     H25627   4.934   2.128   6.644  2.5853  2.0462 -1.0064
  190MOL0     H25628   4.955   2.105   6.949 -0.0755 -1.3852 -0.9071
  190MOL0     H25629   5.100   2.126   6.853  1.4130 -2.1212  0.5758
  190MOL0     H25630   5.037   1.882   6.927 -2.8616 -3.3187 -1.1605
  190MOL0     H25631   5.065   1.882   6.768  0.5629  0.5741  1.4568
  190MOL0     H25632   4.849   2.348   6.196 -0.7151  0.8033  1.1914
  190MOL0     H25633   4.935   2.303   5.955  2.9458  1.6095 -3.1264
  190MOL0     H25634   5.048   2.667   5.425 -0.9799  1.4036 -3.8470
  190MOL0     H25635   5.114   2.591   5.219  0.1693 -0.1492 -0.1373
  190MOL0     H25636   5.441   2.018   3.362  0.2649 -0.0570  0.3248
  190MOL0     H25637   5.464   2.104   3.135  0.8502 -4.6795  1.9948
  190MOL0     H25638   5.350   2.442   2.768 -0.8154  2.2147 -0.3459
  190MOL0     H25639   5.426   2.556   2.553  0.4636 -0.8539  0.0714
  190MOL0     H25640   5.778   2.408   2.443  0.3644  0.2489  0.7896
  190MOL0     H25641   5.670   2.442   2.320  1.8092 -1.2358 -0.5094
  190MOL0     H25642   5.805   2.621   2.222 -1.3679  2.3721  1.9231
  190MOL0     H25643   5.923   2.506   2.252  1.1204 -0.1597  1.7807
  190MOL0     H25644   5.891   2.699   2.467  2.4420  2.0343 -0.0538
  190MOL0     H25645   5.980   2.738   2.321 -0.2871  1.3498  0.9277
  190MOL0     H25646   6.110   2.521   2.371 -1.1374  1.6983 -1.5394
  190MOL0     H25647   6.019   2.492   2.516 -1.5103 -0.5606 -0.1288
  190MOL0     H25648   6.302   2.795   2.629 -0.4239 -0.8311  1.3074
  190MOL0     H25649   5.829   2.526   2.678 -0.1397  0.1919  0.8027
  190MOL0     H25650   5.764   2.418   2.891  1.5363  1.7204 -0.9895
  191MOL0     O25651   1.511  10.411   0.207  0.3778 -0.5038 -0.4354
  191MOL0     C25652   1.583  10.362   0.119 -0.1014 -0.0280 -0.2005
  191MOL0     O25653   1.543  10.292   0.014 -0.8202  0.2060  0.1977
  191MOL0     C25654   1.424  10.247  -0.019  0.0561 -0.8834 -0.5998
  191MOL0     C25655   1.394  10.244  -0.159  1.0103 -0.1122  0.3449
  191MOL0     C25656   1.257  10.220  -0.193 -0.4544  0.5349  0.0081
  191MOL0     C25657   1.157  10.194  -0.099 -0.1653  1.1029  0.8852
  191MOL0     O25658   1.026  10.170  -0.137 -0.0909  0.4896  0.5956
  191MOL0     C25659   1.000  10.089  -0.252 -0.5772  0.3974  0.7022
  191MOL0     C25660   0.854  10.061  -0.261 -0.5016  0.0925 -0.9724
  191MOL0     C25661   0.805   9.958  -0.153 -0.0094  0.3338 -0.7205
  191MOL0     C25662   0.679   9.880  -0.192  0.2549  0.2123  0.3523
  191MOL0     C25663   0.657   9.765  -0.090 -0.8345 -0.1246 -0.4945
  191MOL0     C25664   0.549   9.677  -0.156  0.0650 -0.0086  0.6013
  191MOL0     C25665   0.513   9.570  -0.062 -0.3781 -0.7800  0.9991
  191MOL0     C25666   0.377   9.507  -0.094  0.3422 -0.4756 -0.1041
  191MOL0     N25667   0.359   9.385  -0.012  0.5858 -0.1797 -0.2639
  191MOL0     C25668   0.345   9.256  -0.056  0.5372  0.3220 -0.1017
  191MOL0     C25669   0.287   9.192   0.050 -0.0875 -0.5783 -0.3390
  191MOL0     C25670   0.264   9.037   0.057  0.0484  0.6060  0.3815
  191MOL0     C25671   0.240   8.989   0.206  0.5497 -0.0312  0.1879
  191MOL0     C25672   0.208   8.834   0.214 -0.3847 -0.1286  0.2873
  191MOL0     C25673   0.340   8.750   0.202 -0.3287 -0.4637  0.0465
  191MOL0     O25674   0.443   8.801   0.283 -0.2176 -0.3086 -0.3394
  191MOL0     C25675   0.488   8.730   0.389  0.6799  0.9927  0.7436
  191MOL0     C25676   0.402   8.655   0.479  0.3424 -0.2556  0.6919
  191MOL0     C25677   0.461   8.568   0.586 -0.0387 -0.3182 -0.5275
  191MOL0     C25678   0.377   8.488   0.679 -0.1224 -1.1726  0.4517
  191MOL0     C25679   0.604   8.575   0.600  0.1454  0.3968  0.1379
  191MOL0     C25680   0.688   8.485   0.691 -0.5640 -0.2742  0.4867
  191MOL0     O25681   0.825   8.511   0.671 -0.2844 -0.2908  0.4808
  191MOL0     C25682   0.931   8.458   0.748 -0.5378  0.6433 -0.2175
  191MOL0     C25683   0.920   8.358   0.847 -0.4783 -0.8744  0.2131
  191MOL0     C25684   1.037   8.321   0.916  0.3637 -0.5909  0.1745
  191MOL0     C25685   1.163   8.382   0.883 -0.1577 -0.1436  0.1454
  191MOL0     O25686   1.285   8.350   0.946 -0.3085  0.1041 -0.7367
  191MOL0     C25687   1.257   8.289   1.083 -0.3676  0.4880 -0.5112
  191MOL0     C25688   1.391   8.275   1.160  0.8512  0.7672 -0.2005
  191MOL0     C25689   1.475   8.155   1.120 -0.4720  0.2691  0.7081
  191MOL0     C25690   1.436   8.008   1.170 -0.6803  0.1346 -0.0984
  191MOL0     C25691   1.514   7.903   1.093  0.1993 -0.1688 -1.3630
  191MOL0     C25692   1.467   7.762   1.127  0.4210  0.0825  0.7573
  191MOL0     C25693   1.532   7.664   1.032  0.6023  0.5669 -0.8590
  191MOL0     C25694   1.469   7.522   1.045  0.0834  0.4370  1.0768
  191MOL0    Cl25695   1.498   7.430   1.184 -0.1556  0.1147  0.2003
  191MOL0     C25696   1.171   8.471   0.786  0.1435 -0.9657  0.4878
  191MOL0     C25697   1.062   8.506   0.717 -0.1147 -0.2921 -0.7820
  191MOL0     O25698   0.643   8.405   0.775 -0.4315 -0.3809  0.3949
  191MOL0     C25699   0.672   8.662   0.516 -0.1855 -0.2635  0.6625
  191MOL0     C25700   0.622   8.740   0.420 -0.0970  0.0330 -0.1666
  191MOL0     N25701   0.274   9.279   0.164 -0.2518  0.0294 -0.3485
  191MOL0     N25702   0.312   9.395   0.116  0.2470  0.1354 -0.5325
  191MOL0     C25703   1.194  10.206   0.035 -0.0458 -0.0834 -0.0118
  191MOL0     C25704   1.323  10.232   0.071  0.1162 -0.4479 -0.1887
  191MOL0     C25705   1.736  10.370   0.147  1.6405 -0.0043  0.7842
  191MOL0     C25706   1.793  10.481   0.220 -0.2381 -0.1449 -1.9110
  191MOL0     C25707   1.930  10.481   0.256 -0.1888 -0.2194  0.5990
  191MOL0     C25708   2.013  10.375   0.220 -0.0473 -0.1975  1.2075
  191MOL0     O25709   2.143  10.381   0.269 -0.0014  0.0613  0.3496
  191MOL0     C25710   2.235  10.271   0.255 -0.1573 -1.4565 -0.0348
  191MOL0     C25711   2.230  10.175   0.368 -0.6778  0.0745  0.4591
  191MOL0     C25712   2.245  10.225   0.512  0.0355 -0.4542  0.5052
  191MOL0     C25713   2.357  10.339   0.531  0.4838 -0.3113  1.1705
  191MOL0     C25714   2.499  10.303   0.504 -0.3917  0.9147 -0.4029
  191MOL0     C25715   2.610  10.255   0.482 -0.6965 -0.2308 -0.2963
  191MOL0     C25716   1.954  10.265   0.152  0.0738  0.3412  0.4109
  191MOL0     C25717   1.817  10.266   0.107 -0.4762  0.3360 -0.7119
  191MOL0     H25718   1.466  10.269  -0.236  0.7147  1.4951  0.5490
  191MOL0     H25719   1.242  10.236  -0.300  2.9985  0.3345 -0.6338
  191MOL0     H25720   1.036  10.138  -0.344  0.0974 -2.1577 -0.4932
  191MOL0     H25721   1.064  10.001  -0.255 -1.7254 -0.4464 -1.7942
  191MOL0     H25722   0.784  10.144  -0.272 -2.0507 -1.2537 -1.6980
  191MOL0     H25723   0.835  10.014  -0.358  1.9193 -1.9422 -0.5710
  191MOL0     H25724   0.897   9.905  -0.128 -0.0701  0.4308 -0.2869
  191MOL0     H25725   0.787  10.021  -0.066  1.0171  2.4570 -1.9573
  191MOL0     H25726   0.582   9.930  -0.186 -1.8258 -2.7304 -3.8834
  191MOL0     H25727   0.679   9.858  -0.299 -3.0187  2.5064 -0.2675
  191MOL0     H25728   0.747   9.704  -0.083 -1.5532 -1.0647  1.1356
  191MOL0     H25729   0.647   9.771   0.019  3.0123 -3.4933  0.2717
  191MOL0     H25730   0.465   9.743  -0.180  1.5015  1.9534  0.7249
  191MOL0     H25731   0.593   9.618  -0.238 -0.0599  0.7463 -0.0253
  191MOL0     H25732   0.599   9.505  -0.077  0.4203  0.9097 -3.3153
  191MOL0     H25733   0.510   9.615   0.038  4.2084  1.3113  0.4452
  191MOL0     H25734   0.364   9.505  -0.203  2.4458 -0.6426 -0.3965
  191MOL0     H25735   0.297   9.576  -0.065  1.4218 -0.1218  2.2853
  191MOL0     H25736   0.385   9.221  -0.151 -0.1325  1.1926 -0.7171
  191MOL0     H25737   0.180   8.998  -0.001 -0.3498  0.2759  1.1595
  191MOL0     H25738   0.356   8.992   0.018 -0.1622  0.4770  0.0301
  191MOL0     H25739   0.154   9.051   0.232  1.7173  1.6449  0.1935
  191MOL0     H25740   0.321   9.024   0.271 -0.2696  2.9276 -0.2257
  191MOL0     H25741   0.146   8.803   0.129  0.1037  1.5945 -0.7515
  191MOL0     H25742   0.148   8.819   0.304 -2.3908 -0.4168 -1.0278
  191MOL0     H25743   0.378   8.764   0.100  2.0172 -1.5833  0.7051
  191MOL0     H25744   0.317   8.643   0.207 -0.3732 -0.6792 -2.8272
  191MOL0     H25745   0.296   8.673   0.461  0.2110 -0.6311  1.0589
  191MOL0     H25746   0.387   8.383   0.649 -0.3618 -0.2199 -3.4942
  191MOL0     H25747   0.422   8.506   0.777 -0.8089 -0.1471  0.6016
  191MOL0     H25748   0.273   8.523   0.672 -0.7292 -2.5682  1.9273
  191MOL0     H25749   0.836   8.300   0.884 -0.2654 -1.1026  0.3402
  191MOL0     H25750   1.012   8.260   1.002 -2.7139  0.5829  0.2340
  191MOL0     H25751   1.197   8.357   1.145  2.4447  0.9899  1.8886
  191MOL0     H25752   1.202   8.194   1.078  0.9288 -0.4383  1.3592
  191MOL0     H25753   1.447   8.369   1.150  1.4918  0.5624  1.2066
  191MOL0     H25754   1.381   8.259   1.268  3.3518  0.6714  0.0717
  191MOL0     H25755   1.576   8.170   1.159 -0.1805  3.2450 -0.8861
  191MOL0     H25756   1.473   8.158   1.011  2.9209  5.8712  0.3785
  191MOL0     H25757   1.448   8.002   1.278 -0.8965 -0.9016 -0.1200
  191MOL0     H25758   1.330   7.984   1.157 -0.8993  1.9706 -2.4384
  191MOL0     H25759   1.622   7.916   1.107 -0.0333  1.1421 -0.5842
  191MOL0     H25760   1.490   7.927   0.989  2.6350  2.3847 -1.4630
  191MOL0     H25761   1.491   7.746   1.232  1.3105  1.0333  0.7272
  191MOL0     H25762   1.361   7.762   1.100  0.3840 -1.5243  0.8531
  191MOL0     H25763   1.639   7.665   1.057  0.1742 -1.0445  1.3925
  191MOL0     H25764   1.522   7.686   0.926  1.8824 -0.7367 -1.2860
  191MOL0     H25765   1.495   7.476   0.950 -3.0968 -0.4271  0.5168
  191MOL0     H25766   1.360   7.521   1.039  0.1148  0.8218  0.3750
  191MOL0     H25767   1.261   8.520   0.751 -1.6948  0.6705 -2.3179
  191MOL0     H25768   1.068   8.588   0.646 -3.9831  2.2330  1.3822
  191MOL0     H25769   0.780   8.663   0.507 -0.2598  1.4522 -0.6744
  191MOL0     H25770   0.689   8.777   0.343 -0.4987  0.5354 -0.2810
  191MOL0     H25771   1.133  10.213   0.124 -0.4649 -1.8659 -0.1196
  191MOL0     H25772   1.337  10.240   0.179  1.8309  2.4291 -0.5273
  191MOL0     H25773   1.743  10.566   0.264  0.5111 -1.3420  1.5609
  191MOL0     H25774   1.969  10.577   0.290  1.8696  0.3663 -2.9618
  191MOL0     H25775   2.220  10.217   0.161 -2.4056 -3.5258  1.3995
  191MOL0     H25776   2.334  10.317   0.248 -1.2709  0.9677 -0.9227
  191MOL0     H25777   2.313  10.104   0.363  0.9824  1.7931  1.9522
  191MOL0     H25778   2.134  10.124   0.360 -0.4564 -0.2089 -0.4856
  191MOL0     H25779   2.286  10.142   0.571 -0.4991 -0.0772  1.4302
  191MOL0     H25780   2.149  10.256   0.555 -0.9815  1.3536 -2.7529
  191MOL0     H25781   2.347  10.374   0.634  0.7052  0.7858  0.8248
  191MOL0     H25782   2.329  10.421   0.465 -2.0793 -1.5252  0.5964
  191MOL0     H25783   2.699  10.202   0.453  0.8846  1.0923  1.8006
  191MOL0     H25784   1.997  10.166   0.137 -0.1429  0.6933 -4.1194
  191MOL0     H25785   1.778  10.176   0.059  1.3968 -1.8714  1.5865
  192MOL0     O25786   7.403   3.872   2.655 -0.0490 -0.1983  0.9092
  192MOL0     C25787   7.496   3.788   2.632 -0.0060 -0.8104  0.4085
  192MOL0     O25788   7.628   3.817   2.639  0.3196 -0.1262 -0.0432
  192MOL0     C25789   7.682   3.946   2.611 -0.6588 -0.4157 -0.2823
  192MOL0     C25790   7.619   4.034   2.520  0.8007  0.1667 -0.4236
  192MOL0     C25791   7.692   4.150   2.484  0.2891 -0.4502  0.5686
  192MOL0     C25792   7.821   4.173   2.531 -0.0592 -0.4643  0.7399
  192MOL0     O25793   7.881   4.284   2.475  0.7669  0.1422  0.2155
  192MOL0     C25794   8.009   4.322   2.521 -1.3859  0.2106 -0.3617
  192MOL0     C25795   8.045   4.468   2.490 -0.0170 -1.2694 -1.2042
  192MOL0     C25796   7.992   4.575   2.594 -0.4221  1.1745 -0.1694
  192MOL0     C25797   8.046   4.709   2.552  0.0977  0.5329 -0.1827
  192MOL0     C25798   8.074   4.799   2.671 -0.9818  0.7782  0.1791
  192MOL0     C25799   8.188   4.904   2.653 -0.6563 -0.4200 -0.7872
  192MOL0     C25800   8.199   5.000   2.775  0.4172  0.0391  0.5376
  192MOL0     C25801   8.141   5.142   2.760  0.6971  0.1134 -0.0255
  192MOL0     N25802   7.996   5.162   2.764  0.5892  0.2159  0.3770
  192MOL0     C25803   7.905   5.095   2.851 -0.1998 -0.0419  0.6044
  192MOL0     C25804   7.786   5.128   2.795  0.1675 -0.3314 -0.4888
  192MOL0     C25805   7.655   5.072   2.835  0.2585  0.2555 -0.1325
  192MOL0     C25806   7.548   5.179   2.857 -0.2574 -0.3413 -1.3453
  192MOL0     C25807   7.438   5.112   2.929  0.5087 -0.5475 -0.6524
  192MOL0     C25808   7.318   5.201   2.909 -0.0596 -0.9675  1.5877
  192MOL0     O25809   7.238   5.206   3.015  0.7027 -0.8063 -0.5756
  192MOL0     C25810   7.100   5.237   3.022 -0.3683 -1.1497 -0.2176
  192MOL0     C25811   7.020   5.267   2.911 -0.4220 -0.0887  0.1570
  192MOL0     C25812   6.881   5.295   2.914  0.2375 -0.0280  0.3030
  192MOL0     C25813   6.816   5.305   2.787 -0.4420  0.0478  0.2444
  192MOL0     C25814   6.814   5.277   3.039  0.0910 -0.9966 -0.4884
  192MOL0     C25815   6.668   5.284   3.053  0.3038  0.0359  1.2650
  192MOL0     O25816   6.625   5.283   3.181 -0.5952  0.9631 -0.7787
  192MOL0     C25817   6.495   5.268   3.207 -0.1185 -0.0358  0.0472
  192MOL0     C25818   6.405   5.362   3.164  0.2529  0.1239 -0.6288
  192MOL0     C25819   6.268   5.350   3.197 -0.1751 -0.6752 -0.3534
  192MOL0     C25820   6.218   5.240   3.274  1.2072 -1.0391  0.5467
  192MOL0     O25821   6.083   5.239   3.303 -0.2138  0.0438 -0.3988
  192MOL0     C25822   6.006   5.166   3.202 -0.4054  0.0226 -0.1462
  192MOL0     C25823   5.899   5.068   3.261 -0.0873  0.8217 -0.6743
  192MOL0     C25824   5.969   4.955   3.339 -0.9555 -0.9868 -0.0389
  192MOL0     C25825   5.860   4.880   3.409 -0.1831  0.8123 -0.4406
  192MOL0     C25826   5.934   4.797   3.510  0.2076 -0.0040  0.1808
  192MOL0     C25827   5.942   4.872   3.644  0.2751  0.3500  0.2580
  192MOL0     C25828   6.030   4.809   3.753  0.4007 -0.1787 -0.7248
  192MOL0     C25829   6.008   4.871   3.894 -0.5630  0.5244 -0.3215
  192MOL0    Cl25830   6.126   4.812   4.011  0.2068  0.3350  0.4493
  192MOL0     C25831   6.306   5.138   3.313 -0.0211 -0.1006  0.8714
  192MOL0     C25832   6.446   5.152   3.272 -0.2788 -0.0796 -0.1774
  192MOL0     O25833   6.601   5.275   2.953  0.1381  0.2234 -0.4866
  192MOL0     C25834   6.895   5.243   3.157  1.0830 -0.0233 -0.1584
  192MOL0     C25835   7.034   5.233   3.146  0.8934  1.5058  0.2102
  192MOL0     N25836   7.794   5.209   2.684 -0.8049 -0.3947 -0.1453
  192MOL0     N25837   7.921   5.233   2.677  0.3811  0.2975  0.2460
  192MOL0     C25838   7.887   4.082   2.616 -0.1879  0.4106  0.0117
  192MOL0     C25839   7.813   3.970   2.657 -0.7760  0.4225 -0.1252
  192MOL0     C25840   7.455   3.649   2.619 -0.5093 -0.4730 -0.3671
  192MOL0     C25841   7.547   3.544   2.614 -0.2293 -0.0659  0.2200
  192MOL0     C25842   7.512   3.420   2.565  0.1845  0.7168  0.2684
  192MOL0     C25843   7.383   3.381   2.532 -0.4548 -1.0513 -0.3087
  192MOL0     O25844   7.370   3.254   2.484 -0.5182  0.2874  1.3379
  192MOL0     C25845   7.236   3.194   2.483 -0.5347 -0.5698 -0.2644
  192MOL0     C25846   7.201   3.154   2.625  0.4833 -0.5543  0.4518
  192MOL0     C25847   7.110   3.031   2.625 -0.4675  0.2734 -0.2134
  192MOL0     C25848   7.100   2.964   2.767  0.1729 -0.2798 -0.0997
  192MOL0     C25849   7.035   3.049   2.867  0.7896 -0.1976  0.4719
  192MOL0     C25850   6.971   3.136   2.928  0.5580  0.1164 -0.1931
  192MOL0     C25851   7.280   3.482   2.542 -0.0783  0.9322 -0.1743
  192MOL0     C25852   7.320   3.611   2.587 -0.8924 -0.3893  0.0221
  192MOL0     H25853   7.523   4.007   2.475 -1.2562  0.2311  3.4665
  192MOL0     H25854   7.656   4.210   2.402 -0.9719 -0.6793  0.9376
  192MOL0     H25855   8.012   4.313   2.630 -0.5528  3.2112 -0.0397
  192MOL0     H25856   8.079   4.255   2.471 -0.9877  1.8095 -2.0878
  192MOL0     H25857   8.152   4.486   2.503 -0.4631 -0.6861  3.0342
  192MOL0     H25858   8.021   4.491   2.386 -2.9328  0.3592 -0.2960
  192MOL0     H25859   7.882   4.576   2.588 -0.3959 -0.3238 -1.7980
  192MOL0     H25860   8.022   4.554   2.697 -2.1068  0.1528  0.1575
  192MOL0     H25861   8.148   4.696   2.514 -0.3118 -1.8997 -0.5922
  192MOL0     H25862   7.972   4.751   2.484  1.1066  0.3451 -1.4258
  192MOL0     H25863   7.982   4.847   2.704 -0.0072  3.1699 -0.4290
  192MOL0     H25864   8.105   4.746   2.762 -0.5941  1.7903  0.6468
  192MOL0     H25865   8.280   4.846   2.644  2.3575  3.8499 -0.6817
  192MOL0     H25866   8.183   4.962   2.561 -0.4143  1.3305  0.2444
  192MOL0     H25867   8.152   4.947   2.858  3.2154 -0.4809  1.9311
  192MOL0     H25868   8.304   5.016   2.801  0.5850 -0.2891  0.0772
  192MOL0     H25869   8.191   5.187   2.673  0.1682 -0.5502 -0.6861
  192MOL0     H25870   8.171   5.199   2.848  0.0365  0.6549 -0.1403
  192MOL0     H25871   7.922   5.017   2.924 -0.6653  1.0306  1.9136
  192MOL0     H25872   7.625   5.003   2.756 -1.6175 -0.9059  1.4938
  192MOL0     H25873   7.670   5.010   2.924 -0.1087 -2.5854 -1.9252
  192MOL0     H25874   7.543   5.221   2.756  0.2557 -0.5711 -1.4715
  192MOL0     H25875   7.601   5.254   2.916  2.9660 -2.7177 -0.9483
  192MOL0     H25876   7.454   5.121   3.037 -0.7806  1.7074 -0.5782
  192MOL0     H25877   7.413   5.012   2.894 -1.9787 -0.1971 -0.0774
  192MOL0     H25878   7.266   5.155   2.824 -0.0754  1.5673  0.1258
  192MOL0     H25879   7.346   5.304   2.885  1.0137 -1.2563  1.5492
  192MOL0     H25880   7.079   5.274   2.820  0.6127  0.3082  0.8363
  192MOL0     H25881   6.889   5.336   2.712 -1.4970  0.3423 -0.6772
  192MOL0     H25882   6.784   5.206   2.755  0.3473 -0.0852 -0.1658
  192MOL0     H25883   6.727   5.368   2.779  0.7944  1.7368 -0.8061
  192MOL0     H25884   6.440   5.440   3.096  1.0677  0.3365  0.0164
  192MOL0     H25885   6.196   5.425   3.166 -1.1359 -2.2629 -2.2020
  192MOL0     H25886   5.961   5.244   3.140  2.2171  0.9042 -1.0630
  192MOL0     H25887   6.070   5.100   3.143 -0.6736  0.7134 -1.2469
  192MOL0     H25888   5.826   5.117   3.326  2.3871  2.6219  0.9444
  192MOL0     H25889   5.851   5.030   3.171  2.5248 -1.4327 -1.2465
  192MOL0     H25890   6.036   5.004   3.409  2.3437  0.2753 -3.7022
  192MOL0     H25891   6.031   4.890   3.276 -0.2318 -0.4072  0.0751
  192MOL0     H25892   5.785   4.954   3.438 -2.7490  0.3877 -5.0564
  192MOL0     H25893   5.803   4.820   3.337 -3.2149  1.7715  1.0244
  192MOL0     H25894   6.036   4.776   3.477  1.2463  1.0223  2.5184
  192MOL0     H25895   5.893   4.697   3.531 -0.5837  0.0630 -0.9494
  192MOL0     H25896   5.970   4.974   3.618  1.2585 -0.4483 -2.1066
  192MOL0     H25897   5.837   4.873   3.676  0.5510  2.7527  1.2227
  192MOL0     H25898   6.135   4.827   3.727  0.4517 -0.3272 -0.6242
  192MOL0     H25899   6.013   4.701   3.764 -0.8674  0.2096  2.5465
  192MOL0     H25900   5.907   4.840   3.922  0.5411 -0.8564  2.4699
  192MOL0     H25901   6.004   4.980   3.883 -1.5038  0.6072  0.7259
  192MOL0     H25902   6.266   5.053   3.367 -2.8967  0.0729 -0.7645
  192MOL0     H25903   6.523   5.081   3.297  0.1694 -0.5272 -2.5522
  192MOL0     H25904   6.860   5.223   3.258  4.8499 -2.4374  0.8706
  192MOL0     H25905   7.096   5.197   3.228  2.7368 -0.2582 -1.8197
  192MOL0     H25906   7.993   4.096   2.634 -0.3060  0.2205  0.9099
  192MOL0     H25907   7.876   3.892   2.699 -0.0469  2.0366  1.9568
  192MOL0     H25908   7.651   3.567   2.633 -0.9065  3.2544  0.6349
  192MOL0     H25909   7.590   3.348   2.547  2.7563  3.4051 -0.1374
  192MOL0     H25910   7.162   3.261   2.437 -1.4613 -0.9508  0.6582
  192MOL0     H25911   7.241   3.102   2.424 -1.1127 -0.3396 -0.6889
  192MOL0     H25912   7.162   3.246   2.669 -0.6129  1.4303 -4.0647
  192MOL0     H25913   7.291   3.122   2.678 -0.7120 -2.7206  1.3263
  192MOL0     H25914   7.153   2.966   2.548  2.6901  0.2939  1.3595
  192MOL0     H25915   7.016   3.069   2.583  0.7333  1.4994 -1.9990
  192MOL0     H25916   7.201   2.945   2.805 -0.2130  1.1030  1.7461
  192MOL0     H25917   7.046   2.870   2.757 -1.2748  0.4618  0.4306
  192MOL0     H25918   6.914   3.215   2.972 -1.2428  0.6909 -3.2271
  192MOL0     H25919   7.177   3.458   2.517 -0.0550 -0.9864  1.2967
  192MOL0     H25920   7.245   3.689   2.585  0.2885  0.7796 -0.2179
  193MOL0     O25921   5.459   0.318   1.600 -0.0050  0.4247  0.5732
  193MOL0     C25922   5.573   0.274   1.606 -0.0508 -0.2214 -0.1498
  193MOL0     O25923   5.627   0.169   1.532  0.3129 -0.3842 -0.7886
  193MOL0     C25924   5.541   0.107   1.445  0.6011  0.8511 -0.0697
  193MOL0     C25925   5.555   0.122   1.307  0.9819 -0.1578 -0.0747
  193MOL0     C25926   5.467   0.056   1.221 -0.6198  0.1433  0.4469
  193MOL0     C25927   5.364  -0.032   1.269 -0.2688  0.1151  0.3151
  193MOL0     O25928   5.308  -0.122   1.178  0.2239 -0.1000 -0.5021
  193MOL0     C25929   5.341  -0.258   1.202 -0.1237 -0.2928 -0.1037
  193MOL0     C25930   5.244  -0.340   1.121 -1.3269  0.0072  0.7647
  193MOL0     C25931   5.314  -0.374   0.992 -0.2296 -0.1092  0.3292
  193MOL0     C25932   5.211  -0.443   0.901 -0.3879 -0.7962 -0.3801
  193MOL0     C25933   5.264  -0.475   0.757  0.3507 -0.1610 -0.9453
  193MOL0     C25934   5.164  -0.550   0.674  0.0656 -1.0750 -0.1358
  193MOL0     C25935   5.195  -0.537   0.528  0.4118 -1.1926 -0.1522
  193MOL0     C25936   5.323  -0.621   0.472  0.5474  0.2535  0.1771
  193MOL0     N25937   5.309  -0.765   0.513 -0.0922 -0.6621  0.6627
  193MOL0     C25938   5.226  -0.856   0.456  0.3425 -0.4902 -0.4305
  193MOL0     C25939   5.268  -0.975   0.504  0.0208  0.7130  0.1218
  193MOL0     C25940   5.201  -1.102   0.466  0.8090  0.1627 -0.3305
  193MOL0     C25941   5.073  -1.132   0.548  0.2246 -0.9425  0.3595
  193MOL0     C25942   5.087  -1.169   0.695  0.1730 -0.5595 -0.0144
  193MOL0     C25943   5.185  -1.282   0.724  0.2671 -0.0489  0.2058
  193MOL0     O25944   5.160  -1.397   0.633 -0.6382  0.4623 -0.9366
  193MOL0     C25945   5.204  -1.524   0.677  0.3311  0.1151 -0.6338
  193MOL0     C25946   5.156  -1.641   0.604 -0.9444  0.6055 -0.5740
  193MOL0     C25947   5.177  -1.770   0.652  0.1747 -0.1297 -0.0780
  193MOL0     C25948   5.116  -1.877   0.566 -1.0343  0.7377  0.2307
  193MOL0     C25949   5.245  -1.798   0.764  0.5396  0.1650  0.7757
  193MOL0     C25950   5.310  -1.926   0.805  0.7613 -0.3487 -0.3366
  193MOL0     O25951   5.390  -1.920   0.918  0.8055  0.5276  0.0973
  193MOL0     C25952   5.418  -2.034   0.989  0.2504  0.1489  0.4954
  193MOL0     C25953   5.529  -2.120   0.954  0.3752 -0.8858  0.7495
  193MOL0     C25954   5.559  -2.234   1.031 -0.3128  0.8785  0.8534
  193MOL0     C25955   5.484  -2.270   1.145 -0.1187  0.9567 -0.2409
  193MOL0     O25956   5.507  -2.390   1.191  0.6279 -0.7728 -0.3503
  193MOL0     C25957   5.560  -2.389   1.326  0.1765  0.2985 -0.0790
  193MOL0     C25958   5.618  -2.526   1.375 -0.7596  0.8027 -0.6222
  193MOL0     C25959   5.699  -2.613   1.277  0.9103  0.8049 -0.0290
  193MOL0     C25960   5.832  -2.556   1.242 -0.3962 -0.2045 -0.4782
  193MOL0     C25961   5.916  -2.649   1.155 -0.3012 -0.6293  0.0230
  193MOL0     C25962   6.057  -2.659   1.219 -1.0565  0.4835 -0.5337
  193MOL0     C25963   6.137  -2.781   1.158  0.3526 -0.5218 -0.5005
  193MOL0     C25964   6.254  -2.836   1.246 -0.3632  0.7920  0.1847
  193MOL0    Cl25965   6.190  -2.872   1.415 -0.0156  0.3927  0.4620
  193MOL0     C25966   5.365  -2.193   1.178  0.3307 -0.5771 -0.6015
  193MOL0     C25967   5.338  -2.077   1.101  0.5601 -0.2735  0.3289
  193MOL0     O25968   5.277  -2.029   0.753 -0.8714  0.0967 -0.8584
  193MOL0     C25969   5.285  -1.682   0.839  0.2559 -0.2210  0.1080
  193MOL0     C25970   5.264  -1.549   0.798 -0.2180  0.9364  0.0310
  193MOL0     N25971   5.365  -0.960   0.601  0.3966  0.7561  0.2945
  193MOL0     N25972   5.388  -0.826   0.600 -0.6206  1.0719  0.4587
  193MOL0     C25973   5.359  -0.048   1.412  0.1934 -0.6533 -0.2314
  193MOL0     C25974   5.454   0.010   1.501 -0.5138 -0.7267 -0.0576
  193MOL0     C25975   5.677   0.328   1.703 -0.4015  0.4921 -0.0001
  193MOL0     C25976   5.815   0.339   1.669 -0.0598  0.8053 -0.9513
  193MOL0     C25977   5.901   0.364   1.777 -0.9002 -0.8089 -0.9966
  193MOL0     C25978   5.863   0.405   1.907 -0.0215 -0.0803  0.1208
  193MOL0     O25979   5.965   0.428   1.999 -0.0295 -0.1506 -0.3129
  193MOL0     C25980   5.930   0.412   2.137 -0.2613 -1.4101  0.3044
  193MOL0     C25981   6.064   0.422   2.220 -0.5846 -0.2253 -0.1016
  193MOL0     C25982   6.130   0.558   2.227 -0.9100  0.8056  0.1186
  193MOL0     C25983   6.225   0.551   2.356  0.0836  0.0583  0.1887
  193MOL0     C25984   6.257   0.692   2.381  0.2891  1.2724  0.0515
  193MOL0     C25985   6.277   0.811   2.394  0.6247 -0.6332 -0.8417
  193MOL0     C25986   5.734   0.385   1.937 -0.0989 -0.7020 -0.2194
  193MOL0     C25987   5.645   0.353   1.835  0.1958 -1.4950 -0.0588
  193MOL0     H25988   5.637   0.183   1.272  1.6827 -1.2414 -0.3673
  193MOL0     H25989   5.483   0.072   1.115  1.9785  0.9589  0.8881
  193MOL0     H25990   5.449  -0.266   1.184  0.5227  5.8385 -1.1752
  193MOL0     H25991   5.323  -0.281   1.307  2.6777 -1.3179  0.2437
  193MOL0     H25992   5.229  -0.436   1.172 -0.0003 -0.3713  0.4771
  193MOL0     H25993   5.145  -0.299   1.099 -2.1834 -2.8185 -1.2301
  193MOL0     H25994   5.358  -0.287   0.942 -1.1979  0.4944  0.5108
  193MOL0     H25995   5.398  -0.444   1.004  0.2923  0.7406  1.9018
  193MOL0     H25996   5.173  -0.539   0.938 -0.2712 -1.1323 -1.1009
  193MOL0     H25997   5.118  -0.390   0.882 -1.0839 -1.2324  1.5684
  193MOL0     H25998   5.297  -0.388   0.700 -1.3044  2.0359  1.2667
  193MOL0     H25999   5.348  -0.544   0.768 -0.3059 -0.7924  0.3423
  193MOL0     H26000   5.163  -0.654   0.707 -0.8530  0.0952  4.2403
  193MOL0     H26001   5.067  -0.503   0.694  0.5957 -0.3794  0.9202
  193MOL0     H26002   5.105  -0.575   0.480  1.7833 -1.5457 -2.5948
  193MOL0     H26003   5.201  -0.431   0.502 -1.1741 -1.2058 -0.6382
  193MOL0     H26004   5.417  -0.585   0.516  1.5562 -1.1610 -0.7405
  193MOL0     H26005   5.317  -0.611   0.363 -3.3713 -4.0682 -0.2909
  193MOL0     H26006   5.142  -0.832   0.391  1.7914  2.8499 -1.3251
  193MOL0     H26007   5.180  -1.091   0.359  1.4099  2.4803 -0.2636
  193MOL0     H26008   5.261  -1.193   0.479 -0.2072 -0.2751  1.9089
  193MOL0     H26009   5.026  -1.211   0.489 -1.2155 -0.5209  0.9158
  193MOL0     H26010   5.006  -1.046   0.547  0.1504 -0.9546 -2.4564
  193MOL0     H26011   4.987  -1.182   0.738  0.4673  1.0621  1.2384
  193MOL0     H26012   5.131  -1.078   0.734  0.9379 -0.0100 -2.0438
  193MOL0     H26013   5.151  -1.294   0.827 -1.9397 -1.3176 -0.6003
  193MOL0     H26014   5.290  -1.262   0.704  0.0762 -1.0559 -2.0597
  193MOL0     H26015   5.113  -1.636   0.505  0.0615 -1.3403 -1.1588
  193MOL0     H26016   5.200  -1.909   0.503 -0.9909  1.1562  0.0730
  193MOL0     H26017   5.083  -1.963   0.625 -2.9075  0.5518 -1.0195
  193MOL0     H26018   5.034  -1.852   0.498 -0.5758  1.5680 -0.0293
  193MOL0     H26019   5.585  -2.100   0.863 -2.0302 -0.1770 -0.6465
  193MOL0     H26020   5.640  -2.303   1.010  0.0933  1.0619  1.7513
  193MOL0     H26021   5.637  -2.312   1.333 -1.0110  1.6769 -1.3740
  193MOL0     H26022   5.477  -2.351   1.387 -2.3440 -1.5438 -2.1510
  193MOL0     H26023   5.672  -2.499   1.466 -3.6150  3.0962  0.5481
  193MOL0     H26024   5.531  -2.577   1.418  1.0045 -0.2195  1.9947
  193MOL0     H26025   5.636  -2.621   1.187  2.0237 -2.7019 -0.6608
  193MOL0     H26026   5.707  -2.712   1.323  1.3830  1.2385  0.8376
  193MOL0     H26027   5.826  -2.462   1.186  1.1315  1.3625  1.8269
  193MOL0     H26028   5.888  -2.531   1.332 -1.8473  0.2041  0.3214
  193MOL0     H26029   5.922  -2.611   1.053 -1.5295 -2.7113 -0.9065
  193MOL0     H26030   5.869  -2.748   1.149  1.3309 -1.5326  1.3335
  193MOL0     H26031   6.111  -2.565   1.207  1.0459 -0.4744  0.7751
  193MOL0     H26032   6.029  -2.678   1.323 -3.2160  1.6055 -0.8427
  193MOL0     H26033   6.182  -2.751   1.063  1.8915  2.1067  0.9507
  193MOL0     H26034   6.070  -2.864   1.132 -2.1926  0.8038  1.3166
  193MOL0     H26035   6.327  -2.755   1.247  1.0684 -0.4382 -1.0211
  193MOL0     H26036   6.309  -2.914   1.193  2.5353  3.3397 -0.8465
  193MOL0     H26037   5.304  -2.224   1.263 -0.3522  1.4827 -0.2799
  193MOL0     H26038   5.256  -2.014   1.134  1.4125  2.0278 -1.6215
  193MOL0     H26039   5.345  -1.683   0.929  0.3489 -1.3055  0.0430
  193MOL0     H26040   5.289  -1.474   0.873  0.8174 -2.2065  3.1023
  193MOL0     H26041   5.294  -0.118   1.464  0.9696 -0.9784  0.3194
  193MOL0     H26042   5.434   0.010   1.608 -0.8665  0.6515 -0.1170
  193MOL0     H26043   5.865   0.307   1.578 -1.4221 -0.2532 -1.3632
  193MOL0     H26044   6.009   0.363   1.763 -0.3995 -0.5033  2.0867
  193MOL0     H26045   5.855   0.479   2.179  1.6827 -0.1964  2.0848
  193MOL0     H26046   5.882   0.314   2.140 -2.0301 -0.7198 -2.1519
  193MOL0     H26047   6.132   0.346   2.180  0.3967  0.2993  0.5339
  193MOL0     H26048   6.029   0.395   2.320 -2.7243  0.4756 -0.6136
  193MOL0     H26049   6.052   0.633   2.244 -0.2772  1.1293  1.8782
  193MOL0     H26050   6.186   0.581   2.136  2.1984  2.0528  2.1786
  193MOL0     H26051   6.313   0.486   2.350  1.0506  1.4723 -2.8078
  193MOL0     H26052   6.163   0.505   2.434 -1.0836  0.0789 -0.7032
  193MOL0     H26053   6.323   0.908   2.394  1.4450 -0.9901  0.4312
  193MOL0     H26054   5.695   0.410   2.035  3.8353 -1.9864  1.8540
  193MOL0     H26055   5.538   0.348   1.856 -0.3309 -0.2028 -2.1150
  194MOL0     O26056  10.576   5.147   1.869  0.3225 -0.1680  0.0554
  194MOL0     C26057  10.523   5.251   1.906  0.1040 -0.0823 -0.0751
  194MOL0     O26058  10.538   5.372   1.848 -0.0134  1.0725  0.1882
  194MOL0     C26059  10.633   5.401   1.755  1.1799 -1.2552  0.5314
  194MOL0     C26060  10.605   5.513   1.688 -1.0427 -0.4203  1.1266
  194MOL0     C26061  10.673   5.542   1.563 -0.4140  0.3715 -1.4554
  194MOL0     C26062  10.783   5.453   1.524 -0.2861  0.2976 -0.3171
  194MOL0     O26063  10.844   5.467   1.402 -0.8704  0.2765 -0.6741
  194MOL0     C26064  10.765   5.508   1.293  0.2665 -0.0061 -0.2351
  194MOL0     C26065  10.844   5.487   1.168 -0.4207 -0.0613 -0.4271
  194MOL0     C26066  10.972   5.568   1.167  0.4160  0.1478 -0.0174
  194MOL0     C26067  11.059   5.520   1.043  0.3997 -0.6021  0.3841
  194MOL0     C26068  11.184   5.604   1.025  0.7260  0.0570 -0.5694
  194MOL0     C26069  11.265   5.554   0.913 -0.4308 -0.3127 -0.2002
  194MOL0     C26070  11.395   5.496   0.966  0.8992  0.1804 -0.1858
  194MOL0     C26071  11.461   5.426   0.850  0.7322 -0.6306  0.6979
  194MOL0     N26072  11.601   5.397   0.867 -0.2481  0.5832 -0.2958
  194MOL0     C26073  11.646   5.317   0.964  1.2002 -0.0684  0.2587
  194MOL0     C26074  11.779   5.307   0.957  0.0083  0.1521 -0.7769
  194MOL0     C26075  11.885   5.226   1.047 -0.1414  0.6953  0.8270
  194MOL0     C26076  11.950   5.102   0.985 -0.2660  0.5410 -0.0520
  194MOL0     C26077  11.847   4.994   0.969 -0.1046 -0.1233  0.3841
  194MOL0     C26078  11.904   4.864   0.895 -0.1044 -0.2100  0.0720
  194MOL0     O26079  11.793   4.794   0.848  0.2568 -0.2219 -0.1579
  194MOL0     C26080  11.724   4.717   0.937 -0.5434 -0.2506 -0.2200
  194MOL0     C26081  11.582   4.701   0.909 -0.4807  0.1725  0.2523
  194MOL0     C26082  11.505   4.612   0.987 -1.0189  0.5561  0.2756
  194MOL0     C26083  11.364   4.605   0.943 -0.3455 -0.3965  0.2596
  194MOL0     C26084  11.561   4.547   1.100  0.7540  0.3142 -0.0475
  194MOL0     C26085  11.489   4.471   1.215  0.2171  0.6129  0.3372
  194MOL0     O26086  11.566   4.405   1.307  0.6872  0.6279 -0.8352
  194MOL0     C26087  11.509   4.363   1.427 -0.4400  0.1400  0.9006
  194MOL0     C26088  11.552   4.242   1.473  0.0614  0.2041  0.3953
  194MOL0     C26089  11.539   4.201   1.600 -0.1495 -0.2082 -0.9206
  194MOL0     C26090  11.465   4.280   1.689 -0.1937 -0.3370  0.6158
  194MOL0     O26091  11.464   4.231   1.816  0.3634 -0.5679 -0.6014
  194MOL0     C26092  11.490   4.341   1.914 -0.3015  0.2220 -0.8749
  194MOL0     C26093  11.372   4.354   2.005  0.4377 -1.6862  0.0075
  194MOL0     C26094  11.376   4.496   2.082  0.4531 -1.1376 -0.0305
  194MOL0     C26095  11.276   4.497   2.187  0.3181  0.6943 -0.2319
  194MOL0     C26096  11.286   4.627   2.259 -0.1199  0.5871 -0.5791
  194MOL0     C26097  11.373   4.643   2.381  0.4023 -0.4184 -1.1386
  194MOL0     C26098  11.367   4.793   2.423  0.2005  0.0277 -0.2047
  194MOL0     C26099  11.453   4.822   2.545 -0.2212  0.8417 -0.5551
  194MOL0    Cl26100  11.396   4.739   2.706 -0.0219 -0.0243  0.1852
  194MOL0     C26101  11.398   4.393   1.646 -0.2664 -0.2713  0.3909
  194MOL0     C26102  11.417   4.435   1.505  1.0157  0.1389 -0.9943
  194MOL0     O26103  11.369   4.471   1.218 -0.1366 -0.8130 -0.7462
  194MOL0     C26104  11.700   4.558   1.125  0.7036 -0.0282 -0.1273
  194MOL0     C26105  11.780   4.646   1.046  1.4638  0.9346 -0.1216
  194MOL0     N26106  11.813   5.382   0.852 -1.0846 -0.9373 -0.1978
  194MOL0     N26107  11.712   5.433   0.792  0.1196 -0.1561 -0.3943
  194MOL0     C26108  10.826   5.352   1.609  0.1797 -0.0156 -0.5391
  194MOL0     C26109  10.752   5.328   1.726 -0.6199 -0.4892  0.2265
  194MOL0     C26110  10.427   5.232   2.013 -0.2811  0.7245 -0.4999
  194MOL0     C26111  10.427   5.110   2.092 -0.6704 -0.5574 -0.6625
  194MOL0     C26112  10.323   5.085   2.182  1.1119 -0.7850 -0.1745
  194MOL0     C26113  10.230   5.184   2.212 -0.1371 -0.1715 -0.4759
  194MOL0     O26114  10.130   5.152   2.302  0.1584 -0.6567  0.0154
  194MOL0     C26115  10.018   5.117   2.226  0.5937  0.1714  0.3228
  194MOL0     C26116   9.905   5.077   2.317  0.1823  1.1274 -0.0404
  194MOL0     C26117   9.886   5.183   2.428 -0.3834 -0.0533 -0.3387
  194MOL0     C26118   9.740   5.190   2.462 -0.8619  0.3989  0.1630
  194MOL0     C26119   9.694   5.061   2.514 -0.2128  0.4082 -0.1277
  194MOL0     C26120   9.685   4.944   2.555 -0.0826 -0.3026  0.2515
  194MOL0     C26121  10.250   5.316   2.156 -1.0388  0.7597 -0.4395
  194MOL0     C26122  10.347   5.334   2.060 -0.2141  1.4135 -0.1228
  194MOL0     H26123  10.523   5.579   1.711 -1.4937  0.6813 -2.9244
  194MOL0     H26124  10.624   5.616   1.500 -2.2148 -0.2270 -0.8318
  194MOL0     H26125  10.670   5.453   1.284  0.0426 -0.8777  4.6789
  194MOL0     H26126  10.757   5.617   1.302  1.6604  0.1314 -0.4873
  194MOL0     H26127  10.878   5.383   1.160 -1.4995 -0.5735  1.1589
  194MOL0     H26128  10.777   5.506   1.084 -0.0522  0.0509 -0.7006
  194MOL0     H26129  10.944   5.673   1.164  2.4641  0.7297 -0.7777
  194MOL0     H26130  11.028   5.555   1.260 -1.4047 -0.8752  1.0083
  194MOL0     H26131  11.091   5.416   1.041 -0.8843 -1.0868  2.5005
  194MOL0     H26132  10.998   5.537   0.954 -0.2563  2.2477  1.2570
  194MOL0     H26133  11.134   5.701   1.016 -3.0632 -1.6272  0.4686
  194MOL0     H26134  11.236   5.605   1.121 -1.3059  1.8634  0.5816
  194MOL0     H26135  11.207   5.477   0.862  3.2000 -1.8876 -2.2848
  194MOL0     H26136  11.296   5.631   0.842  2.9374 -1.0534  0.3328
  194MOL0     H26137  11.454   5.585   0.990  0.5220  0.8772 -1.7117
  194MOL0     H26138  11.380   5.435   1.056  4.4748 -2.8052 -1.3735
  194MOL0     H26139  11.451   5.498   0.768  0.0992 -1.3588  0.1199
  194MOL0     H26140  11.409   5.332   0.830 -0.4066 -0.9527  4.4039
  194MOL0     H26141  11.584   5.262   1.034  0.6048 -2.4784 -1.9729
  194MOL0     H26142  11.965   5.298   1.067  1.0368 -0.2386 -0.3363
  194MOL0     H26143  11.828   5.197   1.137 -0.2954 -0.3134  0.4152
  194MOL0     H26144  12.028   5.059   1.049  0.2235  0.7746 -0.4758
  194MOL0     H26145  11.992   5.113   0.884 -1.4520 -2.7192 -1.0082
  194MOL0     H26146  11.755   5.027   0.921 -1.2383 -3.2895  0.1445
  194MOL0     H26147  11.821   4.964   1.071 -2.2992 -2.1604 -0.6804
  194MOL0     H26148  11.963   4.810   0.970  1.8220  1.0778 -0.4222
  194MOL0     H26149  11.978   4.884   0.816  0.4117 -0.6590  0.4315
  194MOL0     H26150  11.535   4.751   0.825 -0.7683 -1.9589 -0.9284
  194MOL0     H26151  11.365   4.554   0.846  1.4895 -0.0174  0.0398
  194MOL0     H26152  11.294   4.553   1.010 -0.0134 -0.0824  0.8651
  194MOL0     H26153  11.321   4.705   0.933 -0.5314 -0.3047  1.7499
  194MOL0     H26154  11.618   4.189   1.405 -0.6758 -2.3217  1.5247
  194MOL0     H26155  11.581   4.105   1.629 -0.2043 -0.2666 -1.0341
  194MOL0     H26156  11.576   4.320   1.978 -2.0987 -4.1830  0.4869
  194MOL0     H26157  11.508   4.439   1.869  2.4450 -0.4611 -1.4367
  194MOL0     H26158  11.284   4.357   1.941  0.7944  1.9127 -0.5554
  194MOL0     H26159  11.369   4.273   2.078  0.6212 -0.2525  1.6877
  194MOL0     H26160  11.350   4.582   2.020  1.8137  1.3835  2.6582
  194MOL0     H26161  11.473   4.530   2.121  0.5829 -2.1394  0.5651
  194MOL0     H26162  11.177   4.499   2.142  0.4105  2.9159 -0.4368
  194MOL0     H26163  11.300   4.416   2.257  1.0380  2.6481  1.9113
  194MOL0     H26164  11.183   4.658   2.283 -0.1276  1.4377 -1.6209
  194MOL0     H26165  11.329   4.703   2.194 -0.3306  1.0383 -0.1985
  194MOL0     H26166  11.333   4.590   2.468  0.6436  1.7990  0.4110
  194MOL0     H26167  11.473   4.608   2.352 -0.8404 -1.5276 -4.5652
  194MOL0     H26168  11.266   4.828   2.444 -0.8739  0.1260 -4.5966
  194MOL0     H26169  11.411   4.862   2.351  0.8723  1.7108  1.7241
  194MOL0     H26170  11.465   4.931   2.550 -0.5912  0.8772 -0.4191
  194MOL0     H26171  11.556   4.789   2.528  0.4089  2.8341 -1.0139
  194MOL0     H26172  11.350   4.442   1.730  3.0257 -1.2402  3.0997
  194MOL0     H26173  11.388   4.538   1.488 -0.2112  0.6972  3.2599
  194MOL0     H26174  11.765   4.510   1.196 -0.1443  1.5979  1.8411
  194MOL0     H26175  11.883   4.650   1.080  0.1722  2.2555  4.3730
  194MOL0     H26176  10.904   5.290   1.567 -0.5793  0.8496 -3.5006
  194MOL0     H26177  10.782   5.244   1.789 -0.9658 -0.5117  0.3646
  194MOL0     H26178  10.497   5.028   2.079 -1.6718 -1.7240  0.8692
  194MOL0     H26179  10.322   4.993   2.240 -1.6013 -0.0783  1.0621
  194MOL0     H26180   9.982   5.206   2.173 -0.7731 -0.0412  0.8440
  194MOL0     H26181  10.033   5.036   2.154  0.3949 -0.6621  1.1979
  194MOL0     H26182   9.931   4.978   2.356 -2.0718 -0.1697 -1.5990
  194MOL0     H26183   9.810   5.061   2.265  0.3881  1.1873 -0.4336
  194MOL0     H26184   9.925   5.282   2.406 -1.4240  1.0117  2.2606
  194MOL0     H26185   9.945   5.152   2.515  3.6551  1.4959 -2.2851
  194MOL0     H26186   9.686   5.232   2.377 -0.7254  0.7381  0.2402
  194MOL0     H26187   9.732   5.263   2.544 -0.5335  1.1565 -0.4713
  194MOL0     H26188   9.688   4.844   2.593  2.3901 -0.0637  0.8383
  194MOL0     H26189  10.174   5.393   2.162  0.2798  2.2437 -1.7491
  194MOL0     H26190  10.329   5.427   2.008 -0.8343 -0.4432 -3.5244
  195MOL0     O26191   4.681   1.251   3.646  0.3501  0.4576  0.1961
  195MOL0     C26192   4.794   1.193   3.665  0.4066 -0.0783 -0.9052
  195MOL0     O26193   4.915   1.255   3.689 -0.0372  0.5971 -0.3846
  195MOL0     C26194   4.912   1.392   3.679 -0.0656  0.1345  0.3624
  195MOL0     C26195   4.816   1.470   3.756  0.6147 -0.3993  1.2358
  195MOL0     C26196   4.815   1.607   3.744  0.2931 -0.2569 -0.0384
  195MOL0     C26197   4.910   1.671   3.664 -1.0335  0.3353  0.3234
  195MOL0     O26198   4.902   1.803   3.635 -0.3232  0.2018 -0.7372
  195MOL0     C26199   4.799   1.845   3.543  0.0993 -0.0090 -0.1743
  195MOL0     C26200   4.678   1.901   3.619 -0.3320 -1.4016 -0.5008
  195MOL0     C26201   4.592   2.005   3.539 -0.3410 -0.2149 -0.4160
  195MOL0     C26202   4.549   1.970   3.397 -0.3136  0.6376 -0.0988
  195MOL0     C26203   4.456   2.079   3.337 -0.4426 -0.3574 -1.1000
  195MOL0     C26204   4.391   2.024   3.204  0.6121  0.1171 -0.9393
  195MOL0     C26205   4.310   2.144   3.148 -0.0774  0.5682  0.2786
  195MOL0     C26206   4.286   2.114   2.990 -0.1781 -0.0689 -0.4136
  195MOL0     N26207   4.188   2.005   2.949  0.8840  0.2553  0.3064
  195MOL0     C26208   4.059   1.983   2.999 -0.1339 -0.8359  0.7683
  195MOL0     C26209   4.017   1.890   2.913  0.1458 -0.2380  1.1563
  195MOL0     C26210   3.879   1.827   2.898  0.0251  0.4269 -0.6166
  195MOL0     C26211   3.877   1.679   2.917 -0.2715 -0.2384 -0.8473
  195MOL0     C26212   3.744   1.613   2.877  0.7181  0.8471  0.0170
  195MOL0     C26213   3.715   1.608   2.732  0.0578  0.3518  0.5398
  195MOL0     O26214   3.580   1.559   2.713 -0.0297 -0.1152 -0.7942
  195MOL0     C26215   3.554   1.426   2.729  1.4006  0.0431  0.0849
  195MOL0     C26216   3.417   1.377   2.746 -0.1008 -0.1442  0.1669
  195MOL0     C26217   3.386   1.235   2.744  0.0401  0.8431  0.0834
  195MOL0     C26218   3.242   1.200   2.755 -0.1567  0.3400 -0.6507
  195MOL0     C26219   3.500   1.143   2.748 -0.6545  0.4303  0.3672
  195MOL0     C26220   3.477   0.996   2.750 -0.8837 -0.4507 -0.6014
  195MOL0     O26221   3.350   0.946   2.782 -0.6676  0.0242 -0.7942
  195MOL0     C26222   3.329   0.809   2.783 -0.8272 -0.2347 -0.5905
  195MOL0     C26223   3.252   0.748   2.686  1.0422 -0.0598 -0.4858
  195MOL0     C26224   3.225   0.613   2.699  0.4024  1.0025  0.3306
  195MOL0     C26225   3.280   0.529   2.805  0.5874  0.3283  0.5651
  195MOL0     O26226   3.243   0.400   2.824 -0.2289 -0.4761  0.5986
  195MOL0     C26227   3.153   0.331   2.740  0.2243 -0.1754 -0.7206
  195MOL0     C26228   3.125   0.209   2.814 -0.2058  0.2620 -0.6916
  195MOL0     C26229   3.059   0.099   2.726 -0.3841  0.1576  0.3112
  195MOL0     C26230   2.966   0.150   2.615  0.0585  0.0340  0.1415
  195MOL0     C26231   2.867   0.039   2.575  0.4175  0.1221 -0.2309
  195MOL0     C26232   2.743   0.035   2.643 -0.0570  0.1504  0.5941
  195MOL0     C26233   2.646  -0.068   2.593  0.9943 -0.0995 -0.6950
  195MOL0     C26234   2.690  -0.213   2.571 -0.5751  0.4735  0.0229
  195MOL0    Cl26235   2.783  -0.279   2.720 -0.2239 -0.1271 -0.2918
  195MOL0     C26236   3.353   0.597   2.903 -0.2907  0.8985  0.7715
  195MOL0     C26237   3.375   0.733   2.893 -0.2969 -0.6963  0.4629
  195MOL0     O26238   3.580   0.926   2.740 -0.1142 -0.7470 -0.3857
  195MOL0     C26239   3.633   1.194   2.744  0.1563  0.7292  1.0270
  195MOL0     C26240   3.658   1.332   2.731 -0.0549  0.4401  0.2331
  195MOL0     N26241   4.121   1.852   2.823  0.6249 -0.5102  0.3202
  195MOL0     N26242   4.227   1.919   2.849 -0.3095 -0.5209  0.0810
  195MOL0     C26243   5.021   1.602   3.622 -0.1276 -0.1661 -0.6664
  195MOL0     C26244   5.017   1.461   3.615  0.4668  0.6355 -0.8154
  195MOL0     C26245   4.769   1.050   3.664  0.1849  0.1388  1.0397
  195MOL0     C26246   4.654   0.983   3.633 -0.3620  0.1581 -0.9075
  195MOL0     C26247   4.643   0.847   3.631  0.2927 -0.5329 -0.0305
  195MOL0     C26248   4.743   0.760   3.676 -0.1452  0.4320 -1.3523
  195MOL0     O26249   4.736   0.627   3.699  0.5567  1.1890  0.3524
  195MOL0     C26250   4.599   0.576   3.715 -0.2714  0.0357  0.2637
  195MOL0     C26251   4.614   0.433   3.752  0.3943  0.8506  0.3060
  195MOL0     C26252   4.474   0.370   3.775  0.5620  0.3966  0.9807
  195MOL0     C26253   4.404   0.340   3.637 -0.5702  0.7918  0.4013
  195MOL0     C26254   4.317   0.230   3.649 -0.4149  0.1345  0.9081
  195MOL0     C26255   4.235   0.144   3.657 -0.8296 -0.2877 -0.8237
  195MOL0     C26256   4.866   0.829   3.698  0.3794 -0.6870  0.2817
  195MOL0     C26257   4.872   0.964   3.696  0.1673  0.9757  0.2823
  195MOL0     H26258   4.740   1.426   3.819 -0.8342  2.6999  1.8740
  195MOL0     H26259   4.735   1.667   3.785  0.9501 -0.4026  1.5227
  195MOL0     H26260   4.833   1.936   3.493 -2.6889  1.5989  0.6248
  195MOL0     H26261   4.781   1.782   3.456  0.2382  0.8333 -0.8272
  195MOL0     H26262   4.621   1.812   3.646 -0.9741 -1.2546 -1.3358
  195MOL0     H26263   4.715   1.959   3.704 -4.0610  2.1632 -0.9961
  195MOL0     H26264   4.501   2.008   3.599 -0.1055  0.4362 -0.0800
  195MOL0     H26265   4.634   2.106   3.534 -1.3511  0.2674  0.3660
  195MOL0     H26266   4.635   1.954   3.331 -0.7430 -2.1345 -0.1008
  195MOL0     H26267   4.501   1.872   3.395 -0.3145  0.6470 -0.5084
  195MOL0     H26268   4.377   2.103   3.409  0.8131  0.2229  0.1251
  195MOL0     H26269   4.517   2.169   3.327  0.7125 -0.8655  0.7966
  195MOL0     H26270   4.463   1.996   3.127 -2.0356  0.6832 -3.8508
  195MOL0     H26271   4.332   1.936   3.230 -0.5153  1.3675  1.0735
  195MOL0     H26272   4.210   2.141   3.194  0.8934  0.8003  2.5549
  195MOL0     H26273   4.344   2.246   3.167 -2.2726  1.4991 -0.4993
  195MOL0     H26274   4.383   2.104   2.941 -0.1170  0.0251 -0.3142
  195MOL0     H26275   4.246   2.206   2.945 -0.8417 -1.1950 -2.2090
  195MOL0     H26276   4.007   2.037   3.077  0.3979  0.7681  0.0494
  195MOL0     H26277   3.816   1.868   2.978 -1.4935 -0.2286 -1.4396
  195MOL0     H26278   3.830   1.851   2.804 -5.4990 -1.6540  1.3456
  195MOL0     H26279   3.893   1.668   3.025 -2.2540  3.5957 -0.0110
  195MOL0     H26280   3.957   1.629   2.861  1.8713  2.1288 -0.1232
  195MOL0     H26281   3.662   1.668   2.924  1.3306  0.8504  1.1294
  195MOL0     H26282   3.743   1.513   2.921  0.5701  1.4447  1.4291
  195MOL0     H26283   3.791   1.551   2.677 -1.1064 -1.3693  0.6332
  195MOL0     H26284   3.716   1.711   2.694  0.8099  0.0206 -0.3781
  195MOL0     H26285   3.326   1.436   2.748 -1.3306 -1.9702  0.8435
  195MOL0     H26286   3.225   1.140   2.845  0.2048  3.3291  1.5821
  195MOL0     H26287   3.177   1.288   2.759  0.9165  1.1249  0.2226
  195MOL0     H26288   3.222   1.146   2.662 -2.4248  1.0974 -0.6621
  195MOL0     H26289   3.202   0.803   2.606 -3.0621 -2.1509  0.3758
  195MOL0     H26290   3.178   0.551   2.623  1.1794 -2.9940  2.7837
  195MOL0     H26291   3.055   0.377   2.721  0.1110 -0.4052 -0.6978
  195MOL0     H26292   3.198   0.301   2.645 -0.9236 -0.9486 -1.0472
  195MOL0     H26293   3.220   0.170   2.851  0.2445  1.3618 -0.6680
  195MOL0     H26294   3.062   0.224   2.903 -0.9823 -4.4507 -0.1858
  195MOL0     H26295   3.006   0.036   2.798 -2.4283  0.3248 -0.9735
  195MOL0     H26296   3.137   0.035   2.685 -0.4272 -0.2038  0.7902
  195MOL0     H26297   2.902   0.232   2.650 -1.6267 -0.5928 -1.3030
  195MOL0     H26298   3.024   0.183   2.528  1.7606  0.9297  1.5693
  195MOL0     H26299   2.924  -0.054   2.577  0.7141  0.1879 -2.5151
  195MOL0     H26300   2.830   0.062   2.474 -0.7324  2.5190  0.6754
  195MOL0     H26301   2.769   0.005   2.745  2.8538 -0.3427 -0.2096
  195MOL0     H26302   2.691   0.131   2.643 -2.0588 -0.8659  1.4983
  195MOL0     H26303   2.605  -0.026   2.501 -0.0586 -0.0011 -0.1893
  195MOL0     H26304   2.567  -0.072   2.668  1.8263  1.9320  0.3504
  195MOL0     H26305   2.763  -0.212   2.488  0.3472  0.9886  0.8206
  195MOL0     H26306   2.609  -0.281   2.543 -0.0062  0.2552 -1.1961
  195MOL0     H26307   3.388   0.550   2.994 -0.7226  0.7048  0.8391
  195MOL0     H26308   3.432   0.789   2.966 -1.6047  2.0855 -0.4975
  195MOL0     H26309   3.714   1.122   2.749 -0.8518 -0.4880  0.4055
  195MOL0     H26310   3.762   1.364   2.726  0.2813  0.0294  2.9861
  195MOL0     H26311   5.109   1.644   3.574  1.8804 -2.0112  1.1873
  195MOL0     H26312   5.088   1.407   3.554 -2.6928 -3.2970 -1.4021
  195MOL0     H26313   4.565   1.040   3.606 -0.6202  0.0045 -0.3925
  195MOL0     H26314   4.547   0.804   3.605 -0.1632  0.2758  0.2786
  195MOL0     H26315   4.540   0.634   3.786  0.2063  1.4944 -0.4749
  195MOL0     H26316   4.555   0.578   3.615  0.5392  3.3712 -0.1580
  195MOL0     H26317   4.662   0.419   3.849 -2.7509 -1.6087  1.7095
  195MOL0     H26318   4.670   0.372   3.681 -3.5641 -1.6419 -0.9928
  195MOL0     H26319   4.408   0.434   3.835  0.6739 -1.1903  2.9066
  195MOL0     H26320   4.484   0.278   3.833  0.0583  0.2102  0.7793
  195MOL0     H26321   4.481   0.323   3.562 -0.9663  1.3005 -0.1289
  195MOL0     H26322   4.350   0.428   3.600  5.2351  3.8584 -2.3247
  195MOL0     H26323   4.168   0.061   3.650  1.7276 -2.3732 -2.0347
  195MOL0     H26324   4.956   0.776   3.728 -0.2842 -2.4274 -0.6368
  195MOL0     H26325   4.965   1.011   3.727  1.4215 -1.0837 -0.1139
  196MOL0     O26326   3.317  10.746   5.367 -0.0822  0.2961  0.5951
  196MOL0     C26327   3.275  10.787   5.475 -0.5363  0.0258 -0.0798
  196MOL0     O26328   3.254  10.921   5.508 -0.1372 -0.6558 -0.1181
  196MOL0     C26329   3.266  11.019   5.422  0.4156  0.6862  1.2838
  196MOL0     C26330   3.355  11.124   5.442 -1.0972 -0.8583 -0.1712
  196MOL0     C26331   3.346  11.234   5.357 -1.4005  1.0568  0.5170
  196MOL0     C26332   3.259  11.244   5.251  0.0431 -0.2425 -0.3462
  196MOL0     O26333   3.262  11.356   5.171 -0.2731 -0.4185  0.4766
  196MOL0     C26334   3.158  11.436   5.227  0.4924 -0.3701  0.2211
  196MOL0     C26335   3.090  11.520   5.122  0.1732 -0.0903  0.4123
  196MOL0     C26336   3.003  11.439   5.018 -0.6745 -1.2286  0.4251
  196MOL0     C26337   2.861  11.424   5.064 -0.6938 -0.7482 -1.2633
  196MOL0     C26338   2.806  11.283   5.059 -1.2937 -0.1325 -0.1291
  196MOL0     C26339   2.706  11.261   5.175 -0.7635 -1.0537  0.0543
  196MOL0     C26340   2.639  11.122   5.155 -0.2405 -0.0565  0.0904
  196MOL0     C26341   2.731  10.993   5.166  0.5635  0.7467  0.2461
  196MOL0     N26342   2.647  10.871   5.175 -0.3045 -1.1948 -0.5609
  196MOL0     C26343   2.628  10.775   5.080 -0.4494 -0.2525 -0.2458
  196MOL0     C26344   2.542  10.689   5.148  0.2680 -0.0756  0.4755
  196MOL0     C26345   2.497  10.555   5.090  1.0253  0.0559 -0.1794
  196MOL0     C26346   2.357  10.565   5.022  0.0743 -0.6005  0.3919
  196MOL0     C26347   2.251  10.640   5.099 -0.1745  1.4468 -0.0242
  196MOL0     C26348   2.228  10.591   5.253 -0.6064  0.1746 -0.5749
  196MOL0     O26349   2.128  10.652   5.338 -0.3671  0.8696  0.1835
  196MOL0     C26350   2.004  10.684   5.276  0.0752 -0.2718 -0.6535
  196MOL0     C26351   1.951  10.815   5.288  1.5413  0.0842  0.5153
  196MOL0     C26352   1.824  10.841   5.235 -0.1167 -1.0276  0.2655
  196MOL0     C26353   1.780  10.988   5.250  0.4520 -0.2812  0.7716
  196MOL0     C26354   1.746  10.748   5.153 -0.0062  0.0271 -0.9329
  196MOL0     C26355   1.621  10.773   5.090  1.0062  0.5634 -0.4903
  196MOL0     O26356   1.534  10.873   5.127  0.2332  0.4048 -0.0215
  196MOL0     C26357   1.411  10.864   5.069  0.3115 -1.0128  0.2418
  196MOL0     C26358   1.320  10.791   5.141  0.8894  0.1198 -0.4918
  196MOL0     C26359   1.188  10.810   5.108 -0.2635 -0.7641 -0.6096
  196MOL0     C26360   1.141  10.870   4.996 -0.3478 -0.0636 -0.1719
  196MOL0     O26361   1.009  10.893   4.961 -0.2449  0.1192 -0.1749
  196MOL0     C26362   0.941  10.772   4.974  0.5077  0.6038  0.5124
  196MOL0     C26363   0.965  10.686   4.848  0.1615  0.1262 -0.2711
  196MOL0     C26364   0.863  10.579   4.809  0.6702  0.2293 -0.4609
  196MOL0     C26365   0.844  10.471   4.914  0.8204  0.8238 -0.1346
  196MOL0     C26366   0.962  10.381   4.957 -0.1907 -0.1076  0.2303
  196MOL0     C26367   0.926  10.319   5.092 -0.4527 -0.7297  0.0871
  196MOL0     C26368   1.041  10.241   5.155  0.1961  0.5748 -0.1383
  196MOL0     C26369   1.157  10.323   5.209  0.5215  0.4304 -0.2366
  196MOL0    Cl26370   1.108  10.435   5.340  0.1645  0.1962 -0.1980
  196MOL0     C26371   1.236  10.945   4.930 -0.0134  0.7286 -0.4880
  196MOL0     C26372   1.368  10.948   4.965 -0.0771 -0.5656  0.2054
  196MOL0     O26373   1.599  10.692   4.996  0.0287 -0.5504 -0.1109
  196MOL0     C26374   1.802  10.621   5.142  0.4378 -0.4646 -0.6664
  196MOL0     C26375   1.924  10.593   5.203  0.8283  0.5642 -0.1243
  196MOL0     N26376   2.517  10.737   5.272  0.8911  0.7960  0.3601
  196MOL0     N26377   2.569  10.853   5.287 -0.4256  0.4265 -0.0423
  196MOL0     C26378   3.178  11.134   5.221  0.4109 -0.9753 -0.4780
  196MOL0     C26379   3.178  11.027   5.312  0.5276 -0.4535  0.7492
  196MOL0     C26380   3.230  10.694   5.575 -0.3817 -0.6063 -0.2121
  196MOL0     C26381   3.215  10.558   5.556 -0.4772 -0.8396 -0.8955
  196MOL0     C26382   3.154  10.484   5.656  0.0372  0.1995  0.1796
  196MOL0     C26383   3.121  10.539   5.777 -0.9920  0.0004 -0.6061
  196MOL0     O26384   3.053  10.464   5.874 -0.0712 -0.3061  0.3538
  196MOL0     C26385   3.048  10.320   5.874 -0.0623  0.5995 -0.5468
  196MOL0     C26386   2.959  10.279   5.988  0.1240  0.7745  0.2282
  196MOL0     C26387   2.955  10.125   6.023 -1.5270 -0.3706  0.3218
  196MOL0     C26388   2.877  10.080   6.152  0.9022  0.3570 -0.2554
  196MOL0     C26389   2.733  10.120   6.152  0.4351 -0.6176 -0.1260
  196MOL0     C26390   2.623  10.157   6.181 -0.2334 -0.0415 -0.1796
  196MOL0     C26391   3.149  10.673   5.806  0.6422 -0.2230 -0.2501
  196MOL0     C26392   3.200  10.750   5.704 -1.3032 -0.8628 -0.1872
  196MOL0     H26393   3.432  11.128   5.518  0.9057  0.9395 -2.1580
  196MOL0     H26394   3.414  11.318   5.364  1.5476 -1.2124  1.1025
  196MOL0     H26395   3.078  11.386   5.281  1.3566  0.3600  2.3027
  196MOL0     H26396   3.201  11.505   5.301  3.5759 -0.8971 -0.9396
  196MOL0     H26397   3.031  11.602   5.164  0.1053 -0.1023  0.3411
  196MOL0     H26398   3.173  11.565   5.067  0.0613  0.2150  0.4888
  196MOL0     H26399   3.013  11.487   4.920 -1.1061  1.0051  1.4093
  196MOL0     H26400   3.043  11.340   4.995  0.9313 -0.2613 -1.2461
  196MOL0     H26401   2.867  11.439   5.173 -0.2478  0.6243 -1.4563
  196MOL0     H26402   2.792  11.498   5.022 -1.3250 -0.4938  0.1395
  196MOL0     H26403   2.749  11.267   4.967 -0.8453 -0.0359 -0.4280
  196MOL0     H26404   2.882  11.204   5.056  0.9959  2.0202 -1.6317
  196MOL0     H26405   2.757  11.268   5.272  1.3101 -1.8829 -0.9062
  196MOL0     H26406   2.623  11.332   5.172 -0.3771 -0.5561  0.9272
  196MOL0     H26407   2.573  11.106   5.241  1.9026 -1.0940  1.6425
  196MOL0     H26408   2.572  11.107   5.070 -0.2357 -1.0634  0.2467
  196MOL0     H26409   2.783  10.991   5.262 -0.7551 -2.2335  1.0250
  196MOL0     H26410   2.796  10.973   5.081 -1.0014  2.5952 -1.4860
  196MOL0     H26411   2.659  10.770   4.976 -4.0445  3.6138 -1.7646
  196MOL0     H26412   2.578  10.523   5.023  1.7423  1.2292  0.1009
  196MOL0     H26413   2.488  10.474   5.162 -1.3246 -2.1503 -2.7408
  196MOL0     H26414   2.314  10.470   4.987  1.5679  0.1013 -3.9577
  196MOL0     H26415   2.363  10.621   4.928 -0.5797 -0.2804  0.5353
  196MOL0     H26416   2.156  10.632   5.046 -0.7219 -0.4362  1.1427
  196MOL0     H26417   2.291  10.741   5.105  0.9126  1.0114  0.4936
  196MOL0     H26418   2.320  10.603   5.310 -0.6420 -1.0129 -0.2457
  196MOL0     H26419   2.205  10.484   5.243 -0.8483  0.0189  1.3692
  196MOL0     H26420   2.008  10.884   5.349 -1.3149  2.5116  0.6844
  196MOL0     H26421   1.734  11.020   5.156  1.5656  1.1764  0.6908
  196MOL0     H26422   1.703  11.008   5.325  3.2938  3.4461  3.0838
  196MOL0     H26423   1.871  11.044   5.273  1.5892 -1.5305 -0.4505
  196MOL0     H26424   1.350  10.740   5.232 -0.2199 -1.4929 -0.9874
  196MOL0     H26425   1.124  10.776   5.189 -0.0969 -0.8762 -0.5252
  196MOL0     H26426   0.953  10.723   5.071  0.1080  0.1587  0.3430
  196MOL0     H26427   0.833  10.789   4.972 -0.0634 -2.5566 -0.7303
  196MOL0     H26428   0.976  10.757   4.766  2.3993  0.3723  0.1746
  196MOL0     H26429   1.061  10.640   4.873 -0.4276  1.2622  5.6075
  196MOL0     H26430   0.889  10.533   4.713 -0.6386  0.6365 -1.0309
  196MOL0     H26431   0.770  10.633   4.786  2.0539  2.3853 -1.3189
  196MOL0     H26432   0.812  10.516   5.008  1.0182 -0.1089  0.3965
  196MOL0     H26433   0.774  10.392   4.884  0.9575 -0.1695  2.0049
  196MOL0     H26434   1.052  10.441   4.976  0.3756 -1.7246  3.2890
  196MOL0     H26435   0.994  10.308   4.882 -3.0376 -0.5263 -0.6914
  196MOL0     H26436   0.896  10.396   5.164  0.2237 -1.0969  0.7773
  196MOL0     H26437   0.848  10.245   5.075  0.1629 -1.8979  2.0477
  196MOL0     H26438   1.072  10.169   5.079  6.3783  0.3064  1.9980
  196MOL0     H26439   0.983  10.194   5.235 -1.0809 -0.0931 -1.4211
  196MOL0     H26440   1.208  10.370   5.124  2.0073 -1.9320 -0.7427
  196MOL0     H26441   1.230  10.252   5.248  1.9154  0.9046 -1.8433
  196MOL0     H26442   1.205  11.000   4.841  0.5055  1.8776  0.0251
  196MOL0     H26443   1.444  11.000   4.909 -0.1700 -0.9603 -0.2995
  196MOL0     H26444   1.760  10.532   5.096 -1.2710  0.0333 -0.1671
  196MOL0     H26445   1.959  10.490   5.202  0.9082  0.5917 -1.1938
  196MOL0     H26446   3.104  11.142   5.143 -2.1062  1.0079  1.9055
  196MOL0     H26447   3.127  10.935   5.283  1.1588 -0.4721 -0.3827
  196MOL0     H26448   3.246  10.522   5.458  3.0426 -1.4825  0.3235
  196MOL0     H26449   3.147  10.376   5.643 -0.5679 -0.1130  2.5585
  196MOL0     H26450   3.004  10.294   5.777  2.1043  4.9316 -3.0074
  196MOL0     H26451   3.152  10.291   5.890  0.6482  2.5612 -1.2191
  196MOL0     H26452   2.854  10.300   5.966  0.6995  0.8578 -2.9156
  196MOL0     H26453   2.986  10.337   6.077  2.8733  1.6857 -1.1112
  196MOL0     H26454   3.061  10.099   6.033 -1.4393 -1.1638 -2.1006
  196MOL0     H26455   2.922  10.064   5.939 -2.4917 -2.6686  2.2712
  196MOL0     H26456   2.922  10.132   6.237  0.7803 -3.2236  2.2541
  196MOL0     H26457   2.886   9.973   6.175  0.3740  0.8835  2.9199
  196MOL0     H26458   2.521  10.188   6.188 -1.2301 -2.9451 -0.6385
  196MOL0     H26459   3.132  10.721   5.902  0.3399 -2.1031  0.7021
  196MOL0     H26460   3.217  10.855   5.724 -3.0346 -0.4630 -0.7291
  197MOL0     O26461   7.725   4.235   6.329 -0.4656 -0.0378 -0.4389
  197MOL0     C26462   7.789   4.338   6.328 -0.7101  0.1676 -0.1153
  197MOL0     O26463   7.845   4.383   6.211 -0.6497  0.1952 -0.2555
  197MOL0     C26464   7.838   4.314   6.093  0.3442  0.1758  0.7561
  197MOL0     C26465   7.725   4.242   6.055  0.8051 -0.6539  0.4378
  197MOL0     C26466   7.728   4.178   5.933 -0.2829  1.5788 -0.0388
  197MOL0     C26467   7.848   4.166   5.859  0.5611 -0.4769 -0.6418
  197MOL0     O26468   7.854   4.101   5.742 -0.2057  0.1864  0.3916
  197MOL0     C26469   7.736   4.117   5.653  0.1081  0.6126 -0.4076
  197MOL0     C26470   7.643   3.998   5.640  0.0508  0.0094 -0.2152
  197MOL0     C26471   7.516   4.028   5.581 -0.5837  0.1188  0.1012
  197MOL0     C26472   7.409   3.923   5.587  0.0601  0.0903 -0.1995
  197MOL0     C26473   7.292   3.961   5.492 -1.0451 -0.7189 -0.0605
  197MOL0     C26474   7.188   3.840   5.501 -0.7815  0.8038  0.1163
  197MOL0     C26475   7.073   3.850   5.391  0.2238 -0.3029  0.1096
  197MOL0     C26476   6.983   3.969   5.408 -0.6797 -0.6310  0.5067
  197MOL0     N26477   6.865   3.957   5.320 -0.9939  0.0329  0.5198
  197MOL0     C26478   6.743   3.920   5.363 -0.6865 -0.3100  0.2826
  197MOL0     C26479   6.672   3.930   5.245 -0.3037 -0.5034 -0.6447
  197MOL0     C26480   6.519   3.922   5.242 -0.7167 -0.1481  0.0887
  197MOL0     C26481   6.462   4.058   5.278 -0.0103 -0.0016 -0.1036
  197MOL0     C26482   6.318   4.050   5.314  0.1214 -0.9950 -1.2207
  197MOL0     C26483   6.233   3.978   5.209 -0.8062 -0.4012  0.4975
  197MOL0     O26484   6.141   4.080   5.166  0.9270  0.1464  0.5042
  197MOL0     C26485   6.017   4.042   5.115 -0.1839 -0.6611  0.0895
  197MOL0     C26486   5.944   4.150   5.082  0.0378 -0.4458 -0.8774
  197MOL0     C26487   5.819   4.140   5.030 -0.5618 -1.4120 -1.1310
  197MOL0     C26488   5.739   4.270   5.016 -0.6865 -0.5881 -1.0176
  197MOL0     C26489   5.768   4.013   5.008 -0.4248 -0.6408  0.4437
  197MOL0     C26490   5.625   3.985   4.952 -0.5048  0.1054 -0.3139
  197MOL0     O26491   5.601   3.854   4.924 -0.2707 -0.7102  1.3359
  197MOL0     C26492   5.486   3.828   4.848 -1.3085 -0.2334 -0.4517
  197MOL0     C26493   5.499   3.790   4.715 -0.9085  0.3423 -0.9517
  197MOL0     C26494   5.388   3.740   4.645  0.6541  0.1581  0.6341
  197MOL0     C26495   5.256   3.745   4.698  0.3555  0.0209  0.0810
  197MOL0     O26496   5.149   3.705   4.639 -0.1050 -0.3609  0.8803
  197MOL0     C26497   5.103   3.782   4.524 -0.5556  0.3784  1.1738
  197MOL0     C26498   4.988   3.720   4.447 -0.0873 -0.6385 -0.0573
  197MOL0     C26499   4.977   3.791   4.316  0.0755  0.2905  1.1201
  197MOL0     C26500   4.901   3.713   4.208 -0.6196 -0.1519 -0.1651
  197MOL0     C26501   4.889   3.787   4.082  0.1702 -0.0934  0.2216
  197MOL0     C26502   4.821   3.709   3.966  0.5273  0.0560 -0.2427
  197MOL0     C26503   4.793   3.797   3.841  0.2798 -1.3410 -1.0763
  197MOL0     C26504   4.726   3.714   3.734 -0.2325  0.1493 -0.0312
  197MOL0    Cl26505   4.814   3.569   3.687 -0.2502 -0.2125  0.2832
  197MOL0     C26506   5.245   3.786   4.837 -0.6489  0.1592  0.0913
  197MOL0     C26507   5.360   3.835   4.910 -0.0630 -0.4970  0.7424
  197MOL0     O26508   5.547   4.075   4.942  0.0278  0.1251 -0.0104
  197MOL0     C26509   5.845   3.898   5.038 -0.1755 -0.3708  0.1439
  197MOL0     C26510   5.970   3.912   5.094 -0.1315 -0.0862 -0.3370
  197MOL0     N26511   6.749   3.973   5.140  0.0738  0.6278  0.5752
  197MOL0     N26512   6.864   3.997   5.189 -0.0480 -0.5761  0.5417
  197MOL0     C26513   7.953   4.247   5.898  0.1144  0.8570  0.2191
  197MOL0     C26514   7.951   4.320   6.011 -0.3220  0.4586 -0.0421
  197MOL0     C26515   7.821   4.399   6.454  0.3249  0.0731 -0.3317
  197MOL0     C26516   7.747   4.368   6.567 -0.2382 -0.5221  0.4801
  197MOL0     C26517   7.758   4.446   6.682  0.2295 -0.0327 -0.2197
  197MOL0     C26518   7.854   4.555   6.683 -0.4296 -0.1871  0.4892
  197MOL0     O26519   7.868   4.661   6.772  0.0841  0.3063  0.7382
  197MOL0     C26520   7.813   4.645   6.908  0.8255  0.0713  0.8316
  197MOL0     C26521   7.655   4.670   6.918 -0.4528  0.2630  0.5858
  197MOL0     C26522   7.614   4.801   6.859  0.5095  0.4313 -0.5964
  197MOL0     C26523   7.679   4.923   6.928 -0.2630  0.2472 -0.2922
  197MOL0     C26524   7.653   4.923   7.078  0.0713 -0.8165 -0.8664
  197MOL0     C26525   7.653   4.943   7.199  0.8259  0.1950 -0.7707
  197MOL0     C26526   7.936   4.577   6.574 -0.4886  0.0544  0.8233
  197MOL0     C26527   7.910   4.508   6.461 -0.0109 -0.5558  0.0604
  197MOL0     H26528   7.641   4.241   6.123  0.6896  2.5026  0.4908
  197MOL0     H26529   7.650   4.113   5.893  2.2878 -2.9188  1.5251
  197MOL0     H26530   7.675   4.200   5.691 -1.4649 -0.8091  0.3140
  197MOL0     H26531   7.769   4.130   5.549  1.3048  0.2900 -0.0798
  197MOL0     H26532   7.679   3.915   5.578 -5.6423 -3.1674  0.0237
  197MOL0     H26533   7.623   3.941   5.731  0.8319 -1.9066 -1.1803
  197MOL0     H26534   7.479   4.108   5.646  0.6572  0.0478  0.9427
  197MOL0     H26535   7.528   4.052   5.475 -2.5723 -3.5120 -1.1067
  197MOL0     H26536   7.438   3.822   5.559  0.7688 -0.0343  0.9377
  197MOL0     H26537   7.363   3.938   5.686 -2.9987  3.8283 -1.9028
  197MOL0     H26538   7.244   4.058   5.508 -2.7677 -1.5835  0.2755
  197MOL0     H26539   7.339   3.960   5.393 -0.8682 -1.8057  0.0206
  197MOL0     H26540   7.244   3.749   5.480  1.0084  2.0022 -0.5927
  197MOL0     H26541   7.152   3.835   5.604  0.7111 -3.7130  0.6375
  197MOL0     H26542   7.108   3.856   5.288 -3.4698 -0.8206 -1.3180
  197MOL0     H26543   7.016   3.757   5.388  3.5025 -2.4904 -0.2264
  197MOL0     H26544   7.041   4.058   5.384  1.1369 -2.5162 -2.9832
  197MOL0     H26545   6.948   3.994   5.508 -1.4985  0.5711 -0.0567
  197MOL0     H26546   6.703   3.919   5.464  1.4550  3.1199  1.3448
  197MOL0     H26547   6.483   3.893   5.143  0.4050  1.4696 -0.8374
  197MOL0     H26548   6.488   3.848   5.316 -1.7249  0.8579  0.6964
  197MOL0     H26549   6.458   4.116   5.185 -1.6495 -1.4801 -1.0141
  197MOL0     H26550   6.518   4.095   5.364 -1.5398 -1.0179  1.4083
  197MOL0     H26551   6.281   4.153   5.321  0.1626 -1.0347 -0.2363
  197MOL0     H26552   6.310   4.007   5.414 -2.6795  1.3722 -0.2714
  197MOL0     H26553   6.174   3.897   5.253 -0.7135 -0.5275  0.3882
  197MOL0     H26554   6.288   3.950   5.118 -0.5335  2.3589 -0.2837
  197MOL0     H26555   5.984   4.248   5.108 -1.1558 -0.8210  3.0942
  197MOL0     H26556   5.813   4.350   5.023  1.9481 -2.7566 -2.3007
  197MOL0     H26557   5.707   4.283   4.912 -2.4562  2.0692 -0.2323
  197MOL0     H26558   5.657   4.274   5.088 -1.1484 -0.1810 -1.5480
  197MOL0     H26559   5.602   3.796   4.679 -0.7161 -1.9406 -0.9179
  197MOL0     H26560   5.408   3.700   4.546  1.0485 -0.9774  1.1602
  197MOL0     H26561   5.078   3.887   4.541  0.4456  1.1427 -1.5140
  197MOL0     H26562   5.182   3.795   4.450 -3.7192  2.2423 -2.1723
  197MOL0     H26563   4.995   3.611   4.433  3.6123 -0.7000  1.2727
  197MOL0     H26564   4.895   3.750   4.497  0.1076 -0.5923  0.2789
  197MOL0     H26565   5.075   3.826   4.282  0.2506  1.1371  2.4138
  197MOL0     H26566   4.923   3.883   4.342  0.6294  0.7285  0.7376
  197MOL0     H26567   4.952   3.617   4.199 -0.5973 -0.4072  2.0165
  197MOL0     H26568   4.799   3.688   4.237 -1.3781  1.5598 -1.2099
  197MOL0     H26569   4.987   3.825   4.052 -0.3808  1.4679  0.3171
  197MOL0     H26570   4.826   3.876   4.095 -1.4006 -1.0782 -0.3627
  197MOL0     H26571   4.889   3.630   3.930 -0.4851  0.7136 -3.9087
  197MOL0     H26572   4.731   3.666   4.010  2.6788 -1.0267  3.6279
  197MOL0     H26573   4.887   3.846   3.811 -0.0691 -0.6673 -1.0945
  197MOL0     H26574   4.733   3.883   3.872  1.0475 -0.9886 -0.5283
  197MOL0     H26575   4.716   3.769   3.641 -1.6267  2.4692  1.3796
  197MOL0     H26576   4.624   3.681   3.755 -0.7841  0.1620 -2.4294
  197MOL0     H26577   5.150   3.788   4.889 -0.5822  0.8645  0.1896
  197MOL0     H26578   5.344   3.873   5.010  0.3877  2.3796 -0.1935
  197MOL0     H26579   5.805   3.798   5.020  1.2771 -0.8697 -0.5150
  197MOL0     H26580   6.025   3.819   5.109 -1.6026 -1.4516 -2.6643
  197MOL0     H26581   8.044   4.254   5.840  3.5340 -4.2090  4.1107
  197MOL0     H26582   8.022   4.395   6.047  2.0642 -1.5966 -0.2413
  197MOL0     H26583   7.671   4.290   6.559  1.2628 -1.8371 -2.7420
  197MOL0     H26584   7.688   4.420   6.761 -1.4902  3.0399 -0.5742
  197MOL0     H26585   7.825   4.544   6.947  0.6931  0.5744  2.2215
  197MOL0     H26586   7.869   4.708   6.978 -0.1140  0.4671  1.2487
  197MOL0     H26587   7.625   4.667   7.023 -0.2067 -0.2228  0.6454
  197MOL0     H26588   7.614   4.585   6.862  0.0934  1.1252 -1.1883
  197MOL0     H26589   7.505   4.810   6.862  0.5996  2.1440  2.7330
  197MOL0     H26590   7.648   4.788   6.756  0.5017 -3.0040 -0.2765
  197MOL0     H26591   7.648   5.017   6.879 -2.4319  1.0670  2.3761
  197MOL0     H26592   7.788   4.925   6.918 -0.2693 -0.1072 -0.4450
  197MOL0     H26593   7.636   4.961   7.303  0.0681 -0.3786 -0.7868
  197MOL0     H26594   8.012   4.654   6.577  0.6705 -0.7611 -2.6989
  197MOL0     H26595   7.962   4.544   6.373  0.3125  0.4428  0.6474
  198MOL0     O26596   0.784   0.675   7.962  0.0332 -0.0640  0.0335
  198MOL0     C26597   0.809   0.692   8.075 -0.4358  0.2609 -0.0846
  198MOL0     O26598   0.718   0.737   8.164  0.1635  0.1905  0.0321
  198MOL0     C26599   0.589   0.767   8.132 -0.4672  0.9347 -0.8130
  198MOL0     C26600   0.498   0.698   8.052 -0.3068  0.0958 -0.4375
  198MOL0     C26601   0.371   0.751   8.056 -0.2812  0.5275 -0.1965
  198MOL0     C26602   0.323   0.842   8.144  0.1936  0.1873 -0.2057
  198MOL0     O26603   0.193   0.891   8.137 -0.2694 -0.2179  0.3736
  198MOL0     C26604   0.170   1.026   8.177  0.2883  0.0815  0.0140
  198MOL0     C26605   0.009   1.048   8.152  0.4257 -0.8053  0.7453
  198MOL0     C26606  -0.044   1.179   8.137  0.3330 -0.0789  0.1966
  198MOL0     C26607  -0.023   1.271   8.259  0.3479 -1.6174 -0.4723
  198MOL0     C26608  -0.031   1.427   8.227  0.2852  0.1674  0.3250
  198MOL0     C26609   0.072   1.479   8.120 -0.1383  0.3304  0.0957
  198MOL0     C26610   0.224   1.430   8.149 -0.1155  0.4364  1.0146
  198MOL0     C26611   0.266   1.467   8.298 -0.4301 -0.5510 -0.0518
  198MOL0     N26612   0.390   1.399   8.335 -0.2355  0.3585 -0.3879
  198MOL0     C26613   0.512   1.448   8.291 -0.2049  0.6451  0.2059
  198MOL0     C26614   0.596   1.347   8.327  0.9053 -0.0665 -0.1452
  198MOL0     C26615   0.739   1.356   8.295  0.3779 -0.0680  0.9598
  198MOL0     C26616   0.811   1.225   8.322  0.2640  0.2778  0.2824
  198MOL0     C26617   0.944   1.215   8.250 -1.2763 -0.2281  0.7543
  198MOL0     C26618   1.032   1.098   8.298  0.3606 -0.8033 -0.0015
  198MOL0     O26619   1.078   1.135   8.429  0.7685  0.0503  0.2025
  198MOL0     C26620   1.206   1.117   8.458  0.3063  0.2378 -0.5463
  198MOL0     C26621   1.239   1.057   8.577 -0.3407  1.3283  0.7367
  198MOL0     C26622   1.370   1.064   8.626  0.8667 -0.1366 -0.2425
  198MOL0     C26623   1.391   0.994   8.754  0.0409  0.0155  0.5541
  198MOL0     C26624   1.476   1.141   8.559 -0.0982  0.2023  0.0288
  198MOL0     C26625   1.616   1.165   8.601  0.1844  0.5262  0.2526
  198MOL0     O26626   1.687   1.257   8.523 -0.2505  0.6393  0.8160
  198MOL0     C26627   1.798   1.307   8.576  0.6139 -0.4124  0.4025
  198MOL0     C26628   1.919   1.232   8.566  1.3136 -0.3925  0.6515
  198MOL0     C26629   2.041   1.280   8.618 -0.0498  0.8794  0.3241
  198MOL0     C26630   2.043   1.398   8.690 -0.5610 -0.0010 -0.9130
  198MOL0     O26631   2.159   1.435   8.751 -0.5997  0.8957  0.6080
  198MOL0     C26632   2.247   1.503   8.649  0.4896  0.0506 -0.3353
  198MOL0     C26633   2.380   1.555   8.704 -0.1756  0.6128 -0.7979
  198MOL0     C26634   2.384   1.683   8.794 -0.0251  0.3674  0.1882
  198MOL0     C26635   2.497   1.687   8.896 -0.7661  0.6568  0.4702
  198MOL0     C26636   2.514   1.826   8.961 -0.2101 -0.7900  1.5939
  198MOL0     C26637   2.402   1.851   9.054  0.5080  0.0188 -0.0665
  198MOL0     C26638   2.413   1.998   9.094  0.2368 -0.0976  0.2734
  198MOL0     C26639   2.293   2.048   9.171 -0.0807  0.0646  0.1821
  198MOL0    Cl26640   2.302   1.950   9.323  0.0119  0.2389  0.2538
  198MOL0     C26641   1.919   1.470   8.703  0.2301  1.0456  0.1917
  198MOL0     C26642   1.803   1.426   8.643  0.3202  1.1426  0.0606
  198MOL0     O26643   1.658   1.083   8.685 -0.5142 -0.3682  0.8161
  198MOL0     C26644   1.441   1.184   8.430 -0.0687  0.4079  0.6590
  198MOL0     C26645   1.308   1.176   8.383  0.6213  0.5277  0.2349
  198MOL0     N26646   0.525   1.251   8.399  0.0504 -0.6920 -0.0901
  198MOL0     N26647   0.396   1.280   8.401 -0.2323 -0.7885 -0.5587
  198MOL0     C26648   0.412   0.891   8.237  0.3953 -0.1830 -0.3242
  198MOL0     C26649   0.543   0.864   8.225  0.5103  0.4323 -0.0683
  198MOL0     C26650   0.940   0.658   8.135  0.0336 -0.9263 -0.4761
  198MOL0     C26651   1.055   0.680   8.063 -1.0946 -0.3278 -0.4235
  198MOL0     C26652   1.181   0.672   8.128  1.2697 -0.4572  0.5837
  198MOL0     C26653   1.184   0.636   8.259 -0.6969  0.1694 -0.5530
  198MOL0     O26654   1.304   0.639   8.331  0.8253  0.0646 -0.0998
  198MOL0     C26655   1.341   0.774   8.344  0.5932 -0.3680  0.0749
  198MOL0     C26656   1.462   0.800   8.255  0.5647 -0.3082 -0.3837
  198MOL0     C26657   1.591   0.727   8.306 -0.1589  0.1147 -0.1825
  198MOL0     C26658   1.641   0.803   8.430 -0.1690  1.3290  0.1379
  198MOL0     C26659   1.741   0.719   8.497  0.5771  1.1646  0.3641
  198MOL0     C26660   1.828   0.663   8.558  0.4679  0.1854  0.9865
  198MOL0     C26661   1.066   0.607   8.333 -0.3520 -0.5683  0.0410
  198MOL0     C26662   0.942   0.616   8.273  0.0120 -0.8070  0.9726
  198MOL0     H26663   0.528   0.616   7.987 -3.8283 -0.0396 -2.1203
  198MOL0     H26664   0.297   0.716   7.985 -0.8826  0.4676  0.4447
  198MOL0     H26665   0.181   1.040   8.285 -0.3627  0.3041  0.0562
  198MOL0     H26666   0.237   1.080   8.108  2.9500 -1.7160  1.0087
  198MOL0     H26667  -0.009   1.009   8.052 -1.2134  0.5727  0.4530
  198MOL0     H26668  -0.060   1.000   8.222 -0.5973 -1.2526 -0.5211
  198MOL0     H26669   0.002   1.226   8.050  0.5764 -0.3594  0.1731
  198MOL0     H26670  -0.148   1.166   8.107  0.0209 -0.0943  1.2413
  198MOL0     H26671  -0.095   1.244   8.336 -0.3720 -0.2634 -0.6453
  198MOL0     H26672   0.072   1.247   8.309  0.4108 -1.4003 -0.4888
  198MOL0     H26673  -0.130   1.453   8.190  0.3921  0.2696  0.1091
  198MOL0     H26674  -0.014   1.488   8.316  2.0877 -0.2673  0.3137
  198MOL0     H26675   0.045   1.431   8.025 -1.3439 -0.5079  0.8407
  198MOL0     H26676   0.069   1.588   8.115  1.9927  0.4995  1.2725
  198MOL0     H26677   0.220   1.321   8.142 -2.2560  0.5271 -0.0862
  198MOL0     H26678   0.290   1.472   8.073 -0.3455  1.8229  1.5618
  198MOL0     H26679   0.191   1.432   8.371 -1.0047  1.0594  0.1535
  198MOL0     H26680   0.290   1.572   8.312 -2.2070 -0.2513  0.9746
  198MOL0     H26681   0.547   1.539   8.242  0.0089  0.7508  0.5462
  198MOL0     H26682   0.741   1.392   8.192  1.5531 -1.1747  0.5762
  198MOL0     H26683   0.784   1.437   8.352  0.0138 -1.2382  3.0252
  198MOL0     H26684   0.750   1.143   8.283  1.3568 -0.1765 -0.5240
  198MOL0     H26685   0.808   1.219   8.431  1.4342  1.6736  0.4227
  198MOL0     H26686   0.994   1.308   8.278 -1.2366 -0.4665  1.5021
  198MOL0     H26687   0.929   1.219   8.142  0.1735  1.5911  0.5696
  198MOL0     H26688   1.112   1.094   8.224  1.1843  0.1935  0.7970
  198MOL0     H26689   0.971   1.008   8.309  2.0308 -2.3640 -2.6359
  198MOL0     H26690   1.158   1.015   8.635 -1.7123  0.1269 -1.8938
  198MOL0     H26691   1.305   0.939   8.794 -1.2397  0.4502 -1.4506
  198MOL0     H26692   1.481   0.934   8.737 -0.8731 -1.6001  1.2029
  198MOL0     H26693   1.412   1.074   8.825 -1.5636  0.9877  0.0021
  198MOL0     H26694   1.913   1.150   8.495  3.2177  0.1938 -0.2660
  198MOL0     H26695   2.126   1.218   8.591  0.5237  2.1769 -1.0060
  198MOL0     H26696   2.267   1.443   8.560 -2.9008 -0.5540 -0.8149
  198MOL0     H26697   2.188   1.590   8.619 -4.3599 -2.7825 -0.1023
  198MOL0     H26698   2.425   1.469   8.755 -1.8001 -0.6351 -1.3594
  198MOL0     H26699   2.446   1.583   8.622  2.6852  1.9790  1.7812
  198MOL0     H26700   2.294   1.685   8.856 -0.7393  2.5912 -0.8416
  198MOL0     H26701   2.392   1.772   8.732 -0.4004  0.7887  0.7297
  198MOL0     H26702   2.481   1.613   8.974  2.2961  1.9557  2.5427
  198MOL0     H26703   2.596   1.660   8.857 -1.4155 -0.2358 -0.6536
  198MOL0     H26704   2.517   1.901   8.881  2.7836  1.0602  3.2639
  198MOL0     H26705   2.605   1.839   9.019  0.2865  1.2094  0.4417
  198MOL0     H26706   2.301   1.825   9.021  0.8419 -1.8243  0.2745
  198MOL0     H26707   2.413   1.787   9.141  0.8949  0.6627  0.3632
  198MOL0     H26708   2.443   2.058   9.007 -0.1776  1.6104  1.2576
  198MOL0     H26709   2.497   2.000   9.164  1.4085  1.5827 -1.0737
  198MOL0     H26710   2.194   2.038   9.127 -0.1475  0.5027  0.2220
  198MOL0     H26711   2.304   2.156   9.190 -2.0823  0.3456  0.0140
  198MOL0     H26712   1.904   1.563   8.756  1.4745  0.0872  2.3533
  198MOL0     H26713   1.710   1.477   8.669  0.7986  2.3650 -0.5222
  198MOL0     H26714   1.503   1.250   8.370  2.4457 -1.0791  1.4704
  198MOL0     H26715   1.287   1.230   8.291 -2.4335  1.6602  1.4803
  198MOL0     H26716   0.374   0.956   8.316  3.6628 -0.2224  1.4303
  198MOL0     H26717   0.605   0.918   8.295  0.2920 -0.9078  1.2152
  198MOL0     H26718   1.048   0.713   7.960  0.4011 -0.5000 -0.5947
  198MOL0     H26719   1.264   0.706   8.068 -0.9860 -0.2976 -2.7198
  198MOL0     H26720   1.259   0.839   8.314  0.3396  0.1525  1.7728
  198MOL0     H26721   1.353   0.800   8.450 -0.5121 -0.7708  0.3052
  198MOL0     H26722   1.482   0.908   8.244  1.3846 -0.6318 -2.5712
  198MOL0     H26723   1.444   0.779   8.149  1.2574  1.1569 -0.8350
  198MOL0     H26724   1.670   0.732   8.230 -0.8987  3.4843 -0.8882
  198MOL0     H26725   1.556   0.628   8.337  0.3876  0.3144  1.1332
  198MOL0     H26726   1.567   0.824   8.508  1.1063  2.3146  1.1336
  198MOL0     H26727   1.687   0.896   8.394 -0.4837  0.7949 -1.7671
  198MOL0     H26728   1.899   0.602   8.612  0.3601  0.9065  1.9715
  198MOL0     H26729   1.072   0.581   8.438 -1.8817  0.6892  0.4734
  198MOL0     H26730   0.848   0.599   8.324 -0.5611 -1.3856 -0.2339
  199MOL0     O26731   8.461   8.192   6.857 -0.6062  0.4546 -0.0175
  199MOL0     C26732   8.540   8.204   6.762  0.1021 -1.0181 -0.6078
  199MOL0     O26733   8.607   8.109   6.688  0.4358 -0.6963  0.4253
  199MOL0     C26734   8.603   7.972   6.711 -0.3000  0.3584  0.4253
  199MOL0     C26735   8.714   7.897   6.689  0.8431 -0.0933 -0.1003
  199MOL0     C26736   8.704   7.758   6.684 -0.3002 -0.2575  0.2775
  199MOL0     C26737   8.586   7.699   6.709 -0.3883  0.0917  0.5853
  199MOL0     O26738   8.571   7.567   6.697 -0.2612 -0.0201 -0.3013
  199MOL0     C26739   8.448   7.492   6.684  0.3751  0.6676  0.1054
  199MOL0     C26740   8.458   7.355   6.620 -0.7587 -0.7613  0.6136
  199MOL0     C26741   8.330   7.282   6.636  0.0089  0.5135 -0.0524
  199MOL0     C26742   8.202   7.329   6.554 -0.2677  0.4663 -0.7271
  199MOL0     C26743   8.097   7.208   6.558 -0.5510  0.0520 -0.1047
  199MOL0     C26744   8.026   7.210   6.689  0.0539  0.8700 -0.3536
  199MOL0     C26745   7.945   7.069   6.704 -0.1829  0.2237 -0.5576
  199MOL0     C26746   7.922   7.035   6.856  0.6883 -1.0221 -0.1737
  199MOL0     N26747   7.822   6.929   6.876 -0.1722  0.1662 -0.1059
  199MOL0     C26748   7.718   6.940   6.965 -0.4181  0.4360 -0.7546
  199MOL0     C26749   7.651   6.820   6.943 -0.2364  0.8095 -0.1772
  199MOL0     C26750   7.539   6.787   7.038 -0.3233  0.6168 -0.9092
  199MOL0     C26751   7.478   6.649   7.039  0.7797  0.4762 -0.2267
  199MOL0     C26752   7.388   6.619   6.908 -0.1252  0.1514  0.8628
  199MOL0     C26753   7.330   6.475   6.922  0.3499 -0.1299 -0.8008
  199MOL0     O26754   7.200   6.477   6.984 -0.8667  0.3080  0.7207
  199MOL0     C26755   7.135   6.343   6.995 -0.7679 -0.6993 -1.0368
  199MOL0     C26756   7.002   6.351   6.963  0.6322  0.9190 -0.4091
  199MOL0     C26757   6.929   6.226   6.961 -0.5318 -0.2391 -0.2222
  199MOL0     C26758   6.784   6.240   6.929  0.6856 -0.3690 -0.0735
  199MOL0     C26759   7.002   6.106   6.980  0.5515  0.2185  1.0613
  199MOL0     C26760   6.934   5.974   6.986  0.2252 -1.0824 -0.4010
  199MOL0     O26761   6.793   5.978   7.014  0.5708 -0.2450  0.2315
  199MOL0     C26762   6.729   5.853   7.014  0.5259  0.1068 -0.1915
  199MOL0     C26763   6.746   5.764   6.904 -0.6413  0.3965 -0.1306
  199MOL0     C26764   6.683   5.645   6.896 -0.0638 -0.2426  0.2969
  199MOL0     C26765   6.614   5.597   7.004 -0.0112 -0.1478 -0.0067
  199MOL0     O26766   6.549   5.472   7.000 -0.2608  1.3024 -0.8418
  199MOL0     C26767   6.470   5.433   7.117 -0.3769  0.2700  0.5130
  199MOL0     C26768   6.404   5.292   7.107 -0.4662 -0.8267 -0.0684
  199MOL0     C26769   6.354   5.230   7.239  1.4151 -0.3418  1.3866
  199MOL0     C26770   6.256   5.107   7.213 -0.8935  0.5099  0.1304
  199MOL0     C26771   6.164   5.087   7.330  0.0331  0.2755 -0.1740
  199MOL0     C26772   6.078   4.956   7.326 -0.3696 -0.5834 -0.5302
  199MOL0     C26773   5.997   4.947   7.456 -0.0940  1.3486 -0.0247
  199MOL0     C26774   5.894   4.825   7.460 -0.6193  0.5518 -0.7089
  199MOL0    Cl26775   5.773   4.831   7.588 -0.0815 -0.3933  0.4608
  199MOL0     C26776   6.582   5.693   7.103  0.0973 -0.1316  0.6006
  199MOL0     C26777   6.644   5.819   7.118 -0.2044  0.0125  0.1589
  199MOL0     O26778   7.001   5.870   6.989 -0.2540 -0.4305 -0.0372
  199MOL0     C26779   7.138   6.107   6.988 -0.7432 -0.7302 -1.0228
  199MOL0     C26780   7.203   6.227   7.002 -0.1293 -0.5820  0.2682
  199MOL0     N26781   7.722   6.735   6.856 -0.2066 -0.3827 -0.3528
  199MOL0     N26782   7.828   6.796   6.824 -0.3606 -0.3861 -0.1881
  199MOL0     C26783   8.478   7.775   6.755  0.2197  0.1689 -0.2229
  199MOL0     C26784   8.491   7.913   6.759 -0.3641  0.3606 -0.0726
  199MOL0     C26785   8.546   8.342   6.716  0.3151  0.0416 -0.7653
  199MOL0     C26786   8.447   8.438   6.763 -0.0150 -0.2218  0.4995
  199MOL0     C26787   8.450   8.574   6.726 -1.0191 -0.5439 -0.4400
  199MOL0     C26788   8.557   8.621   6.642  1.0148  0.2434  0.2624
  199MOL0     O26789   8.571   8.747   6.592  0.3062  0.4294 -1.2300
  199MOL0     C26790   8.457   8.834   6.573 -0.1078  0.3977 -0.1142
  199MOL0     C26791   8.429   8.913   6.704 -1.1012  1.0859 -0.1053
  199MOL0     C26792   8.539   9.016   6.748  0.2753  0.1224 -0.3318
  199MOL0     C26793   8.507   9.064   6.886 -0.2281  0.0786 -0.0547
  199MOL0     C26794   8.460   9.207   6.895 -0.0292  0.2554 -0.4214
  199MOL0     C26795   8.428   9.323   6.888  0.0642 -0.4347  0.0038
  199MOL0     C26796   8.655   8.530   6.604  0.6786 -0.1476 -0.5357
  199MOL0     C26797   8.659   8.393   6.642  0.4585  0.3365 -0.3254
  199MOL0     H26798   8.808   7.946   6.665  1.0136 -1.0880 -1.6361
  199MOL0     H26799   8.793   7.698   6.672 -0.8970 -1.3782  1.2833
  199MOL0     H26800   8.412   7.480   6.786 -1.2438 -1.5749 -0.6637
  199MOL0     H26801   8.377   7.551   6.625  0.2966 -0.2815 -0.7770
  199MOL0     H26802   8.488   7.362   6.515  1.3591  1.0995  1.2499
  199MOL0     H26803   8.537   7.304   6.677 -0.4261  0.8201  1.6510
  199MOL0     H26804   8.355   7.179   6.609  1.1062  0.0791  2.3272
  199MOL0     H26805   8.303   7.279   6.742  1.9775  2.6246  0.5976
  199MOL0     H26806   8.155   7.411   6.608  4.0136 -0.3156  5.1024
  199MOL0     H26807   8.234   7.361   6.454  1.6085  0.6346 -0.1042
  199MOL0     H26808   8.028   7.219   6.474 -0.8092  1.2614  0.2436
  199MOL0     H26809   8.155   7.117   6.541 -1.5526 -0.9417  1.5298
  199MOL0     H26810   8.107   7.209   6.763 -2.1682 -0.3983  2.2612
  199MOL0     H26811   7.958   7.295   6.699  0.3853  1.0048  0.9347
  199MOL0     H26812   7.849   7.077   6.652 -0.5462  0.8073  0.1938
  199MOL0     H26813   7.992   6.982   6.658 -1.1385 -0.2420 -0.6870
  199MOL0     H26814   7.893   7.125   6.911 -0.4363 -0.4253 -1.6944
  199MOL0     H26815   8.017   7.004   6.902  1.3099  0.0843 -0.6631
  199MOL0     H26816   7.697   7.016   7.039  0.7383 -0.3898  0.4602
  199MOL0     H26817   7.579   6.808   7.138  0.9746  2.9143 -1.8502
  199MOL0     H26818   7.461   6.860   7.015  0.0224  1.2339 -0.1895
  199MOL0     H26819   7.418   6.643   7.130  0.9828  0.6952 -0.0759
  199MOL0     H26820   7.560   6.578   7.055  2.6957  2.5041 -0.5484
  199MOL0     H26821   7.447   6.627   6.816  1.2140  1.1916  1.7644
  199MOL0     H26822   7.313   6.697   6.900  0.0924  0.1557 -2.3783
  199MOL0     H26823   7.391   6.416   6.991 -3.5520 -1.3892  1.9362
  199MOL0     H26824   7.320   6.435   6.821  1.1830 -0.8720 -0.6041
  199MOL0     H26825   6.953   6.447   6.953 -1.3244  0.0586  0.3420
  199MOL0     H26826   6.755   6.342   6.902  2.1985  0.3839  0.9900
  199MOL0     H26827   6.736   6.182   6.850  1.2129 -0.0747 -0.6213
  199MOL0     H26828   6.728   6.218   7.021 -2.7316 -3.2513 -2.5309
  199MOL0     H26829   6.809   5.791   6.819  1.1268 -3.1093 -0.1235
  199MOL0     H26830   6.686   5.576   6.812 -4.3585 -0.4588  0.0986
  199MOL0     H26831   6.537   5.417   7.202 -0.0735  0.3634  0.2936
  199MOL0     H26832   6.397   5.510   7.144  1.1829  1.2421  2.1857
  199MOL0     H26833   6.312   5.301   7.049 -0.8985 -0.2462  0.6855
  199MOL0     H26834   6.473   5.228   7.052  0.6408 -0.5314  0.9441
  199MOL0     H26835   6.294   5.313   7.277  1.1219  0.8010 -1.3120
  199MOL0     H26836   6.428   5.209   7.316 -0.3786 -1.8570  2.7805
  199MOL0     H26837   6.195   5.126   7.124  2.1782  0.4119 -2.1924
  199MOL0     H26838   6.320   5.021   7.194  2.2079  2.5232  0.6953
  199MOL0     H26839   6.098   5.174   7.334 -0.2468  0.0297  0.8035
  199MOL0     H26840   6.231   5.082   7.416 -3.4860  2.2793  2.9857
  199MOL0     H26841   6.007   4.970   7.244  0.7024  2.9575 -1.0211
  199MOL0     H26842   6.137   4.864   7.316  0.1190 -0.5249  1.4238
  199MOL0     H26843   5.932   5.035   7.449 -1.0033  0.5556 -2.4906
  199MOL0     H26844   6.073   4.940   7.535 -1.2060  0.2712  1.0036
  199MOL0     H26845   5.944   4.729   7.471 -1.4417  0.1714 -0.1964
  199MOL0     H26846   5.835   4.819   7.368 -1.4228 -2.2746 -0.1143
  199MOL0     H26847   6.500   5.671   7.170 -1.6529  2.3426 -0.5587
  199MOL0     H26848   6.620   5.892   7.194 -1.0353 -0.8142  0.7073
  199MOL0     H26849   7.197   6.017   6.981  1.7117  0.7228 -0.1750
  199MOL0     H26850   7.312   6.229   7.007 -0.1635  1.2702  3.7505
  199MOL0     H26851   8.385   7.733   6.792 -1.1600  0.8561 -2.6813
  199MOL0     H26852   8.403   7.972   6.781 -0.5220  0.7098 -1.5213
  199MOL0     H26853   8.356   8.401   6.810 -1.4470  2.5737  0.1150
  199MOL0     H26854   8.363   8.633   6.750  1.3990  3.1768 -0.0407
  199MOL0     H26855   8.482   8.900   6.489 -0.0307 -0.7498 -1.0111
  199MOL0     H26856   8.369   8.777   6.541  0.7407 -0.5720 -0.7815
  199MOL0     H26857   8.408   8.837   6.780 -1.3965 -2.1023 -3.0877
  199MOL0     H26858   8.338   8.972   6.686  0.0186  2.9150 -0.0110
  199MOL0     H26859   8.540   9.089   6.666  3.9565 -0.4671 -0.9874
  199MOL0     H26860   8.630   8.956   6.746  0.2271  0.0267  0.1902
  199MOL0     H26861   8.601   9.058   6.941  2.0284 -0.9030 -3.6454
  199MOL0     H26862   8.431   8.997   6.928 -0.7775  1.5109  1.3351
  199MOL0     H26863   8.413   9.423   6.855  3.0134  0.0485 -0.1289
  199MOL0     H26864   8.726   8.559   6.528  1.4724  2.2660  1.0261
  199MOL0     H26865   8.740   8.324   6.618  0.1828 -0.0173 -0.2494
  200MOL0     O26866   2.999  11.007   4.868 -0.4067 -0.1126  1.3883
  200MOL0     C26867   2.997  10.937   4.768  0.6499  1.0891  0.4286
  200MOL0     O26868   3.012  10.965   4.639 -0.0728 -0.9819  0.1379
  200MOL0     C26869   3.038  11.091   4.584  0.1667  0.1459  0.6855
  200MOL0     C26870   3.032  11.098   4.446  0.2513  0.4211 -0.3572
  200MOL0     C26871   3.075  11.212   4.376  0.8018  0.7509 -0.0627
  200MOL0     C26872   3.114  11.333   4.437 -0.2674  0.7507  0.4909
  200MOL0     O26873   3.159  11.433   4.358 -0.5047 -1.0482  0.6480
  200MOL0     C26874   3.241  11.527   4.420  0.3916 -0.7268 -0.3897
  200MOL0     C26875   3.318  11.603   4.306  0.9667  0.2820  0.9223
  200MOL0     C26876   3.239  11.719   4.242 -0.3274 -1.4214 -0.5914
  200MOL0     C26877   3.340  11.835   4.240  0.3138  0.3823  0.7623
  200MOL0     C26878   3.311  11.966   4.170  0.9341 -1.1694 -0.2519
  200MOL0     C26879   3.229  11.954   4.039  0.0140  0.8771  0.8926
  200MOL0     C26880   3.196  12.092   3.971 -0.0238  0.1771  0.1737
  200MOL0     C26881   3.210  12.077   3.816  1.0242 -0.0387 -0.6345
  200MOL0     N26882   3.112  11.977   3.764  0.7916 -0.6222 -0.1620
  200MOL0     C26883   2.971  11.962   3.791 -0.6213  0.2111 -0.2263
  200MOL0     C26884   2.929  11.848   3.718 -0.7386 -0.3726 -0.9445
  200MOL0     C26885   2.788  11.781   3.714 -0.9436  0.0061  0.1882
  200MOL0     C26886   2.802  11.657   3.812 -0.4272  1.2752  0.0791
  200MOL0     C26887   2.875  11.699   3.945  0.2223 -0.3577  0.1345
  200MOL0     C26888   2.879  11.587   4.039  0.4133 -0.2654  0.3232
  200MOL0     O26889   2.757  11.598   4.124  0.5347  0.3797 -0.3155
  200MOL0     C26890   2.714  11.499   4.203 -1.1337  0.0519  0.6328
  200MOL0     C26891   2.595  11.505   4.268 -0.0498 -0.4605  0.4082
  200MOL0     C26892   2.547  11.407   4.347  0.6469 -0.2036 -0.6455
  200MOL0     C26893   2.423  11.448   4.416 -0.5056 -0.3023  0.4253
  200MOL0     C26894   2.619  11.292   4.358  0.4452 -0.5347 -0.1837
  200MOL0     C26895   2.564  11.186   4.453 -0.1746  0.1106  1.1055
  200MOL0     O26896   2.618  11.069   4.446  0.1903  0.2007 -0.2224
  200MOL0     C26897   2.561  10.951   4.491  0.1166 -0.5939  0.0025
  200MOL0     C26898   2.478  10.870   4.423 -0.5958  0.0303  1.2609
  200MOL0     C26899   2.435  10.753   4.472  1.2874  0.3065  0.3194
  200MOL0     C26900   2.444  10.733   4.608  0.0340 -0.4970 -0.2129
  200MOL0     O26901   2.378  10.631   4.674 -0.0724 -0.0484  0.0126
  200MOL0     C26902   2.290  10.538   4.623  0.2962  0.7050 -0.0478
  200MOL0     C26903   2.355  10.438   4.516  0.1293 -0.5532  0.3974
  200MOL0     C26904   2.493  10.383   4.562 -0.3464  0.4706 -0.0448
  200MOL0     C26905   2.529  10.255   4.477 -0.4604 -1.1959  0.5706
  200MOL0     C26906   2.649  10.181   4.533  0.1396 -0.5679  0.2899
  200MOL0     C26907   2.660  10.052   4.449  0.5464 -0.3856 -0.1112
  200MOL0     C26908   2.763   9.964   4.502 -0.5433 -0.3808 -0.6794
  200MOL0     C26909   2.742   9.821   4.455  0.4801 -0.0639  0.1289
  200MOL0    Cl26910   2.716   9.811   4.277 -0.0915  0.0896  0.2160
  200MOL0     C26911   2.518  10.821   4.685  0.3523 -0.5074 -0.0245
  200MOL0     C26912   2.587  10.922   4.621  0.1185 -0.0041 -0.5172
  200MOL0     O26913   2.468  11.204   4.527  0.1567  0.1677 -0.2874
  200MOL0     C26914   2.745  11.278   4.294 -0.0081 -0.1575 -0.3939
  200MOL0     C26915   2.793  11.390   4.223 -0.2929  0.3611  0.4376
  200MOL0     N26916   3.048  11.808   3.662 -0.0131  0.9422  0.1891
  200MOL0     N26917   3.154  11.868   3.701  0.6012  0.2047  0.6740
  200MOL0     C26918   3.111  11.330   4.578  0.8325 -0.5314  1.1227
  200MOL0     C26919   3.078  11.211   4.646  0.8518  0.2966 -0.2003
  200MOL0     C26920   2.947  10.790   4.784 -0.0663 -0.0142 -0.4742
  200MOL0     C26921   2.896  10.718   4.670  0.3217  1.2775 -0.4898
  200MOL0     C26922   2.837  10.591   4.682 -0.5081 -0.6218 -1.3485
  200MOL0     C26923   2.833  10.528   4.804  0.3641 -0.2927 -0.0912
  200MOL0     O26924   2.775  10.402   4.810 -0.0756  0.2857 -0.5081
  200MOL0     C26925   2.814  10.325   4.930 -0.2639 -0.0980 -0.3332
  200MOL0     C26926   2.739  10.200   4.943 -0.4097 -0.2950  0.7751
  200MOL0     C26927   2.589  10.203   4.944  0.4438 -0.1061  0.0653
  200MOL0     C26928   2.540  10.073   5.008 -0.5328 -0.1246  0.1615
  200MOL0     C26929   2.395  10.073   5.033 -0.1050  0.1246 -0.3728
  200MOL0     C26930   2.277  10.060   5.072 -0.2181 -0.5512  0.6589
  200MOL0     C26931   2.892  10.589   4.916  0.2542  0.0145 -0.2131
  200MOL0     C26932   2.948  10.717   4.901 -0.1791  0.2966  0.3419
  200MOL0     H26933   3.022  11.008   4.387  1.6287  0.5103 -0.7504
  200MOL0     H26934   3.093  11.202   4.270  1.1601  0.5705  0.0141
  200MOL0     H26935   3.181  11.609   4.462  0.6787  0.8390 -2.8767
  200MOL0     H26936   3.310  11.490   4.497  0.4275  3.6047  2.0005
  200MOL0     H26937   3.415  11.637   4.345  1.0624  2.7305 -1.1756
  200MOL0     H26938   3.343  11.525   4.233  1.2183 -0.3256  1.6399
  200MOL0     H26939   3.211  11.693   4.139  1.0974 -1.7176 -0.9167
  200MOL0     H26940   3.144  11.733   4.295  0.3568  1.0960  0.1331
  200MOL0     H26941   3.360  11.850   4.347 -0.2275 -0.6153  1.0159
  200MOL0     H26942   3.437  11.806   4.199 -0.7129 -0.0026 -1.5404
  200MOL0     H26943   3.256  12.037   4.233  0.4887 -2.6915  1.1312
  200MOL0     H26944   3.397  12.026   4.136 -1.0483  1.6383 -0.6913
  200MOL0     H26945   3.294  11.905   3.966 -0.6421  3.7628 -1.8585
  200MOL0     H26946   3.142  11.889   4.051  0.9772 -1.1375 -2.0745
  200MOL0     H26947   3.099  12.137   3.993  0.7781  1.7813  0.5369
  200MOL0     H26948   3.270  12.166   4.001 -0.6665  0.8988 -0.0077
  200MOL0     H26949   3.313  12.038   3.814  1.4149  0.9704 -0.9971
  200MOL0     H26950   3.211  12.180   3.779  2.7843  0.0818 -0.3563
  200MOL0     H26951   2.906  12.028   3.847 -1.5079 -1.1514  0.4038
  200MOL0     H26952   2.713  11.851   3.753 -3.0157 -2.3823  0.7322
  200MOL0     H26953   2.765  11.742   3.615 -0.0014 -0.8647  0.2948
  200MOL0     H26954   2.873  11.588   3.765  1.4900  1.7177  2.1752
  200MOL0     H26955   2.706  11.607   3.831  1.2728 -2.0841  0.6870
  200MOL0     H26956   2.831  11.789   3.988 -0.8816  0.8180 -3.1337
  200MOL0     H26957   2.977  11.725   3.914  0.9200 -0.5654  2.1211
  200MOL0     H26958   2.966  11.594   4.105  1.2661 -1.4782 -0.6181
  200MOL0     H26959   2.882  11.500   3.973 -0.9180 -0.1422  0.0686
  200MOL0     H26960   2.536  11.597   4.262 -2.1685 -1.7557  0.2023
  200MOL0     H26961   2.399  11.553   4.397 -2.8002 -1.1725 -2.1019
  200MOL0     H26962   2.334  11.389   4.391 -1.0606  0.3862  0.7180
  200MOL0     H26963   2.440  11.432   4.523 -1.1126  0.0080  0.5713
  200MOL0     H26964   2.469  10.890   4.316  0.5946 -3.3664  0.3897
  200MOL0     H26965   2.379  10.697   4.398  0.7780 -0.1988  1.0677
  200MOL0     H26966   2.246  10.477   4.702 -0.2174  0.4313 -0.5368
  200MOL0     H26967   2.207  10.591   4.575 -0.2651  0.4581  0.6208
  200MOL0     H26968   2.287  10.356   4.492 -3.6602  1.3366  3.4278
  200MOL0     H26969   2.359  10.491   4.420 -1.9188  0.1637  0.6619
  200MOL0     H26970   2.476  10.355   4.666 -2.1469  2.5337  0.2903
  200MOL0     H26971   2.566  10.462   4.544  2.3268 -1.7792  0.3263
  200MOL0     H26972   2.446  10.185   4.467  0.7412 -3.0824  2.8437
  200MOL0     H26973   2.565  10.292   4.381  0.7735 -0.2560  1.3606
  200MOL0     H26974   2.641  10.150   4.638  2.2156  0.6145  0.8475
  200MOL0     H26975   2.738  10.243   4.521  0.0397 -0.4044  0.4015
  200MOL0     H26976   2.564   9.999   4.449 -0.0021  0.4530 -2.6027
  200MOL0     H26977   2.678  10.084   4.346 -0.4737  2.6650  0.5715
  200MOL0     H26978   2.757   9.947   4.610  1.5502 -2.8536 -0.8646
  200MOL0     H26979   2.860  10.008   4.477 -0.1521 -1.0691 -0.3962
  200MOL0     H26980   2.663   9.766   4.508 -0.9016  2.1801  0.5474
  200MOL0     H26981   2.825   9.757   4.484 -0.8288 -1.1056  1.8311
  200MOL0     H26982   2.532  10.792   4.789  2.3436 -2.2163 -0.6971
  200MOL0     H26983   2.647  10.977   4.693  0.6862  0.3036 -1.2208
  200MOL0     H26984   2.817  11.197   4.305 -0.7911 -0.7270  0.7945
  200MOL0     H26985   2.886  11.379   4.168 -1.2262 -0.6360 -1.0030
  200MOL0     H26986   3.145  11.415   4.636  0.5851 -0.0911  0.6262
  200MOL0     H26987   3.093  11.204   4.753 -0.8985 -1.4297 -0.0197
  200MOL0     H26988   2.874  10.763   4.574 -2.9266  0.9692  0.0104
  200MOL0     H26989   2.782  10.546   4.600 -0.8121 -3.9408  0.4878
  200MOL0     H26990   2.920  10.297   4.927 -0.4702 -0.9424 -0.0091
  200MOL0     H26991   2.791  10.384   5.020 -0.0284 -2.8853  1.6832
  200MOL0     H26992   2.756  10.161   5.043 -0.5044  0.9290  1.2847
  200MOL0     H26993   2.793  10.126   4.884 -0.0521  0.9826 -0.5749
  200MOL0     H26994   2.537  10.209   4.848 -3.3790 -3.4397  1.6206
  200MOL0     H26995   2.544  10.287   4.998  2.4328  2.6307 -2.2370
  200MOL0     H26996   2.602  10.049   5.095 -2.4289  0.8585  1.8490
  200MOL0     H26997   2.569  10.000   4.931  1.6559  1.1099 -0.2660
  200MOL0     H26998   2.172  10.058   5.091 -0.8265  5.7188 -0.0115
  200MOL0     H26999   2.893  10.544   5.015 -2.2495  1.0873  0.3549
  200MOL0     H27000   2.987  10.781   4.979 -1.0166 -0.1761  1.1792
  201MOL0     O27001   1.829   0.757  10.657  0.3062 -0.6223  0.1082
  201MOL0     C27002   1.805   0.840  10.570  0.2239  1.2303 -0.1256
  201MOL0     O27003   1.828   0.974  10.564 -0.0405 -0.5009 -0.2012
  201MOL0     C27004   1.873   1.044  10.674 -0.1295 -0.2817  0.0825
  201MOL0     C27005   1.808   1.164  10.723  1.2601  0.4028 -0.1844
  201MOL0     C27006   1.849   1.234  10.835  0.4935 -0.3914  0.2488
  201MOL0     C27007   1.965   1.204  10.902 -0.5945  0.7319 -0.7911
  201MOL0     O27008   2.007   1.284  11.009 -0.6684 -0.0039 -0.5764
  201MOL0     C27009   2.042   1.202  11.125 -0.4413 -0.2483  0.2158
  201MOL0     C27010   2.046   1.306  11.239 -0.3601 -0.7780  1.2070
  201MOL0     C27011   2.166   1.390  11.226 -0.3120 -0.0847  0.2446
  201MOL0     C27012   2.179   1.464  11.355 -0.9038  0.5856 -0.3281
  201MOL0     C27013   2.273   1.579  11.340 -0.3031 -0.7033 -0.2093
  201MOL0     C27014   2.279   1.668  11.462  0.4158 -0.3714 -0.3576
  201MOL0     C27015   2.153   1.774  11.463 -0.0837  0.3125  1.4096
  201MOL0     C27016   2.129   1.842  11.597  0.2443  0.4197 -0.3351
  201MOL0     N27017   2.009   1.928  11.611 -0.2005  0.0059  0.3132
  201MOL0     C27018   2.014   2.064  11.581  0.1157  0.3148 -1.1723
  201MOL0     C27019   1.879   2.100  11.592 -0.0860 -0.3002 -0.0945
  201MOL0     C27020   1.812   2.233  11.570  0.0474 -0.3055  0.3989
  201MOL0     C27021   1.760   2.256  11.428  0.1226 -0.5835 -0.0014
  201MOL0     C27022   1.625   2.178  11.405  0.5982 -0.9833 -0.6112
  201MOL0     C27023   1.508   2.261  11.375  0.7459 -0.8237 -0.8364
  201MOL0     O27024   1.522   2.348  11.254  0.1534  0.6683 -0.6956
  201MOL0     C27025   1.413   2.421  11.219 -1.3228  0.6366  0.0042
  201MOL0     C27026   1.426   2.502  11.101  0.6363  0.1290 -1.1301
  201MOL0     C27027   1.313   2.568  11.046  0.5276 -0.8241 -0.1645
  201MOL0     C27028   1.334   2.629  10.914  0.0106  1.0787  0.2613
  201MOL0     C27029   1.191   2.586  11.116 -0.8567 -0.3553 -0.4592
  201MOL0     C27030   1.078   2.670  11.072 -0.0979  1.6104 -0.0028
  201MOL0     O27031   0.961   2.648  11.146 -0.1437  0.3352  0.0760
  201MOL0     C27032   0.843   2.702  11.135  0.3708  0.1163 -0.8757
  201MOL0     C27033   0.782   2.711  11.008  1.1963 -0.6408  0.3179
  201MOL0     C27034   0.656   2.754  10.985  0.0591 -0.2950  0.3173
  201MOL0     C27035   0.573   2.793  11.093  0.1318 -0.3457 -0.1070
  201MOL0     O27036   0.448   2.854  11.063  0.1858 -0.0544  0.2026
  201MOL0     C27037   0.403   2.964  11.152 -0.3701 -0.2344 -0.7861
  201MOL0     C27038   0.277   2.945  11.239 -0.5573 -0.5639  0.4707
  201MOL0     C27039   0.162   2.880  11.171  0.6038  1.0055  0.1249
  201MOL0     C27040   0.030   2.929  11.209  0.3305 -0.7220 -0.2736
  201MOL0     C27041   0.006   3.074  11.158 -0.1645  0.3153  0.7198
  201MOL0     C27042  -0.136   3.110  11.118  0.6882  0.9098  0.7989
  201MOL0     C27043  -0.238   3.082  11.228 -0.2540 -0.6965 -0.3589
  201MOL0     C27044  -0.390   3.114  11.175  0.0188  0.4807  0.0088
  201MOL0    Cl27045  -0.427   3.284  11.153  0.2506 -0.0122  0.1383
  201MOL0     C27046   0.621   2.767  11.229  0.4568  0.1361 -0.3641
  201MOL0     C27047   0.756   2.736  11.252 -0.1551  0.0129  0.1195
  201MOL0     O27048   1.098   2.754  10.989  0.5210 -0.2895  0.5971
  201MOL0     C27049   1.185   2.512  11.237 -0.3036 -0.9869 -1.2911
  201MOL0     C27050   1.296   2.435  11.285  0.1396  0.0099  0.0138
  201MOL0     N27051   1.803   1.983  11.621  0.7164 -0.8994  0.5832
  201MOL0     N27052   1.881   1.881  11.625  0.0181  0.1972 -0.2315
  201MOL0     C27053   2.039   1.097  10.850 -0.9127  0.9652 -1.1704
  201MOL0     C27054   1.990   1.015  10.748 -0.1990 -0.8282  0.1359
  201MOL0     C27055   1.779   0.771  10.433 -0.3246  0.0497 -0.1203
  201MOL0     C27056   1.737   0.644  10.415 -1.0302  0.5633 -0.7492
  201MOL0     C27057   1.734   0.590  10.285  0.3071 -0.3597 -0.1729
  201MOL0     C27058   1.752   0.663  10.169 -0.6343 -0.0067 -0.2139
  201MOL0     O27059   1.721   0.623  10.044 -0.3067 -0.1031  0.3444
  201MOL0     C27060   1.679   0.487  10.034  0.3019  0.2412  0.2673
  201MOL0     C27061   1.669   0.453   9.887  0.6026  0.2933 -0.4193
  201MOL0     C27062   1.559   0.528   9.822  0.2855  0.8055  0.4902
  201MOL0     C27063   1.541   0.496   9.673 -0.1583  0.1792 -1.1744
  201MOL0     C27064   1.648   0.554   9.596  0.7234 -0.3672  0.4951
  201MOL0     C27065   1.734   0.590   9.513  0.0959  0.4218 -0.8701
  201MOL0     C27066   1.783   0.798  10.189 -0.3155 -0.9287 -0.4589
  201MOL0     C27067   1.803   0.846  10.319 -0.1891 -0.0064 -0.0872
  201MOL0     H27068   1.718   1.197  10.672 -0.0744 -2.8610 -0.1750
  201MOL0     H27069   1.798   1.324  10.867 -1.1101 -1.4389  0.7594
  201MOL0     H27070   1.953   1.140  11.141 -0.1857 -0.8435 -0.5982
  201MOL0     H27071   2.126   1.133  11.129 -0.7376 -0.9651 -3.0623
  201MOL0     H27072   1.958   1.371  11.234  0.3281  0.0718 -1.7164
  201MOL0     H27073   2.044   1.247  11.331  0.3467 -2.2505  0.3011
  201MOL0     H27074   2.254   1.346  11.178 -0.8900 -0.1753 -0.7580
  201MOL0     H27075   2.148   1.466  11.149  1.1602  0.0739  0.0344
  201MOL0     H27076   2.078   1.489  11.390 -0.6464  3.0629 -1.2029
  201MOL0     H27077   2.226   1.397  11.429  1.2548  1.0235 -1.2408
  201MOL0     H27078   2.370   1.541  11.307  0.0843 -2.0405  2.2615
  201MOL0     H27079   2.257   1.651  11.258  2.9002  2.9091  1.9642
  201MOL0     H27080   2.257   1.605  11.549 -2.5946 -1.1390 -1.5282
  201MOL0     H27081   2.378   1.711  11.472  0.6468 -0.0840 -3.0864
  201MOL0     H27082   2.180   1.853  11.392  1.9579 -2.4139 -1.0968
  201MOL0     H27083   2.064   1.718  11.432  0.6245  0.0195 -0.2343
  201MOL0     H27084   2.213   1.906  11.625  1.4077 -0.5608 -1.4383
  201MOL0     H27085   2.124   1.766  11.676  2.4838 -1.5148 -1.9249
  201MOL0     H27086   2.100   2.125  11.553  1.7547 -0.7679  1.1722
  201MOL0     H27087   1.723   2.232  11.634  1.2004 -0.4481  2.0662
  201MOL0     H27088   1.884   2.308  11.605  0.7572 -0.2534 -1.1076
  201MOL0     H27089   1.840   2.208  11.370  1.7071  0.8334  0.9274
  201MOL0     H27090   1.753   2.364  11.410 -2.2295 -0.4101  1.6014
  201MOL0     H27091   1.606   2.121  11.496  3.2270 -0.5046  0.3183
  201MOL0     H27092   1.622   2.097  11.332  0.5353 -0.7373 -0.8843
  201MOL0     H27093   1.490   2.327  11.460 -0.6298 -1.8880 -0.2767
  201MOL0     H27094   1.420   2.197  11.372 -2.0766  2.4383  2.6326
  201MOL0     H27095   1.519   2.486  11.046 -0.0049 -1.0172 -1.9227
  201MOL0     H27096   1.421   2.587  10.863  1.7742  0.5374  3.4387
  201MOL0     H27097   1.246   2.605  10.854  0.0804 -3.5863  1.6655
  201MOL0     H27098   1.358   2.736  10.914  1.0884  0.9659 -3.2113
  201MOL0     H27099   0.830   2.685  10.914 -0.8893 -1.8291 -0.4645
  201MOL0     H27100   0.623   2.776  10.884 -1.1720  0.7041  0.9038
  201MOL0     H27101   0.491   2.999  11.207 -2.9093  1.3472  2.6403
  201MOL0     H27102   0.391   3.039  11.073  2.1477  1.2560  0.1249
  201MOL0     H27103   0.300   2.888  11.329 -1.2724  2.2129  2.5169
  201MOL0     H27104   0.241   3.035  11.290 -1.5089  0.3279 -1.6356
  201MOL0     H27105   0.170   2.775  11.202  2.9924  1.7977  2.6201
  201MOL0     H27106   0.167   2.888  11.062 -1.5964  3.2563  0.1025
  201MOL0     H27107  -0.045   2.853  11.183  1.5525 -1.4333 -1.9012
  201MOL0     H27108   0.022   2.934  11.318 -1.9081 -1.3844 -0.3613
  201MOL0     H27109   0.070   3.104  11.076  0.7092  0.5846  1.4831
  201MOL0     H27110   0.029   3.139  11.243 -0.1444  0.5508  0.5335
  201MOL0     H27111  -0.138   3.215  11.087 -2.4539  0.4434 -0.9119
  201MOL0     H27112  -0.165   3.059  11.026  0.5968  2.2826  0.0304
  201MOL0     H27113  -0.216   3.141  11.317 -1.6915 -0.8268  0.0978
  201MOL0     H27114  -0.224   2.981  11.267 -1.6763 -0.0539  2.0194
  201MOL0     H27115  -0.441   3.077  11.265 -2.3578 -1.4967 -2.0106
  201MOL0     H27116  -0.410   3.055  11.085  0.0469  0.8870 -0.2627
  201MOL0     H27117   0.558   2.796  11.313  2.7845 -0.2868  1.6320
  201MOL0     H27118   0.801   2.726  11.350  1.4080 -0.1612 -0.5916
  201MOL0     H27119   1.104   2.520  11.309  1.2101 -1.3293  0.5294
  201MOL0     H27120   1.281   2.386  11.380 -0.0625  2.1081  1.1237
  201MOL0     H27121   2.132   1.077  10.904 -1.0836  3.6664  0.3530
  201MOL0     H27122   2.044   0.925  10.719  1.8391 -0.6129  2.8663
  201MOL0     H27123   1.729   0.587  10.506  1.0864  1.1963 -0.0920
  201MOL0     H27124   1.715   0.483  10.282  0.0515 -0.3859  1.6909
  201MOL0     H27125   1.751   0.415  10.075  2.5276  1.4336 -1.2759
  201MOL0     H27126   1.589   0.486  10.094  2.8402 -1.0606  4.4720
  201MOL0     H27127   1.646   0.347   9.885  2.2437 -0.1348  0.9202
  201MOL0     H27128   1.768   0.456   9.840  0.9599 -2.2665  0.0569
  201MOL0     H27129   1.577   0.634   9.838 -0.1966  0.7221  1.6760
  201MOL0     H27130   1.461   0.501   9.862 -1.0609  4.7015  0.1596
  201MOL0     H27131   1.447   0.544   9.646 -1.0019 -1.4157 -1.1583
  201MOL0     H27132   1.531   0.387   9.668 -4.0940  0.2296  1.2416
  201MOL0     H27133   1.801   0.609   9.432  1.9483 -2.1082 -0.0481
  201MOL0     H27134   1.784   0.861  10.101 -3.8339 -0.7970 -0.5553
  201MOL0     H27135   1.840   0.948  10.324 -2.5622  1.0365 -1.7754
  202MOL0     O27136   8.162   8.920   5.324 -0.3168  0.4514 -0.0445
  202MOL0     C27137   8.230   8.845   5.397  0.3197  0.9227  0.7539
  202MOL0     O27138   8.280   8.875   5.520  0.0453  0.0176 -0.1399
  202MOL0     C27139   8.240   8.991   5.575 -0.8879  0.3581 -0.3082
  202MOL0     C27140   8.127   8.981   5.665 -0.6182  0.6166 -0.0101
  202MOL0     C27141   8.084   9.104   5.721  0.4271 -0.5445  0.4103
  202MOL0     C27142   8.145   9.229   5.703 -0.2101  0.4073 -0.1547
  202MOL0     O27143   8.088   9.345   5.755  0.2664  0.1566 -0.1499
  202MOL0     C27144   8.076   9.456   5.660 -0.5416 -0.4896  0.0099
  202MOL0     C27145   7.955   9.545   5.694  0.3720 -0.2595  0.5853
  202MOL0     C27146   7.822   9.480   5.709  0.2905 -0.2844 -0.3181
  202MOL0     C27147   7.710   9.587   5.679  1.0747  0.0423 -0.0869
  202MOL0     C27148   7.566   9.527   5.695 -0.1993  0.3575 -0.6746
  202MOL0     C27149   7.476   9.646   5.734  0.2550  0.1802 -0.2544
  202MOL0     C27150   7.338   9.617   5.671 -0.0552  0.2672 -0.4695
  202MOL0     C27151   7.231   9.723   5.676 -0.1468  0.3485  0.4493
  202MOL0     N27152   7.204   9.764   5.816  0.0952  0.1748 -0.4794
  202MOL0     C27153   7.104   9.712   5.898 -0.4123  0.1205  0.4848
  202MOL0     C27154   7.126   9.773   6.014  0.4271 -0.3157 -0.2708
  202MOL0     C27155   7.044   9.747   6.129 -1.5455  0.3800  0.0523
  202MOL0     C27156   7.042   9.862   6.242  0.0679 -0.4252  0.5397
  202MOL0     C27157   6.936   9.819   6.345  0.7165  0.0089 -0.2295
  202MOL0     C27158   6.854   9.931   6.412 -0.7006 -0.1917 -0.1798
  202MOL0     O27159   6.757   9.974   6.323  0.3476  0.5048 -0.2012
  202MOL0     C27160   6.620   9.946   6.340  0.1784  0.1263 -0.1686
  202MOL0     C27161   6.526  10.042   6.298  0.2505  0.0623  0.2278
  202MOL0     C27162   6.390  10.008   6.296 -0.3733  0.8879 -1.3486
  202MOL0     C27163   6.298  10.123   6.251 -1.4289  0.0174  0.1382
  202MOL0     C27164   6.342   9.884   6.352  0.4910  0.8451  0.3245
  202MOL0     C27165   6.197   9.833   6.357 -0.1732  0.2288  0.0899
  202MOL0     O27166   6.113   9.917   6.294  0.0036  0.1799 -0.8429
  202MOL0     C27167   5.984   9.878   6.307  0.6345  0.0540 -0.7620
  202MOL0     C27168   5.935   9.780   6.227  0.7570 -0.2084  0.1614
  202MOL0     C27169   5.801   9.738   6.236  0.7061  0.0997  0.5634
  202MOL0     C27170   5.714   9.817   6.316  0.8792  0.5236  0.1587
  202MOL0     O27171   5.572   9.827   6.307  0.8127  0.3415  0.5599
  202MOL0     C27172   5.510   9.810   6.181  0.4322  0.8120  0.4718
  202MOL0     C27173   5.375   9.891   6.179 -0.3116  0.0041 -0.3070
  202MOL0     C27174   5.266   9.857   6.276  0.3442  0.1606 -0.4131
  202MOL0     C27175   5.132   9.936   6.253  0.5550 -0.1482  0.0605
  202MOL0     C27176   5.022   9.909   6.362 -0.2535  0.8232 -0.1148
  202MOL0     C27177   4.897   9.991   6.343  0.3495  0.3262 -1.0296
  202MOL0     C27178   4.798   9.983   6.472  0.1185 -0.1392 -0.0648
  202MOL0     C27179   4.758   9.834   6.513  0.3916  0.8790 -0.2966
  202MOL0    Cl27180   4.649   9.753   6.386  0.1264  0.1813  0.0803
  202MOL0     C27181   5.763   9.909   6.404  0.1026 -0.8780  0.4882
  202MOL0     C27182   5.898   9.948   6.399 -0.4755  0.3366 -0.0294
  202MOL0     O27183   6.172   9.736   6.421 -0.2617  0.5100 -0.1773
  202MOL0     C27184   6.437   9.791   6.397  0.2247  0.0948 -0.4366
  202MOL0     C27185   6.574   9.818   6.393 -0.1510 -1.1205 -0.7101
  202MOL0     N27186   7.227   9.867   6.005 -1.3118 -0.0756 -0.4079
  202MOL0     N27187   7.273   9.857   5.888 -0.6906 -0.6843 -0.7760
  202MOL0     C27188   8.252   9.235   5.615 -0.3380  0.8635  0.0177
  202MOL0     C27189   8.295   9.120   5.542  0.8658 -0.5097 -1.2035
  202MOL0     C27190   8.245   8.704   5.343 -0.3489  0.6096 -0.9031
  202MOL0     C27191   8.320   8.614   5.413 -0.0568  0.3980 -0.4304
  202MOL0     C27192   8.334   8.484   5.357 -0.0843 -0.1462 -0.1447
  202MOL0     C27193   8.277   8.439   5.234  0.4174  0.9013 -0.2316
  202MOL0     O27194   8.296   8.311   5.190  0.0312 -0.1619 -0.1419
  202MOL0     C27195   8.425   8.244   5.187 -0.1124 -0.5453  0.2965
  202MOL0     C27196   8.543   8.335   5.128  0.6434 -0.3410  0.5172
  202MOL0     C27197   8.501   8.387   4.992  0.3686  0.9093  1.0959
  202MOL0     C27198   8.616   8.472   4.927  0.0042 -0.0007 -0.6435
  202MOL0     C27199   8.620   8.602   5.004  0.7969  0.0782 -0.2104
  202MOL0     C27200   8.608   8.695   5.081  0.6908  0.4995 -0.4958
  202MOL0     C27201   8.192   8.530   5.171  0.7278  0.7996  0.2390
  202MOL0     C27202   8.176   8.659   5.227 -0.0390 -0.1390  0.3153
  202MOL0     H27203   8.082   8.885   5.689  0.7017 -0.1230 -0.4207
  202MOL0     H27204   7.995   9.096   5.782 -1.0187  1.5283 -1.2716
  202MOL0     H27205   8.158   9.526   5.678 -1.1567 -0.6109  3.9951
  202MOL0     H27206   8.076   9.428   5.554 -0.3988 -0.8648  0.1068
  202MOL0     H27207   7.980   9.597   5.787  2.1629 -1.1173  0.6142
  202MOL0     H27208   7.947   9.622   5.616 -1.2687  0.1096  1.0611
  202MOL0     H27209   7.807   9.403   5.633  0.2800 -0.3899 -0.2100
  202MOL0     H27210   7.810   9.425   5.803 -1.3950 -2.8865 -1.9235
  202MOL0     H27211   7.717   9.666   5.755 -1.0965 -0.6605  0.9313
  202MOL0     H27212   7.720   9.626   5.577 -0.3572  1.0017  0.1154
  202MOL0     H27213   7.532   9.488   5.598 -2.7874 -0.6512  0.5447
  202MOL0     H27214   7.564   9.459   5.780  0.2580  3.7414  2.3056
  202MOL0     H27215   7.471   9.650   5.843 -2.1693  0.2043 -0.3140
  202MOL0     H27216   7.523   9.740   5.703  0.0733  0.2155 -0.4235
  202MOL0     H27217   7.345   9.596   5.564 -4.0797  2.3433 -1.3037
  202MOL0     H27218   7.305   9.527   5.724  3.5315 -0.8513  0.1670
  202MOL0     H27219   7.142   9.678   5.631  1.3354 -3.6995  1.1768
  202MOL0     H27220   7.267   9.800   5.608 -0.2454 -0.7983 -0.9356
  202MOL0     H27221   7.021   9.645   5.877 -0.5341  0.8374 -1.6234
  202MOL0     H27222   6.945   9.712   6.098 -0.4974 -1.2944 -1.6794
  202MOL0     H27223   7.095   9.671   6.190 -1.1440  0.7315  0.1604
  202MOL0     H27224   7.010   9.956   6.198  1.5929  0.4795  1.2967
  202MOL0     H27225   7.138   9.869   6.293  0.6960 -0.3684 -0.6254
  202MOL0     H27226   6.986   9.762   6.425  0.1102  1.6535  1.3760
  202MOL0     H27227   6.863   9.747   6.306 -0.1857  1.4389 -1.2348
  202MOL0     H27228   6.910  10.020   6.443 -0.7443 -0.0101 -0.6148
  202MOL0     H27229   6.812   9.888   6.503 -1.1546 -1.3886 -0.9338
  202MOL0     H27230   6.555  10.145   6.280  1.5950 -0.0692  1.4954
  202MOL0     H27231   6.279  10.129   6.144 -2.3835  3.2034  0.3636
  202MOL0     H27232   6.203  10.129   6.304 -1.2867  2.3716  0.2373
  202MOL0     H27233   6.354  10.217   6.262  1.7165 -1.3070 -2.7809
  202MOL0     H27234   6.000   9.734   6.153 -0.9966 -0.9819 -0.9617
  202MOL0     H27235   5.763   9.659   6.172 -2.2267  0.6736  1.4392
  202MOL0     H27236   5.578   9.843   6.102  0.0272  1.6135  0.4479
  202MOL0     H27237   5.488   9.705   6.162  0.3525  0.8199  0.5185
  202MOL0     H27238   5.417   9.991   6.190  0.6938 -0.3622 -0.6716
  202MOL0     H27239   5.321   9.878   6.085 -1.7160  0.7595  0.3589
  202MOL0     H27240   5.293   9.894   6.376  0.1900 -1.2640  0.1759
  202MOL0     H27241   5.245   9.750   6.274  1.3821 -0.0395 -1.0776
  202MOL0     H27242   5.150  10.044   6.257  0.5425 -0.1800  1.8973
  202MOL0     H27243   5.095   9.913   6.153  1.6241  2.1570 -0.9241
  202MOL0     H27244   5.075   9.924   6.457  1.9956  2.2218 -1.5223
  202MOL0     H27245   4.987   9.807   6.345 -0.7771  1.5669 -4.7299
  202MOL0     H27246   4.910  10.099   6.330  0.0573  0.8593  2.3406
  202MOL0     H27247   4.847   9.951   6.254 -1.5380 -0.9831  0.5160
  202MOL0     H27248   4.707  10.038   6.443  1.3020  1.7747 -0.3071
  202MOL0     H27249   4.843  10.045   6.550  2.8469 -1.1611 -0.7396
  202MOL0     H27250   4.706   9.838   6.609  1.2401  0.4218  0.1966
  202MOL0     H27251   4.849   9.772   6.519  0.8298  0.9712 -3.8405
  202MOL0     H27252   5.699   9.968   6.468  0.1143  1.1074 -1.2195
  202MOL0     H27253   5.941  10.033   6.452  1.5736 -0.1559 -0.8081
  202MOL0     H27254   6.404   9.693   6.430 -0.8042  0.5909  0.0577
  202MOL0     H27255   6.654   9.753   6.426 -0.6931 -1.6712 -0.4819
  202MOL0     H27256   8.302   9.330   5.596 -1.1050  1.1160 -0.8108
  202MOL0     H27257   8.379   9.135   5.476  1.4144  2.6315 -0.0022
  202MOL0     H27258   8.371   8.641   5.505 -1.8119 -0.4408  0.8528
  202MOL0     H27259   8.394   8.412   5.412 -2.2205  0.0302  2.6676
  202MOL0     H27260   8.461   8.206   5.283 -1.9143 -2.7359  0.1898
  202MOL0     H27261   8.420   8.159   5.118  0.2465 -0.9353  0.7504
  202MOL0     H27262   8.629   8.267   5.127 -0.0477 -1.3506  2.5710
  202MOL0     H27263   8.560   8.420   5.195 -0.1108  1.7445 -1.8053
  202MOL0     H27264   8.403   8.435   4.999 -0.7319 -0.8905 -0.6590
  202MOL0     H27265   8.478   8.296   4.934 -0.7443  0.8043  1.6719
  202MOL0     H27266   8.595   8.491   4.821  2.4236  1.9904 -0.8618
  202MOL0     H27267   8.712   8.424   4.946 -0.0059  0.3746  0.3880
  202MOL0     H27268   8.613   8.779   5.148 -0.3799 -0.1539  0.4380
  202MOL0     H27269   8.157   8.497   5.074  0.8999  0.7436  0.1965
  202MOL0     H27270   8.121   8.731   5.167  0.4682 -1.3448 -1.7337
  203MOL0     O27271   0.503   0.665   8.527 -0.3103  0.2113 -0.2256
  203MOL0     C27272   0.455   0.758   8.593 -0.1177 -0.4740  0.1786
  203MOL0     O27273   0.524   0.836   8.674  0.1737  0.2926  0.2566
  203MOL0     C27274   0.659   0.817   8.675  0.5278  0.7953  0.4673
  203MOL0     C27275   0.748   0.890   8.587 -1.3499  0.3604 -0.0922
  203MOL0     C27276   0.893   0.866   8.587 -0.6975 -0.7694 -0.7796
  203MOL0     C27277   0.941   0.759   8.670  0.1257 -0.1092 -0.1182
  203MOL0     O27278   1.072   0.734   8.645  0.7109  0.1530 -0.3568
  203MOL0     C27279   1.146   0.627   8.718  0.9352 -0.3243  0.2090
  203MOL0     C27280   1.292   0.638   8.678 -0.6874  0.5903 -0.0337
  203MOL0     C27281   1.379   0.562   8.777 -0.1194 -0.2401 -0.5692
  203MOL0     C27282   1.526   0.569   8.729 -0.5025 -0.0722 -0.7658
  203MOL0     C27283   1.626   0.504   8.825 -0.2540  0.2171 -0.4238
  203MOL0     C27284   1.628   0.350   8.821  0.4513  0.0871 -0.6733
  203MOL0     C27285   1.721   0.278   8.911 -0.1347 -0.5743  0.1934
  203MOL0     C27286   1.674   0.135   8.936 -0.4106 -0.5827  0.5422
  203MOL0     N27287   1.652   0.074   8.799 -0.0394 -0.3870 -0.2911
  203MOL0     C27288   1.756   0.045   8.712 -0.1324 -0.4328  0.2372
  203MOL0     C27289   1.710  -0.049   8.629  0.7959  0.2076 -0.0692
  203MOL0     C27290   1.801  -0.125   8.547 -0.1103 -0.5925  0.5413
  203MOL0     C27291   1.742  -0.160   8.411 -1.0913  0.1973  0.1140
  203MOL0     C27292   1.854  -0.208   8.315 -0.1710 -0.6238  0.0938
  203MOL0     C27293   1.892  -0.351   8.342 -0.0261  0.0899  0.2560
  203MOL0     O27294   1.984  -0.381   8.246 -0.7193  0.0675  0.0126
  203MOL0     C27295   2.024  -0.512   8.227 -0.2890  0.4828 -0.4659
  203MOL0     C27296   1.972  -0.620   8.302 -0.0531 -0.8480 -0.2482
  203MOL0     C27297   1.998  -0.760   8.277 -0.5978  0.2946  0.1102
  203MOL0     C27298   1.921  -0.873   8.351 -0.5811  0.1145  0.7202
  203MOL0     C27299   2.096  -0.787   8.176 -0.0175  0.3552 -0.0457
  203MOL0     C27300   2.155  -0.917   8.147 -0.6568 -0.2183  0.1619
  203MOL0     O27301   2.258  -0.930   8.059 -0.8213  0.1938  0.0135
  203MOL0     C27302   2.334  -1.043   8.047  1.0052 -0.2409 -0.6904
  203MOL0     C27303   2.377  -1.114   8.162 -0.5690  0.2431  0.3449
  203MOL0     C27304   2.462  -1.228   8.145 -0.1026 -0.3759  0.3091
  203MOL0     C27305   2.511  -1.265   8.024  0.2415 -0.2049  0.4614
  203MOL0     O27306   2.605  -1.368   8.017  0.2369  0.1231  0.1870
  203MOL0     C27307   2.600  -1.441   7.894 -0.4329 -0.4335  0.7129
  203MOL0     C27308   2.676  -1.573   7.899 -0.2005 -0.0739  0.2290
  203MOL0     C27309   2.828  -1.562   7.866 -0.5798  0.5779  0.3482
  203MOL0     C27310   2.906  -1.697   7.886 -0.9794 -0.6796 -0.0646
  203MOL0     C27311   2.867  -1.805   7.785  0.7022 -0.2415 -0.7992
  203MOL0     C27312   2.941  -1.932   7.818 -0.4098 -0.2042 -0.5596
  203MOL0     C27313   2.897  -2.042   7.720 -0.7108 -0.2365 -0.5189
  203MOL0     C27314   2.961  -2.173   7.755  0.0356 -0.3314 -0.2720
  203MOL0    Cl27315   3.139  -2.162   7.729  0.2969 -0.0584 -0.0437
  203MOL0     C27316   2.469  -1.187   7.908 -0.1281 -0.1348  1.1376
  203MOL0     C27317   2.377  -1.087   7.922  0.3428 -0.1395  1.5391
  203MOL0     O27318   2.098  -1.009   8.206 -0.0431 -0.4433  0.2154
  203MOL0     C27319   2.143  -0.676   8.106 -0.2309  0.3488  0.6554
  203MOL0     C27320   2.114  -0.547   8.135 -0.1311  0.0097  0.3726
  203MOL0     N27321   1.578  -0.084   8.676  0.7447 -0.2811 -0.0214
  203MOL0     N27322   1.546  -0.005   8.773 -0.2506  0.0089 -0.4962
  203MOL0     C27323   0.853   0.691   8.751 -0.6114 -0.0302 -0.9934
  203MOL0     C27324   0.714   0.722   8.752  0.4289 -0.3257 -0.6004
  203MOL0     C27325   0.309   0.791   8.576 -0.7786  0.1978  1.1739
  203MOL0     C27326   0.250   0.897   8.641  0.4818 -0.3020  0.0824
  203MOL0     C27327   0.109   0.917   8.628 -0.5495 -0.2456  0.1083
  203MOL0     C27328   0.027   0.841   8.536  0.1942 -0.5098 -0.0533
  203MOL0     O27329  -0.105   0.859   8.510 -0.8563  0.2992  0.0917
  203MOL0     C27330  -0.192   0.928   8.600  0.3276 -0.2772 -0.3511
  203MOL0     C27331  -0.340   0.925   8.547 -0.4506 -1.0864 -0.8664
  203MOL0     C27332  -0.398   0.794   8.489 -0.3463  0.0792  0.3707
  203MOL0     C27333  -0.551   0.797   8.492 -0.0802 -0.1883 -0.2784
  203MOL0     C27334  -0.611   0.667   8.456  0.6304 -0.6614 -0.1371
  203MOL0     C27335  -0.650   0.559   8.414  0.7256 -0.4419 -0.1145
  203MOL0     C27336   0.100   0.757   8.466 -0.6535  0.0567  0.9334
  203MOL0     C27337   0.233   0.723   8.479 -0.2446 -1.1303 -0.8258
  203MOL0     H27338   0.721   0.971   8.520 -0.5049  1.1738  0.5340
  203MOL0     H27339   0.948   0.927   8.517 -3.7735  0.7370 -2.0560
  203MOL0     H27340   1.130   0.639   8.826 -3.0070  2.6280 -0.4641
  203MOL0     H27341   1.118   0.526   8.688  0.9440  0.0090 -0.9802
  203MOL0     H27342   1.314   0.605   8.576 -0.5132  0.2226  0.1227
  203MOL0     H27343   1.322   0.743   8.684 -0.2025  0.3922  1.6899
  203MOL0     H27344   1.354   0.607   8.873 -4.2158  1.1117 -2.0404
  203MOL0     H27345   1.358   0.456   8.767  0.9285 -0.4293 -0.8916
  203MOL0     H27346   1.541   0.533   8.627  0.7681 -1.3125 -0.1823
  203MOL0     H27347   1.544   0.677   8.730  0.1659 -0.1542  1.6916
  203MOL0     H27348   1.717   0.541   8.777 -0.5809  0.0860 -1.1579
  203MOL0     H27349   1.615   0.551   8.924  0.3436 -0.6003  0.0416
  203MOL0     H27350   1.531   0.307   8.847 -0.5145  1.8437 -1.1794
  203MOL0     H27351   1.642   0.328   8.715 -0.9648  2.0404 -1.3266
  203MOL0     H27352   1.820   0.276   8.865 -0.4646  0.0484 -0.5511
  203MOL0     H27353   1.731   0.327   9.009  3.9800 -1.2093  0.2629
  203MOL0     H27354   1.577   0.131   8.987 -0.7961  0.7505 -0.0650
  203MOL0     H27355   1.743   0.072   8.994 -2.1440 -2.1922  0.9392
  203MOL0     H27356   1.859   0.076   8.722 -0.5566  0.9584  0.4045
  203MOL0     H27357   1.894  -0.069   8.538 -0.7981  1.0803  2.8657
  203MOL0     H27358   1.834  -0.222   8.588  0.2963 -1.7141 -2.2312
  203MOL0     H27359   1.702  -0.078   8.351 -2.5092 -0.8996 -0.4975
  203MOL0     H27360   1.671  -0.240   8.434  0.3982 -1.0326  0.6705
  203MOL0     H27361   1.946  -0.148   8.309 -0.6061 -0.0963 -2.1895
  203MOL0     H27362   1.810  -0.217   8.216 -1.1546 -1.6244  0.6143
  203MOL0     H27363   1.802  -0.414   8.335 -0.4989  0.6016  1.4902
  203MOL0     H27364   1.940  -0.379   8.436  0.3516 -0.1848 -0.0121
  203MOL0     H27365   1.895  -0.611   8.378  0.3558  0.4656  0.0176
  203MOL0     H27366   1.853  -0.828   8.424  2.0795  1.5457  2.4837
  203MOL0     H27367   1.863  -0.933   8.280  1.3722 -0.4626 -0.4750
  203MOL0     H27368   1.985  -0.939   8.411  1.0392 -0.1980 -1.2501
  203MOL0     H27369   2.343  -1.087   8.262  0.0948 -0.7978  0.8685
  203MOL0     H27370   2.487  -1.293   8.229  0.7786  0.9369  1.1015
  203MOL0     H27371   2.498  -1.466   7.864 -0.3409  1.3070 -1.2893
  203MOL0     H27372   2.638  -1.381   7.811  0.6123 -0.4645  1.1555
  203MOL0     H27373   2.665  -1.617   7.999  1.0474  0.5970  0.6893
  203MOL0     H27374   2.639  -1.650   7.830  1.7534 -2.6989  1.8946
  203MOL0     H27375   2.873  -1.478   7.919  2.9512 -1.5761  1.0470
  203MOL0     H27376   2.837  -1.538   7.759 -1.3138 -3.3797 -0.7684
  203MOL0     H27377   3.013  -1.677   7.870 -1.2541 -0.9978 -2.9490
  203MOL0     H27378   2.895  -1.734   7.988 -1.2775  0.2232  0.2433
  203MOL0     H27379   2.884  -1.782   7.680 -0.9190 -1.3386 -1.3405
  203MOL0     H27380   2.759  -1.822   7.789  0.5951  0.4266 -0.8563
  203MOL0     H27381   3.051  -1.929   7.823 -0.2952  2.0612 -2.5547
  203MOL0     H27382   2.908  -1.955   7.919 -1.0326  4.6147  0.5854
  203MOL0     H27383   2.928  -2.019   7.618  1.6861 -0.1403  0.1714
  203MOL0     H27384   2.788  -2.051   7.718 -0.7734  0.1432  0.3619
  203MOL0     H27385   2.936  -2.245   7.677  0.7710 -0.4566 -0.4035
  203MOL0     H27386   2.932  -2.215   7.852  0.3203 -2.3737 -1.0133
  203MOL0     H27387   2.507  -1.216   7.811  0.5183 -0.0444  1.3606
  203MOL0     H27388   2.330  -1.045   7.833  2.4933  0.4093  0.6063
  203MOL0     H27389   2.220  -0.691   8.030 -0.6728  1.1774  0.0228
  203MOL0     H27390   2.144  -0.468   8.066 -2.4658 -0.8361 -1.7772
  203MOL0     H27391   0.900   0.620   8.819  0.8128  1.5260 -0.2769
  203MOL0     H27392   0.643   0.659   8.805 -1.3654  3.1072  1.4436
  203MOL0     H27393   0.313   0.948   8.713  0.8619 -2.4098  1.3412
  203MOL0     H27394   0.072   0.993   8.697  1.3605  0.5193  0.3407
  203MOL0     H27395  -0.184   0.873   8.695 -2.5060 -1.4837 -0.6929
  203MOL0     H27396  -0.157   1.031   8.612 -2.7435  0.9776 -1.0639
  203MOL0     H27397  -0.354   1.003   8.472 -1.4933 -1.5748 -1.1846
  203MOL0     H27398  -0.390   0.963   8.637  4.2032  2.7229  0.6230
  203MOL0     H27399  -0.364   0.712   8.552  0.0980  0.3006  0.4234
  203MOL0     H27400  -0.348   0.777   8.393  1.9207 -0.4919  1.5785
  203MOL0     H27401  -0.584   0.880   8.429 -1.8980 -1.9036 -1.7365
  203MOL0     H27402  -0.590   0.817   8.592 -1.2544 -0.1339 -0.7224
  203MOL0     H27403  -0.687   0.464   8.380 -1.4675  0.6563 -1.0268
  203MOL0     H27404   0.050   0.703   8.386 -2.5701  1.5326  1.0613
  203MOL0     H27405   0.286   0.647   8.424 -0.9839 -0.1470 -3.0030
  204MOL0     O27406   1.051   0.744  10.128  0.2762 -0.4354  0.0652
  204MOL0     C27407   1.167   0.702  10.144 -0.1705  0.0823 -0.4397
  204MOL0     O27408   1.251   0.662  10.041  0.5749  0.1495 -0.1833
  204MOL0     C27409   1.215   0.696   9.912  0.4404 -0.0012  0.4580
  204MOL0     C27410   1.296   0.789   9.837  0.3771 -0.3102 -0.0839
  204MOL0     C27411   1.261   0.830   9.696  0.9797  0.9406  0.1853
  204MOL0     C27412   1.144   0.793   9.642  0.0797 -0.2103 -0.0622
  204MOL0     O27413   1.118   0.822   9.509 -0.9815 -0.3800 -0.3566
  204MOL0     C27414   0.987   0.812   9.450  0.5806 -0.3651 -0.4414
  204MOL0     C27415   0.991   0.844   9.303 -0.5983  0.4153 -0.5194
  204MOL0     C27416   0.841   0.829   9.258  0.6873 -0.1553  0.0938
  204MOL0     C27417   0.806   0.670   9.256  0.5708  0.2992  0.0176
  204MOL0     C27418   0.653   0.650   9.228  0.2872 -0.3663 -0.1235
  204MOL0     C27419   0.596   0.725   9.111  0.4737 -0.2795 -0.2435
  204MOL0     C27420   0.437   0.722   9.105 -0.5314 -0.4371 -0.2459
  204MOL0     C27421   0.393   0.726   8.969  0.0965 -0.4972  0.7022
  204MOL0     N27422   0.246   0.751   8.971 -0.2448  0.0029  0.1931
  204MOL0     C27423   0.201   0.870   9.011  0.2598 -0.0796  0.0156
  204MOL0     C27424   0.066   0.854   9.029 -0.3027  0.3201 -0.0777
  204MOL0     C27425  -0.018   0.965   9.063  0.1852 -0.5472 -0.1855
  204MOL0     C27426  -0.172   0.924   9.040  0.7683 -1.1083  0.8768
  204MOL0     C27427  -0.254   1.062   9.029  0.3404  0.0006 -1.0280
  204MOL0     C27428  -0.391   1.030   8.975 -0.2001 -1.2853  0.5451
  204MOL0     O27429  -0.466   1.157   8.998 -0.5178  0.1229 -0.5369
  204MOL0     C27430  -0.604   1.152   8.975 -0.2885  0.1038 -0.6485
  204MOL0     C27431  -0.669   1.243   9.048  0.0942 -0.8121  0.2019
  204MOL0     C27432  -0.809   1.263   9.046 -0.0227 -0.0004 -0.2456
  204MOL0     C27433  -0.865   1.373   9.137  0.1222  0.8045 -0.0516
  204MOL0     C27434  -0.882   1.172   8.960  0.1863  0.1425  0.1861
  204MOL0     C27435  -1.034   1.182   8.948 -0.5042  0.4407 -0.5646
  204MOL0     O27436  -1.100   1.286   8.990  0.6070  0.0515 -0.6862
  204MOL0     C27437  -1.232   1.260   9.022  0.0388  0.0294  0.4162
  204MOL0     C27438  -1.277   1.160   9.103  0.5100 -0.1709  0.0842
  204MOL0     C27439  -1.414   1.133   9.136  0.1801 -0.4044  0.2738
  204MOL0     C27440  -1.509   1.223   9.082 -0.5904  0.3711  0.0848
  204MOL0     O27441  -1.639   1.222   9.109  0.3826 -1.1231 -0.1820
  204MOL0     C27442  -1.703   1.101   9.142 -0.9047  0.1270 -0.4125
  204MOL0     C27443  -1.711   0.999   9.031  0.5103  0.1183  0.8846
  204MOL0     C27444  -1.832   0.901   9.063  0.5487  1.0286 -0.3806
  204MOL0     C27445  -1.879   0.844   8.936 -0.9795 -0.5666  0.7627
  204MOL0     C27446  -1.983   0.742   8.950 -0.4594  0.7708  1.2589
  204MOL0     C27447  -2.047   0.699   8.812  0.0073  0.1946 -0.7633
  204MOL0     C27448  -1.957   0.621   8.707 -0.9497  0.7175 -0.3494
  204MOL0     C27449  -1.855   0.701   8.644  0.2036 -0.2497 -0.4580
  204MOL0    Cl27450  -1.808   0.638   8.481 -0.4651 -0.4678  0.3602
  204MOL0     C27451  -1.472   1.320   8.997 -0.5184 -0.3819  0.9052
  204MOL0     C27452  -1.336   1.345   8.972  0.0632  0.2121 -0.5659
  204MOL0     O27453  -1.081   1.087   8.880 -0.5723 -0.1780 -0.1375
  204MOL0     C27454  -0.812   1.085   8.880  0.5966  0.0517 -0.3675
  204MOL0     C27455  -0.675   1.073   8.890  0.2831 -0.8019 -0.3723
  204MOL0     N27456   0.038   0.717   8.990 -0.6469  0.2767  0.3186
  204MOL0     N27457   0.148   0.658   8.951 -0.0542 -0.0971 -0.6434
  204MOL0     C27458   1.056   0.707   9.714 -0.6063  0.2391  0.3003
  204MOL0     C27459   1.100   0.656   9.842  0.0329 -0.1563 -0.4950
  204MOL0     C27460   1.212   0.711  10.284  0.0344 -0.1358 -0.2566
  204MOL0     C27461   1.116   0.709  10.384 -0.2477 -0.0306  0.1252
  204MOL0     C27462   1.162   0.722  10.517  0.6728  0.9662  0.4610
  204MOL0     C27463   1.299   0.735  10.541  0.6768  0.2978  0.2774
  204MOL0     O27464   1.357   0.750  10.664 -0.5795 -0.2377  0.8521
  204MOL0     C27465   1.292   0.816  10.778 -0.2361 -0.3788 -0.1449
  204MOL0     C27466   1.391   0.942  10.812  0.0885  0.3655  0.4547
  204MOL0     C27467   1.523   0.884  10.857  0.6121  0.4999 -0.3515
  204MOL0     C27468   1.596   0.993  10.944 -1.1318  1.1198  1.2234
  204MOL0     C27469   1.727   0.940  10.996 -0.0986  0.1863 -0.4878
  204MOL0     C27470   1.837   0.910  11.038  0.0664  0.0402  0.1886
  204MOL0     C27471   1.388   0.725  10.428 -0.3492  0.4535 -0.0561
  204MOL0     C27472   1.349   0.720  10.305  0.8114  0.1833  0.0591
  204MOL0     H27473   1.391   0.812   9.884 -0.1811 -3.4021  2.9379
  204MOL0     H27474   1.334   0.888   9.640  1.7143 -0.0500  0.1033
  204MOL0     H27475   0.947   0.712   9.469  0.3709 -0.0531  0.8296
  204MOL0     H27476   0.928   0.883   9.509  2.3791  1.4370 -0.6864
  204MOL0     H27477   1.030   0.944   9.281  1.3675  0.0016  0.8835
  204MOL0     H27478   1.055   0.770   9.255 -4.3784 -1.5676 -3.0696
  204MOL0     H27479   0.767   0.892   9.307  0.9467 -0.7416  1.2747
  204MOL0     H27480   0.851   0.868   9.156  3.0712 -1.0693 -0.0996
  204MOL0     H27481   0.869   0.634   9.174 -0.0003  0.9435 -0.7190
  204MOL0     H27482   0.824   0.610   9.346 -2.4702 -0.3859  0.2901
  204MOL0     H27483   0.633   0.543   9.219 -4.3366  0.4668 -2.7091
  204MOL0     H27484   0.599   0.677   9.319  1.1716 -1.4278  0.7543
  204MOL0     H27485   0.631   0.829   9.105  3.2242 -1.1810 -1.7055
  204MOL0     H27486   0.650   0.687   9.023  1.8359 -0.9612  0.8492
  204MOL0     H27487   0.412   0.624   9.146  2.1748 -0.4567  1.6331
  204MOL0     H27488   0.397   0.808   9.159  0.1674  0.9406 -1.8575
  204MOL0     H27489   0.415   0.634   8.914  0.4229 -0.9244  1.5233
  204MOL0     H27490   0.447   0.808   8.920 -2.3862  2.6775  2.8381
  204MOL0     H27491   0.265   0.952   9.039 -0.3880  0.7020 -0.7137
  204MOL0     H27492   0.012   1.000   9.162 -3.2288  1.8404  0.1851
  204MOL0     H27493  -0.007   1.039   8.982  0.7348  0.7281  1.0096
  204MOL0     H27494  -0.206   0.843   9.104  1.7644 -3.4812 -1.4226
  204MOL0     H27495  -0.168   0.894   8.935  1.7201  1.4605  0.0911
  204MOL0     H27496  -0.217   1.146   8.969 -0.0426  2.7761  2.3400
  204MOL0     H27497  -0.263   1.116   9.124 -1.0178 -3.3654  0.9272
  204MOL0     H27498  -0.431   0.955   9.044  2.5541 -3.1158  0.2949
  204MOL0     H27499  -0.385   0.998   8.871 -2.1060  1.8969 -0.6922
  204MOL0     H27500  -0.613   1.310   9.113 -3.9467  1.5285  1.6720
  204MOL0     H27501  -0.900   1.313   9.222  1.2317  0.9437  0.5125
  204MOL0     H27502  -0.789   1.447   9.163  0.3271  0.4826  0.2831
  204MOL0     H27503  -0.948   1.437   9.103 -0.8186  2.5115  4.6278
  204MOL0     H27504  -1.202   1.092   9.142 -0.7818 -2.9034 -1.8813
  204MOL0     H27505  -1.445   1.050   9.199  1.3421 -2.3853 -1.6138
  204MOL0     H27506  -1.654   1.054   9.228  1.0258  1.2817 -0.8289
  204MOL0     H27507  -1.805   1.130   9.171 -0.8619  0.1770 -0.3140
  204MOL0     H27508  -1.726   1.040   8.931  1.2977  0.9443  1.0950
  204MOL0     H27509  -1.623   0.934   9.040 -1.0510 -2.6945 -2.1717
  204MOL0     H27510  -1.912   0.964   9.103  2.8348  2.8267  1.6773
  204MOL0     H27511  -1.786   0.827   9.130 -1.1848  1.9395  1.9893
  204MOL0     H27512  -1.910   0.924   8.868  0.6894  1.7784  2.6028
  204MOL0     H27513  -1.789   0.802   8.889  0.1219 -0.0328  2.2981
  204MOL0     H27514  -2.064   0.781   9.014  0.3686  3.0784  0.9911
  204MOL0     H27515  -1.933   0.653   8.989 -0.5264  0.0989 -0.1642
  204MOL0     H27516  -2.139   0.642   8.827 -0.9991  1.7147 -0.8869
  204MOL0     H27517  -2.083   0.792   8.765 -2.8599 -0.3277  0.2088
  204MOL0     H27518  -2.020   0.582   8.627 -0.1968 -2.2122  0.3914
  204MOL0     H27519  -1.912   0.534   8.756 -0.7293 -0.5464 -2.6764
  204MOL0     H27520  -1.762   0.704   8.702 -0.1904 -1.5530  0.2668
  204MOL0     H27521  -1.890   0.804   8.635 -0.8626 -0.2096  2.7534
  204MOL0     H27522  -1.545   1.388   8.955  0.3101 -2.3069 -4.3493
  204MOL0     H27523  -1.320   1.421   8.896 -1.3165  0.6613 -0.4459
  204MOL0     H27524  -0.867   1.018   8.814 -0.3265  0.5281 -0.1031
  204MOL0     H27525  -0.625   0.994   8.835 -0.2355 -1.9982  0.8050
  204MOL0     H27526   0.963   0.668   9.674  0.3268  0.2991 -2.0581
  204MOL0     H27527   1.044   0.582   9.898  0.5116  0.1675  0.4288
  204MOL0     H27528   1.009   0.701  10.372 -0.4678 -0.8281  2.1945
  204MOL0     H27529   1.086   0.738  10.594  0.2747  2.0476 -0.1409
  204MOL0     H27530   1.197   0.863  10.751 -0.4440  1.3356  3.1130
  204MOL0     H27531   1.280   0.744  10.859 -1.9400  0.1593  0.1120
  204MOL0     H27532   1.350   1.020  10.878  0.3815  0.9027  0.0178
  204MOL0     H27533   1.414   0.992  10.717 -1.1814  0.5137  0.2126
  204MOL0     H27534   1.601   0.853  10.787 -0.5915 -0.3617 -1.3552
  204MOL0     H27535   1.496   0.804  10.926 -0.3323  0.4152 -0.8136
  204MOL0     H27536   1.546   1.006  11.040  0.7838  2.6413  2.0669
  204MOL0     H27537   1.619   1.085  10.890  2.0680  1.2326  2.5317
  204MOL0     H27538   1.935   0.889  11.076  0.3149 -1.8637 -1.3185
  204MOL0     H27539   1.496   0.738  10.430 -0.0537 -1.5808 -0.6054
  204MOL0     H27540   1.428   0.717  10.230 -0.0220  0.1832 -0.8351
  205MOL0     O27541   6.614   1.073   4.693  1.0428  0.7528  0.6459
  205MOL0     C27542   6.724   1.061   4.654 -0.2101  1.0253 -0.2808
  205MOL0     O27543   6.806   0.955   4.684 -0.4700  0.1092  0.5553
  205MOL0     C27544   6.769   0.849   4.751 -1.1422  0.4954  0.8607
  205MOL0     C27545   6.868   0.786   4.830  0.2213 -0.1509 -1.2063
  205MOL0     C27546   6.827   0.678   4.905 -1.1038 -0.5517 -0.3458
  205MOL0     C27547   6.701   0.623   4.907  0.9015 -0.3942 -0.2170
  205MOL0     O27548   6.666   0.519   4.992  0.3685 -0.4109  1.1583
  205MOL0     C27549   6.624   0.398   4.931 -0.5530 -0.2090  0.2943
  205MOL0     C27550   6.625   0.280   5.039 -0.2146 -0.2017  0.1471
  205MOL0     C27551   6.760   0.223   5.081  0.8526 -0.8255  0.1854
  205MOL0     C27552   6.833   0.131   4.976 -0.7100  0.0397  0.1214
  205MOL0     C27553   6.761   0.008   4.929 -0.1962  0.8700  0.8629
  205MOL0     C27554   6.687  -0.067   5.041  0.7971  0.5480  1.1598
  205MOL0     C27555   6.787  -0.123   5.125 -0.0377 -0.0123 -0.2255
  205MOL0     C27556   6.733  -0.210   5.244 -0.5806 -0.2024  1.1042
  205MOL0     N27557   6.693  -0.343   5.200  0.3504  0.3501  0.9634
  205MOL0     C27558   6.776  -0.452   5.211  0.9123  0.1484 -1.0842
  205MOL0     C27559   6.710  -0.555   5.156  0.0737 -0.2355 -1.0327
  205MOL0     C27560   6.762  -0.696   5.149 -0.2689  0.5911 -0.4562
  205MOL0     C27561   6.772  -0.746   5.297 -0.2421 -1.0238 -0.4641
  205MOL0     C27562   6.719  -0.889   5.305 -0.0343  1.0937  0.4722
  205MOL0     C27563   6.727  -0.926   5.459  0.8482 -0.7299 -0.1043
  205MOL0     O27564   6.673  -1.055   5.475 -0.3388  0.0862  0.4262
  205MOL0     C27565   6.541  -1.071   5.453  0.0764  0.0746  0.1385
  205MOL0     C27566   6.497  -1.204   5.438  0.9978  0.2812  0.1715
  205MOL0     C27567   6.366  -1.250   5.434 -0.3798  0.5900 -0.9136
  205MOL0     C27568   6.326  -1.393   5.433  0.0136 -0.6530  1.0307
  205MOL0     C27569   6.261  -1.150   5.434 -0.9664  0.4089 -0.5389
  205MOL0     C27570   6.118  -1.183   5.433 -0.0839 -0.1163  0.7495
  205MOL0     O27571   6.040  -1.113   5.344 -0.4349 -0.0406 -0.1532
  205MOL0     C27572   5.910  -1.084   5.376 -0.2445 -0.2673 -0.6008
  205MOL0     C27573   5.871  -0.961   5.431  0.1295 -0.1102  1.4242
  205MOL0     C27574   5.741  -0.909   5.444 -0.3826 -0.4148 -0.4406
  205MOL0     C27575   5.628  -0.985   5.390 -0.0329  1.0021 -0.2900
  205MOL0     O27576   5.494  -0.955   5.389  0.5678 -0.4040  0.3283
  205MOL0     C27577   5.453  -0.820   5.400 -0.0033 -0.2006 -0.3419
  205MOL0     C27578   5.307  -0.819   5.377  0.2349 -0.3475  0.2089
  205MOL0     C27579   5.268  -0.857   5.235  0.4762 -0.1657 -0.4634
  205MOL0     C27580   5.120  -0.862   5.209 -0.0862  0.4367 -0.1593
  205MOL0     C27581   5.079  -0.900   5.067  1.1291 -0.8097 -0.0559
  205MOL0     C27582   5.092  -0.787   4.971 -1.3387 -0.1723 -0.4557
  205MOL0     C27583   5.087  -0.827   4.827  0.2645 -0.4553 -0.1249
  205MOL0     C27584   5.032  -0.716   4.745 -0.2135  0.3794  0.5039
  205MOL0    Cl27585   5.067  -0.759   4.572 -0.3222  0.3663 -0.1718
  205MOL0     C27586   5.673  -1.105   5.324 -0.9275 -1.1292  0.3974
  205MOL0     C27587   5.805  -1.154   5.323 -0.1797  0.1729  0.5703
  205MOL0     O27588   6.071  -1.257   5.514 -0.8999 -0.1091 -0.1712
  205MOL0     C27589   6.305  -1.013   5.447 -1.2960  0.6422 -0.6362
  205MOL0     C27590   6.441  -0.966   5.462  0.5085 -0.6056 -0.4988
  205MOL0     N27591   6.581  -0.505   5.126  0.6558  0.4927  0.6304
  205MOL0     N27592   6.575  -0.377   5.140  0.5932  0.3724 -0.1543
  205MOL0     C27593   6.612   0.684   4.823 -0.5740  0.0119 -0.1258
  205MOL0     C27594   6.639   0.796   4.755 -1.0081 -0.3725  0.6339
  205MOL0     C27595   6.778   1.164   4.562  0.1541 -0.5187 -0.7862
  205MOL0     C27596   6.911   1.154   4.516  0.3048 -0.3378  0.1969
  205MOL0     C27597   6.965   1.260   4.434  0.2795 -0.4094  0.2806
  205MOL0     C27598   6.883   1.384   4.409 -0.3835  0.2018 -0.6495
  205MOL0     O27599   6.911   1.494   4.335 -0.0357  0.2652 -0.6908
  205MOL0     C27600   7.004   1.479   4.236  0.9004 -0.6758  0.6223
  205MOL0     C27601   7.125   1.552   4.280  0.0022  0.4539 -0.4527
  205MOL0     C27602   7.226   1.562   4.166  0.3183  0.6518 -0.0506
  205MOL0     C27603   7.341   1.653   4.191 -0.7331  0.7356 -0.1851
  205MOL0     C27604   7.416   1.605   4.310  0.5180  1.1099 -0.4384
  205MOL0     C27605   7.481   1.557   4.402  1.3260  0.3788  0.7353
  205MOL0     C27606   6.764   1.391   4.470 -0.1965  0.0149  0.7867
  205MOL0     C27607   6.706   1.292   4.543 -0.3140  0.0268  0.4362
  205MOL0     H27608   6.973   0.812   4.836  0.9381 -3.1105  1.8919
  205MOL0     H27609   6.899   0.638   4.976 -0.0587  1.4194 -0.2362
  205MOL0     H27610   6.517   0.407   4.910 -0.7441 -4.9707 -2.2060
  205MOL0     H27611   6.680   0.375   4.840 -0.0426  3.4649 -0.5018
  205MOL0     H27612   6.584   0.326   5.129  0.3535  2.1363 -0.7166
  205MOL0     H27613   6.554   0.202   5.010 -0.4016  0.1091 -0.2388
  205MOL0     H27614   6.821   0.311   5.105 -1.4143  0.6054  0.9815
  205MOL0     H27615   6.739   0.157   5.165  1.1429  1.4286  2.1352
  205MOL0     H27616   6.870   0.185   4.888  0.1512  0.4306  0.7115
  205MOL0     H27617   6.918   0.090   5.031 -1.0893 -0.2120  0.5274
  205MOL0     H27618   6.705   0.045   4.843 -1.2360 -1.5554  0.4136
  205MOL0     H27619   6.835  -0.061   4.888 -0.4709  0.4835  1.0182
  205MOL0     H27620   6.612  -0.009   5.096 -0.7840 -0.7760  0.4854
  205MOL0     H27621   6.634  -0.151   4.994  2.1550 -0.0539  0.6250
  205MOL0     H27622   6.861  -0.181   5.069  0.7260 -0.3462  1.0880
  205MOL0     H27623   6.840  -0.046   5.182  0.6618 -0.6943  0.0683
  205MOL0     H27624   6.651  -0.151   5.287 -0.1004  1.7285 -0.4948
  205MOL0     H27625   6.808  -0.226   5.321  0.7015 -0.2645 -0.1263
  205MOL0     H27626   6.877  -0.448   5.250  0.5626 -1.5915  0.1143
  205MOL0     H27627   6.696  -0.766   5.097  2.2014 -3.8176  1.7047
  205MOL0     H27628   6.857  -0.698   5.095 -0.2511  0.5401 -0.4243
  205MOL0     H27629   6.717  -0.680   5.365 -2.8352 -1.3497 -2.1180
  205MOL0     H27630   6.872  -0.745   5.341 -0.7405  0.5179  0.7331
  205MOL0     H27631   6.790  -0.954   5.253 -0.9345  0.3452  0.1398
  205MOL0     H27632   6.616  -0.899   5.269  0.6289 -1.4710 -0.9996
  205MOL0     H27633   6.665  -0.856   5.517  0.7587 -0.2001 -0.8253
  205MOL0     H27634   6.825  -0.916   5.507 -0.0310  0.4934  1.5584
  205MOL0     H27635   6.573  -1.280   5.438  1.0765  0.0758 -4.5200
  205MOL0     H27636   6.409  -1.456   5.468  0.0890 -1.8075 -1.0825
  205MOL0     H27637   6.235  -1.420   5.488 -1.3384  0.8328 -0.3835
  205MOL0     H27638   6.300  -1.420   5.331 -0.2539  1.2980  0.5492
  205MOL0     H27639   5.955  -0.896   5.454  2.1276 -0.9178 -2.6909
  205MOL0     H27640   5.711  -0.821   5.499  1.0582 -1.2671  1.8185
  205MOL0     H27641   5.475  -0.786   5.501 -2.6685  1.1661 -0.1354
  205MOL0     H27642   5.501  -0.746   5.336 -1.0677  0.5267 -0.3367
  205MOL0     H27643   5.252  -0.884   5.446 -0.1758  1.1154  1.3208
  205MOL0     H27644   5.280  -0.713   5.387  2.8471  0.4731 -0.7187
  205MOL0     H27645   5.311  -0.953   5.205  0.6002 -0.4044  0.4445
  205MOL0     H27646   5.317  -0.783   5.171  2.7671 -2.0842 -1.0469
  205MOL0     H27647   5.085  -0.936   5.281  1.5471 -0.4055 -0.1980
  205MOL0     H27648   5.069  -0.772   5.245 -1.2935 -1.5525  3.6730
  205MOL0     H27649   4.977  -0.940   5.072  0.0557  1.0433 -3.4601
  205MOL0     H27650   5.142  -0.976   5.020  2.0496  2.1910 -4.3089
  205MOL0     H27651   5.010  -0.716   4.986  1.9441  4.5373 -2.3349
  205MOL0     H27652   5.190  -0.740   4.969 -1.1407 -0.5019  0.8630
  205MOL0     H27653   5.018  -0.909   4.806  0.3000 -0.3361 -0.7326
  205MOL0     H27654   5.184  -0.853   4.783  0.1136  0.8711 -1.3265
  205MOL0     H27655   5.088  -0.624   4.766  0.6083 -0.3768  1.7773
  205MOL0     H27656   4.925  -0.696   4.757 -0.5644  1.9305 -3.5355
  205MOL0     H27657   5.593  -1.155   5.269 -0.0176 -0.5968 -1.4928
  205MOL0     H27658   5.835  -1.240   5.264 -0.6018 -1.2334  2.3179
  205MOL0     H27659   6.235  -0.930   5.444 -1.6577  0.4416  1.1147
  205MOL0     H27660   6.444  -0.858   5.469  0.7677 -0.6991  3.9567
  205MOL0     H27661   6.507   0.657   4.818 -1.6508  3.5777  0.3057
  205MOL0     H27662   6.571   0.838   4.682 -1.1591  1.3608  1.7087
  205MOL0     H27663   6.964   1.065   4.548  1.0291 -0.6325 -1.6726
  205MOL0     H27664   7.067   1.254   4.397  1.9302  3.0480  3.6228
  205MOL0     H27665   7.023   1.376   4.204 -2.8966 -1.8510  1.6107
  205MOL0     H27666   6.961   1.543   4.159 -0.7720  1.6607  3.3170
  205MOL0     H27667   7.170   1.492   4.359  1.3647  1.1230 -0.6982
  205MOL0     H27668   7.118   1.649   4.329  2.6845 -0.2429  1.4854
  205MOL0     H27669   7.172   1.586   4.074  0.2712 -0.4899 -0.3309
  205MOL0     H27670   7.268   1.462   4.153  2.5533  1.4391  0.6339
  205MOL0     H27671   7.312   1.758   4.202 -1.3166  0.4071  1.6959
  205MOL0     H27672   7.407   1.664   4.104 -2.4228  2.3885 -1.3467
  205MOL0     H27673   7.529   1.506   4.484  2.3019 -2.2143 -1.3083
  205MOL0     H27674   6.704   1.479   4.449  0.3055  1.1082  3.5642
  205MOL0     H27675   6.609   1.284   4.591 -1.5455 -3.8940 -2.2206
  206MOL0     O27676   4.713   5.410   5.251  0.1288 -0.7123  0.7183
  206MOL0     C27677   4.680   5.525   5.293 -0.0160 -0.6517 -0.3855
  206MOL0     O27678   4.768   5.634   5.316  0.8206  0.6047 -0.4314
  206MOL0     C27679   4.900   5.625   5.325  0.7335  0.4373  0.6027
  206MOL0     C27680   4.977   5.516   5.288  0.1415  0.2216 -0.3018
  206MOL0     C27681   5.116   5.526   5.304  0.1398  0.2164  1.0483
  206MOL0     C27682   5.184   5.637   5.359  0.2908  0.5021  0.7086
  206MOL0     O27683   5.317   5.634   5.354 -0.7665  0.2733  0.1867
  206MOL0     C27684   5.397   5.750   5.379 -1.3709  1.2502 -0.0465
  206MOL0     C27685   5.543   5.698   5.388  0.5850  0.7525  0.9558
  206MOL0     C27686   5.608   5.655   5.251 -0.9641  0.1652 -0.5121
  206MOL0     C27687   5.535   5.540   5.174 -0.7498 -0.0169 -0.5173
  206MOL0     C27688   5.612   5.473   5.058 -0.2019 -0.1033  0.4350
  206MOL0     C27689   5.638   5.575   4.953 -0.1823  0.5048  0.3771
  206MOL0     C27690   5.743   5.538   4.854 -1.0497  0.5336 -0.7507
  206MOL0     C27691   5.781   5.642   4.756 -0.2802  0.3478  1.2134
  206MOL0     N27692   5.906   5.609   4.676  0.9734 -0.6445  0.6300
  206MOL0     C27693   5.908   5.537   4.555 -1.2866  0.1725 -0.8267
  206MOL0     C27694   6.038   5.544   4.512 -0.8395  0.2488  0.0546
  206MOL0     C27695   6.105   5.481   4.394  0.8433  0.3392  0.4819
  206MOL0     C27696   5.998   5.391   4.320 -1.8338  0.5125  0.7908
  206MOL0     C27697   6.058   5.302   4.213 -0.0263  0.8178  0.0829
  206MOL0     C27698   5.968   5.205   4.138 -1.1094 -0.0435 -0.7623
  206MOL0     O27699   5.906   5.300   4.062  0.3303 -0.1216  1.1179
  206MOL0     C27700   5.811   5.257   3.968  0.5352 -0.0094 -1.2286
  206MOL0     C27701   5.748   5.354   3.887  0.8833  1.7079 -0.2547
  206MOL0     C27702   5.660   5.318   3.784  0.2310 -0.2590 -1.1638
  206MOL0     C27703   5.592   5.426   3.714 -0.3244  0.1998 -0.8928
  206MOL0     C27704   5.627   5.183   3.768 -1.0894  0.1263 -0.1022
  206MOL0     C27705   5.538   5.138   3.663  0.1775 -0.4525 -1.1607
  206MOL0     O27706   5.460   5.025   3.698 -0.1468 -0.7407 -0.0728
  206MOL0     C27707   5.380   4.968   3.601  0.1650 -0.3140  0.9677
  206MOL0     C27708   5.419   4.932   3.463 -0.5276  0.1565 -0.2917
  206MOL0     C27709   5.320   4.899   3.362 -1.7957 -0.5284  0.5523
  206MOL0     C27710   5.185   4.909   3.397 -0.7083  0.1576  0.3530
  206MOL0     O27711   5.089   4.864   3.318  0.0617 -0.0049  0.1168
  206MOL0     C27712   5.078   4.725   3.337  0.0438  0.6253 -1.0126
  206MOL0     C27713   4.947   4.680   3.269  0.2601 -0.6154 -0.7479
  206MOL0     C27714   4.815   4.736   3.330 -0.8743  0.1870  0.7370
  206MOL0     C27715   4.758   4.681   3.459 -0.1760 -0.2321  0.0919
  206MOL0     C27716   4.637   4.766   3.511 -0.4379  0.2225  0.2815
  206MOL0     C27717   4.691   4.902   3.572  0.0861 -0.0374 -0.1078
  206MOL0     C27718   4.585   4.978   3.634  0.6571 -0.6080  0.9453
  206MOL0     C27719   4.499   4.916   3.744 -0.6201 -0.1686 -0.0403
  206MOL0    Cl27720   4.605   4.829   3.853 -0.5122  0.0776  0.0655
  206MOL0     C27721   5.153   4.945   3.523  0.7903  0.0246  0.6097
  206MOL0     C27722   5.242   4.963   3.626  0.4556  0.5932 -0.5418
  206MOL0     O27723   5.541   5.186   3.551  0.1760  0.0228 -0.8252
  206MOL0     C27724   5.686   5.079   3.848  0.3280 -0.2424  0.0182
  206MOL0     C27725   5.773   5.123   3.949 -0.4174  0.1996 -0.1331
  206MOL0     N27726   6.107   5.623   4.598 -0.4545 -0.5695 -0.3148
  206MOL0     N27727   6.035   5.647   4.705  1.2046 -0.0620 -0.0084
  206MOL0     C27728   5.112   5.743   5.402 -0.2676  0.7120 -0.1582
  206MOL0     C27729   4.970   5.738   5.382  0.3506  0.9421 -1.0234
  206MOL0     C27730   4.550   5.544   5.345  0.0012 -0.3180 -0.1083
  206MOL0     C27731   4.519   5.654   5.426  0.7915 -0.6357  1.4349
  206MOL0     C27732   4.390   5.660   5.482  0.2655  0.1720 -0.8646
  206MOL0     C27733   4.284   5.567   5.456 -1.3314 -0.1415  0.5612
  206MOL0     O27734   4.160   5.598   5.497 -0.0128 -0.1222  0.3859
  206MOL0     C27735   4.131   5.550   5.630  0.0747  0.0064 -0.3710
  206MOL0     C27736   3.975   5.552   5.665  0.1908  0.3667  0.2016
  206MOL0     C27737   3.921   5.699   5.655 -0.3644 -0.2397  0.2012
  206MOL0     C27738   3.859   5.766   5.783  1.1604 -0.6568 -0.3617
  206MOL0     C27739   3.960   5.783   5.877 -0.1832 -0.7704 -0.4672
  206MOL0     C27740   4.060   5.787   5.948  0.7667  0.3445  1.1036
  206MOL0     C27741   4.318   5.464   5.375 -0.1997 -0.4506  0.2173
  206MOL0     C27742   4.449   5.450   5.328 -0.3565 -0.0592 -0.8978
  206MOL0     H27743   4.932   5.425   5.251 -0.8299  1.4211 -2.1958
  206MOL0     H27744   5.184   5.453   5.260 -1.2750 -0.2991 -0.3912
  206MOL0     H27745   5.386   5.823   5.298 -1.7042  2.1834  0.8208
  206MOL0     H27746   5.372   5.800   5.473  1.2657  1.9488  0.3651
  206MOL0     H27747   5.593   5.787   5.429  2.7426  0.1588 -0.2165
  206MOL0     H27748   5.559   5.610   5.450  3.3013  0.6746  0.2577
  206MOL0     H27749   5.619   5.748   5.194 -1.6954  0.7647  0.2965
  206MOL0     H27750   5.714   5.629   5.264 -1.1727 -0.0009  1.1003
  206MOL0     H27751   5.508   5.456   5.238  0.8089 -2.4791 -2.8925
  206MOL0     H27752   5.438   5.577   5.140 -1.5379 -1.3577  0.1942
  206MOL0     H27753   5.701   5.425   5.100  0.8022  0.6626 -0.7426
  206MOL0     H27754   5.552   5.389   5.021  0.5583 -1.8179  2.8535
  206MOL0     H27755   5.539   5.586   4.906 -0.4472 -0.7461  0.6060
  206MOL0     H27756   5.669   5.672   4.992  0.6714  0.0045  0.9572
  206MOL0     H27757   5.825   5.519   4.924 -2.6598 -0.9218  0.8415
  206MOL0     H27758   5.708   5.442   4.815 -2.7856 -0.9840  3.8676
  206MOL0     H27759   5.796   5.739   4.805 -3.6215  0.8890  1.4249
  206MOL0     H27760   5.700   5.660   4.685 -0.3722 -1.1827  0.9024
  206MOL0     H27761   5.838   5.467   4.510  0.1537 -0.4349 -2.2294
  206MOL0     H27762   6.134   5.563   4.328 -0.3909 -0.2076 -0.7807
  206MOL0     H27763   6.186   5.416   4.428 -0.6241 -1.5664  0.5224
  206MOL0     H27764   5.918   5.442   4.266  0.1796  0.1368 -2.9233
  206MOL0     H27765   5.967   5.314   4.391  2.2852 -1.1280  1.1047
  206MOL0     H27766   6.122   5.233   4.269 -0.1159  0.8942  0.2793
  206MOL0     H27767   6.119   5.361   4.144  1.4251  1.4052  1.7984
  206MOL0     H27768   5.905   5.159   4.214 -0.0344 -1.1906 -0.5388
  206MOL0     H27769   6.028   5.141   4.073  0.5782  2.2323 -1.5837
  206MOL0     H27770   5.762   5.462   3.892  0.1349  1.8066 -0.1907
  206MOL0     H27771   5.593   5.513   3.781 -0.6799 -1.0721  0.8308
  206MOL0     H27772   5.629   5.441   3.612  1.6337  1.3342 -0.0501
  206MOL0     H27773   5.490   5.389   3.695  1.2781 -3.4095 -3.5968
  206MOL0     H27774   5.524   4.943   3.441  0.6239 -4.5548  1.6310
  206MOL0     H27775   5.359   4.852   3.272  1.4262  0.8420  1.0704
  206MOL0     H27776   5.161   4.671   3.292  1.0512  0.1760  1.2421
  206MOL0     H27777   5.076   4.684   3.439 -1.7868  0.1464 -1.2072
  206MOL0     H27778   4.936   4.712   3.164  1.0796  1.6444 -0.2160
  206MOL0     H27779   4.939   4.572   3.278 -0.6147 -0.3840  3.0781
  206MOL0     H27780   4.739   4.721   3.254 -1.0611  0.8742  0.7856
  206MOL0     H27781   4.826   4.844   3.340 -2.0152  0.6018 -1.8534
  206MOL0     H27782   4.738   4.574   3.448 -0.2000 -0.1805 -0.3990
  206MOL0     H27783   4.832   4.692   3.538 -3.0137  0.8463  2.8236
  206MOL0     H27784   4.591   4.709   3.593 -0.9309 -0.1703 -0.2592
  206MOL0     H27785   4.559   4.785   3.437 -0.3571 -0.7294 -0.0699
  206MOL0     H27786   4.774   4.881   3.639  0.3645 -2.1864 -1.0363
  206MOL0     H27787   4.740   4.962   3.495  0.8574  0.4709  0.7543
  206MOL0     H27788   4.522   5.024   3.558 -0.4357 -2.7591  0.4745
  206MOL0     H27789   4.644   5.056   3.683  0.8823  0.8453 -1.5179
  206MOL0     H27790   4.433   4.838   3.704  0.8295 -3.3218  3.1363
  206MOL0     H27791   4.448   5.003   3.787  1.3734  1.9982 -1.7360
  206MOL0     H27792   5.047   4.936   3.545  0.8075  0.4537  0.8791
  206MOL0     H27793   5.210   4.995   3.725 -2.9790  1.8011 -1.8868
  206MOL0     H27794   5.654   4.977   3.827 -0.3566 -0.4320  1.7985
  206MOL0     H27795   5.829   5.051   4.009  3.4816  1.7707 -1.6264
  206MOL0     H27796   5.153   5.830   5.453  1.1144  0.9911 -1.6678
  206MOL0     H27797   4.909   5.825   5.402 -3.1707 -1.5295 -0.2598
  206MOL0     H27798   4.592   5.728   5.455  0.6294  0.4956 -0.7798
  206MOL0     H27799   4.376   5.751   5.539 -3.1745 -2.2782  2.7131
  206MOL0     H27800   4.155   5.444   5.634 -4.1763 -1.1429 -0.5214
  206MOL0     H27801   4.189   5.606   5.703  0.2644 -1.1321  0.3743
  206MOL0     H27802   3.956   5.506   5.762  2.6312  1.3768  1.2319
  206MOL0     H27803   3.918   5.491   5.594  0.7572  0.3054 -0.2113
  206MOL0     H27804   3.856   5.704   5.567 -1.6385 -3.8594  0.7604
  206MOL0     H27805   4.007   5.761   5.627  0.7477 -1.3015  1.1424
  206MOL0     H27806   3.784   5.693   5.816  0.4502  0.6556  1.0732
  206MOL0     H27807   3.825   5.864   5.748  0.2488 -0.8061  0.0541
  206MOL0     H27808   4.145   5.808   6.009  0.5903 -1.1140  1.8850
  206MOL0     H27809   4.235   5.396   5.360 -1.6303  1.1762  0.4396
  206MOL0     H27810   4.462   5.358   5.272  0.0982  1.0750 -2.7628
  207MOL0     O27811   5.314   6.205   9.130 -0.1850 -0.1612 -0.3175
  207MOL0     C27812   5.402   6.243   9.055  0.2561  0.4123  0.2967
  207MOL0     O27813   5.386   6.328   8.951 -0.2804  0.3999  0.8404
  207MOL0     C27814   5.258   6.373   8.930 -0.1655 -0.0776 -0.4150
  207MOL0     C27815   5.185   6.312   8.835  0.2741  0.0785 -0.0601
  207MOL0     C27816   5.054   6.356   8.800  0.2372 -0.0510  0.4957
  207MOL0     C27817   4.986   6.454   8.873  0.0817 -0.4775  0.0292
  207MOL0     O27818   4.862   6.503   8.855  0.1640  0.4184 -0.7505
  207MOL0     C27819   4.754   6.421   8.812 -0.4327 -0.1854  0.0255
  207MOL0     C27820   4.662   6.487   8.712  0.5964  0.3877 -0.0499
  207MOL0     C27821   4.582   6.607   8.772 -0.5190 -0.0203 -0.0331
  207MOL0     C27822   4.488   6.657   8.659 -0.3913 -0.2384 -0.4851
  207MOL0     C27823   4.381   6.754   8.725 -0.6080 -1.2041  0.6518
  207MOL0     C27824   4.277   6.809   8.631  0.0804  0.3206 -0.0568
  207MOL0     C27825   4.179   6.900   8.712 -0.3096 -0.5946  0.2776
  207MOL0     C27826   4.256   7.032   8.712  1.6653  1.1690  0.1912
  207MOL0     N27827   4.313   7.064   8.846  1.2557  0.8102 -0.0233
  207MOL0     C27828   4.255   7.058   8.975  0.4082  0.1400 -0.0712
  207MOL0     C27829   4.352   7.078   9.063  0.3150  0.1713 -1.9343
  207MOL0     C27830   4.339   7.079   9.213  0.1339  0.7774  0.2157
  207MOL0     C27831   4.236   7.179   9.273 -0.4837 -0.5580 -0.1659
  207MOL0     C27832   4.287   7.323   9.277  0.3107  0.1716  0.3680
  207MOL0     C27833   4.244   7.400   9.153 -0.1964  0.1613  0.9097
  207MOL0     O27834   4.108   7.401   9.138 -0.0230  0.8742  0.1712
  207MOL0     C27835   4.049   7.465   9.033  0.4009  0.4465  0.4534
  207MOL0     C27836   4.116   7.550   8.947 -0.2946  0.7869  0.1034
  207MOL0     C27837   4.055   7.641   8.864  0.9708  0.4150 -0.0750
  207MOL0     C27838   4.134   7.751   8.798  0.3371 -1.2167  1.0300
  207MOL0     C27839   3.915   7.620   8.835  0.1280  0.4459 -0.0636
  207MOL0     C27840   3.828   7.689   8.736 -0.2429 -0.5613  0.0752
  207MOL0     O27841   3.692   7.655   8.743  0.3060 -0.6464  0.8599
  207MOL0     C27842   3.609   7.717   8.656  0.1487 -0.5284  0.1169
  207MOL0     C27843   3.622   7.693   8.519 -0.1142 -0.5327 -1.3501
  207MOL0     C27844   3.528   7.740   8.427  0.2951 -0.9491  0.0817
  207MOL0     C27845   3.429   7.819   8.469 -0.5722 -0.4664  0.3624
  207MOL0     O27846   3.341   7.868   8.370 -0.3203  0.2263 -0.2620
  207MOL0     C27847   3.207   7.895   8.413 -0.3535  0.1977  0.3882
  207MOL0     C27848   3.125   7.923   8.283  0.4148  0.4807 -0.9328
  207MOL0     C27849   3.175   8.055   8.229  0.2702  0.4663  0.3589
  207MOL0     C27850   3.102   8.092   8.097 -0.2272  0.1202  0.1872
  207MOL0     C27851   3.155   8.029   7.966 -0.0786 -0.6191 -0.2938
  207MOL0     C27852   3.061   8.062   7.845  0.4008  0.1198  0.0828
  207MOL0     C27853   3.130   7.986   7.728  0.1427  0.2819  0.3852
  207MOL0     C27854   3.050   8.005   7.601 -0.3258  0.4757 -0.7496
  207MOL0    Cl27855   2.892   7.904   7.604  0.7933 -0.4875 -0.0854
  207MOL0     C27856   3.413   7.841   8.611  0.4669 -0.3944  0.5635
  207MOL0     C27857   3.504   7.805   8.700 -1.7142  0.8941 -0.4146
  207MOL0     O27858   3.889   7.765   8.659 -0.0612 -0.0728 -0.4100
  207MOL0     C27859   3.845   7.513   8.908 -0.7148  0.7659  0.1983
  207MOL0     C27860   3.913   7.447   9.015  0.0278 -0.8651 -0.0820
  207MOL0     N27861   4.465   7.113   8.995 -0.6582  0.1126 -0.1183
  207MOL0     N27862   4.446   7.090   8.867 -0.2212 -0.0558 -0.3520
  207MOL0     C27863   5.063   6.512   8.975 -0.1282  0.2141  0.8974
  207MOL0     C27864   5.198   6.474   9.002  0.5493 -0.0909 -0.2330
  207MOL0     C27865   5.538   6.189   9.071 -0.4166  0.4357 -0.2967
  207MOL0     C27866   5.568   6.105   9.180  0.9869 -0.0476 -0.2161
  207MOL0     C27867   5.693   6.067   9.204 -0.7476  0.2716 -0.5649
  207MOL0     C27868   5.798   6.098   9.110 -0.4556 -0.7538 -0.1026
  207MOL0     O27869   5.927   6.072   9.131 -0.5682  0.1756 -0.1172
  207MOL0     C27870   5.964   5.967   9.221 -0.3962  0.0636 -0.2750
  207MOL0     C27871   6.113   5.948   9.208 -0.4451 -0.6976  0.5292
  207MOL0     C27872   6.182   5.849   9.305  0.2982 -0.7843 -0.0645
  207MOL0     C27873   6.324   5.791   9.261 -0.2818  0.5258 -0.4975
  207MOL0     C27874   6.393   5.714   9.367  0.0423 -0.3773  0.0076
  207MOL0     C27875   6.429   5.648   9.456 -0.7380  0.0654  0.7354
  207MOL0     C27876   5.770   6.174   8.991 -0.2393 -0.3040 -0.5867
  207MOL0     C27877   5.638   6.228   8.981 -0.5973  1.3573  0.0552
  207MOL0     H27878   5.242   6.235   8.783 -1.5596 -0.8559 -0.7741
  207MOL0     H27879   5.009   6.316   8.709 -1.6575  1.3470  0.7514
  207MOL0     H27880   4.796   6.330   8.769 -0.3635 -0.5369  0.8067
  207MOL0     H27881   4.692   6.386   8.896 -0.3774 -0.6330 -0.1174
  207MOL0     H27882   4.724   6.533   8.635 -0.3129 -1.6958 -2.1247
  207MOL0     H27883   4.605   6.397   8.689  0.4166  0.3760  0.4200
  207MOL0     H27884   4.527   6.571   8.859  0.4319 -1.2135  0.1042
  207MOL0     H27885   4.644   6.684   8.819 -1.3600 -1.1252  3.1459
  207MOL0     H27886   4.549   6.713   8.588 -1.7330  1.2838 -0.5009
  207MOL0     H27887   4.439   6.574   8.608  0.6111 -0.8108 -0.5392
  207MOL0     H27888   4.338   6.699   8.809 -2.5199  0.4493  0.8310
  207MOL0     H27889   4.432   6.840   8.769 -1.6428 -1.3031  2.1333
  207MOL0     H27890   4.326   6.865   8.550  1.5300  0.5541  0.9466
  207MOL0     H27891   4.222   6.723   8.592  3.1258 -2.1753  0.6743
  207MOL0     H27892   4.084   6.912   8.659 -1.1416 -0.0633  1.8324
  207MOL0     H27893   4.160   6.869   8.815 -1.0015 -1.1023  0.0041
  207MOL0     H27894   4.182   7.107   8.682  0.7990  0.1197 -0.3746
  207MOL0     H27895   4.339   7.035   8.641 -0.2800  0.1717 -2.2807
  207MOL0     H27896   4.149   7.043   8.995 -0.2036  2.7159 -0.9618
  207MOL0     H27897   4.314   6.976   9.240  3.5917 -0.1120  0.5128
  207MOL0     H27898   4.441   7.087   9.252 -0.2917 -2.0643  2.1160
  207MOL0     H27899   4.220   7.146   9.376  1.3060 -2.3111 -0.3904
  207MOL0     H27900   4.144   7.174   9.214 -4.1155  0.3472  4.7947
  207MOL0     H27901   4.395   7.330   9.293  0.7287 -3.0948 -0.3047
  207MOL0     H27902   4.246   7.370   9.367 -0.6449 -1.5220  0.8566
  207MOL0     H27903   4.294   7.378   9.058  1.3229 -0.2717  1.7826
  207MOL0     H27904   4.277   7.502   9.176  1.6539 -0.3041  0.4608
  207MOL0     H27905   4.224   7.559   8.959 -0.0312 -0.7820 -0.8958
  207MOL0     H27906   4.144   7.722   8.693 -1.0412  1.5322  0.0491
  207MOL0     H27907   4.082   7.845   8.816  0.5052 -0.0271 -3.4966
  207MOL0     H27908   4.233   7.745   8.845  2.0238  1.8229 -1.6754
  207MOL0     H27909   3.700   7.628   8.480  0.2768 -1.1261  0.3290
  207MOL0     H27910   3.549   7.737   8.321  1.1103  1.1074  0.1416
  207MOL0     H27911   3.168   7.809   8.470 -1.1296 -0.0306 -0.4713
  207MOL0     H27912   3.207   7.981   8.480 -0.0564 -0.4895  1.2971
  207MOL0     H27913   3.148   7.844   8.210  0.7496  0.0274 -0.3460
  207MOL0     H27914   3.016   7.922   8.299  0.6142 -1.3104  0.7302
  207MOL0     H27915   3.283   8.049   8.217  0.1166 -1.4765 -0.3272
  207MOL0     H27916   3.146   8.136   8.296 -0.6146 -0.3060  0.9292
  207MOL0     H27917   2.996   8.068   8.105 -1.4005  4.1229 -1.2176
  207MOL0     H27918   3.108   8.201   8.096 -1.6910  0.4126  4.4861
  207MOL0     H27919   3.148   7.921   7.981 -2.2373 -0.2713  1.8607
  207MOL0     H27920   3.253   8.075   7.952 -1.2217  2.3401  0.5792
  207MOL0     H27921   2.964   8.013   7.858 -1.5581  3.6783  0.2743
  207MOL0     H27922   3.055   8.170   7.825  1.5952  0.5799  1.9324
  207MOL0     H27923   3.134   7.878   7.742 -2.3996  0.0849  0.1549
  207MOL0     H27924   3.229   8.032   7.723  1.4616 -2.4581 -1.1557
  207MOL0     H27925   3.100   7.954   7.518  0.0772 -1.1464  0.4402
  207MOL0     H27926   3.030   8.111   7.583 -3.9696 -0.2717 -1.9501
  207MOL0     H27927   3.345   7.917   8.650  2.8425  0.5213  3.3434
  207MOL0     H27928   3.480   7.835   8.801 -0.6382  1.0044 -0.1804
  207MOL0     H27929   3.741   7.487   8.894 -0.5881  1.0683 -1.5650
  207MOL0     H27930   3.859   7.376   9.077  0.7637  0.0977  1.7166
  207MOL0     H27931   5.018   6.583   9.043 -0.3762  1.6372 -0.6924
  207MOL0     H27932   5.249   6.529   9.080 -2.0463 -0.3953  1.8548
  207MOL0     H27933   5.492   6.067   9.247  1.2272  0.5770  0.4244
  207MOL0     H27934   5.728   6.027   9.299 -1.9415  0.4606 -0.0315
  207MOL0     H27935   5.953   5.993   9.326  2.2401  0.8335 -0.1227
  207MOL0     H27936   5.921   5.867   9.209  0.3625 -0.2637 -0.3160
  207MOL0     H27937   6.154   6.050   9.205 -2.9099  0.4857 -5.0197
  207MOL0     H27938   6.129   5.923   9.103 -1.0910  3.4354 -0.7531
  207MOL0     H27939   6.117   5.762   9.316 -0.5806 -0.1874 -0.4455
  207MOL0     H27940   6.188   5.906   9.398  4.0196 -2.0189  0.6428
  207MOL0     H27941   6.386   5.878   9.238  1.5072 -1.0676 -1.8975
  207MOL0     H27942   6.312   5.720   9.179  0.4763 -0.4613  0.2167
  207MOL0     H27943   6.478   5.591   9.532 -2.0082  0.1186  1.6260
  207MOL0     H27944   5.849   6.193   8.920  1.8020 -1.3468  1.2878
  207MOL0     H27945   5.622   6.293   8.896 -0.1644 -0.6273 -1.6513
  208MOL0     O27946   2.372   5.517   3.833 -0.2585  0.4300  1.1843
  208MOL0     C27947   2.431   5.584   3.754 -0.0861  0.1845  0.0047
  208MOL0     O27948   2.516   5.541   3.665 -0.6180  0.2196  0.4888
  208MOL0     C27949   2.520   5.422   3.605  0.5205  0.4648 -0.5783
  208MOL0     C27950   2.630   5.346   3.644 -0.5426  0.4324  0.1637
  208MOL0     C27951   2.656   5.234   3.574  1.0326  0.5488 -0.9828
  208MOL0     C27952   2.558   5.176   3.487  0.8002  1.1153 -0.1306
  208MOL0     O27953   2.566   5.049   3.429  0.5404  0.1994  0.7747
  208MOL0     C27954   2.658   4.948   3.471 -0.3952 -0.0546  0.3721
  208MOL0     C27955   2.682   4.856   3.345  0.1396 -0.3335 -0.1569
  208MOL0     C27956   2.783   4.741   3.384 -0.0611 -0.8676 -0.5096
  208MOL0     C27957   2.931   4.784   3.397 -0.1861  0.2827  0.5698
  208MOL0     C27958   3.027   4.665   3.432 -0.4283  0.3728 -0.3354
  208MOL0     C27959   3.040   4.639   3.585  1.2601  0.9700 -1.3416
  208MOL0     C27960   3.130   4.522   3.605  0.0757  0.8765  0.1296
  208MOL0     C27961   3.120   4.465   3.746  0.2684  0.7721  0.1356
  208MOL0     N27962   3.176   4.329   3.770  0.9641  0.7288  0.4010
  208MOL0     C27963   3.313   4.309   3.792 -0.3901 -0.0478 -0.2344
  208MOL0     C27964   3.321   4.172   3.805 -0.8678  0.0601 -0.7289
  208MOL0     C27965   3.442   4.098   3.851 -0.1493  0.5442 -0.6048
  208MOL0     C27966   3.471   3.970   3.773  0.3297 -0.5754 -0.0862
  208MOL0     C27967   3.513   3.860   3.851  0.0790  0.2580  0.2533
  208MOL0     C27968   3.546   3.739   3.763  0.2176  0.2570  0.2778
  208MOL0     O27969   3.564   3.621   3.845 -0.7103  0.9613  0.6316
  208MOL0     C27970   3.527   3.499   3.798 -0.4991 -1.2105  0.8998
  208MOL0     C27971   3.466   3.417   3.882 -0.1603 -0.9690  0.9655
  208MOL0     C27972   3.418   3.288   3.842  0.5625  0.0064  0.8957
  208MOL0     C27973   3.346   3.220   3.952  0.1269  0.3756  0.0074
  208MOL0     C27974   3.443   3.243   3.713 -0.1231 -1.0899 -0.3483
  208MOL0     C27975   3.412   3.108   3.658 -0.0307 -0.3808 -0.6571
  208MOL0     O27976   3.361   3.120   3.530 -0.9029  0.6268 -0.0368
  208MOL0     C27977   3.285   3.012   3.491  0.3550  0.0921  0.7944
  208MOL0     C27978   3.164   2.981   3.560 -0.3850  0.0063 -0.5010
  208MOL0     C27979   3.083   2.876   3.521 -0.2174 -0.0917 -1.1578
  208MOL0     C27980   3.129   2.787   3.424 -0.2429 -0.1341  0.6572
  208MOL0     O27981   3.057   2.677   3.380  1.2576  0.0998  0.6267
  208MOL0     C27982   2.987   2.605   3.489  0.1677  0.6956 -0.0188
  208MOL0     C27983   2.955   2.468   3.438  0.7480 -0.4359 -0.5716
  208MOL0     C27984   3.069   2.386   3.385 -1.3660 -0.1152  0.2123
  208MOL0     C27985   3.032   2.251   3.320  0.2487 -0.1036  0.3037
  208MOL0     C27986   3.151   2.191   3.254 -0.3684 -1.6442  0.0694
  208MOL0     C27987   3.118   2.072   3.178 -0.1167  1.2308 -0.0141
  208MOL0     C27988   3.234   1.996   3.114 -0.5579 -0.6570  0.4401
  208MOL0     C27989   3.298   2.068   2.999 -0.1015  0.2955 -0.1677
  208MOL0    Cl27990   3.423   1.963   2.935  0.0354  0.2064  0.2319
  208MOL0     C27991   3.246   2.816   3.357  0.0557  0.9608  0.4420
  208MOL0     C27992   3.321   2.929   3.384 -0.3744 -0.4746 -0.7035
  208MOL0     O27993   3.408   3.005   3.729 -0.8234  0.3842 -0.4627
  208MOL0     C27994   3.514   3.335   3.622  0.2749  0.6059 -0.4088
  208MOL0     C27995   3.544   3.464   3.670 -0.3406 -0.1634 -0.0278
  208MOL0     N27996   3.194   4.119   3.784 -0.2841 -1.4835 -0.5481
  208MOL0     N27997   3.106   4.211   3.761  0.1948 -0.2200 -0.0622
  208MOL0     C27998   2.447   5.251   3.454  0.1909  0.2283  0.6066
  208MOL0     C27999   2.427   5.382   3.504 -0.2664 -0.2243 -0.3494
  208MOL0     C28000   2.381   5.720   3.751  0.6220  0.1749 -0.0007
  208MOL0     C28001   2.433   5.819   3.668 -1.0417 -0.2028 -0.0820
  208MOL0     C28002   2.398   5.951   3.673 -0.5081  0.5231 -0.3149
  208MOL0     C28003   2.300   5.995   3.771 -0.4583 -0.8161  0.0872
  208MOL0     O28004   2.268   6.127   3.787 -0.4089  0.1652 -0.4314
  208MOL0     C28005   2.322   6.239   3.707  0.8445 -0.1746 -0.7467
  208MOL0     C28006   2.241   6.263   3.582  0.7808 -0.6770 -0.7719
  208MOL0     C28007   2.090   6.295   3.610  0.3919 -0.6047  0.4662
  208MOL0     C28008   2.026   6.365   3.485  0.8351 -0.2978  0.2621
  208MOL0     C28009   2.030   6.269   3.368 -0.1147  0.9448  0.0451
  208MOL0     C28010   2.038   6.187   3.280 -0.6374  0.0071  0.8583
  208MOL0     C28011   2.244   5.903   3.854 -0.1298 -0.0479 -0.6997
  208MOL0     C28012   2.280   5.768   3.851 -0.1695  0.0056 -0.1829
  208MOL0     H28013   2.699   5.391   3.716 -1.4617  2.3009 -0.0453
  208MOL0     H28014   2.733   5.162   3.600 -0.3205 -0.8835 -0.7664
  208MOL0     H28015   2.757   4.988   3.496 -1.1189  2.1820 -0.0439
  208MOL0     H28016   2.618   4.893   3.556 -0.6267  2.1535  1.7905
  208MOL0     H28017   2.589   4.805   3.320 -0.0854 -1.1781  2.1231
  208MOL0     H28018   2.719   4.918   3.263  3.0746 -2.7442 -0.8569
  208MOL0     H28019   2.761   4.706   3.486  3.8684  1.5788  1.4077
  208MOL0     H28020   2.773   4.651   3.323  2.6437 -1.6949  0.1181
  208MOL0     H28021   2.972   4.819   3.302  1.7447 -3.8636 -0.3944
  208MOL0     H28022   2.945   4.859   3.475  3.5549 -0.2597  0.6289
  208MOL0     H28023   2.993   4.577   3.376  0.6472  0.3305 -0.9365
  208MOL0     H28024   3.130   4.680   3.400 -0.4266 -0.6846 -0.8545
  208MOL0     H28025   3.099   4.717   3.634  1.8534 -0.9591  1.2477
  208MOL0     H28026   2.941   4.641   3.632  0.3797  2.4918 -3.1601
  208MOL0     H28027   3.092   4.447   3.535  1.6988  0.7144 -0.6028
  208MOL0     H28028   3.235   4.535   3.579  2.1679 -2.4693  5.3853
  208MOL0     H28029   3.012   4.460   3.762  0.0168  2.3663 -0.8035
  208MOL0     H28030   3.175   4.520   3.823 -1.5589  0.6692  1.5878
  208MOL0     H28031   3.395   4.379   3.803  0.9725 -1.9669  3.3565
  208MOL0     H28032   3.523   4.171   3.854 -0.0292  0.4273  2.4572
  208MOL0     H28033   3.419   4.069   3.954 -1.2482  0.7956 -0.7690
  208MOL0     H28034   3.528   3.989   3.681 -0.6495 -2.9772 -1.2652
  208MOL0     H28035   3.376   3.937   3.731 -0.5850  1.4135  0.2911
  208MOL0     H28036   3.424   3.840   3.911  2.2543 -0.2709  3.4932
  208MOL0     H28037   3.602   3.885   3.909 -0.3552 -0.0322  1.0557
  208MOL0     H28038   3.642   3.763   3.717 -0.0319 -0.4540 -0.6454
  208MOL0     H28039   3.462   3.722   3.694 -2.4137  2.9213  2.5331
  208MOL0     H28040   3.440   3.442   3.985 -1.2841 -0.9045  0.6837
  208MOL0     H28041   3.392   3.124   3.978 -2.2679 -0.4479  1.5120
  208MOL0     H28042   3.352   3.279   4.044  3.7087  0.4574 -0.1657
  208MOL0     H28043   3.240   3.203   3.930  0.1275 -0.1896  0.3982
  208MOL0     H28044   3.140   3.051   3.640  1.5120 -0.8761  0.9086
  208MOL0     H28045   2.999   2.852   3.586  0.3628 -1.6150 -0.9192
  208MOL0     H28046   3.054   2.584   3.573 -0.0561  1.5633  0.3844
  208MOL0     H28047   2.903   2.659   3.532 -2.4271  1.5125 -5.3435
  208MOL0     H28048   2.902   2.409   3.513  3.9380 -3.9484 -0.7874
  208MOL0     H28049   2.894   2.466   3.347  1.9876 -2.9161 -1.4401
  208MOL0     H28050   3.134   2.364   3.470 -0.3278 -0.9436 -0.7492
  208MOL0     H28051   3.130   2.435   3.308 -2.0555 -3.7365 -2.9874
  208MOL0     H28052   2.992   2.186   3.397 -0.4053  0.7583  0.7086
  208MOL0     H28053   2.957   2.272   3.243 -0.2392  0.6854  0.9859
  208MOL0     H28054   3.206   2.150   3.339 -1.2200 -2.3785  0.2876
  208MOL0     H28055   3.218   2.269   3.217  0.8096 -1.6068  2.1246
  208MOL0     H28056   3.055   2.010   3.242 -1.3488  2.9711  0.5603
  208MOL0     H28057   3.057   2.105   3.093 -1.0165 -1.9947 -0.7562
  208MOL0     H28058   3.201   1.897   3.082  1.6750 -1.3206 -0.0375
  208MOL0     H28059   3.315   1.971   3.183  0.7339  0.5014 -0.5710
  208MOL0     H28060   3.330   2.164   3.040  1.9550 -1.1834  1.9653
  208MOL0     H28061   3.221   2.084   2.923  0.4157  1.8803 -0.3942
  208MOL0     H28062   3.280   2.741   3.286  0.5461 -1.4143  3.0081
  208MOL0     H28063   3.411   2.950   3.327  1.2476 -1.3240  1.3976
  208MOL0     H28064   3.532   3.316   3.517 -0.7749  1.0465 -0.6823
  208MOL0     H28065   3.576   3.537   3.596  1.8810 -1.4897 -0.4387
  208MOL0     H28066   2.377   5.214   3.379 -0.0681 -1.6868  1.7332
  208MOL0     H28067   2.335   5.435   3.483  0.7922  1.4172 -1.0639
  208MOL0     H28068   2.489   5.784   3.581 -2.2287  0.9907 -1.3888
  208MOL0     H28069   2.423   6.022   3.594  0.4408  0.2224 -0.2958
  208MOL0     H28070   2.313   6.332   3.764  1.7779  1.8122 -3.6035
  208MOL0     H28071   2.428   6.222   3.683  0.2466 -4.1214 -1.3549
  208MOL0     H28072   2.251   6.172   3.523  1.8807 -1.6021  0.7623
  208MOL0     H28073   2.295   6.342   3.529 -1.5800 -0.9710 -3.8967
  208MOL0     H28074   2.064   6.350   3.701 -0.9057 -1.5915  0.7250
  208MOL0     H28075   2.037   6.202   3.630 -1.7199  0.6980  1.2939
  208MOL0     H28076   2.072   6.459   3.457 -0.1305  0.3032  0.6387
  208MOL0     H28077   1.923   6.393   3.510  1.5181  4.5005 -1.3126
  208MOL0     H28078   2.047   6.125   3.193  0.4282 -0.9339  1.6203
  208MOL0     H28079   2.178   5.938   3.932  0.3587  1.2704 -0.8424
  208MOL0     H28080   2.253   5.710   3.938  1.6765 -0.4738  0.1164
  209MOL0     O28081   8.497  10.214   2.666 -0.7295  0.3065  0.6018
  209MOL0     C28082   8.451  10.133   2.746 -0.4517 -0.0676 -0.8462
  209MOL0     O28083   8.515  10.020   2.788 -0.7668 -0.1252  0.3933
  209MOL0     C28084   8.643  10.006   2.749 -0.6099 -0.1989 -0.5096
  209MOL0     C28085   8.683   9.907   2.651  0.0300 -0.4106  0.2102
  209MOL0     C28086   8.821   9.883   2.630  0.1543  0.0509  0.2056
  209MOL0     C28087   8.910   9.945   2.710  0.1649 -0.7633  0.0280
  209MOL0     O28088   9.045   9.916   2.698 -0.4843  0.0572  0.3631
  209MOL0     C28089   9.084   9.785   2.641 -0.2877  0.3754  0.1620
  209MOL0     C28090   9.242   9.757   2.654 -0.9885  0.2276 -0.7238
  209MOL0     C28091   9.326   9.847   2.568 -0.5863  0.3396  0.0330
  209MOL0     C28092   9.473   9.840   2.607  0.3785  0.7564 -0.3425
  209MOL0     C28093   9.544   9.703   2.581 -0.4952 -0.4634  0.1888
  209MOL0     C28094   9.690   9.726   2.635 -0.4917 -0.6819  0.3851
  209MOL0     C28095   9.760   9.586   2.661 -0.1982 -0.8265 -0.0355
  209MOL0     C28096   9.901   9.597   2.717  0.2741  0.8157 -0.2542
  209MOL0     N28097   9.950   9.455   2.731 -0.1473  0.0362 -0.4083
  209MOL0     C28098  10.008   9.367   2.639 -0.4695  0.5616  0.1812
  209MOL0     C28099  10.017   9.246   2.699  0.3032 -0.2306  0.0537
  209MOL0     C28100  10.049   9.113   2.648 -0.4079  0.4050  0.5247
  209MOL0     C28101  10.186   9.065   2.689  0.1861 -0.3232  0.5921
  209MOL0     C28102  10.222   8.926   2.641 -0.7902 -0.3673  0.6843
  209MOL0     C28103  10.351   8.872   2.705 -0.0551  0.6489 -0.3343
  209MOL0     O28104  10.457   8.963   2.710  0.2771  0.0357 -0.1991
  209MOL0     C28105  10.578   8.919   2.676 -0.2321 -0.0927  0.6715
  209MOL0     C28106  10.627   8.790   2.681 -0.1860  0.2252  0.2681
  209MOL0     C28107  10.757   8.756   2.629 -0.2281  0.5650 -0.6076
  209MOL0     C28108  10.816   8.611   2.640  0.1423 -0.0691  0.2083
  209MOL0     C28109  10.823   8.857   2.553 -0.5558 -0.4832 -0.1440
  209MOL0     C28110  10.948   8.817   2.484 -0.0049  0.5540 -0.2172
  209MOL0     O28111  11.063   8.785   2.542 -0.5303 -0.2470 -0.1994
  209MOL0     C28112  11.186   8.843   2.505  0.1130  0.7154  0.7231
  209MOL0     C28113  11.199   8.934   2.402  0.1195  1.1761  0.1907
  209MOL0     C28114  11.324   8.993   2.369 -0.6365  0.8050 -0.2344
  209MOL0     C28115  11.439   8.961   2.449 -0.0337 -0.5871  0.7826
  209MOL0     O28116  11.567   9.018   2.433  0.4800  0.2323  0.2119
  209MOL0     C28117  11.601   9.114   2.331  0.4377 -0.0677 -0.0420
  209MOL0     C28118  11.750   9.108   2.312 -0.1469  1.1822  1.0764
  209MOL0     C28119  11.833   9.139   2.444  0.6106  0.0514  1.1094
  209MOL0     C28120  11.985   9.127   2.429  0.0717  0.3336  0.4714
  209MOL0     C28121  12.059   9.173   2.563 -1.3519 -0.2424 -0.7125
  209MOL0     C28122  12.200   9.114   2.575  0.1294  0.6805  0.5134
  209MOL0     C28123  12.247   9.114   2.721 -0.8889 -0.0849  0.1992
  209MOL0     C28124  12.395   9.078   2.729  0.5548 -0.7681  0.2073
  209MOL0    Cl28125  12.454   9.073   2.890 -0.0031 -0.0346 -0.0781
  209MOL0     C28126  11.428   8.857   2.538 -0.5352  0.6362 -0.0882
  209MOL0     C28127  11.304   8.797   2.558  0.8166  1.7582  0.0116
  209MOL0     O28128  10.933   8.831   2.365  0.6824 -0.3596 -0.7100
  209MOL0     C28129  10.771   8.989   2.549  0.3053  0.6812  0.0805
  209MOL0     C28130  10.650   9.019   2.618 -0.5066  0.2954 -0.9504
  209MOL0     N28131   9.967   9.263   2.820 -0.2732  0.0338 -0.1521
  209MOL0     N28132   9.934   9.386   2.843  0.3473 -0.5439 -0.1460
  209MOL0     C28133   8.881  10.045   2.796  0.3771  0.0743  0.1513
  209MOL0     C28134   8.746  10.067   2.825 -0.3916  0.4790  0.0729
  209MOL0     C28135   8.308  10.144   2.793 -0.4792  0.1448  0.4140
  209MOL0     C28136   8.221  10.201   2.693 -0.4864 -0.8852  0.1992
  209MOL0     C28137   8.086  10.191   2.705  0.5287 -0.4809 -0.5278
  209MOL0     C28138   8.034  10.111   2.812  0.5727  0.6145  0.5045
  209MOL0     O28139   7.904  10.074   2.841 -0.5079 -0.2471 -0.1890
  209MOL0     C28140   7.803  10.171   2.802 -0.3282 -0.0675 -0.6983
  209MOL0     C28141   7.820  10.310   2.866 -0.3667  0.1973 -0.4836
  209MOL0     C28142   7.726  10.423   2.815 -0.3467  0.1295  0.5475
  209MOL0     C28143   7.761  10.478   2.674  0.2104  0.6674 -0.8980
  209MOL0     C28144   7.899  10.537   2.679 -0.0442  0.8079  0.0338
  209MOL0     C28145   8.011  10.584   2.681 -0.1126 -0.2731 -0.1132
  209MOL0     C28146   8.125  10.053   2.904  0.7035 -0.1036 -0.4082
  209MOL0     C28147   8.260  10.070   2.900  1.2179  0.4219  0.0935
  209MOL0     H28148   8.604   9.853   2.601 -3.0978  0.7452  3.4604
  209MOL0     H28149   8.845   9.830   2.539 -2.4061  0.1303 -0.5735
  209MOL0     H28150   9.040   9.701   2.697  3.7801  0.1736  3.6083
  209MOL0     H28151   9.063   9.779   2.534  2.6315 -2.8732 -0.4193
  209MOL0     H28152   9.275   9.777   2.756  1.2117 -2.6747 -0.7380
  209MOL0     H28153   9.270   9.653   2.634  2.6113  0.2522  2.9564
  209MOL0     H28154   9.319   9.821   2.462 -0.2844  1.4062 -0.2606
  209MOL0     H28155   9.294   9.951   2.576  2.6562  1.5218 -0.5842
  209MOL0     H28156   9.536   9.913   2.556  1.2589 -0.4058 -0.9597
  209MOL0     H28157   9.480   9.870   2.712  2.4008 -1.0193  0.1249
  209MOL0     H28158   9.497   9.619   2.633  0.7861 -2.0380 -1.0994
  209MOL0     H28159   9.538   9.689   2.473  2.3523  0.4761 -0.1715
  209MOL0     H28160   9.749   9.788   2.566  0.3012 -1.9276 -0.0902
  209MOL0     H28161   9.677   9.766   2.736 -1.3671  1.6343 -0.5714
  209MOL0     H28162   9.691   9.528   2.723 -0.5487  1.5749  1.9847
  209MOL0     H28163   9.764   9.529   2.567 -0.5191  0.5096 -0.8915
  209MOL0     H28164   9.905   9.652   2.811 -1.0209  0.4458  0.0440
  209MOL0     H28165   9.974   9.656   2.660  1.4968  0.0470  0.4820
  209MOL0     H28166  10.038   9.382   2.535 -1.5234  1.6735  0.0194
  209MOL0     H28167   9.979   9.035   2.678  0.1876  0.0565  1.0453
  209MOL0     H28168  10.049   9.113   2.539 -0.2426 -2.9597  0.4179
  209MOL0     H28169  10.207   9.074   2.796  1.8032  1.3934  0.1904
  209MOL0     H28170  10.249   9.136   2.635 -1.5087  0.7281 -0.0930
  209MOL0     H28171  10.246   8.924   2.534  1.7041  3.1865  0.9878
  209MOL0     H28172  10.138   8.859   2.662 -2.4973  1.4586  0.0836
  209MOL0     H28173  10.379   8.792   2.636  0.6165  1.4935 -1.0681
  209MOL0     H28174  10.334   8.843   2.809 -1.2710 -3.6447 -1.5189
  209MOL0     H28175  10.569   8.705   2.717 -0.2522 -0.7990 -2.0325
  209MOL0     H28176  10.802   8.554   2.548 -0.8465 -2.4630  1.7317
  209MOL0     H28177  10.920   8.609   2.675 -0.7197  2.4210  3.3594
  209MOL0     H28178  10.763   8.551   2.715 -0.5556 -0.0552 -0.2672
  209MOL0     H28179  11.113   8.982   2.357  0.3882  5.0924  3.3682
  209MOL0     H28180  11.327   9.077   2.301  0.0801  1.0290  0.0625
  209MOL0     H28181  11.544   9.082   2.244 -2.7567 -4.2042  3.1207
  209MOL0     H28182  11.565   9.213   2.359 -0.4048  0.2961 -2.2300
  209MOL0     H28183  11.771   9.003   2.291 -3.7757 -0.2045  3.3073
  209MOL0     H28184  11.783   9.164   2.224  2.0355 -0.8247  0.5105
  209MOL0     H28185  11.807   9.069   2.524 -2.2494 -2.3378 -1.6187
  209MOL0     H28186  11.795   9.237   2.472  1.2185  0.7324 -0.3385
  209MOL0     H28187  12.013   9.022   2.416  0.2601  0.8131 -4.9162
  209MOL0     H28188  12.033   9.159   2.337  2.5097 -1.0592  1.1736
  209MOL0     H28189  11.993   9.132   2.641 -2.1420  2.9013  0.4237
  209MOL0     H28190  12.049   9.282   2.563 -3.5763 -0.3966 -1.3772
  209MOL0     H28191  12.203   9.011   2.540  0.7263 -0.2481  3.0580
  209MOL0     H28192  12.270   9.170   2.513 -0.6704  2.3337  1.0246
  209MOL0     H28193  12.197   9.039   2.784  0.3520  0.1308  1.5124
  209MOL0     H28194  12.231   9.214   2.762 -0.6560  1.3777 -2.9834
  209MOL0     H28195  12.448   9.156   2.674  0.0407 -0.7568 -0.2844
  209MOL0     H28196  12.406   8.978   2.687 -1.1864 -1.1573  0.6282
  209MOL0     H28197  11.515   8.813   2.584  1.6014  3.0974 -1.4632
  209MOL0     H28198  11.296   8.718   2.632  2.9921  2.7697  1.4311
  209MOL0     H28199  10.816   9.068   2.491 -0.6380  1.2398  0.0959
  209MOL0     H28200  10.619   9.122   2.625  0.9437  0.6895  0.0878
  209MOL0     H28201   8.949  10.097   2.862  2.1078  0.4338 -1.8134
  209MOL0     H28202   8.715  10.143   2.896 -3.6555  0.1635 -0.8200
  209MOL0     H28203   8.263  10.261   2.612 -0.5487 -4.2556 -2.5934
  209MOL0     H28204   8.018  10.239   2.635  0.6416  0.4497 -0.0142
  209MOL0     H28205   7.796  10.182   2.693 -2.1923  0.2500 -0.5778
  209MOL0     H28206   7.707  10.132   2.838  0.5691  0.8316  3.0470
  209MOL0     H28207   7.923  10.346   2.865 -0.1664 -0.2740 -2.7378
  209MOL0     H28208   7.799  10.294   2.972 -1.1590 -1.3512 -0.8451
  209MOL0     H28209   7.720  10.514   2.874 -1.5780  1.4665 -1.5161
  209MOL0     H28210   7.622  10.391   2.820  0.2590 -2.2335 -0.3277
  209MOL0     H28211   7.695  10.554   2.632 -0.2671  1.2198  0.7832
  209MOL0     H28212   7.741  10.393   2.607  0.0196  1.2924 -1.6406
  209MOL0     H28213   8.105  10.631   2.704 -0.1771 -1.3447  2.6186
  209MOL0     H28214   8.074   9.996   2.981 -0.5751 -1.6261 -2.2641
  209MOL0     H28215   8.334  10.037   2.972  3.4167 -1.5885 -2.8278
  210MOL0     O28216   4.812   9.235   1.574  0.6397  0.8431 -0.3726
  210MOL0     C28217   4.747   9.164   1.495  0.5717  0.1862 -0.2461
  210MOL0     O28218   4.746   9.033   1.479  0.6769  0.1954  0.2561
  210MOL0     C28219   4.842   8.960   1.547 -0.1682 -0.2774 -0.1925
  210MOL0     C28220   4.811   8.832   1.582  0.0511  0.2466  0.4709
  210MOL0     C28221   4.893   8.747   1.649 -0.6671 -0.7443 -0.0308
  210MOL0     C28222   5.021   8.783   1.669 -0.0298  0.0649  0.1094
  210MOL0     O28223   5.113   8.702   1.723  0.2321  0.2474  0.2353
  210MOL0     C28224   5.238   8.706   1.656  0.7349 -0.5111 -0.6087
  210MOL0     C28225   5.328   8.593   1.692  0.2747 -0.2540  0.2223
  210MOL0     C28226   5.419   8.568   1.570  0.0712  0.3288 -0.5975
  210MOL0     C28227   5.569   8.525   1.594  0.5715 -0.5978  0.3209
  210MOL0     C28228   5.654   8.650   1.629 -0.0455  0.1421 -0.8519
  210MOL0     C28229   5.795   8.626   1.672  0.8072  0.4630 -1.1024
  210MOL0     C28230   5.799   8.611   1.828  0.6117  0.5741  0.0101
  210MOL0     C28231   5.939   8.613   1.874  0.5495  0.0953 -0.1955
  210MOL0     N28232   5.948   8.562   2.011 -0.6874 -0.3127 -0.0820
  210MOL0     C28233   6.000   8.638   2.111 -0.2425  0.0367 -0.3969
  210MOL0     C28234   6.002   8.564   2.223  0.9633  0.5023  0.6963
  210MOL0     C28235   6.038   8.602   2.372 -0.1495 -1.3685  0.5482
  210MOL0     C28236   6.173   8.544   2.417 -0.7280 -0.7541  0.7618
  210MOL0     C28237   6.294   8.577   2.318 -0.5608  0.4004  0.2778
  210MOL0     C28238   6.431   8.508   2.363 -0.9292  1.2344 -0.3264
  210MOL0     O28239   6.548   8.560   2.304 -0.3630  0.1731  0.1242
  210MOL0     C28240   6.626   8.481   2.231  1.2505 -0.2635  0.3371
  210MOL0     C28241   6.583   8.399   2.131 -0.2410  0.5688  0.1079
  210MOL0     C28242   6.678   8.336   2.044 -0.5673  0.7052 -0.1501
  210MOL0     C28243   6.614   8.241   1.941 -0.6558 -1.5742 -0.0129
  210MOL0     C28244   6.819   8.357   2.065 -0.0784 -1.3145 -0.4702
  210MOL0     C28245   6.925   8.290   1.978 -0.0267  0.1470 -0.2608
  210MOL0     O28246   6.893   8.250   1.849 -0.4306 -0.5920  0.3903
  210MOL0     C28247   6.976   8.167   1.775 -0.4053  0.1848  0.0993
  210MOL0     C28248   7.109   8.199   1.748 -0.0486  0.4116 -0.1901
  210MOL0     C28249   7.183   8.113   1.668 -0.5272 -0.4705 -0.2364
  210MOL0     C28250   7.136   7.995   1.607  0.3603 -0.7135  0.1808
  210MOL0     O28251   7.208   7.895   1.541  0.5068 -0.4644  0.1757
  210MOL0     C28252   7.331   7.940   1.486 -0.1822 -0.4883 -0.0132
  210MOL0     C28253   7.396   7.832   1.415  0.4707 -0.3734  0.1827
  210MOL0     C28254   7.537   7.873   1.377  0.0713 -0.2627  0.2179
  210MOL0     C28255   7.570   7.806   1.242  0.2001  0.2957  0.1711
  210MOL0     C28256   7.699   7.855   1.179  0.0210 -0.5467 -0.2274
  210MOL0     C28257   7.721   7.857   1.028  1.1344  0.7757 -0.0691
  210MOL0     C28258   7.700   7.719   0.957 -0.1585  0.2589  0.2448
  210MOL0     C28259   7.720   7.724   0.803 -0.0314 -0.0337  0.3229
  210MOL0    Cl28260   7.873   7.646   0.754 -0.1163  0.0603  0.1393
  210MOL0     C28261   7.004   7.964   1.635  0.0976  0.1138  0.3226
  210MOL0     C28262   6.919   8.046   1.717  0.2388 -0.2181 -0.4699
  210MOL0     O28263   7.031   8.274   2.033 -0.1847 -0.2691 -0.5564
  210MOL0     C28264   6.867   8.441   2.177 -0.3338  0.8180  0.0648
  210MOL0     C28265   6.766   8.496   2.257  0.7107  0.4305  0.0922
  210MOL0     N28266   5.955   8.438   2.188  0.2702  0.3164 -0.2522
  210MOL0     N28267   5.926   8.444   2.061 -0.6161  0.1219  0.2245
  210MOL0     C28268   5.063   8.915   1.646  0.8006 -0.3454  0.0189
  210MOL0     C28269   4.972   9.001   1.581  0.3381 -0.4694 -0.3043
  210MOL0     C28270   4.643   9.231   1.410 -0.4111  0.2688  0.0828
  210MOL0     C28271   4.645   9.369   1.404 -0.1014  0.1977  0.7363
  210MOL0     C28272   4.558   9.444   1.311 -0.5249  0.0587 -0.4091
  210MOL0     C28273   4.482   9.375   1.220 -0.8306  0.2118 -0.3758
  210MOL0     O28274   4.407   9.446   1.129  0.5299  0.1647 -0.5792
  210MOL0     C28275   4.270   9.424   1.160  0.0881 -0.0393  1.0619
  210MOL0     C28276   4.222   9.524   1.269 -1.0273  0.8067  0.3484
  210MOL0     C28277   4.082   9.478   1.317  0.1711  0.6910 -0.0457
  210MOL0     C28278   4.026   9.581   1.414  0.3051  0.3801 -0.6272
  210MOL0     C28279   3.964   9.688   1.344  0.4623 -0.7467  0.5662
  210MOL0     C28280   3.914   9.774   1.271  0.6712  0.0782  0.2584
  210MOL0     C28281   4.489   9.233   1.217  0.1431 -0.3037 -0.1138
  210MOL0     C28282   4.561   9.166   1.321 -0.3694 -0.5237  0.3095
  210MOL0     H28283   4.708   8.799   1.570  1.0150 -1.8593 -3.6697
  210MOL0     H28284   4.868   8.644   1.667 -1.2846 -0.8327 -1.2982
  210MOL0     H28285   5.230   8.726   1.549 -3.8229  1.1112 -0.2009
  210MOL0     H28286   5.291   8.792   1.699 -1.8624  0.2733  1.2822
  210MOL0     H28287   5.396   8.617   1.774  0.6223 -3.2684  0.9585
  210MOL0     H28288   5.263   8.507   1.713  1.5066 -0.7792  2.1657
  210MOL0     H28289   5.371   8.483   1.520 -1.6725 -0.1212  1.6930
  210MOL0     H28290   5.416   8.658   1.508  0.6653  3.6207  3.6300
  210MOL0     H28291   5.576   8.452   1.675 -1.5185 -1.1826  0.0273
  210MOL0     H28292   5.614   8.471   1.511 -1.5845 -1.5798 -0.2846
  210MOL0     H28293   5.656   8.717   1.542  0.6062  0.0633 -0.9065
  210MOL0     H28294   5.602   8.690   1.716  0.4477  0.9109 -0.8946
  210MOL0     H28295   5.839   8.539   1.623 -2.1010 -2.7181  1.4368
  210MOL0     H28296   5.840   8.723   1.652 -0.3520  1.1595 -0.4577
  210MOL0     H28297   5.742   8.691   1.874 -0.2775 -0.9996  1.7816
  210MOL0     H28298   5.743   8.521   1.856 -1.3931  1.0470 -2.1881
  210MOL0     H28299   5.966   8.719   1.874  0.2473  0.1901  1.0683
  210MOL0     H28300   6.001   8.560   1.801 -0.1989 -2.7068  1.0646
  210MOL0     H28301   6.047   8.736   2.108 -2.2386  1.0660 -0.4277
  210MOL0     H28302   6.054   8.711   2.379 -1.6235 -1.0840 -0.1932
  210MOL0     H28303   5.957   8.580   2.441 -0.1665 -1.0774  0.6223
  210MOL0     H28304   6.175   8.435   2.426 -1.3475 -1.0285 -1.8519
  210MOL0     H28305   6.202   8.585   2.515 -0.5309 -2.6458  1.5271
  210MOL0     H28306   6.304   8.684   2.295 -1.8587  0.1555 -1.5832
  210MOL0     H28307   6.280   8.531   2.220  0.2537 -1.2269  0.8952
  210MOL0     H28308   6.433   8.400   2.348  4.7269  1.1215 -1.1854
  210MOL0     H28309   6.438   8.522   2.472  1.5414  1.9481 -0.5075
  210MOL0     H28310   6.475   8.394   2.122 -0.1338 -0.1348 -0.8677
  210MOL0     H28311   6.653   8.263   1.841 -1.4329  1.7333  0.2782
  210MOL0     H28312   6.641   8.138   1.961  4.2728 -0.0161  3.0221
  210MOL0     H28313   6.507   8.262   1.927 -0.0277  0.1808 -3.1917
  210MOL0     H28314   7.154   8.291   1.783  2.9951 -0.5777 -1.1450
  210MOL0     H28315   7.288   8.140   1.658 -0.3113 -1.3848 -0.5387
  210MOL0     H28316   7.324   8.023   1.415  1.2503 -1.8047 -1.7792
  210MOL0     H28317   7.383   7.957   1.581 -1.9613 -3.7425  1.7154
  210MOL0     H28318   7.385   7.737   1.467 -0.3888 -0.5032 -0.2114
  210MOL0     H28319   7.340   7.823   1.322 -1.3246 -3.4816  1.4250
  210MOL0     H28320   7.607   7.848   1.457 -0.7735  2.1611  1.8358
  210MOL0     H28321   7.553   7.980   1.361  1.4585 -0.4301  0.3465
  210MOL0     H28322   7.570   7.697   1.229  3.9838  0.4876 -3.5100
  210MOL0     H28323   7.504   7.846   1.164 -0.4561  0.9389  1.0423
  210MOL0     H28324   7.769   7.778   1.211  1.9436  0.9057 -0.7919
  210MOL0     H28325   7.728   7.952   1.221  1.5642 -1.0935  0.0250
  210MOL0     H28326   7.655   7.930   0.979 -1.9263 -1.4269  0.5220
  210MOL0     H28327   7.822   7.896   1.012 -0.2900  4.7649 -0.5620
  210MOL0     H28328   7.598   7.691   0.982  0.0995  0.8544  2.1042
  210MOL0     H28329   7.757   7.633   0.995 -1.0228 -0.6029 -0.3504
  210MOL0     H28330   7.728   7.824   0.760  3.6547  0.5227  1.8666
  210MOL0     H28331   7.642   7.668   0.751 -1.8418  1.6490  1.1036
  210MOL0     H28332   6.952   7.882   1.588  0.3267  0.0321  0.2124
  210MOL0     H28333   6.821   8.010   1.747  0.6662 -1.0490 -0.0262
  210MOL0     H28334   6.972   8.454   2.202 -0.2645  0.3756  0.0030
  210MOL0     H28335   6.782   8.556   2.346  2.5336 -3.4119  2.6421
  210MOL0     H28336   5.163   8.950   1.673  0.8838  0.6377 -1.4900
  210MOL0     H28337   5.011   9.099   1.558 -0.7074  0.6341  2.2155
  210MOL0     H28338   4.701   9.429   1.475  1.8260  0.2439 -0.7358
  210MOL0     H28339   4.569   9.552   1.311 -4.0383  0.5474 -1.8761
  210MOL0     H28340   4.204   9.447   1.076  0.2190  0.2227  1.0319
  210MOL0     H28341   4.251   9.320   1.189 -0.2925 -0.3758 -0.3528
  210MOL0     H28342   4.219   9.622   1.221  0.2899 -0.5289 -2.7533
  210MOL0     H28343   4.305   9.537   1.339 -0.3787  1.8742 -0.5848
  210MOL0     H28344   4.086   9.380   1.366 -1.7290  0.5216 -0.1605
  210MOL0     H28345   4.013   9.473   1.232  0.5015 -1.0588 -0.2338
  210MOL0     H28346   4.104   9.625   1.479  0.5163  1.5043 -1.6078
  210MOL0     H28347   3.962   9.538   1.491  1.9376  1.1495  1.2869
  210MOL0     H28348   3.887   9.860   1.214  1.9528  0.4087  0.1151
  210MOL0     H28349   4.423   9.192   1.141 -0.3953  0.3699 -0.0174
  210MOL0     H28350   4.551   9.058   1.308 -1.1734 -0.2916 -1.2155
  211MOL0     O28351  10.424   2.352   8.304 -0.3367 -0.8196  0.4266
  211MOL0     C28352  10.526   2.394   8.371 -0.3623 -0.5246 -0.1942
  211MOL0     O28353  10.546   2.388   8.506  0.5263  0.0725 -0.7494
  211MOL0     C28354  10.458   2.315   8.578 -0.3226  0.0891  0.2666
  211MOL0     C28355  10.405   2.189   8.532 -0.2305  0.5293 -0.0231
  211MOL0     C28356  10.327   2.117   8.617  0.0373  0.1091 -1.2439
  211MOL0     C28357  10.295   2.161   8.748 -0.9249  0.9151 -0.2021
  211MOL0     O28358  10.223   2.063   8.813 -0.4834 -0.2235 -0.3262
  211MOL0     C28359  10.113   2.109   8.897  0.9456 -0.6222  0.5295
  211MOL0     C28360  10.162   2.093   9.039 -0.3000  0.9978  0.3228
  211MOL0     C28361  10.194   1.949   9.088 -0.1050  0.6710 -0.9215
  211MOL0     C28362  10.286   1.962   9.215 -0.5940 -0.0494  0.8082
  211MOL0     C28363  10.317   1.822   9.270 -0.4132 -0.1012 -0.0672
  211MOL0     C28364  10.431   1.816   9.369 -0.0735 -0.3405 -0.1475
  211MOL0     C28365  10.576   1.805   9.294  0.4036 -0.1137  0.1982
  211MOL0     C28366  10.672   1.754   9.397 -0.4582 -0.8740  0.0790
  211MOL0     N28367  10.801   1.722   9.327 -0.5323 -0.8794  0.2554
  211MOL0     C28368  10.912   1.796   9.332 -0.2926 -0.5021  0.2725
  211MOL0     C28369  11.018   1.733   9.276 -0.2510 -0.5556 -0.5561
  211MOL0     C28370  11.161   1.780   9.267 -0.1807  0.2429 -0.2880
  211MOL0     C28371  11.255   1.728   9.378 -0.1476  0.4516  0.2222
  211MOL0     C28372  11.304   1.583   9.358  0.2262 -1.3545 -0.7436
  211MOL0     C28373  11.361   1.525   9.226 -0.9195  0.0295  0.0244
  211MOL0     O28374  11.463   1.597   9.165 -0.6111 -1.6362 -0.2858
  211MOL0     C28375  11.592   1.569   9.186 -0.6814 -0.1111  0.2579
  211MOL0     C28376  11.672   1.587   9.075 -0.1128  0.6226  0.3237
  211MOL0     C28377  11.810   1.561   9.083 -0.0825  0.6397 -0.0918
  211MOL0     C28378  11.884   1.582   8.949 -0.4401 -0.9069 -0.9640
  211MOL0     C28379  11.875   1.544   9.202  0.5316  0.5939 -0.2411
  211MOL0     C28380  12.019   1.540   9.220 -0.6673  0.0619 -0.6284
  211MOL0     O28381  12.069   1.493   9.342  0.3736 -0.1808 -0.3928
  211MOL0     C28382  12.186   1.535   9.400 -0.6552  0.5641  0.2784
  211MOL0     C28383  12.245   1.453   9.508 -0.3981 -0.8449  0.0311
  211MOL0     C28384  12.355   1.515   9.578  0.8252 -0.1678  0.4764
  211MOL0     C28385  12.410   1.639   9.547  0.8524 -0.9226  0.0640
  211MOL0     O28386  12.518   1.674   9.621  0.3238 -0.3881 -0.7731
  211MOL0     C28387  12.584   1.806   9.622  0.2578 -0.2159 -0.2647
  211MOL0     C28388  12.679   1.804   9.507 -0.3092 -0.7567 -0.7147
  211MOL0     C28389  12.811   1.885   9.544  0.4273  0.0300 -0.4144
  211MOL0     C28390  12.928   1.831   9.464  0.4254 -0.5351  0.5716
  211MOL0     C28391  13.065   1.896   9.499  0.4470  0.7445 -0.3127
  211MOL0     C28392  13.108   1.838   9.634  0.6219  0.4110  0.0402
  211MOL0     C28393  13.259   1.866   9.666  0.7042 -0.1612 -0.0401
  211MOL0     C28394  13.296   1.867   9.823  0.2132  0.0411  0.3096
  211MOL0    Cl28395  13.233   1.723   9.901 -0.1056 -0.1696 -0.2564
  211MOL0     C28396  12.355   1.713   9.442  0.3033 -0.8606  0.1471
  211MOL0     C28397  12.235   1.668   9.380 -0.6366  0.8277  0.6227
  211MOL0     O28398  12.084   1.588   9.132 -0.5275  0.4280  0.0607
  211MOL0     C28399  11.794   1.528   9.317 -0.0912 -0.0208  0.3507
  211MOL0     C28400  11.651   1.541   9.309 -0.1543  0.1995  0.2490
  211MOL0     N28401  10.966   1.611   9.235 -0.3359  0.7670 -0.4933
  211MOL0     N28402  10.839   1.607   9.271 -0.1662  0.7879  0.3451
  211MOL0     C28403  10.336   2.288   8.786 -0.3793 -0.8838  0.6337
  211MOL0     C28404  10.422   2.366   8.699 -0.4540 -0.0977  0.1600
  211MOL0     C28405  10.647   2.428   8.296 -0.9703 -0.3332 -0.8030
  211MOL0     C28406  10.629   2.482   8.167  0.7267  0.0648 -0.1548
  211MOL0     C28407  10.742   2.502   8.085  0.3191  0.9259  0.4428
  211MOL0     C28408  10.870   2.491   8.143 -0.4247 -0.9403 -0.3668
  211MOL0     O28409  10.977   2.519   8.052 -0.0758 -0.4549  0.1772
  211MOL0     C28410  11.104   2.556   8.090 -0.1423 -0.5052 -0.4287
  211MOL0     C28411  11.194   2.435   8.093 -0.9945  0.2059 -0.4318
  211MOL0     C28412  11.339   2.467   8.136 -0.6506  0.3539 -0.2436
  211MOL0     C28413  11.433   2.355   8.091 -0.0554  0.4808 -0.5555
  211MOL0     C28414  11.389   2.228   8.152  0.7331 -0.3849 -0.0454
  211MOL0     C28415  11.370   2.115   8.187  0.6312  0.8352 -0.0554
  211MOL0     C28416  10.890   2.440   8.269  0.0728 -0.0738 -0.5559
  211MOL0     C28417  10.781   2.406   8.343  0.4643  0.7427 -0.4302
  211MOL0     H28418  10.443   2.151   8.437 -3.2185  0.2375 -1.1984
  211MOL0     H28419  10.300   2.021   8.575  3.6944 -1.5663 -0.1716
  211MOL0     H28420  10.078   2.209   8.874  0.0406 -0.9920  0.2680
  211MOL0     H28421  10.022   2.051   8.878  0.7251  0.4058 -1.8198
  211MOL0     H28422  10.265   2.131   9.037 -0.2555  0.9667  1.2710
  211MOL0     H28423  10.094   2.140   9.111 -0.0567  2.6833 -0.5099
  211MOL0     H28424  10.102   1.908   9.130  0.9082  0.9383  1.8144
  211MOL0     H28425  10.229   1.883   9.009  2.8554 -0.1460  0.9154
  211MOL0     H28426  10.376   2.016   9.183 -1.1277  1.2498  1.3950
  211MOL0     H28427  10.238   2.022   9.292 -1.3586  0.8969 -0.3582
  211MOL0     H28428  10.226   1.780   9.315 -4.5746  3.3891 -4.2360
  211MOL0     H28429  10.353   1.766   9.183  0.9861  1.2567 -0.4170
  211MOL0     H28430  10.423   1.894   9.446 -0.2961  1.2177 -1.7021
  211MOL0     H28431  10.405   1.723   9.421  0.0302 -0.7829 -0.8656
  211MOL0     H28432  10.563   1.731   9.214  1.1815 -0.1030  0.0540
  211MOL0     H28433  10.587   1.898   9.237 -4.6153 -0.5175 -1.9457
  211MOL0     H28434  10.623   1.666   9.440 -1.9454 -0.7500 -1.2652
  211MOL0     H28435  10.690   1.835   9.468 -2.1318 -0.1265 -0.2944
  211MOL0     H28436  10.914   1.893   9.381 -0.6052  0.0171 -0.7079
  211MOL0     H28437  11.198   1.756   9.167  1.2693  0.3048  0.2138
  211MOL0     H28438  11.151   1.887   9.286 -1.1851  0.1012  0.0714
  211MOL0     H28439  11.204   1.734   9.475  1.2916  1.2675  0.9527
  211MOL0     H28440  11.337   1.797   9.397  0.0299  0.6300 -1.1179
  211MOL0     H28441  11.214   1.521   9.365 -0.4322 -0.2381  2.0042
  211MOL0     H28442  11.377   1.565   9.438  0.1107  1.9172  0.2574
  211MOL0     H28443  11.285   1.520   9.147 -0.3252  1.1760 -0.6461
  211MOL0     H28444  11.388   1.419   9.230 -1.3860 -0.1471 -1.1756
  211MOL0     H28445  11.618   1.623   8.988  0.1483 -3.1137 -1.5406
  211MOL0     H28446  11.804   1.565   8.876 -3.7664  0.2977  2.0869
  211MOL0     H28447  11.932   1.679   8.940 -2.3116  0.4911  2.2655
  211MOL0     H28448  11.962   1.506   8.943  0.7208  0.0686  0.9362
  211MOL0     H28449  12.207   1.354   9.528 -0.2016 -0.8568  0.3457
  211MOL0     H28450  12.392   1.457   9.663  2.3136  0.4616  0.2822
  211MOL0     H28451  12.516   1.891   9.607 -0.2178 -0.5124  0.1639
  211MOL0     H28452  12.638   1.820   9.717  0.6717 -2.4140 -0.1241
  211MOL0     H28453  12.709   1.702   9.482 -2.7066 -1.0230 -2.9093
  211MOL0     H28454  12.620   1.835   9.420 -2.2092 -2.4346 -0.0941
  211MOL0     H28455  12.824   1.886   9.653  0.5147  0.7638 -0.4229
  211MOL0     H28456  12.795   1.990   9.517 -0.7550  0.1314  0.5874
  211MOL0     H28457  12.932   1.722   9.467  1.0027 -0.5165  4.1179
  211MOL0     H28458  12.908   1.858   9.359 -1.5162  2.5150  1.5881
  211MOL0     H28459  13.069   2.005   9.512 -0.4211  0.7705 -0.1987
  211MOL0     H28460  13.132   1.864   9.419  0.8718 -2.1070  1.0464
  211MOL0     H28461  13.050   1.888   9.712  2.0109 -0.9483  2.0274
  211MOL0     H28462  13.086   1.731   9.632  3.7668 -0.3723  0.9402
  211MOL0     H28463  13.281   1.960   9.614 -1.1117 -0.7705 -2.0703
  211MOL0     H28464  13.320   1.791   9.615 -0.1695 -0.0304 -1.3329
  211MOL0     H28465  13.240   1.954   9.861 -1.1201  0.1475 -1.7674
  211MOL0     H28466  13.404   1.873   9.840  0.5989 -2.1923 -0.9754
  211MOL0     H28467  12.388   1.814   9.420 -0.9875  0.0940  2.2965
  211MOL0     H28468  12.176   1.729   9.313  0.7992  2.4393  0.7646
  211MOL0     H28469  11.840   1.496   9.411 -1.0477 -3.3998 -0.2009
  211MOL0     H28470  11.594   1.538   9.401  2.1353  1.1314  1.7968
  211MOL0     H28471  10.308   2.318   8.887  1.5677  0.2667  0.8836
  211MOL0     H28472  10.470   2.455   8.739 -1.4117  0.0905  0.9443
  211MOL0     H28473  10.528   2.507   8.135  0.3926  1.4695  1.7763
  211MOL0     H28474  10.736   2.552   7.989  0.2415  2.1182  1.0574
  211MOL0     H28475  11.134   2.633   8.018 -1.7481  0.3582 -0.2476
  211MOL0     H28476  11.121   2.605   8.186  4.4198 -1.2957 -0.6485
  211MOL0     H28477  11.196   2.382   7.997  1.9912  2.4199 -1.7592
  211MOL0     H28478  11.149   2.371   8.171  0.6893  3.1436  3.2447
  211MOL0     H28479  11.348   2.477   8.244  1.9091 -0.6467 -0.3075
  211MOL0     H28480  11.370   2.565   8.097  1.7133 -0.1709  0.2268
  211MOL0     H28481  11.536   2.354   8.129 -0.0206 -4.5110 -0.0419
  211MOL0     H28482  11.427   2.346   7.982 -1.5681  0.1124 -0.4604
  211MOL0     H28483  11.361   2.018   8.231  0.1304  0.6475 -0.5556
  211MOL0     H28484  10.992   2.426   8.304 -1.0152 -0.8235  2.7041
  211MOL0     H28485  10.796   2.369   8.443  1.6882  2.8788  0.2336
  212MOL0     O28486   8.148   8.606   2.410  0.2717  0.3348  0.4961
  212MOL0     C28487   8.107   8.491   2.423  0.1140  0.9912  0.3695
  212MOL0     O28488   7.974   8.455   2.413 -0.2674  0.0110  0.7195
  212MOL0     C28489   7.873   8.544   2.429 -0.6936 -0.6341 -0.2124
  212MOL0     C28490   7.749   8.523   2.370  0.1008 -0.4696 -0.4368
  212MOL0     C28491   7.640   8.605   2.398 -0.2286 -0.1504 -0.2021
  212MOL0     C28492   7.653   8.712   2.488 -0.0877  0.4345  0.6055
  212MOL0     O28493   7.551   8.806   2.504  0.2615  0.8510 -0.2250
  212MOL0     C28494   7.448   8.814   2.406  0.0520  0.3255  1.5507
  212MOL0     C28495   7.384   8.957   2.390 -0.1911 -1.3718 -0.4287
  212MOL0     C28496   7.381   9.028   2.521  1.0557  0.3830  0.8640
  212MOL0     C28497   7.298   8.972   2.623 -0.0129 -0.5198  0.2201
  212MOL0     C28498   7.320   9.043   2.761  0.7384 -1.2289 -0.5311
  212MOL0     C28499   7.215   8.975   2.860 -0.5721 -1.0427  0.7184
  212MOL0     C28500   7.221   9.033   3.004  1.0475  0.3781  0.1578
  212MOL0     C28501   7.092   9.002   3.087 -0.5043  0.1337 -0.2016
  212MOL0     N28502   7.096   9.053   3.222  0.7225 -0.0925  0.5875
  212MOL0     C28503   7.185   9.142   3.269 -0.0734  0.0015 -0.8887
  212MOL0     C28504   7.142   9.184   3.395 -0.1471  0.3666 -0.6479
  212MOL0     C28505   7.211   9.296   3.465 -0.1805 -0.3723 -0.1348
  212MOL0     C28506   7.149   9.434   3.429 -0.4245 -0.5079  0.3877
  212MOL0     C28507   7.229   9.552   3.502 -0.0421 -0.2721 -0.3629
  212MOL0     C28508   7.180   9.591   3.641  0.3278  0.5583  0.5408
  212MOL0     O28509   7.241   9.703   3.700 -0.1859 -0.1058 -0.6855
  212MOL0     C28510   7.218   9.829   3.650 -0.3086  0.5208 -0.9190
  212MOL0     C28511   7.107   9.871   3.586  0.3259  0.9509 -0.2644
  212MOL0     C28512   7.085  10.002   3.537  0.0075 -0.8691  0.7801
  212MOL0     C28513   6.945  10.016   3.480 -0.3038 -0.0399  0.0530
  212MOL0     C28514   7.182  10.104   3.557 -0.2166 -0.6121 -0.8527
  212MOL0     C28515   7.166  10.239   3.513  0.1724  0.8380  0.0329
  212MOL0     O28516   7.248  10.332   3.568  0.8931  0.4015 -0.6680
  212MOL0     C28517   7.234  10.453   3.529 -0.3565 -0.4820 -0.0339
  212MOL0     C28518   7.284  10.499   3.405  0.5311 -1.0285  0.1039
  212MOL0     C28519   7.262  10.637   3.378 -0.7944  0.8962  0.5148
  212MOL0     C28520   7.207  10.727   3.465 -0.4258  0.1295  0.7762
  212MOL0     O28521   7.188  10.860   3.427  0.7760 -0.1236 -0.3863
  212MOL0     C28522   7.274  10.961   3.485 -1.1552 -0.3098  0.4018
  212MOL0     C28523   7.218  11.101   3.443  0.4080 -0.1752 -0.2776
  212MOL0     C28524   7.278  11.202   3.528 -0.7427 -0.1631 -0.8910
  212MOL0     C28525   7.425  11.221   3.510 -1.1409 -0.4435  0.0024
  212MOL0     C28526   7.490  11.341   3.594 -0.0430  0.4088 -0.1295
  212MOL0     C28527   7.498  11.326   3.743 -0.2229 -0.9461 -0.8828
  212MOL0     C28528   7.572  11.440   3.822 -0.6700  0.9481 -0.2172
  212MOL0     C28529   7.626  11.391   3.964 -0.0637 -0.0543 -0.6007
  212MOL0    Cl28530   7.765  11.501   4.024  0.1715  0.3392  0.6389
  212MOL0     C28531   7.152  10.680   3.577  0.2877  0.2443 -0.0565
  212MOL0     C28532   7.176  10.547   3.618  0.0225 -0.1994  0.5594
  212MOL0     O28533   7.092  10.267   3.418  0.0893 -0.2123 -0.1143
  212MOL0     C28534   7.296  10.059   3.625  0.4698  0.9624 -0.1446
  212MOL0     C28535   7.312   9.927   3.669 -0.3741  0.1822 -0.7585
  212MOL0     N28536   7.029   9.110   3.426 -0.1790 -0.4181  0.1795
  212MOL0     N28537   7.005   9.029   3.322 -0.3657 -0.2563  0.0278
  212MOL0     C28538   7.777   8.732   2.549 -0.3231 -0.4605 -0.4930
  212MOL0     C28539   7.889   8.658   2.522 -0.1269  0.1503  0.2706
  212MOL0     C28540   8.201   8.376   2.449  0.2921  0.4286 -0.7174
  212MOL0     C28541   8.339   8.378   2.437  0.2756  0.3845 -0.5013
  212MOL0     C28542   8.421   8.276   2.476 -0.1001 -0.5759  0.1618
  212MOL0     C28543   8.364   8.151   2.507  0.1793 -0.2855  0.0744
  212MOL0     O28544   8.435   8.037   2.526 -0.1140  0.5533 -0.0573
  212MOL0     C28545   8.581   8.046   2.505 -0.6572 -0.7226 -0.8368
  212MOL0     C28546   8.662   7.917   2.524  0.7159 -0.1628 -0.7197
  212MOL0     C28547   8.591   7.786   2.480 -0.4923 -0.3769  0.9309
  212MOL0     C28548   8.676   7.675   2.536  0.4578 -0.2363 -0.0424
  212MOL0     C28549   8.611   7.549   2.507 -0.3235 -0.0788  0.0184
  212MOL0     C28550   8.568   7.438   2.488 -0.5707  0.2557 -0.4836
  212MOL0     C28551   8.227   8.140   2.516  0.3563 -0.4840 -0.1038
  212MOL0     C28552   8.147   8.246   2.483  0.5027 -0.7491 -0.1621
  212MOL0     H28553   7.738   8.443   2.297 -1.2851  0.5109 -1.3486
  212MOL0     H28554   7.546   8.585   2.347 -0.1846  0.8570 -0.6942
  212MOL0     H28555   7.494   8.793   2.309  2.0674 -0.0455  2.5391
  212MOL0     H28556   7.373   8.741   2.437  0.3678  0.1826  1.9776
  212MOL0     H28557   7.442   9.018   2.319 -1.7860  0.7475 -0.0201
  212MOL0     H28558   7.283   8.939   2.350 -0.2399 -1.2942 -0.3406
  212MOL0     H28559   7.486   9.036   2.550  0.7532  1.4268  1.7618
  212MOL0     H28560   7.351   9.131   2.498  1.0376 -0.1388 -1.6064
  212MOL0     H28561   7.191   8.973   2.601 -0.1344  2.8026  0.5149
  212MOL0     H28562   7.323   8.866   2.633  0.2657 -0.2575  3.1351
  212MOL0     H28563   7.421   9.025   2.800  0.9890 -1.3048 -1.1924
  212MOL0     H28564   7.301   9.151   2.758  0.0287 -1.2344  1.8906
  212MOL0     H28565   7.118   9.002   2.818 -0.0722 -0.5699 -0.1465
  212MOL0     H28566   7.224   8.866   2.860  1.2737 -0.9418 -0.6032
  212MOL0     H28567   7.306   8.988   3.056  1.2384 -0.9011 -1.2272
  212MOL0     H28568   7.226   9.142   2.994 -1.5411  0.8727  2.6247
  212MOL0     H28569   7.078   8.896   3.109  2.3170  0.4523  4.2584
  212MOL0     H28570   7.002   9.035   3.033 -1.0517  0.1422  0.6876
  212MOL0     H28571   7.271   9.174   3.210  1.7182  3.4999  3.0610
  212MOL0     H28572   7.214   9.261   3.569  1.1992  0.6472  0.1941
  212MOL0     H28573   7.316   9.305   3.436 -0.9836  2.8529 -2.6492
  212MOL0     H28574   7.041   9.449   3.444 -0.5864  2.0789 -2.3129
  212MOL0     H28575   7.161   9.456   3.322 -1.0248  0.6886  0.5520
  212MOL0     H28576   7.206   9.643   3.445 -2.2573 -1.3369 -1.2897
  212MOL0     H28577   7.336   9.533   3.511  0.0518  0.4353  0.0278
  212MOL0     H28578   7.185   9.504   3.706  2.0989  1.0121  1.0777
  212MOL0     H28579   7.073   9.612   3.634 -0.1428 -1.4404  1.1539
  212MOL0     H28580   7.019   9.812   3.563  1.7894 -0.6244 -2.1653
  212MOL0     H28581   6.875  10.063   3.550 -3.2441 -1.2388 -1.9146
  212MOL0     H28582   6.950  10.083   3.393  2.5592 -3.2485 -2.5139
  212MOL0     H28583   6.909   9.926   3.430  1.6043  0.2167 -1.9308
  212MOL0     H28584   7.309  10.426   3.329 -0.7593 -0.8021 -0.5780
  212MOL0     H28585   7.295  10.681   3.285  2.0677 -0.1250  0.9420
  212MOL0     H28586   7.294  10.947   3.592 -0.8106  1.5557  0.6095
  212MOL0     H28587   7.373  10.965   3.437 -1.3699 -1.1886 -0.1462
  212MOL0     H28588   7.241  11.116   3.337  1.0340  5.2519  0.3342
  212MOL0     H28589   7.110  11.101   3.459  0.4960  1.1891  0.5205
  212MOL0     H28590   7.256  11.182   3.633  0.0479 -3.7471 -1.2475
  212MOL0     H28591   7.225  11.294   3.505  1.9878  2.0496  0.9833
  212MOL0     H28592   7.470  11.129   3.547  4.2234  1.5167 -0.6645
  212MOL0     H28593   7.438  11.229   3.401  0.3251  1.4941  0.2641
  212MOL0     H28594   7.425  11.424   3.563 -1.9135 -0.5063  1.1335
  212MOL0     H28595   7.588  11.366   3.554 -0.3721  0.3245 -1.0158
  212MOL0     H28596   7.394  11.317   3.777 -0.3184  0.9533 -0.5728
  212MOL0     H28597   7.557  11.237   3.764  0.6171 -0.3867 -0.8552
  212MOL0     H28598   7.503  11.524   3.832 -1.0909  0.4733  0.9623
  212MOL0     H28599   7.660  11.466   3.762 -0.5804  0.4906 -0.2881
  212MOL0     H28600   7.681  11.298   3.946  1.4790  0.5458  0.6779
  212MOL0     H28601   7.546  11.374   4.036 -1.0054  0.0195 -1.6069
  212MOL0     H28602   7.106  10.756   3.639 -1.6156 -0.0607 -1.0098
  212MOL0     H28603   7.157  10.508   3.718 -1.4401  3.3477  1.8473
  212MOL0     H28604   7.372  10.135   3.642 -0.6030  2.5867 -2.1115
  212MOL0     H28605   7.411   9.900   3.704 -0.1834  1.3081 -0.3981
  212MOL0     H28606   7.774   8.796   2.637 -2.1487 -1.0409 -0.0899
  212MOL0     H28607   7.979   8.668   2.582  1.0621 -1.1394 -1.2142
  212MOL0     H28608   8.380   8.468   2.392 -1.7188  0.6985 -1.8092
  212MOL0     H28609   8.528   8.289   2.464  0.0441 -0.5581  1.2847
  212MOL0     H28610   8.606   8.088   2.407  1.2054 -1.2196 -0.6180
  212MOL0     H28611   8.629   8.120   2.570 -0.7469 -0.3987 -1.1310
  212MOL0     H28612   8.673   7.921   2.632 -1.3651 -1.7540 -0.3935
  212MOL0     H28613   8.758   7.930   2.473  0.4413 -0.5465 -1.3432
  212MOL0     H28614   8.588   7.788   2.371 -1.2552  0.7179  0.9618
  212MOL0     H28615   8.494   7.772   2.528 -0.3788  1.0463  1.6294
  212MOL0     H28616   8.686   7.672   2.645  0.2268 -3.7366 -0.0081
  212MOL0     H28617   8.772   7.686   2.485  0.6553  0.6212  0.4884
  212MOL0     H28618   8.540   7.336   2.475  3.7268 -1.3790  1.0908
  212MOL0     H28619   8.177   8.046   2.535  0.2364 -0.3582  0.2067
  212MOL0     H28620   8.040   8.243   2.496  0.7434 -2.3469  1.8207
  213MOL0     O28621   5.740   3.988   0.787  0.3820 -0.1149  0.9887
  213MOL0     C28622   5.781   4.001   0.667  0.0227 -0.5779 -0.2001
  213MOL0     O28623   5.707   3.991   0.559  0.0329  0.3127 -0.3086
  213MOL0     C28624   5.572   3.951   0.572  0.9379  0.3161  0.4404
  213MOL0     C28625   5.466   4.039   0.527  0.3051 -0.1426 -0.3140
  213MOL0     C28626   5.339   3.986   0.536  0.1025 -0.1110 -0.4909
  213MOL0     C28627   5.293   3.865   0.598 -0.5907  0.8192  0.0652
  213MOL0     O28628   5.154   3.842   0.594 -1.0487 -0.6812 -0.6558
  213MOL0     C28629   5.116   3.701   0.590  0.2680 -0.4773  0.5770
  213MOL0     C28630   4.968   3.691   0.602 -0.3594 -0.5089 -0.5815
  213MOL0     C28631   4.904   3.684   0.745  0.9260 -1.1318 -0.1988
  213MOL0     C28632   4.964   3.785   0.853  0.2306  0.2538  1.8110
  213MOL0     C28633   4.891   3.811   0.988  0.1198  0.3601 -0.8571
  213MOL0     C28634   4.807   3.692   1.027  0.4620  1.1915 -0.0329
  213MOL0     C28635   4.718   3.720   1.146  0.3811  0.4047 -0.7608
  213MOL0     C28636   4.680   3.590   1.227  0.6474 -0.3144 -0.5142
  213MOL0     N28637   4.792   3.581   1.320 -0.4707 -1.2220  0.0395
  213MOL0     C28638   4.807   3.660   1.429  0.0438 -0.0016 -0.5381
  213MOL0     C28639   4.930   3.636   1.483  0.1768  0.0030  0.6621
  213MOL0     C28640   4.982   3.686   1.614 -0.2385 -0.8642  0.7453
  213MOL0     C28641   5.130   3.718   1.601 -0.6178 -0.1845  0.0034
  213MOL0     C28642   5.159   3.833   1.500 -0.6033  0.7241  0.1349
  213MOL0     C28643   5.272   3.929   1.545 -0.2318  0.2570 -0.3035
  213MOL0     O28644   5.292   4.024   1.432  0.0552 -0.0681  0.5312
  213MOL0     C28645   5.413   4.097   1.434  0.8592  0.6338 -0.5276
  213MOL0     C28646   5.515   4.086   1.531 -0.6246 -0.3167  0.0270
  213MOL0     C28647   5.622   4.175   1.540  0.1891  0.2068 -0.0505
  213MOL0     C28648   5.718   4.148   1.658  0.1853 -0.5116 -0.4158
  213MOL0     C28649   5.626   4.287   1.451 -0.1018  0.1288 -0.4732
  213MOL0     C28650   5.739   4.386   1.461 -0.3907  0.4227 -0.0554
  213MOL0     O28651   5.719   4.515   1.401  0.8118  0.2092 -0.3206
  213MOL0     C28652   5.828   4.593   1.405 -0.2425 -0.0290 -0.0811
  213MOL0     C28653   5.814   4.711   1.479 -0.1407  0.2946 -0.0060
  213MOL0     C28654   5.917   4.814   1.471 -0.1018 -0.1327 -0.5352
  213MOL0     C28655   6.041   4.792   1.403  0.0280 -0.0720  0.2290
  213MOL0     O28656   6.134   4.885   1.393 -0.0228  0.6218 -0.4243
  213MOL0     C28657   6.101   4.966   1.271 -1.0114 -0.4921 -0.9661
  213MOL0     C28658   6.219   5.060   1.243  1.2553  0.3738  0.0145
  213MOL0     C28659   6.186   5.172   1.152 -0.5185  0.6013  0.6654
  213MOL0     C28660   6.304   5.261   1.111  0.1780 -0.3547 -0.0294
  213MOL0     C28661   6.266   5.374   1.024  0.4972  0.4916 -0.2775
  213MOL0     C28662   6.380   5.458   0.968  0.0594 -0.0960 -0.3335
  213MOL0     C28663   6.365   5.524   0.834  0.2208  0.0532 -0.2089
  213MOL0     C28664   6.245   5.611   0.830  0.3670  0.1914 -0.2207
  213MOL0    Cl28665   6.113   5.505   0.776  0.1973 -0.3864  0.6828
  213MOL0     C28666   6.057   4.670   1.345  0.4799 -0.1835  0.3432
  213MOL0     C28667   5.950   4.574   1.337 -0.3302  0.7699 -0.6926
  213MOL0     O28668   5.851   4.343   1.504  0.9431  0.4652 -0.4227
  213MOL0     C28669   5.525   4.296   1.345 -0.7298  0.6008 -0.2192
  213MOL0     C28670   5.422   4.202   1.345 -0.1125  0.4395 -0.5387
  213MOL0     N28671   4.994   3.540   1.399 -0.8661 -0.6204 -0.7128
  213MOL0     N28672   4.907   3.512   1.306 -0.0868 -0.4219 -0.2904
  213MOL0     C28673   5.401   3.782   0.638  0.8132  0.2611  0.2501
  213MOL0     C28674   5.532   3.820   0.628 -0.0661 -0.1230 -0.0838
  213MOL0     C28675   5.928   3.993   0.644  0.5654  0.1379 -0.1993
  213MOL0     C28676   5.976   3.976   0.517  0.2821  0.8929  0.4881
  213MOL0     C28677   6.121   3.967   0.496  0.0427  0.7684 -1.4374
  213MOL0     C28678   6.201   3.973   0.611 -1.0108 -0.1380  0.3390
  213MOL0     O28679   6.330   3.931   0.598  0.6394 -0.5651  0.1442
  213MOL0     C28680   6.410   4.049   0.583 -0.1584 -0.3384 -0.2271
  213MOL0     C28681   6.557   4.009   0.590  0.5861  1.2870  0.3802
  213MOL0     C28682   6.650   4.135   0.601 -0.8604  0.0559  0.3827
  213MOL0     C28683   6.788   4.077   0.643  0.3598  0.0002  0.3605
  213MOL0     C28684   6.874   4.015   0.538  0.1698 -0.1128  0.1691
  213MOL0     C28685   6.968   4.004   0.460 -0.5091  0.9827  0.1702
  213MOL0     C28686   6.144   3.988   0.734  0.3224 -0.6813  0.6652
  213MOL0     C28687   6.009   3.997   0.758 -0.0559 -0.8005 -0.4820
  213MOL0     H28688   5.486   4.130   0.471  0.2010  0.1362  0.0919
  213MOL0     H28689   5.248   4.033   0.499 -0.9576 -2.5911 -1.3085
  213MOL0     H28690   5.148   3.648   0.500 -2.6838  0.6549 -1.3035
  213MOL0     H28691   5.173   3.639   0.659  0.7956 -1.9801 -1.1245
  213MOL0     H28692   4.928   3.776   0.546  1.8028  0.5293 -0.6485
  213MOL0     H28693   4.933   3.602   0.549  2.3672 -1.2576 -1.2418
  213MOL0     H28694   4.796   3.700   0.737  0.8988 -1.5738 -0.7933
  213MOL0     H28695   4.915   3.579   0.774 -2.4155 -2.1570 -2.0737
  213MOL0     H28696   5.068   3.764   0.881  0.8889  1.0417  0.1281
  213MOL0     H28697   4.963   3.883   0.805 -0.5260 -1.2913 -1.6378
  213MOL0     H28698   4.974   3.833   1.055  2.0379 -0.9281 -2.6972
  213MOL0     H28699   4.826   3.899   0.979 -1.8470 -0.9277 -0.1154
  213MOL0     H28700   4.740   3.667   0.945 -2.1126 -0.9951  2.4982
  213MOL0     H28701   4.866   3.603   1.050 -1.3381  0.5899  2.7929
  213MOL0     H28702   4.773   3.794   1.205  3.1421 -0.4858 -2.0184
  213MOL0     H28703   4.629   3.778   1.120  0.2391 -0.2085 -1.6884
  213MOL0     H28704   4.682   3.505   1.158  1.5590  0.0588 -0.9629
  213MOL0     H28705   4.579   3.607   1.266  1.2022 -1.6574  1.7465
  213MOL0     H28706   4.732   3.734   1.458 -2.6577 -1.6107 -2.8776
  213MOL0     H28707   4.931   3.782   1.624  0.0393 -0.5548 -0.6093
  213MOL0     H28708   4.957   3.619   1.697  0.4355 -0.6651  1.1276
  213MOL0     H28709   5.188   3.632   1.567 -1.1707 -0.1908 -0.9613
  213MOL0     H28710   5.163   3.752   1.699 -1.7846 -1.5959  0.9296
  213MOL0     H28711   5.072   3.899   1.492  0.4715  2.3401  1.1576
  213MOL0     H28712   5.176   3.794   1.400  0.0317  0.9991  0.1329
  213MOL0     H28713   5.361   3.870   1.568 -0.5824 -0.0461  0.2996
  213MOL0     H28714   5.246   3.987   1.634  3.1015 -1.7614  2.2624
  213MOL0     H28715   5.501   4.011   1.609 -0.3695 -0.7836 -0.3679
  213MOL0     H28716   5.727   4.234   1.724 -1.3683  1.2371 -2.3454
  213MOL0     H28717   5.673   4.073   1.725 -0.8304  0.3081 -0.1481
  213MOL0     H28718   5.809   4.102   1.619  1.2995  0.0190  1.4258
  213MOL0     H28719   5.718   4.729   1.526 -1.1555 -1.3912 -1.3449
  213MOL0     H28720   5.903   4.907   1.525 -0.1089 -1.5554  2.0795
  213MOL0     H28721   6.069   4.896   1.194 -3.5129 -2.6708  1.7797
  213MOL0     H28722   6.018   5.029   1.307  1.8832 -0.0621  7.0434
  213MOL0     H28723   6.247   5.110   1.337 -0.3246 -0.4242  0.9603
  213MOL0     H28724   6.309   5.006   1.213  0.8027  0.5067 -1.6424
  213MOL0     H28725   6.117   5.232   1.212 -3.1585 -0.9836 -0.5929
  213MOL0     H28726   6.133   5.125   1.068  0.8684 -1.2348  0.7656
  213MOL0     H28727   6.348   5.302   1.203  0.9778  2.5290 -1.5874
  213MOL0     H28728   6.375   5.204   1.051 -1.1825 -0.8084 -1.2803
  213MOL0     H28729   6.200   5.449   1.067 -0.1796 -1.2143  1.8351
  213MOL0     H28730   6.216   5.338   0.934 -1.7090  2.9763 -0.1676
  213MOL0     H28731   6.403   5.525   1.051  2.2964 -2.3314  0.9789
  213MOL0     H28732   6.463   5.389   0.950 -1.6413 -2.4771  0.3339
  213MOL0     H28733   6.367   5.450   0.754  1.2753 -0.3533  0.1629
  213MOL0     H28734   6.454   5.586   0.815 -0.3487  0.9351 -0.0413
  213MOL0     H28735   6.265   5.688   0.755  1.1303 -1.6911 -2.0249
  213MOL0     H28736   6.214   5.662   0.922 -2.1510  3.2360 -2.5128
  213MOL0     H28737   6.150   4.649   1.294  1.5490  0.9553  1.7600
  213MOL0     H28738   5.960   4.481   1.281 -1.1670  1.2084 -1.6004
  213MOL0     H28739   5.536   4.370   1.267 -1.4903  0.7586 -0.1834
  213MOL0     H28740   5.345   4.203   1.270 -1.1711  4.3310  0.3836
  213MOL0     H28741   5.383   3.684   0.682  2.0971 -0.0515  0.1363
  213MOL0     H28742   5.614   3.755   0.657  0.6997  0.3515 -1.1261
  213MOL0     H28743   5.911   3.974   0.430  0.2618  2.7531  0.4124
  213MOL0     H28744   6.179   3.966   0.404  3.0887  2.1677  0.3155
  213MOL0     H28745   6.400   4.092   0.483  1.4204  1.4908  0.3457
  213MOL0     H28746   6.397   4.119   0.666  3.0887 -2.6907  2.5436
  213MOL0     H28747   6.586   3.981   0.488 -2.0305  2.0359 -0.6703
  213MOL0     H28748   6.575   3.938   0.671  2.4502  1.6204  0.3030
  213MOL0     H28749   6.614   4.198   0.683 -3.1333 -0.6370 -0.0061
  213MOL0     H28750   6.654   4.196   0.510  0.0404  0.6290  0.7873
  213MOL0     H28751   6.772   4.011   0.729  3.1721 -3.2451 -1.4088
  213MOL0     H28752   6.850   4.157   0.684 -1.7636  0.3405  3.2317
  213MOL0     H28753   7.043   3.980   0.387  0.0126 -0.2682  1.0825
  213MOL0     H28754   6.205   3.998   0.823 -1.7680  1.1352  1.9883
  213MOL0     H28755   5.981   4.005   0.863 -0.6873 -1.3184 -0.6064
  214MOL0     O28756   6.139  10.686  10.722  0.7543  0.2649 -1.1396
  214MOL0     C28757   6.209  10.703  10.822 -0.6405 -0.0812  0.0654
  214MOL0     O28758   6.214  10.811  10.896  1.0182 -1.4458  0.2284
  214MOL0     C28759   6.122  10.918  10.886 -0.4831  0.0040  0.4727
  214MOL0     C28760   6.072  10.968  10.769  0.7528  0.4512  0.6677
  214MOL0     C28761   5.981  11.075  10.762 -0.1154  0.4580 -0.2020
  214MOL0     C28762   5.942  11.137  10.883  0.3854 -0.0819  0.9975
  214MOL0     O28763   5.858  11.247  10.889 -0.1014  0.4215  0.4368
  214MOL0     C28764   5.825  11.318  10.765  0.4652  0.5470 -0.0232
  214MOL0     C28765   5.937  11.417  10.738  1.3845  0.6325  0.3047
  214MOL0     C28766   5.910  11.533  10.639 -0.1751 -0.8244  0.6655
  214MOL0     C28767   5.825  11.648  10.699 -0.4658  0.7137  0.1878
  214MOL0     C28768   5.766  11.768  10.619  0.4535  0.3479  0.4647
  214MOL0     C28769   5.866  11.829  10.524 -0.3357 -0.2515 -0.3198
  214MOL0     C28770   5.833  11.977  10.490  0.7257  0.0873 -0.9204
  214MOL0     C28771   5.741  11.976  10.378  0.7509  0.4201 -0.6571
  214MOL0     N28772   5.760  12.109  10.296 -0.3417 -0.7396  0.2695
  214MOL0     C28773   5.713  12.223  10.351 -0.6373 -0.3439 -0.0497
  214MOL0     C28774   5.750  12.316  10.260 -0.4761  0.6411  0.9675
  214MOL0     C28775   5.717  12.461  10.260 -0.2511  0.0380 -1.0164
  214MOL0     C28776   5.836  12.543  10.289 -0.1755 -1.4061 -0.2142
  214MOL0     C28777   5.782  12.689  10.312 -0.0225  0.6152  0.1198
  214MOL0     C28778   5.887  12.787  10.334 -0.4415 -0.2788 -0.6459
  214MOL0     O28779   5.836  12.923  10.337 -0.3849  0.0656  0.2709
  214MOL0     C28780   5.887  13.015  10.432 -0.1001 -0.7514 -0.2848
  214MOL0     C28781   6.014  13.012  10.486 -0.2625  0.0267  0.2589
  214MOL0     C28782   6.070  13.114  10.565  1.7000  0.8421 -0.0493
  214MOL0     C28783   6.217  13.109  10.612  1.0491 -0.8348 -0.3653
  214MOL0     C28784   5.981  13.220  10.610  0.2120  0.1552  0.6180
  214MOL0     C28785   6.018  13.328  10.708  0.3144 -0.4210  0.2677
  214MOL0     O28786   5.912  13.414  10.746  0.1684  0.2067  0.0646
  214MOL0     C28787   5.935  13.529  10.824 -0.0797  0.8385  0.2845
  214MOL0     C28788   5.946  13.534  10.964  0.4972 -0.0274 -0.4769
  214MOL0     C28789   5.969  13.648  11.041 -0.1487 -0.2290  0.1709
  214MOL0     C28790   5.998  13.769  10.971  0.8052  0.4123 -0.4130
  214MOL0     O28791   6.015  13.897  11.023 -0.0055  0.5145 -0.0743
  214MOL0     C28792   5.923  13.937  11.124  0.2877 -0.4963 -0.3823
  214MOL0     C28793   5.942  14.084  11.153  0.2277  0.3307 -0.1101
  214MOL0     C28794   5.945  14.173  11.025  0.2293  0.4876 -0.5207
  214MOL0     C28795   5.822  14.159  10.932  0.1340  0.6965  0.5509
  214MOL0     C28796   5.806  14.268  10.821  0.0971 -0.6467  0.4196
  214MOL0     C28797   5.910  14.271  10.720 -0.3372  0.2085 -0.9110
  214MOL0     C28798   5.909  14.148  10.632  0.9941  0.4008  0.5306
  214MOL0     C28799   6.047  14.118  10.562  0.6550  0.4973 -0.1347
  214MOL0    Cl28800   6.045  13.961  10.479 -0.8834  0.2513 -0.6828
  214MOL0     C28801   5.991  13.759  10.832  0.2747  0.0193 -0.3776
  214MOL0     C28802   5.953  13.650  10.759  1.0441 -0.1689 -0.1525
  214MOL0     O28803   6.123  13.325  10.772  0.3600 -0.1373  1.2012
  214MOL0     C28804   5.850  13.223  10.556 -0.3502  0.5711  0.2372
  214MOL0     C28805   5.803  13.120  10.468  0.9275  0.3238  0.0601
  214MOL0     N28806   5.822  12.262  10.161 -0.7372  0.0836  0.3165
  214MOL0     N28807   5.820  12.130  10.177 -0.0440 -0.2248 -0.0177
  214MOL0     C28808   6.000  11.093  11.005  0.2469  0.5784  0.3835
  214MOL0     C28809   6.084  10.982  11.010 -0.0120 -0.1063  0.2032
  214MOL0     C28810   6.320  10.613  10.847  0.1118  0.3989 -0.0120
  214MOL0     C28811   6.317  10.477  10.790  1.1443 -0.8674  0.6904
  214MOL0     C28812   6.424  10.396  10.808 -0.0358 -0.6298 -0.9083
  214MOL0     C28813   6.546  10.439  10.863 -0.3141 -0.7905 -0.1923
  214MOL0     O28814   6.658  10.366  10.873 -0.8382  0.5145  0.7962
  214MOL0     C28815   6.788  10.404  10.921 -0.1911 -0.2145  0.5511
  214MOL0     C28816   6.883  10.292  10.907  0.1451  0.6158  0.6132
  214MOL0     C28817   7.028  10.332  10.935 -0.0435 -0.2501  0.1050
  214MOL0     C28818   7.106  10.202  10.977  0.0211  0.0018 -0.0934
  214MOL0     C28819   7.247  10.231  10.997  0.3353 -0.3442  0.1765
  214MOL0     C28820   7.353  10.283  10.993  0.6982  0.0366 -0.7144
  214MOL0     C28821   6.558  10.577  10.893  0.5306 -0.2947  0.1706
  214MOL0     C28822   6.447  10.665  10.892  0.8681  1.1757 -0.3205
  214MOL0     H28823   6.087  10.930  10.669  0.3230 -0.7924  1.0561
  214MOL0     H28824   5.954  11.105  10.661  0.8307  0.6150 -0.4122
  214MOL0     H28825   5.814  11.246  10.684  0.6430 -3.1462  2.9532
  214MOL0     H28826   5.730  11.368  10.784  1.3740  3.0295 -1.4657
  214MOL0     H28827   5.966  11.460  10.834 -3.1341  2.1111  1.2304
  214MOL0     H28828   6.019  11.354  10.701  0.5326 -1.7371  2.1675
  214MOL0     H28829   6.007  11.576  10.610 -1.3002 -0.3006 -2.8443
  214MOL0     H28830   5.859  11.504  10.546 -0.4756  2.6377 -0.3837
  214MOL0     H28831   5.742  11.588  10.739  0.6848 -2.8124 -2.1549
  214MOL0     H28832   5.890  11.681  10.780 -0.6732 -2.7193  1.9525
  214MOL0     H28833   5.678  11.747  10.558 -1.0164  3.1975  1.4439
  214MOL0     H28834   5.739  11.845  10.692  0.5540  0.8217  0.0129
  214MOL0     H28835   5.960  11.834  10.578  0.0529 -0.1804 -0.9911
  214MOL0     H28836   5.897  11.772  10.436  1.0613 -0.9692  0.6098
  214MOL0     H28837   5.797  12.028  10.580  2.0635  0.5356 -0.6249
  214MOL0     H28838   5.918  12.044  10.474 -0.4732  2.1297  0.8027
  214MOL0     H28839   5.639  11.981  10.418  1.0810 -0.7504  0.3902
  214MOL0     H28840   5.755  11.885  10.319 -1.4250 -1.1896  1.1447
  214MOL0     H28841   5.662  12.223  10.447  0.1719 -2.3687  0.4509
  214MOL0     H28842   5.693  12.507  10.164  1.5738 -0.8451 -1.9310
  214MOL0     H28843   5.639  12.469  10.336  1.1595 -0.3368  0.5379
  214MOL0     H28844   5.904  12.536  10.204 -0.1037 -1.5969 -0.1413
  214MOL0     H28845   5.895  12.510  10.375  0.2178 -2.2181 -0.7820
  214MOL0     H28846   5.730  12.689  10.408 -0.8452  2.3469 -0.2832
  214MOL0     H28847   5.704  12.725  10.244 -2.0347 -1.9200  0.9139
  214MOL0     H28848   5.958  12.783  10.251  0.1944 -0.3960 -0.1068
  214MOL0     H28849   5.940  12.760  10.426  2.8511  1.6578 -1.8292
  214MOL0     H28850   6.086  12.945  10.440  1.4526  1.7843  0.2473
  214MOL0     H28851   6.221  13.102  10.721  1.1630  3.6338  0.0734
  214MOL0     H28852   6.272  13.028  10.564  3.5225 -0.8985  2.3646
  214MOL0     H28853   6.278  13.194  10.582  1.0902 -0.9653 -0.6622
  214MOL0     H28854   5.939  13.437  11.013  3.4627  0.4057  1.0599
  214MOL0     H28855   5.951  13.645  11.148 -1.8925  0.6349 -0.0644
  214MOL0     H28856   5.819  13.914  11.100 -0.3794  0.1088  1.7274
  214MOL0     H28857   5.958  13.884  11.214  0.4260  2.2186  1.2569
  214MOL0     H28858   5.853  14.108  11.213  0.4698 -2.6747  1.6598
  214MOL0     H28859   6.030  14.101  11.215 -1.2713  2.8056  1.5567
  214MOL0     H28860   6.028  14.147  10.958 -0.4167  0.1876 -1.2204
  214MOL0     H28861   5.959  14.277  11.056  3.6312 -0.4155  1.4318
  214MOL0     H28862   5.822  14.057  10.892 -0.7095  0.3054  1.4797
  214MOL0     H28863   5.727  14.159  10.986  0.0978  0.5901  0.4879
  214MOL0     H28864   5.794  14.368  10.864 -3.2268 -0.6025 -0.3392
  214MOL0     H28865   5.704  14.249  10.785 -0.1198  0.6982  0.2591
  214MOL0     H28866   5.887  14.359  10.658 -4.0092 -1.4077 -2.1191
  214MOL0     H28867   6.008  14.281  10.766 -1.7916 -0.9794  2.8076
  214MOL0     H28868   5.830  14.156  10.556  0.3945 -0.6268  1.0178
  214MOL0     H28869   5.884  14.054  10.682  2.0208 -0.5871 -0.7426
  214MOL0     H28870   6.128  14.124  10.635 -0.5981 -0.2384  1.3684
  214MOL0     H28871   6.070  14.197  10.490  0.8153  0.7189  0.1604
  214MOL0     H28872   6.012  13.846  10.770 -2.1173 -2.0284 -4.4835
  214MOL0     H28873   5.933  13.654  10.652  2.8294 -1.7475 -0.5778
  214MOL0     H28874   5.776  13.296  10.588 -3.4087 -3.1835  2.7345
  214MOL0     H28875   5.701  13.117  10.429  0.0958 -0.6095  2.1600
  214MOL0     H28876   5.974  11.139  11.100 -3.2723 -0.2384 -0.0241
  214MOL0     H28877   6.128  10.944  11.102  4.9882  0.0022 -1.7906
  214MOL0     H28878   6.230  10.439  10.737  2.3341  0.4634 -2.4505
  214MOL0     H28879   6.408  10.290  10.791 -2.1606 -0.8750  1.7373
  214MOL0     H28880   6.817  10.504  10.887 -1.2367  0.5774  1.8900
  214MOL0     H28881   6.789  10.413  11.030  0.2881 -0.3968  0.5650
  214MOL0     H28882   6.882  10.238  10.812  1.3742  0.4609  0.6657
  214MOL0     H28883   6.850  10.212  10.973 -0.2566 -1.3691 -1.8347
  214MOL0     H28884   7.021  10.398  11.022 -0.0684 -0.5136  0.3046
  214MOL0     H28885   7.083  10.392  10.863 -0.6961  0.2253 -0.0124
  214MOL0     H28886   7.088  10.115  10.915  1.6353 -1.9918  2.0557
  214MOL0     H28887   7.069  10.170  11.075  0.5733 -1.0904 -0.2333
  214MOL0     H28888   7.453  10.319  10.985  1.0705 -0.9049 -0.4300
  214MOL0     H28889   6.647  10.628  10.929  0.9361 -1.2635  0.5704
  214MOL0     H28890   6.468  10.764  10.930  1.8557  0.3237  1.4873
  215MOL0     O28891   6.089   6.762   7.325 -0.5323 -0.1910  0.1045
  215MOL0     C28892   6.169   6.715   7.407  0.8283 -0.2123 -0.7030
  215MOL0     O28893   6.242   6.786   7.502 -0.2808  0.5053 -0.6915
  215MOL0     C28894   6.242   6.927   7.502  0.8620  0.1954 -0.6448
  215MOL0     C28895   6.114   6.996   7.502  0.4237 -0.1419  0.1055
  215MOL0     C28896   6.108   7.132   7.531  0.0591  0.3411  0.6781
  215MOL0     C28897   6.222   7.209   7.557  0.1583  0.1608 -0.4490
  215MOL0     O28898   6.208   7.336   7.593  0.1936 -0.8091 -0.1800
  215MOL0     C28899   6.298   7.428   7.541  0.2849  0.2249 -0.6293
  215MOL0     C28900   6.220   7.527   7.433 -0.0360  0.0681  0.1501
  215MOL0     C28901   6.149   7.452   7.324 -0.7899  0.4108  0.6171
  215MOL0     C28902   6.088   7.552   7.227  0.7501 -0.6970 -0.1652
  215MOL0     C28903   5.997   7.499   7.118 -1.3244  0.4961 -0.7568
  215MOL0     C28904   5.947   7.607   7.030  0.1220  0.2439  0.5086
  215MOL0     C28905   6.034   7.648   6.910 -0.4605 -0.0208  0.5222
  215MOL0     C28906   5.959   7.747   6.815  0.0887  0.0600  0.2342
  215MOL0     N28907   5.875   7.663   6.727 -0.2787 -0.2895 -0.1437
  215MOL0     C28908   5.900   7.645   6.595  0.0517 -0.5721 -0.2302
  215MOL0     C28909   5.782   7.580   6.546  0.8886  0.0824 -0.5050
  215MOL0     C28910   5.771   7.537   6.404 -0.3873  0.2940 -0.8263
  215MOL0     C28911   5.631   7.476   6.383 -0.8734  0.1596 -0.5721
  215MOL0     C28912   5.609   7.432   6.237 -0.4886 -0.2454 -0.5991
  215MOL0     C28913   5.510   7.319   6.226 -0.6778  0.1899 -0.0928
  215MOL0     O28914   5.458   7.313   6.093  0.0833 -0.4609  0.0389
  215MOL0     C28915   5.360   7.225   6.044  0.2707  0.0766 -0.2367
  215MOL0     C28916   5.314   7.119   6.122  0.8834 -0.8289 -0.1510
  215MOL0     C28917   5.224   7.017   6.073 -0.4211  0.0186  0.4497
  215MOL0     C28918   5.165   6.918   6.169  0.1567 -0.9777  0.5943
  215MOL0     C28919   5.192   7.034   5.935  0.5184  0.1808 -0.4420
  215MOL0     C28920   5.115   6.928   5.868 -0.8748 -0.7855  0.1886
  215MOL0     O28921   5.003   6.879   5.925  0.3584 -0.5369  0.0246
  215MOL0     C28922   4.937   6.770   5.884 -0.1388  0.0406  0.1218
  215MOL0     C28923   4.957   6.694   5.770 -0.2964  0.7175  0.4930
  215MOL0     C28924   4.876   6.574   5.737 -0.4016 -1.1153  0.2667
  215MOL0     C28925   4.771   6.532   5.822 -0.4149  0.0630 -0.3501
  215MOL0     O28926   4.712   6.408   5.829  0.3880 -0.1515  0.0162
  215MOL0     C28927   4.755   6.328   5.945 -0.2726  0.9842 -0.3267
  215MOL0     C28928   4.647   6.243   6.002 -0.1199 -0.2204 -0.1439
  215MOL0     C28929   4.574   6.149   5.898 -0.2207  0.1629 -0.3183
  215MOL0     C28930   4.449   6.083   5.961  1.1044  0.1083 -0.1947
  215MOL0     C28931   4.348   6.023   5.862  0.5864  0.5874  0.2174
  215MOL0     C28932   4.399   5.894   5.803 -0.5742 -1.2819  0.1525
  215MOL0     C28933   4.408   5.779   5.890  0.1139 -0.0887  0.3627
  215MOL0     C28934   4.463   5.652   5.826 -0.6968  0.7586  0.0712
  215MOL0    Cl28935   4.624   5.668   5.748  0.2771  0.1772 -0.2718
  215MOL0     C28936   4.741   6.623   5.928 -0.2004  0.2325 -0.1396
  215MOL0     C28937   4.819   6.734   5.952  0.9790  0.6196 -0.5314
  215MOL0     O28938   5.161   6.894   5.756  0.5077 -0.4266  0.3034
  215MOL0     C28939   5.246   7.135   5.851 -0.3912  0.2365  0.5059
  215MOL0     C28940   5.319   7.231   5.911 -0.2622  1.0091  0.5698
  215MOL0     N28941   5.693   7.566   6.655 -0.7246 -0.3231 -0.2705
  215MOL0     N28942   5.747   7.610   6.756 -0.8888  0.1137 -0.1118
  215MOL0     C28943   6.339   7.139   7.577 -0.5411 -0.6790  0.1059
  215MOL0     C28944   6.356   7.004   7.541  0.4652 -0.7517 -0.6946
  215MOL0     C28945   6.189   6.567   7.418  0.6907 -0.8578  0.2879
  215MOL0     C28946   6.152   6.479   7.309  0.5649  0.5973 -0.5098
  215MOL0     C28947   6.161   6.340   7.320 -0.5587 -0.5201 -0.0802
  215MOL0     C28948   6.209   6.287   7.442 -0.6307 -0.2757  0.4061
  215MOL0     O28949   6.253   6.156   7.454  0.2236  0.5054  0.3292
  215MOL0     C28950   6.196   6.055   7.369 -0.5223 -0.6133  0.4992
  215MOL0     C28951   6.252   5.918   7.409 -0.0577  0.0970 -0.4992
  215MOL0     C28952   6.401   5.910   7.391 -1.2529  0.1880  0.0141
  215MOL0     C28953   6.479   5.907   7.520 -0.9686 -0.0086  0.5758
  215MOL0     C28954   6.624   5.901   7.477 -0.2579 -0.7241 -1.4510
  215MOL0     C28955   6.735   5.886   7.431  0.8517  0.3225 -0.3496
  215MOL0     C28956   6.254   6.371   7.547  0.2275 -0.7516 -0.6725
  215MOL0     C28957   6.237   6.509   7.537  0.0984 -0.3047 -0.3378
  215MOL0     H28958   6.023   6.940   7.483 -0.4218  0.9258  0.9431
  215MOL0     H28959   6.010   7.179   7.532 -1.1090 -1.8287 -1.4234
  215MOL0     H28960   6.334   7.480   7.631 -2.0780 -4.9249  3.8310
  215MOL0     H28961   6.371   7.383   7.474 -0.9625 -1.4739 -0.9040
  215MOL0     H28962   6.133   7.578   7.476  0.7352  1.5879 -0.0214
  215MOL0     H28963   6.284   7.602   7.386  1.0452  0.4829  2.1399
  215MOL0     H28964   6.218   7.386   7.271  2.8336  4.0919  0.2700
  215MOL0     H28965   6.081   7.378   7.369 -1.3977 -0.8854 -2.2441
  215MOL0     H28966   6.031   7.624   7.286 -0.2476 -0.3289 -1.5538
  215MOL0     H28967   6.177   7.594   7.178  1.4495 -0.3840  1.3032
  215MOL0     H28968   6.045   7.421   7.058 -0.2496 -0.3770  1.1624
  215MOL0     H28969   5.916   7.451   7.174 -1.4080  0.2519 -1.0812
  215MOL0     H28970   5.849   7.575   6.994 -0.5473  0.9578  1.6426
  215MOL0     H28971   5.929   7.695   7.093  2.4000  2.2350 -1.4214
  215MOL0     H28972   6.116   7.699   6.961  0.2256 -3.8021  3.7469
  215MOL0     H28973   6.067   7.557   6.859  0.0760  0.7982 -0.6221
  215MOL0     H28974   6.036   7.798   6.755 -0.0779 -0.0705 -0.0932
  215MOL0     H28975   5.904   7.829   6.864  0.7384  0.4028  0.4019
  215MOL0     H28976   5.991   7.670   6.541  1.4518 -1.9839  1.3726
  215MOL0     H28977   5.788   7.618   6.332  0.9329  1.3070  0.5606
  215MOL0     H28978   5.855   7.469   6.387  0.5130 -0.0665  3.9108
  215MOL0     H28979   5.546   7.538   6.411 -0.0981  1.4012 -0.8916
  215MOL0     H28980   5.628   7.392   6.453  0.4998  0.0086 -0.6493
  215MOL0     H28981   5.703   7.391   6.200  1.2871  2.4944  0.6151
  215MOL0     H28982   5.577   7.525   6.190 -3.7030 -0.1207  1.5232
  215MOL0     H28983   5.427   7.330   6.297  0.9077  1.8826  1.6361
  215MOL0     H28984   5.566   7.225   6.237 -0.6774  0.2716  0.7035
  215MOL0     H28985   5.330   7.107   6.229  0.9426 -0.3658 -0.1057
  215MOL0     H28986   5.225   6.912   6.260 -1.6854  0.1483  1.9575
  215MOL0     H28987   5.067   6.955   6.201  0.0976  0.2134 -0.8735
  215MOL0     H28988   5.133   6.824   6.124 -3.6396  0.3319  0.1769
  215MOL0     H28989   5.037   6.698   5.696  0.4264 -3.5618  0.7507
  215MOL0     H28990   4.916   6.524   5.649  3.4916  3.8629 -1.3018
  215MOL0     H28991   4.837   6.260   5.923 -1.8857 -2.4440  3.1930
  215MOL0     H28992   4.782   6.394   6.028 -3.2081  1.3447  0.4709
  215MOL0     H28993   4.696   6.170   6.066 -1.7758  0.4448  2.0053
  215MOL0     H28994   4.573   6.300   6.060 -2.3947 -3.2716  0.2058
  215MOL0     H28995   4.639   6.071   5.857  1.4285  0.1806  2.0624
  215MOL0     H28996   4.530   6.208   5.818 -2.5949 -1.9628 -0.7216
  215MOL0     H28997   4.477   6.001   6.028 -1.1688 -3.3404 -3.0474
  215MOL0     H28998   4.406   6.169   6.013 -1.4237 -1.7546  0.9883
  215MOL0     H28999   4.303   6.089   5.789  0.6772 -1.8141 -2.1524
  215MOL0     H29000   4.268   6.012   5.936  0.3592  1.7412  0.1607
  215MOL0     H29001   4.329   5.876   5.722  0.7203 -0.3519 -1.2255
  215MOL0     H29002   4.498   5.916   5.763 -0.8097 -0.7682 -0.1576
  215MOL0     H29003   4.313   5.758   5.941  0.5925 -1.0065  0.9012
  215MOL0     H29004   4.481   5.789   5.970  1.8024 -2.5877 -0.7167
  215MOL0     H29005   4.387   5.603   5.765  1.6556 -0.5663 -1.9684
  215MOL0     H29006   4.475   5.578   5.906  1.6118 -0.4309 -1.2728
  215MOL0     H29007   4.656   6.590   5.986  0.2343 -2.1153 -0.7576
  215MOL0     H29008   4.793   6.791   6.040 -0.9753 -0.0868 -0.6006
  215MOL0     H29009   5.220   7.135   5.746 -0.7533  1.1936  0.5838
  215MOL0     H29010   5.360   7.311   5.850  0.6113 -0.0752 -0.3219
  215MOL0     H29011   6.428   7.191   7.608 -0.0963 -0.9532 -0.6967
  215MOL0     H29012   6.454   6.958   7.552  0.7696  0.3176  1.7109
  215MOL0     H29013   6.131   6.508   7.207  2.5676 -2.2359 -1.8527
  215MOL0     H29014   6.137   6.273   7.238 -1.9146 -1.1807  0.8116
  215MOL0     H29015   6.088   6.061   7.383 -0.4453  0.7566  0.6586
  215MOL0     H29016   6.224   6.086   7.268 -0.5648  0.6487  0.8549
  215MOL0     H29017   6.202   5.843   7.346  2.3408 -0.6609 -1.6226
  215MOL0     H29018   6.240   5.885   7.513  0.9294 -1.6019 -0.8804
  215MOL0     H29019   6.436   5.991   7.325 -1.7263  1.1831  0.9533
  215MOL0     H29020   6.422   5.817   7.337 -1.6852  0.4449 -0.6052
  215MOL0     H29021   6.463   5.813   7.574 -1.0488 -0.8735 -0.9043
  215MOL0     H29022   6.457   5.988   7.590 -1.5745 -1.9889  2.8277
  215MOL0     H29023   6.827   5.863   7.381  1.2862  0.8707  0.1695
  215MOL0     H29024   6.309   6.323   7.627  0.8153  1.6219  0.4463
  215MOL0     H29025   6.262   6.573   7.621 -1.3384  1.7437 -1.3800
  216MOL0     O29026  11.009   4.064   7.018 -0.1942  0.0269  0.6859
  216MOL0     C29027  10.931   4.047   7.108  0.2100  0.3953  0.2252
  216MOL0     O29028  10.813   3.978   7.099  0.2790 -0.2988  0.0840
  216MOL0     C29029  10.787   3.890   6.998  0.1359 -0.2602  0.2975
  216MOL0     C29030  10.664   3.882   6.940  0.1547  0.4886 -1.5471
  216MOL0     C29031  10.629   3.776   6.854 -0.1747  0.5332  1.1989
  216MOL0     C29032  10.725   3.674   6.816  0.6158 -1.1398 -0.7057
  216MOL0     O29033  10.674   3.573   6.736  0.5172  0.5626  0.3939
  216MOL0     C29034  10.628   3.639   6.614 -0.0060 -0.3027  0.3315
  216MOL0     C29035  10.596   3.538   6.511 -0.0953  0.3623  0.3753
  216MOL0     C29036  10.519   3.414   6.558 -0.5022  0.3063 -0.1580
  216MOL0     C29037  10.543   3.304   6.458 -0.0292  0.1526 -0.5762
  216MOL0     C29038  10.484   3.167   6.491  0.1454 -0.7805 -0.5174
  216MOL0     C29039  10.327   3.158   6.505 -0.5590  0.0103  1.1317
  216MOL0     C29040  10.275   3.024   6.572  0.1686  0.4626 -0.4170
  216MOL0     C29041  10.276   3.059   6.719 -0.4155  0.0744 -0.1389
  216MOL0     N29042  10.174   2.984   6.787 -0.0836 -0.0025 -0.1678
  216MOL0     C29043  10.170   2.841   6.791  0.3355  0.6784 -0.0757
  216MOL0     C29044  10.046   2.823   6.843 -0.2110  0.2865  0.3752
  216MOL0     C29045   9.974   2.689   6.836 -0.1351 -0.0618  0.3922
  216MOL0     C29046   9.935   2.656   6.694  0.6677  0.3733  0.4191
  216MOL0     C29047   9.863   2.527   6.665 -0.1727  0.5163  0.7878
  216MOL0     C29048   9.760   2.498   6.774 -0.3211  0.8910  0.2496
  216MOL0     O29049   9.643   2.416   6.744 -0.1706  0.2902  0.1361
  216MOL0     C29050   9.536   2.395   6.823 -0.2443  0.3508 -1.0285
  216MOL0     C29051   9.555   2.391   6.959 -0.4840 -0.1901  0.0555
  216MOL0     C29052   9.440   2.362   7.042 -0.5361 -0.3594  0.9087
  216MOL0     C29053   9.468   2.373   7.185 -0.3292  0.3988  0.4454
  216MOL0     C29054   9.316   2.331   6.981 -1.3064  0.4121  0.3672
  216MOL0     C29055   9.214   2.274   7.054  0.1488 -0.2615 -0.2918
  216MOL0     O29056   9.093   2.304   7.008  0.3863  0.4521 -0.1646
  216MOL0     C29057   8.982   2.258   7.079 -0.3931  0.3761 -0.3174
  216MOL0     C29058   8.950   2.305   7.207 -0.1043  0.2891  0.0557
  216MOL0     C29059   8.840   2.247   7.273  0.5221  0.1395 -0.4367
  216MOL0     C29060   8.759   2.156   7.211 -0.5056  0.3087 -0.0164
  216MOL0     O29061   8.661   2.101   7.284  0.3396 -0.5248 -0.0120
  216MOL0     C29062   8.614   1.969   7.255  0.2931  0.7825  0.4216
  216MOL0     C29063   8.588   1.901   7.393  0.2550  0.3316 -1.0432
  216MOL0     C29064   8.517   1.759   7.399  0.1950  0.0277  0.4999
  216MOL0     C29065   8.386   1.773   7.325  0.0585 -0.2938 -1.0147
  216MOL0     C29066   8.318   1.637   7.331 -0.6693  0.7163 -0.7773
  216MOL0     C29067   8.387   1.502   7.289  0.0095 -0.0568  0.4121
  216MOL0     C29068   8.294   1.384   7.266 -0.0277 -0.0882  0.7840
  216MOL0     C29069   8.242   1.330   7.399  0.3020  0.4225 -0.1351
  216MOL0    Cl29070   8.142   1.188   7.360  0.2900  0.2572 -0.0920
  216MOL0     C29071   8.784   2.120   7.079  0.0633 -0.9531  0.5469
  216MOL0     C29072   8.896   2.172   7.015  0.2119 -0.3024 -0.2571
  216MOL0     O29073   9.242   2.192   7.143 -0.0025  0.0742 -0.3474
  216MOL0     C29074   9.304   2.320   6.841 -0.0234  0.2172 -0.1267
  216MOL0     C29075   9.408   2.368   6.764 -0.6842 -0.0385  0.1109
  216MOL0     N29076   9.990   2.948   6.876  0.4928 -0.2799  0.5216
  216MOL0     N29077  10.056   3.042   6.822 -0.5442 -1.0636 -0.5222
  216MOL0     C29078  10.848   3.674   6.885  0.7713 -0.3062  0.5437
  216MOL0     C29079  10.881   3.791   6.968 -0.0929 -0.3724  0.3938
  216MOL0     C29080  10.966   4.113   7.233  0.0188  0.4827  0.5318
  216MOL0     C29081  10.881   4.096   7.345  0.5235 -0.4663  1.3277
  216MOL0     C29082  10.913   4.159   7.463 -0.3606 -0.1128 -0.3309
  216MOL0     C29083  11.029   4.216   7.492  0.1184  0.8156 -0.5971
  216MOL0     O29084  11.051   4.271   7.621 -0.9811  0.1637  0.1465
  216MOL0     C29085  11.156   4.377   7.625 -0.0845  0.6294 -0.3103
  216MOL0     C29086  11.113   4.517   7.569 -0.1525  0.3187 -0.1889
  216MOL0     C29087  11.178   4.634   7.644  0.6045  0.3040  0.6154
  216MOL0     C29088  11.083   4.701   7.743  0.2660  0.1575 -0.2219
  216MOL0     C29089  11.049   4.616   7.864  1.5665 -0.0974  0.4582
  216MOL0     C29090  11.024   4.549   7.960  0.2588  0.0057 -0.1633
  216MOL0     C29091  11.122   4.223   7.390  0.2712  0.2992 -0.4530
  216MOL0     C29092  11.098   4.170   7.262 -0.4982  0.7293 -0.2205
  216MOL0     H29093  10.589   3.959   6.957  1.1617  1.2376 -0.4331
  216MOL0     H29094  10.538   3.793   6.797  1.2317 -0.2507 -1.4520
  216MOL0     H29095  10.531   3.683   6.639  0.5310  0.5225  0.9947
  216MOL0     H29096  10.703   3.712   6.582  3.5498 -3.0217  1.7394
  216MOL0     H29097  10.548   3.579   6.422 -1.6787 -1.9006  0.1129
  216MOL0     H29098  10.693   3.510   6.469 -1.2813 -1.3972 -1.3158
  216MOL0     H29099  10.536   3.369   6.656 -2.3540  0.6630  0.3594
  216MOL0     H29100  10.420   3.457   6.578  0.7576  3.6309 -0.4098
  216MOL0     H29101  10.518   3.337   6.356 -1.3034  1.1750  0.0462
  216MOL0     H29102  10.650   3.281   6.451 -0.5370 -3.0888  0.6464
  216MOL0     H29103  10.509   3.086   6.422  1.1446 -1.8802  1.0868
  216MOL0     H29104  10.523   3.134   6.587  0.8953 -3.5906 -1.7011
  216MOL0     H29105  10.289   3.245   6.559  0.6501  1.3615 -0.1002
  216MOL0     H29106  10.289   3.162   6.403  4.0722  1.8718 -0.8040
  216MOL0     H29107  10.174   2.994   6.545 -0.8848  2.1992  1.3163
  216MOL0     H29108  10.339   2.940   6.542 -3.2870 -2.0655 -1.3213
  216MOL0     H29109  10.253   3.164   6.738 -0.8373  0.1876 -1.1892
  216MOL0     H29110  10.374   3.028   6.757 -0.0205 -1.3491 -2.1166
  216MOL0     H29111  10.235   2.766   6.748  0.3124  1.3305 -1.2937
  216MOL0     H29112  10.028   2.607   6.883  0.1611 -1.0995 -1.6475
  216MOL0     H29113   9.884   2.695   6.899 -0.4856 -0.1204 -0.0979
  216MOL0     H29114  10.017   2.681   6.625 -2.2333  1.9599 -2.7564
  216MOL0     H29115   9.862   2.732   6.667  0.9219  0.9419  1.3160
  216MOL0     H29116   9.935   2.446   6.646 -1.8062 -0.4600 -1.7563
  216MOL0     H29117   9.807   2.533   6.572  0.0287 -1.8928  0.4389
  216MOL0     H29118   9.707   2.594   6.778  1.5656  2.0788 -1.1560
  216MOL0     H29119   9.813   2.470   6.865  1.4446  3.7908  0.2516
  216MOL0     H29120   9.657   2.388   6.996 -1.1417 -3.1332  1.9901
  216MOL0     H29121   9.479   2.272   7.227 -0.2861  0.3499  0.3171
  216MOL0     H29122   9.562   2.428   7.203  0.2469 -0.3776 -0.1346
  216MOL0     H29123   9.380   2.427   7.220 -0.1533  2.8342 -2.4711
  216MOL0     H29124   9.013   2.375   7.262  0.9754 -0.1760 -0.5612
  216MOL0     H29125   8.818   2.285   7.373  1.1697  0.0349 -0.2463
  216MOL0     H29126   8.531   1.973   7.184  1.9494 -1.8172 -1.8359
  216MOL0     H29127   8.694   1.916   7.204 -2.1274 -2.8815  0.0306
  216MOL0     H29128   8.681   1.889   7.449 -0.5162  0.1914  0.2412
  216MOL0     H29129   8.528   1.972   7.449 -1.0881 -1.5487  0.0291
  216MOL0     H29130   8.488   1.738   7.502 -2.6079  0.8131 -0.0256
  216MOL0     H29131   8.586   1.683   7.361  1.0526  1.0486 -0.0220
  216MOL0     H29132   8.322   1.855   7.361 -0.3281 -0.0899 -2.1204
  216MOL0     H29133   8.409   1.805   7.223  0.5450 -1.3848 -1.2524
  216MOL0     H29134   8.229   1.657   7.270 -0.0142  2.7410 -1.1303
  216MOL0     H29135   8.279   1.622   7.432  0.1560 -2.1131 -0.7870
  216MOL0     H29136   8.425   1.517   7.188 -1.2453 -1.9642 -0.4106
  216MOL0     H29137   8.471   1.470   7.350  0.6290 -0.0843 -0.4292
  216MOL0     H29138   8.347   1.301   7.219  1.9517  0.3595  2.1047
  216MOL0     H29139   8.216   1.416   7.197  0.8250 -0.3327 -0.3204
  216MOL0     H29140   8.176   1.400   7.451  0.1472  0.4950 -0.4274
  216MOL0     H29141   8.324   1.299   7.464 -0.9119 -1.1375  0.7105
  216MOL0     H29142   8.729   2.040   7.029  0.2336 -2.0145  2.0040
  216MOL0     H29143   8.917   2.140   6.914  0.4243  0.8684 -0.6048
  216MOL0     H29144   9.203   2.308   6.802 -1.4543  3.9714  1.9194
  216MOL0     H29145   9.413   2.378   6.656  1.1091 -0.1302  0.1487
  216MOL0     H29146  10.907   3.583   6.876 -2.9985 -2.8623 -0.7603
  216MOL0     H29147  10.978   3.786   7.017  0.5685 -0.7524 -0.9187
  216MOL0     H29148  10.788   4.041   7.345 -0.0792  0.5165  0.2176
  216MOL0     H29149  10.837   4.156   7.541  1.3576 -1.2093  1.3675
  216MOL0     H29150  11.178   4.394   7.730  2.7815  0.9402 -0.8935
  216MOL0     H29151  11.249   4.343   7.578 -2.2787 -2.9145 -2.5926
  216MOL0     H29152  11.008   4.532   7.545  0.5101  1.8287 -2.5734
  216MOL0     H29153  11.157   4.517   7.469 -3.6264  0.6904 -1.8602
  216MOL0     H29154  11.193   4.705   7.562 -0.0625 -2.8347 -2.4738
  216MOL0     H29155  11.271   4.604   7.692  1.1076 -0.9199 -1.0275
  216MOL0     H29156  10.991   4.704   7.684 -0.3538  1.1820  0.7778
  216MOL0     H29157  11.111   4.804   7.765  2.1232 -0.4560  0.5012
  216MOL0     H29158  11.002   4.480   8.039 -0.8315  0.7046  0.1587
  216MOL0     H29159  11.217   4.275   7.400 -1.1931  3.1966 -0.6352
  216MOL0     H29160  11.174   4.173   7.184 -0.6729  0.6856 -0.3927
  217MOL0     O29161   0.599   9.758   4.654 -0.2735 -0.0845 -0.9808
  217MOL0     C29162   0.562   9.652   4.608  0.5338  0.2726 -0.6864
  217MOL0     O29163   0.503   9.547   4.684 -0.2264  0.3549 -0.6430
  217MOL0     C29164   0.437   9.571   4.800 -0.5223 -0.8212  0.4393
  217MOL0     C29165   0.354   9.689   4.829  0.6404 -0.0340  0.5749
  217MOL0     C29166   0.284   9.714   4.944 -0.3298  0.1774  0.2276
  217MOL0     C29167   0.305   9.625   5.042  1.1763  0.7171  0.2442
  217MOL0     O29168   0.244   9.664   5.160 -0.2431  0.4546  0.3413
  217MOL0     C29169   0.316   9.614   5.276  0.3905  0.0745  1.0891
  217MOL0     C29170   0.271   9.685   5.398  0.6026  0.1276 -0.4008
  217MOL0     C29171   0.148   9.613   5.455  0.3343 -0.7433  0.5155
  217MOL0     C29172   0.033   9.717   5.484  0.0007  0.4412  0.4155
  217MOL0     C29173  -0.095   9.648   5.537  0.3284  0.2966 -0.4686
  217MOL0     C29174  -0.173   9.762   5.598 -0.0775 -0.6132  0.1957
  217MOL0     C29175  -0.289   9.704   5.673  0.2800 -0.3382 -0.2948
  217MOL0     C29176  -0.429   9.742   5.619  0.1093 -0.1874  0.6961
  217MOL0     N29177  -0.540   9.692   5.694 -0.3752  0.3916 -0.0117
  217MOL0     C29178  -0.544   9.598   5.799  0.3877  0.8819  0.1127
  217MOL0     C29179  -0.663   9.625   5.863 -0.9100 -0.4628  1.1185
  217MOL0     C29180  -0.694   9.540   5.989  0.5615 -0.2815  0.0987
  217MOL0     C29181  -0.704   9.384   5.960  0.2537  0.6886  0.1313
  217MOL0     C29182  -0.768   9.312   6.076 -0.8651  0.2316 -0.1362
  217MOL0     C29183  -0.679   9.297   6.206 -0.0068 -1.6269  0.8208
  217MOL0     O29184  -0.784   9.276   6.303  0.3339 -0.0721 -0.8881
  217MOL0     C29185  -0.752   9.246   6.435  1.0346  0.9710  0.0340
  217MOL0     C29186  -0.851   9.184   6.509 -1.3482  0.2016 -0.4113
  217MOL0     C29187  -0.838   9.149   6.648 -0.1875  0.5341 -0.4011
  217MOL0     C29188  -0.953   9.074   6.724  0.3151 -0.0842 -0.6459
  217MOL0     C29189  -0.716   9.160   6.710  0.2098 -0.3538  0.3261
  217MOL0     C29190  -0.694   9.123   6.847  0.6503 -0.0167 -0.1515
  217MOL0     O29191  -0.794   9.169   6.941 -0.5799 -0.4263 -0.2537
  217MOL0     C29192  -0.745   9.135   7.066  0.3615 -0.1202 -0.6633
  217MOL0     C29193  -0.702   9.235   7.153 -0.6349  0.6239  0.4485
  217MOL0     C29194  -0.680   9.220   7.289  0.2251  0.1346  0.0003
  217MOL0     C29195  -0.703   9.098   7.352 -0.2970  0.1175  0.7105
  217MOL0     O29196  -0.680   9.087   7.486  0.4310  0.0946 -0.6401
  217MOL0     C29197  -0.562   9.140   7.543 -0.3425  0.0634 -0.3465
  217MOL0     C29198  -0.549   9.075   7.685 -0.0200  0.0173  0.3790
  217MOL0     C29199  -0.521   8.929   7.698  0.4259  0.4039  0.3665
  217MOL0     C29200  -0.550   8.854   7.830  0.5379  0.2302 -0.2991
  217MOL0     C29201  -0.424   8.781   7.881 -0.3529  0.9492  0.2751
  217MOL0     C29202  -0.438   8.704   8.012  0.0338 -0.1831 -0.4384
  217MOL0     C29203  -0.315   8.653   8.086  0.3781  0.1732 -0.5984
  217MOL0     C29204  -0.163   8.684   8.038 -0.1570  0.7688 -0.1557
  217MOL0    Cl29205  -0.130   8.642   7.875 -0.5285  0.1889 -0.2761
  217MOL0     C29206  -0.750   8.991   7.276 -0.3710  0.2183  0.1883
  217MOL0     C29207  -0.767   9.006   7.134 -0.4533  0.2821 -0.9659
  217MOL0     O29208  -0.580   9.070   6.877  0.1862 -0.6684 -0.2032
  217MOL0     C29209  -0.614   9.224   6.635  0.5456 -0.1436  0.6550
  217MOL0     C29210  -0.626   9.260   6.497 -0.1854  0.1797  0.1292
  217MOL0     N29211  -0.720   9.724   5.801  0.9082  0.0213  0.3777
  217MOL0     N29212  -0.651   9.759   5.695  0.7355 -0.3159 -0.5467
  217MOL0     C29213   0.374   9.496   5.024  0.4754 -1.3039 -0.8514
  217MOL0     C29214   0.437   9.481   4.902 -0.5280  0.2834  0.7204
  217MOL0     C29215   0.590   9.642   4.469  0.4743  0.2649 -0.3641
  217MOL0     C29216   0.606   9.510   4.401  0.2574  0.2038  0.4478
  217MOL0     C29217   0.640   9.508   4.267 -0.1889 -0.2427  1.4498
  217MOL0     C29218   0.652   9.628   4.188 -0.0369 -0.1156 -0.0289
  217MOL0     O29219   0.671   9.633   4.046 -0.4916  0.0980 -0.9845
  217MOL0     C29220   0.661   9.513   3.971  0.1242 -0.7765  0.5651
  217MOL0     C29221   0.597   9.538   3.831  0.3376 -0.0629  0.0279
  217MOL0     C29222   0.462   9.618   3.835 -0.3645  0.7978  0.0287
  217MOL0     C29223   0.347   9.529   3.896  0.0702 -0.2894  0.9395
  217MOL0     C29224   0.302   9.574   4.025  0.0935  1.6197 -0.6022
  217MOL0     C29225   0.265   9.614   4.132  0.1769 -0.3775 -0.8653
  217MOL0     C29226   0.637   9.752   4.251  0.5249 -0.1192 -0.1824
  217MOL0     C29227   0.599   9.757   4.390  0.2597  0.0661 -0.4582
  217MOL0     H29228   0.347   9.772   4.759  2.9738  1.8550  2.4178
  217MOL0     H29229   0.215   9.797   4.950 -0.0026  0.3703  1.8762
  217MOL0     H29230   0.319   9.507   5.297  1.1113 -0.2505 -0.5146
  217MOL0     H29231   0.421   9.642   5.260  1.3558 -2.4492  2.5092
  217MOL0     H29232   0.355   9.688   5.468 -0.9059 -3.4733  1.7949
  217MOL0     H29233   0.251   9.788   5.366  3.3759  1.0214  0.4315
  217MOL0     H29234   0.103   9.535   5.393 -0.9488 -0.9045  1.5757
  217MOL0     H29235   0.182   9.563   5.546 -2.9639  0.0492  2.3506
  217MOL0     H29236   0.070   9.784   5.563 -2.0306  2.2477 -0.0765
  217MOL0     H29237   0.013   9.769   5.390  0.7053  0.5291  0.3066
  217MOL0     H29238  -0.158   9.606   5.458 -1.7285 -1.5349  1.9827
  217MOL0     H29239  -0.074   9.574   5.614 -0.6960  1.2881  0.8206
  217MOL0     H29240  -0.120   9.826   5.670  0.4612 -0.7038 -0.1230
  217MOL0     H29241  -0.215   9.821   5.516 -0.7009  0.2194  1.0760
  217MOL0     H29242  -0.279   9.595   5.670 -0.6327 -0.4294 -0.3143
  217MOL0     H29243  -0.285   9.743   5.775 -1.8555 -0.3842 -0.1378
  217MOL0     H29244  -0.430   9.708   5.515 -0.2068  3.5663 -0.7028
  217MOL0     H29245  -0.440   9.850   5.608  0.3933 -0.4210 -3.3856
  217MOL0     H29246  -0.475   9.518   5.826 -1.4409  0.2831  3.4918
  217MOL0     H29247  -0.617   9.555   6.065 -0.4581 -1.2858  1.3704
  217MOL0     H29248  -0.795   9.565   6.024 -0.4214  1.1185 -3.3341
  217MOL0     H29249  -0.607   9.334   5.943  0.5724  1.7917 -1.5319
  217MOL0     H29250  -0.756   9.378   5.864  2.3235  1.6728 -1.1165
  217MOL0     H29251  -0.807   9.214   6.045 -4.0083 -0.2611  4.3032
  217MOL0     H29252  -0.865   9.359   6.096 -0.5442  0.5000  0.8764
  217MOL0     H29253  -0.622   9.385   6.236 -2.2545 -1.3801  5.2799
  217MOL0     H29254  -0.617   9.207   6.197  0.7326 -1.2688  2.0689
  217MOL0     H29255  -0.946   9.161   6.460 -1.3391 -1.2358  0.1692
  217MOL0     H29256  -0.998   9.150   6.790  0.6391 -0.3854 -0.0681
  217MOL0     H29257  -1.033   9.040   6.658  0.2898 -1.6223  0.1332
  217MOL0     H29258  -0.920   8.997   6.794 -0.6840  1.1545  1.2855
  217MOL0     H29259  -0.712   9.335   7.114  3.0363  1.4207  1.1697
  217MOL0     H29260  -0.643   9.303   7.349  0.9608 -0.5195  0.4705
  217MOL0     H29261  -0.468   9.136   7.487 -0.9397  0.6014 -1.4196
  217MOL0     H29262  -0.588   9.246   7.551 -1.1882 -0.0632 -1.2982
  217MOL0     H29263  -0.468   9.124   7.741 -1.1139  1.8473  0.4233
  217MOL0     H29264  -0.638   9.100   7.743 -0.8787  0.0163 -0.9098
  217MOL0     H29265  -0.423   8.899   7.660 -0.5833 -2.8840  0.0092
  217MOL0     H29266  -0.593   8.886   7.628  2.2201 -0.0391 -1.2930
  217MOL0     H29267  -0.595   8.906   7.915  4.1165  2.3202  0.5234
  217MOL0     H29268  -0.627   8.779   7.809  1.3445 -1.1388  1.4168
  217MOL0     H29269  -0.345   8.855   7.899  1.6562 -1.0819  0.1710
  217MOL0     H29270  -0.398   8.712   7.800  2.0258 -0.8726  2.4190
  217MOL0     H29271  -0.498   8.774   8.071  2.6348  2.4645 -0.7061
  217MOL0     H29272  -0.503   8.618   7.993 -0.2960  0.4698 -2.4590
  217MOL0     H29273  -0.323   8.544   8.090  0.9169  0.0322 -2.5334
  217MOL0     H29274  -0.319   8.693   8.188  1.9394 -0.0428 -0.4237
  217MOL0     H29275  -0.079   8.652   8.099  2.2584  2.2480 -2.4964
  217MOL0     H29276  -0.153   8.792   8.052  0.7518  0.9513 -1.9576
  217MOL0     H29277  -0.775   8.900   7.330 -2.3298  0.8733  0.4496
  217MOL0     H29278  -0.802   8.927   7.068  2.7145  0.2451 -2.7951
  217MOL0     H29279  -0.520   9.230   6.689  0.1462  0.5112  1.3127
  217MOL0     H29280  -0.542   9.293   6.437 -0.3214 -0.0874 -0.2105
  217MOL0     H29281   0.383   9.428   5.107 -0.2830 -1.1205 -0.6089
  217MOL0     H29282   0.488   9.389   4.876  1.9611  1.3235  1.6057
  217MOL0     H29283   0.584   9.417   4.452 -1.4092  1.4033  2.0742
  217MOL0     H29284   0.661   9.406   4.236  1.2039  0.5677 -0.5085
  217MOL0     H29285   0.759   9.467   3.954 -0.6516 -2.7486  1.1601
  217MOL0     H29286   0.587   9.447   4.017 -3.7903  3.1776  0.6241
  217MOL0     H29287   0.598   9.440   3.784  4.1882 -0.8544  1.3696
  217MOL0     H29288   0.662   9.589   3.759 -2.1840  1.6043 -1.1886
  217MOL0     H29289   0.429   9.643   3.734  1.8954 -0.4490 -1.0898
  217MOL0     H29290   0.484   9.709   3.892  1.7425  1.9883 -2.4725
  217MOL0     H29291   0.391   9.429   3.901  3.5630  1.0127 -0.6596
  217MOL0     H29292   0.261   9.523   3.830  1.6914 -1.3637 -1.2002
  217MOL0     H29293   0.228   9.657   4.223 -1.1671 -1.1025 -1.0441
  217MOL0     H29294   0.662   9.836   4.187  2.2755 -0.4701  0.0026
  217MOL0     H29295   0.588   9.854   4.439  2.6260 -0.5509  1.4547
  218MOL0     O29296   3.308   3.786   9.862  0.1537 -0.3168 -0.6148
  218MOL0     C29297   3.327   3.662   9.888  0.2662  0.2152  0.7135
  218MOL0     O29298   3.275   3.559   9.815  0.3113  0.2398 -0.7384
  218MOL0     C29299   3.172   3.578   9.723 -0.1152 -0.1725  0.0171
  218MOL0     C29300   3.041   3.584   9.758 -0.1328  0.7957 -0.9448
  218MOL0     C29301   2.942   3.624   9.669 -1.0358 -0.7696  0.0662
  218MOL0     C29302   2.981   3.661   9.540  0.2596  0.9650 -0.3819
  218MOL0     O29303   2.884   3.699   9.457 -0.1331 -0.4671  0.4554
  218MOL0     C29304   2.856   3.838   9.469  0.1396 -1.6415 -0.7389
  218MOL0     C29305   2.754   3.879   9.366 -0.2469  0.2300 -0.0521
  218MOL0     C29306   2.648   3.765   9.341 -0.1654 -0.3669 -0.9905
  218MOL0     C29307   2.551   3.803   9.232 -0.1882  0.6877  0.2521
  218MOL0     C29308   2.460   3.687   9.186  0.5349 -0.5469  0.6570
  218MOL0     C29309   2.360   3.747   9.088  0.0169  0.3187 -0.3661
  218MOL0     C29310   2.297   3.631   9.000  1.0783 -0.0621 -0.0587
  218MOL0     C29311   2.221   3.531   9.087  0.0017  0.0487  0.0811
  218MOL0     N29312   2.141   3.433   9.014  0.1418 -0.1801  0.6343
  218MOL0     C29313   2.037   3.362   9.075  0.8641  0.3621  0.8179
  218MOL0     C29314   1.985   3.286   8.983 -0.0363  0.9533 -0.0962
  218MOL0     C29315   1.883   3.175   8.996  0.5292 -0.1507 -1.3112
  218MOL0     C29316   1.747   3.218   9.062  0.7178 -0.0816 -0.4651
  218MOL0     C29317   1.680   3.084   9.097  0.6131  0.8637 -0.3136
  218MOL0     C29318   1.560   3.106   9.186  0.2828  1.2035  0.2002
  218MOL0     O29319   1.525   2.987   9.258  0.2075  0.0556  0.6989
  218MOL0     C29320   1.427   2.914   9.198  0.6202 -0.2335  0.2337
  218MOL0     C29321   1.464   2.819   9.104  0.6068  0.1832  0.3002
  218MOL0     C29322   1.374   2.732   9.033  0.5839 -0.8640 -0.7601
  218MOL0     C29323   1.422   2.643   8.923  0.1367 -0.8480 -1.0903
  218MOL0     C29324   1.234   2.746   9.068 -0.0962  0.1751 -0.4386
  218MOL0     C29325   1.122   2.672   8.991  0.6083 -0.4816 -0.4505
  218MOL0     O29326   1.003   2.689   9.049  0.0575 -0.5314  0.5294
  218MOL0     C29327   0.899   2.618   8.986 -0.2143 -1.3952 -0.9220
  218MOL0     C29328   0.893   2.474   8.965  0.3369 -0.2594  0.3237
  218MOL0     C29329   0.776   2.402   8.953 -0.4234 -0.2545  1.0402
  218MOL0     C29330   0.655   2.471   8.961 -0.0568 -1.5176 -1.4301
  218MOL0     O29331   0.549   2.399   8.939  0.2325 -0.5838 -0.0587
  218MOL0     C29332   0.418   2.461   8.957 -1.2263 -0.0686 -0.4253
  218MOL0     C29333   0.370   2.477   9.099  0.1954  0.3996 -0.2348
  218MOL0     C29334   0.227   2.534   9.110 -0.1928  0.7095  0.1579
  218MOL0     C29335   0.186   2.584   9.252 -0.3312 -0.0112 -0.0250
  218MOL0     C29336   0.072   2.692   9.239 -0.4836  0.2413 -0.5447
  218MOL0     C29337   0.027   2.721   9.379  0.3516  0.6598  1.0798
  218MOL0     C29338   0.107   2.827   9.454 -0.0929 -1.2254 -0.1937
  218MOL0     C29339   0.092   2.826   9.605  1.1717  0.1180 -0.1545
  218MOL0    Cl29340  -0.080   2.863   9.640  0.4557  0.4356 -0.0771
  218MOL0     C29341   0.661   2.614   8.982 -0.1861  1.5414 -0.3661
  218MOL0     C29342   0.776   2.691   8.984  0.1868 -0.6886  0.4704
  218MOL0     O29343   1.144   2.616   8.886  0.5766 -0.2865  0.1210
  218MOL0     C29344   1.202   2.834   9.172 -1.1024 -0.2466 -0.3934
  218MOL0     C29345   1.293   2.918   9.235  0.6699 -0.3308 -0.7209
  218MOL0     N29346   2.053   3.310   8.859  0.4430  0.4418 -0.2765
  218MOL0     N29347   2.142   3.405   8.883  0.1421 -0.4425 -0.3389
  218MOL0     C29348   3.104   3.630   9.495 -0.0755 -0.3031 -0.1585
  218MOL0     C29349   3.203   3.594   9.583 -0.6262  0.0872  0.1128
  218MOL0     C29350   3.413   3.625  10.000  0.5449 -0.0842 -1.1669
  218MOL0     C29351   3.467   3.493  10.017  1.7643  0.4208  0.8511
  218MOL0     C29352   3.550   3.453  10.117 -0.2058  0.3848  0.4663
  218MOL0     C29353   3.609   3.548  10.206  0.3796  0.5537  0.6014
  218MOL0     O29354   3.711   3.531  10.297  0.6390 -0.5132 -0.2384
  218MOL0     C29355   3.774   3.405  10.296 -0.4265 -0.5284  0.5206
  218MOL0     C29356   3.838   3.358  10.427  0.3566  0.8771 -0.9515
  218MOL0     C29357   3.717   3.303  10.515  0.3898  0.5146  0.1409
  218MOL0     C29358   3.752   3.203  10.631  0.5043  0.4679  0.1950
  218MOL0     C29359   3.828   3.276  10.737 -0.0019 -0.0560  0.6388
  218MOL0     C29360   3.879   3.347  10.819  0.5227  0.4651 -0.2885
  218MOL0     C29361   3.559   3.681  10.196 -0.1736  0.3795  0.5733
  218MOL0     C29362   3.455   3.715  10.098 -1.0107 -0.3785  0.0562
  218MOL0     H29363   3.009   3.539   9.852 -1.6241  0.7806 -1.4360
  218MOL0     H29364   2.840   3.635   9.702 -0.3033 -0.4967  2.4051
  218MOL0     H29365   2.821   3.870   9.567 -0.4504  3.1496 -2.2571
  218MOL0     H29366   2.946   3.900   9.464 -1.4436  0.9272  0.6021
  218MOL0     H29367   2.695   3.962   9.406  1.1815 -0.1843  3.2041
  218MOL0     H29368   2.809   3.906   9.276 -0.5947  2.6802  0.4139
  218MOL0     H29369   2.703   3.674   9.316  0.8904  1.0441 -4.3432
  218MOL0     H29370   2.592   3.744   9.433  1.5201 -2.9553 -0.4522
  218MOL0     H29371   2.483   3.881   9.268  1.5691  2.7064 -0.6128
  218MOL0     H29372   2.603   3.837   9.142  0.2740  1.5315  0.8234
  218MOL0     H29373   2.519   3.616   9.127  3.9681  1.7529  1.0064
  218MOL0     H29374   2.394   3.646   9.263 -0.2959 -0.0087  0.2378
  218MOL0     H29375   2.284   3.801   9.144  1.6856  2.5724 -0.1524
  218MOL0     H29376   2.403   3.823   9.022  2.0004 -0.0143  0.4765
  218MOL0     H29377   2.227   3.671   8.925  1.2882 -0.4854 -0.4824
  218MOL0     H29378   2.378   3.579   8.949  3.6087  2.0908  1.4858
  218MOL0     H29379   2.152   3.587   9.151  0.7005  1.8285 -0.6612
  218MOL0     H29380   2.292   3.470   9.143 -0.6940 -1.6466 -0.7928
  218MOL0     H29381   2.019   3.358   9.182 -0.5595 -0.7199  0.5664
  218MOL0     H29382   1.863   3.120   8.903 -0.8299 -1.5843 -0.2273
  218MOL0     H29383   1.921   3.110   9.075  1.1713  2.9006  1.1216
  218MOL0     H29384   1.679   3.283   9.006 -0.4260 -0.9964 -0.1844
  218MOL0     H29385   1.770   3.265   9.157 -2.0347  0.3144  0.1089
  218MOL0     H29386   1.748   3.009   9.140  1.4506  1.6260 -0.2862
  218MOL0     H29387   1.652   3.039   9.002 -0.6554 -0.0123  0.4358
  218MOL0     H29388   1.476   3.146   9.128 -1.7216 -2.5359  0.2571
  218MOL0     H29389   1.592   3.180   9.259  3.0064  1.2901 -0.9645
  218MOL0     H29390   1.569   2.806   9.078  0.8748  1.2708  0.7904
  218MOL0     H29391   1.376   2.664   8.826  0.1459 -2.1534 -1.3923
  218MOL0     H29392   1.525   2.670   8.899 -0.5066  1.7788 -1.2444
  218MOL0     H29393   1.410   2.537   8.948  1.7963 -0.8269 -0.0653
  218MOL0     H29394   0.988   2.423   8.953 -0.2888 -1.3230 -0.2991
  218MOL0     H29395   0.779   2.296   8.933  2.2969 -0.0841  0.0242
  218MOL0     H29396   0.408   2.563   8.917  0.3388  0.2652 -0.0593
  218MOL0     H29397   0.350   2.400   8.898 -0.6399 -2.0318  0.8279
  218MOL0     H29398   0.368   2.376   9.140 -0.3972  1.3299  2.1598
  218MOL0     H29399   0.440   2.543   9.152  0.9528 -0.9015  0.4434
  218MOL0     H29400   0.158   2.457   9.075  3.5969 -3.1035  0.3754
  218MOL0     H29401   0.217   2.621   9.044 -0.3922  1.3378  1.0033
  218MOL0     H29402   0.172   2.493   9.311  2.9735  0.9334  2.5391
  218MOL0     H29403   0.270   2.639   9.296 -1.3294  2.2382 -0.7795
  218MOL0     H29404  -0.006   2.640   9.182  1.2832 -3.0274 -0.2119
  218MOL0     H29405   0.105   2.776   9.177 -2.3402  1.4756  0.0407
  218MOL0     H29406  -0.075   2.762   9.374  0.4777  0.7855 -2.0300
  218MOL0     H29407   0.024   2.630   9.439  0.6624 -1.4661 -1.9387
  218MOL0     H29408   0.070   2.929   9.438 -2.4286 -1.6917  1.6827
  218MOL0     H29409   0.210   2.828   9.415  0.0596 -2.0366  0.1611
  218MOL0     H29410   0.149   2.912   9.643  0.6998  1.0464 -1.4633
  218MOL0     H29411   0.129   2.732   9.646  1.0247  0.0252 -0.2328
  218MOL0     H29412   0.566   2.666   8.991 -0.1565  2.0842 -2.6151
  218MOL0     H29413   0.771   2.799   8.988 -0.7293 -0.7322  0.6989
  218MOL0     H29414   1.103   2.851   9.212 -0.2383  0.9190  1.3772
  218MOL0     H29415   1.263   2.994   9.307  1.4196 -1.2146  0.5590
  218MOL0     H29416   3.116   3.659   9.391 -2.6833 -2.7931 -1.2891
  218MOL0     H29417   3.304   3.564   9.557  0.0176  0.6786  1.7941
  218MOL0     H29418   3.428   3.414   9.953  0.6297  1.3660  0.3413
  218MOL0     H29419   3.566   3.346  10.113 -1.0061  0.2900 -2.2736
  218MOL0     H29420   3.720   3.317  10.259  0.8989 -0.9988 -0.3770
  218MOL0     H29421   3.860   3.417  10.229  0.9421 -0.6718  2.1929
  218MOL0     H29422   3.910   3.430  10.468  3.4073 -1.8852 -1.0527
  218MOL0     H29423   3.894   3.268  10.403  1.2958  0.5836  1.9165
  218MOL0     H29424   3.661   3.241  10.444  0.7386  0.3019  0.0477
  218MOL0     H29425   3.658   3.382  10.562  1.2784  0.4720  1.3788
  218MOL0     H29426   3.819   3.128  10.589  2.8474  1.7458  1.4348
  218MOL0     H29427   3.666   3.162  10.685 -0.0555  0.9473 -0.3061
  218MOL0     H29428   3.911   3.411  10.899 -0.5997 -1.1457  1.5431
  218MOL0     H29429   3.587   3.772  10.247  0.6852  0.7873 -0.5861
  218MOL0     H29430   3.414   3.815  10.086 -2.9462 -1.3395 -2.4594
  219MOL0     O29431   4.772  10.231  10.007 -0.4007 -0.3766 -0.3098
  219MOL0     C29432   4.672  10.180   9.955  0.0766 -0.0626 -0.5892
  219MOL0     O29433   4.590  10.093  10.011 -0.2533 -0.0157 -0.0220
  219MOL0     C29434   4.586  10.085  10.147 -0.0914  0.4579  0.5591
  219MOL0     C29435   4.700  10.055  10.223 -0.5412 -0.2466 -0.7043
  219MOL0     C29436   4.685  10.061  10.362 -0.0231  0.8376 -0.0198
  219MOL0     C29437   4.558  10.065  10.423 -0.5674 -0.4977  0.1889
  219MOL0     O29438   4.537  10.051  10.558  0.3856 -0.8022  0.8230
  219MOL0     C29439   4.605  10.165  10.624  0.9958  0.1533  0.1295
  219MOL0     C29440   4.522  10.229  10.735 -0.3171 -0.1267  0.3946
  219MOL0     C29441   4.600  10.330  10.831 -0.2040  0.1113 -0.4034
  219MOL0     C29442   4.687  10.257  10.937 -0.3978 -0.7069  0.8065
  219MOL0     C29443   4.823  10.326  10.970  0.2820 -1.0862  0.4711
  219MOL0     C29444   4.795  10.472  11.025  0.0339 -0.8577  0.0851
  219MOL0     C29445   4.732  10.467  11.164 -0.1798  0.3947 -0.6353
  219MOL0     C29446   4.691  10.614  11.203 -1.5000  0.0201 -0.5464
  219MOL0     N29447   4.552  10.612  11.248 -0.2023  0.1248 -0.3882
  219MOL0     C29448   4.439  10.653  11.171 -0.3242 -0.2202 -0.2419
  219MOL0     C29449   4.335  10.626  11.249 -0.2376  0.0479  0.6275
  219MOL0     C29450   4.198  10.642  11.205  0.6809 -0.1443  0.1113
  219MOL0     C29451   4.167  10.788  11.177 -0.3990 -0.6707  0.8298
  219MOL0     C29452   4.031  10.806  11.123  0.8131 -0.3542  0.0827
  219MOL0     C29453   4.022  10.953  11.069 -0.2633 -0.8459  0.9373
  219MOL0     O29454   3.908  10.969  11.004  0.5927  0.5778  0.4635
  219MOL0     C29455   3.894  11.075  10.916  0.3735 -0.5860  0.6209
  219MOL0     C29456   3.774  11.075  10.843  0.1786 -0.4692  0.3604
  219MOL0     C29457   3.754  11.174  10.745  0.1531  0.8541 -0.1569
  219MOL0     C29458   3.616  11.172  10.685  0.5920 -0.2474  0.7657
  219MOL0     C29459   3.850  11.276  10.721  0.6024 -0.6031 -0.0829
  219MOL0     C29460   3.825  11.398  10.633  0.4120  0.8453 -1.3213
  219MOL0     O29461   3.731  11.390  10.537  0.3939  0.0634  0.4676
  219MOL0     C29462   3.685  11.517  10.483 -0.2027  0.5236  0.5593
  219MOL0     C29463   3.703  11.550  10.345 -0.1965  0.8331 -0.4032
  219MOL0     C29464   3.644  11.670  10.294  0.1952  0.0212  0.1120
  219MOL0     C29465   3.569  11.761  10.369  0.2606  0.2712 -0.8785
  219MOL0     O29466   3.501  11.865  10.328 -1.0232 -0.1857  0.7120
  219MOL0     C29467   3.572  11.944  10.230  0.1359  0.3851 -0.5294
  219MOL0     C29468   3.519  12.086  10.251 -0.3092 -0.7565  0.9728
  219MOL0     C29469   3.561  12.171  10.130 -0.5324  0.4078 -0.3194
  219MOL0     C29470   3.470  12.296  10.136 -0.4814  1.0118 -0.7182
  219MOL0     C29471   3.446  12.375  10.008 -1.1507  0.6423  0.2187
  219MOL0     C29472   3.587  12.415   9.953  1.0896 -0.4343  0.1031
  219MOL0     C29473   3.565  12.535   9.866  0.1762  0.4989  0.8847
  219MOL0     C29474   3.696  12.579   9.796  1.8351  0.0285 -1.3814
  219MOL0    Cl29475   3.787  12.447   9.738  0.4587  0.1642  0.5645
  219MOL0     C29476   3.555  11.724  10.500 -0.3854 -0.8612 -0.3454
  219MOL0     C29477   3.603  11.604  10.556 -0.0061 -0.6891 -0.4324
  219MOL0     O29478   3.873  11.501  10.672  0.5724  0.3202  0.2953
  219MOL0     C29479   3.964  11.273  10.800  0.9639 -1.2468  0.0127
  219MOL0     C29480   3.987  11.182  10.903 -0.1749  0.4972  0.1254
  219MOL0     N29481   4.377  10.566  11.366  0.2816 -0.0726  0.1665
  219MOL0     N29482   4.504  10.552  11.368  0.4810  0.6749 -0.0333
  219MOL0     C29483   4.443  10.084  10.343 -0.2090  0.3502 -0.7154
  219MOL0     C29484   4.461  10.095  10.202  0.1801 -0.1356  0.0067
  219MOL0     C29485   4.651  10.207   9.810 -0.0716  0.0185  0.1526
  219MOL0     C29486   4.564  10.130   9.737 -0.2753 -0.5449 -0.2233
  219MOL0     C29487   4.549  10.143   9.603 -0.0661  0.2020  0.6537
  219MOL0     C29488   4.615  10.241   9.532 -0.3820 -0.8575 -0.5323
  219MOL0     O29489   4.613  10.256   9.394  0.3823  0.2933 -0.1844
  219MOL0     C29490   4.501  10.328   9.344  1.0226  0.4979  0.1445
  219MOL0     C29491   4.513  10.343   9.193  0.3100  0.0820  0.1651
  219MOL0     C29492   4.621  10.455   9.161 -0.0405 -1.4389  0.1873
  219MOL0     C29493   4.622  10.514   9.017 -0.3966 -0.2624 -0.1730
  219MOL0     C29494   4.712  10.419   8.945  0.0903 -0.0891 -0.8887
  219MOL0     C29495   4.769  10.338   8.885 -0.4919 -0.1925 -0.2393
  219MOL0     C29496   4.691  10.336   9.605  0.2884 -0.5253 -1.1813
  219MOL0     C29497   4.707  10.323   9.745  0.0827  0.8252 -0.3689
  219MOL0     H29498   4.799  10.043  10.180  1.6856 -0.1947  3.8206
  219MOL0     H29499   4.773  10.050  10.426  0.1112 -0.3292 -0.3779
  219MOL0     H29500   4.698  10.127  10.667  0.2804  0.7518  2.3182
  219MOL0     H29501   4.643  10.240  10.554 -0.8702  1.5625  0.5427
  219MOL0     H29502   4.437  10.276  10.685  0.9839  0.4108 -1.4023
  219MOL0     H29503   4.485  10.155  10.806 -2.2407  0.8348  0.4611
  219MOL0     H29504   4.664  10.400  10.776  3.3602 -1.7183  1.0752
  219MOL0     H29505   4.521  10.385  10.883 -1.7436 -2.3113 -0.0372
  219MOL0     H29506   4.621  10.260  11.024 -1.3842  3.5433  0.1355
  219MOL0     H29507   4.705  10.154  10.907 -1.7994 -0.5566 -0.6724
  219MOL0     H29508   4.861  10.262  11.050 -0.6961 -0.7557  1.2220
  219MOL0     H29509   4.887  10.324  10.882  0.1804  2.5673  0.1500
  219MOL0     H29510   4.883  10.535  11.043 -0.3739 -0.9313  2.7122
  219MOL0     H29511   4.739  10.530  10.951  0.5341 -0.4386  0.0274
  219MOL0     H29512   4.644  10.403  11.181 -2.5743  3.9050  1.5464
  219MOL0     H29513   4.813  10.429  11.226  0.2811  2.3046 -0.0070
  219MOL0     H29514   4.708  10.688  11.125  0.4760  1.5327  1.1718
  219MOL0     H29515   4.747  10.642  11.293 -0.8205 -1.7286 -0.3741
  219MOL0     H29516   4.431  10.711  11.080 -1.2828  0.0937  0.0256
  219MOL0     H29517   4.198  10.606  11.102  0.2329 -0.3739  0.1915
  219MOL0     H29518   4.125  10.589  11.266  0.4551 -0.2648 -0.2618
  219MOL0     H29519   4.241  10.816  11.100 -0.9029  0.4506  0.7240
  219MOL0     H29520   4.182  10.857  11.260  0.0524  2.4256 -1.6041
  219MOL0     H29521   3.953  10.798  11.200 -0.5846  0.0837 -1.2307
  219MOL0     H29522   4.007  10.737  11.041  1.3895 -2.4739  1.6064
  219MOL0     H29523   4.102  10.968  10.995  0.4368 -1.7085  1.4980
  219MOL0     H29524   4.029  11.030  11.146  0.5974  0.4269 -0.3555
  219MOL0     H29525   3.685  11.017  10.866 -1.0372  1.7765  1.6349
  219MOL0     H29526   3.538  11.124  10.745 -0.2129 -3.1121 -2.2946
  219MOL0     H29527   3.573  11.268  10.656 -2.0161 -1.8721 -1.2132
  219MOL0     H29528   3.603  11.099  10.605  0.1607  0.0693  0.5381
  219MOL0     H29529   3.758  11.480  10.282 -0.3623 -0.7496  1.1105
  219MOL0     H29530   3.640  11.676  10.186 -4.1238  1.6526  0.1461
  219MOL0     H29531   3.676  11.951  10.263  0.2871 -1.8831 -0.3787
  219MOL0     H29532   3.555  11.906  10.129  0.9200  5.1391 -2.7285
  219MOL0     H29533   3.410  12.078  10.253 -0.1581 -7.0565  1.8782
  219MOL0     H29534   3.560  12.145  10.334  1.0937 -0.2505 -0.0263
  219MOL0     H29535   3.547  12.120  10.034  1.7122  1.3596 -1.2405
  219MOL0     H29536   3.666  12.196  10.151 -1.2308  0.4231  4.1064
  219MOL0     H29537   3.369  12.272  10.172  0.7214 -2.2081  0.9806
  219MOL0     H29538   3.502  12.379  10.200  0.4993  3.8778 -4.5620
  219MOL0     H29539   3.385  12.464  10.025  1.1445  2.9368 -2.4718
  219MOL0     H29540   3.388  12.317   9.936 -1.3170 -0.6922  1.3792
  219MOL0     H29541   3.650  12.444  10.037  2.4147 -0.1404 -0.9705
  219MOL0     H29542   3.636  12.329   9.907 -1.1377 -0.5669 -2.2364
  219MOL0     H29543   3.546  12.616   9.937 -2.4135  2.0449 -1.4059
  219MOL0     H29544   3.476  12.531   9.802  1.6667  0.8925 -1.3278
  219MOL0     H29545   3.759  12.637   9.864 -0.3131  1.8289 -0.8363
  219MOL0     H29546   3.660  12.647   9.719 -2.7820 -0.1093  0.3259
  219MOL0     H29547   3.501  11.802  10.553  2.2427  0.7547  0.1950
  219MOL0     H29548   3.597  11.578  10.661 -0.4278  0.6923 -0.0858
  219MOL0     H29549   4.034  11.356  10.805 -0.3357 -0.1489  0.6618
  219MOL0     H29550   4.074  11.186  10.967  1.4064  0.5642 -1.9132
  219MOL0     H29551   4.350  10.105  10.395 -1.1641  0.0129 -2.2534
  219MOL0     H29552   4.374  10.119  10.141  1.4914  1.7687 -1.2188
  219MOL0     H29553   4.501  10.064   9.795 -2.7268  3.1619  1.7508
  219MOL0     H29554   4.490  10.071   9.547  0.8698 -2.5938  3.0256
  219MOL0     H29555   4.405  10.276   9.357 -0.1488  1.2158 -3.9893
  219MOL0     H29556   4.499  10.427   9.391 -1.9786  0.3649  0.5069
  219MOL0     H29557   4.416  10.369   9.150  0.7258  2.2816  0.4276
  219MOL0     H29558   4.540  10.248   9.145 -4.6539 -0.9748 -1.1171
  219MOL0     H29559   4.713  10.406   9.195 -1.8731 -5.7517 -0.4113
  219MOL0     H29560   4.601  10.537   9.230  1.8131 -0.6035 -0.2081
  219MOL0     H29561   4.657  10.618   9.017 -2.1368  0.3587 -0.2331
  219MOL0     H29562   4.519  10.515   8.981 -1.2153 -0.1794  1.9879
  219MOL0     H29563   4.822  10.252   8.849  0.3858 -1.2466  3.1866
  219MOL0     H29564   4.740  10.418   9.555 -1.5239  1.8337  0.6531
  219MOL0     H29565   4.760  10.399   9.802  2.2783 -1.1870  0.3940
  220MOL0     O29566   5.807   0.046   8.266  0.1167  0.0033 -0.2726
  220MOL0     C29567   5.766   0.080   8.152  0.2875 -0.6854 -1.1778
  220MOL0     O29568   5.645   0.050   8.103 -0.2668 -0.7539  0.0029
  220MOL0     C29569   5.551  -0.040   8.158 -0.0958 -0.2345  0.7071
  220MOL0     C29570   5.569  -0.147   8.255 -0.2877 -0.7177  0.0510
  220MOL0     C29571   5.465  -0.223   8.315  0.2252 -0.8289 -0.1418
  220MOL0     C29572   5.329  -0.203   8.272 -0.0998 -0.3530 -0.6054
  220MOL0     O29573   5.206  -0.271   8.301  0.5759  0.0343  0.3429
  220MOL0     C29574   5.221  -0.379   8.399 -0.3772 -0.7791  0.8469
  220MOL0     C29575   5.089  -0.371   8.478  0.7093  0.3821  0.0342
  220MOL0     C29576   4.967  -0.449   8.422 -0.4243  0.4483 -0.4453
  220MOL0     C29577   4.839  -0.436   8.515  0.1524 -0.1001 -0.4068
  220MOL0     C29578   4.707  -0.447   8.455  0.4065 -0.2311 -0.0806
  220MOL0     C29579   4.589  -0.418   8.549 -1.0038  0.3642  0.3920
  220MOL0     C29580   4.462  -0.464   8.467 -0.6240 -0.5519 -0.3472
  220MOL0     C29581   4.338  -0.386   8.545 -0.7744  0.4987  0.6938
  220MOL0     N29582   4.214  -0.402   8.473  0.0146  0.2315 -0.4954
  220MOL0     C29583   4.101  -0.477   8.517 -0.2807 -0.4630  0.1395
  220MOL0     C29584   4.022  -0.483   8.409  0.0405  0.0361  0.1074
  220MOL0     C29585   3.893  -0.565   8.381 -0.2767 -0.0457 -0.0204
  220MOL0     C29586   3.787  -0.568   8.501 -1.3620 -0.4574 -0.2620
  220MOL0     C29587   3.764  -0.418   8.535  0.0550  0.1831 -0.4170
  220MOL0     C29588   3.634  -0.408   8.623  0.4849  0.1061 -0.1865
  220MOL0     O29589   3.645  -0.463   8.759 -0.0786 -0.3154  0.6986
  220MOL0     C29590   3.722  -0.396   8.849 -0.5545 -0.9600 -0.3210
  220MOL0     C29591   3.756  -0.261   8.851  0.4708  0.1370 -0.9779
  220MOL0     C29592   3.824  -0.195   8.951  0.2399 -0.0545  0.2918
  220MOL0     C29593   3.823  -0.047   8.944 -0.5863 -0.0884  0.0397
  220MOL0     C29594   3.874  -0.272   9.054 -0.0570 -0.1036 -0.2141
  220MOL0     C29595   3.973  -0.213   9.155  0.2277  0.0215  0.4627
  220MOL0     O29596   4.050  -0.110   9.129  0.0228 -0.0486 -0.4520
  220MOL0     C29597   4.150  -0.067   9.214  0.0459  0.1497 -0.4650
  220MOL0     C29598   4.275  -0.037   9.162 -0.3669 -0.3778  0.4365
  220MOL0     C29599   4.384   0.004   9.244 -0.0112 -0.5737 -1.1074
  220MOL0     C29600   4.371   0.007   9.384 -1.6549  1.2129 -0.1861
  220MOL0     O29601   4.483   0.046   9.443  0.2206  0.1967 -0.6136
  220MOL0     C29602   4.462   0.126   9.560 -0.1333  0.3024 -0.8036
  220MOL0     C29603   4.587   0.197   9.593 -0.6164  0.2275 -0.7199
  220MOL0     C29604   4.724   0.129   9.570 -0.3332  0.3536 -0.6173
  220MOL0     C29605   4.737  -0.002   9.640 -0.1969 -0.9026 -0.2081
  220MOL0     C29606   4.860  -0.077   9.583  1.1083  0.0652 -0.0326
  220MOL0     C29607   4.893  -0.185   9.687  0.5981  0.1513 -1.6963
  220MOL0     C29608   4.973  -0.292   9.617 -0.2204  0.3165  0.7422
  220MOL0     C29609   5.048  -0.383   9.713  0.2061  0.5163  0.1524
  220MOL0    Cl29610   4.942  -0.460   9.836  0.7039  0.5975  0.8183
  220MOL0     C29611   4.245  -0.013   9.441 -0.1827 -1.2021 -0.2868
  220MOL0     C29612   4.138  -0.060   9.358 -1.1778 -0.3617  0.1740
  220MOL0     O29613   4.000  -0.292   9.240  0.7804  0.5260 -0.6521
  220MOL0     C29614   3.841  -0.409   9.058  0.3369  0.4811 -0.4535
  220MOL0     C29615   3.763  -0.477   8.962  0.2854  0.0651  0.4643
  220MOL0     N29616   4.083  -0.416   8.305 -0.1089  0.7371  0.0553
  220MOL0     N29617   4.198  -0.367   8.343  0.3507 -0.0798 -0.1860
  220MOL0     C29618   5.313  -0.097   8.178  0.3631  0.5293  0.1698
  220MOL0     C29619   5.412  -0.029   8.115 -0.1634  0.0997 -0.0587
  220MOL0     C29620   5.854   0.165   8.061 -0.4554  0.7846  0.3247
  220MOL0     C29621   5.798   0.242   7.965  0.5198 -1.1298  0.1628
  220MOL0     C29622   5.878   0.333   7.889 -0.3426 -0.1539 -0.2635
  220MOL0     C29623   6.016   0.325   7.895 -0.3131 -0.4849 -0.1088
  220MOL0     O29624   6.068   0.424   7.816  0.1721 -1.3149  0.3462
  220MOL0     C29625   6.204   0.417   7.782  0.6167 -1.2282 -0.2512
  220MOL0     C29626   6.226   0.322   7.665  0.4112  0.0665  0.7299
  220MOL0     C29627   6.355   0.245   7.676 -0.1612  0.7473 -0.4985
  220MOL0     C29628   6.480   0.326   7.704 -0.9603  0.5969  0.2518
  220MOL0     C29629   6.598   0.240   7.676 -0.6900  0.0883 -0.2282
  220MOL0     C29630   6.696   0.180   7.651 -0.0642  0.1906  0.1541
  220MOL0     C29631   6.076   0.250   7.992  0.0141 -0.4603 -0.4129
  220MOL0     C29632   5.994   0.164   8.074 -0.3003 -0.8711  0.4747
  220MOL0     H29633   5.673  -0.172   8.274 -0.6283 -1.8061  0.5597
  220MOL0     H29634   5.489  -0.301   8.387 -3.1781 -1.3485  0.6213
  220MOL0     H29635   5.224  -0.478   8.352 -1.9533  0.1571 -1.4527
  220MOL0     H29636   5.308  -0.367   8.463  1.1887 -1.3745 -1.0822
  220MOL0     H29637   5.121  -0.412   8.574 -0.1905  1.3643  0.7790
  220MOL0     H29638   5.058  -0.267   8.490 -3.8489 -0.9026  1.3558
  220MOL0     H29639   4.943  -0.417   8.321 -2.9636  0.8006  0.1873
  220MOL0     H29640   4.990  -0.556   8.424  0.4165  0.6004  1.9074
  220MOL0     H29641   4.838  -0.501   8.602 -1.8078  1.2847  0.6845
  220MOL0     H29642   4.831  -0.330   8.540 -2.9581 -0.3991  0.2914
  220MOL0     H29643   4.708  -0.377   8.371  1.9386  0.2972  0.3452
  220MOL0     H29644   4.703  -0.550   8.419  2.6893 -0.9336  1.4216
  220MOL0     H29645   4.600  -0.469   8.645  1.0855 -2.7101 -1.3246
  220MOL0     H29646   4.576  -0.310   8.556  0.2376  0.5421  0.1535
  220MOL0     H29647   4.471  -0.418   8.368  2.3242 -0.3903 -0.0914
  220MOL0     H29648   4.460  -0.573   8.455 -1.9563 -0.8706  1.9908
  220MOL0     H29649   4.371  -0.284   8.566  2.0087 -0.0025 -0.8093
  220MOL0     H29650   4.323  -0.426   8.646 -1.5267  1.0374  0.8066
  220MOL0     H29651   4.084  -0.515   8.617  1.2542  0.2255  0.6914
  220MOL0     H29652   3.845  -0.523   8.292  0.5818 -2.1450 -1.5622
  220MOL0     H29653   3.918  -0.671   8.369  1.5125  0.3901 -0.4584
  220MOL0     H29654   3.833  -0.611   8.591 -3.8939  2.6068  2.8150
  220MOL0     H29655   3.693  -0.616   8.472 -0.5704 -3.0807  1.1488
  220MOL0     H29656   3.744  -0.367   8.441 -2.0693 -3.1074 -1.9478
  220MOL0     H29657   3.852  -0.378   8.586  1.9032 -2.7296 -1.0689
  220MOL0     H29658   3.553  -0.460   8.571 -0.9577  0.0162  1.9890
  220MOL0     H29659   3.605  -0.303   8.636 -0.3367  0.0552 -1.4665
  220MOL0     H29660   3.698  -0.196   8.787 -0.4962  1.2876  0.9770
  220MOL0     H29661   3.918  -0.001   8.914 -2.0811  2.5802 -0.9852
  220MOL0     H29662   3.749  -0.011   8.872  2.1659 -2.0651 -4.1981
  220MOL0     H29663   3.802  -0.003   9.042 -1.4348 -3.8973  1.7511
  220MOL0     H29664   4.304  -0.025   9.058 -3.1995 -1.5645 -0.5884
  220MOL0     H29665   4.477   0.041   9.203  1.0401 -0.3893  1.2878
  220MOL0     H29666   4.384   0.201   9.544  1.1118  1.8044 -0.1283
  220MOL0     H29667   4.431   0.070   9.649  0.9924  0.2378 -0.4285
  220MOL0     H29668   4.593   0.296   9.547  0.6968 -0.0361 -1.1611
  220MOL0     H29669   4.593   0.232   9.696  2.7429 -2.3603  0.1616
  220MOL0     H29670   4.800   0.206   9.590 -0.0426 -0.0768 -0.0403
  220MOL0     H29671   4.718   0.105   9.464 -1.8495 -0.4509 -0.3732
  220MOL0     H29672   4.755   0.024   9.745 -1.4479 -0.4357 -0.0950
  220MOL0     H29673   4.645  -0.061   9.639 -1.1109  0.4859 -0.4656
  220MOL0     H29674   4.944  -0.007   9.587 -0.6492  2.2912 -0.4412
  220MOL0     H29675   4.855  -0.127   9.486 -3.1245  1.3904 -0.6661
  220MOL0     H29676   4.948  -0.150   9.775 -0.8155 -0.8519 -0.3901
  220MOL0     H29677   4.799  -0.228   9.721  1.4788 -1.3059 -1.0519
  220MOL0     H29678   5.053  -0.258   9.551  0.0492 -1.1888  0.2440
  220MOL0     H29679   4.913  -0.365   9.560  1.9418  0.3666 -1.8345
  220MOL0     H29680   5.122  -0.325   9.769 -1.0007  0.9724  1.3312
  220MOL0     H29681   5.101  -0.462   9.660  0.2675  1.4604 -1.2394
  220MOL0     H29682   4.236   0.000   9.548  1.8645 -2.1769  0.0537
  220MOL0     H29683   4.046  -0.085   9.409 -0.6097 -0.8271  0.9922
  220MOL0     H29684   3.883  -0.464   9.141 -2.0083  1.1765  1.3021
  220MOL0     H29685   3.740  -0.582   8.975 -0.4318 -0.1885 -2.1108
  220MOL0     H29686   5.211  -0.074   8.148  0.4911 -2.0178 -2.8573
  220MOL0     H29687   5.384   0.035   8.032 -0.3022 -1.2928 -1.1243
  220MOL0     H29688   5.691   0.260   7.952  0.2311 -0.7705  2.6088
  220MOL0     H29689   5.835   0.415   7.832  0.2943  0.4026  0.0427
  220MOL0     H29690   6.237   0.518   7.757 -1.4912 -0.2703  0.5838
  220MOL0     H29691   6.257   0.384   7.872  1.1540 -5.5911 -1.9192
  220MOL0     H29692   6.225   0.369   7.567  1.3096  0.0249  0.6878
  220MOL0     H29693   6.145   0.248   7.664  0.4992 -0.0683  1.8016
  220MOL0     H29694   6.366   0.177   7.591 -0.4442  2.1009 -1.6614
  220MOL0     H29695   6.349   0.180   7.764 -1.3703  0.9994 -0.3766
  220MOL0     H29696   6.484   0.348   7.811  2.7022  3.2497 -0.2447
  220MOL0     H29697   6.488   0.421   7.651 -1.2935 -0.2094 -1.2971
  220MOL0     H29698   6.784   0.133   7.613 -0.2371  1.7117 -2.3739
  220MOL0     H29699   6.184   0.253   7.998  0.0446  1.1050 -1.3201
  220MOL0     H29700   6.036   0.104   8.154 -0.1496 -0.1364  0.9526
  221MOL0     O29701   8.053   3.811  10.841 -1.6857 -0.4604 -0.3627
  221MOL0     C29702   7.953   3.772  10.892  0.0658  0.2302 -0.5130
  221MOL0     O29703   7.953   3.677  10.987 -0.1652  0.6579 -0.0056
  221MOL0     C29704   8.067   3.628  11.044  0.1463  0.2629  0.4085
  221MOL0     C29705   8.091   3.652  11.187 -0.4792 -0.2767  1.6888
  221MOL0     C29706   8.211   3.616  11.238  1.0072  0.2387 -0.2491
  221MOL0     C29707   8.302   3.540  11.171 -0.3826 -0.0778 -0.8664
  221MOL0     O29708   8.414   3.523  11.242  0.1400 -0.6755  0.6584
  221MOL0     C29709   8.452   3.384  11.241 -0.7038 -0.0048 -0.5051
  221MOL0     C29710   8.548   3.362  11.359  0.6157 -0.1411 -1.3173
  221MOL0     C29711   8.697   3.399  11.332 -0.2920  0.6021 -0.1697
  221MOL0     C29712   8.763   3.478  11.447 -0.7771  0.1855 -0.7242
  221MOL0     C29713   8.914   3.467  11.445  0.2562  0.2675 -0.7362
  221MOL0     C29714   8.957   3.328  11.515  0.9328 -0.2015 -0.4472
  221MOL0     C29715   9.101   3.344  11.549 -0.6310  0.4035 -0.7828
  221MOL0     C29716   9.111   3.405  11.695  0.9967  0.6841  0.1657
  221MOL0     N29717   9.247   3.413  11.754 -0.3667 -0.9701 -0.2979
  221MOL0     C29718   9.368   3.448  11.699  0.5319  0.4919  0.4230
  221MOL0     C29719   9.456   3.384  11.773  0.4925  0.4807 -0.6071
  221MOL0     C29720   9.602   3.364  11.755 -0.7368 -0.6054 -0.0834
  221MOL0     C29721   9.694   3.402  11.878 -0.0570  0.7363 -0.7636
  221MOL0     C29722   9.839   3.381  11.862  0.0258  0.1822 -0.0662
  221MOL0     C29723   9.875   3.230  11.836  0.5796  0.3500 -0.5213
  221MOL0     O29724   9.856   3.208  11.696  0.2283 -0.4822  0.1908
  221MOL0     C29725   9.951   3.246  11.603 -0.1395 -0.3020 -0.7226
  221MOL0     C29726   9.909   3.237  11.473 -0.1314 -0.3142 -0.4809
  221MOL0     C29727  10.005   3.259  11.370  0.8141 -0.2424 -0.5062
  221MOL0     C29728   9.965   3.264  11.226  0.6417 -0.1487  0.0632
  221MOL0     C29729  10.137   3.299  11.404  0.5344 -0.6782  0.0704
  221MOL0     C29730  10.243   3.332  11.299  0.1407  0.1482 -0.4788
  221MOL0     O29731  10.339   3.418  11.345  0.4705 -0.4871  0.8101
  221MOL0     C29732  10.449   3.443  11.269 -0.9697 -0.0711 -0.2125
  221MOL0     C29733  10.447   3.452  11.125 -0.3038 -0.6248  0.2520
  221MOL0     C29734  10.567   3.471  11.057  0.0640 -0.0287  0.0189
  221MOL0     C29735  10.686   3.450  11.119  0.1203  1.1622 -0.5751
  221MOL0     O29736  10.799   3.439  11.039 -0.1385 -0.6351  0.5835
  221MOL0     C29737  10.866   3.565  11.047  0.5159 -0.0273  0.1748
  221MOL0     C29738  10.991   3.574  10.949  0.0563  0.9514  0.2271
  221MOL0     C29739  11.047   3.708  10.935 -0.1537 -0.1901 -0.0442
  221MOL0     C29740  11.175   3.702  10.853  0.1189  0.3270 -0.2220
  221MOL0     C29741  11.270   3.818  10.886 -0.6233 -0.7960  0.0290
  221MOL0     C29742  11.221   3.954  10.826  0.3283  0.4351  0.7923
  221MOL0     C29743  11.336   4.048  10.771  0.1628  0.0252 -0.6317
  221MOL0     C29744  11.259   4.142  10.673 -0.1439 -1.2098 -0.4558
  221MOL0    Cl29745  11.354   4.264  10.600 -0.1924 -0.1565 -0.2052
  221MOL0     C29746  10.692   3.433  11.257 -0.5185  0.1370 -0.7995
  221MOL0     C29747  10.574   3.422  11.333 -0.1237  0.3885 -0.6440
  221MOL0     O29748  10.244   3.264  11.194  0.1505  0.3716  0.6366
  221MOL0     C29749  10.173   3.328  11.538  0.4964  0.5066 -0.2475
  221MOL0     C29750  10.077   3.302  11.641  1.2411  0.4726  0.3519
  221MOL0     N29751   9.395   3.322  11.875  0.3085 -0.3780 -0.4697
  221MOL0     N29752   9.270   3.342  11.872  0.2711  0.1674  0.4470
  221MOL0     C29753   8.274   3.508  11.032 -0.4789 -0.9657 -0.6350
  221MOL0     C29754   8.160   3.560  10.967 -0.2918  0.1101 -0.5419
  221MOL0     C29755   7.826   3.828  10.859  0.7433 -1.0081  0.0261
  221MOL0     C29756   7.703   3.753  10.889 -0.3670 -1.1959  0.0147
  221MOL0     C29757   7.580   3.803  10.844  0.2073 -0.7752 -0.8440
  221MOL0     C29758   7.574   3.931  10.782 -0.2221 -0.2661 -0.9076
  221MOL0     O29759   7.467   3.997  10.732  0.7135 -1.1289 -0.3742
  221MOL0     C29760   7.342   3.947  10.771 -0.6914  0.8445  0.3004
  221MOL0     C29761   7.241   4.046  10.726  0.3902 -0.7558  0.0138
  221MOL0     C29762   7.187   4.010  10.581 -0.7762 -0.2567 -0.1140
  221MOL0     C29763   7.125   4.127  10.511  0.5529 -0.3181 -0.3872
  221MOL0     C29764   6.985   4.143  10.547 -0.1807  0.5384 -0.3095
  221MOL0     C29765   6.866   4.170  10.562  0.1596  0.7216  0.1119
  221MOL0     C29766   7.696   3.996  10.761 -0.0039  0.4370  0.0252
  221MOL0     C29767   7.821   3.949  10.796  0.0741  0.3517  0.3133
  221MOL0     H29768   8.016   3.699  11.250 -1.1465 -0.4085  1.0027
  221MOL0     H29769   8.226   3.638  11.344  0.0187 -1.4218  0.2839
  221MOL0     H29770   8.370   3.311  11.241 -1.3738  0.7283 -0.9729
  221MOL0     H29771   8.514   3.355  11.156 -0.7592 -2.4275  0.2206
  221MOL0     H29772   8.512   3.419  11.445  0.5788 -3.7344  1.2957
  221MOL0     H29773   8.543   3.258  11.393  1.4930  0.2944  0.2394
  221MOL0     H29774   8.758   3.308  11.330 -0.4736  0.4955 -1.6272
  221MOL0     H29775   8.716   3.445  11.234  0.4567  2.3162  0.7215
  221MOL0     H29776   8.734   3.582  11.431 -1.2049 -0.1239 -2.1445
  221MOL0     H29777   8.725   3.447  11.545 -2.0826 -1.9643 -1.8172
  221MOL0     H29778   8.951   3.464  11.342  1.2195  0.0001 -0.3928
  221MOL0     H29779   8.952   3.554  11.500 -2.5049  0.2002  1.4906
  221MOL0     H29780   8.896   3.302  11.602 -1.3998  2.3519 -1.1957
  221MOL0     H29781   8.950   3.249  11.439  1.1643  0.5772 -1.3057
  221MOL0     H29782   9.136   3.240  11.548  0.6673  0.8283 -1.6689
  221MOL0     H29783   9.161   3.404  11.480  0.6752 -1.7323 -1.6268
  221MOL0     H29784   9.044   3.362  11.770  1.6088  1.3023  1.0896
  221MOL0     H29785   9.081   3.510  11.680  2.2448  0.7440 -2.4208
  221MOL0     H29786   9.370   3.511  11.611  0.7718 -1.1195 -0.7593
  221MOL0     H29787   9.621   3.263  11.718  3.2204 -0.1006  0.1046
  221MOL0     H29788   9.636   3.428  11.673 -0.9655 -0.0825  0.2201
  221MOL0     H29789   9.666   3.338  11.962  2.0831  3.5014  2.2761
  221MOL0     H29790   9.682   3.504  11.914  0.6964  1.2309 -1.8510
  221MOL0     H29791   9.886   3.403  11.958 -5.5375  1.5976  2.7883
  221MOL0     H29792   9.872   3.442  11.778  1.5941 -1.8732 -1.0219
  221MOL0     H29793   9.814   3.152  11.883 -1.6885  1.7465 -1.0037
  221MOL0     H29794   9.976   3.206  11.868 -0.2969  1.7871  4.0636
  221MOL0     H29795   9.803   3.219  11.461 -0.6296  1.8943  0.1103
  221MOL0     H29796  10.005   3.171  11.185  1.1014  0.4118 -0.8031
  221MOL0     H29797   9.859   3.277  11.203  0.8650  2.3604  0.0940
  221MOL0     H29798  10.006   3.354  11.178  0.4614  0.3698  0.8489
  221MOL0     H29799  10.354   3.464  11.070 -0.2857 -2.5404 -0.2536
  221MOL0     H29800  10.564   3.490  10.951 -1.5184 -0.3414 -0.0136
  221MOL0     H29801  10.794   3.645  11.029  1.6807  1.0395  0.0604
  221MOL0     H29802  10.894   3.594  11.149 -2.0086  3.7837  0.0099
  221MOL0     H29803  11.069   3.503  10.976  2.4076  3.0785 -0.5083
  221MOL0     H29804  10.950   3.544  10.852 -0.6885  0.7404  0.5993
  221MOL0     H29805  11.078   3.748  11.031  2.0494  0.6272 -1.0356
  221MOL0     H29806  10.974   3.778  10.893 -0.8235 -0.0454  1.3278
  221MOL0     H29807  11.230   3.608  10.861  2.6072  1.4301 -2.6705
  221MOL0     H29808  11.151   3.712  10.746  1.3221  1.3907 -0.4096
  221MOL0     H29809  11.369   3.792  10.847  1.0899  1.0109  2.8007
  221MOL0     H29810  11.287   3.832  10.993 -0.0764 -1.7428  0.0765
  221MOL0     H29811  11.158   3.934  10.739  0.4454 -1.6516  1.1394
  221MOL0     H29812  11.156   3.982  10.909  1.5835 -1.7512  2.6385
  221MOL0     H29813  11.407   3.985  10.715 -0.4615 -2.2343  0.9546
  221MOL0     H29814  11.384   4.095  10.857 -2.8322  3.0075 -0.3890
  221MOL0     H29815  11.177   4.194  10.721 -0.3623  0.6101 -2.6372
  221MOL0     H29816  11.220   4.082  10.590  1.2490  0.1428 -2.1668
  221MOL0     H29817  10.784   3.416  11.313 -2.2945 -0.7415  2.1113
  221MOL0     H29818  10.579   3.387  11.435  1.1416  0.4774 -0.6590
  221MOL0     H29819  10.268   3.371  11.569  1.4508  0.3654 -2.7604
  221MOL0     H29820  10.097   3.325  11.745  4.2777  1.5887 -0.3928
  221MOL0     H29821   8.352   3.450  10.984 -0.6042  0.3420 -2.5082
  221MOL0     H29822   8.140   3.550  10.861  0.3851  0.5264 -0.7161
  221MOL0     H29823   7.707   3.651  10.924 -3.9637 -1.1346  1.0529
  221MOL0     H29824   7.494   3.742  10.867  0.3061 -0.9455 -0.9282
  221MOL0     H29825   7.327   3.845  10.735 -0.2582  0.6526  0.6564
  221MOL0     H29826   7.351   3.936  10.879  0.5901 -0.4326  0.0892
  221MOL0     H29827   7.286   4.146  10.722 -1.1281  0.0914 -6.0648
  221MOL0     H29828   7.155   4.042  10.792 -0.8021  1.1668 -1.3274
  221MOL0     H29829   7.121   3.923  10.592  0.0180 -0.9444 -0.6587
  221MOL0     H29830   7.269   3.977  10.517  1.2433 -0.5942  2.5033
  221MOL0     H29831   7.124   4.106  10.404 -1.7728  0.5547 -0.5977
  221MOL0     H29832   7.184   4.219  10.514  0.8777 -0.3819 -2.9045
  221MOL0     H29833   6.767   4.209  10.571  0.6885  1.7197  2.5383
  221MOL0     H29834   7.686   4.094  10.715  3.8125  2.6772  3.3488
  221MOL0     H29835   7.916   3.999  10.780  2.2545 -3.1040  1.3125
  222MOL0     O29836   0.537   4.313   1.115 -1.2403  0.1861 -0.3561
  222MOL0     C29837   0.559   4.207   1.070 -0.8599  0.9464 -0.0501
  222MOL0     O29838   0.463   4.111   1.057  0.0037 -0.9584  0.3021
  222MOL0     C29839   0.336   4.137   1.071 -0.0321 -0.1114 -1.0299
  222MOL0     C29840   0.265   4.236   1.001 -0.1558  0.5637  0.4273
  222MOL0     C29841   0.132   4.241   0.988 -0.5173 -0.8114 -0.5998
  222MOL0     C29842   0.057   4.157   1.066  0.7546 -0.2616  0.9324
  222MOL0     O29843  -0.079   4.176   1.044  0.1387 -0.0808 -0.1147
  222MOL0     C29844  -0.168   4.104   1.130  0.1124  1.0243 -0.6050
  222MOL0     C29845  -0.305   4.160   1.133  0.5583  0.3272 -0.0210
  222MOL0     C29846  -0.384   4.122   1.253 -0.7128  0.7796 -0.2305
  222MOL0     C29847  -0.419   3.969   1.261  0.5564  0.5224 -0.2546
  222MOL0     C29848  -0.511   3.947   1.390  0.6899 -0.4673  1.0352
  222MOL0     C29849  -0.593   3.820   1.374 -0.8769 -0.1344  0.2908
  222MOL0     C29850  -0.716   3.847   1.289  0.3530  0.2098  0.6085
  222MOL0     C29851  -0.847   3.809   1.371  0.0572  0.3521  0.8504
  222MOL0     N29852  -0.968   3.805   1.286 -0.8805 -0.7268 -0.0257
  222MOL0     C29853  -1.030   3.688   1.254 -0.5716  0.5146 -0.3960
  222MOL0     C29854  -1.120   3.722   1.169 -0.2164  0.4912  0.8442
  222MOL0     C29855  -1.228   3.634   1.104  0.2735  0.0038 -1.0482
  222MOL0     C29856  -1.368   3.680   1.159 -0.3505 -0.1611  0.0334
  222MOL0     C29857  -1.477   3.608   1.075 -0.4526  0.7566  0.4000
  222MOL0     C29858  -1.604   3.657   1.120  1.1392 -0.4027 -0.5272
  222MOL0     O29859  -1.711   3.555   1.101  0.2648 -0.1861  0.4480
  222MOL0     C29860  -1.824   3.569   1.168  0.5172  0.2446  0.1458
  222MOL0     C29861  -1.913   3.454   1.166 -1.0762 -0.7514 -0.0954
  222MOL0     C29862  -2.030   3.450   1.244 -0.6726 -0.1117  1.2281
  222MOL0     C29863  -2.119   3.321   1.231 -1.5715 -0.4721  0.6088
  222MOL0     C29864  -2.067   3.570   1.309 -0.7299  0.6474  1.0035
  222MOL0     C29865  -2.204   3.594   1.372 -0.4535  0.7671 -0.5802
  222MOL0     O29866  -2.218   3.704   1.454 -0.1973  0.2296  0.2571
  222MOL0     C29867  -2.329   3.734   1.526  1.3265 -0.0953 -0.0196
  222MOL0     C29868  -2.315   3.848   1.600  0.3554 -0.8402 -0.0977
  222MOL0     C29869  -2.432   3.900   1.661  0.8973 -0.5050  0.6085
  222MOL0     C29870  -2.559   3.837   1.668  0.0285  0.2498 -0.2506
  222MOL0     O29871  -2.671   3.890   1.719  1.0357 -0.8953 -0.0640
  222MOL0     C29872  -2.657   3.970   1.843  0.4889 -0.2748  0.5078
  222MOL0     C29873  -2.774   4.070   1.862  0.7920 -0.0737  0.0862
  222MOL0     C29874  -2.914   4.000   1.889 -0.2533  0.1296  0.6618
  222MOL0     C29875  -3.024   4.102   1.909 -0.0562  0.5486  0.2979
  222MOL0     C29876  -3.161   4.059   1.956  0.2435 -1.3156  0.5770
  222MOL0     C29877  -3.165   4.005   2.093 -0.6515 -0.3557  0.6349
  222MOL0     C29878  -3.300   3.986   2.160 -0.5742 -0.1843 -0.4687
  222MOL0     C29879  -3.274   3.920   2.293 -0.0524  1.0275 -0.3592
  222MOL0    Cl29880  -3.193   4.035   2.407 -0.0778 -0.5468  0.1395
  222MOL0     C29881  -2.556   3.712   1.600 -0.3635  0.2411 -0.5715
  222MOL0     C29882  -2.447   3.658   1.536  1.2080 -0.3067  0.5258
  222MOL0     O29883  -2.293   3.512   1.348 -0.1504  1.0002  0.2350
  222MOL0     C29884  -1.983   3.680   1.302  0.8328  1.1353 -0.5290
  222MOL0     C29885  -1.862   3.681   1.237 -0.8447  0.0548  0.0351
  222MOL0     N29886  -1.120   3.863   1.160 -0.1688  1.1158 -0.5560
  222MOL0     N29887  -1.019   3.913   1.220 -0.1761  0.2255 -0.8568
  222MOL0     C29888   0.119   4.065   1.152  0.3898  0.4397  0.2924
  222MOL0     C29889   0.259   4.060   1.158 -0.5194 -0.4921 -0.9114
  222MOL0     C29890   0.698   4.192   1.015 -0.5977 -0.6305  0.5083
  222MOL0     C29891   0.722   4.096   0.912 -0.2885 -0.8178  0.1391
  222MOL0     C29892   0.857   4.076   0.871  0.5625  0.1185 -0.7267
  222MOL0     C29893   0.962   4.158   0.921  0.6857  0.5108  0.4350
  222MOL0     O29894   1.084   4.154   0.875 -0.3639  0.0598 -0.7931
  222MOL0     C29895   1.153   4.031   0.919 -0.6015  1.0788  0.7451
  222MOL0     C29896   1.217   4.046   1.066  0.2447  1.0318  0.4247
  222MOL0     C29897   1.211   3.905   1.122  0.1213  0.6589  0.0589
  222MOL0     C29898   1.307   3.902   1.237 -0.4404 -1.0828 -0.3905
  222MOL0     C29899   1.249   3.959   1.359  0.2852 -0.3347  0.3885
  222MOL0     C29900   1.191   3.982   1.467 -0.8434  0.7200  1.0733
  222MOL0     C29901   0.935   4.257   1.012 -0.2839 -0.3279  0.3554
  222MOL0     C29902   0.805   4.264   1.066 -0.2195 -0.6614  1.1794
  222MOL0     H29903   0.322   4.309   0.943  0.3767  1.7831  2.3946
  222MOL0     H29904   0.096   4.320   0.923 -0.8418  2.1717  2.8797
  222MOL0     H29905  -0.170   4.000   1.098 -0.1775  0.1996  1.8620
  222MOL0     H29906  -0.129   4.091   1.231 -1.2553  0.1340 -0.1639
  222MOL0     H29907  -0.304   4.269   1.129  0.2542  0.3188 -0.5929
  222MOL0     H29908  -0.353   4.128   1.039  2.1243 -1.4913 -0.2674
  222MOL0     H29909  -0.335   4.155   1.345  0.2776 -1.9865  0.3444
  222MOL0     H29910  -0.476   4.181   1.243 -0.6853  0.6806 -1.0922
  222MOL0     H29911  -0.477   3.945   1.172 -2.3142  2.0817  1.0654
  222MOL0     H29912  -0.331   3.904   1.267  0.6881  0.8527  2.1728
  222MOL0     H29913  -0.444   3.943   1.477  0.9544  3.9905  1.2544
  222MOL0     H29914  -0.578   4.031   1.408 -0.3727 -0.3153 -2.6658
  222MOL0     H29915  -0.526   3.745   1.331 -1.0455 -0.0573 -0.1165
  222MOL0     H29916  -0.631   3.785   1.470  1.7763  0.4666  1.6411
  222MOL0     H29917  -0.718   3.949   1.250  0.3653 -0.4306 -1.1507
  222MOL0     H29918  -0.725   3.792   1.195 -2.1561  1.8025 -0.1877
  222MOL0     H29919  -0.854   3.892   1.442  0.0396  0.7737  0.3691
  222MOL0     H29920  -0.837   3.718   1.430  2.3274  0.4934  0.7725
  222MOL0     H29921  -1.009   3.582   1.264  0.6015  0.5283 -2.1677
  222MOL0     H29922  -1.211   3.651   0.997 -0.1498  1.4236 -0.9229
  222MOL0     H29923  -1.208   3.529   1.126 -0.9076 -0.2023 -0.8760
  222MOL0     H29924  -1.393   3.785   1.140 -3.1129 -0.1907  2.8114
  222MOL0     H29925  -1.361   3.670   1.267 -0.3749 -0.2723  0.0252
  222MOL0     H29926  -1.470   3.501   1.094 -1.1544 -0.0433 -3.1485
  222MOL0     H29927  -1.454   3.619   0.968  1.9369  1.1070  0.8933
  222MOL0     H29928  -1.634   3.751   1.072 -1.0423 -1.2974 -1.0498
  222MOL0     H29929  -1.597   3.679   1.227 -1.5052 -1.7982  0.0246
  222MOL0     H29930  -1.868   3.366   1.121  2.7819  1.1478 -0.4128
  222MOL0     H29931  -2.144   3.282   1.331  4.3337 -1.1055  2.2131
  222MOL0     H29932  -2.214   3.330   1.178 -0.2992  0.5678 -1.6175
  222MOL0     H29933  -2.070   3.237   1.181  0.3342 -0.7888  2.8003
  222MOL0     H29934  -2.220   3.901   1.600 -0.0135 -0.0618 -2.3551
  222MOL0     H29935  -2.417   3.991   1.719  0.5607 -0.2163  0.2457
  222MOL0     H29936  -2.652   3.903   1.929 -2.5768  2.8282  3.3788
  222MOL0     H29937  -2.563   4.026   1.845  0.9302 -0.8901 -1.1014
  222MOL0     H29938  -2.757   4.112   1.962 -1.5372 -2.2975  1.5507
  222MOL0     H29939  -2.773   4.149   1.787  3.4335 -1.0040 -1.0047
  222MOL0     H29940  -2.916   3.937   1.979 -0.7418  3.2873  3.0400
  222MOL0     H29941  -2.929   3.931   1.806  2.7633  0.2939 -0.1431
  222MOL0     H29942  -2.994   4.179   1.981 -0.7672  1.2196 -0.1059
  222MOL0     H29943  -3.035   4.156   1.814  1.1030 -0.1640 -0.2668
  222MOL0     H29944  -3.214   3.995   1.885  2.5009  0.4098 -2.9005
  222MOL0     H29945  -3.222   4.149   1.967  0.2566 -0.9866 -1.6953
  222MOL0     H29946  -3.102   3.917   2.073  0.7081  0.6179  0.5262
  222MOL0     H29947  -3.107   4.066   2.163 -0.3432 -1.1760  1.1150
  222MOL0     H29948  -3.358   3.924   2.091  1.9425 -2.7046 -0.5450
  222MOL0     H29949  -3.342   4.086   2.172 -3.2189 -1.3285  0.5624
  222MOL0     H29950  -3.217   3.827   2.281  0.8160  1.6593 -1.1980
  222MOL0     H29951  -3.365   3.889   2.346  1.0857  0.1289  1.1522
  222MOL0     H29952  -2.647   3.653   1.607  0.1210 -0.5019 -0.4065
  222MOL0     H29953  -2.456   3.569   1.475  2.4205  1.0358 -1.7566
  222MOL0     H29954  -2.014   3.778   1.337  0.0903  1.0280 -0.8688
  222MOL0     H29955  -1.797   3.768   1.227  0.8359 -1.0441  1.0471
  222MOL0     H29956   0.057   4.005   1.218 -0.4203 -0.7869 -1.4960
  222MOL0     H29957   0.299   3.985   1.225 -1.0258 -0.9959 -1.1695
  222MOL0     H29958   0.644   4.043   0.856 -2.9940  3.0494 -0.1649
  222MOL0     H29959   0.860   4.013   0.782 -0.2449 -0.8154 -0.1132
  222MOL0     H29960   1.085   3.945   0.918  1.5380 -0.7095  1.8315
  222MOL0     H29961   1.228   4.000   0.846 -2.1657 -0.1241 -0.4148
  222MOL0     H29962   1.155   4.114   1.126 -1.0312  2.3992 -2.2747
  222MOL0     H29963   1.322   4.072   1.052  0.7094 -1.4504 -1.3971
  222MOL0     H29964   1.251   3.835   1.048  1.3473 -1.6413  2.7246
  222MOL0     H29965   1.109   3.891   1.158  1.0289 -0.2015  2.4975
  222MOL0     H29966   1.400   3.950   1.207  0.2190 -1.3177  1.1770
  222MOL0     H29967   1.317   3.796   1.262 -1.8555 -0.8043  1.6040
  222MOL0     H29968   1.138   3.987   1.559 -1.0351 -1.4495  1.1201
  222MOL0     H29969   1.016   4.317   1.051 -0.4464  0.3519 -0.3319
  222MOL0     H29970   0.791   4.333   1.148 -2.8762 -1.3500  1.4117
  223MOL0     O29971   8.547   2.194   1.361 -0.2913 -0.1447  0.4060
  223MOL0     C29972   8.548   2.289   1.285 -0.4115  0.6514  0.1438
  223MOL0     O29973   8.552   2.426   1.322  0.0730 -0.2019  0.1589
  223MOL0     C29974   8.533   2.470   1.441 -0.4437  0.4369 -0.6961
  223MOL0     C29975   8.441   2.584   1.469  0.2753  0.4888  0.7800
  223MOL0     C29976   8.431   2.634   1.596  0.2983  0.7734  0.5338
  223MOL0     C29977   8.492   2.574   1.697 -0.8369  0.8398 -1.2350
  223MOL0     O29978   8.488   2.643   1.821 -0.8117  0.2222  0.2991
  223MOL0     C29979   8.504   2.566   1.945  0.3695  0.0712 -0.0327
  223MOL0     C29980   8.470   2.661   2.057 -0.3758 -0.8166 -0.9966
  223MOL0     C29981   8.480   2.588   2.190  0.3489  0.2572 -0.4748
  223MOL0     C29982   8.453   2.690   2.309 -0.5826 -0.8093 -0.5648
  223MOL0     C29983   8.522   2.648   2.438  0.3140  0.0320  0.6401
  223MOL0     C29984   8.447   2.534   2.519 -0.1324  0.1089  0.0679
  223MOL0     C29985   8.318   2.580   2.583  0.6947  0.4853  0.0857
  223MOL0     C29986   8.258   2.471   2.681  0.7045  0.3236  0.3389
  223MOL0     N29987   8.314   2.499   2.806 -0.0302  0.7329  0.4320
  223MOL0     C29988   8.276   2.601   2.888 -0.3162  0.6732 -0.1705
  223MOL0     C29989   8.363   2.607   2.989  0.2858  0.6892 -0.1741
  223MOL0     C29990   8.344   2.689   3.115  0.1264  1.4006 -0.1802
  223MOL0     C29991   8.326   2.845   3.085  0.2422  1.1779 -0.4897
  223MOL0     C29992   8.368   2.930   3.210 -0.3794  0.2577  0.3333
  223MOL0     C29993   8.518   2.971   3.193 -0.1110 -0.8685 -0.6116
  223MOL0     O29994   8.539   3.048   3.073  0.5055  0.1481  0.2334
  223MOL0     C29995   8.471   3.167   3.075 -0.7348 -0.5546 -0.4605
  223MOL0     C29996   8.371   3.178   2.977  0.4497  0.7950 -0.4193
  223MOL0     C29997   8.307   3.295   2.946  0.1676 -1.2488  0.7082
  223MOL0     C29998   8.186   3.273   2.852 -0.3089  0.2713 -0.0907
  223MOL0     C29999   8.338   3.417   3.013  0.4572 -0.2751  0.1588
  223MOL0     C30000   8.277   3.550   2.996  0.1113 -0.2744  0.3335
  223MOL0     O30001   8.265   3.624   3.108  0.7257  0.3845 -0.7226
  223MOL0     C30002   8.193   3.742   3.108 -0.0728  0.6680 -0.4494
  223MOL0     C30003   8.191   3.836   3.001  0.1154  0.5647 -0.2672
  223MOL0     C30004   8.095   3.939   3.008 -0.3487 -0.0297  0.0317
  223MOL0     C30005   8.005   3.938   3.111 -0.2528  0.3008  0.1536
  223MOL0     O30006   7.905   4.037   3.108 -0.1241  0.8342  0.1562
  223MOL0     C30007   7.838   4.071   3.231  1.0961  0.4992  0.5506
  223MOL0     C30008   7.721   4.167   3.191  0.2945 -0.3971  0.1283
  223MOL0     C30009   7.637   4.219   3.317 -0.4188 -0.0780 -0.0521
  223MOL0     C30010   7.520   4.303   3.269 -0.4570 -0.6678 -0.4115
  223MOL0     C30011   7.419   4.320   3.387  0.5158  0.0126  0.5397
  223MOL0     C30012   7.308   4.419   3.356 -0.5277  0.1424  0.3421
  223MOL0     C30013   7.190   4.373   3.264 -0.1912  0.1152  0.0445
  223MOL0     C30014   7.129   4.495   3.195 -0.5112 -0.5366 -0.0611
  223MOL0    Cl30015   7.015   4.436   3.061 -0.1277 -0.7789 -0.3054
  223MOL0     C30016   8.033   3.861   3.222 -0.2228 -0.0343 -0.4611
  223MOL0     C30017   8.130   3.761   3.226  0.8036 -0.0948  0.6855
  223MOL0     O30018   8.226   3.580   2.885  0.0721 -0.5073 -0.0264
  223MOL0     C30019   8.432   3.404   3.113 -0.1664 -0.0070  0.0149
  223MOL0     C30020   8.497   3.284   3.143 -0.2353 -0.1470 -0.0096
  223MOL0     N30021   8.459   2.521   2.970  0.3715  0.5324 -0.9803
  223MOL0     N30022   8.433   2.441   2.863  0.1966 -0.2152 -0.8253
  223MOL0     C30023   8.569   2.463   1.673  0.1449 -0.0768 -0.5954
  223MOL0     C30024   8.591   2.406   1.551  0.1762  0.4039 -0.6765
  223MOL0     C30025   8.537   2.264   1.137 -0.2071 -0.1201  0.6926
  223MOL0     C30026   8.563   2.140   1.086 -0.9807  1.2098 -1.2276
  223MOL0     C30027   8.547   2.118   0.952  0.1709  0.0085 -0.5034
  223MOL0     C30028   8.500   2.205   0.857 -0.0879 -0.1784  0.0038
  223MOL0     O30029   8.488   2.170   0.719 -0.0313 -0.0722  0.0220
  223MOL0     C30030   8.381   2.238   0.638 -0.1602 -0.2907 -0.8813
  223MOL0     C30031   8.446   2.364   0.570  0.1739  0.0445 -0.0202
  223MOL0     C30032   8.348   2.455   0.488 -1.0593  0.5698  0.6204
  223MOL0     C30033   8.415   2.592   0.439 -0.1527  1.3804 -0.7800
  223MOL0     C30034   8.343   2.644   0.320  0.2068  0.4042 -1.0101
  223MOL0     C30035   8.267   2.694   0.234 -0.0770  1.1321 -0.3429
  223MOL0     C30036   8.480   2.332   0.913  0.0075  0.2578  0.5173
  223MOL0     C30037   8.497   2.364   1.046 -0.6107 -0.9002  0.3821
  223MOL0     H30038   8.394   2.624   1.380  1.4902  2.4955  0.9946
  223MOL0     H30039   8.380   2.728   1.615 -1.8276 -0.3043  0.5091
  223MOL0     H30040   8.430   2.486   1.952 -0.3976  0.8141  0.4318
  223MOL0     H30041   8.605   2.526   1.963  0.4362  0.9809  1.9375
  223MOL0     H30042   8.548   2.737   2.054 -1.6484  0.7207  1.5301
  223MOL0     H30043   8.371   2.707   2.048  0.5534  1.9098  1.4130
  223MOL0     H30044   8.413   2.502   2.189  1.6271 -0.7881  0.7373
  223MOL0     H30045   8.582   2.550   2.196 -0.5980 -2.5397  5.5849
  223MOL0     H30046   8.487   2.792   2.289  0.3761 -1.1969 -0.9665
  223MOL0     H30047   8.344   2.683   2.306 -0.5641 -0.9468 -2.8310
  223MOL0     H30048   8.626   2.618   2.419 -0.4168 -1.4344 -1.3935
  223MOL0     H30049   8.530   2.730   2.509  1.3710 -1.2950  2.1432
  223MOL0     H30050   8.427   2.453   2.449  2.7561 -2.2068  1.7352
  223MOL0     H30051   8.515   2.498   2.597  1.1853 -0.3335 -1.2544
  223MOL0     H30052   8.346   2.673   2.632 -1.4938  0.7965  0.8698
  223MOL0     H30053   8.235   2.603   2.516 -1.4430  0.1104  2.4208
  223MOL0     H30054   8.285   2.370   2.648  0.0609  0.4387 -0.5731
  223MOL0     H30055   8.149   2.473   2.682  0.6066  1.4203 -2.3996
  223MOL0     H30056   8.192   2.668   2.876  0.4450  1.3682 -1.9500
  223MOL0     H30057   8.257   2.657   3.173 -0.5596  2.3284 -0.6723
  223MOL0     H30058   8.434   2.665   3.173 -0.4586 -3.0596 -0.7729
  223MOL0     H30059   8.226   2.869   3.047  0.1989  2.5333  0.4016
  223MOL0     H30060   8.394   2.862   3.001 -1.6775  1.1276 -2.1350
  223MOL0     H30061   8.363   2.868   3.300 -1.1306 -0.3208 -0.0958
  223MOL0     H30062   8.297   3.012   3.219  0.5386  1.3739 -1.8316
  223MOL0     H30063   8.587   2.886   3.196  1.1184  0.1419  0.6708
  223MOL0     H30064   8.555   3.025   3.280 -1.7255 -2.8854  1.4383
  223MOL0     H30065   8.363   3.097   2.906  1.6408 -0.2168  0.5570
  223MOL0     H30066   8.153   3.369   2.811 -2.7675 -1.3283 -2.1019
  223MOL0     H30067   8.215   3.217   2.763  2.8876  3.6377 -1.4401
  223MOL0     H30068   8.107   3.219   2.903  0.0010 -1.0354 -0.9567
  223MOL0     H30069   8.257   3.808   2.920  0.2135 -2.2400  0.6550
  223MOL0     H30070   8.082   4.016   2.932  1.0874  1.6425  1.4116
  223MOL0     H30071   7.784   3.985   3.271 -0.7798  1.4342  0.1764
  223MOL0     H30072   7.912   4.109   3.302  1.0927  0.4603  0.5751
  223MOL0     H30073   7.759   4.257   3.141  1.3767 -1.3916 -0.9358
  223MOL0     H30074   7.665   4.112   3.115  0.6277 -1.0049  0.3091
  223MOL0     H30075   7.706   4.283   3.373 -0.0196 -0.7489  0.2291
  223MOL0     H30076   7.614   4.125   3.369  0.6995 -1.2340 -1.5725
  223MOL0     H30077   7.555   4.400   3.232  2.1268 -1.0950  0.7185
  223MOL0     H30078   7.468   4.259   3.183  0.9010  1.5387 -2.5079
  223MOL0     H30079   7.472   4.341   3.480 -1.5187  0.5633  1.6317
  223MOL0     H30080   7.369   4.223   3.401  0.2589  0.1057  0.2754
  223MOL0     H30081   7.263   4.438   3.454 -2.2330  1.1203 -0.5821
  223MOL0     H30082   7.349   4.513   3.319  1.1537 -1.6900 -2.7737
  223MOL0     H30083   7.124   4.311   3.326 -2.8656 -0.8076 -3.3634
  223MOL0     H30084   7.231   4.306   3.187  0.3741  0.4833  0.0231
  223MOL0     H30085   7.203   4.561   3.149 -2.4736 -0.4335 -3.3811
  223MOL0     H30086   7.076   4.552   3.272 -1.6405  2.3834 -2.7550
  223MOL0     H30087   7.961   3.860   3.303  0.1050 -1.1365 -0.1733
  223MOL0     H30088   8.133   3.689   3.307  1.3241 -0.6558  0.1833
  223MOL0     H30089   8.449   3.496   3.168 -0.4735 -0.0666  0.2116
  223MOL0     H30090   8.574   3.273   3.219  2.0693 -0.0721 -2.2312
  223MOL0     H30091   8.619   2.415   1.756  0.0066 -0.0236 -0.4815
  223MOL0     H30092   8.665   2.326   1.540  0.8323  1.0261 -0.8476
  223MOL0     H30093   8.602   2.064   1.153  0.8663  3.6005  0.5573
  223MOL0     H30094   8.595   2.030   0.910  1.3673  0.3481  0.1054
  223MOL0     H30095   8.341   2.168   0.564 -1.9658  0.2102 -0.4239
  223MOL0     H30096   8.302   2.277   0.703 -0.2659 -2.4254  0.3416
  223MOL0     H30097   8.531   2.318   0.519  1.0998 -2.7195  3.5839
  223MOL0     H30098   8.494   2.434   0.640 -0.5656  0.2654  0.2776
  223MOL0     H30099   8.251   2.481   0.532 -0.2544  2.1901  1.5544
  223MOL0     H30100   8.319   2.393   0.403  0.8033 -1.6778  1.5002
  223MOL0     H30101   8.519   2.575   0.408  0.4758  1.9732  0.8804
  223MOL0     H30102   8.420   2.670   0.515 -0.0626 -1.2978  2.1446
  223MOL0     H30103   8.193   2.734   0.169  0.0569  0.7735 -0.7173
  223MOL0     H30104   8.438   2.407   0.847 -0.9656 -3.7362 -3.9241
  223MOL0     H30105   8.496   2.461   1.094  0.4382 -1.1942  1.0306
  224MOL0     O30106   8.767   4.483   7.097 -1.5085 -0.3332 -0.2700
  224MOL0     C30107   8.736   4.604   7.105  0.6509  0.7940 -0.2355
  224MOL0     O30108   8.610   4.661   7.096 -0.0584  0.9588 -0.7799
  224MOL0     C30109   8.502   4.573   7.074 -0.4262 -0.9883 -0.9006
  224MOL0     C30110   8.479   4.467   7.161 -1.0307 -0.4891  0.3862
  224MOL0     C30111   8.371   4.390   7.136  0.1262  0.9821  0.7946
  224MOL0     C30112   8.283   4.410   7.033  0.3786  0.4774  0.2946
  224MOL0     O30113   8.182   4.317   7.011  0.1834  0.3125  0.1582
  224MOL0     C30114   8.087   4.353   6.909 -0.4289 -0.2294  0.3664
  224MOL0     C30115   8.016   4.227   6.862  0.4132 -0.0274 -0.8558
  224MOL0     C30116   8.092   4.174   6.740 -0.1772 -0.5616 -0.4054
  224MOL0     C30117   8.058   4.033   6.686  0.7870  0.1330  0.5721
  224MOL0     C30118   8.162   3.988   6.579 -0.3067  0.6845  0.5782
  224MOL0     C30119   8.182   4.086   6.466 -0.0676 -0.4737  0.2056
  224MOL0     C30120   8.233   4.033   6.336  0.7118 -1.2825  0.2695
  224MOL0     C30121   8.195   4.129   6.220  0.7609 -0.0241 -0.3629
  224MOL0     N30122   8.268   4.256   6.219 -0.3075  0.1485  0.3110
  224MOL0     C30123   8.393   4.272   6.167 -0.3581 -0.2128  0.5151
  224MOL0     C30124   8.419   4.408   6.167 -0.2485  0.0146  0.8031
  224MOL0     C30125   8.542   4.470   6.108 -0.0336  0.1590 -0.7532
  224MOL0     C30126   8.535   4.611   6.072  1.0532  0.6253  1.9692
  224MOL0     C30127   8.429   4.634   5.953  0.4071  0.2174 -0.7755
  224MOL0     C30128   8.427   4.784   5.918 -0.9169  0.6506 -0.0296
  224MOL0     O30129   8.552   4.854   5.917 -0.5398  0.2479  0.5203
  224MOL0     C30130   8.537   4.983   5.913  0.7111  0.2974  0.8325
  224MOL0     C30131   8.424   5.057   5.878 -0.2250  0.5831  1.1683
  224MOL0     C30132   8.420   5.198   5.882 -1.3801 -0.2526  0.8428
  224MOL0     C30133   8.280   5.249   5.862 -0.4549  0.0463  0.1529
  224MOL0     C30134   8.540   5.270   5.908  0.1933 -0.3367  0.1277
  224MOL0     C30135   8.553   5.421   5.910 -0.6590  0.4067  0.0742
  224MOL0     O30136   8.682   5.463   5.935  0.1526  0.2263 -0.0259
  224MOL0     C30137   8.700   5.595   5.907  0.6588 -0.4132  0.4944
  224MOL0     C30138   8.681   5.691   5.997 -0.2995 -0.0762  0.1950
  224MOL0     C30139   8.704   5.832   5.967  0.3559 -0.0017  0.0186
  224MOL0     C30140   8.770   5.873   5.847  0.1618  0.7081  0.5501
  224MOL0     O30141   8.799   6.000   5.814  0.7049  0.6098  0.7841
  224MOL0     C30142   8.815   6.034   5.675  0.3956 -0.2976  0.1638
  224MOL0     C30143   8.841   6.181   5.667 -0.7219 -0.1284  1.1644
  224MOL0     C30144   8.726   6.279   5.710 -0.0919 -0.5809  0.4064
  224MOL0     C30145   8.739   6.430   5.694 -0.5195  0.4674 -0.3987
  224MOL0     C30146   8.858   6.475   5.787 -0.1573 -0.1450 -0.6108
  224MOL0     C30147   8.875   6.631   5.778  0.1433  0.1362 -0.9624
  224MOL0     C30148   8.926   6.680   5.649 -1.0598 -0.7762  1.4822
  224MOL0     C30149   9.075   6.717   5.639 -0.3225  0.4754 -0.7473
  224MOL0    Cl30150   9.188   6.591   5.691 -0.2458 -0.1392  0.4183
  224MOL0     C30151   8.782   5.764   5.748 -0.0830  0.1906 -0.5984
  224MOL0     C30152   8.749   5.633   5.782 -0.7813 -0.2097  0.7085
  224MOL0     O30153   8.465   5.495   5.866 -0.2481 -0.2423  0.0040
  224MOL0     C30154   8.657   5.192   5.941  1.0348 -0.7442 -0.2463
  224MOL0     C30155   8.653   5.051   5.941  0.2681  0.7704 -0.1026
  224MOL0     N30156   8.307   4.472   6.222 -0.1192  0.3313 -0.1238
  224MOL0     N30157   8.223   4.379   6.262 -0.0145  1.0434  0.3575
  224MOL0     C30158   8.293   4.530   6.962 -0.5303  0.4476 -0.5210
  224MOL0     C30159   8.398   4.612   6.989 -0.0684  0.2061  0.1200
  224MOL0     C30160   8.840   4.708   7.119  0.1052 -0.3035 -0.1764
  224MOL0     C30161   8.960   4.668   7.173 -0.6636  0.1912  0.1739
  224MOL0     C30162   9.065   4.761   7.202 -0.1063 -0.2419 -0.5194
  224MOL0     C30163   9.040   4.892   7.190 -0.9232 -0.5823 -0.7605
  224MOL0     O30164   9.131   4.980   7.253 -0.1448 -0.1833 -0.7390
  224MOL0     C30165   9.260   4.982   7.189 -0.5745  0.2168 -0.2764
  224MOL0     C30166   9.323   5.108   7.243 -0.3250  0.4896 -0.0570
  224MOL0     C30167   9.466   5.115   7.215 -0.2480  0.2542 -0.4893
  224MOL0     C30168   9.514   5.259   7.244 -0.1454  0.1481 -0.3921
  224MOL0     C30169   9.664   5.267   7.220  0.1540 -0.0923 -0.1278
  224MOL0     C30170   9.779   5.278   7.188  0.0022  0.0363 -0.7807
  224MOL0     C30171   8.920   4.939   7.140  0.8467  0.1852  0.6257
  224MOL0     C30172   8.809   4.851   7.106 -0.0119 -0.2417  0.2937
  224MOL0     H30173   8.557   4.440   7.233  2.3543  1.6085 -2.1721
  224MOL0     H30174   8.363   4.298   7.193 -0.9986  0.2718 -0.4688
  224MOL0     H30175   8.016   4.429   6.945 -0.7183 -0.7604  0.9389
  224MOL0     H30176   8.136   4.397   6.822 -1.1869  0.8742  0.4716
  224MOL0     H30177   8.015   4.157   6.946  1.7670 -2.4236 -2.6896
  224MOL0     H30178   7.911   4.249   6.841 -0.7201 -3.9653 -0.1937
  224MOL0     H30179   8.072   4.244   6.659  0.6386  0.9842  0.6868
  224MOL0     H30180   8.200   4.166   6.759 -0.1312 -0.4006 -0.6021
  224MOL0     H30181   8.055   3.959   6.766  0.7232 -0.4723  0.0151
  224MOL0     H30182   7.957   4.035   6.644  1.0709  1.0480 -0.0956
  224MOL0     H30183   8.250   3.961   6.638 -2.0320  0.1691  3.0668
  224MOL0     H30184   8.118   3.889   6.563 -1.2957  0.6017  3.2389
  224MOL0     H30185   8.093   4.149   6.457  1.4847  1.8896  0.5444
  224MOL0     H30186   8.256   4.156   6.505 -0.4739  0.5508 -0.8261
  224MOL0     H30187   8.340   4.024   6.354  1.2344  0.6337 -1.5243
  224MOL0     H30188   8.182   3.937   6.323  0.2984 -0.7922 -2.2258
  224MOL0     H30189   8.087   4.146   6.225  0.4777 -1.9817  2.1859
  224MOL0     H30190   8.204   4.082   6.121 -4.5416  1.3266 -1.8099
  224MOL0     H30191   8.465   4.199   6.131  1.5142  1.8163 -0.1024
  224MOL0     H30192   8.610   4.462   6.193 -0.5463 -3.1221 -0.5107
  224MOL0     H30193   8.583   4.418   6.021 -0.5501 -1.5828 -0.0170
  224MOL0     H30194   8.630   4.656   6.043 -1.0998  2.7251 -2.9038
  224MOL0     H30195   8.508   4.667   6.162  0.3467  2.1250  0.8736
  224MOL0     H30196   8.334   4.606   6.000  2.8472 -0.1765  4.7210
  224MOL0     H30197   8.441   4.564   5.870  1.7192  1.0117 -1.2795
  224MOL0     H30198   8.346   4.826   5.979 -0.1362  2.0201  0.1026
  224MOL0     H30199   8.401   4.795   5.813  3.0380 -3.0791 -1.6892
  224MOL0     H30200   8.330   5.011   5.850 -0.9026  1.3653  2.0831
  224MOL0     H30201   8.271   5.269   5.755 -0.0591  2.3347  0.4947
  224MOL0     H30202   8.206   5.175   5.893 -0.0137 -0.8897 -0.9455
  224MOL0     H30203   8.261   5.345   5.912 -1.3567 -1.0065  1.9027
  224MOL0     H30204   8.642   5.658   6.093  0.3880  0.0610  0.5280
  224MOL0     H30205   8.669   5.904   6.039 -2.8421 -0.8711 -0.5222
  224MOL0     H30206   8.901   5.976   5.640 -0.5121 -1.9848  0.6183
  224MOL0     H30207   8.724   6.008   5.621  0.9809  0.4554 -1.2242
  224MOL0     H30208   8.926   6.214   5.728  0.1990  0.7822 -0.5147
  224MOL0     H30209   8.858   6.198   5.560  2.1556  1.2238  1.7314
  224MOL0     H30210   8.706   6.270   5.817  2.2431  0.7728  1.0395
  224MOL0     H30211   8.632   6.255   5.660 -0.5650  1.4712  0.1965
  224MOL0     H30212   8.762   6.457   5.590 -1.8965  3.9699  0.0474
  224MOL0     H30213   8.640   6.473   5.716 -1.2426 -0.9952 -0.6910
  224MOL0     H30214   8.949   6.419   5.765 -0.2197 -0.5482  0.1336
  224MOL0     H30215   8.844   6.446   5.892 -1.1928  0.1998 -0.6390
  224MOL0     H30216   8.779   6.679   5.795  0.7551  0.9963  0.1988
  224MOL0     H30217   8.939   6.662   5.861 -0.7038 -0.9448  0.1181
  224MOL0     H30218   8.895   6.785   5.636  0.8449 -0.0856  2.1899
  224MOL0     H30219   8.893   6.627   5.560 -0.7259  1.2317  0.0790
  224MOL0     H30220   9.079   6.814   5.690 -1.7262  1.0660 -1.7028
  224MOL0     H30221   9.089   6.750   5.536 -1.7182  3.7677 -0.0216
  224MOL0     H30222   8.828   5.764   5.649 -2.4864 -3.6916 -1.9541
  224MOL0     H30223   8.766   5.541   5.728 -1.6054  0.5194 -0.8587
  224MOL0     H30224   8.755   5.236   5.961  0.5906  2.5513 -4.1255
  224MOL0     H30225   8.742   5.005   5.982  2.8619  4.4575 -1.0309
  224MOL0     H30226   8.217   4.566   6.893  0.2045 -0.1701 -1.6794
  224MOL0     H30227   8.395   4.697   6.922  1.4674 -0.0829 -0.3436
  224MOL0     H30228   8.974   4.564   7.200 -3.1990 -0.2392  0.0312
  224MOL0     H30229   9.155   4.723   7.250 -2.1582 -1.4210  2.7996
  224MOL0     H30230   9.323   4.897   7.216  0.2111  1.2401  1.3055
  224MOL0     H30231   9.248   4.989   7.080  0.1244 -0.3174 -0.3937
  224MOL0     H30232   9.310   5.111   7.351  1.6959 -2.2000  0.3458
  224MOL0     H30233   9.277   5.200   7.205  1.0820  1.5803  0.8086
  224MOL0     H30234   9.491   5.083   7.113 -1.1995 -0.7041 -0.4496
  224MOL0     H30235   9.520   5.045   7.279  1.9960  2.3747  0.0729
  224MOL0     H30236   9.482   5.278   7.347 -0.8916  0.6251 -0.7023
  224MOL0     H30237   9.468   5.338   7.183 -1.3607 -0.8405 -0.8030
  224MOL0     H30238   9.884   5.269   7.169 -0.1049  0.7226 -1.7746
  224MOL0     H30239   8.913   5.047   7.128 -2.8620 -0.1725 -2.0691
  224MOL0     H30240   8.718   4.894   7.066 -0.0671  0.6405  1.3376
  225MOL0     O30241   2.373   5.007   8.994  0.0964 -0.2146  0.1316
  225MOL0     C30242   2.437   5.113   9.008 -0.1633  0.1750 -0.3275
  225MOL0     O30243   2.563   5.122   9.063  0.0910 -0.4949  0.5837
  225MOL0     C30244   2.608   5.005   9.124  1.1460 -0.1643  0.2860
  225MOL0     C30245   2.642   4.889   9.043  0.2815  0.1430 -0.9021
  225MOL0     C30246   2.711   4.785   9.102 -0.0341 -0.7869  0.0524
  225MOL0     C30247   2.737   4.787   9.238 -0.0982  0.4774 -0.6072
  225MOL0     O30248   2.808   4.692   9.305  0.2911 -0.0926  0.7846
  225MOL0     C30249   2.934   4.650   9.247  0.6300  0.3520 -0.3075
  225MOL0     C30250   3.016   4.599   9.367 -0.5688 -0.0741  0.5646
  225MOL0     C30251   3.060   4.723   9.446 -1.0942  0.8752 -0.2949
  225MOL0     C30252   3.170   4.696   9.544  0.1974  0.7481  0.2943
  225MOL0     C30253   3.222   4.821   9.601  1.1726  0.8104 -0.1499
  225MOL0     C30254   3.336   4.814   9.699 -0.0204  0.5109  0.0727
  225MOL0     C30255   3.289   4.736   9.825 -0.3774 -0.0254 -0.6620
  225MOL0     C30256   3.195   4.820   9.910 -0.2496 -0.8707  1.1982
  225MOL0     N30257   3.130   4.755  10.027 -0.2550  0.2356  0.7787
  225MOL0     C30258   3.046   4.649  10.016 -0.1240 -0.7779 -0.2783
  225MOL0     C30259   2.983   4.642  10.131 -0.6421 -1.0201 -1.4140
  225MOL0     C30260   2.874   4.552  10.169  0.5011 -0.2517  0.1876
  225MOL0     C30261   2.899   4.413  10.132 -0.0278 -0.1168  0.3265
  225MOL0     C30262   3.006   4.332  10.201  0.1732 -0.1661 -0.9804
  225MOL0     C30263   2.952   4.265  10.324  0.6410  0.4050 -0.0548
  225MOL0     O30264   2.879   4.355  10.408  0.1617 -1.0776 -0.5353
  225MOL0     C30265   2.774   4.307  10.484 -0.3946  0.3749 -0.4257
  225MOL0     C30266   2.767   4.177  10.520  0.5222  0.2648 -0.3627
  225MOL0     C30267   2.662   4.127  10.605 -0.3102  0.3886 -0.5586
  225MOL0     C30268   2.675   3.989  10.667  0.2680  0.6496 -0.0640
  225MOL0     C30269   2.560   4.219  10.639 -1.0394  0.0864  0.5123
  225MOL0     C30270   2.435   4.174  10.708 -0.2154  0.6785 -0.1890
  225MOL0     O30271   2.361   4.268  10.758  0.0133 -0.6511  0.3339
  225MOL0     C30272   2.231   4.237  10.787 -0.3452 -0.3118  0.9146
  225MOL0     C30273   2.193   4.204  10.907  0.0189 -0.1679 -0.2675
  225MOL0     C30274   2.056   4.176  10.939  0.3377  0.0918 -0.3087
  225MOL0     C30275   1.961   4.180  10.828 -0.2206  0.3044 -0.3873
  225MOL0     O30276   1.826   4.147  10.830 -0.0512  0.6269 -0.4927
  225MOL0     C30277   1.744   4.195  10.943  0.4473  0.5432 -0.6183
  225MOL0     C30278   1.596   4.177  10.934  0.6149 -0.0366  0.4674
  225MOL0     C30279   1.537   4.040  10.903  0.7002  0.8473 -1.0413
  225MOL0     C30280   1.380   4.040  10.889 -0.7319  0.1643  0.0574
  225MOL0     C30281   1.308   4.046  11.026 -0.6278  0.5744  0.1879
  225MOL0     C30282   1.158   4.039  11.007  0.1845  0.6069 -0.1154
  225MOL0     C30283   1.093   3.914  10.956  0.7234 -0.1745 -0.9297
  225MOL0     C30284   1.133   3.791  11.038  0.0508  0.2553 -0.6842
  225MOL0    Cl30285   1.013   3.672  11.046  0.3934  0.0394  0.1045
  225MOL0     C30286   2.000   4.218  10.701  0.4538 -0.6713 -0.4455
  225MOL0     C30287   2.137   4.234  10.677 -0.1154 -0.2635  0.3530
  225MOL0     O30288   2.393   4.061  10.689 -0.1098  0.2825 -0.0592
  225MOL0     C30289   2.576   4.357  10.602  0.3120  0.9140  1.0039
  225MOL0     C30290   2.689   4.395  10.539  0.2679  0.3546 -0.1288
  225MOL0     N30291   3.041   4.726  10.227 -0.2196 -0.0244 -0.3881
  225MOL0     N30292   3.135   4.786  10.159  0.2931 -0.6612  1.2065
  225MOL0     C30293   2.692   4.892   9.315  0.5127 -0.0741 -0.1011
  225MOL0     C30294   2.626   5.002   9.260 -0.4589  0.6967  0.1627
  225MOL0     C30295   2.359   5.238   8.956 -0.8969  0.3693 -0.9891
  225MOL0     C30296   2.231   5.238   8.901  0.5303 -0.3144 -0.4359
  225MOL0     C30297   2.165   5.345   8.850  0.0286 -0.3356  0.6353
  225MOL0     C30298   2.226   5.472   8.862 -0.1146  0.1364 -1.0895
  225MOL0     O30299   2.147   5.574   8.820 -0.0625 -0.2725 -0.1580
  225MOL0     C30300   2.180   5.715   8.832  0.7842  0.5670 -1.0790
  225MOL0     C30301   2.272   5.749   8.724  0.3867 -0.5488  0.0257
  225MOL0     C30302   2.310   5.901   8.733 -0.5428  0.3185 -1.0363
  225MOL0     C30303   2.393   5.948   8.607 -0.2709  0.0636 -1.0846
  225MOL0     C30304   2.515   6.018   8.652 -0.0822  0.2491  0.6206
  225MOL0     C30305   2.615   6.071   8.696 -0.5143  0.8111  0.1504
  225MOL0     C30306   2.359   5.482   8.913  0.1223  0.5480  1.1017
  225MOL0     C30307   2.425   5.368   8.958  0.0647 -0.5027  0.1889
  225MOL0     H30308   2.616   4.890   8.938 -0.5538  2.7776 -0.7422
  225MOL0     H30309   2.743   4.701   9.042  3.7387  0.6440 -0.2232
  225MOL0     H30310   2.905   4.578   9.170  2.8107  2.2798 -3.1415
  225MOL0     H30311   2.984   4.732   9.196 -0.3949  1.0604 -0.2024
  225MOL0     H30312   2.959   4.528   9.428 -2.3922 -0.0292 -1.0020
  225MOL0     H30313   3.105   4.550   9.325 -2.7452 -2.7549 -1.2605
  225MOL0     H30314   3.106   4.794   9.377  2.2567 -0.9263 -0.0969
  225MOL0     H30315   2.976   4.769   9.501  0.7259  1.7278  1.9594
  225MOL0     H30316   3.131   4.626   9.617 -2.4078  0.0108 -1.6415
  225MOL0     H30317   3.251   4.643   9.493 -1.5824 -2.5082  0.6017
  225MOL0     H30318   3.266   4.872   9.515  0.5480  0.3033 -0.7896
  225MOL0     H30319   3.140   4.881   9.642  0.1942 -0.6139  0.0394
  225MOL0     H30320   3.427   4.767   9.662 -0.4191 -0.9624  0.8366
  225MOL0     H30321   3.380   4.911   9.720  0.1248  0.2587  0.9884
  225MOL0     H30322   3.243   4.639   9.808  1.0876 -1.1812  1.5551
  225MOL0     H30323   3.372   4.702   9.888 -2.6557 -2.3253  1.3009
  225MOL0     H30324   3.114   4.870   9.857 -0.8193 -1.0176  1.9025
  225MOL0     H30325   3.254   4.904   9.947  1.4157 -1.8056  0.7440
  225MOL0     H30326   3.019   4.584   9.934 -1.0081  1.6608 -2.0637
  225MOL0     H30327   2.852   4.545  10.276 -0.6743 -5.6910 -0.1081
  225MOL0     H30328   2.787   4.588  10.115  1.7209  1.0143 -1.0044
  225MOL0     H30329   2.922   4.411  10.025  2.1843 -0.7678  0.7664
  225MOL0     H30330   2.799   4.368  10.132 -0.5247  0.9505  0.3623
  225MOL0     H30331   3.095   4.392  10.226 -0.4864 -0.3800  2.4566
  225MOL0     H30332   3.041   4.257  10.130 -3.3408 -1.0846 -1.9313
  225MOL0     H30333   3.034   4.214  10.376  1.8245  0.7152 -1.5490
  225MOL0     H30334   2.891   4.179  10.294  2.1064 -1.1128  1.1368
  225MOL0     H30335   2.842   4.104  10.492  0.3824 -0.1804  0.3997
  225MOL0     H30336   2.758   3.928  10.632 -1.0475 -1.4739  0.2841
  225MOL0     H30337   2.694   3.993  10.775  4.3470 -1.4077 -0.5077
  225MOL0     H30338   2.584   3.930  10.650  0.3817  0.1322  1.0492
  225MOL0     H30339   2.271   4.207  10.982  0.1133 -0.7212 -0.3410
  225MOL0     H30340   2.021   4.146  11.037 -1.0099  1.9537 -0.1601
  225MOL0     H30341   1.769   4.146  11.038 -0.1425  2.5475  0.6417
  225MOL0     H30342   1.767   4.302  10.935 -0.4054  0.7969  0.1619
  225MOL0     H30343   1.549   4.221  11.022  0.8734  3.5554 -1.0261
  225MOL0     H30344   1.578   4.247  10.852  3.3606 -0.0731 -0.2862
  225MOL0     H30345   1.549   3.982  10.996  1.1214  1.0855 -0.9438
  225MOL0     H30346   1.586   3.988  10.821  2.5668  0.9719 -0.0660
  225MOL0     H30347   1.345   4.118  10.821 -3.3352 -0.0703  1.0172
  225MOL0     H30348   1.345   3.948  10.841  1.5758 -0.6638 -0.1316
  225MOL0     H30349   1.336   4.131  11.088  1.4336  0.8913 -1.0662
  225MOL0     H30350   1.338   3.970  11.099  1.0823  2.1331  1.1801
  225MOL0     H30351   1.118   4.057  11.107  0.2988  1.0796 -0.1521
  225MOL0     H30352   1.129   4.123  10.944 -1.5233 -0.0611 -0.2950
  225MOL0     H30353   1.112   3.892  10.850  0.8041  1.2142 -1.2215
  225MOL0     H30354   0.984   3.918  10.959  0.3907 -2.9678 -3.7183
  225MOL0     H30355   1.144   3.834  11.138 -2.2341  0.3428 -0.4267
  225MOL0     H30356   1.230   3.755  11.002  0.1036  2.0542 -2.5124
  225MOL0     H30357   1.922   4.218  10.626 -0.9228  1.3751  0.8705
  225MOL0     H30358   2.168   4.253  10.575 -2.7228  1.5528 -0.1811
  225MOL0     H30359   2.491   4.425  10.604 -1.8515 -1.6242  1.2243
  225MOL0     H30360   2.697   4.500  10.516  2.7131  0.1326 -0.4896
  225MOL0     H30361   2.714   4.882   9.420  4.1832 -1.8028 -0.8926
  225MOL0     H30362   2.596   5.088   9.319 -0.5008  2.0188 -1.7110
  225MOL0     H30363   2.181   5.142   8.893 -2.4153  0.8988  1.7593
  225MOL0     H30364   2.065   5.325   8.813 -0.3163  0.9332  0.8612
  225MOL0     H30365   2.089   5.776   8.831 -1.3052 -2.1184  2.2114
  225MOL0     H30366   2.231   5.740   8.925 -0.2036 -0.5294 -0.1990
  225MOL0     H30367   2.231   5.726   8.625 -3.2196  0.6183  1.0598
  225MOL0     H30368   2.359   5.686   8.742 -1.9884 -3.4275  2.4156
  225MOL0     H30369   2.358   5.935   8.825 -2.2114  1.8133 -0.6554
  225MOL0     H30370   2.215   5.955   8.735 -0.7359  0.1542 -3.0554
  225MOL0     H30371   2.334   6.023   8.554 -2.2550  0.8179  1.8958
  225MOL0     H30372   2.414   5.864   8.540  0.0817  0.1273 -1.0561
  225MOL0     H30373   2.699   6.117   8.743 -0.7608  0.4153  1.0144
  225MOL0     H30374   2.421   5.571   8.910  0.5878  0.1953 -0.9602
  225MOL0     H30375   2.531   5.365   8.985 -0.2483 -2.2312  1.4534
  226MOL0     O30376   4.093   2.543   3.976 -0.0236 -0.0178 -0.1553
  226MOL0     C30377   4.033   2.447   3.933  0.4877  0.0201  0.1402
  226MOL0     O30378   4.055   2.312   3.964 -0.6161 -0.6620 -0.1373
  226MOL0     C30379   4.129   2.284   4.081 -0.4410  0.2371  0.2142
  226MOL0     C30380   4.211   2.171   4.090  0.7497  0.4553  1.0611
  226MOL0     C30381   4.280   2.125   4.205 -0.4222 -0.2557 -0.0523
  226MOL0     C30382   4.265   2.203   4.321 -0.7373  0.2521 -0.3192
  226MOL0     O30383   4.311   2.178   4.448  0.0755  0.5084  1.4883
  226MOL0     C30384   4.347   2.043   4.480  0.3685 -0.5048  0.1886
  226MOL0     C30385   4.237   1.947   4.461 -0.2955 -0.1636  0.0579
  226MOL0     C30386   4.299   1.810   4.433  0.3596 -1.0328  0.5448
  226MOL0     C30387   4.186   1.705   4.422  0.2095  0.7573  0.1251
  226MOL0     C30388   4.262   1.569   4.428 -0.1060  0.4797  0.3539
  226MOL0     C30389   4.308   1.512   4.564  0.9237  0.5530 -0.0373
  226MOL0     C30390   4.350   1.367   4.553  0.4078  0.0059 -0.1894
  226MOL0     C30391   4.476   1.351   4.479  0.1740 -1.0434 -0.2660
  226MOL0     N30392   4.529   1.216   4.496 -0.6250 -0.1309  0.3175
  226MOL0     C30393   4.476   1.102   4.443  0.2763  0.3842  1.1951
  226MOL0     C30394   4.543   0.996   4.496  0.1185 -0.2357 -0.2896
  226MOL0     C30395   4.526   0.844   4.501  0.0965  0.0537 -0.0771
  226MOL0     C30396   4.399   0.824   4.581 -0.6559  0.1302 -0.2035
  226MOL0     C30397   4.346   0.683   4.568 -0.1831  0.4811 -0.5081
  226MOL0     C30398   4.442   0.577   4.641  0.3887 -0.0308  0.3126
  226MOL0     O30399   4.463   0.616   4.775  0.4308 -0.0302  0.5350
  226MOL0     C30400   4.388   0.545   4.866  0.2092  0.2853  0.3808
  226MOL0     C30401   4.435   0.424   4.927  0.0198 -0.7339  0.4657
  226MOL0     C30402   4.358   0.348   5.015 -0.2188  0.2154  0.5954
  226MOL0     C30403   4.422   0.219   5.070  0.5510  0.1557 -0.3708
  226MOL0     C30404   4.226   0.397   5.026  0.0952  0.6032  0.0041
  226MOL0     C30405   4.129   0.315   5.102  0.2709  0.9030  0.4218
  226MOL0     O30406   4.050   0.370   5.191  0.4732  0.2496 -0.1874
  226MOL0     C30407   4.103   0.461   5.279  0.3073  0.4793 -0.3196
  226MOL0     C30408   4.068   0.595   5.274  0.0865  0.0222 -0.4259
  226MOL0     C30409   4.132   0.692   5.357 -0.7751  0.5517  0.6592
  226MOL0     C30410   4.224   0.646   5.449 -0.4221 -1.2061 -0.3086
  226MOL0     O30411   4.278   0.734   5.542 -0.4001 -0.5748  0.6789
  226MOL0     C30412   4.394   0.697   5.612  0.5912  0.6296 -0.0688
  226MOL0     C30413   4.408   0.793   5.733 -0.2993  1.0157 -0.6142
  226MOL0     C30414   4.541   0.783   5.819 -0.9933 -0.0370 -0.0935
  226MOL0     C30415   4.559   0.898   5.923 -0.3068  0.1923 -0.0798
  226MOL0     C30416   4.695   0.897   5.995 -0.0259 -0.3326  0.5709
  226MOL0     C30417   4.719   1.010   6.094 -1.6099  0.0856 -0.3980
  226MOL0     C30418   4.806   0.966   6.219  0.3864 -0.3835  0.4506
  226MOL0     C30419   4.930   0.884   6.178  0.6341  0.1100  0.4279
  226MOL0    Cl30420   5.033   0.984   6.075  0.3855 -0.5325  0.1579
  226MOL0     C30421   4.231   0.504   5.471 -0.5151 -0.6758  1.2652
  226MOL0     C30422   4.185   0.415   5.383 -0.0527  0.2412  1.2248
  226MOL0     O30423   4.126   0.191   5.073 -0.1471 -0.4358 -0.1732
  226MOL0     C30424   4.177   0.510   4.966 -0.3777 -0.5686 -0.7834
  226MOL0     C30425   4.255   0.596   4.892 -0.3385 -0.0486  0.3599
  226MOL0     N30426   4.643   1.048   4.563 -0.2549 -0.4231 -0.5237
  226MOL0     N30427   4.635   1.174   4.571  0.3044  0.5182 -0.5521
  226MOL0     C30428   4.193   2.321   4.317 -0.1547  0.4838  0.9716
  226MOL0     C30429   4.110   2.356   4.201  0.2285  0.5099  0.2658
  226MOL0     C30430   3.920   2.484   3.841 -0.5395  0.2557 -0.3193
  226MOL0     C30431   3.822   2.390   3.803 -0.0614 -0.0375 -0.2567
  226MOL0     C30432   3.707   2.424   3.739 -0.3853  1.0513  0.6704
  226MOL0     C30433   3.678   2.562   3.712 -1.0504 -0.1142 -0.1367
  226MOL0     O30434   3.558   2.604   3.671  0.8317 -0.0868  0.3069
  226MOL0     C30435   3.497   2.720   3.719 -0.4884 -0.7797  0.8799
  226MOL0     C30436   3.450   2.717   3.866  0.1240 -0.3795 -0.8069
  226MOL0     C30437   3.349   2.603   3.894  0.1405 -0.2268  0.3264
  226MOL0     C30438   3.217   2.628   3.808  0.3538  0.1300  0.3475
  226MOL0     C30439   3.106   2.552   3.866 -0.1004 -0.1395 -0.3674
  226MOL0     C30440   3.008   2.497   3.910  0.0942 -1.0070 -0.0813
  226MOL0     C30441   3.785   2.658   3.746  0.3695  0.4417 -1.0788
  226MOL0     C30442   3.907   2.617   3.803  0.3596 -1.0180 -0.6477
  226MOL0     H30443   4.220   2.116   3.996 -2.4865  0.2975  0.7031
  226MOL0     H30444   4.341   2.035   4.194 -0.8004 -0.2156 -3.3347
  226MOL0     H30445   4.435   2.019   4.418  0.0571 -1.1401 -0.0228
  226MOL0     H30446   4.388   2.032   4.581 -0.8274  0.5325  0.8117
  226MOL0     H30447   4.173   1.942   4.549 -1.0474  1.1254 -0.3860
  226MOL0     H30448   4.172   1.977   4.378 -0.6147 -0.4631  0.1971
  226MOL0     H30449   4.356   1.816   4.340 -0.4910  0.5989  0.0869
  226MOL0     H30450   4.367   1.787   4.516  1.9073 -4.4257 -1.4438
  226MOL0     H30451   4.116   1.718   4.505  2.9410 -0.7407  2.8509
  226MOL0     H30452   4.129   1.713   4.328 -0.2503 -3.9680 -0.2282
  226MOL0     H30453   4.195   1.495   4.384  2.3849 -2.7958  1.7133
  226MOL0     H30454   4.348   1.579   4.362  1.9593 -0.0043  2.8120
  226MOL0     H30455   4.385   1.574   4.611 -0.9095  2.8071  0.1834
  226MOL0     H30456   4.217   1.508   4.624  1.0130 -0.7391  0.0446
  226MOL0     H30457   4.354   1.332   4.657 -1.7442 -3.2105 -1.0503
  226MOL0     H30458   4.265   1.322   4.501 -1.2911  2.8202 -0.0541
  226MOL0     H30459   4.553   1.418   4.518  0.7663 -0.3954 -2.4375
  226MOL0     H30460   4.459   1.373   4.374 -1.7533  1.6020  0.5085
  226MOL0     H30461   4.386   1.091   4.384  0.6126 -4.3016  1.1603
  226MOL0     H30462   4.504   0.809   4.400 -0.0959  0.8319 -0.3101
  226MOL0     H30463   4.615   0.793   4.539  0.2852  2.4611  3.1086
  226MOL0     H30464   4.323   0.885   4.531  0.5398  0.0262 -2.2962
  226MOL0     H30465   4.412   0.857   4.684 -0.4830 -2.4363  0.6468
  226MOL0     H30466   4.338   0.660   4.461  0.0324  0.8216 -0.5989
  226MOL0     H30467   4.248   0.666   4.614  0.1347  0.0799  0.0378
  226MOL0     H30468   4.537   0.566   4.589  0.0893  1.0139 -0.4929
  226MOL0     H30469   4.397   0.477   4.642 -1.0874  0.6025  1.5105
  226MOL0     H30470   4.536   0.393   4.903  0.7747  1.6426  0.3958
  226MOL0     H30471   4.370   0.173   5.154  0.1655  0.8121 -0.2428
  226MOL0     H30472   4.415   0.138   4.997 -3.0207 -0.3264  0.3334
  226MOL0     H30473   4.526   0.236   5.101  0.0924  0.0755  1.3003
  226MOL0     H30474   4.003   0.626   5.193  1.1934 -0.6688 -1.6089
  226MOL0     H30475   4.106   0.796   5.343 -1.0260  0.0536 -4.5536
  226MOL0     H30476   4.381   0.596   5.653 -0.4595  0.3145 -1.1012
  226MOL0     H30477   4.481   0.697   5.545  0.0183 -0.0244 -0.8353
  226MOL0     H30478   4.397   0.893   5.691 -1.0283  0.2001 -2.4894
  226MOL0     H30479   4.321   0.773   5.796 -1.8170 -2.2869 -3.4064
  226MOL0     H30480   4.629   0.801   5.756  1.5167 -0.8508  2.9246
  226MOL0     H30481   4.555   0.682   5.859 -1.2786 -1.6728 -3.6536
  226MOL0     H30482   4.543   0.993   5.872 -2.3827 -0.8207 -1.5033
  226MOL0     H30483   4.491   0.877   6.007  2.1594  0.3016  2.0595
  226MOL0     H30484   4.775   0.899   5.922  1.2569  4.9297  1.7284
  226MOL0     H30485   4.700   0.798   6.041  1.7156 -0.9697 -0.8992
  226MOL0     H30486   4.762   1.094   6.038  1.1996 -0.4770  0.7628
  226MOL0     H30487   4.622   1.045   6.132 -0.1077  2.7980  1.3333
  226MOL0     H30488   4.742   0.896   6.273 -1.1090  1.3762  1.0909
  226MOL0     H30489   4.823   1.050   6.287  0.6125  0.6664 -0.8511
  226MOL0     H30490   4.907   0.793   6.122  1.2306  0.1270  0.1433
  226MOL0     H30491   4.978   0.859   6.273  0.4442 -1.3228  0.1753
  226MOL0     H30492   4.279   0.446   5.549  1.8232 -4.0104 -2.2617
  226MOL0     H30493   4.192   0.307   5.387 -2.6540  0.0232  1.5367
  226MOL0     H30494   4.076   0.542   4.990  0.4624  0.6366  1.5115
  226MOL0     H30495   4.234   0.699   4.865  1.6330  0.6105  1.1975
  226MOL0     H30496   4.184   2.397   4.395 -2.2250  2.7049 -1.2332
  226MOL0     H30497   4.046   2.444   4.209  0.0042  0.8551 -3.6044
  226MOL0     H30498   3.855   2.292   3.835  2.0009  1.0099  1.0583
  226MOL0     H30499   3.637   2.344   3.717  2.1212 -1.2447  0.5003
  226MOL0     H30500   3.568   2.803   3.718  0.0046 -1.1953  0.9735
  226MOL0     H30501   3.414   2.749   3.654  0.3831  1.7806  0.8094
  226MOL0     H30502   3.408   2.813   3.897  0.2655 -0.2226 -1.0974
  226MOL0     H30503   3.539   2.690   3.923 -2.7355 -2.8529  2.9949
  226MOL0     H30504   3.322   2.609   4.000 -0.3460 -0.3693  0.2113
  226MOL0     H30505   3.401   2.507   3.885  2.0948  0.7235  0.7309
  226MOL0     H30506   3.217   2.591   3.705 -0.5700  1.6115 -0.2134
  226MOL0     H30507   3.193   2.734   3.796 -0.7034 -0.3615 -2.7051
  226MOL0     H30508   2.917   2.447   3.936 -0.8972  0.6313 -0.2435
  226MOL0     H30509   3.773   2.765   3.729  0.8307  0.7657  0.4088
  226MOL0     H30510   3.985   2.690   3.821 -2.1876  1.7159  0.0010
  227MOL0     O30511   7.031   2.095   9.136  0.3613  0.3946  0.0936
  227MOL0     C30512   7.055   2.122   9.257  0.1337 -0.0992  0.3908
  227MOL0     O30513   7.179   2.099   9.309  0.7813  0.6928  0.2023
  227MOL0     C30514   7.280   2.042   9.235 -0.3947 -0.0462  0.3821
  227MOL0     C30515   7.375   2.129   9.187  0.6896  0.6263 -0.7969
  227MOL0     C30516   7.484   2.083   9.109 -1.0420  0.2640  0.1958
  227MOL0     C30517   7.488   1.943   9.072 -0.6178  0.4456 -0.5773
  227MOL0     O30518   7.596   1.905   9.003  0.0384 -0.2774 -0.2706
  227MOL0     C30519   7.646   1.773   9.005  0.1708  0.0330 -0.1879
  227MOL0     C30520   7.721   1.739   9.132 -0.7538 -0.4108 -0.0848
  227MOL0     C30521   7.866   1.741   9.112  0.5442  0.3961  0.0087
  227MOL0     C30522   7.925   1.615   9.049 -0.7385 -0.1952  0.5784
  227MOL0     C30523   8.058   1.576   9.096 -0.4419 -0.3517 -0.7589
  227MOL0     C30524   8.072   1.490   9.219  0.3011 -0.8719 -0.4632
  227MOL0     C30525   8.220   1.471   9.257 -0.2598 -0.6159 -0.5268
  227MOL0     C30526   8.256   1.393   9.390 -0.0003  0.4780  0.1461
  227MOL0     N30527   8.335   1.460   9.494 -0.0228  0.0605  0.0293
  227MOL0     C30528   8.432   1.550   9.464 -0.9089  0.5486  0.0352
  227MOL0     C30529   8.503   1.569   9.583 -0.5141 -0.0688 -0.5925
  227MOL0     C30530   8.651   1.625   9.603 -0.4085  1.0832 -0.8738
  227MOL0     C30531   8.764   1.564   9.517 -0.6058 -0.0173 -0.4189
  227MOL0     C30532   8.905   1.632   9.545 -0.9515 -0.5014  0.5609
  227MOL0     C30533   9.016   1.601   9.435 -0.3086  0.3681 -0.7900
  227MOL0     O30534   9.147   1.654   9.478 -0.1049 -0.2256 -0.0017
  227MOL0     C30535   9.236   1.660   9.370 -0.7998  0.3457  0.4262
  227MOL0     C30536   9.221   1.598   9.249 -0.0466 -0.2390  1.3860
  227MOL0     C30537   9.312   1.615   9.144 -0.3404  0.7361  0.1320
  227MOL0     C30538   9.270   1.573   9.009  0.8540 -0.0527 -1.0367
  227MOL0     C30539   9.425   1.697   9.154  0.5967 -0.6808 -0.2612
  227MOL0     C30540   9.519   1.719   9.045  0.1007  0.0178  0.6301
  227MOL0     O30541   9.586   1.623   9.000  0.5238 -0.0644  0.3960
  227MOL0     C30542   9.698   1.644   8.914  0.7618 -0.1143 -0.7503
  227MOL0     C30543   9.814   1.705   8.955  0.9944 -0.2364  0.4317
  227MOL0     C30544   9.933   1.709   8.879  0.6085 -0.4878  0.3836
  227MOL0     C30545   9.933   1.642   8.755 -0.5704  0.2562  0.7819
  227MOL0     O30546  10.038   1.645   8.664 -0.1290  0.1812 -0.1389
  227MOL0     C30547  10.174   1.631   8.713 -0.5707 -0.6953 -0.6649
  227MOL0     C30548  10.262   1.741   8.649  0.0770 -0.6962 -1.5083
  227MOL0     C30549  10.260   1.719   8.493 -0.5236  0.1145  0.2919
  227MOL0     C30550  10.383   1.640   8.446 -0.2137  0.1080  0.4517
  227MOL0     C30551  10.413   1.685   8.303  1.1243  0.8054  0.3041
  227MOL0     C30552  10.474   1.564   8.228  0.6665 -0.5839  0.4555
  227MOL0     C30553  10.547   1.600   8.087 -0.2652 -0.6634 -0.3084
  227MOL0     C30554  10.434   1.604   7.984  0.8400 -0.6268  0.8391
  227MOL0    Cl30555  10.504   1.615   7.811  0.1254 -0.2188  0.0847
  227MOL0     C30556   9.816   1.580   8.715  1.1303 -0.4605  0.7047
  227MOL0     C30557   9.700   1.576   8.793 -0.4347  0.2172  0.1159
  227MOL0     O30558   9.533   1.842   9.006 -0.0700  1.0307  0.3452
  227MOL0     C30559   9.448   1.756   9.275  0.1428  0.1711 -0.0882
  227MOL0     C30560   9.356   1.740   9.384 -0.6878 -0.1841 -0.3188
  227MOL0     N30561   8.425   1.504   9.683  0.6420 -0.5384 -0.6825
  227MOL0     N30562   8.328   1.433   9.628 -0.5201 -0.0473  0.3856
  227MOL0     C30563   7.401   1.855   9.139 -0.8591 -0.2507 -0.1961
  227MOL0     C30564   7.298   1.905   9.218  0.4421  0.0031  0.2165
  227MOL0     C30565   6.948   2.187   9.337  0.1468 -0.4970 -0.1977
  227MOL0     C30566   6.969   2.199   9.479 -1.0057 -0.7002  0.6568
  227MOL0     C30567   6.863   2.231   9.556  0.9927  0.0278  0.0087
  227MOL0     C30568   6.742   2.264   9.505  0.2832 -0.6302  0.2867
  227MOL0     O30569   6.655   2.293   9.605  0.0566  0.4891 -0.0535
  227MOL0     C30570   6.517   2.327   9.572 -0.1310 -0.7689  0.1554
  227MOL0     C30571   6.499   2.463   9.505  0.1271 -0.9931  0.7288
  227MOL0     C30572   6.434   2.572   9.598 -1.0537  0.4829  0.0632
  227MOL0     C30573   6.284   2.567   9.586 -0.5234 -0.2862  0.1037
  227MOL0     C30574   6.222   2.553   9.451  0.8489  0.5309  0.4474
  227MOL0     C30575   6.174   2.521   9.343  1.3120  0.2577  0.0466
  227MOL0     C30576   6.723   2.262   9.370  0.2056  0.9074  0.4045
  227MOL0     C30577   6.825   2.217   9.284  0.3935  0.0999 -0.0467
  227MOL0     H30578   7.359   2.232   9.218  0.7043 -0.4964  3.5947
  227MOL0     H30579   7.549   2.154   9.059 -0.1731 -0.9602 -0.4837
  227MOL0     H30580   7.556   1.715   8.981  0.4840 -0.5366 -0.0060
  227MOL0     H30581   7.714   1.742   8.926 -0.4179 -1.4310 -0.1555
  227MOL0     H30582   7.686   1.807   9.211 -0.6664  1.0623 -1.2548
  227MOL0     H30583   7.694   1.642   9.175 -2.4414  0.0342 -0.0707
  227MOL0     H30584   7.888   1.840   9.070  1.8895  1.2739  2.5333
  227MOL0     H30585   7.910   1.734   9.212 -0.8116 -1.2815  0.5312
  227MOL0     H30586   7.864   1.524   9.052  1.9994 -2.5858 -4.0957
  227MOL0     H30587   7.939   1.649   8.946 -1.1005 -1.5353  0.0598
  227MOL0     H30588   8.097   1.535   9.002 -1.7272  0.8128 -1.8456
  227MOL0     H30589   8.124   1.663   9.108  2.5992 -2.4115 -1.5616
  227MOL0     H30590   8.020   1.550   9.294  0.3897  0.7877 -1.6581
  227MOL0     H30591   8.034   1.390   9.198  0.3922 -1.0402  0.1653
  227MOL0     H30592   8.272   1.428   9.171  0.8666 -1.0431  0.3369
  227MOL0     H30593   8.268   1.569   9.263 -2.5831  0.5059  2.4661
  227MOL0     H30594   8.309   1.300   9.368  3.0894  1.9931  0.6134
  227MOL0     H30595   8.170   1.376   9.455  0.9448 -1.4580  0.9685
  227MOL0     H30596   8.466   1.564   9.362  0.1950 -1.9965 -0.0079
  227MOL0     H30597   8.643   1.732   9.580  2.0450  1.8971  1.4766
  227MOL0     H30598   8.683   1.617   9.707  0.3954  2.7253 -0.9706
  227MOL0     H30599   8.732   1.552   9.413  0.6236 -1.6172 -0.6554
  227MOL0     H30600   8.771   1.462   9.556  0.1700  1.2309  2.9828
  227MOL0     H30601   8.938   1.612   9.647  1.2733  0.5100  0.1072
  227MOL0     H30602   8.886   1.739   9.530 -1.0549 -0.6950 -0.8515
  227MOL0     H30603   8.985   1.646   9.341 -0.1122 -1.7530 -1.9330
  227MOL0     H30604   9.033   1.493   9.427 -0.4074 -0.3687  4.9721
  227MOL0     H30605   9.144   1.522   9.234  1.6847 -2.0054  1.0686
  227MOL0     H30606   9.211   1.648   8.956  2.8479  1.4377 -1.2579
  227MOL0     H30607   9.356   1.552   8.945  0.4006  1.4389 -2.1893
  227MOL0     H30608   9.222   1.474   9.006  0.3710  0.1942 -2.1328
  227MOL0     H30609   9.815   1.754   9.052 -2.2253 -0.7275  0.8466
  227MOL0     H30610  10.016   1.770   8.913 -0.9236  0.2271  3.1434
  227MOL0     H30611  10.169   1.636   8.822  0.7509  0.4737 -0.6126
  227MOL0     H30612  10.225   1.535   8.700  2.7002  1.0881 -2.5768
  227MOL0     H30613  10.215   1.838   8.667  0.9475 -0.1260 -2.2058
  227MOL0     H30614  10.364   1.744   8.690  1.4956  1.7566 -4.7600
  227MOL0     H30615  10.256   1.814   8.439 -0.0613  0.1148  0.2580
  227MOL0     H30616  10.184   1.648   8.459  2.3453 -2.4123 -1.4036
  227MOL0     H30617  10.476   1.657   8.501 -0.7280  0.9899  1.0692
  227MOL0     H30618  10.352   1.535   8.443 -1.1470  0.4028 -1.1336
  227MOL0     H30619  10.472   1.776   8.306  2.8554 -0.3081  2.5371
  227MOL0     H30620  10.324   1.723   8.251  0.9404  1.2544  0.9488
  227MOL0     H30621  10.554   1.527   8.293 -0.5525 -1.2697  1.6144
  227MOL0     H30622  10.394   1.490   8.219 -1.4818  1.2667  2.6426
  227MOL0     H30623  10.609   1.513   8.065  0.1921 -0.9381  1.8540
  227MOL0     H30624  10.603   1.693   8.093  0.1725 -0.8797 -0.8842
  227MOL0     H30625  10.364   1.686   8.002 -2.9184 -2.7664 -2.3184
  227MOL0     H30626  10.369   1.516   7.989 -0.2112  0.0671 -0.0832
  227MOL0     H30627   9.821   1.530   8.619  1.2405  0.1176  0.4043
  227MOL0     H30628   9.616   1.520   8.753  0.4108 -0.6380 -0.4944
  227MOL0     H30629   9.539   1.811   9.295 -0.2763  1.2409 -1.0418
  227MOL0     H30630   9.377   1.793   9.477  1.7652 -0.3524 -0.6991
  227MOL0     H30631   7.422   1.748   9.145 -1.3628 -0.5440 -2.6371
  227MOL0     H30632   7.224   1.837   9.260  0.8102  0.7015  2.1049
  227MOL0     H30633   7.067   2.179   9.521 -0.1314  2.4241  0.4150
  227MOL0     H30634   6.885   2.235   9.662  3.7732  2.3575 -0.5197
  227MOL0     H30635   6.470   2.255   9.505  1.2476 -0.9456 -0.6567
  227MOL0     H30636   6.458   2.316   9.664  0.5774  2.1280  1.0620
  227MOL0     H30637   6.437   2.460   9.415  1.5164 -3.5201 -0.2730
  227MOL0     H30638   6.597   2.502   9.475 -0.8474  0.9243 -0.1265
  227MOL0     H30639   6.482   2.670   9.589  0.1232  0.1215  1.8964
  227MOL0     H30640   6.450   2.554   9.704 -3.9740  1.3110  0.7285
  227MOL0     H30641   6.252   2.662   9.631  1.2597  0.2660  0.2666
  227MOL0     H30642   6.240   2.482   9.638 -1.1746 -1.7709 -2.6778
  227MOL0     H30643   6.132   2.492   9.249  0.4241  0.5628  0.3424
  227MOL0     H30644   6.621   2.286   9.343 -0.0375  0.1370  0.6270
  227MOL0     H30645   6.814   2.218   9.176  3.2859  4.9408 -0.5939
  228MOL0     O30646   1.371   9.037   6.458 -0.2105 -0.8892 -0.1517
  228MOL0     C30647   1.436   8.935   6.483  0.3343 -0.2964 -1.4453
  228MOL0     O30648   1.567   8.925   6.505 -0.5183  0.8035 -0.2969
  228MOL0     C30649   1.651   9.023   6.457 -0.5351 -0.4744 -0.6390
  228MOL0     C30650   1.670   9.144   6.520 -0.5994  0.0985  0.1405
  228MOL0     C30651   1.770   9.233   6.474 -0.0864  0.1635  0.3832
  228MOL0     C30652   1.851   9.197   6.363  0.5466  0.8573 -0.2848
  228MOL0     O30653   1.939   9.293   6.328 -0.0002 -0.2965  0.3974
  228MOL0     C30654   2.039   9.272   6.222  0.8399  0.2716 -0.3814
  228MOL0     C30655   2.140   9.371   6.220 -0.6447  0.1205  1.0213
  228MOL0     C30656   2.222   9.391   6.342  0.2360 -0.0098  0.7692
  228MOL0     C30657   2.287   9.261   6.397  0.3490 -0.3197 -0.6387
  228MOL0     C30658   2.384   9.281   6.513  0.1416 -0.2422 -0.4577
  228MOL0     C30659   2.305   9.339   6.630  0.7224 -0.3210  0.0841
  228MOL0     C30660   2.351   9.482   6.676  0.3771 -0.5925 -0.0807
  228MOL0     C30661   2.499   9.504   6.720 -0.4631 -0.4768  0.1977
  228MOL0     N30662   2.552   9.430   6.834  0.8186  0.2043  0.0233
  228MOL0     C30663   2.610   9.308   6.839 -0.0217 -0.2991  0.0954
  228MOL0     C30664   2.623   9.279   6.970 -0.0290 -0.4893  0.1612
  228MOL0     C30665   2.706   9.167   7.034 -0.0194  0.1258  0.1565
  228MOL0     C30666   2.608   9.071   7.107 -0.4738  0.4491  0.4531
  228MOL0     C30667   2.504   9.017   7.005 -0.2246 -0.0255 -0.5146
  228MOL0     C30668   2.410   8.913   7.085  0.7112  0.2970 -0.6008
  228MOL0     O30669   2.352   8.823   6.987  0.5462 -0.2957  0.7404
  228MOL0     C30670   2.260   8.736   7.031  0.4653 -0.1846  1.1954
  228MOL0     C30671   2.202   8.654   6.926  0.0079 -0.0908  0.6386
  228MOL0     C30672   2.097   8.563   6.954 -0.0232 -0.5431 -0.5359
  228MOL0     C30673   2.024   8.494   6.848  0.1965  0.5981  0.5903
  228MOL0     C30674   2.062   8.539   7.091  0.0604 -0.5451  0.3895
  228MOL0     C30675   1.968   8.433   7.134  0.1447 -0.0866  0.0565
  228MOL0     O30676   1.868   8.367   7.053  0.5855 -0.1844  0.2265
  228MOL0     C30677   1.763   8.306   7.115  0.0141 -0.6718  1.0972
  228MOL0     C30678   1.740   8.168   7.103  0.4229 -0.0723 -0.6301
  228MOL0     C30679   1.615   8.123   7.137 -0.6806  0.9299  0.2452
  228MOL0     C30680   1.527   8.207   7.206 -0.6733  0.8413 -0.3564
  228MOL0     O30681   1.400   8.166   7.248  0.2801  0.6516 -0.8784
  228MOL0     C30682   1.371   8.031   7.223  0.7780 -0.1758  1.3465
  228MOL0     C30683   1.233   8.003   7.282  0.2960  0.2549 -1.2127
  228MOL0     C30684   1.126   8.113   7.244  0.5359 -0.3109  0.4325
  228MOL0     C30685   0.994   8.060   7.241  1.0256 -0.2444 -0.3686
  228MOL0     C30686   0.898   8.174   7.202  1.1606 -0.7143 -0.0053
  228MOL0     C30687   0.778   8.112   7.135  0.6559 -0.9283 -0.1808
  228MOL0     C30688   0.685   8.229   7.101 -0.3709  0.1898  0.0092
  228MOL0     C30689   0.547   8.198   7.064  0.4161  0.8040 -0.4290
  228MOL0    Cl30690   0.531   8.074   6.934  0.2211 -0.3052  0.2243
  228MOL0     C30691   1.555   8.336   7.235  0.2082 -1.7180  0.5235
  228MOL0     C30692   1.668   8.393   7.170  0.7270  0.7996 -0.2817
  228MOL0     O30693   1.994   8.400   7.250  0.7926  0.8218 -0.5573
  228MOL0     C30694   2.123   8.627   7.183 -0.0028 -0.0025 -0.8003
  228MOL0     C30695   2.220   8.722   7.162  0.1415  1.0415  0.7205
  228MOL0     N30696   2.572   9.392   7.031 -1.8471 -0.2974 -0.3061
  228MOL0     N30697   2.525   9.477   6.958  0.5649 -0.1888 -0.2423
  228MOL0     C30698   1.821   9.076   6.300 -0.5862  0.0214 -0.2328
  228MOL0     C30699   1.717   8.996   6.339  0.3727  0.3275 -0.2270
  228MOL0     C30700   1.348   8.812   6.504 -0.9493 -1.6450  0.0894
  228MOL0     C30701   1.213   8.813   6.541  0.6964  0.0897  0.8835
  228MOL0     C30702   1.141   8.688   6.555  0.0235 -0.9900  0.4038
  228MOL0     C30703   1.213   8.561   6.527  0.1145 -0.3306 -0.1764
  228MOL0     O30704   1.148   8.441   6.534  0.6346  0.4069 -0.4734
  228MOL0     C30705   1.206   8.317   6.487 -0.4290 -0.3660 -0.3375
  228MOL0     C30706   1.101   8.215   6.455 -0.2714 -0.8227 -0.5237
  228MOL0     C30707   0.990   8.266   6.352 -0.0318 -0.3926 -0.5425
  228MOL0     C30708   0.902   8.145   6.310  0.8543 -0.2238  0.2352
  228MOL0     C30709   0.811   8.197   6.196 -0.5607  0.1794  0.0286
  228MOL0     C30710   0.740   8.249   6.114 -0.2594 -0.4792 -0.5976
  228MOL0     C30711   1.353   8.568   6.495 -0.3816 -0.0966  0.0551
  228MOL0     C30712   1.409   8.690   6.483 -0.7017 -0.2568  1.2599
  228MOL0     H30713   1.614   9.180   6.606  0.2865  1.8095  0.0389
  228MOL0     H30714   1.806   9.323   6.522  1.1810  0.0150 -0.2594
  228MOL0     H30715   2.090   9.176   6.235  0.7612  0.4379  1.3477
  228MOL0     H30716   1.983   9.272   6.128 -0.7321  0.6915  0.5077
  228MOL0     H30717   2.219   9.331   6.155 -0.1987  0.7254  1.1843
  228MOL0     H30718   2.116   9.469   6.178  1.7012  0.3210 -0.0571
  228MOL0     H30719   2.310   9.453   6.324 -0.1631  1.4509  3.3455
  228MOL0     H30720   2.154   9.435   6.415 -1.5013  1.8596 -1.8083
  228MOL0     H30721   2.207   9.191   6.424  0.1660 -0.0234 -0.4013
  228MOL0     H30722   2.354   9.227   6.318  1.7167  0.9686 -0.0830
  228MOL0     H30723   2.436   9.185   6.526  1.8669  0.5590 -1.1216
  228MOL0     H30724   2.468   9.344   6.482  0.5945 -0.6330 -0.0537
  228MOL0     H30725   2.196   9.336   6.620  0.7275  0.6646 -0.3141
  228MOL0     H30726   2.340   9.290   6.722  0.1473  3.9141  2.8674
  228MOL0     H30727   2.323   9.552   6.597 -2.9016 -0.5940  0.9534
  228MOL0     H30728   2.287   9.508   6.760  0.7493 -1.0824  0.3631
  228MOL0     H30729   2.514   9.612   6.732  1.0010 -0.6196 -0.2519
  228MOL0     H30730   2.562   9.467   6.640 -1.6661  0.9938 -1.5172
  228MOL0     H30731   2.646   9.244   6.759  0.1885  0.0049 -0.0538
  228MOL0     H30732   2.771   9.116   6.962 -1.4520 -6.0719  2.5992
  228MOL0     H30733   2.778   9.201   7.109 -1.1636 -0.7028  1.7184
  228MOL0     H30734   2.560   9.126   7.188 -5.4054 -1.8803 -0.5476
  228MOL0     H30735   2.666   8.993   7.157  1.1723 -0.1444 -2.1259
  228MOL0     H30736   2.555   8.962   6.926  1.2593  1.0762 -0.3700
  228MOL0     H30737   2.439   9.091   6.958  3.3331  3.9575  0.2057
  228MOL0     H30738   2.336   8.964   7.147  1.5792 -1.7199  2.2746
  228MOL0     H30739   2.470   8.858   7.157 -0.5001  2.2543  2.0796
  228MOL0     H30740   2.235   8.670   6.823  1.5754 -1.2474  0.9176
  228MOL0     H30741   2.043   8.386   6.850 -3.3756 -0.1637  1.9573
  228MOL0     H30742   1.916   8.509   6.855  0.2959  0.8754  1.6627
  228MOL0     H30743   2.040   8.537   6.749 -0.2072  4.1901  1.9467
  228MOL0     H30744   1.820   8.103   7.067  2.1963  0.5000  1.9802
  228MOL0     H30745   1.591   8.021   7.110  2.7583  0.1431 -0.3304
  228MOL0     H30746   1.373   8.011   7.115 -4.1221 -0.9915  1.2088
  228MOL0     H30747   1.444   7.964   7.268  1.0048  0.8055  2.4848
  228MOL0     H30748   1.199   7.905   7.248 -0.1582 -0.8484  2.0794
  228MOL0     H30749   1.238   8.016   7.390 -1.1414  3.3176 -1.4032
  228MOL0     H30750   1.155   8.145   7.144  1.3095 -0.1687  0.6924
  228MOL0     H30751   1.133   8.194   7.317  1.7461 -0.6358  0.7076
  228MOL0     H30752   0.984   7.978   7.170  0.4481  0.1860 -0.7989
  228MOL0     H30753   0.965   8.019   7.338 -1.2789  2.7662  0.3801
  228MOL0     H30754   0.945   8.247   7.135  0.2964 -1.6808 -1.7706
  228MOL0     H30755   0.867   8.225   7.293  0.8981  1.8974 -1.4597
  228MOL0     H30756   0.807   8.066   7.041  0.0025 -1.0084 -0.3449
  228MOL0     H30757   0.725   8.042   7.199 -0.1223  2.0613  2.7762
  228MOL0     H30758   0.733   8.272   7.013  1.4643 -0.4559  0.6414
  228MOL0     H30759   0.681   8.308   7.177 -0.9115  0.2698 -0.0980
  228MOL0     H30760   0.498   8.288   7.024 -1.3947  1.0314  2.0999
  228MOL0     H30761   0.497   8.180   7.159 -0.5229 -0.7530 -1.1777
  228MOL0     H30762   1.482   8.392   7.293  2.3404  0.9357  0.8754
  228MOL0     H30763   1.682   8.499   7.189 -2.3569  1.1414  0.7034
  228MOL0     H30764   2.101   8.609   7.288 -0.3344  3.2202 -0.2107
  228MOL0     H30765   2.274   8.764   7.246 -2.4902  0.9470  2.5533
  228MOL0     H30766   1.875   9.059   6.207 -0.5492 -0.1543 -0.1802
  228MOL0     H30767   1.694   8.907   6.281  2.4946 -0.7390  0.4662
  228MOL0     H30768   1.158   8.904   6.558  0.9821  0.5858 -0.6709
  228MOL0     H30769   1.037   8.678   6.586  0.2270  2.2560  2.6935
  228MOL0     H30770   1.262   8.329   6.394 -0.8285  1.6198 -0.3708
  228MOL0     H30771   1.275   8.277   6.562 -0.4481  1.7356  0.8747
  228MOL0     H30772   1.048   8.192   6.548  3.6125 -1.7253  1.6699
  228MOL0     H30773   1.161   8.129   6.423  0.5693 -0.4631  0.0522
  228MOL0     H30774   1.030   8.325   6.268 -0.4780  1.5787  0.5517
  228MOL0     H30775   0.917   8.332   6.400 -1.1499 -0.9510 -1.4460
  228MOL0     H30776   0.837   8.123   6.395 -0.1187  2.4138  0.2597
  228MOL0     H30777   0.959   8.058   6.273 -0.7911 -0.1208 -2.8967
  228MOL0     H30778   0.666   8.281   6.044 -1.7286  0.3327  1.2333
  228MOL0     H30779   1.423   8.487   6.477  3.1601  2.6524  0.2169
  228MOL0     H30780   1.516   8.697   6.467 -0.7641 -1.0044  0.4676
  229MOL0     O30781   0.952  11.169   1.045 -0.0983 -0.3119 -0.6311
  229MOL0     C30782   0.889  11.123   0.946 -0.4291 -1.0567 -0.3845
  229MOL0     O30783   0.917  11.006   0.877 -0.2777  0.4226 -0.1212
  229MOL0     C30784   1.036  10.932   0.908  0.9920 -0.2620 -0.6054
  229MOL0     C30785   1.151  10.963   0.838  0.8096  0.6024  0.2090
  229MOL0     C30786   1.268  10.902   0.870  0.2246  1.4813  0.4734
  229MOL0     C30787   1.272  10.802   0.960  0.0733 -0.6688 -1.2922
  229MOL0     O30788   1.387  10.733   0.987  0.1911  0.2951  0.7272
  229MOL0     C30789   1.526  10.794   0.961  1.0002 -0.4034  0.1118
  229MOL0     C30790   1.634  10.698   0.992  0.1365  0.3382  0.0926
  229MOL0     C30791   1.651  10.631   1.118 -0.9184  1.5192  0.0535
  229MOL0     C30792   1.657  10.477   1.102 -0.4324  0.0930 -0.4795
  229MOL0     C30793   1.733  10.422   1.219 -0.4983 -0.0696  0.0105
  229MOL0     C30794   1.784  10.274   1.219  0.7704 -0.1357 -0.2715
  229MOL0     C30795   1.838  10.235   1.361 -0.0419  0.4922 -0.1753
  229MOL0     C30796   1.947  10.329   1.406 -0.2717  0.0110 -0.4330
  229MOL0     N30797   2.019  10.277   1.529  0.6454 -0.1469  0.4620
  229MOL0     C30798   1.983  10.169   1.605 -0.4810 -0.4468  0.5539
  229MOL0     C30799   2.081  10.153   1.692 -0.7404 -0.2621 -0.1087
  229MOL0     C30800   2.107  10.044   1.793  0.9263  0.5176  0.5670
  229MOL0     C30801   2.009   9.923   1.760 -0.5458 -0.9866 -0.2746
  229MOL0     C30802   2.005   9.824   1.886  0.8054 -0.5133 -0.0152
  229MOL0     C30803   2.130   9.751   1.889 -0.2109 -1.0411  0.5682
  229MOL0     O30804   2.131   9.670   2.005 -0.1839 -0.2628 -0.2584
  229MOL0     C30805   2.250   9.603   2.047  0.2821 -0.2112  0.8480
  229MOL0     C30806   2.251   9.554   2.173 -0.2711  0.9910  0.4710
  229MOL0     C30807   2.348   9.468   2.227 -1.1380 -0.1024 -0.2873
  229MOL0     C30808   2.335   9.409   2.361  1.0761 -0.1098 -0.3200
  229MOL0     C30809   2.468   9.456   2.147  0.1648  0.0362 -1.2040
  229MOL0     C30810   2.597   9.374   2.185 -0.1530 -0.4550 -0.0484
  229MOL0     O30811   2.602   9.317   2.311 -0.4470  0.1576 -0.3920
  229MOL0     C30812   2.637   9.181   2.331 -0.6542  0.6373 -0.6507
  229MOL0     C30813   2.644   9.135   2.464 -0.6692 -0.5058 -0.7567
  229MOL0     C30814   2.668   8.998   2.487 -0.4117 -0.2854 -0.1238
  229MOL0     C30815   2.693   8.915   2.384 -0.2954 -0.7239 -0.1139
  229MOL0     O30816   2.734   8.787   2.401  0.3494 -0.4391  0.4722
  229MOL0     C30817   2.803   8.764   2.520  0.4833  0.7453 -0.8028
  229MOL0     C30818   2.887   8.628   2.507  0.1937 -0.0645  0.1516
  229MOL0     C30819   3.000   8.650   2.415  0.2633 -0.3034  0.2792
  229MOL0     C30820   3.119   8.557   2.436  0.5780 -0.3962 -0.0390
  229MOL0     C30821   3.229   8.582   2.328  0.1687 -0.0482  0.1750
  229MOL0     C30822   3.327   8.699   2.368 -0.0118  0.5982  0.5791
  229MOL0     C30823   3.459   8.695   2.283 -0.3584 -0.9277 -0.0206
  229MOL0     C30824   3.542   8.564   2.326  0.8170 -0.3002  0.1139
  229MOL0    Cl30825   3.698   8.572   2.224 -0.0551  0.7081 -0.4144
  229MOL0     C30826   2.693   8.961   2.254 -0.3660 -0.4174  1.2203
  229MOL0     C30827   2.664   9.091   2.227  0.2447  0.8841  0.2158
  229MOL0     O30828   2.690   9.373   2.100  0.0639 -0.6552  0.4692
  229MOL0     C30829   2.475   9.520   2.024  0.8311 -0.4615  0.2348
  229MOL0     C30830   2.358   9.581   1.967 -0.2517 -0.6582 -0.2965
  229MOL0     N30831   2.174  10.256   1.669  0.0344  0.6445 -0.2008
  229MOL0     N30832   2.133  10.326   1.577 -0.2084  0.1347  0.4341
  229MOL0     C30833   1.160  10.764   1.034  0.4737 -0.1506  0.7043
  229MOL0     C30834   1.037  10.834   1.010  0.1132  0.0767  0.2069
  229MOL0     C30835   0.790  11.214   0.892  0.0681 -0.0479 -0.1283
  229MOL0     C30836   0.731  11.186   0.773 -0.3402 -1.0630 -0.8706
  229MOL0     C30837   0.635  11.267   0.713  0.3466 -0.7768 -0.2837
  229MOL0     C30838   0.587  11.384   0.776  0.0702 -0.8232  1.6619
  229MOL0     O30839   0.480  11.459   0.735 -0.1391  0.7685  0.1229
  229MOL0     C30840   0.459  11.587   0.801 -0.3839  0.3826  0.6306
  229MOL0     C30841   0.359  11.677   0.734  0.1845 -0.0310  0.4265
  229MOL0     C30842   0.285  11.752   0.844 -0.3939  0.1392 -0.7086
  229MOL0     C30843   0.181  11.843   0.783 -0.4350  0.1785  0.7275
  229MOL0     C30844   0.244  11.963   0.737  0.0122  0.0827 -0.4768
  229MOL0     C30845   0.282  12.079   0.710  0.7852  0.5556 -0.2303
  229MOL0     C30846   0.661  11.418   0.898 -0.1070  0.1121  0.2812
  229MOL0     C30847   0.750  11.328   0.960  0.3034 -0.5222  0.2378
  229MOL0     H30848   1.150  11.033   0.755 -0.3170 -1.3812 -1.5326
  229MOL0     H30849   1.352  10.946   0.817  1.2100 -0.8397 -0.0057
  229MOL0     H30850   1.542  10.832   0.860 -2.2426  4.2721  1.0612
  229MOL0     H30851   1.538  10.879   1.028 -0.0864 -0.1264 -0.0403
  229MOL0     H30852   1.633  10.621   0.915  4.1986 -1.1416  1.3161
  229MOL0     H30853   1.726  10.752   0.969 -1.9009  3.1176 -2.4419
  229MOL0     H30854   1.737  10.664   1.177 -0.1500 -1.9668  1.0697
  229MOL0     H30855   1.565  10.654   1.183  0.5759  0.1334  2.6941
  229MOL0     H30856   1.563  10.420   1.104 -2.3217  2.9418 -1.3443
  229MOL0     H30857   1.702  10.449   1.007  2.5140  1.1530  0.4935
  229MOL0     H30858   1.828  10.475   1.230  0.6126 -2.4638  4.0304
  229MOL0     H30859   1.674  10.440   1.309 -0.6170  0.9937 -0.2706
  229MOL0     H30860   1.702  10.206   1.194  0.3396  0.3763 -0.2733
  229MOL0     H30861   1.864  10.262   1.146  1.9388 -0.5200  1.0361
  229MOL0     H30862   1.758  10.239   1.436  1.9065  2.4593  1.9731
  229MOL0     H30863   1.882  10.137   1.341 -0.4203 -0.4144  2.9136
  229MOL0     H30864   1.902  10.426   1.429 -0.9687 -0.0778 -1.3822
  229MOL0     H30865   2.019  10.353   1.327  2.9105  2.3261  2.8547
  229MOL0     H30866   1.897  10.104   1.591 -1.0919  0.2341  1.0930
  229MOL0     H30867   2.215  10.027   1.796  0.5971 -1.7729  1.8896
  229MOL0     H30868   2.080  10.093   1.887  2.1341  0.8827  0.7436
  229MOL0     H30869   2.041   9.854   1.682 -1.8597 -0.1024 -1.6635
  229MOL0     H30870   1.905   9.952   1.741  0.1382  1.9650  0.0257
  229MOL0     H30871   1.921   9.754   1.878 -0.2513  0.3826  2.2696
  229MOL0     H30872   2.002   9.868   1.986  0.1839 -1.0353  0.2018
  229MOL0     H30873   2.211   9.822   1.907 -2.3757  1.4025  1.2891
  229MOL0     H30874   2.144   9.693   1.798  1.3883  0.7473 -0.3917
  229MOL0     H30875   2.164   9.586   2.228  0.9873  2.3252  1.7763
  229MOL0     H30876   2.307   9.304   2.352 -2.0353  0.6242 -0.2718
  229MOL0     H30877   2.418   9.432   2.429 -0.0611  0.6880  0.8406
  229MOL0     H30878   2.248   9.458   2.405  0.7101 -2.8740  2.3476
  229MOL0     H30879   2.632   9.212   2.539  1.4949 -1.5168  0.7236
  229MOL0     H30880   2.686   8.965   2.589  0.1657  1.8688  0.5307
  229MOL0     H30881   2.857   8.851   2.561 -3.1108  2.5420  0.6047
  229MOL0     H30882   2.730   8.739   2.597  2.1452 -0.8540  0.3257
  229MOL0     H30883   2.935   8.608   2.604  1.1074  1.8538  0.1383
  229MOL0     H30884   2.820   8.545   2.481 -1.0330  1.2941 -1.2176
  229MOL0     H30885   3.036   8.751   2.436 -0.9584  0.6022 -1.6142
  229MOL0     H30886   2.961   8.652   2.313  0.5775  0.0534  0.1643
  229MOL0     H30887   3.145   8.566   2.541 -1.2425 -0.7314  0.4742
  229MOL0     H30888   3.083   8.453   2.429  0.9878 -0.5846  0.6129
  229MOL0     H30889   3.186   8.605   2.229  0.9728  0.0135 -0.1689
  229MOL0     H30890   3.286   8.489   2.338  0.9195  0.4273  0.3858
  229MOL0     H30891   3.290   8.801   2.352 -0.5383  0.2082 -0.8384
  229MOL0     H30892   3.348   8.683   2.475 -0.4742  1.8484  0.8777
  229MOL0     H30893   3.515   8.787   2.305 -0.0087 -0.9950 -0.6120
  229MOL0     H30894   3.437   8.698   2.176  0.2326 -0.4163 -0.1381
  229MOL0     H30895   3.491   8.469   2.308  1.8612 -0.6976 -0.8185
  229MOL0     H30896   3.560   8.562   2.434  0.4500 -0.5347  0.1748
  229MOL0     H30897   2.712   8.882   2.182 -3.7182  0.0907 -0.4290
  229MOL0     H30898   2.659   9.126   2.124  2.9098  2.6672  0.5849
  229MOL0     H30899   2.566   9.526   1.964 -0.0319  0.7085 -1.0113
  229MOL0     H30900   2.347   9.620   1.867 -1.4625  0.6015  0.2946
  229MOL0     H30901   1.156  10.682   1.105 -4.8971 -1.0612 -0.2101
  229MOL0     H30902   0.939  10.828   1.056 -0.3906  1.5937 -0.6006
  229MOL0     H30903   0.771  11.099   0.723  1.4244 -0.0842 -1.2604
  229MOL0     H30904   0.594  11.254   0.614 -1.6590  1.3998  0.1652
  229MOL0     H30905   0.431  11.562   0.904  3.5604 -0.2838  1.6974
  229MOL0     H30906   0.557  11.635   0.801  0.2251 -0.8097  1.1021
  229MOL0     H30907   0.291  11.626   0.666  0.5571  0.9044 -0.6825
  229MOL0     H30908   0.410  11.744   0.664 -0.7803 -0.2613 -0.5126
  229MOL0     H30909   0.348  11.794   0.923 -3.6507 -1.0387  2.8786
  229MOL0     H30910   0.229  11.676   0.899 -2.6153  0.8049 -1.9284
  229MOL0     H30911   0.096  11.867   0.847  0.1637 -1.4481  2.2203
  229MOL0     H30912   0.130  11.793   0.700  0.5437 -1.2702  0.9578
  229MOL0     H30913   0.307  12.178   0.678  0.2184  0.7841  0.0245
  229MOL0     H30914   0.655  11.518   0.941  4.7949  0.5446  0.5356
  229MOL0     H30915   0.791  11.355   1.057 -0.2385 -1.7732  0.8311
  230MOL0     O30916   5.576   7.805   4.426  0.5852  0.0509 -0.6245
  230MOL0     C30917   5.553   7.829   4.308  1.2936  0.0007 -0.1704
  230MOL0     O30918   5.534   7.951   4.259 -0.3903 -0.2527 -0.3566
  230MOL0     C30919   5.581   8.061   4.330 -0.0213  0.1521 -0.1230
  230MOL0     C30920   5.702   8.059   4.403 -0.0605  0.5352 -0.2972
  230MOL0     C30921   5.763   8.180   4.454 -0.5688  0.7890 -0.1781
  230MOL0     C30922   5.708   8.304   4.423 -1.1768  0.6386  0.1727
  230MOL0     O30923   5.769   8.417   4.475 -0.0569  0.8354 -0.2711
  230MOL0     C30924   5.817   8.403   4.608 -0.0827  0.2023  0.5876
  230MOL0     C30925   5.843   8.545   4.672  0.2804  0.4279  0.5834
  230MOL0     C30926   5.950   8.631   4.595  0.0561  0.2646 -0.4560
  230MOL0     C30927   5.953   8.777   4.646  0.0606 -1.0348  0.2963
  230MOL0     C30928   6.027   8.866   4.551  0.4116  0.3767  0.0553
  230MOL0     C30929   6.169   8.818   4.535 -0.0295  0.3462  0.4276
  230MOL0     C30930   6.256   8.929   4.470 -0.8384  0.4450 -0.0057
  230MOL0     C30931   6.269   9.046   4.557  0.2708 -0.2666 -0.4114
  230MOL0     N30932   6.340   9.155   4.504 -1.0837  0.2071  0.4477
  230MOL0     C30933   6.344   9.215   4.384 -0.0038 -0.8626  0.6367
  230MOL0     C30934   6.408   9.336   4.404  0.1953 -0.3294 -0.3843
  230MOL0     C30935   6.453   9.438   4.297 -0.1916  0.0409 -0.4050
  230MOL0     C30936   6.326   9.516   4.247  0.6686  0.7285 -0.1722
  230MOL0     C30937   6.355   9.543   4.092 -0.3630  0.2126 -0.7238
  230MOL0     C30938   6.237   9.611   4.023 -0.6487 -0.0149 -1.1821
  230MOL0     O30939   6.257   9.647   3.889 -0.2649  0.2473  1.0614
  230MOL0     C30940   6.332   9.760   3.863  0.8834 -0.5795 -0.5117
  230MOL0     C30941   6.354   9.802   3.733 -0.1909  0.0874  0.7501
  230MOL0     C30942   6.432   9.910   3.695 -0.2197 -0.5517  0.3812
  230MOL0     C30943   6.453   9.941   3.546  0.0818  0.4653 -0.3404
  230MOL0     C30944   6.481  10.001   3.792  0.1933 -0.0875  0.0862
  230MOL0     C30945   6.571  10.128   3.766  0.9864 -0.1089  0.0870
  230MOL0     O30946   6.556  10.245   3.838  0.4089  0.5460  0.7705
  230MOL0     C30947   6.625  10.355   3.787  0.7593  0.0866 -0.2009
  230MOL0     C30948   6.762  10.369   3.812  0.6376 -0.4130  0.9571
  230MOL0     C30949   6.830  10.481   3.763  0.1336 -0.1349  0.1754
  230MOL0     C30950   6.775  10.585   3.703  0.3061 -0.0978 -0.3120
  230MOL0     O30951   6.847  10.697   3.669 -0.4073 -0.2215 -0.1244
  230MOL0     C30952   6.769  10.809   3.622  0.6813  0.5311 -0.3620
  230MOL0     C30953   6.850  10.938   3.605 -0.0780  0.6680  0.0208
  230MOL0     C30954   6.767  11.064   3.576  0.1571 -0.0517  1.1067
  230MOL0     C30955   6.844  11.199   3.600 -0.1996  0.2887 -0.0050
  230MOL0     C30956   6.810  11.303   3.491 -0.2641 -0.4316  0.1588
  230MOL0     C30957   6.882  11.431   3.509  1.0224 -0.8178 -0.2544
  230MOL0     C30958   6.825  11.546   3.415  0.2392  1.2595  0.0073
  230MOL0     C30959   6.882  11.537   3.275 -0.1360  0.0007 -0.5053
  230MOL0    Cl30960   6.808  11.681   3.195  0.1540 -0.2957 -0.2199
  230MOL0     C30961   6.634  10.566   3.670 -0.1938 -0.4448  0.2041
  230MOL0     C30962   6.560  10.446   3.709 -0.0052 -0.8733  0.4427
  230MOL0     O30963   6.649  10.129   3.671  0.1900  0.0872 -0.6365
  230MOL0     C30964   6.446   9.969   3.922 -0.4137  0.3242  0.3845
  230MOL0     C30965   6.367   9.861   3.955 -0.0837 -0.6287 -0.1014
  230MOL0     N30966   6.445   9.348   4.536  0.4800 -0.5348  0.3668
  230MOL0     N30967   6.407   9.241   4.589  0.1450 -0.0003  0.1790
  230MOL0     C30968   5.601   8.310   4.344  0.2687 -0.7988  0.0462
  230MOL0     C30969   5.545   8.195   4.288 -0.3022  0.1703  0.4693
  230MOL0     C30970   5.545   7.722   4.203 -1.0320  0.8760 -0.0613
  230MOL0     C30971   5.466   7.740   4.087  0.3861 -1.4349 -1.0211
  230MOL0     C30972   5.441   7.629   4.003  0.6539  0.4666  0.2786
  230MOL0     C30973   5.499   7.503   4.022  0.6753 -0.6784 -0.6316
  230MOL0     O30974   5.462   7.400   3.937 -0.1403 -0.9160 -0.0120
  230MOL0     C30975   5.491   7.261   3.971 -0.1606 -0.9703 -0.9903
  230MOL0     C30976   5.466   7.169   3.852  0.7040 -0.1262 -0.1636
  230MOL0     C30977   5.526   7.029   3.855 -0.6998  0.7920  0.1840
  230MOL0     C30978   5.493   6.949   3.983 -0.6578  0.7030 -0.8005
  230MOL0     C30979   5.351   6.930   4.010  0.5325  0.5152  0.4403
  230MOL0     C30980   5.231   6.913   4.023  0.6459  0.0938  0.3965
  230MOL0     C30981   5.578   7.488   4.138  0.3319  1.4883  0.3113
  230MOL0     C30982   5.604   7.597   4.222  0.5470  0.2161 -0.1625
  230MOL0     H30983   5.759   7.968   4.419 -0.8438 -0.4963 -2.8012
  230MOL0     H30984   5.853   8.160   4.511 -1.2078  0.9861  0.9235
  230MOL0     H30985   5.739   8.347   4.662 -1.6347 -0.7578 -2.4167
  230MOL0     H30986   5.916   8.357   4.613  2.0904  3.8578 -2.7902
  230MOL0     H30987   5.751   8.600   4.690 -0.0981 -0.2225  0.6503
  230MOL0     H30988   5.880   8.520   4.772  3.1884  3.0939  0.3310
  230MOL0     H30989   6.048   8.585   4.611  0.5444  1.1838 -0.7294
  230MOL0     H30990   5.919   8.642   4.490 -0.6352 -1.3158 -0.4578
  230MOL0     H30991   5.849   8.810   4.652  0.3540  0.6581 -2.2236
  230MOL0     H30992   5.989   8.782   4.748  0.7552  2.7401 -0.0168
  230MOL0     H30993   5.963   8.882   4.465 -1.3680 -1.1226  1.0308
  230MOL0     H30994   6.032   8.964   4.601  1.8932  0.1788  0.3497
  230MOL0     H30995   6.208   8.792   4.634  4.3055 -0.6405 -1.2980
  230MOL0     H30996   6.176   8.731   4.469  1.0873 -0.1163  1.1292
  230MOL0     H30997   6.350   8.883   4.439 -0.2805  2.4643 -1.5429
  230MOL0     H30998   6.208   8.951   4.374  0.1350  0.9716 -0.3850
  230MOL0     H30999   6.305   9.022   4.657  1.4614 -2.1110 -1.2209
  230MOL0     H31000   6.174   9.098   4.567  1.7763  2.1963  2.9900
  230MOL0     H31001   6.315   9.170   4.290  0.0913  2.0964 -0.9559
  230MOL0     H31002   6.528   9.504   4.342 -2.1279  0.5204  2.4088
  230MOL0     H31003   6.518   9.384   4.227 -0.6338  0.1466 -0.9063
  230MOL0     H31004   6.319   9.613   4.297 -3.7575  2.3084 -3.2265
  230MOL0     H31005   6.239   9.452   4.258  1.9105 -0.5723  4.1423
  230MOL0     H31006   6.390   9.461   4.027 -1.1715  0.0262 -0.9368
  230MOL0     H31007   6.436   9.616   4.084 -1.3350  1.6940  1.8211
  230MOL0     H31008   6.191   9.695   4.076 -1.9652  0.9648 -3.7412
  230MOL0     H31009   6.160   9.534   4.018 -0.5091 -0.3705  1.0608
  230MOL0     H31010   6.312   9.746   3.650 -1.4222 -1.8806  2.5957
  230MOL0     H31011   6.467   9.850   3.488 -2.1852 -0.6128  0.6750
  230MOL0     H31012   6.361   9.976   3.498 -0.2186 -1.2255 -1.0356
  230MOL0     H31013   6.544   9.996   3.518  2.7801 -3.2515  0.4569
  230MOL0     H31014   6.801  10.290   3.876 -1.5505 -2.4017 -0.0042
  230MOL0     H31015   6.932  10.493   3.800  0.2723  1.8747 -0.7548
  230MOL0     H31016   6.726  10.804   3.522  0.3569  2.8834 -0.4009
  230MOL0     H31017   6.685  10.820   3.692 -0.2653 -2.0260 -0.9860
  230MOL0     H31018   6.901  10.955   3.701  1.8171  0.8683 -0.9813
  230MOL0     H31019   6.934  10.922   3.536  0.0641 -3.4749  0.9023
  230MOL0     H31020   6.683  11.079   3.643  1.3435 -0.7362  2.8230
  230MOL0     H31021   6.741  11.063   3.470 -1.9668 -1.4784  1.6047
  230MOL0     H31022   6.830  11.233   3.703  1.3890 -1.2162  0.7619
  230MOL0     H31023   6.949  11.168   3.596  0.3707  2.0847  0.2248
  230MOL0     H31024   6.703  11.315   3.475 -0.9531 -4.6380  0.4521
  230MOL0     H31025   6.843  11.252   3.399 -0.9287 -1.2639  0.3677
  230MOL0     H31026   6.848  11.457   3.609  1.7006 -2.2180  0.3683
  230MOL0     H31027   6.991  11.423   3.497  1.4958  0.7933  2.3221
  230MOL0     H31028   6.849  11.638   3.470 -0.9685  1.1077  0.8193
  230MOL0     H31029   6.717  11.531   3.405  0.6093 -2.6097  0.3498
  230MOL0     H31030   6.862  11.444   3.222  0.8688 -1.0699  0.9290
  230MOL0     H31031   6.991  11.542   3.282 -0.2824  0.9049  2.6381
  230MOL0     H31032   6.580  10.645   3.619 -0.1559 -1.4845 -1.5229
  230MOL0     H31033   6.453  10.437   3.696 -0.5985  2.2509  2.2154
  230MOL0     H31034   6.477  10.020   4.013  1.8543  0.0380 -0.1624
  230MOL0     H31035   6.327   9.858   4.056 -3.7795 -0.6326 -1.4157
  230MOL0     H31036   5.558   8.404   4.310  1.4798  0.5836  2.1271
  230MOL0     H31037   5.461   8.202   4.219  1.1428 -1.6614 -1.6244
  230MOL0     H31038   5.405   7.829   4.073  0.6795 -1.0875 -0.1284
  230MOL0     H31039   5.370   7.635   3.921  1.5934 -1.2447 -0.7058
  230MOL0     H31040   5.588   7.246   4.020 -1.1521 -0.5096  1.2095
  230MOL0     H31041   5.428   7.238   4.057  0.7097  0.9487  0.2272
  230MOL0     H31042   5.514   7.218   3.766 -1.6354  3.1452  0.1842
  230MOL0     H31043   5.359   7.151   3.841  0.7232 -0.9369  0.7851
  230MOL0     H31044   5.635   7.039   3.851 -0.4438 -0.7698  1.8702
  230MOL0     H31045   5.494   6.959   3.777 -0.9408 -0.1404  1.0904
  230MOL0     H31046   5.535   6.999   4.071 -0.5002 -1.5504  0.4746
  230MOL0     H31047   5.545   6.854   3.974  0.0836  1.0532 -0.3493
  230MOL0     H31048   5.127   6.889   4.030 -0.1151  2.8521 -0.0741
  230MOL0     H31049   5.636   7.400   4.166  1.0580  1.1607 -1.9847
  230MOL0     H31050   5.648   7.571   4.318 -3.0244  0.2257  1.6595
  231MOL0     O31051   6.487  10.806   4.561 -0.0615 -0.2178 -0.1688
  231MOL0     C31052   6.376  10.777   4.622 -0.2677 -0.1216  0.1448
  231MOL0     O31053   6.313  10.868   4.704 -0.7676 -0.4506  0.0386
  231MOL0     C31054   6.350  10.996   4.712  0.1454  0.5925 -0.2972
  231MOL0     C31055   6.361  11.073   4.600  0.1942 -0.0783  0.0030
  231MOL0     C31056   6.368  11.208   4.608 -0.1922 -0.3144  0.6301
  231MOL0     C31057   6.390  11.270   4.735  0.4589  0.0380 -0.0660
  231MOL0     O31058   6.412  11.410   4.748 -0.3938  0.4780 -0.0689
  231MOL0     C31059   6.372  11.498   4.653 -0.3089  0.2707  0.6388
  231MOL0     C31060   6.429  11.630   4.683  0.1198 -0.1484 -0.0780
  231MOL0     C31061   6.416  11.713   4.555 -1.4160 -0.3948 -0.2172
  231MOL0     C31062   6.456  11.865   4.581  0.1818  0.4095  0.1803
  231MOL0     C31063   6.415  11.940   4.452  0.0172  0.9492 -0.6667
  231MOL0     C31064   6.446  12.089   4.461 -0.7384 -0.4194  0.6739
  231MOL0     C31065   6.393  12.170   4.351  0.4507 -0.1681  0.2839
  231MOL0     C31066   6.372  12.314   4.393  0.4148 -0.1825 -0.2769
  231MOL0     N31067   6.327  12.392   4.272  0.8485  1.2598  0.2550
  231MOL0     C31068   6.389  12.408   4.153 -0.2096 -0.2974  0.0591
  231MOL0     C31069   6.311  12.467   4.057 -0.6721  0.5670 -0.1149
  231MOL0     C31070   6.351  12.492   3.914  0.7111  0.7442 -0.5629
  231MOL0     C31071   6.395  12.633   3.892  0.5755  0.4194 -0.6606
  231MOL0     C31072   6.393  12.655   3.737 -0.5882  0.6372  0.2642
  231MOL0     C31073   6.261  12.722   3.690  0.3878 -0.2545  0.5909
  231MOL0     O31074   6.247  12.720   3.545 -0.6383  0.4389 -0.3766
  231MOL0     C31075   6.158  12.803   3.487 -0.4625 -0.9589 -0.0876
  231MOL0     C31076   6.203  12.910   3.402  0.1021 -0.2518 -0.2832
  231MOL0     C31077   6.111  12.998   3.341  0.1421  0.2993  0.7012
  231MOL0     C31078   6.187  13.095   3.242  0.0448 -0.6024  0.3500
  231MOL0     C31079   5.966  12.981   3.364 -0.3209  0.7130 -0.4454
  231MOL0     C31080   5.861  13.065   3.296 -0.6548  0.8886 -0.0725
  231MOL0     O31081   5.732  13.034   3.323  0.0959  0.2842  0.8969
  231MOL0     C31082   5.639  13.078   3.236 -0.8167 -0.5260 -0.0579
  231MOL0     C31083   5.646  13.039   3.105 -0.0386  0.3881 -1.3933
  231MOL0     C31084   5.568  13.106   3.011  1.1228  0.4006 -0.1462
  231MOL0     C31085   5.475  13.205   3.056  0.7014 -0.1942 -0.0677
  231MOL0     O31086   5.393  13.265   2.956  0.0622  0.5110  0.0243
  231MOL0     C31087   5.270  13.330   2.990 -0.1885 -0.1690  0.7494
  231MOL0     C31088   5.197  13.406   2.875  0.7800 -0.0801  0.0542
  231MOL0     C31089   5.279  13.528   2.833  0.9773 -0.7308  1.4485
  231MOL0     C31090   5.419  13.503   2.757 -0.9906  0.9590 -0.2488
  231MOL0     C31091   5.405  13.453   2.617 -0.5190 -0.7143 -0.4079
  231MOL0     C31092   5.463  13.315   2.590 -0.4793  0.6708 -0.0279
  231MOL0     C31093   5.480  13.295   2.448  0.0723 -0.1381  0.7805
  231MOL0     C31094   5.375  13.223   2.378  0.6395 -0.8066  0.0100
  231MOL0    Cl31095   5.399  13.219   2.197  0.4153 -0.1957 -0.1107
  231MOL0     C31096   5.462  13.230   3.194 -1.4498  0.0735  0.0945
  231MOL0     C31097   5.552  13.172   3.277  0.4348  1.0007  0.8317
  231MOL0     O31098   5.910  13.153   3.224 -0.2030  0.1627 -0.1853
  231MOL0     C31099   5.928  12.871   3.444 -0.1457 -1.0278  0.5937
  231MOL0     C31100   6.023  12.781   3.499 -0.4820 -0.0214 -0.3682
  231MOL0     N31101   6.197  12.483   4.123  0.1016 -0.6639 -0.5145
  231MOL0     N31102   6.204  12.446   4.248 -0.9144  0.6147  0.4314
  231MOL0     C31103   6.391  11.188   4.842 -0.0432  0.1257 -0.4703
  231MOL0     C31104   6.361  11.051   4.834  0.1740 -0.2347 -0.0441
  231MOL0     C31105   6.329  10.638   4.606  0.3581  0.5978  0.1854
  231MOL0     C31106   6.198  10.614   4.627 -0.0737  0.3296 -0.5093
  231MOL0     C31107   6.142  10.494   4.586 -0.0870 -0.2676  0.0514
  231MOL0     C31108   6.214  10.393   4.533 -0.4400  0.4372  0.3628
  231MOL0     O31109   6.172  10.284   4.471  0.0767  0.9255 -0.3654
  231MOL0     C31110   6.039  10.272   4.435  0.4574 -0.2190 -0.0663
  231MOL0     C31111   5.978  10.170   4.532  1.0588 -0.6585  0.4305
  231MOL0     C31112   5.843  10.116   4.469  0.1317 -0.3683  0.0859
  231MOL0     C31113   5.752  10.070   4.582 -0.3964 -0.1414  0.0215
  231MOL0     C31114   5.637   9.990   4.545 -0.5593 -0.7993  0.2800
  231MOL0     C31115   5.541   9.924   4.505  0.6056  1.1355  0.1465
  231MOL0     C31116   6.354  10.415   4.524  0.3787 -0.3621 -0.2653
  231MOL0     C31117   6.413  10.537   4.567  0.7763  0.2229 -0.6284
  231MOL0     H31118   6.348  11.023   4.505  0.9045  2.1120 -1.3197
  231MOL0     H31119   6.361  11.260   4.513  1.5245 -0.5460  0.3409
  231MOL0     H31120   6.409  11.476   4.553 -0.5948  3.1249 -0.1975
  231MOL0     H31121   6.263  11.507   4.648 -0.2653  0.5454  0.0455
  231MOL0     H31122   6.376  11.676   4.766 -1.1042  0.7229 -1.3037
  231MOL0     H31123   6.537  11.629   4.702  0.5324  1.6748 -1.9991
  231MOL0     H31124   6.491  11.676   4.485 -0.8577  2.0166 -0.9987
  231MOL0     H31125   6.315  11.709   4.512 -1.2217 -1.7090 -0.5699
  231MOL0     H31126   6.403  11.917   4.662  1.7372  3.4467 -0.6165
  231MOL0     H31127   6.562  11.870   4.607  0.2176  0.9049 -0.0365
  231MOL0     H31128   6.476  11.901   4.370 -0.6215  0.8106 -1.0797
  231MOL0     H31129   6.307  11.933   4.439 -0.0109  1.2826 -0.6230
  231MOL0     H31130   6.418  12.140   4.553  2.0259  0.4022  1.1323
  231MOL0     H31131   6.554  12.101   4.453 -0.8649 -0.5222 -4.1894
  231MOL0     H31132   6.470  12.170   4.273  1.7824  2.8536  1.4494
  231MOL0     H31133   6.305  12.118   4.311  0.7226 -0.2637 -0.2011
  231MOL0     H31134   6.453  12.363   4.447 -0.6064  0.6883  0.5302
  231MOL0     H31135   6.288  12.323   4.463 -0.7844 -2.1880 -1.3473
  231MOL0     H31136   6.488  12.377   4.121 -0.4693 -0.0879 -0.9841
  231MOL0     H31137   6.425  12.422   3.875 -1.5682 -1.5218 -1.1251
  231MOL0     H31138   6.263  12.484   3.849  0.5621  0.4808 -0.3294
  231MOL0     H31139   6.495  12.650   3.933 -0.5524  2.2463  1.5693
  231MOL0     H31140   6.319  12.699   3.934  0.0651 -1.0594  0.8906
  231MOL0     H31141   6.417  12.562   3.685  0.3796  1.9269 -1.6852
  231MOL0     H31142   6.474  12.726   3.725  0.1783 -0.2840 -0.1399
  231MOL0     H31143   6.283  12.825   3.719  2.2549 -1.0770  2.3173
  231MOL0     H31144   6.170  12.682   3.736 -1.1463  1.6369 -0.6448
  231MOL0     H31145   6.306  12.905   3.368  0.1299 -3.3242 -0.0042
  231MOL0     H31146   6.180  13.202   3.266 -0.3531 -0.3265 -0.9253
  231MOL0     H31147   6.292  13.065   3.240 -0.1107 -1.1895  0.8298
  231MOL0     H31148   6.151  13.083   3.140  1.4541 -0.2920 -0.2168
  231MOL0     H31149   5.715  12.967   3.063 -1.0623 -0.6766 -1.3054
  231MOL0     H31150   5.585  13.084   2.907  0.9099 -2.8058  0.3853
  231MOL0     H31151   5.205  13.252   3.030  0.6652 -1.5359 -0.4250
  231MOL0     H31152   5.285  13.397   3.075 -1.0714 -1.0293  1.6124
  231MOL0     H31153   5.175  13.351   2.783 -0.0683  0.0839  0.1443
  231MOL0     H31154   5.096  13.426   2.913  1.0202  1.6976 -0.1404
  231MOL0     H31155   5.303  13.586   2.923  1.5240 -1.8254  2.0361
  231MOL0     H31156   5.206  13.573   2.766 -0.4065 -1.5851  2.3201
  231MOL0     H31157   5.470  13.600   2.747 -0.0003  0.7801  2.4236
  231MOL0     H31158   5.488  13.443   2.817  0.9168  1.4393 -1.8277
  231MOL0     H31159   5.438  13.523   2.540  1.0291 -2.9450 -1.8878
  231MOL0     H31160   5.298  13.444   2.596 -1.3945  0.8792  2.6991
  231MOL0     H31161   5.558  13.313   2.645 -0.4787  1.5078  0.0255
  231MOL0     H31162   5.402  13.233   2.628  0.4150 -0.8342 -1.6977
  231MOL0     H31163   5.566  13.229   2.432 -1.4016 -1.7612 -0.9812
  231MOL0     H31164   5.496  13.388   2.393 -0.4487 -0.3589  0.2519
  231MOL0     H31165   5.283  13.275   2.404  0.8801 -1.4170  2.3252
  231MOL0     H31166   5.362  13.120   2.414  1.3693 -0.8524  0.1555
  231MOL0     H31167   5.386  13.298   3.232  0.6673  2.1071  0.9382
  231MOL0     H31168   5.542  13.198   3.382  1.4717 -0.5760  1.3692
  231MOL0     H31169   5.826  12.845   3.468 -0.3557  1.8436  3.5407
  231MOL0     H31170   5.992  12.704   3.568 -0.0231  0.5258  0.4687
  231MOL0     H31171   6.410  11.229   4.940 -0.2336  2.6788 -1.4287
  231MOL0     H31172   6.346  10.987   4.920 -5.0028  1.9584  1.0359
  231MOL0     H31173   6.142  10.695   4.673  0.3017  1.2273 -1.5932
  231MOL0     H31174   6.034  10.488   4.597 -0.1797 -1.7611 -1.3794
  231MOL0     H31175   5.988  10.369   4.438  1.3606  0.2503  1.3352
  231MOL0     H31176   6.027  10.248   4.329  1.0767  4.6930 -1.5139
  231MOL0     H31177   5.974  10.209   4.634 -0.5689  1.0469 -0.2160
  231MOL0     H31178   6.036  10.078   4.541  0.8651 -0.6029  2.8606
  231MOL0     H31179   5.871  10.038   4.398  2.5663  0.0510  0.4888
  231MOL0     H31180   5.787  10.193   4.415  1.2225  1.9555  2.0788
  231MOL0     H31181   5.703  10.156   4.628 -2.7124 -1.3317 -0.0640
  231MOL0     H31182   5.813  10.011   4.652 -1.1001 -0.5638  0.2865
  231MOL0     H31183   5.457   9.862   4.482  0.4382 -0.1929  3.7197
  231MOL0     H31184   6.404  10.327   4.484  0.5323  0.4608 -2.0098
  231MOL0     H31185   6.519  10.548   4.547  1.0474  2.0465  1.4502
  232MOL0     O31186   6.056   1.913   5.018 -0.8653 -0.7838  0.4905
  232MOL0     C31187   6.044   2.014   5.089  0.0745 -0.2315  0.5444
  232MOL0     O31188   6.003   2.009   5.216 -0.0764 -0.0481 -0.3968
  232MOL0     C31189   6.006   1.898   5.293 -0.2083 -0.0514 -0.1837
  232MOL0     C31190   5.923   1.902   5.405 -0.2377  0.2874  0.5930
  232MOL0     C31191   5.932   1.794   5.498  0.0102  0.8653  0.1477
  232MOL0     C31192   6.007   1.680   5.464 -0.3928  0.4106 -0.5205
  232MOL0     O31193   6.021   1.588   5.559 -0.0391  0.7020 -0.6611
  232MOL0     C31194   5.942   1.469   5.524 -0.3303  0.2790  0.2901
  232MOL0     C31195   5.828   1.443   5.631 -0.3769 -0.4880 -0.0415
  232MOL0     C31196   5.872   1.453   5.786  0.4310 -0.1796  0.1225
  232MOL0     C31197   5.770   1.395   5.876 -0.6781 -0.1764  0.4713
  232MOL0     C31198   5.832   1.396   6.017  0.2163  0.9689 -0.6789
  232MOL0     C31199   5.932   1.283   6.047  0.2543  0.3660  0.3094
  232MOL0     C31200   6.004   1.314   6.185 -0.5482 -0.8731  0.0495
  232MOL0     C31201   6.156   1.277   6.200  0.1296 -0.6544 -0.5437
  232MOL0     N31202   6.180   1.135   6.160 -0.3807 -0.2627 -0.2245
  232MOL0     C31203   6.244   1.093   6.046  0.0217  0.0723 -0.0449
  232MOL0     C31204   6.190   0.976   6.018  0.8453 -0.1022  0.1855
  232MOL0     C31205   6.217   0.910   5.886 -0.0970  0.0153  0.2174
  232MOL0     C31206   6.355   0.829   5.899 -0.1986  0.6408 -0.4253
  232MOL0     C31207   6.364   0.728   5.779 -0.0947  0.7823  0.6636
  232MOL0     C31208   6.513   0.674   5.768  0.3917 -0.2171  0.1327
  232MOL0     O31209   6.543   0.610   5.893  0.7071 -0.2615 -0.2376
  232MOL0     C31210   6.670   0.575   5.920  0.3817 -0.6553 -0.3301
  232MOL0     C31211   6.767   0.568   5.825 -0.8052 -0.5898  0.5184
  232MOL0     C31212   6.891   0.506   5.867 -0.1646  0.0021  0.8051
  232MOL0     C31213   6.983   0.487   5.741  0.2062 -0.0658  0.2862
  232MOL0     C31214   6.916   0.464   6.002 -1.2030  0.6058 -0.5817
  232MOL0     C31215   7.040   0.396   6.050  0.1506 -0.1905  0.1099
  232MOL0     O31216   7.040   0.329   6.170  0.1157  0.5072 -0.1516
  232MOL0     C31217   7.157   0.299   6.230  0.9236  0.6429  0.6160
  232MOL0     C31218   7.221   0.402   6.298 -0.2031  0.1715  0.1124
  232MOL0     C31219   7.353   0.376   6.344 -0.6727 -0.7507 -0.5746
  232MOL0     C31220   7.407   0.251   6.337  0.4397 -0.1176  0.1628
  232MOL0     O31221   7.516   0.236   6.412  1.0118 -0.3797 -0.1095
  232MOL0     C31222   7.627   0.168   6.359 -0.5396  0.5280 -0.2958
  232MOL0     C31223   7.748   0.169   6.451  0.7784  0.2434 -1.7482
  232MOL0     C31224   7.825   0.300   6.440  0.2236 -0.2517  0.0384
  232MOL0     C31225   7.958   0.290   6.526  0.4043 -0.1393 -0.0856
  232MOL0     C31226   8.056   0.406   6.486  0.3627 -0.3726  0.7523
  232MOL0     C31227   8.139   0.447   6.605  0.2313 -0.2114 -0.1164
  232MOL0     C31228   8.209   0.584   6.606 -0.4583  0.9107 -0.0667
  232MOL0     C31229   8.318   0.597   6.718 -0.7126  0.2271 -0.2836
  232MOL0    Cl31230   8.439   0.468   6.729 -0.6453 -0.0881 -0.0175
  232MOL0     C31231   7.342   0.148   6.268 -0.7467 -0.2352 -0.0332
  232MOL0     C31232   7.220   0.170   6.214  0.3858  0.1951  0.5143
  232MOL0     O31233   7.140   0.408   5.976  0.2539  0.1187 -0.5093
  232MOL0     C31234   6.812   0.478   6.094 -0.2116 -0.7971  0.3647
  232MOL0     C31235   6.689   0.542   6.052 -0.2416  0.6387 -0.2047
  232MOL0     N31236   6.094   0.945   6.113  0.0903 -1.0220  0.0504
  232MOL0     N31237   6.089   1.041   6.196 -0.0588 -0.4502 -0.4144
  232MOL0     C31238   6.079   1.670   5.347 -0.3162 -0.1825  0.1695
  232MOL0     C31239   6.077   1.783   5.267 -0.7344  0.3787  1.0326
  232MOL0     C31240   6.059   2.145   5.022 -0.4536 -0.1336  0.3081
  232MOL0     C31241   6.059   2.259   5.096  0.1605  0.5465  0.4610
  232MOL0     C31242   6.076   2.386   5.041 -0.6624 -0.5761  0.5599
  232MOL0     C31243   6.089   2.391   4.896  0.4887 -1.0246 -0.1396
  232MOL0     O31244   6.109   2.511   4.836  0.7823  0.3773  0.1348
  232MOL0     C31245   6.232   2.583   4.878  0.0625 -0.3663  0.4425
  232MOL0     C31246   6.223   2.732   4.841  0.0254  0.3189 -0.6248
  232MOL0     C31247   6.271   2.758   4.697  0.0285 -0.4814 -0.1800
  232MOL0     C31248   6.252   2.890   4.633 -1.1380 -0.2780 -0.1678
  232MOL0     C31249   6.333   2.992   4.701 -0.1422  1.0095  0.8548
  232MOL0     C31250   6.403   3.077   4.751 -1.4388 -0.6835  0.4667
  232MOL0     C31251   6.095   2.273   4.831  0.9396 -0.6258 -0.6088
  232MOL0     C31252   6.091   2.160   4.891 -0.1622  0.4235 -0.1937
  232MOL0     H31253   5.860   1.990   5.406  2.7519  2.7277 -1.9153
  232MOL0     H31254   5.896   1.812   5.599  0.7527  4.4614 -0.1054
  232MOL0     H31255   5.894   1.486   5.427  0.4667  1.4716  0.0744
  232MOL0     H31256   6.006   1.381   5.516 -1.7856 -0.6284 -2.7281
  232MOL0     H31257   5.750   1.519   5.622  1.5503  1.7365  0.9809
  232MOL0     H31258   5.764   1.355   5.620 -2.4376  1.0181 -0.6450
  232MOL0     H31259   5.965   1.399   5.802  0.0152 -0.4691  1.6693
  232MOL0     H31260   5.891   1.558   5.812 -1.2304 -0.1923  1.5472
  232MOL0     H31261   5.683   1.460   5.874 -1.0740 -0.6185 -3.3085
  232MOL0     H31262   5.744   1.293   5.844  0.9494 -0.6085  0.4294
  232MOL0     H31263   5.880   1.492   6.040 -1.1670  1.4213  0.4762
  232MOL0     H31264   5.747   1.398   6.087  0.9613 -2.0456  0.4639
  232MOL0     H31265   5.883   1.186   6.038  0.3555  0.3629 -0.2684
  232MOL0     H31266   6.010   1.272   5.971  0.9102 -2.9320  1.2852
  232MOL0     H31267   5.988   1.419   6.209 -0.0599 -0.6946 -0.3997
  232MOL0     H31268   5.952   1.257   6.263  0.9348 -1.6746  0.4863
  232MOL0     H31269   6.194   1.305   6.299 -1.1245 -0.8306  0.0088
  232MOL0     H31270   6.202   1.351   6.133 -1.2132  0.4014 -0.3496
  232MOL0     H31271   6.309   1.157   5.988  1.9153 -0.3504  1.5240
  232MOL0     H31272   6.135   0.840   5.871 -0.4121  0.2556  0.7925
  232MOL0     H31273   6.217   0.981   5.802  1.1371 -1.2029 -0.8523
  232MOL0     H31274   6.353   0.765   5.988 -5.1631 -2.2486 -2.1827
  232MOL0     H31275   6.434   0.904   5.903  0.9234 -0.5049 -0.1346
  232MOL0     H31276   6.337   0.776   5.685  0.2780 -1.6244 -0.7540
  232MOL0     H31277   6.313   0.634   5.802 -1.4385  1.0175 -1.1620
  232MOL0     H31278   6.573   0.763   5.743  2.2575 -0.7685  2.2887
  232MOL0     H31279   6.532   0.606   5.684 -1.6996  0.1244 -0.6615
  232MOL0     H31280   6.750   0.598   5.722 -0.0076 -1.4232  0.1310
  232MOL0     H31281   7.041   0.396   5.759  1.4742  0.0722 -2.6457
  232MOL0     H31282   6.932   0.467   5.647  2.0312 -0.0885 -0.7367
  232MOL0     H31283   7.036   0.583   5.740 -3.3670  2.0751 -0.2141
  232MOL0     H31284   7.171   0.498   6.301  0.2779  0.4705 -0.9261
  232MOL0     H31285   7.402   0.448   6.410 -2.9209  0.4485 -0.1010
  232MOL0     H31286   7.612   0.062   6.340  1.1676  0.6043 -2.4877
  232MOL0     H31287   7.647   0.219   6.264 -1.8654 -0.5800 -1.2028
  232MOL0     H31288   7.703   0.165   6.551  1.0844 -0.3523 -1.6316
  232MOL0     H31289   7.820   0.089   6.431 -0.1207 -0.8472 -0.8040
  232MOL0     H31290   7.759   0.379   6.477 -1.9934 -2.1269  0.2908
  232MOL0     H31291   7.854   0.334   6.340  1.7455  0.3290  0.6559
  232MOL0     H31292   7.937   0.285   6.633 -2.9243  2.0700 -0.4992
  232MOL0     H31293   8.010   0.197   6.502 -1.2836 -0.6084 -2.2425
  232MOL0     H31294   7.993   0.490   6.456  2.6477  0.8824 -0.8486
  232MOL0     H31295   8.115   0.383   6.396 -0.9661  0.4322 -0.3697
  232MOL0     H31296   8.092   0.437   6.703  2.1694  0.2371  0.9062
  232MOL0     H31297   8.220   0.374   6.610 -0.4404 -0.8717  1.8884
  232MOL0     H31298   8.124   0.653   6.607 -3.2444 -2.1172 -3.2911
  232MOL0     H31299   8.268   0.602   6.516 -0.0072 -0.1162  0.0153
  232MOL0     H31300   8.274   0.596   6.818 -2.4221  4.2577 -0.8073
  232MOL0     H31301   8.371   0.692   6.717 -0.7385  0.3235 -3.5113
  232MOL0     H31302   7.399   0.056   6.262  2.2247  1.1396  3.3581
  232MOL0     H31303   7.163   0.095   6.160 -0.2185  1.3012 -0.4283
  232MOL0     H31304   6.823   0.443   6.196  0.8908  0.7133  0.8061
  232MOL0     H31305   6.605   0.554   6.121 -0.1092  0.1165  0.0537
  232MOL0     H31306   6.147   1.588   5.325 -1.4251 -0.6541 -1.7683
  232MOL0     H31307   6.143   1.765   5.183  1.3193  0.6045  2.5306
  232MOL0     H31308   6.042   2.260   5.203 -2.8007  4.0243  0.1331
  232MOL0     H31309   6.058   2.471   5.106 -2.5036 -2.6613  2.9781
  232MOL0     H31310   6.248   2.569   4.985  0.1000 -2.5057  0.2017
  232MOL0     H31311   6.320   2.532   4.837  0.6884 -0.3844  1.7466
  232MOL0     H31312   6.262   2.803   4.914 -1.5640  2.6618 -1.8975
  232MOL0     H31313   6.116   2.757   4.847  0.1694  1.0771 -1.0801
  232MOL0     H31314   6.219   2.690   4.628 -1.0570  0.3566 -0.2193
  232MOL0     H31315   6.377   2.734   4.682  0.5674  0.9741  1.0648
  232MOL0     H31316   6.144   2.909   4.628 -0.7779  1.7030 -2.4013
  232MOL0     H31317   6.285   2.885   4.528 -1.0762  4.3441 -0.5890
  232MOL0     H31318   6.462   3.151   4.802 -0.3541  0.6744 -2.5567
  232MOL0     H31319   6.098   2.266   4.723 -1.4839  1.6398 -0.9355
  232MOL0     H31320   6.089   2.070   4.830 -4.3812  1.5429 -2.0926
  233MOL0     O31321   9.196   6.572   2.261  0.3752  0.0370 -0.2545
  233MOL0     C31322   9.070   6.580   2.263 -0.2716 -0.1165 -0.3265
  233MOL0     O31323   8.986   6.541   2.163  0.2852 -0.8320  0.0412
  233MOL0     C31324   9.044   6.510   2.042  0.3958 -0.3285 -0.3056
  233MOL0     C31325   9.112   6.604   1.962  0.5230  1.0235 -0.3197
  233MOL0     C31326   9.167   6.561   1.846  0.8180  0.0789  0.4628
  233MOL0     C31327   9.173   6.425   1.800  0.1637 -1.0250  0.2558
  233MOL0     O31328   9.218   6.398   1.677  0.1545 -0.7216  0.8398
  233MOL0     C31329   9.332   6.305   1.689  0.2049  0.4240 -0.0646
  233MOL0     C31330   9.378   6.236   1.555 -1.0635  1.5352  0.0460
  233MOL0     C31331   9.457   6.326   1.465 -0.7231 -0.6579  0.4649
  233MOL0     C31332   9.549   6.249   1.379 -0.1300  0.5405  0.5662
  233MOL0     C31333   9.627   6.328   1.280 -1.1100 -0.2401  1.6027
  233MOL0     C31334   9.538   6.387   1.168 -0.8985 -0.1270 -0.7087
  233MOL0     C31335   9.631   6.464   1.064  0.2838 -0.0959 -0.3852
  233MOL0     C31336   9.678   6.602   1.114  0.5802 -0.1209 -1.0916
  233MOL0     N31337   9.807   6.652   1.055 -0.3345 -0.0713 -0.1128
  233MOL0     C31338   9.886   6.584   0.955 -0.0869 -0.1850 -0.2180
  233MOL0     C31339   9.977   6.671   0.917 -0.9821 -0.2894 -0.1423
  233MOL0     C31340  10.090   6.636   0.827  0.5086 -0.2505 -0.1064
  233MOL0     C31341  10.228   6.663   0.898 -0.1084  0.3661 -1.7323
  233MOL0     C31342  10.347   6.626   0.808 -0.0431  0.4288  0.5260
  233MOL0     C31343  10.486   6.601   0.874  0.0714  0.2107  0.0279
  233MOL0     O31344  10.573   6.560   0.761  0.4994  0.3615 -0.6507
  233MOL0     C31345  10.703   6.522   0.798 -0.4176 -0.1818  0.1862
  233MOL0     C31346  10.766   6.514   0.924  0.8359 -0.2567 -0.0116
  233MOL0     C31347  10.900   6.475   0.941  0.9406  0.0138 -0.7400
  233MOL0     C31348  10.951   6.457   1.091  0.6535  0.2200 -0.5990
  233MOL0     C31349  10.982   6.466   0.828 -0.2003 -0.0348 -0.9390
  233MOL0     C31350  11.115   6.421   0.833 -0.8417 -0.2681 -1.1406
  233MOL0     O31351  11.205   6.512   0.906 -0.5489  0.0159  0.8142
  233MOL0     C31352  11.325   6.459   0.930  0.3330 -0.2609  0.1209
  233MOL0     C31353  11.422   6.463   0.827 -0.2944  0.0207  0.0970
  233MOL0     C31354  11.550   6.410   0.852  0.0895 -0.1818 -0.3398
  233MOL0     C31355  11.591   6.379   0.981  0.3452 -0.4475 -0.1789
  233MOL0     O31356  11.720   6.334   1.002  0.0862  0.6901  0.0970
  233MOL0     C31357  11.756   6.202   0.964 -0.2144 -1.1548  0.4952
  233MOL0     C31358  11.878   6.173   1.040  0.1852 -0.0921 -0.5250
  233MOL0     C31359  11.958   6.069   0.967  0.5601  0.2023  0.0853
  233MOL0     C31360  12.068   5.993   1.044  0.9230  0.6612  0.2677
  233MOL0     C31361  12.015   5.911   1.166  1.1798  0.8226 -0.6449
  233MOL0     C31362  11.928   5.784   1.122 -0.5686 -0.0390 -0.5368
  233MOL0     C31363  11.874   5.712   1.254 -0.3648  0.0874  0.3625
  233MOL0     C31364  11.804   5.594   1.207  0.6827  0.3620  0.1854
  233MOL0    Cl31365  11.749   5.497   1.350  0.0878 -0.3876 -0.3272
  233MOL0     C31366  11.500   6.394   1.086 -0.2493 -0.3850 -0.2581
  233MOL0     C31367  11.366   6.427   1.062 -1.0505 -0.5590 -0.4150
  233MOL0     O31368  11.141   6.315   0.779  0.4186  1.0386  0.0294
  233MOL0     C31369  10.918   6.465   0.704  0.4381  0.1937 -0.1998
  233MOL0     C31370  10.779   6.489   0.692 -0.6016 -0.0882  0.1026
  233MOL0     N31371   9.947   6.787   0.974  0.0727  0.1746 -0.0768
  233MOL0     N31372   9.855   6.775   1.063 -0.2930 -0.0767  0.7012
  233MOL0     C31373   9.114   6.333   1.882  0.4546 -0.5999 -0.5942
  233MOL0     C31374   9.056   6.376   2.006  0.2039  0.2095 -0.6132
  233MOL0     C31375   8.996   6.625   2.389  0.1739 -0.0570 -0.0784
  233MOL0     C31376   9.059   6.707   2.480  0.1293  0.9570 -0.0813
  233MOL0     C31377   8.991   6.771   2.589 -0.6906 -0.1353  0.8938
  233MOL0     C31378   8.856   6.751   2.604  0.9197  0.6521  0.2851
  233MOL0     O31379   8.775   6.832   2.689 -0.1123  0.2780 -0.4491
  233MOL0     C31380   8.638   6.810   2.706  0.1826  0.2310  0.5129
  233MOL0     C31381   8.553   6.903   2.788  0.7458 -0.8278  0.2317
  233MOL0     C31382   8.401   6.909   2.737  0.2044  0.0323  0.3833
  233MOL0     C31383   8.307   7.019   2.810 -0.6186 -0.9526 -0.9145
  233MOL0     C31384   8.375   7.147   2.791  0.9715 -0.4092 -0.7515
  233MOL0     C31385   8.431   7.247   2.774  0.2451 -0.3602 -0.1603
  233MOL0     C31386   8.794   6.661   2.519 -0.8625 -1.0554  0.9094
  233MOL0     C31387   8.857   6.598   2.407  0.1101 -0.2389 -0.2412
  233MOL0     H31388   9.123   6.708   1.992  0.8209  0.5812  1.1937
  233MOL0     H31389   9.211   6.641   1.788  1.9800  0.5945  1.9803
  233MOL0     H31390   9.418   6.349   1.741  0.8792 -0.4779 -0.3953
  233MOL0     H31391   9.290   6.222   1.746 -1.7722  1.1442 -0.3897
  233MOL0     H31392   9.447   6.158   1.588 -0.1346  2.6871  0.9316
  233MOL0     H31393   9.295   6.195   1.497 -0.8161  3.0095 -1.4265
  233MOL0     H31394   9.398   6.386   1.395  1.5284 -0.1838 -1.1590
  233MOL0     H31395   9.518   6.391   1.529 -0.3398 -1.9509  1.4513
  233MOL0     H31396   9.626   6.205   1.443 -0.0102  1.7586  1.2950
  233MOL0     H31397   9.488   6.177   1.324  0.8533  1.5766 -2.0491
  233MOL0     H31398   9.684   6.409   1.326  2.5894 -0.1527 -2.4389
  233MOL0     H31399   9.699   6.265   1.227  0.8629  2.2228  1.1557
  233MOL0     H31400   9.486   6.299   1.128  1.0438 -1.4343 -0.4695
  233MOL0     H31401   9.458   6.445   1.216 -4.3270 -4.9280  0.1643
  233MOL0     H31402   9.705   6.391   1.028  0.9976  0.8124 -0.7913
  233MOL0     H31403   9.571   6.482   0.975  1.8536 -2.7814 -2.1263
  233MOL0     H31404   9.689   6.603   1.222  0.9557  3.6969 -1.0450
  233MOL0     H31405   9.598   6.673   1.092 -0.5545 -0.5428  1.3461
  233MOL0     H31406   9.882   6.481   0.922 -1.8073  0.4181 -2.0636
  233MOL0     H31407  10.082   6.539   0.777 -1.3628  1.0386 -2.5158
  233MOL0     H31408  10.080   6.702   0.740 -2.5796 -0.7057 -0.2101
  233MOL0     H31409  10.231   6.598   0.986  1.5455  2.4510 -0.1512
  233MOL0     H31410  10.235   6.770   0.914  2.4515  0.4722 -3.0029
  233MOL0     H31411  10.351   6.700   0.727  1.0380 -2.1076 -1.8752
  233MOL0     H31412  10.320   6.530   0.763  2.8087 -0.1588 -0.1282
  233MOL0     H31413  10.468   6.523   0.949 -3.7869  1.2483  0.4360
  233MOL0     H31414  10.523   6.686   0.932 -1.1235  0.1386  0.9284
  233MOL0     H31415  10.698   6.530   1.007 -3.4865 -1.0872 -3.0399
  233MOL0     H31416  10.884   6.409   1.163 -0.5235  0.8258 -1.2567
  233MOL0     H31417  11.041   6.394   1.093 -0.8896 -2.1160  0.9860
  233MOL0     H31418  10.961   6.556   1.136 -1.9808  0.1167  0.3459
  233MOL0     H31419  11.395   6.489   0.725  0.0521 -5.8376 -1.9024
  233MOL0     H31420  11.615   6.389   0.768 -1.4020  1.1541 -1.9014
  233MOL0     H31421  11.672   6.135   0.983 -0.2526 -0.9570  1.0456
  233MOL0     H31422  11.783   6.211   0.858 -0.6841 -0.3714  0.4323
  233MOL0     H31423  11.943   6.257   1.064  0.4431 -0.2018 -0.8220
  233MOL0     H31424  11.840   6.139   1.136  0.2485  0.3334 -0.3486
  233MOL0     H31425  12.002   6.117   0.879 -0.7842  1.9885  0.3324
  233MOL0     H31426  11.891   5.992   0.929 -2.1440  0.2889  4.0642
  233MOL0     H31427  12.134   5.932   0.983  0.3117 -2.0546  2.1343
  233MOL0     H31428  12.126   6.072   1.094  0.4337  0.9639  0.3631
  233MOL0     H31429  11.949   5.976   1.224  3.1579  3.7538 -1.4090
  233MOL0     H31430  12.109   5.883   1.215  0.0307  1.1114  1.8762
  233MOL0     H31431  11.843   5.819   1.063 -2.8169  0.1741  2.5872
  233MOL0     H31432  11.982   5.712   1.060 -3.1198 -1.3150 -1.4120
  233MOL0     H31433  11.810   5.776   1.316  0.4489 -1.8055  3.3645
  233MOL0     H31434  11.962   5.696   1.317 -0.6146  1.3825  1.0881
  233MOL0     H31435  11.859   5.526   1.142  0.5764 -0.4150  0.8805
  233MOL0     H31436  11.714   5.624   1.153  1.3974  0.4767 -0.9721
  233MOL0     H31437  11.521   6.374   1.191  0.2132 -0.6354 -0.3971
  233MOL0     H31438  11.300   6.426   1.147  0.8836  1.5890  1.2444
  233MOL0     H31439  10.978   6.427   0.623  0.0659 -1.0774  0.1036
  233MOL0     H31440  10.731   6.493   0.595  0.1184  1.0308 -0.2217
  233MOL0     H31441   9.123   6.226   1.867  0.8703 -0.5207 -0.9467
  233MOL0     H31442   9.023   6.297   2.074 -0.0057  0.5859 -0.2749
  233MOL0     H31443   9.167   6.723   2.484  0.1428  0.8230  0.0839
  233MOL0     H31444   9.056   6.835   2.648  0.8188  0.0729 -0.8896
  233MOL0     H31445   8.614   6.836   2.602  0.0779  2.6336  1.0738
  233MOL0     H31446   8.615   6.709   2.741  1.1700 -0.0518  0.3662
  233MOL0     H31447   8.592   7.004   2.772  0.3497 -0.2458  2.5592
  233MOL0     H31448   8.556   6.880   2.895  2.0196  2.0655  0.9111
  233MOL0     H31449   8.360   6.809   2.749 -2.5030  1.1189  0.9357
  233MOL0     H31450   8.397   6.922   2.628 -0.7984  2.0368  0.5965
  233MOL0     H31451   8.296   6.983   2.913 -0.3794  0.8560 -0.2178
  233MOL0     H31452   8.212   7.035   2.759  1.1388 -0.4224 -4.2824
  233MOL0     H31453   8.467   7.348   2.765 -0.6660  0.0795  0.7670
  233MOL0     H31454   8.692   6.633   2.544 -0.6625 -1.1520  1.6277
  233MOL0     H31455   8.805   6.546   2.328 -2.0388  1.5377 -0.1099
  234MOL0     O31456   5.942   9.171   1.599 -0.6232  0.3498  0.9114
  234MOL0     C31457   6.041   9.194   1.526 -0.2008 -0.3229 -0.4038
  234MOL0     O31458   6.051   9.296   1.448 -0.4070  0.6125  0.3499
  234MOL0     C31459   5.982   9.402   1.471 -0.8946 -0.8158 -0.6421
  234MOL0     C31460   6.057   9.499   1.541 -0.5860  0.2982 -0.6739
  234MOL0     C31461   5.997   9.627   1.569 -0.2895 -0.3218  0.4941
  234MOL0     C31462   5.877   9.660   1.511 -0.0216  0.4589  0.6026
  234MOL0     O31463   5.831   9.788   1.502  0.1383 -0.5810  0.0867
  234MOL0     C31464   5.781   9.840   1.635  0.0582  0.2328  0.1914
  234MOL0     C31465   5.646   9.775   1.680 -0.8560 -0.3952 -0.2856
  234MOL0     C31466   5.647   9.792   1.828  0.1691 -0.8297  0.4266
  234MOL0     C31467   5.526   9.720   1.897 -0.1807 -0.3773 -0.2134
  234MOL0     C31468   5.391   9.769   1.864  0.8339  0.1668  0.2378
  234MOL0     C31469   5.272   9.694   1.915  0.1201  0.3131  1.1278
  234MOL0     C31470   5.144   9.731   1.832 -1.1099  0.4099  0.4909
  234MOL0     C31471   5.024   9.638   1.871  0.4190  0.1098  0.1651
  234MOL0     N31472   4.948   9.715   1.974 -0.2858  0.4812 -0.6068
  234MOL0     C31473   4.996   9.800   2.077 -1.1577  0.8895 -0.6795
  234MOL0     C31474   4.896   9.814   2.161 -0.0016  0.4526 -0.4072
  234MOL0     C31475   4.906   9.922   2.271  0.2937  0.3934  0.1819
  234MOL0     C31476   4.955   9.864   2.394 -0.1807 -0.9823  0.1101
  234MOL0     C31477   5.035   9.966   2.484  0.2274 -0.0896 -0.2680
  234MOL0     C31478   5.102   9.901   2.612 -0.0575 -0.0621  0.3739
  234MOL0     O31479   5.000   9.854   2.702 -0.2499  0.7111  0.4405
  234MOL0     C31480   4.940   9.939   2.787  0.1689  0.2852  0.7616
  234MOL0     C31481   4.836   9.885   2.863 -0.1438  0.0989 -0.2590
  234MOL0     C31482   4.763   9.952   2.956  0.0633  1.5630 -0.4593
  234MOL0     C31483   4.659   9.868   3.037  0.9444  0.3786  0.6853
  234MOL0     C31484   4.786  10.091   2.971  0.4542 -0.0162 -0.5809
  234MOL0     C31485   4.690  10.176   3.059  0.3282  0.8762  0.3466
  234MOL0     O31486   4.747  10.292   3.106  0.1190  0.3039  0.1652
  234MOL0     C31487   4.685  10.367   3.213  0.1769  0.4377  0.7282
  234MOL0     C31488   4.761  10.357   3.329  0.5419  0.6633 -0.4868
  234MOL0     C31489   4.727  10.448   3.428 -0.6838  0.4204 -0.3577
  234MOL0     C31490   4.626  10.540   3.426  0.4064  0.0778 -0.2798
  234MOL0     O31491   4.588  10.625   3.524  0.1022 -0.4841 -0.7785
  234MOL0     C31492   4.654  10.607   3.654 -0.9192 -0.0861  0.7958
  234MOL0     C31493   4.611  10.727   3.739 -0.9312  0.5945 -0.0944
  234MOL0     C31494   4.685  10.849   3.695  0.6554 -0.4550 -0.4213
  234MOL0     C31495   4.795  10.898   3.782 -0.5306  0.1978  0.1261
  234MOL0     C31496   4.894  10.993   3.707  0.8004 -0.5867  1.2337
  234MOL0     C31497   5.009  11.054   3.794  0.1474  0.8033  0.4439
  234MOL0     C31498   5.134  11.072   3.702  0.2131 -0.5492 -0.6217
  234MOL0     C31499   5.116  11.129   3.558 -0.1887 -0.0858 -0.3246
  234MOL0    Cl31500   5.014  11.275   3.549  0.1312  0.0775 -0.3154
  234MOL0     C31501   4.552  10.538   3.306 -0.1227  0.0652 -0.2509
  234MOL0     C31502   4.581  10.462   3.194  1.3836  0.1039 -0.1783
  234MOL0     O31503   4.573  10.136   3.087  0.2440 -0.3694 -0.6084
  234MOL0     C31504   4.883  10.155   2.892  0.8874  0.0362  0.1394
  234MOL0     C31505   4.965  10.073   2.808 -0.1024  1.1548  0.0716
  234MOL0     N31506   4.792   9.731   2.122  0.3708 -0.0624 -0.1081
  234MOL0     N31507   4.819   9.675   2.011 -0.5079 -0.4653 -0.1018
  234MOL0     C31508   5.805   9.561   1.452  0.2284 -0.0528 -1.0771
  234MOL0     C31509   5.851   9.437   1.435 -0.0195  1.3509 -0.5769
  234MOL0     C31510   6.165   9.110   1.543  0.6750 -0.3809 -0.5664
  234MOL0     C31511   6.173   9.017   1.646 -0.2696 -0.6129 -0.9365
  234MOL0     C31512   6.292   8.937   1.649  0.4648 -0.6836  0.0161
  234MOL0     C31513   6.395   8.950   1.555 -0.6599  1.4966  0.5028
  234MOL0     O31514   6.510   8.869   1.548  0.7237 -0.3062 -0.0001
  234MOL0     C31515   6.546   8.803   1.675  0.9243 -1.0208 -0.0683
  234MOL0     C31516   6.490   8.664   1.681 -0.6262  0.0762 -0.7352
  234MOL0     C31517   6.512   8.606   1.821  0.4432 -0.0739 -0.4322
  234MOL0     C31518   6.384   8.621   1.900 -0.1219  0.1114 -0.2942
  234MOL0     C31519   6.291   8.503   1.910 -0.2558 -0.1777  0.1798
  234MOL0     C31520   6.234   8.396   1.911  0.9752 -0.2269 -1.0307
  234MOL0     C31521   6.381   9.040   1.450  0.7599  0.7157 -0.2115
  234MOL0     C31522   6.268   9.125   1.453  0.3229  0.4607  0.4151
  234MOL0     H31523   6.151   9.477   1.590 -1.4810  0.3527  1.1475
  234MOL0     H31524   6.059   9.706   1.608 -1.9568  1.0257  0.5427
  234MOL0     H31525   5.856   9.823   1.712 -0.0236  1.0970  0.4718
  234MOL0     H31526   5.765   9.947   1.621  2.7574  1.0137  2.1172
  234MOL0     H31527   5.551   9.804   1.634 -0.3115  0.6089 -0.8039
  234MOL0     H31528   5.655   9.671   1.649 -0.6972 -0.9490  1.5051
  234MOL0     H31529   5.738   9.746   1.869  1.6120  2.4085  1.1135
  234MOL0     H31530   5.651   9.900   1.840 -3.5740 -0.7380  2.2744
  234MOL0     H31531   5.536   9.615   1.867 -1.0678  0.1899 -2.6590
  234MOL0     H31532   5.542   9.724   2.006 -0.3270 -1.0574 -0.1620
  234MOL0     H31533   5.391   9.874   1.895  1.0182 -0.2039  1.5800
  234MOL0     H31534   5.382   9.752   1.756  3.7806  3.1201 -0.6394
  234MOL0     H31535   5.286   9.586   1.907 -1.4606  0.1698 -0.1207
  234MOL0     H31536   5.250   9.714   2.021 -2.5881 -0.7593  0.8467
  234MOL0     H31537   5.114   9.836   1.836  2.0275  1.5013 -0.8435
  234MOL0     H31538   5.154   9.699   1.728  0.5962 -3.4853  1.6434
  234MOL0     H31539   5.061   9.542   1.909 -1.5195 -0.0563  1.7793
  234MOL0     H31540   4.949   9.625   1.793 -1.7515 -0.6360  2.2610
  234MOL0     H31541   5.088   9.857   2.080 -0.6439  0.1136  2.7818
  234MOL0     H31542   4.972   9.996   2.224  1.7015 -2.6429 -3.0607
  234MOL0     H31543   4.809   9.971   2.287  0.9035  2.8843 -2.8462
  234MOL0     H31544   5.024   9.781   2.374  0.0850 -0.3997 -1.5389
  234MOL0     H31545   4.878   9.814   2.453 -0.6733 -0.4160 -0.0448
  234MOL0     H31546   4.966  10.044   2.516 -0.8782 -1.1015 -0.1039
  234MOL0     H31547   5.107  10.016   2.418 -1.3069  0.9394 -1.2409
  234MOL0     H31548   5.168   9.974   2.659 -1.9370  0.3090  2.6515
  234MOL0     H31549   5.168   9.817   2.589  0.3450 -0.5784  3.0795
  234MOL0     H31550   4.827   9.778   2.850 -0.7248 -0.0260  1.0448
  234MOL0     H31551   4.651   9.918   3.134  1.1258  3.6353 -0.8674
  234MOL0     H31552   4.557   9.866   3.000 -0.5933 -2.3117  4.3501
  234MOL0     H31553   4.686   9.763   3.053  1.4474  0.2929 -0.6702
  234MOL0     H31554   4.852  10.299   3.339 -0.2080 -0.2694  1.6435
  234MOL0     H31555   4.788  10.452   3.518 -4.5944 -0.4683  2.5963
  234MOL0     H31556   4.624  10.521   3.715  0.0512 -0.3478  0.9199
  234MOL0     H31557   4.762  10.601   3.642 -1.0922 -5.5051 -0.8092
  234MOL0     H31558   4.510  10.743   3.702 -0.6187  0.5965 -0.9848
  234MOL0     H31559   4.606  10.705   3.846  0.0302  1.9099  0.2461
  234MOL0     H31560   4.613  10.931   3.698  1.5072  0.2769  1.6804
  234MOL0     H31561   4.729  10.836   3.595  1.3193 -1.7035  0.0154
  234MOL0     H31562   4.752  10.954   3.866 -0.6275  0.8511 -0.3544
  234MOL0     H31563   4.845  10.812   3.827 -0.5910  0.8052  1.4172
  234MOL0     H31564   4.854  11.062   3.632  0.7273 -0.1353  1.6790
  234MOL0     H31565   4.948  10.928   3.638 -1.5255  0.2345 -1.5643
  234MOL0     H31566   4.981  11.151   3.836 -0.5276 -0.0760  2.0866
  234MOL0     H31567   5.048  10.994   3.877  2.1638 -1.6343 -2.0810
  234MOL0     H31568   5.192  10.980   3.689 -0.2176 -0.6610 -1.8896
  234MOL0     H31569   5.214  11.133   3.744 -0.7316  0.9293 -0.8943
  234MOL0     H31570   5.069  11.066   3.482 -1.4166  1.7996 -1.2368
  234MOL0     H31571   5.220  11.148   3.529  0.6020 -2.2321  0.9540
  234MOL0     H31572   4.482  10.621   3.307 -0.2356 -0.0055  1.7404
  234MOL0     H31573   4.511  10.473   3.111 -1.8609 -2.2796  1.9618
  234MOL0     H31574   4.898  10.262   2.901 -1.0993  0.6054 -2.1536
  234MOL0     H31575   5.053  10.111   2.758  0.4965 -1.1489 -0.7845
  234MOL0     H31576   5.710   9.590   1.408 -2.6591 -0.6724  3.9915
  234MOL0     H31577   5.788   9.365   1.384 -1.5249  2.2396 -0.0241
  234MOL0     H31578   6.099   8.989   1.720  1.7206  0.9978  1.8570
  234MOL0     H31579   6.308   8.852   1.715 -1.4592 -1.1198  0.0028
  234MOL0     H31580   6.655   8.802   1.686  0.9383  2.3103  1.5488
  234MOL0     H31581   6.514   8.868   1.757  3.5109 -0.5457  0.6408
  234MOL0     H31582   6.559   8.613   1.612 -0.7437  0.5532 -1.2082
  234MOL0     H31583   6.388   8.662   1.640 -0.6503  2.7554 -0.9808
  234MOL0     H31584   6.591   8.670   1.861 -1.3736  2.9826 -1.4165
  234MOL0     H31585   6.547   8.502   1.818 -2.4735 -1.2342  1.5227
  234MOL0     H31586   6.330   8.711   1.869  2.1145  1.7277  0.2340
  234MOL0     H31587   6.407   8.652   2.003 -1.3185 -0.4299  0.1569
  234MOL0     H31588   6.181   8.304   1.896  2.4060 -0.6758 -4.1113
  234MOL0     H31589   6.448   9.059   1.366  1.0590  0.1608 -0.1066
  234MOL0     H31590   6.266   9.197   1.372 -2.6217  0.0626  0.0224
  235MOL0     O31591   7.750   2.224   5.534  0.9170  0.7001 -0.5375
  235MOL0     C31592   7.743   2.262   5.416  0.5958  0.0690  0.7589
  235MOL0     O31593   7.648   2.353   5.363  0.7615  0.3539  0.2367
  235MOL0     C31594   7.542   2.380   5.440 -0.9760  0.5410  0.7698
  235MOL0     C31595   7.539   2.407   5.568  0.1469 -0.2905 -0.7419
  235MOL0     C31596   7.418   2.449   5.638 -0.2564  0.0749  0.2199
  235MOL0     C31597   7.306   2.444   5.574  0.1175 -0.1442 -0.0608
  235MOL0     O31598   7.188   2.494   5.629  0.4241  0.2681 -0.2625
  235MOL0     C31599   7.061   2.428   5.611  0.4060  0.2639  0.2370
  235MOL0     C31600   6.970   2.420   5.735  0.0237  0.3209  1.3610
  235MOL0     C31601   6.981   2.551   5.814 -0.1005 -0.5585  0.1464
  235MOL0     C31602   7.104   2.552   5.916 -0.4035  0.7321 -0.9472
  235MOL0     C31603   7.085   2.442   6.022 -0.4243  0.4298  0.9061
  235MOL0     C31604   7.165   2.461   6.144 -0.2525  0.0433 -0.1285
  235MOL0     C31605   7.179   2.339   6.228 -0.3239 -0.0674  0.1949
  235MOL0     C31606   7.288   2.354   6.327 -0.1372  0.4350  0.9001
  235MOL0     N31607   7.277   2.246   6.419 -0.1659 -0.8463 -0.7709
  235MOL0     C31608   7.216   2.250   6.543  0.3312 -0.2573 -0.2651
  235MOL0     C31609   7.234   2.133   6.600 -0.5027  0.8071 -0.5546
  235MOL0     C31610   7.170   2.071   6.729  0.0136 -0.0750  0.8484
  235MOL0     C31611   7.072   1.967   6.688 -0.0138  0.3033 -0.7387
  235MOL0     C31612   6.933   2.032   6.649 -0.3219  0.3811  0.1733
  235MOL0     C31613   6.841   1.921   6.607 -0.2625  0.8041  0.2765
  235MOL0     O31614   6.871   1.858   6.475 -0.6546 -0.2613  0.2581
  235MOL0     C31615   6.835   1.928   6.365 -0.3161  0.6508  0.1681
  235MOL0     C31616   6.700   1.964   6.340 -1.1861  1.0068  0.6065
  235MOL0     C31617   6.663   2.043   6.228  0.0268  0.7889 -0.6012
  235MOL0     C31618   6.515   2.052   6.209  0.1400  0.5885  0.3630
  235MOL0     C31619   6.761   2.088   6.130 -0.6589  0.0653 -1.0363
  235MOL0     C31620   6.728   2.163   6.014  0.7801  0.4899  0.3256
  235MOL0     O31621   6.599   2.188   5.979  0.8488  0.0599 -0.3502
  235MOL0     C31622   6.560   2.250   5.865 -1.6148 -0.4617  1.1514
  235MOL0     C31623   6.443   2.328   5.881 -0.7209 -0.9473 -0.5763
  235MOL0     C31624   6.397   2.402   5.777 -0.2633  0.1882  0.2034
  235MOL0     C31625   6.464   2.385   5.650  0.7296 -0.6544  0.0725
  235MOL0     O31626   6.404   2.436   5.538  0.5224 -0.2800 -0.2032
  235MOL0     C31627   6.404   2.353   5.419  0.2574 -0.0797 -0.3917
  235MOL0     C31628   6.342   2.422   5.295 -0.4935  0.1652  0.4200
  235MOL0     C31629   6.427   2.552   5.265 -0.1649 -0.3570 -0.1127
  235MOL0     C31630   6.339   2.671   5.285  0.4754 -0.0473 -0.5323
  235MOL0     C31631   6.402   2.790   5.216 -0.3217  1.0953 -0.2309
  235MOL0     C31632   6.351   2.930   5.263 -1.1116 -0.3170 -0.8262
  235MOL0     C31633   6.386   3.034   5.159  0.0143  0.3440 -0.5147
  235MOL0     C31634   6.314   3.161   5.192  1.1315 -1.2051 -0.5706
  235MOL0    Cl31635   6.359   3.286   5.065 -0.1890 -0.2157 -0.2881
  235MOL0     C31636   6.592   2.317   5.638  0.0088 -0.0279  0.2919
  235MOL0     C31637   6.633   2.246   5.748  0.5372 -0.4146 -0.7405
  235MOL0     O31638   6.823   2.207   5.959  0.4189  0.1990 -0.7158
  235MOL0     C31639   6.892   2.050   6.164 -0.4338  0.8699 -1.1561
  235MOL0     C31640   6.929   1.967   6.271  0.5283 -0.9416 -0.3436
  235MOL0     N31641   7.294   2.051   6.506  0.1127 -0.5953  0.4240
  235MOL0     N31642   7.316   2.117   6.401  1.0904 -0.3278 -0.2142
  235MOL0     C31643   7.301   2.422   5.433  0.4073  0.2741 -0.1150
  235MOL0     C31644   7.420   2.393   5.368  0.2852 -0.1395 -0.0299
  235MOL0     C31645   7.848   2.213   5.333  0.2983  0.1240 -0.1619
  235MOL0     C31646   7.889   2.285   5.219 -0.3782 -0.5387  0.6161
  235MOL0     C31647   7.991   2.234   5.142 -1.5793 -1.1869 -0.3419
  235MOL0     C31648   8.071   2.117   5.173  0.5557 -0.1126  0.3409
  235MOL0     O31649   8.183   2.102   5.091 -0.0466 -0.4906  0.2235
  235MOL0     C31650   8.255   1.981   5.105  0.9194 -0.7139 -1.2150
  235MOL0     C31651   8.308   1.936   4.969 -0.0057 -0.1128 -0.6230
  235MOL0     C31652   8.394   2.048   4.906  0.1874  0.0349 -0.3939
  235MOL0     C31653   8.465   1.986   4.784  0.5455 -0.1981  0.8205
  235MOL0     C31654   8.596   1.937   4.817 -0.3438  0.4880 -0.5391
  235MOL0     C31655   8.708   1.894   4.840  1.0241 -0.0201 -0.4336
  235MOL0     C31656   8.028   2.054   5.289 -0.3320  0.2056 -0.7489
  235MOL0     C31657   7.925   2.095   5.363  0.3337 -0.0846 -0.3601
  235MOL0     H31658   7.625   2.403   5.634  0.9339  1.2771 -1.6067
  235MOL0     H31659   7.419   2.481   5.742  1.8579  0.9749 -0.0407
  235MOL0     H31660   7.009   2.490   5.538 -0.0794  0.2930  0.6077
  235MOL0     H31661   7.073   2.326   5.571 -2.7289 -0.1180  0.0604
  235MOL0     H31662   6.869   2.410   5.695  0.8789  0.1874 -0.8870
  235MOL0     H31663   6.994   2.328   5.789  2.4274  0.7062  1.0507
  235MOL0     H31664   6.987   2.630   5.739 -3.1755  0.4284  0.7908
  235MOL0     H31665   6.909   2.583   5.890  0.6962  3.2830 -0.5119
  235MOL0     H31666   7.205   2.547   5.873  1.7496 -0.3165  3.6703
  235MOL0     H31667   7.106   2.653   5.957  0.1775  1.0906 -1.8137
  235MOL0     H31668   6.982   2.443   6.060 -1.1106 -0.0992 -0.8499
  235MOL0     H31669   7.105   2.340   5.987  1.4191  0.2835  2.2597
  235MOL0     H31670   7.265   2.483   6.106  0.5730 -0.4991  1.6175
  235MOL0     H31671   7.135   2.553   6.194  1.6148  1.6885 -1.8510
  235MOL0     H31672   7.080   2.321   6.271 -0.7367 -0.1241 -0.7621
  235MOL0     H31673   7.199   2.245   6.176  1.6840 -1.8784  3.8847
  235MOL0     H31674   7.272   2.451   6.375 -2.2111  1.9582 -2.5146
  235MOL0     H31675   7.385   2.353   6.277 -0.9683 -2.1244 -0.8577
  235MOL0     H31676   7.161   2.335   6.583  2.4281  1.9537 -1.8112
  235MOL0     H31677   7.244   2.023   6.794  0.3350 -0.9379 -0.1230
  235MOL0     H31678   7.119   2.147   6.789 -0.5179  0.2308  0.0122
  235MOL0     H31679   7.056   1.903   6.776  1.2203 -0.0370 -0.7470
  235MOL0     H31680   7.115   1.898   6.615  0.2935 -0.2912 -0.0094
  235MOL0     H31681   6.957   2.100   6.566  5.4193 -1.1962  0.0716
  235MOL0     H31682   6.885   2.089   6.728  1.6641  2.0065  0.3083
  235MOL0     H31683   6.739   1.956   6.589 -1.1351 -1.8613 -0.4901
  235MOL0     H31684   6.833   1.847   6.687  1.7690 -0.1234 -0.2986
  235MOL0     H31685   6.631   1.928   6.415 -1.6354  0.5924  0.0022
  235MOL0     H31686   6.492   2.031   6.105  3.3799 -0.1564 -0.3037
  235MOL0     H31687   6.460   1.980   6.270 -2.7330 -0.0977 -2.7288
  235MOL0     H31688   6.476   2.152   6.234 -2.6765  0.3318 -2.3881
  235MOL0     H31689   6.395   2.337   5.978  0.1664  0.7996 -0.2563
  235MOL0     H31690   6.309   2.461   5.799  1.1044  2.1294  0.8151
  235MOL0     H31691   6.505   2.322   5.390  0.2383  0.6366 -1.2781
  235MOL0     H31692   6.353   2.258   5.437  2.2577 -0.7581  2.1976
  235MOL0     H31693   6.359   2.355   5.210  2.3117  1.3389 -0.0751
  235MOL0     H31694   6.236   2.435   5.317  0.1114  0.3150  3.8302
  235MOL0     H31695   6.466   2.561   5.163  0.0030 -1.4842 -0.1548
  235MOL0     H31696   6.517   2.554   5.329  1.2023 -2.5408 -1.8491
  235MOL0     H31697   6.239   2.659   5.242  0.8588  0.3216 -1.5741
  235MOL0     H31698   6.342   2.688   5.393  1.0892  1.4001 -0.7468
  235MOL0     H31699   6.362   2.779   5.114 -0.5582 -0.0376 -0.0253
  235MOL0     H31700   6.511   2.792   5.208 -0.2762 -1.9728 -1.5478
  235MOL0     H31701   6.243   2.932   5.281 -0.8488  0.3482  0.8676
  235MOL0     H31702   6.404   2.966   5.352 -1.3624  2.0473 -1.5559
  235MOL0     H31703   6.355   3.002   5.059 -0.2526  0.2558 -0.4028
  235MOL0     H31704   6.494   3.054   5.155  0.2409 -0.7157 -0.0510
  235MOL0     H31705   6.347   3.195   5.291 -0.7784 -3.4289  0.9269
  235MOL0     H31706   6.205   3.161   5.183  0.9687  3.9618 -1.8261
  235MOL0     H31707   6.649   2.285   5.551  0.1953 -1.6189  0.9541
  235MOL0     H31708   6.713   2.173   5.737  0.6074 -1.1312  2.9973
  235MOL0     H31709   6.979   2.073   6.103  1.7297 -0.2427  1.3168
  235MOL0     H31710   7.034   1.943   6.286 -0.1067 -2.9140  1.3135
  235MOL0     H31711   7.208   2.432   5.376  0.0535 -0.1827  0.3803
  235MOL0     H31712   7.422   2.358   5.266 -1.2884 -1.1059  0.2342
  235MOL0     H31713   7.837   2.376   5.192  1.0001  0.5528  1.4690
  235MOL0     H31714   8.029   2.292   5.059  0.6970 -1.5701  0.3663
  235MOL0     H31715   8.345   1.993   5.166 -0.9615  0.3941  1.5732
  235MOL0     H31716   8.197   1.895   5.143  0.7611 -0.1629 -0.1686
  235MOL0     H31717   8.227   1.913   4.899 -0.0628 -0.1725 -0.5371
  235MOL0     H31718   8.368   1.846   4.987 -1.7125 -1.6440 -2.2284
  235MOL0     H31719   8.468   2.082   4.979 -3.2092  2.9895  1.9959
  235MOL0     H31720   8.343   2.140   4.876  2.4261  0.2908 -4.1457
  235MOL0     H31721   8.460   2.049   4.695  1.4024 -2.6133 -1.0431
  235MOL0     H31722   8.397   1.913   4.741 -0.3100  1.1369 -0.1697
  235MOL0     H31723   8.802   1.848   4.864  1.3655  0.3424 -1.0524
  235MOL0     H31724   8.083   1.969   5.326  1.1126  1.9944  1.4806
  235MOL0     H31725   7.877   2.049   5.449 -1.5671  1.5962 -0.4425
  236MOL0     O31726   2.285   6.821   7.534 -0.4158  0.2194 -0.0392
  236MOL0     C31727   2.382   6.760   7.592  0.4600 -0.5382  0.4087
  236MOL0     O31728   2.372   6.685   7.704 -0.3222 -0.2523  0.1709
  236MOL0     C31729   2.247   6.675   7.766 -0.3489  0.9681  0.4756
  236MOL0     C31730   2.215   6.547   7.819 -0.2711 -0.4907 -0.8100
  236MOL0     C31731   2.099   6.535   7.895  0.9971 -0.4887 -0.1967
  236MOL0     C31732   2.011   6.642   7.909  0.7241  0.7384 -0.0195
  236MOL0     O31733   1.895   6.640   7.974  0.6299  0.9920  0.2578
  236MOL0     C31734   1.863   6.524   8.051 -0.5717  0.7018 -0.0816
  236MOL0     C31735   1.727   6.529   8.118 -0.6118  0.5407 -0.6800
  236MOL0     C31736   1.615   6.482   8.022 -0.1061  0.1413 -0.1943
  236MOL0     C31737   1.480   6.480   8.102 -0.4779 -0.8873  1.3529
  236MOL0     C31738   1.433   6.341   8.142  0.3478 -0.0447 -0.1704
  236MOL0     C31739   1.300   6.336   8.205  0.1454  0.0119  0.2977
  236MOL0     C31740   1.284   6.196   8.264 -0.1242  0.2031 -0.5439
  236MOL0     C31741   1.150   6.178   8.335 -0.9884 -0.5745 -0.5671
  236MOL0     N31742   1.144   6.254   8.461  1.0671 -0.7103  0.4647
  236MOL0     C31743   1.165   6.206   8.581 -0.2538 -0.4681 -0.6214
  236MOL0     C31744   1.130   6.301   8.674 -0.3300 -0.7925 -0.1094
  236MOL0     C31745   1.116   6.292   8.819 -0.9516  0.3731 -0.0911
  236MOL0     C31746   1.237   6.361   8.897 -0.4671  0.9622 -0.0274
  236MOL0     C31747   1.360   6.274   8.900 -0.6517 -0.1969  0.5552
  236MOL0     C31748   1.355   6.171   9.008 -0.0611 -0.1337 -0.2615
  236MOL0     O31749   1.379   6.224   9.142 -0.3459 -0.0639 -0.0780
  236MOL0     C31750   1.302   6.162   9.237 -1.0794 -1.1184 -0.6123
  236MOL0     C31751   1.172   6.208   9.271  0.2419 -0.3855  0.3014
  236MOL0     C31752   1.101   6.139   9.373 -0.3111 -0.5164 -0.0873
  236MOL0     C31753   0.963   6.187   9.390  0.2538 -0.1574 -0.1630
  236MOL0     C31754   1.154   6.029   9.450 -0.6785  0.3912 -0.3101
  236MOL0     C31755   1.091   5.973   9.563  0.5211  0.7459  0.0041
  236MOL0     O31756   1.170   5.877   9.627  0.6916 -0.1626  0.7120
  236MOL0     C31757   1.117   5.754   9.681 -0.0125 -0.0360  0.5830
  236MOL0     C31758   1.207   5.664   9.734  0.4460  0.2562  0.4119
  236MOL0     C31759   1.176   5.540   9.795  0.4343 -0.0379  0.2876
  236MOL0     C31760   1.042   5.497   9.799  0.4876  0.1394  0.2823
  236MOL0     O31761   0.986   5.385   9.851  0.4506 -0.4708 -0.0184
  236MOL0     C31762   1.077   5.283   9.895  0.6117 -0.6750 -0.2349
  236MOL0     C31763   0.991   5.168   9.964 -0.6544 -0.0042  1.2226
  236MOL0     C31764   0.902   5.095   9.860  0.7660  0.0303  0.1120
  236MOL0     C31765   0.879   4.952   9.900  0.3661 -0.5725  0.1598
  236MOL0     C31766   0.799   4.869   9.803 -0.2384  0.2042 -0.0600
  236MOL0     C31767   0.794   4.722   9.846 -0.4587  0.5841 -0.2117
  236MOL0     C31768   0.743   4.643   9.738 -0.7830 -0.3569 -0.8267
  236MOL0     C31769   0.729   4.496   9.785 -0.4272  0.3520  0.4633
  236MOL0    Cl31770   0.678   4.399   9.639  0.5079  0.1271 -0.4961
  236MOL0     C31771   0.950   5.579   9.733 -0.4196 -0.1134 -0.6143
  236MOL0     C31772   0.984   5.703   9.678  0.0058  0.2346 -0.0298
  236MOL0     O31773   0.968   5.990   9.586 -0.1284  0.4739 -0.0309
  236MOL0     C31774   1.286   5.990   9.410 -0.1928  0.8626 -0.0593
  236MOL0     C31775   1.363   6.057   9.311  0.6972  0.2272 -0.3640
  236MOL0     N31776   1.099   6.415   8.602  0.3367  0.1226  0.3598
  236MOL0     N31777   1.120   6.389   8.472  0.8728 -0.2174  0.8736
  236MOL0     C31778   2.047   6.767   7.857 -0.3437 -0.2369 -0.1152
  236MOL0     C31779   2.159   6.785   7.772 -0.1881 -0.0444  0.1710
  236MOL0     C31780   2.513   6.764   7.522 -0.6238 -0.3541 -0.5015
  236MOL0     C31781   2.525   6.844   7.408 -0.0337 -0.8312  0.2877
  236MOL0     C31782   2.653   6.847   7.336  0.6947  0.5743  0.0067
  236MOL0     C31783   2.760   6.762   7.384  0.1895 -0.4589  0.2264
  236MOL0     O31784   2.892   6.742   7.328  0.0554 -0.1589  0.1403
  236MOL0     C31785   2.931   6.825   7.214  0.3942  0.5479  0.1128
  236MOL0     C31786   3.077   6.786   7.185 -0.5125  1.0214  0.6391
  236MOL0     C31787   3.186   6.844   7.280  1.0658  0.1500  1.1081
  236MOL0     C31788   3.334   6.821   7.250 -1.3853  0.8684 -0.2947
  236MOL0     C31789   3.434   6.921   7.302 -0.6013  0.6109 -1.2892
  236MOL0     C31790   3.516   6.996   7.363  0.4768 -0.0610 -1.4065
  236MOL0     C31791   2.746   6.686   7.502  0.6345  0.7495  0.6708
  236MOL0     C31792   2.623   6.689   7.574  0.2239 -0.4718  0.2812
  236MOL0     H31793   2.286   6.465   7.813 -0.1602 -0.9759  3.6541
  236MOL0     H31794   2.071   6.436   7.930 -0.7161 -0.5498 -1.6244
  236MOL0     H31795   1.872   6.432   7.993  0.7331  1.3950 -1.0406
  236MOL0     H31796   1.937   6.521   8.133 -0.8286 -1.3275  0.1339
  236MOL0     H31797   1.726   6.459   8.203  1.5923 -1.4284 -2.1393
  236MOL0     H31798   1.706   6.630   8.153  0.1812  0.0650  1.3606
  236MOL0     H31799   1.603   6.555   7.942 -3.2775  0.1779  0.1975
  236MOL0     H31800   1.645   6.384   7.981 -1.7280 -0.9582  1.1257
  236MOL0     H31801   1.503   6.545   8.187  0.3525 -0.9080  1.1519
  236MOL0     H31802   1.413   6.543   8.043  2.7782  1.6804  0.0900
  236MOL0     H31803   1.442   6.272   8.058  0.5225 -0.0839 -0.1201
  236MOL0     H31804   1.507   6.313   8.217  1.2049  2.4478  0.0083
  236MOL0     H31805   1.316   6.403   8.290  0.4409 -1.0362  1.0931
  236MOL0     H31806   1.218   6.379   8.147  0.2593  2.9961  2.1679
  236MOL0     H31807   1.280   6.119   8.187 -1.5484  0.5345 -0.8255
  236MOL0     H31808   1.364   6.185   8.338  0.2119  1.2058 -0.7467
  236MOL0     H31809   1.143   6.072   8.362  2.5934 -0.1714  2.7267
  236MOL0     H31810   1.069   6.210   8.268  1.0444  2.0418 -1.9998
  236MOL0     H31811   1.196   6.106   8.611  2.4461  0.4408 -0.1128
  236MOL0     H31812   1.027   6.350   8.848 -0.4007  1.6316 -0.8178
  236MOL0     H31813   1.100   6.187   8.844  2.2029  0.4305  2.7218
  236MOL0     H31814   1.212   6.384   9.001  2.4778 -1.1894  1.2851
  236MOL0     H31815   1.260   6.460   8.856 -0.5280  0.0617 -2.4444
  236MOL0     H31816   1.445   6.343   8.908 -2.7025  2.2711  2.5879
  236MOL0     H31817   1.364   6.223   8.803 -4.0984  3.3551 -1.7718
  236MOL0     H31818   1.441   6.105   8.991  1.3134  1.3869  0.4511
  236MOL0     H31819   1.271   6.105   8.983 -2.6502  3.0442 -0.4930
  236MOL0     H31820   1.128   6.298   9.230 -3.0637  0.5452  5.0168
  236MOL0     H31821   0.918   6.245   9.309  1.5742  1.2354  0.0684
  236MOL0     H31822   0.891   6.104   9.395  0.7400 -1.1543 -4.8336
  236MOL0     H31823   0.966   6.248   9.480 -1.0672 -2.1525  1.3095
  236MOL0     H31824   1.307   5.702   9.751 -0.2467  1.8709  1.0414
  236MOL0     H31825   1.253   5.485   9.848  1.3293  1.0264  0.1268
  236MOL0     H31826   1.142   5.242   9.817  1.8777 -0.3987  0.6522
  236MOL0     H31827   1.146   5.317   9.973 -0.2978  2.2307 -0.5812
  236MOL0     H31828   1.050   5.094  10.018 -2.3343  0.5629  4.0446
  236MOL0     H31829   0.919   5.208  10.036 -0.9991 -1.5144  1.7504
  236MOL0     H31830   0.957   5.101   9.766 -0.6644 -3.0914 -1.0678
  236MOL0     H31831   0.810   5.153   9.850  1.2817  1.6338  3.2522
  236MOL0     H31832   0.974   4.898   9.901 -1.0834 -3.3354  1.5129
  236MOL0     H31833   0.832   4.949   9.999  0.2468 -0.8131  0.0973
  236MOL0     H31834   0.838   4.868   9.701  2.3697  1.7071  0.8262
  236MOL0     H31835   0.697   4.909   9.800 -0.8526 -1.0456  2.0660
  236MOL0     H31836   0.896   4.691   9.871  0.0933  2.3043 -0.1892
  236MOL0     H31837   0.720   4.700   9.924 -2.4743 -2.0147 -2.6331
  236MOL0     H31838   0.810   4.644   9.651 -1.4134 -2.5865 -1.4041
  236MOL0     H31839   0.646   4.678   9.703 -1.0469  0.7468  0.9240
  236MOL0     H31840   0.669   4.481   9.875  0.8685  0.2387  1.3405
  236MOL0     H31841   0.829   4.463   9.812 -0.3401 -1.5715 -1.8339
  236MOL0     H31842   0.849   5.539   9.739  0.1101 -1.3626  3.6233
  236MOL0     H31843   0.904   5.765   9.636 -0.3583  0.0424  0.3692
  236MOL0     H31844   1.341   5.919   9.471  1.9339  0.7738 -1.9765
  236MOL0     H31845   1.468   6.038   9.293  0.8243 -0.5300  1.0318
  236MOL0     H31846   1.991   6.860   7.855  2.0725  1.3021 -1.9693
  236MOL0     H31847   2.185   6.881   7.729  1.7151 -0.7555 -0.3971
  236MOL0     H31848   2.449   6.917   7.385  0.1087 -0.4173  1.1012
  236MOL0     H31849   2.684   6.900   7.246 -0.0370  0.6087 -0.2270
  236MOL0     H31850   2.863   6.828   7.129  0.8518  2.9579 -0.2296
  236MOL0     H31851   2.927   6.931   7.241 -0.3694  1.5247 -3.2861
  236MOL0     H31852   3.099   6.830   7.088  0.7303 -0.0152  0.4298
  236MOL0     H31853   3.077   6.676   7.183 -1.6210  0.9637  1.9341
  236MOL0     H31854   3.178   6.815   7.385  0.9868 -0.4865  0.9327
  236MOL0     H31855   3.161   6.950   7.272  0.8531  0.1029  1.1333
  236MOL0     H31856   3.338   6.825   7.141  3.6114 -0.4462 -0.3779
  236MOL0     H31857   3.359   6.720   7.285 -3.1976  0.0318 -1.2752
  236MOL0     H31858   3.576   7.069   7.415 -0.2121 -1.5898  1.8463
  236MOL0     H31859   2.831   6.631   7.542 -0.5199 -0.4936  1.4843
  236MOL0     H31860   2.613   6.630   7.664 -0.0875 -0.6010  0.1612
  237MOL0     O31861   8.561   4.735  10.205  0.3595  0.1634 -0.4661
  237MOL0     C31862   8.551   4.667  10.308  0.3100 -0.4309  0.0692
  237MOL0     O31863   8.443   4.604  10.351 -0.2617  0.0238 -0.4284
  237MOL0     C31864   8.330   4.609  10.266 -0.4137  0.4739  0.2517
  237MOL0     C31865   8.251   4.723  10.259 -0.7487  0.3416  1.0003
  237MOL0     C31866   8.144   4.726  10.169  0.5922  0.2270 -0.2972
  237MOL0     C31867   8.103   4.609  10.098 -0.5954  0.2429 -0.1423
  237MOL0     O31868   7.991   4.614  10.027  0.0836 -0.2470 -0.2545
  237MOL0     C31869   7.945   4.499   9.955 -0.8071  0.6302 -0.8160
  237MOL0     C31870   7.856   4.408  10.049 -0.0927  0.1253 -0.6366
  237MOL0     C31871   7.803   4.284   9.964 -0.1491  0.7868 -0.3684
  237MOL0     C31872   7.701   4.321   9.861  0.1935 -0.1451  0.6240
  237MOL0     C31873   7.649   4.201   9.782 -0.4239 -0.1561  0.1429
  237MOL0     C31874   7.751   4.119   9.697  1.4731  0.7678 -0.2085
  237MOL0     C31875   7.817   4.193   9.583 -0.3255 -0.4694 -0.8314
  237MOL0     C31876   7.908   4.099   9.504 -0.5520 -0.1706 -0.5930
  237MOL0     N31877   7.837   4.005   9.424  0.4700 -0.1794  0.0150
  237MOL0     C31878   7.767   4.039   9.312 -0.0788  0.0686  1.1988
  237MOL0     C31879   7.733   3.919   9.253 -0.2752 -0.0859 -0.2860
  237MOL0     C31880   7.667   3.915   9.120  0.0509 -0.5303  0.5278
  237MOL0     C31881   7.523   3.948   9.153  0.2615 -0.0051  0.8196
  237MOL0     C31882   7.440   3.964   9.030  0.2990  0.3615  1.1930
  237MOL0     C31883   7.291   3.958   9.051  0.1324 -0.0784 -0.9129
  237MOL0     O31884   7.219   3.966   8.926 -0.0928  0.4105  0.2799
  237MOL0     C31885   7.083   3.974   8.911  0.6217 -0.1384 -0.3628
  237MOL0     C31886   6.996   3.980   9.022  0.9101  0.5911 -0.6592
  237MOL0     C31887   6.858   3.994   9.003 -0.0977 -0.2628 -0.5710
  237MOL0     C31888   6.774   4.010   9.129 -0.6848 -0.6709 -0.2573
  237MOL0     C31889   6.801   4.002   8.873  0.6215 -0.3971 -0.0909
  237MOL0     C31890   6.654   4.032   8.839  0.0337 -0.0536 -0.3536
  237MOL0     O31891   6.600   4.019   8.714 -0.4148 -0.3181  0.0470
  237MOL0     C31892   6.466   4.020   8.690  0.4007  0.0648 -0.5346
  237MOL0     C31893   6.367   4.015   8.789 -0.0688  0.0062 -0.2701
  237MOL0     C31894   6.227   4.021   8.752  0.6149  0.2212 -0.0587
  237MOL0     C31895   6.192   4.018   8.613 -1.2749  0.0610 -0.7482
  237MOL0     O31896   6.062   4.018   8.568 -1.1724  0.0193  0.2554
  237MOL0     C31897   5.937   4.006   8.643  0.8198 -0.1988  0.3773
  237MOL0     C31898   5.891   4.133   8.717  0.8875 -0.3192 -0.7916
  237MOL0     C31899   5.868   4.255   8.624  0.0401  0.1473 -0.0707
  237MOL0     C31900   5.744   4.253   8.537 -0.2740 -0.0414 -0.4886
  237MOL0     C31901   5.741   4.372   8.435 -0.0593 -0.7618 -0.1607
  237MOL0     C31902   5.729   4.520   8.494  0.6734 -0.3262  0.0045
  237MOL0     C31903   5.708   4.626   8.382  0.5540 -0.0387  1.4394
  237MOL0     C31904   5.830   4.662   8.312  0.3189 -0.4970  0.5242
  237MOL0    Cl31905   5.804   4.764   8.156  0.0687 -0.0774 -0.1812
  237MOL0     C31906   6.291   4.008   8.519 -0.0640  0.0265  0.6224
  237MOL0     C31907   6.428   4.004   8.557  0.2744 -0.5569 -0.0787
  237MOL0     O31908   6.604   4.105   8.922  0.0627  0.0329  0.5171
  237MOL0     C31909   6.885   3.997   8.761 -0.7151  0.5119 -0.6991
  237MOL0     C31910   7.024   3.981   8.784  0.7162  0.4411 -0.0404
  237MOL0     N31911   7.772   3.821   9.339  0.0167  0.4886  0.5989
  237MOL0     N31912   7.836   3.868   9.438  0.0599  0.1434  0.0732
  237MOL0     C31913   8.174   4.486  10.127  0.6349  1.0082  0.3805
  237MOL0     C31914   8.288   4.490  10.203 -0.6817  0.1702 -0.3209
  237MOL0     C31915   8.676   4.633  10.380  0.9139  0.2276  0.3901
  237MOL0     C31916   8.676   4.526  10.480 -0.0152 -0.2245 -0.6148
  237MOL0     C31917   8.791   4.497  10.553  0.1625  0.0077 -0.1475
  237MOL0     C31918   8.904   4.564  10.533 -0.1515 -0.0451 -0.4475
  237MOL0     O31919   9.010   4.514  10.608 -0.1645  0.4822 -0.1720
  237MOL0     C31920   9.135   4.499  10.541 -0.2173 -0.5078  0.7725
  237MOL0     C31921   9.158   4.397  10.432 -0.0469  0.9665  0.7297
  237MOL0     C31922   9.162   4.248  10.494 -0.6099  0.2165 -0.6471
  237MOL0     C31923   9.294   4.203  10.553 -0.2439 -0.1264  0.1295
  237MOL0     C31924   9.296   4.231  10.695 -0.0898  0.9217 -0.6375
  237MOL0     C31925   9.313   4.252  10.814 -0.9637 -0.5204  0.7947
  237MOL0     C31926   8.908   4.671  10.442  0.5937 -0.1286  0.0120
  237MOL0     C31927   8.795   4.709  10.363  0.3078 -0.8826  0.4896
  237MOL0     H31928   8.273   4.812  10.317  0.0272 -0.6210  2.2321
  237MOL0     H31929   8.092   4.822  10.172  0.7560  0.3020  0.2043
  237MOL0     H31930   7.885   4.526   9.868 -1.7278 -3.5293 -1.6942
  237MOL0     H31931   8.034   4.449   9.915 -0.3926 -0.2761  1.0920
  237MOL0     H31932   7.921   4.382  10.132 -2.5963 -1.3925  1.0104
  237MOL0     H31933   7.780   4.471  10.096 -0.4006 -0.3790 -0.4438
  237MOL0     H31934   7.887   4.228   9.922  0.1417  1.3592 -0.5532
  237MOL0     H31935   7.754   4.213  10.031  0.5667 -0.9344 -1.6142
  237MOL0     H31936   7.616   4.374   9.906 -0.4476 -2.1538  1.9146
  237MOL0     H31937   7.746   4.387   9.786  0.3054 -3.0803 -2.1032
  237MOL0     H31938   7.618   4.125   9.855  3.8661 -3.8582 -1.4079
  237MOL0     H31939   7.560   4.243   9.735 -0.0964  1.4813  0.9400
  237MOL0     H31940   7.820   4.078   9.771 -1.1165 -0.2368  1.8235
  237MOL0     H31941   7.691   4.036   9.657 -0.4769  1.6689  0.6815
  237MOL0     H31942   7.750   4.246   9.515 -2.3742  1.2455  2.2541
  237MOL0     H31943   7.882   4.265   9.635 -2.7695 -0.8855  3.2478
  237MOL0     H31944   7.966   4.046   9.580 -0.7027  0.8049  0.2204
  237MOL0     H31945   7.975   4.153   9.436  1.4813 -0.0741  1.3574
  237MOL0     H31946   7.773   4.140   9.273  1.4990 -0.6016 -0.4701
  237MOL0     H31947   7.706   3.991   9.052  0.6280 -1.7151 -0.5097
  237MOL0     H31948   7.687   3.816   9.077 -2.0754 -0.6938 -0.1688
  237MOL0     H31949   7.507   4.040   9.210  0.4787  1.5729 -1.5244
  237MOL0     H31950   7.480   3.860   9.202  1.0343 -0.2879  1.0010
  237MOL0     H31951   7.465   3.886   8.957 -1.3849  1.1723 -0.3294
  237MOL0     H31952   7.460   4.054   8.971 -0.1663  0.6560  1.4869
  237MOL0     H31953   7.262   4.045   9.110 -1.5017 -2.0859  1.4309
  237MOL0     H31954   7.262   3.866   9.102 -0.4317  1.4776  1.7602
  237MOL0     H31955   7.030   3.982   9.124  1.4282  0.3394 -0.8250
  237MOL0     H31956   6.835   4.010   9.220 -1.3224 -2.4609  0.2096
  237MOL0     H31957   6.716   4.103   9.134  1.1072  0.4320  1.0436
  237MOL0     H31958   6.705   3.925   9.136 -0.1334 -1.1444 -0.5003
  237MOL0     H31959   6.387   4.015   8.895 -0.9261 -0.3542 -0.0989
  237MOL0     H31960   6.145   4.011   8.822  1.1386 -1.5021  0.3612
  237MOL0     H31961   5.850   3.989   8.579  0.5665 -2.3305  1.1985
  237MOL0     H31962   5.943   3.918   8.707  1.5029 -0.6193 -0.2460
  237MOL0     H31963   5.792   4.108   8.756  0.2934  0.4368 -1.7706
  237MOL0     H31964   5.966   4.159   8.793  3.4213  1.4937 -3.6212
  237MOL0     H31965   5.952   4.271   8.556  0.8300  1.6799  1.1948
  237MOL0     H31966   5.867   4.341   8.691 -1.0338 -0.4354  0.6840
  237MOL0     H31967   5.745   4.158   8.483  0.9196  0.2183 -0.9449
  237MOL0     H31968   5.653   4.262   8.597  1.7321  0.6858  2.6786
  237MOL0     H31969   5.666   4.345   8.360  1.1718 -4.4193 -0.2336
  237MOL0     H31970   5.832   4.367   8.375  0.7927 -0.7867  1.0767
  237MOL0     H31971   5.647   4.512   8.566  0.8432 -0.9660  0.1347
  237MOL0     H31972   5.815   4.560   8.549  0.6331  1.3176 -1.0476
  237MOL0     H31973   5.672   4.722   8.421 -3.1398 -0.1227 -1.1619
  237MOL0     H31974   5.630   4.599   8.310  0.2085 -0.8432  2.0989
  237MOL0     H31975   5.888   4.571   8.293 -0.0966 -0.8224  0.7976
  237MOL0     H31976   5.881   4.722   8.388 -1.0045 -0.5727  1.5115
  237MOL0     H31977   6.262   3.992   8.416 -0.9029 -4.0724  1.3416
  237MOL0     H31978   6.493   4.009   8.470 -1.6306  3.0662 -1.5331
  237MOL0     H31979   6.846   4.004   8.660 -2.6032 -1.1021 -0.1467
  237MOL0     H31980   7.088   3.983   8.696  1.4416 -0.4324  0.4550
  237MOL0     H31981   8.138   4.390  10.092 -1.4862  1.0985  2.0747
  237MOL0     H31982   8.343   4.399  10.225  1.2893  1.5325  0.7163
  237MOL0     H31983   8.595   4.456  10.497  2.2490 -2.9868 -0.2703
  237MOL0     H31984   8.768   4.420  10.626 -0.5546 -1.7052 -2.0830
  237MOL0     H31985   9.176   4.592  10.501 -0.8115  0.0074  1.3398
  237MOL0     H31986   9.215   4.474  10.612  2.3544 -1.1904 -2.1313
  237MOL0     H31987   9.250   4.418  10.377  0.2718 -2.8945 -0.4721
  237MOL0     H31988   9.071   4.389  10.366  0.5072  0.7516  0.0033
  237MOL0     H31989   9.145   4.174  10.415  0.4431 -1.0789  0.3052
  237MOL0     H31990   9.085   4.230  10.569  1.1076 -3.8025  0.3871
  237MOL0     H31991   9.381   4.236  10.497  1.1509 -1.4164  1.4150
  237MOL0     H31992   9.304   4.095  10.537  0.3924  0.3603 -3.7488
  237MOL0     H31993   9.336   4.287  10.913 -1.2118  0.9925  0.3577
  237MOL0     H31994   8.992   4.740  10.431 -1.1783  2.2089  0.3658
  237MOL0     H31995   8.795   4.789  10.289  3.8625 -1.5816 -0.4503
  238MOL0     O31996   0.742  11.429   2.979  0.2712 -0.4766  0.1353
  238MOL0     C31997   0.684  11.501   2.891  0.2992 -0.2248 -0.0105
  238MOL0     O31998   0.680  11.631   2.894  0.6069 -0.2181  1.0573
  238MOL0     C31999   0.752  11.706   2.975 -0.4807 -0.5503 -0.6601
  238MOL0     C32000   0.722  11.719   3.113 -0.1341  0.4071  0.6686
  238MOL0     C32001   0.803  11.817   3.177  0.1901  0.3627  0.6297
  238MOL0     C32002   0.905  11.887   3.115 -1.0991  0.0007  0.1962
  238MOL0     O32003   0.985  11.981   3.168  0.1425 -0.1861 -0.0488
  238MOL0     C32004   0.974  12.012   3.309 -0.2706 -0.0174  0.4512
  238MOL0     C32005   1.056  12.133   3.332 -0.0900 -0.7925  0.5931
  238MOL0     C32006   1.045  12.249   3.220 -0.1126 -0.5744 -0.1304
  238MOL0     C32007   1.127  12.362   3.282  0.2399  0.3815  0.1067
  238MOL0     C32008   1.138  12.484   3.189  0.2935  0.3286  0.0849
  238MOL0     C32009   1.007  12.530   3.124  0.7018  0.6158  1.1218
  238MOL0     C32010   0.909  12.579   3.230 -0.8144 -0.5959  0.1261
  238MOL0     C32011   0.957  12.685   3.320  0.0408 -0.5885  0.3002
  238MOL0     N32012   0.988  12.812   3.254 -0.0025 -0.2469  0.9931
  238MOL0     C32013   1.076  12.839   3.151 -0.2158 -0.2102  0.0288
  238MOL0     C32014   1.046  12.969   3.115  1.1443 -0.0382 -0.8831
  238MOL0     C32015   1.132  13.038   3.013  0.2350  0.6824  0.2616
  238MOL0     C32016   1.109  12.992   2.863 -0.1272  0.1204  0.4443
  238MOL0     C32017   0.968  13.017   2.816  0.1759 -0.2976  0.4956
  238MOL0     C32018   0.944  13.161   2.799 -0.0322  0.2533 -0.0760
  238MOL0     O32019   1.016  13.200   2.684 -0.1491  0.1649  0.4575
  238MOL0     C32020   0.986  13.304   2.609 -0.3716  1.1665  0.4306
  238MOL0     C32021   0.871  13.376   2.611  0.7463  0.6574 -0.4929
  238MOL0     C32022   0.846  13.477   2.518 -0.3443 -0.6695  0.2733
  238MOL0     C32023   0.729  13.570   2.528  0.5306  0.1160  0.2927
  238MOL0     C32024   0.940  13.492   2.407 -0.5408  0.2118  0.3054
  238MOL0     C32025   0.943  13.598   2.300 -0.1164  0.1122  0.9989
  238MOL0     O32026   1.054  13.600   2.212 -0.3338 -0.4783  0.0059
  238MOL0     C32027   1.062  13.701   2.122  0.9204 -0.1179  0.3845
  238MOL0     C32028   1.028  13.675   1.991  0.8531  0.7363  1.1220
  238MOL0     C32029   1.013  13.780   1.898  0.0761  0.1321  0.5427
  238MOL0     C32030   1.046  13.910   1.929  0.0968 -0.6588 -0.3526
  238MOL0     O32031   1.020  14.006   1.832 -0.2898 -0.1052  0.5224
  238MOL0     C32032   1.019  14.145   1.857  0.3410 -1.4490  0.4321
  238MOL0     C32033   0.958  14.226   1.742 -0.3490 -0.5968 -0.2313
  238MOL0     C32034   0.945  14.371   1.775  0.0716  0.6319 -0.0264
  238MOL0     C32035   1.073  14.438   1.734 -0.3518  0.1756 -1.1799
  238MOL0     C32036   1.057  14.589   1.717  0.4636  0.0092 -0.1106
  238MOL0     C32037   1.169  14.654   1.642 -0.0708 -0.2687  0.9215
  238MOL0     C32038   1.149  14.805   1.617 -0.2000 -0.3870  0.6599
  238MOL0     C32039   1.224  14.851   1.486  0.4576 -0.0681 -1.2111
  238MOL0    Cl32040   1.399  14.833   1.503  0.2999 -0.0095 -0.2554
  238MOL0     C32041   1.085  13.938   2.057  1.0178 -0.5348  0.2298
  238MOL0     C32042   1.090  13.833   2.152 -0.1342 -0.2433 -0.3685
  238MOL0     O32043   0.852  13.680   2.295  0.3517 -0.0418 -0.1812
  238MOL0     C32044   1.058  13.420   2.412  0.1782 -0.0818 -0.3352
  238MOL0     C32045   1.085  13.325   2.507 -0.0764 -0.5172 -0.1232
  238MOL0     N32046   0.959  13.020   3.217  0.9520 -0.9473  0.2166
  238MOL0     N32047   0.921  12.922   3.296  0.6630 -0.7882  0.8995
  238MOL0     C32048   0.937  11.854   2.980 -0.1017  0.2669  0.6686
  238MOL0     C32049   0.850  11.784   2.905  0.0448 -0.0756  0.3308
  238MOL0     C32050   0.624  11.438   2.768  0.5073  0.0962  0.2271
  238MOL0     C32051   0.610  11.299   2.765 -0.5096 -0.4361  0.1283
  238MOL0     C32052   0.568  11.232   2.656  0.0277  0.3843  0.7417
  238MOL0     C32053   0.522  11.303   2.544 -0.0058 -0.7190  0.0087
  238MOL0     O32054   0.468  11.231   2.440  0.0517  0.6612 -0.9013
  238MOL0     C32055   0.325  11.235   2.431  0.6731  0.1779 -0.0074
  238MOL0     C32056   0.284  11.175   2.301  0.3486  0.2171 -0.2117
  238MOL0     C32057   0.296  11.248   2.163 -0.4088  0.4419  0.1632
  238MOL0     C32058   0.235  11.387   2.160 -0.4480  0.1424 -0.2227
  238MOL0     C32059   0.280  11.442   2.026 -0.0787  0.7244  0.2239
  238MOL0     C32060   0.321  11.477   1.917  0.2053  0.4677 -0.1776
  238MOL0     C32061   0.530  11.443   2.541 -0.3634  0.9576  0.6045
  238MOL0     C32062   0.584  11.508   2.652 -0.5163  0.2323 -0.3533
  238MOL0     H32063   0.639  11.665   3.158 -0.9819  1.0639 -0.0743
  238MOL0     H32064   0.784  11.841   3.281 -0.7984 -2.4639  1.1843
  238MOL0     H32065   0.873  12.025   3.347 -1.3190 -0.8511 -1.8355
  238MOL0     H32066   1.014  11.928   3.366 -0.9360 -0.4420  0.3002
  238MOL0     H32067   1.025  12.174   3.429 -1.3043  1.7159 -0.7545
  238MOL0     H32068   1.160  12.098   3.341 -0.0535 -0.8964 -0.1333
  238MOL0     H32069   1.085  12.222   3.122  0.0644 -3.6504  0.7070
  238MOL0     H32070   0.940  12.281   3.218  0.7261  2.7668  1.6017
  238MOL0     H32071   1.109  12.381   3.388  0.2939  1.2632 -0.0296
  238MOL0     H32072   1.229  12.327   3.300 -0.4955 -0.0040  4.5836
  238MOL0     H32073   1.186  12.567   3.240  0.4501  0.2503  0.0656
  238MOL0     H32074   1.202  12.455   3.105  2.0403  1.1436  1.0948
  238MOL0     H32075   1.040  12.601   3.048 -0.2587 -0.3629 -0.2626
  238MOL0     H32076   0.963  12.455   3.058  2.6656  0.2603  0.1456
  238MOL0     H32077   0.821  12.618   3.177 -2.7776  1.4970  4.4305
  238MOL0     H32078   0.869  12.495   3.287 -1.7791 -0.1942  0.0631
  238MOL0     H32079   1.046  12.639   3.364  1.1547  0.6813 -0.5126
  238MOL0     H32080   0.876  12.707   3.390 -1.5757  3.2337 -2.3753
  238MOL0     H32081   1.157  12.776   3.116 -0.2764 -0.6617  0.6931
  238MOL0     H32082   1.124  13.147   3.018 -0.1060  0.5948  3.7120
  238MOL0     H32083   1.236  13.022   3.042  0.3146 -0.8296 -0.6782
  238MOL0     H32084   1.136  12.886   2.855 -3.0257 -0.6450 -0.4660
  238MOL0     H32085   1.169  13.046   2.790 -1.0459 -2.6093 -2.6122
  238MOL0     H32086   0.904  12.970   2.892  1.6313 -3.6271 -0.1658
  238MOL0     H32087   0.954  12.960   2.723  1.8357  0.3080 -0.1634
  238MOL0     H32088   0.977  13.215   2.888 -1.6857  3.4896 -1.2655
  238MOL0     H32089   0.837  13.176   2.779  0.9080  2.3946 -4.9687
  238MOL0     H32090   0.788  13.351   2.676  2.4951 -0.3055  1.4914
  238MOL0     H32091   0.762  13.673   2.517 -0.5312  0.3735 -0.5758
  238MOL0     H32092   0.653  13.553   2.451 -1.5625 -0.6267  2.3950
  238MOL0     H32093   0.703  13.544   2.631  1.4023 -1.1211  0.2299
  238MOL0     H32094   0.997  13.576   1.959  1.5810  1.4196 -1.9881
  238MOL0     H32095   0.977  13.763   1.798 -1.4526 -0.8389  1.2248
  238MOL0     H32096   0.954  14.154   1.945  1.0224 -0.5028  0.8572
  238MOL0     H32097   1.119  14.179   1.885  2.4622 -3.6904 -3.5535
  238MOL0     H32098   1.004  14.197   1.647  0.8437 -1.7038  0.6490
  238MOL0     H32099   0.860  14.180   1.726  0.5243 -1.9887 -1.8933
  238MOL0     H32100   0.906  14.392   1.874 -2.2220 -0.7686 -0.5497
  238MOL0     H32101   0.862  14.414   1.718  0.5742  1.9563  0.2099
  238MOL0     H32102   1.160  14.416   1.797 -1.2546 -3.6305 -1.0202
  238MOL0     H32103   1.099  14.399   1.635  3.1866 -0.6558 -0.0720
  238MOL0     H32104   1.048  14.623   1.821 -1.4108 -2.0936  0.4958
  238MOL0     H32105   0.964  14.620   1.668  0.3077 -0.6355 -0.2304
  238MOL0     H32106   1.269  14.631   1.681  1.5010  2.2249 -1.2200
  238MOL0     H32107   1.168  14.616   1.539 -2.8602  0.8953  0.4386
  238MOL0     H32108   1.183  14.854   1.708  3.1564 -1.7472  0.2698
  238MOL0     H32109   1.044  14.832   1.603 -0.0232  0.0199  0.0869
  238MOL0     H32110   1.200  14.955   1.464  1.7370  0.0650 -2.0533
  238MOL0     H32111   1.175  14.810   1.397  0.9927 -0.2372 -1.4312
  238MOL0     H32112   1.115  14.040   2.080 -1.4425  0.3684 -0.1517
  238MOL0     H32113   1.124  13.838   2.255 -4.0538 -0.7941  1.0940
  238MOL0     H32114   1.127  13.424   2.329 -1.3394  0.2187 -1.6509
  238MOL0     H32115   1.176  13.266   2.499 -0.3733 -2.1775  4.9158
  238MOL0     H32116   1.025  11.899   2.934 -1.1195  2.7420  1.0340
  238MOL0     H32117   0.865  11.767   2.799  6.1609 -0.3675  0.9065
  238MOL0     H32118   0.644  11.250   2.855  0.4125  0.0380  0.0453
  238MOL0     H32119   0.565  11.124   2.663  2.4508  0.3667  3.5655
  238MOL0     H32120   0.286  11.181   2.518  1.1886 -0.8201 -0.3737
  238MOL0     H32121   0.293  11.339   2.432  0.7170  0.1891  0.3899
  238MOL0     H32122   0.179  11.149   2.314  0.2903  1.7429  3.6432
  238MOL0     H32123   0.336  11.081   2.284 -1.5683 -0.6172 -1.8516
  238MOL0     H32124   0.259  11.178   2.088  2.6110 -0.6339 -0.4769
  238MOL0     H32125   0.404  11.249   2.146 -0.3368 -1.1421  0.3269
  238MOL0     H32126   0.279  11.449   2.239  5.5712 -2.7292 -0.7831
  238MOL0     H32127   0.126  11.387   2.163 -0.4636 -1.3731  0.0612
  238MOL0     H32128   0.360  11.513   1.824 -3.3485  1.4399 -1.4333
  238MOL0     H32129   0.488  11.500   2.460 -0.8575 -1.6666 -1.1014
  238MOL0     H32130   0.597  11.615   2.647 -2.6898  0.6772  1.7851
  239MOL0     O32131   8.662   7.870   5.011 -0.7056 -0.3191 -1.0961
  239MOL0     C32132   8.777   7.930   5.017  0.0081  0.4059  0.7297
  239MOL0     O32133   8.858   7.956   4.918 -1.4664  0.4070 -0.4591
  239MOL0     C32134   8.844   7.897   4.796 -1.4464  0.9467  0.0950
  239MOL0     C32135   8.722   7.874   4.736  0.2628 -0.6686  0.4776
  239MOL0     C32136   8.719   7.813   4.609 -0.9462  0.4603 -0.1594
  239MOL0     C32137   8.837   7.791   4.529 -0.7211 -0.1358  0.2970
  239MOL0     O32138   8.839   7.744   4.400 -0.4396 -1.1521  0.0603
  239MOL0     C32139   8.725   7.703   4.326 -0.6912 -0.1436  0.0462
  239MOL0     C32140   8.760   7.627   4.199 -0.1006  0.8861 -0.3279
  239MOL0     C32141   8.793   7.474   4.227 -0.6017  0.1661  0.1343
  239MOL0     C32142   8.842   7.402   4.098 -0.5110 -0.8368 -0.4230
  239MOL0     C32143   8.921   7.263   4.106  0.3428 -0.3715  0.8262
  239MOL0     C32144   8.824   7.177   4.192  0.5155 -0.9678  0.0795
  239MOL0     C32145   8.881   7.038   4.202 -0.7603 -0.2722 -0.5380
  239MOL0     C32146   8.777   6.942   4.239 -0.0484 -0.0403  0.2233
  239MOL0     N32147   8.827   6.807   4.216 -0.4987  0.6056 -0.1599
  239MOL0     C32148   8.772   6.704   4.131  0.0024 -1.3003 -1.2735
  239MOL0     C32149   8.848   6.602   4.148  0.1351  1.0671 -0.0053
  239MOL0     C32150   8.820   6.466   4.086  0.0511  0.0408 -0.4871
  239MOL0     C32151   8.885   6.427   3.945 -0.5616  0.5884  0.5429
  239MOL0     C32152   9.032   6.451   3.949 -0.7356 -0.5155 -1.3260
  239MOL0     C32153   9.101   6.398   3.818  0.0596  0.2844  0.1184
  239MOL0     O32154   9.246   6.421   3.819 -0.5334  0.5801 -0.1042
  239MOL0     C32155   9.304   6.525   3.765 -0.0540 -0.2527 -0.1808
  239MOL0     C32156   9.447   6.531   3.770 -0.3249  0.3068 -0.3296
  239MOL0     C32157   9.526   6.634   3.730  0.2909  0.2254  0.1201
  239MOL0     C32158   9.682   6.621   3.751  0.8132 -0.2662 -0.2438
  239MOL0     C32159   9.462   6.738   3.664 -1.6645 -1.0223  0.2140
  239MOL0     C32160   9.539   6.855   3.617  0.0377 -0.3125 -0.7900
  239MOL0     O32161   9.490   6.915   3.506  1.2083 -0.3422  0.2623
  239MOL0     C32162   9.540   7.041   3.498 -0.2277  0.9411  0.0227
  239MOL0     C32163   9.657   7.068   3.423 -0.2315 -0.7691  0.2270
  239MOL0     C32164   9.697   7.202   3.404 -0.3653 -0.4621  0.7869
  239MOL0     C32165   9.625   7.312   3.450 -0.5119  1.2115  0.2217
  239MOL0     O32166   9.659   7.437   3.416 -0.2761  0.4850 -0.5377
  239MOL0     C32167   9.676   7.530   3.525  0.3999 -0.2521 -0.5089
  239MOL0     C32168   9.743   7.655   3.477 -0.4415 -1.0389  0.8596
  239MOL0     C32169   9.800   7.750   3.584  0.1314 -0.0303  0.3680
  239MOL0     C32170   9.871   7.876   3.519  0.3891 -0.3461  0.2568
  239MOL0     C32171   9.910   7.969   3.634 -0.7424 -0.7075  0.2385
  239MOL0     C32172   9.980   8.105   3.582 -0.5418 -0.5905  0.2702
  239MOL0     C32173  10.080   8.164   3.679  0.6313 -0.1292  0.6007
  239MOL0     C32174  10.124   8.308   3.617  1.0978 -0.0076  0.0216
  239MOL0    Cl32175  10.228   8.273   3.482 -0.5390  0.0370  0.2222
  239MOL0     C32176   9.507   7.281   3.515 -0.2146 -0.5282 -0.4516
  239MOL0     C32177   9.462   7.148   3.536 -0.2353 -0.4808 -0.4261
  239MOL0     O32178   9.646   6.883   3.667  0.0525 -0.6653  0.3029
  239MOL0     C32179   9.320   6.742   3.645 -0.9469  0.4253 -0.9194
  239MOL0     C32180   9.245   6.631   3.698 -0.3503 -0.4672  0.4482
  239MOL0     N32181   8.960   6.643   4.210 -0.3084 -0.5245 -0.7206
  239MOL0     N32182   8.946   6.765   4.254 -0.2457  0.2089 -0.6881
  239MOL0     C32183   8.954   7.844   4.586  0.2696  0.4518  0.6464
  239MOL0     C32184   8.962   7.878   4.722  1.1729 -0.0028 -0.2117
  239MOL0     C32185   8.821   7.975   5.147  0.5523 -0.4977  1.0059
  239MOL0     C32186   8.954   7.997   5.171  0.1328  0.4473  0.3749
  239MOL0     C32187   8.996   8.058   5.288  0.4739 -0.1271 -0.1835
  239MOL0     C32188   8.899   8.065   5.392 -0.5773 -0.1171  1.6209
  239MOL0     O32189   8.934   8.139   5.506  0.3085  0.7640 -1.2226
  239MOL0     C32190   8.840   8.164   5.618  0.3385  0.1445  0.5636
  239MOL0     C32191   8.922   8.216   5.736  1.2600  0.0455  0.7629
  239MOL0     C32192   8.832   8.244   5.858 -0.6089  0.1659  0.0450
  239MOL0     C32193   8.892   8.333   5.969 -0.2279  1.0358 -1.1364
  239MOL0     C32194   8.910   8.464   5.926  0.3306 -0.9023  0.5245
  239MOL0     C32195   8.929   8.579   5.895 -0.0625 -0.1290  0.4564
  239MOL0     C32196   8.767   8.033   5.371 -0.8922 -0.1234  0.0146
  239MOL0     C32197   8.729   7.987   5.250 -0.7485 -1.2168 -0.2977
  239MOL0     H32198   8.625   7.909   4.769 -0.8817 -2.4201 -0.8143
  239MOL0     H32199   8.620   7.790   4.574 -0.3487 -2.3041 -0.2526
  239MOL0     H32200   8.662   7.632   4.381  0.2038  1.2873  3.0916
  239MOL0     H32201   8.676   7.797   4.300 -0.5821 -0.6698 -2.3000
  239MOL0     H32202   8.672   7.619   4.134  0.5880 -0.2895 -1.1473
  239MOL0     H32203   8.843   7.675   4.146  0.9513 -0.7508 -0.2286
  239MOL0     H32204   8.877   7.459   4.296 -0.1423  1.7851 -0.0207
  239MOL0     H32205   8.704   7.422   4.262 -0.9294  0.0331 -0.8754
  239MOL0     H32206   8.749   7.379   4.046  0.8627 -2.8994 -2.1699
  239MOL0     H32207   8.902   7.470   4.037  1.4824 -0.8892  1.3511
  239MOL0     H32208   8.942   7.227   4.005  3.7785  3.1066  0.1221
  239MOL0     H32209   9.019   7.279   4.151  0.8487  1.1928 -0.7336
  239MOL0     H32210   8.803   7.214   4.293  0.3114 -3.5084  1.0409
  239MOL0     H32211   8.729   7.165   4.140  1.9961 -2.4798 -2.5249
  239MOL0     H32212   8.917   7.020   4.101 -1.3149  2.2268 -1.2438
  239MOL0     H32213   8.961   7.023   4.274 -0.6481 -0.2542 -0.6590
  239MOL0     H32214   8.685   6.975   4.191  2.4871  4.9886 -1.9820
  239MOL0     H32215   8.761   6.952   4.346 -1.0854  1.5238 -0.0400
  239MOL0     H32216   8.683   6.714   4.069 -1.0743  1.3484  0.5031
  239MOL0     H32217   8.864   6.392   4.153  1.9530  0.4478 -1.2219
  239MOL0     H32218   8.712   6.449   4.087  0.1265 -0.8480  2.5522
  239MOL0     H32219   8.850   6.491   3.864  0.0876  1.1978  0.7305
  239MOL0     H32220   8.869   6.320   3.927 -3.1605  0.6279  2.1030
  239MOL0     H32221   9.075   6.403   4.038  2.7496  3.6866 -0.4258
  239MOL0     H32222   9.057   6.555   3.971  1.8227 -1.9889  5.0983
  239MOL0     H32223   9.044   6.435   3.733 -1.7945 -0.4285  0.9773
  239MOL0     H32224   9.085   6.291   3.835  1.5582  0.1597  0.9385
  239MOL0     H32225   9.489   6.456   3.835 -0.9501 -0.2358 -0.5444
  239MOL0     H32226   9.728   6.632   3.653 -0.3249  0.1704 -0.7533
  239MOL0     H32227   9.717   6.706   3.811 -1.2107 -0.7321  1.7439
  239MOL0     H32228   9.720   6.531   3.800 -1.4439  0.4969  3.2949
  239MOL0     H32229   9.710   6.990   3.369 -1.8566  0.0998 -2.8890
  239MOL0     H32230   9.793   7.214   3.355 -0.1947 -1.4490  0.8532
  239MOL0     H32231   9.579   7.552   3.570  0.3330 -0.1092 -0.7259
  239MOL0     H32232   9.737   7.489   3.607  1.1423 -0.5163 -1.1830
  239MOL0     H32233   9.822   7.611   3.416  1.0092  0.5474  1.4920
  239MOL0     H32234   9.666   7.719   3.433 -0.2523 -0.8297  0.8313
  239MOL0     H32235   9.864   7.701   3.658 -2.2006 -1.6480  1.4404
  239MOL0     H32236   9.710   7.774   3.642  0.3168  2.7728 -0.3483
  239MOL0     H32237   9.967   7.854   3.472  1.2211  1.7690  0.8756
  239MOL0     H32238   9.814   7.925   3.440  0.8473  0.2587  0.2928
  239MOL0     H32239   9.962   7.918   3.715 -0.9737 -4.0763 -1.5545
  239MOL0     H32240   9.817   8.006   3.677 -0.3868 -2.2365  2.5020
  239MOL0     H32241  10.025   8.090   3.483 -1.1166  4.5254 -1.0397
  239MOL0     H32242   9.905   8.182   3.559  2.0460  1.2942 -2.6398
  239MOL0     H32243  10.167   8.100   3.700  1.1541  0.4268  0.1760
  239MOL0     H32244  10.026   8.196   3.768 -1.6306  1.1936 -1.1509
  239MOL0     H32245  10.179   8.377   3.681 -0.3303  2.0414 -0.8703
  239MOL0     H32246  10.042   8.363   3.569  0.2336 -2.3457 -1.3899
  239MOL0     H32247   9.441   7.364   3.539 -1.6948 -0.9065 -2.8316
  239MOL0     H32248   9.361   7.124   3.568  0.1090 -3.7652 -1.3374
  239MOL0     H32249   9.264   6.828   3.610  0.9376  2.9285  1.7170
  239MOL0     H32250   9.137   6.638   3.704 -0.2184  0.3404  2.8941
  239MOL0     H32251   9.044   7.842   4.525 -0.0756  0.1800  0.1370
  239MOL0     H32252   9.054   7.917   4.764  1.0019 -0.8409  0.9667
  239MOL0     H32253   9.015   7.965   5.087 -2.6787  0.4978 -1.8467
  239MOL0     H32254   9.102   8.082   5.292  1.6855 -4.1647 -2.1654
  239MOL0     H32255   8.768   8.240   5.587  0.7664 -0.3782 -2.0116
  239MOL0     H32256   8.791   8.070   5.647 -1.9376  1.1471  0.1506
  239MOL0     H32257   8.968   8.312   5.711  2.7122 -0.7738  0.1902
  239MOL0     H32258   9.000   8.142   5.757  0.4985 -0.5259  1.6530
  239MOL0     H32259   8.819   8.147   5.907 -0.4004 -0.6570 -1.4787
  239MOL0     H32260   8.735   8.277   5.820 -1.2640  0.1245  1.6117
  239MOL0     H32261   8.988   8.293   6.002 -0.8238 -0.7694 -1.4303
  239MOL0     H32262   8.823   8.328   6.054 -1.6961 -1.8402 -2.3530
  239MOL0     H32263   8.955   8.677   5.861 -0.5064 -1.2494 -3.6556
  239MOL0     H32264   8.690   8.043   5.448 -0.6679 -0.5018  0.2886
  239MOL0     H32265   8.624   7.975   5.225 -0.6663  1.6715 -2.5411
  240MOL0     O32266   7.820   2.640   0.155  0.7119  1.0742  0.3579
  240MOL0     C32267   7.784   2.525   0.172  0.1112  0.1375 -0.5082
  240MOL0     O32268   7.665   2.479   0.220 -0.1483 -0.1875 -0.0476
  240MOL0     C32269   7.584   2.567   0.290 -0.3072 -0.2538 -0.2384
  240MOL0     C32270   7.601   2.576   0.426 -0.2407  0.3785  0.8231
  240MOL0     C32271   7.524   2.656   0.509 -0.3797 -0.2321 -0.4613
  240MOL0     C32272   7.416   2.723   0.458 -0.3033  1.1212  1.1818
  240MOL0     O32273   7.330   2.804   0.529 -0.9674  0.5603  0.4059
  240MOL0     C32274   7.295   2.756   0.656  0.9888  0.3569 -0.6245
  240MOL0     C32275   7.230   2.874   0.731  0.0738 -0.7972  1.1436
  240MOL0     C32276   7.186   2.838   0.882 -0.4226  0.6416 -0.3660
  240MOL0     C32277   7.295   2.843   0.990 -0.1000 -0.6233 -0.1970
  240MOL0     C32278   7.253   2.784   1.121  0.1554  0.1042  0.2816
  240MOL0     C32279   7.369   2.783   1.229  0.0890  0.8279 -1.5777
  240MOL0     C32280   7.318   2.709   1.357 -0.2218 -1.3225  0.2511
  240MOL0     C32281   7.336   2.552   1.359 -0.0017 -0.5797 -0.9973
  240MOL0     N32282   7.304   2.500   1.491  0.0304 -0.4650 -0.0556
  240MOL0     C32283   7.196   2.427   1.533 -0.4573 -1.1982 -0.3853
  240MOL0     C32284   7.221   2.405   1.663  0.4890  0.0693 -0.4736
  240MOL0     C32285   7.117   2.327   1.749 -0.5608  0.2182  1.1081
  240MOL0     C32286   7.005   2.410   1.803  0.6929 -0.1057 -0.9952
  240MOL0     C32287   6.891   2.312   1.844  0.2506 -0.6642 -0.4619
  240MOL0     C32288   6.794   2.372   1.944  0.1342 -0.3164  0.2331
  240MOL0     O32289   6.718   2.484   1.887  0.2412  0.7388 -0.0164
  240MOL0     C32290   6.580   2.471   1.908  0.1664 -1.1962  0.1046
  240MOL0     C32291   6.523   2.425   2.030  0.0371  0.1963 -0.0029
  240MOL0     C32292   6.384   2.421   2.036  0.7057  0.0103  0.4220
  240MOL0     C32293   6.324   2.393   2.174 -0.7064  0.2152 -0.0153
  240MOL0     C32294   6.305   2.444   1.924 -0.2385  0.6994  0.4744
  240MOL0     C32295   6.162   2.434   1.913  0.7627 -0.5846 -0.3044
  240MOL0     O32296   6.109   2.344   1.823 -0.1914 -0.0930  0.1937
  240MOL0     C32297   5.972   2.339   1.806 -0.0061  0.9460  0.3450
  240MOL0     C32298   5.909   2.213   1.803  0.5808  0.2218 -0.7440
  240MOL0     C32299   5.771   2.208   1.817  0.3859 -0.4371  0.3765
  240MOL0     C32300   5.686   2.316   1.817  0.0633 -0.4376 -0.8277
  240MOL0     O32301   5.553   2.294   1.816  0.1778 -0.6505  0.0544
  240MOL0     C32302   5.466   2.399   1.854 -0.2496  0.0854 -0.6397
  240MOL0     C32303   5.475   2.422   2.003 -0.2749 -0.4052 -0.3864
  240MOL0     C32304   5.380   2.540   2.050 -1.1728  0.7438  0.4709
  240MOL0     C32305   5.428   2.573   2.187  0.0165  0.4100 -0.2397
  240MOL0     C32306   5.364   2.708   2.238  0.1516 -0.3418  0.7046
  240MOL0     C32307   5.220   2.702   2.283 -0.3246 -0.4589  0.4119
  240MOL0     C32308   5.187   2.831   2.368 -0.5698 -0.3975  0.4579
  240MOL0     C32309   5.040   2.834   2.401 -0.0380 -0.1904 -0.1702
  240MOL0    Cl32310   4.982   2.992   2.468  0.0386 -0.1213 -0.3333
  240MOL0     C32311   5.750   2.438   1.805 -0.4285  1.0583  0.1006
  240MOL0     C32312   5.886   2.449   1.797 -0.5400 -0.0022  1.1725
  240MOL0     O32313   6.091   2.502   1.990 -0.0380 -0.2708 -0.4319
  240MOL0     C32314   6.363   2.480   1.811  0.3061  0.4035  0.7716
  240MOL0     C32315   6.502   2.505   1.800  0.0217  0.0513  0.2194
  240MOL0     N32316   7.333   2.473   1.701 -0.1039  0.9465  0.6597
  240MOL0     N32317   7.389   2.523   1.596 -0.1774 -0.2827 -0.9118
  240MOL0     C32318   7.399   2.723   0.314  0.1866  0.1925 -0.7004
  240MOL0     C32319   7.479   2.639   0.231 -0.0650 -0.0057 -0.7945
  240MOL0     C32320   7.889   2.424   0.132  1.0858 -1.0087  0.1672
  240MOL0     C32321   7.853   2.308   0.062  0.5754 -0.5446  0.5030
  240MOL0     C32322   7.945   2.227   0.002 -0.3311  0.9746  0.2533
  240MOL0     C32323   8.081   2.243   0.020  0.5412  0.1861 -0.9206
  240MOL0     O32324   8.179   2.164  -0.019 -0.3955  0.4140 -0.0361
  240MOL0     C32325   8.154   2.036  -0.076 -0.8233 -0.5618 -0.1336
  240MOL0     C32326   8.113   1.947   0.039  0.1012 -0.1650 -0.5892
  240MOL0     C32327   8.236   1.916   0.134  1.0962 -0.4216 -0.5414
  240MOL0     C32328   8.184   1.843   0.257 -0.0835 -0.1160  0.5518
  240MOL0     C32329   8.286   1.828   0.357  0.9068 -0.2081  0.4072
  240MOL0     C32330   8.361   1.818   0.445  0.8285  1.1468 -0.0393
  240MOL0     C32331   8.111   2.351   0.106 -0.3766 -1.0762 -0.5727
  240MOL0     C32332   8.018   2.442   0.165 -0.5687  0.2685 -0.0417
  240MOL0     H32333   7.677   2.515   0.473 -1.9552 -1.1287  1.7326
  240MOL0     H32334   7.549   2.659   0.615 -0.4963  0.3898 -0.4450
  240MOL0     H32335   7.221   2.676   0.641  1.0250 -0.4997  2.8610
  240MOL0     H32336   7.372   2.712   0.720  0.6932  0.0583 -0.4700
  240MOL0     H32337   7.298   2.958   0.743  0.8209 -1.2733  0.3742
  240MOL0     H32338   7.143   2.913   0.677 -0.0870 -1.5371  0.8501
  240MOL0     H32339   7.094   2.889   0.911 -0.9722 -0.4270 -0.2121
  240MOL0     H32340   7.151   2.736   0.869 -0.1823  0.4011  0.7721
  240MOL0     H32341   7.376   2.783   0.948 -1.1256  1.1630 -5.5357
  240MOL0     H32342   7.328   2.947   0.993 -2.8314  0.3621 -1.0312
  240MOL0     H32343   7.169   2.850   1.145  1.6546  2.6805 -1.0057
  240MOL0     H32344   7.204   2.688   1.102 -0.5070  0.8623 -2.3137
  240MOL0     H32345   7.452   2.723   1.188  1.4205  0.5886  1.2409
  240MOL0     H32346   7.392   2.888   1.247  0.5936  0.4646  0.1047
  240MOL0     H32347   7.381   2.744   1.439 -0.1481  2.1078 -1.1107
  240MOL0     H32348   7.217   2.746   1.379  1.0226  3.4451 -0.9390
  240MOL0     H32349   7.441   2.525   1.343 -0.1205 -0.2713 -2.4378
  240MOL0     H32350   7.269   2.505   1.286 -1.5563  1.7602 -1.2102
  240MOL0     H32351   7.122   2.393   1.461 -0.0752 -2.8745 -0.0285
  240MOL0     H32352   7.074   2.247   1.689  0.2481 -0.3051  1.2035
  240MOL0     H32353   7.173   2.279   1.831  0.8663 -1.6486 -0.8497
  240MOL0     H32354   6.967   2.476   1.724 -0.9917 -1.4792 -1.3974
  240MOL0     H32355   7.034   2.470   1.889  0.7976  0.3932 -1.3747
  240MOL0     H32356   6.945   2.229   1.890  1.7949  2.3896  3.9189
  240MOL0     H32357   6.829   2.290   1.757 -0.8737 -0.6844  0.3323
  240MOL0     H32358   6.851   2.415   2.027 -0.7995 -1.6992  1.6528
  240MOL0     H32359   6.729   2.289   1.974 -1.3225 -0.6103 -3.2855
  240MOL0     H32360   6.592   2.426   2.114 -0.1242 -1.1983  0.1624
  240MOL0     H32361   6.390   2.435   2.251  1.3549 -1.5590 -0.7261
  240MOL0     H32362   6.218   2.413   2.193 -0.8009 -1.2102  1.1521
  240MOL0     H32363   6.334   2.284   2.174  1.1498  0.3304  1.4273
  240MOL0     H32364   5.958   2.116   1.799 -4.2483 -2.4655 -1.4171
  240MOL0     H32365   5.720   2.112   1.815  1.3034 -0.9254  0.0653
  240MOL0     H32366   5.493   2.490   1.801  3.5408  0.1100  1.0203
  240MOL0     H32367   5.361   2.378   1.830 -0.4725  0.1249  0.2375
  240MOL0     H32368   5.444   2.334   2.061  1.7405  0.4287  2.1296
  240MOL0     H32369   5.576   2.443   2.037  0.2695 -0.0900 -2.1210
  240MOL0     H32370   5.276   2.505   2.047 -0.2844 -2.1365 -1.1093
  240MOL0     H32371   5.386   2.625   1.982 -2.0658 -1.2864 -2.3631
  240MOL0     H32372   5.411   2.490   2.257  0.0919 -2.8377 -3.7286
  240MOL0     H32373   5.537   2.582   2.176 -0.0075  0.5285 -0.3963
  240MOL0     H32374   5.365   2.770   2.148 -0.9334 -0.4763  0.5811
  240MOL0     H32375   5.424   2.753   2.318 -0.2482 -1.1719  1.4911
  240MOL0     H32376   5.180   2.695   2.182  5.5373 -1.8920 -2.2032
  240MOL0     H32377   5.205   2.611   2.343  0.6661  0.7124  2.5555
  240MOL0     H32378   5.213   2.920   2.309  2.7454 -1.0392  0.7418
  240MOL0     H32379   5.259   2.834   2.451  0.5257 -0.2913 -0.4725
  240MOL0     H32380   5.021   2.754   2.474  1.2961 -1.2866 -0.9889
  240MOL0     H32381   4.983   2.813   2.310  1.3282 -0.8169 -0.9082
  240MOL0     H32382   5.700   2.535   1.807 -1.5704  0.4841  1.4001
  240MOL0     H32383   5.930   2.548   1.784 -1.9911  0.7100  1.4590
  240MOL0     H32384   6.301   2.488   1.722  0.1005 -0.8329  0.7815
  240MOL0     H32385   6.548   2.554   1.714  1.3784 -0.9468  0.3407
  240MOL0     H32386   7.325   2.787   0.266 -2.0079 -2.6493 -1.3794
  240MOL0     H32387   7.451   2.627   0.127  1.4158  2.5016 -1.5816
  240MOL0     H32388   7.749   2.278   0.048  0.3236  0.4765  0.1275
  240MOL0     H32389   7.919   2.144  -0.063 -1.6109  1.1687  0.4972
  240MOL0     H32390   8.071   2.027  -0.146  0.3146  0.3850 -1.6659
  240MOL0     H32391   8.249   2.002  -0.117  1.2287 -0.0837  3.7146
  240MOL0     H32392   8.088   1.846   0.005 -0.7618  0.2659 -1.2929
  240MOL0     H32393   8.023   1.976   0.095  0.0758 -1.0548 -0.1384
  240MOL0     H32394   8.279   2.009   0.171 -1.2122 -0.5511  2.9030
  240MOL0     H32395   8.317   1.866   0.079  0.2743 -2.0444 -0.3505
  240MOL0     H32396   8.148   1.744   0.228 -2.3886  1.2663 -1.6738
  240MOL0     H32397   8.100   1.887   0.311 -0.8535  2.2084 -2.2853
  240MOL0     H32398   8.424   1.805   0.531  1.8544  1.0364 -0.7941
  240MOL0     H32399   8.213   2.367   0.139 -0.8865 -0.6406  0.8705
  240MOL0     H32400   8.050   2.525   0.227 -1.4716 -0.0369  0.8562
  241MOL0     O32401   3.571   3.344  11.417 -0.0063 -0.2307  0.0266
  241MOL0     C32402   3.479   3.324  11.498 -0.1785 -0.3549 -0.1106
  241MOL0     O32403   3.499   3.271  11.620  0.0400 -0.3410 -0.5287
  241MOL0     C32404   3.614   3.204  11.655  0.4759  0.3301  1.3172
  241MOL0     C32405   3.630   3.191  11.794 -0.2486 -0.9182  0.8255
  241MOL0     C32406   3.744   3.112  11.846 -0.1903  0.1269  0.1686
  241MOL0     C32407   3.835   3.056  11.758 -0.4226  0.4199  0.4800
  241MOL0     O32408   3.954   3.003  11.805 -0.1530  0.3943  0.2213
  241MOL0     C32409   3.984   2.873  11.765 -0.1017  0.0871  0.9657
  241MOL0     C32410   4.020   2.781  11.883 -0.0321  0.8990  0.7361
  241MOL0     C32411   4.090   2.820  12.014 -0.1621  0.2844  0.4136
  241MOL0     C32412   3.998   2.886  12.117  0.6786  0.1831  0.7050
  241MOL0     C32413   4.050   2.879  12.261 -1.0270 -0.5392  0.5593
  241MOL0     C32414   3.941   2.925  12.356 -0.2231 -1.1251  0.7171
  241MOL0     C32415   3.852   2.806  12.382  0.1799  0.1467  0.4632
  241MOL0     C32416   3.704   2.838  12.418  0.6945  0.3796 -0.4038
  241MOL0     N32417   3.634   2.917  12.315 -0.3871 -0.1519  0.0316
  241MOL0     C32418   3.577   3.039  12.325  0.2722 -1.1150  0.4310
  241MOL0     C32419   3.528   3.066  12.204  0.7446 -0.3377  0.3830
  241MOL0     C32420   3.456   3.195  12.156  0.6501  0.6631 -0.4682
  241MOL0     C32421   3.312   3.165  12.129  0.4287 -0.2457  0.6198
  241MOL0     C32422   3.302   3.110  11.982 -0.8275  0.1784 -0.2590
  241MOL0     C32423   3.206   2.993  11.988  0.5526  0.3086 -0.3843
  241MOL0     O32424   3.069   3.037  12.010  0.3499  0.4232  0.7836
  241MOL0     C32425   3.001   3.059  11.897 -0.4730 -1.2231  0.8480
  241MOL0     C32426   2.952   2.951  11.822  0.3891  0.5633  0.8262
  241MOL0     C32427   2.854   2.964  11.715 -0.0236  0.3810 -1.2134
  241MOL0     C32428   2.823   2.840  11.635  0.2304  0.2428 -0.5703
  241MOL0     C32429   2.795   3.092  11.696  0.2285  0.9348  0.0790
  241MOL0     C32430   2.685   3.121  11.593  1.2247  0.8197 -0.1770
  241MOL0     O32431   2.714   3.234  11.520 -0.4151 -0.8532  0.2952
  241MOL0     C32432   2.644   3.245  11.403 -0.1329 -0.2519  0.8825
  241MOL0     C32433   2.726   3.241  11.285  1.0851 -0.3633 -0.0770
  241MOL0     C32434   2.661   3.240  11.160  0.2884 -0.5827  0.8323
  241MOL0     C32435   2.524   3.253  11.148 -0.2745  1.1847  0.4824
  241MOL0     O32436   2.464   3.260  11.023 -0.4383 -0.0868 -0.5112
  241MOL0     C32437   2.327   3.305  10.994 -0.5229 -0.2268 -0.9370
  241MOL0     C32438   2.222   3.202  10.995 -0.1257  0.4464 -0.2064
  241MOL0     C32439   2.089   3.258  10.936 -0.0847  0.2976 -0.4289
  241MOL0     C32440   1.993   3.138  10.908  0.2768  0.7947 -0.2933
  241MOL0     C32441   1.866   3.183  10.835 -0.0227  0.0519 -0.2525
  241MOL0     C32442   1.796   3.050  10.807 -0.4142  1.1133 -0.9299
  241MOL0     C32443   1.671   3.096  10.731 -0.6996  0.1103 -0.1105
  241MOL0     C32444   1.606   2.990  10.656  0.4508  0.9321  0.1742
  241MOL0    Cl32445   1.608   2.839  10.751 -0.0276  0.1477  0.0344
  241MOL0     C32446   2.455   3.275  11.264  0.0997 -0.1480 -0.8719
  241MOL0     C32447   2.507   3.241  11.384 -0.5269  0.3106 -0.1863
  241MOL0     O32448   2.595   3.038  11.574  0.3134  0.4229  0.4944
  241MOL0     C32449   2.842   3.197  11.775 -0.2238 -0.2795 -0.0101
  241MOL0     C32450   2.937   3.182  11.874 -0.4164 -0.7694  0.8997
  241MOL0     N32451   3.540   2.949  12.133 -0.4959 -0.1724 -0.5349
  241MOL0     N32452   3.599   2.857  12.209  1.0730  0.1878  0.2176
  241MOL0     C32453   3.814   3.083  11.620  0.4432  0.6347  1.3014
  241MOL0     C32454   3.702   3.139  11.562 -0.0516 -0.7702  0.8085
  241MOL0     C32455   3.342   3.383  11.476 -1.2580 -0.0281  0.5304
  241MOL0     C32456   3.313   3.456  11.360 -0.0748 -0.1187 -0.9332
  241MOL0     C32457   3.186   3.506  11.333  0.0804  0.7632 -0.5359
  241MOL0     C32458   3.082   3.494  11.422 -0.3448 -1.0877 -0.5733
  241MOL0     O32459   2.959   3.537  11.381  0.0165 -0.3843  0.0114
  241MOL0     C32460   2.847   3.546  11.468  0.7545  0.2344 -0.5975
  241MOL0     C32461   2.733   3.627  11.422  0.7413 -0.1700  0.3141
  241MOL0     C32462   2.605   3.586  11.507  0.5450 -0.3988 -0.6427
  241MOL0     C32463   2.474   3.637  11.443  0.2386  0.3246 -0.1850
  241MOL0     C32464   2.393   3.697  11.551  0.0641  0.0264 -0.5796
  241MOL0     C32465   2.320   3.740  11.635  0.1904 -0.0595 -0.3823
  241MOL0     C32466   3.112   3.441  11.549 -0.7285  0.3815 -0.7791
  241MOL0     C32467   3.239   3.382  11.577 -0.8185  0.2676 -0.7849
  241MOL0     H32468   3.555   3.231  11.861 -0.5517 -0.3820  0.1706
  241MOL0     H32469   3.762   3.095  11.951 -2.7914 -0.4336  0.5738
  241MOL0     H32470   3.895   2.826  11.723  0.4249  1.1165 -1.4889
  241MOL0     H32471   4.061   2.876  11.687  0.2701 -1.0008  1.2729
  241MOL0     H32472   3.929   2.721  11.894 -2.3653  3.6333 -1.9667
  241MOL0     H32473   4.091   2.711  11.838  0.0229 -1.7143  4.4035
  241MOL0     H32474   4.119   2.721  12.050  2.7093  0.1135 -1.9520
  241MOL0     H32475   4.186   2.873  12.008  0.8045 -1.1717  2.1604
  241MOL0     H32476   3.989   2.989  12.082 -1.6563  0.0350  0.7219
  241MOL0     H32477   3.901   2.837  12.103  2.8137 -3.5488 -4.1896
  241MOL0     H32478   4.095   2.784  12.291  0.3928  0.1984  0.8583
  241MOL0     H32479   4.134   2.948  12.259  0.0494 -1.6976 -3.6749
  241MOL0     H32480   3.983   2.971  12.445 -1.7527 -0.2635  1.0199
  241MOL0     H32481   3.880   2.995  12.299 -0.5879 -1.9087  0.1177
  241MOL0     H32482   3.827   2.739  12.300  2.6201 -1.0986  0.6385
  241MOL0     H32483   3.892   2.736  12.457  0.5025 -1.8808 -1.5019
  241MOL0     H32484   3.696   2.898  12.508  0.6288  1.8897 -1.3840
  241MOL0     H32485   3.655   2.743  12.442  2.6885 -0.0074  2.8202
  241MOL0     H32486   3.588   3.115  12.402 -2.4984  1.7898 -1.8085
  241MOL0     H32487   3.463   3.281  12.223 -1.8279  0.4377  0.1693
  241MOL0     H32488   3.500   3.224  12.060 -0.3861 -0.6517 -1.3763
  241MOL0     H32489   3.246   3.252  12.139 -2.0031 -1.6518 -1.6999
  241MOL0     H32490   3.272   3.094  12.202  1.2854 -0.1068  1.2331
  241MOL0     H32491   3.402   3.074  11.955  0.8117  3.9557  0.2137
  241MOL0     H32492   3.258   3.170  11.903 -2.8163 -3.6212 -2.3056
  241MOL0     H32493   3.245   2.935  12.072  0.4546  0.2282 -0.3941
  241MOL0     H32494   3.215   2.934  11.896  1.1604  2.5358 -1.8189
  241MOL0     H32495   2.995   2.852  11.829  0.5727  0.4675 -1.0832
  241MOL0     H32496   2.719   2.816  11.662 -0.3650  1.0640 -2.0151
  241MOL0     H32497   2.837   2.851  11.527  0.3366  4.6553 -0.2788
  241MOL0     H32498   2.891   2.759  11.663 -0.0683  0.3019  0.3632
  241MOL0     H32499   2.834   3.244  11.281  1.1903  0.7197  2.1372
  241MOL0     H32500   2.719   3.233  11.068  2.0562 -1.0550  1.9264
  241MOL0     H32501   2.299   3.393  11.052 -1.2778  0.0053 -1.6422
  241MOL0     H32502   2.330   3.348  10.894 -1.2567 -0.0451 -0.8837
  241MOL0     H32503   2.252   3.119  10.931  0.4473 -0.5690  1.2987
  241MOL0     H32504   2.209   3.165  11.098  1.9960  0.5914  0.1583
  241MOL0     H32505   2.097   3.309  10.839  0.4248  2.1664  0.5408
  241MOL0     H32506   2.049   3.325  11.012 -1.6784 -0.0036 -0.9710
  241MOL0     H32507   2.037   3.072  10.833  3.2740  0.4230  1.6322
  241MOL0     H32508   1.970   3.071  10.992 -1.3517  0.4642 -0.9577
  241MOL0     H32509   1.915   3.239  10.755  1.3076  1.0972  1.2055
  241MOL0     H32510   1.812   3.249  10.904  1.3979  0.9072  0.0945
  241MOL0     H32511   1.866   2.989  10.749  0.0689  1.4806 -0.7368
  241MOL0     H32512   1.770   3.006  10.904  1.6865  5.5094  1.9119
  241MOL0     H32513   1.685   3.176  10.658 -1.1910  1.4539  1.2083
  241MOL0     H32514   1.608   3.134  10.813  1.1454  2.5108  0.3022
  241MOL0     H32515   1.674   2.970  10.573  0.9866  1.5584  0.4598
  241MOL0     H32516   1.502   3.006  10.623 -0.0442 -1.3270  0.5073
  241MOL0     H32517   2.347   3.281  11.268  0.1995  1.0246  1.5469
  241MOL0     H32518   2.439   3.239  11.468 -1.0495 -0.8577 -0.6199
  241MOL0     H32519   2.799   3.292  11.745 -2.7944 -1.1275  0.6985
  241MOL0     H32520   2.968   3.258  11.945 -1.8578 -1.2920  2.1152
  241MOL0     H32521   3.891   3.066  11.545 -1.3751  0.8300 -0.6899
  241MOL0     H32522   3.678   3.150  11.457 -0.3673  1.3792  1.0674
  241MOL0     H32523   3.393   3.442  11.287  0.9602  2.0282 -0.2731
  241MOL0     H32524   3.152   3.548  11.239 -2.4829  0.8741  0.3842
  241MOL0     H32525   2.817   3.444  11.495 -0.0040 -0.1935 -2.8640
  241MOL0     H32526   2.871   3.596  11.562 -1.1974  0.4320 -0.1667
  241MOL0     H32527   2.716   3.595  11.319  2.2634  2.4704 -0.8826
  241MOL0     H32528   2.751   3.735  11.414 -3.1341  0.5181 -1.5269
  241MOL0     H32529   2.615   3.622  11.610  1.9269 -3.3408  0.3773
  241MOL0     H32530   2.604   3.477  11.507  0.9384 -0.4265  0.6887
  241MOL0     H32531   2.429   3.546  11.403  1.5731 -0.4917  0.1004
  241MOL0     H32532   2.481   3.721  11.374 -2.8519 -0.1579 -1.2057
  241MOL0     H32533   2.266   3.786  11.715  1.5282  1.9639 -0.5820
  241MOL0     H32534   3.030   3.441  11.621  0.4021  1.0376  0.5420
  241MOL0     H32535   3.251   3.314  11.662 -0.5497  2.2344  0.8352
  242MOL0     O32536   8.164   9.960   2.474  0.1678  0.0170  0.0865
  242MOL0     C32537   8.110  10.027   2.384 -0.6694  1.3140  0.2498
  242MOL0     O32538   8.174  10.072   2.272  0.0751 -0.4673 -0.4395
  242MOL0     C32539   8.310  10.043   2.256  0.0242 -0.2292 -0.1310
  242MOL0     C32540   8.405  10.040   2.357  0.5764  0.2450 -0.3801
  242MOL0     C32541   8.541  10.019   2.330  0.8246 -0.4618 -0.7257
  242MOL0     C32542   8.588   9.980   2.202 -0.2612  0.4595  1.2723
  242MOL0     O32543   8.723   9.952   2.162  0.3580 -0.3635  0.3918
  242MOL0     C32544   8.818   9.934   2.270  0.5339  0.6721 -0.1521
  242MOL0     C32545   8.878  10.070   2.300 -0.0836  0.3467 -0.4837
  242MOL0     C32546   9.006  10.089   2.233 -0.1855 -0.4902  0.0012
  242MOL0     C32547   8.989  10.158   2.099 -0.6172 -0.4174  0.2837
  242MOL0     C32548   9.125  10.185   2.037  0.0560  0.9776 -1.0535
  242MOL0     C32549   9.110  10.235   1.892 -0.1411 -0.3030  0.8123
  242MOL0     C32550   9.243  10.280   1.825  0.3633 -1.1038  0.7371
  242MOL0     C32551   9.335  10.151   1.809 -0.0796 -0.7572  0.2334
  242MOL0     N32552   9.457  10.199   1.739 -0.2330  0.1909 -0.2651
  242MOL0     C32553   9.470  10.185   1.602  0.2375  0.1293  0.4344
  242MOL0     C32554   9.598  10.219   1.579 -0.5694  0.0853 -0.3052
  242MOL0     C32555   9.648  10.222   1.445 -0.2301  0.6710  0.4091
  242MOL0     C32556   9.790  10.173   1.442 -0.1127  0.2044  0.8826
  242MOL0     C32557   9.801  10.024   1.452  0.2922  0.6096  0.1549
  242MOL0     C32558   9.942   9.984   1.458  0.0221  0.2177 -0.3375
  242MOL0     O32559   9.993   9.973   1.327  0.8752  0.8730 -0.7442
  242MOL0     C32560  10.123   9.937   1.309 -0.2423  0.6056  0.7634
  242MOL0     C32561  10.223   9.944   1.410 -0.0444  0.1645 -0.0304
  242MOL0     C32562  10.355   9.943   1.366  0.3136  1.4817 -0.6456
  242MOL0     C32563  10.454   9.936   1.479 -0.1294  0.1617  0.3338
  242MOL0     C32564  10.395   9.939   1.229  0.6127  0.0400 -0.2072
  242MOL0     C32565  10.534   9.947   1.169  0.2233 -0.4902  0.7785
  242MOL0     O32566  10.541   9.965   1.031 -0.0187  1.0084 -0.0322
  242MOL0     C32567  10.658   9.944   0.964 -0.0729  0.8917 -0.0059
  242MOL0     C32568  10.760  10.043   0.955 -0.1896 -0.4265  0.2923
  242MOL0     C32569  10.883  10.027   0.888 -0.0944  0.2929  0.4598
  242MOL0     C32570  10.898   9.909   0.813  0.1230 -0.4820  0.4016
  242MOL0     O32571  10.996   9.886   0.724  0.3310  0.3814 -0.5140
  242MOL0     C32572  11.094   9.983   0.717  0.0485 -0.1323  0.8265
  242MOL0     C32573  11.190   9.964   0.593  0.1933  0.6537 -0.1491
  242MOL0     C32574  11.291   9.853   0.625  0.9617 -0.9192  0.9218
  242MOL0     C32575  11.385   9.831   0.507  0.1273 -1.1032 -0.2908
  242MOL0     C32576  11.507   9.753   0.551 -0.7810 -0.0174  0.3974
  242MOL0     C32577  11.617   9.750   0.437 -0.6999 -0.7259  0.1815
  242MOL0     C32578  11.741   9.678   0.487  0.3010  0.1426 -0.0012
  242MOL0     C32579  11.814   9.625   0.364 -1.4109 -0.8788  0.6197
  242MOL0    Cl32580  11.981   9.636   0.414  0.1184 -0.4252 -0.7419
  242MOL0     C32581  10.808   9.805   0.821  0.4605  0.0455  0.1436
  242MOL0     C32582  10.686   9.826   0.886  0.7244 -0.7729  0.4807
  242MOL0     O32583  10.633   9.925   1.244  0.5900  0.4374 -0.0489
  242MOL0     C32584  10.287   9.933   1.135 -0.6942  0.0544 -0.8350
  242MOL0     C32585  10.149   9.932   1.174 -0.4417 -0.3781 -0.0649
  242MOL0     N32586   9.663  10.255   1.700  0.8980  1.2711  0.1632
  242MOL0     N32587   9.578  10.233   1.794 -0.2681 -0.2112 -1.0266
  242MOL0     C32588   8.489   9.971   2.103 -0.0198  0.0056 -1.1156
  242MOL0     C32589   8.358  10.014   2.130  0.2918 -0.1900  0.7936
  242MOL0     C32590   7.961  10.053   2.388  0.2743 -0.0867 -0.3417
  242MOL0     C32591   7.875  10.000   2.480  0.7286  0.5257  0.8794
  242MOL0     C32592   7.740  10.033   2.470  0.4725  0.2976 -1.0636
  242MOL0     C32593   7.688  10.131   2.381 -0.2910  0.3167 -0.0284
  242MOL0     O32594   7.557  10.173   2.377 -0.2185  0.8054  0.4669
  242MOL0     C32595   7.459  10.067   2.393 -0.1329  0.8511  0.1706
  242MOL0     C32596   7.389  10.083   2.535  0.3058  0.0892  0.0952
  242MOL0     C32597   7.341  10.221   2.589  0.3847  0.1188  0.9999
  242MOL0     C32598   7.263  10.293   2.484  0.2128  0.2690  0.1276
  242MOL0     C32599   7.148  10.225   2.429  0.5696  0.6469  0.0437
  242MOL0     C32600   7.064  10.153   2.383  0.8715 -0.0762 -0.1463
  242MOL0     C32601   7.776  10.178   2.288  0.6265 -0.1940  0.3396
  242MOL0     C32602   7.914  10.141   2.287  0.2104  0.3294 -0.4470
  242MOL0     H32603   8.376  10.062   2.459 -1.8632 -3.0817 -0.1921
  242MOL0     H32604   8.612  10.020   2.411 -1.0581  0.3421  1.0081
  242MOL0     H32605   8.762   9.898   2.357 -0.4544 -1.0782 -1.4688
  242MOL0     H32606   8.881   9.850   2.239  0.3584  1.3344 -2.5046
  242MOL0     H32607   8.814  10.158   2.296  0.6456  0.8476 -1.3248
  242MOL0     H32608   8.902  10.059   2.406  1.4836  0.8896 -0.7593
  242MOL0     H32609   9.071  10.146   2.300  2.4402 -5.2114  1.9518
  242MOL0     H32610   9.056   9.995   2.207  1.2522  0.6014 -1.3666
  242MOL0     H32611   8.921  10.103   2.034 -0.9015  1.3516 -0.9860
  242MOL0     H32612   8.935  10.253   2.105  0.3377  0.4223 -2.5063
  242MOL0     H32613   9.174  10.263   2.096  0.3196 -0.9746  1.4605
  242MOL0     H32614   9.189  10.097   2.038 -0.0308  0.9155 -0.2385
  242MOL0     H32615   9.064  10.159   1.828 -1.6523  1.1116  0.1329
  242MOL0     H32616   9.037  10.316   1.904 -1.2210 -1.6019  3.9941
  242MOL0     H32617   9.218  10.326   1.729  0.0634  2.0703  2.2099
  242MOL0     H32618   9.295  10.350   1.892 -0.6276  1.9098 -1.4246
  242MOL0     H32619   9.298  10.065   1.752  1.1379 -1.6671  0.7728
  242MOL0     H32620   9.371  10.116   1.906  0.6642  0.5169  0.4420
  242MOL0     H32621   9.403  10.154   1.523  1.1385  2.0008 -1.1427
  242MOL0     H32622   9.586  10.161   1.379 -0.3325  0.5622  0.6049
  242MOL0     H32623   9.638  10.322   1.402  0.6951  0.1374 -1.1010
  242MOL0     H32624   9.847  10.222   1.521  0.3472  1.2722 -0.0820
  242MOL0     H32625   9.840  10.218   1.356  1.9758  3.5217  3.5512
  242MOL0     H32626   9.754   9.966   1.373  1.2016  0.8643 -0.5902
  242MOL0     H32627   9.753   9.991   1.545 -0.9396  3.0308  0.4559
  242MOL0     H32628   9.953   9.890   1.514 -0.4151  1.2473  1.5760
  242MOL0     H32629  10.005  10.058   1.509 -0.7063  0.8832 -0.3996
  242MOL0     H32630  10.213   9.941   1.518 -1.5113  0.9032 -0.1175
  242MOL0     H32631  10.412   9.895   1.572  1.4669 -2.8300 -0.1607
  242MOL0     H32632  10.516   9.851   1.449 -2.2444 -1.8265  1.2413
  242MOL0     H32633  10.519  10.024   1.479 -0.4099  0.3719  0.2621
  242MOL0     H32634  10.750  10.130   1.019  1.4552 -0.2180  0.3145
  242MOL0     H32635  10.961  10.103   0.896 -0.0279  0.3911 -0.9185
  242MOL0     H32636  11.039  10.075   0.692  0.9560 -0.0706 -1.1478
  242MOL0     H32637  11.157   9.986   0.806  0.8695 -1.3346  0.3106
  242MOL0     H32638  11.136   9.929   0.504  1.3391 -1.3698 -0.1040
  242MOL0     H32639  11.239  10.058   0.566 -1.2372  0.6819 -2.9970
  242MOL0     H32640  11.232   9.762   0.643  1.0475 -1.2260 -0.2977
  242MOL0     H32641  11.348   9.878   0.715  2.2582 -2.4541  0.5891
  242MOL0     H32642  11.347   9.765   0.429 -1.5889 -0.3506 -0.1399
  242MOL0     H32643  11.406   9.928   0.461 -0.3764 -0.0873  1.4998
  242MOL0     H32644  11.481   9.649   0.575 -1.4475  0.2103  0.6921
  242MOL0     H32645  11.546   9.786   0.648 -2.0342 -0.8462  1.2234
  242MOL0     H32646  11.573   9.697   0.352 -0.6512 -0.0733 -0.2536
  242MOL0     H32647  11.642   9.853   0.412 -1.1766 -0.6788 -0.1049
  242MOL0     H32648  11.706   9.594   0.549 -2.3330  0.2103 -1.2753
  242MOL0     H32649  11.809   9.738   0.548 -0.1436 -0.8256  1.5028
  242MOL0     H32650  11.800   9.696   0.282 -2.5449  0.3158  1.7774
  242MOL0     H32651  11.794   9.521   0.335 -0.8961 -1.0177  0.7642
  242MOL0     H32652  10.816   9.712   0.765  0.4832  0.4694 -0.5775
  242MOL0     H32653  10.615   9.743   0.882  0.9027 -0.9542  1.0014
  242MOL0     H32654  10.300   9.913   1.029 -1.0301 -0.0550 -0.8564
  242MOL0     H32655  10.068   9.920   1.102 -0.2198 -0.1416 -0.3592
  242MOL0     H32656   8.517   9.933   2.005 -1.7336  0.0971 -1.6862
  242MOL0     H32657   8.283  10.016   2.051  0.4875 -0.0301  0.6122
  242MOL0     H32658   7.907   9.915   2.539 -0.3985 -0.8578 -0.3975
  242MOL0     H32659   7.667   9.984   2.533  1.7577 -0.6229 -0.2454
  242MOL0     H32660   7.372  10.077   2.328 -2.5643  2.9277  3.4271
  242MOL0     H32661   7.504   9.967   2.391 -0.5276  0.6514  0.9947
  242MOL0     H32662   7.452  10.032   2.609  1.5082  0.0526 -0.9173
  242MOL0     H32663   7.301  10.018   2.531  2.9790 -3.8287 -0.8777
  242MOL0     H32664   7.430  10.275   2.625  0.2208 -0.6264  2.6384
  242MOL0     H32665   7.282  10.221   2.681 -1.8490  2.9842 -0.2964
  242MOL0     H32666   7.332  10.302   2.400  0.7883 -3.3693  0.0375
  242MOL0     H32667   7.238  10.391   2.524 -0.2845  0.0106  0.4613
  242MOL0     H32668   6.985  10.097   2.336  0.8121  0.8396 -1.1804
  242MOL0     H32669   7.736  10.252   2.219  1.2031  0.2945  0.5269
  242MOL0     H32670   7.977  10.184   2.210 -1.1600  0.3018 -1.6163
  243MOL0     O32671   8.227   2.691   3.454 -0.5307  0.1653  0.0448
  243MOL0     C32672   8.227   2.677   3.573 -0.5303  0.5646  0.6358
  243MOL0     O32673   8.308   2.598   3.649  0.5045 -0.8357 -0.1013
  243MOL0     C32674   8.416   2.534   3.604  0.1301 -0.9434  0.5647
  243MOL0     C32675   8.446   2.501   3.467  1.0615 -0.3705 -0.2556
  243MOL0     C32676   8.550   2.410   3.444 -0.0029  0.7117 -0.5941
  243MOL0     C32677   8.630   2.365   3.552 -0.3427  0.6916  0.6526
  243MOL0     O32678   8.736   2.287   3.508  0.7117  0.3296  0.0861
  243MOL0     C32679   8.857   2.364   3.524 -0.1456  0.6976  0.9671
  243MOL0     C32680   8.886   2.436   3.395  0.1735 -0.9142 -0.0025
  243MOL0     C32681   8.899   2.343   3.276 -0.2737  0.9557 -0.5633
  243MOL0     C32682   8.924   2.425   3.156 -0.1246 -0.0477  0.0720
  243MOL0     C32683   8.821   2.544   3.117 -0.2672 -0.7715 -0.7736
  243MOL0     C32684   8.827   2.561   2.962 -0.0154  0.0691  0.3989
  243MOL0     C32685   8.758   2.689   2.912  0.3270 -0.2810 -0.3561
  243MOL0     C32686   8.739   2.712   2.763  0.3472 -0.0809  0.0876
  243MOL0     N32687   8.874   2.688   2.705  0.5681 -0.9714  0.7940
  243MOL0     C32688   8.965   2.791   2.694  0.3863 -0.0886 -0.1553
  243MOL0     C32689   9.065   2.734   2.623  1.4273 -0.3142 -0.3217
  243MOL0     C32690   9.175   2.819   2.559 -0.1275 -0.6423 -0.8117
  243MOL0     C32691   9.128   2.871   2.423 -0.2564  0.8841 -0.9072
  243MOL0     C32692   9.248   2.872   2.328  0.7422  0.3826 -1.6582
  243MOL0     C32693   9.211   2.964   2.212  0.0726  0.4849  0.7503
  243MOL0     O32694   9.160   2.884   2.088 -0.6507 -0.6408  0.0878
  243MOL0     C32695   9.247   2.829   2.000 -0.6011 -0.0104  0.1125
  243MOL0     C32696   9.377   2.791   2.023  0.3617  1.0901  1.1450
  243MOL0     C32697   9.457   2.721   1.924 -0.0859  0.2553  0.9281
  243MOL0     C32698   9.600   2.679   1.953 -0.7438  0.3896 -0.6605
  243MOL0     C32699   9.394   2.678   1.802  0.5593  0.6924  0.3038
  243MOL0     C32700   9.448   2.585   1.696 -0.3109  0.0701  0.6307
  243MOL0     O32701   9.365   2.569   1.585 -0.7926 -0.0692 -0.6166
  243MOL0     C32702   9.400   2.481   1.482  0.4445 -0.3551  0.7828
  243MOL0     C32703   9.333   2.510   1.364  0.4115  0.0398  0.1887
  243MOL0     C32704   9.357   2.435   1.250 -0.5545 -0.2392 -0.4505
  243MOL0     C32705   9.446   2.328   1.250  0.3420 -0.1021 -0.4214
  243MOL0     O32706   9.462   2.248   1.140  0.1763  0.5230 -0.3507
  243MOL0     C32707   9.347   2.214   1.063  0.3997 -0.0322  0.0722
  243MOL0     C32708   9.369   2.091   0.973  0.2489  0.2133 -0.0006
  243MOL0     C32709   9.426   1.968   1.050 -0.0577  0.7463  1.0674
  243MOL0     C32710   9.467   1.854   0.955  0.9056 -0.1152 -0.4508
  243MOL0     C32711   9.514   1.730   1.030 -0.6797 -0.0992 -0.0169
  243MOL0     C32712   9.494   1.605   0.948  0.3385 -0.2895 -0.5353
  243MOL0     C32713   9.578   1.504   1.019 -0.1550 -0.2185  0.0235
  243MOL0     C32714   9.529   1.358   0.997 -0.2741  0.6949  0.0233
  243MOL0    Cl32715   9.644   1.253   1.084 -0.0395 -0.4670 -0.5834
  243MOL0     C32716   9.510   2.292   1.368  0.0508 -0.7921 -0.5899
  243MOL0     C32717   9.479   2.368   1.484  0.2206  0.5271  0.6285
  243MOL0     O32718   9.568   2.556   1.702  0.0119 -0.0820 -0.1865
  243MOL0     C32719   9.258   2.720   1.785 -0.0983  0.4422 -0.3332
  243MOL0     C32720   9.189   2.793   1.884 -0.5619  0.3270 -0.1857
  243MOL0     N32721   9.031   2.603   2.586  0.3536 -0.4860  0.8771
  243MOL0     N32722   8.918   2.570   2.640 -0.1603  0.2271 -0.7337
  243MOL0     C32723   8.597   2.390   3.685  0.8318  0.2665 -0.5019
  243MOL0     C32724   8.489   2.478   3.714  0.6289  0.1909  0.1179
  243MOL0     C32725   8.118   2.754   3.640 -0.2344 -0.4565 -0.8210
  243MOL0     C32726   8.042   2.699   3.747  0.3027 -0.3607  0.1073
  243MOL0     C32727   7.940   2.778   3.816 -0.3850 -0.7523 -0.2780
  243MOL0     C32728   7.916   2.911   3.771  0.0931  0.4868  0.2953
  243MOL0     O32729   7.815   2.976   3.832 -0.1378  0.1315 -0.2680
  243MOL0     C32730   7.835   3.107   3.897  0.0166 -0.1193  0.0966
  243MOL0     C32731   7.733   3.211   3.846 -0.3806 -0.4544 -0.4319
  243MOL0     C32732   7.737   3.248   3.697 -0.4502  0.2152  0.1526
  243MOL0     C32733   7.670   3.135   3.614 -0.4568  0.1075  0.5930
  243MOL0     C32734   7.660   3.174   3.471 -0.5762 -0.0443  0.3902
  243MOL0     C32735   7.636   3.234   3.360 -0.1561 -0.8611 -0.0565
  243MOL0     C32736   7.997   2.965   3.664 -0.0665 -0.8384 -0.5467
  243MOL0     C32737   8.085   2.880   3.597 -0.4893 -0.3652 -0.4905
  243MOL0     H32738   8.390   2.537   3.381 -0.5611  2.7227  1.9054
  243MOL0     H32739   8.580   2.371   3.348 -2.4265 -5.2204  0.6461
  243MOL0     H32740   8.858   2.435   3.607 -2.1120  1.2593  0.5499
  243MOL0     H32741   8.940   2.297   3.548 -1.7489 -2.0345 -0.5442
  243MOL0     H32742   8.811   2.512   3.373 -2.7293 -2.7238  2.7195
  243MOL0     H32743   8.981   2.490   3.406 -0.2199 -0.4222  1.1433
  243MOL0     H32744   8.980   2.271   3.287  1.9822  3.2982 -0.8864
  243MOL0     H32745   8.799   2.299   3.270 -0.9579  2.3678 -0.0018
  243MOL0     H32746   9.020   2.476   3.172  0.4428 -0.8535 -0.6342
  243MOL0     H32747   8.929   2.347   3.079 -3.0285 -0.0070 -0.2560
  243MOL0     H32748   8.723   2.547   3.166 -0.3257  1.4717 -0.8982
  243MOL0     H32749   8.871   2.635   3.153  1.2073 -0.8910 -2.3841
  243MOL0     H32750   8.927   2.552   2.919  0.7402  1.9920  1.6582
  243MOL0     H32751   8.782   2.470   2.920 -0.9508  1.2983 -1.4131
  243MOL0     H32752   8.661   2.700   2.961 -0.6502 -0.1685 -2.2440
  243MOL0     H32753   8.819   2.773   2.948 -0.5312  1.6016 -2.9661
  243MOL0     H32754   8.698   2.811   2.744 -2.4839 -1.0692  0.5030
  243MOL0     H32755   8.667   2.643   2.717  1.4624  1.3161 -4.1255
  243MOL0     H32756   8.960   2.895   2.726 -2.1738 -0.5779  1.3827
  243MOL0     H32757   9.185   2.907   2.623 -1.0889  1.5048 -3.3993
  243MOL0     H32758   9.270   2.767   2.545  0.7209 -0.1608  2.5302
  243MOL0     H32759   9.085   2.971   2.439 -2.6295 -0.3333  1.0979
  243MOL0     H32760   9.049   2.808   2.380  2.8485 -3.0062 -1.4884
  243MOL0     H32761   9.271   2.771   2.294  0.7562 -0.2142  0.0282
  243MOL0     H32762   9.341   2.905   2.376  0.4180  0.2359 -0.9196
  243MOL0     H32763   9.300   3.021   2.183  0.1909 -0.5265 -1.0406
  243MOL0     H32764   9.135   3.037   2.241  0.2406 -0.1987  3.0773
  243MOL0     H32765   9.422   2.805   2.121  1.5299 -1.6216  1.0772
  243MOL0     H32766   9.603   2.570   1.948 -0.2846  0.4533 -2.2171
  243MOL0     H32767   9.676   2.706   1.879 -0.5848 -3.1204 -1.9592
  243MOL0     H32768   9.640   2.713   2.049  1.6728  1.0899 -1.8513
  243MOL0     H32769   9.280   2.604   1.353  1.5997  0.7491  0.3224
  243MOL0     H32770   9.311   2.463   1.155 -0.8437 -0.4461 -0.3732
  243MOL0     H32771   9.262   2.192   1.128 -0.0941  3.5723  0.8696
  243MOL0     H32772   9.313   2.304   1.010 -0.3262 -0.2591  0.1435
  243MOL0     H32773   9.282   2.066   0.912  2.2215  0.3201 -3.0559
  243MOL0     H32774   9.448   2.127   0.907 -0.0574  0.3979 -0.2676
  243MOL0     H32775   9.337   1.932   1.101 -0.0078 -3.3856 -1.3515
  243MOL0     H32776   9.510   1.996   1.115  0.1411 -1.5888  1.9008
  243MOL0     H32777   9.377   1.827   0.899 -0.3267  2.1315  0.3356
  243MOL0     H32778   9.541   1.897   0.887  2.2922 -1.9625 -0.1792
  243MOL0     H32779   9.449   1.741   1.117  2.5117  1.1889  2.4048
  243MOL0     H32780   9.620   1.741   1.054  0.6068 -1.7932 -4.0501
  243MOL0     H32781   9.390   1.573   0.952  0.0028  0.4732 -2.0612
  243MOL0     H32782   9.532   1.619   0.846 -0.2071 -1.3024 -0.8897
  243MOL0     H32783   9.589   1.538   1.122  0.2951  4.4382 -1.3400
  243MOL0     H32784   9.679   1.517   0.977  0.1103  0.5722  0.8628
  243MOL0     H32785   9.538   1.328   0.891 -0.0148  1.2969 -0.1273
  243MOL0     H32786   9.428   1.343   1.035 -0.5004  3.1308  0.5505
  243MOL0     H32787   9.573   2.206   1.387  0.6879 -0.3542 -0.6695
  243MOL0     H32788   9.512   2.339   1.583 -0.7264  1.7432  1.3345
  243MOL0     H32789   9.208   2.699   1.691  1.1934 -0.7987 -0.7624
  243MOL0     H32790   9.087   2.828   1.883 -0.3182  1.0751 -1.3101
  243MOL0     H32791   8.653   2.343   3.765 -2.9269 -0.7543  1.7817
  243MOL0     H32792   8.470   2.506   3.817  1.1202  0.4113  0.1536
  243MOL0     H32793   8.058   2.597   3.779 -0.7544 -0.8213 -0.7919
  243MOL0     H32794   7.877   2.732   3.892  1.7688 -4.1619 -0.3735
  243MOL0     H32795   7.813   3.108   4.004 -4.0166  1.9081 -0.5676
  243MOL0     H32796   7.939   3.142   3.901  0.5235 -1.2776 -1.5874
  243MOL0     H32797   7.738   3.301   3.908 -2.5094 -0.2752 -0.4349
  243MOL0     H32798   7.632   3.171   3.860 -0.9414 -0.0212 -2.7963
  243MOL0     H32799   7.841   3.272   3.671  0.1799  1.1765  3.1186
  243MOL0     H32800   7.680   3.340   3.681 -1.9382 -0.6087  0.6202
  243MOL0     H32801   7.570   3.102   3.644 -1.4168 -1.0632 -3.2795
  243MOL0     H32802   7.739   3.050   3.610  1.5292  1.5991  1.4841
  243MOL0     H32803   7.623   3.277   3.263 -1.1148 -0.0063  0.4401
  243MOL0     H32804   7.985   3.067   3.630 -0.1238 -0.9555 -0.8848
  243MOL0     H32805   8.139   2.918   3.510 -2.2403  2.6249 -0.4401
  244MOL0     O32806   6.743   6.946   9.759 -0.6870 -0.0437  1.4234
  244MOL0     C32807   6.710   6.888   9.653 -0.5937  0.3093  0.5708
  244MOL0     O32808   6.787   6.870   9.537  0.6474  0.0006 -0.0769
  244MOL0     C32809   6.901   6.939   9.535  0.2651 -0.2978 -0.0278
  244MOL0     C32810   7.021   6.884   9.579  0.7784 -0.5975 -0.6875
  244MOL0     C32811   7.148   6.968   9.583  0.4208  1.4070 -0.5981
  244MOL0     C32812   7.135   7.103   9.560 -0.3782 -0.6659  0.2288
  244MOL0     O32813   7.233   7.199   9.565  0.6168  0.5373 -0.0907
  244MOL0     C32814   7.358   7.153   9.606  0.3102 -0.2707 -0.0436
  244MOL0     C32815   7.358   7.140   9.758 -0.0042 -0.5283  0.4140
  244MOL0     C32816   7.496   7.104   9.818 -0.0014  0.3702  0.0077
  244MOL0     C32817   7.516   7.100   9.963  0.2983  0.5848 -0.4899
  244MOL0     C32818   7.525   7.247  10.019  0.2822 -0.0225 -0.0931
  244MOL0     C32819   7.516   7.278  10.166  0.4049 -1.0761  0.4575
  244MOL0     C32820   7.522   7.428  10.171 -0.3360  0.5699 -0.0644
  244MOL0     C32821   7.541   7.458  10.321  0.1141  0.9374  0.1948
  244MOL0     N32822   7.528   7.606  10.323  0.2505 -0.4781 -0.1118
  244MOL0     C32823   7.420   7.685  10.353  0.7937  0.3644 -0.2589
  244MOL0     C32824   7.468   7.821  10.359 -0.1023  1.2657 -0.2681
  244MOL0     C32825   7.385   7.936  10.391 -0.4447 -0.6134 -0.0582
  244MOL0     C32826   7.457   8.052  10.337 -0.0399 -0.6580 -0.0004
  244MOL0     C32827   7.379   8.181  10.365 -0.6421 -0.9855 -0.0017
  244MOL0     C32828   7.359   8.234  10.513  0.3641  0.4450 -0.2535
  244MOL0     O32829   7.482   8.213  10.583  0.3886 -0.5594  0.3693
  244MOL0     C32830   7.590   8.292  10.562 -0.0601  0.0196 -0.3128
  244MOL0     C32831   7.698   8.236  10.625  0.8092 -0.1286 -0.0553
  244MOL0     C32832   7.822   8.304  10.629  0.2088  0.7672 -0.7707
  244MOL0     C32833   7.942   8.230  10.675  0.3537 -0.3487 -0.4223
  244MOL0     C32834   7.837   8.427  10.560 -0.8618 -0.5291 -1.0084
  244MOL0     C32835   7.958   8.506  10.556 -0.4461  0.3524 -0.2182
  244MOL0     O32836   8.007   8.548  10.436  0.0168 -0.6772 -1.2687
  244MOL0     C32837   8.116   8.632  10.431  0.6375 -0.5391  0.4794
  244MOL0     C32838   8.205   8.604  10.335 -0.4708  0.6742 -0.3110
  244MOL0     C32839   8.320   8.682  10.302  1.3408 -1.1221 -0.6029
  244MOL0     C32840   8.337   8.798  10.380 -0.5863  0.3615  0.2185
  244MOL0     O32841   8.435   8.894  10.366  0.1982  0.8329  1.1422
  244MOL0     C32842   8.541   8.883  10.264 -0.6938  0.2561 -1.6054
  244MOL0     C32843   8.668   8.854  10.352  0.6579 -0.7338  0.3223
  244MOL0     C32844   8.703   8.969  10.436 -0.5142  0.4613 -1.3432
  244MOL0     C32845   8.823   8.953  10.525 -0.2770 -0.1962 -0.1418
  244MOL0     C32846   8.842   9.069  10.622 -0.3592  0.7134  0.2032
  244MOL0     C32847   8.958   9.032  10.710 -0.6543  0.5436  0.8229
  244MOL0     C32848   8.977   9.154  10.798 -0.7097 -0.1533  0.4980
  244MOL0     C32849   9.107   9.132  10.879 -0.0259  0.0506  0.3018
  244MOL0    Cl32850   9.153   9.270  10.978 -0.2747 -0.2756 -0.2874
  244MOL0     C32851   8.250   8.829  10.485 -0.6314 -0.0810 -0.2128
  244MOL0     C32852   8.131   8.750  10.506  0.2205  0.5467  0.3643
  244MOL0     O32853   8.018   8.511  10.669  0.1181 -0.2026  0.1651
  244MOL0     C32854   7.726   8.474  10.488 -0.5440 -0.4648 -0.1389
  244MOL0     C32855   7.601   8.411  10.490  0.5022  0.9649  0.2891
  244MOL0     N32856   7.597   7.815  10.316  0.5875 -0.5789  0.1121
  244MOL0     N32857   7.638   7.694  10.309  0.2608  0.1366  0.5134
  244MOL0     C32858   7.006   7.146   9.512  0.4345 -0.9720  0.2882
  244MOL0     C32859   6.898   7.073   9.498  0.9508  1.1090  0.0400
  244MOL0     C32860   6.575   6.832   9.649  0.2712 -0.2649 -1.1181
  244MOL0     C32861   6.533   6.759   9.754  0.5011 -0.1590 -0.1659
  244MOL0     C32862   6.403   6.716   9.754 -0.0508  0.6009 -0.2846
  244MOL0     C32863   6.323   6.727   9.636 -0.2092 -0.1672 -0.6427
  244MOL0     O32864   6.199   6.671   9.619  0.2782 -0.5379 -0.2571
  244MOL0     C32865   6.141   6.585   9.718  0.8737  0.0365 -0.4478
  244MOL0     C32866   6.214   6.449   9.724  0.3098 -0.3483 -0.4118
  244MOL0     C32867   6.210   6.384   9.584  1.2994 -0.5567 -0.6070
  244MOL0     C32868   6.293   6.252   9.570 -0.0763 -0.5669  0.4922
  244MOL0     C32869   6.435   6.294   9.586  0.4991 -0.4250 -0.7893
  244MOL0     C32870   6.552   6.323   9.596  0.7711  0.5209 -0.7393
  244MOL0     C32871   6.371   6.800   9.529 -0.5472  0.1416  0.1683
  244MOL0     C32872   6.492   6.850   9.534  0.5801  0.2232  0.0768
  244MOL0     H32873   7.027   6.779   9.603  1.9580  0.0291  2.1965
  244MOL0     H32874   7.241   6.920   9.612 -1.1083 -2.4055 -1.3764
  244MOL0     H32875   7.374   7.060   9.552 -0.0244 -1.1242  1.2900
  244MOL0     H32876   7.433   7.227   9.576  2.5244 -1.9543  1.0818
  244MOL0     H32877   7.314   7.229   9.802 -1.2044 -1.7268  1.7219
  244MOL0     H32878   7.285   7.065   9.789  1.3847 -1.5103  1.4431
  244MOL0     H32879   7.509   6.999   9.790  1.6069  0.8548 -1.2582
  244MOL0     H32880   7.571   7.165   9.766 -0.5959  0.6285 -0.5603
  244MOL0     H32881   7.435   7.035   9.997 -0.1004 -0.9023 -3.8596
  244MOL0     H32882   7.604   7.046   9.999 -0.4260 -0.6386 -0.5313
  244MOL0     H32883   7.621   7.285   9.985  0.8502 -0.6002  0.8356
  244MOL0     H32884   7.449   7.307   9.967  0.9933  0.1053 -1.0193
  244MOL0     H32885   7.413   7.260  10.200 -0.5440 -2.9716 -2.9219
  244MOL0     H32886   7.581   7.222  10.234 -0.3689 -2.0576  0.4281
  244MOL0     H32887   7.599   7.480  10.113 -0.3151 -0.0859 -0.6315
  244MOL0     H32888   7.428   7.464  10.128  0.4307 -0.6572 -3.0095
  244MOL0     H32889   7.638   7.419  10.351 -1.5084 -4.1638 -0.1193
  244MOL0     H32890   7.467   7.415  10.389  0.1949  0.4409 -0.0199
  244MOL0     H32891   7.321   7.652  10.383  1.7874  0.3834  3.6867
  244MOL0     H32892   7.285   7.920  10.349 -0.3036  0.6976 -0.9529
  244MOL0     H32893   7.381   7.938  10.501 -0.2984 -1.1560 -0.0411
  244MOL0     H32894   7.473   8.044  10.229 -1.5692 -0.3247 -0.2802
  244MOL0     H32895   7.557   8.065  10.378 -0.1272  3.6182 -0.6605
  244MOL0     H32896   7.280   8.180  10.317 -0.3680  1.8940 -0.8533
  244MOL0     H32897   7.431   8.261  10.310 -0.4273 -0.6486  0.6777
  244MOL0     H32898   7.281   8.190  10.576  2.0551 -0.3980  1.3681
  244MOL0     H32899   7.340   8.342  10.510 -0.9360  0.2286 -0.4287
  244MOL0     H32900   7.701   8.140  10.675  2.3633 -0.2559 -0.3458
  244MOL0     H32901   8.000   8.276  10.755 -1.4336 -0.0146  0.7543
  244MOL0     H32902   7.914   8.132  10.715 -2.4597 -0.0855 -1.5169
  244MOL0     H32903   8.008   8.204  10.592  1.7065  0.4357  0.3665
  244MOL0     H32904   8.185   8.511  10.282  2.8276 -0.9106  0.9724
  244MOL0     H32905   8.378   8.651  10.215 -0.3353  1.1811 -2.6733
  244MOL0     H32906   8.529   8.805  10.188  1.8171 -1.7297 -0.1269
  244MOL0     H32907   8.552   8.975  10.206 -0.8763  1.5745  0.3300
  244MOL0     H32908   8.646   8.764  10.410  3.3608 -1.0222  1.0156
  244MOL0     H32909   8.749   8.832  10.283 -1.9212 -1.2100 -2.7939
  244MOL0     H32910   8.613   8.981  10.497 -0.7904 -1.7512 -1.2326
  244MOL0     H32911   8.706   9.060  10.376 -1.6058  1.8916  0.6460
  244MOL0     H32912   8.816   8.861  10.583  2.5200 -1.2602 -1.2713
  244MOL0     H32913   8.912   8.941  10.462 -0.3353  0.3986 -0.3441
  244MOL0     H32914   8.750   9.071  10.682  0.5346 -0.1675  1.6637
  244MOL0     H32915   8.863   9.156  10.559  0.1478 -2.0668 -3.7909
  244MOL0     H32916   8.943   8.937  10.762  0.0542  0.2297  0.4797
  244MOL0     H32917   9.039   9.035  10.636 -1.0243 -0.3584  0.3714
  244MOL0     H32918   8.896   9.164  10.870 -1.3858 -0.6928 -0.1663
  244MOL0     H32919   8.986   9.245  10.738 -1.0199  1.0082  2.1344
  244MOL0     H32920   9.191   9.103  10.814  0.5284 -0.0617  1.0596
  244MOL0     H32921   9.087   9.043  10.939  1.0004 -0.6995 -0.4425
  244MOL0     H32922   8.269   8.924  10.535  0.0780  0.9481 -2.2867
  244MOL0     H32923   8.048   8.776  10.570 -0.3662 -2.5941  1.0362
  244MOL0     H32924   7.720   8.566  10.429  1.5429 -0.0730  0.1860
  244MOL0     H32925   7.517   8.459  10.441  0.5697  3.5345  2.4694
  244MOL0     H32926   7.006   7.251   9.483  0.2559 -0.8399  0.7573
  244MOL0     H32927   6.808   7.125   9.466  0.4969 -0.8333 -2.0147
  244MOL0     H32928   6.605   6.757   9.835  0.1118  0.0502  0.1914
  244MOL0     H32929   6.365   6.666   9.842  3.7418 -1.8396  0.1942
  244MOL0     H32930   6.138   6.640   9.813 -1.7320 -0.1681 -0.3479
  244MOL0     H32931   6.037   6.559   9.696 -0.0791  0.6396  2.7644
  244MOL0     H32932   6.164   6.365   9.773 -1.4656 -1.4562 -3.7905
  244MOL0     H32933   6.316   6.466   9.760 -0.4398  3.0745  0.5162
  244MOL0     H32934   6.251   6.460   9.516 -0.7369 -0.2732 -1.5816
  244MOL0     H32935   6.112   6.369   9.539  1.5605 -2.7070 -0.5626
  244MOL0     H32936   6.271   6.207   9.473  0.9538 -0.7216  0.3148
  244MOL0     H32937   6.278   6.176   9.648  1.0254 -0.0014  1.2899
  244MOL0     H32938   6.659   6.331   9.606  0.6906  3.4614 -1.1803
  244MOL0     H32939   6.308   6.818   9.442 -2.7615  0.8488  1.8043
  244MOL0     H32940   6.533   6.910   9.454  0.3487  3.6629  2.2997
  245MOL0     O32941   3.924   9.512   4.930  0.0242  0.1720  1.1067
  245MOL0     C32942   3.976   9.400   4.922 -0.0036 -0.0209  0.2833
  245MOL0     O32943   4.058   9.339   5.023  0.3746 -0.4687 -0.1170
  245MOL0     C32944   4.070   9.401   5.145  0.3761 -0.4894  0.5804
  245MOL0     C32945   4.191   9.400   5.202 -0.0185 -0.3383  0.0789
  245MOL0     C32946   4.207   9.457   5.332  0.1487 -0.2801  1.0886
  245MOL0     C32947   4.098   9.520   5.397 -0.5063  0.0845  0.0959
  245MOL0     O32948   4.095   9.582   5.519  0.0993 -0.2519  0.2471
  245MOL0     C32949   4.207   9.553   5.603 -0.7563 -0.8962 -0.3552
  245MOL0     C32950   4.189   9.606   5.749 -1.0315  0.4608  0.5978
  245MOL0     C32951   4.044   9.573   5.789 -0.1646 -0.5005 -0.6203
  245MOL0     C32952   4.026   9.424   5.819  0.5177 -0.7247  0.0701
  245MOL0     C32953   4.137   9.356   5.908  0.1534 -0.3571  0.0482
  245MOL0     C32954   4.115   9.210   5.928  0.1778 -0.1612 -0.4222
  245MOL0     C32955   4.241   9.130   5.963 -0.4141 -0.8670 -1.3142
  245MOL0     C32956   4.287   9.162   6.101 -0.3024 -0.3620 -0.6720
  245MOL0     N32957   4.271   9.053   6.196 -0.0923  0.0658 -0.0209
  245MOL0     C32958   4.363   8.962   6.249 -0.1360 -0.7346  0.7005
  245MOL0     C32959   4.295   8.887   6.335  0.1075  0.0961  0.1563
  245MOL0     C32960   4.348   8.773   6.421  0.5735 -0.3311 -0.5273
  245MOL0     C32961   4.400   8.647   6.351  0.9550 -0.2005 -0.1349
  245MOL0     C32962   4.281   8.581   6.264 -0.8605  0.1497  0.2681
  245MOL0     C32963   4.197   8.482   6.347 -0.4415  0.4371  0.1127
  245MOL0     O32964   4.113   8.426   6.251  0.1445  0.1676  0.2538
  245MOL0     C32965   4.005   8.356   6.313  0.1425 -0.0766  0.3657
  245MOL0     C32966   4.001   8.287   6.435  0.6083 -0.5932  0.3391
  245MOL0     C32967   3.891   8.218   6.481  0.5335  0.8088  0.0260
  245MOL0     C32968   3.907   8.130   6.598 -0.4608  0.5444 -0.2190
  245MOL0     C32969   3.772   8.222   6.405 -0.0640 -1.9636  0.0041
  245MOL0     C32970   3.638   8.166   6.430  0.7820  1.2115 -0.2012
  245MOL0     O32971   3.563   8.134   6.316  0.9354  0.6717 -1.3264
  245MOL0     C32972   3.462   8.043   6.340  0.0858 -0.0449 -0.3486
  245MOL0     C32973   3.482   7.902   6.344 -0.3781  0.2925 -0.2564
  245MOL0     C32974   3.368   7.822   6.364  0.8526  0.0893  0.6931
  245MOL0     C32975   3.240   7.872   6.385  0.7580  0.3618  0.2789
  245MOL0     O32976   3.123   7.798   6.403 -1.0370  0.5699 -0.0971
  245MOL0     C32977   3.101   7.693   6.309 -1.3889  0.3254 -0.3179
  245MOL0     C32978   2.958   7.635   6.315 -0.3211 -1.1204 -0.7364
  245MOL0     C32979   2.833   7.710   6.265  0.8471  0.2357 -0.5651
  245MOL0     C32980   2.863   7.813   6.144 -0.1493  0.8826  0.3129
  245MOL0     C32981   2.745   7.895   6.104  1.3112 -0.0092  0.3082
  245MOL0     C32982   2.779   8.005   5.998  0.0966  0.3278 -0.5617
  245MOL0     C32983   2.667   8.044   5.902 -0.9038  0.0420  0.6230
  245MOL0     C32984   2.534   8.095   5.963  0.5653  0.1947  0.2330
  245MOL0    Cl32985   2.536   8.237   6.069  0.0196 -0.1380 -0.0679
  245MOL0     C32986   3.220   8.009   6.372 -0.0615  0.0833  0.1641
  245MOL0     C32987   3.328   8.092   6.351 -0.2225 -0.1021 -0.6700
  245MOL0     O32988   3.600   8.131   6.541  0.5164  0.0498 -0.3689
  245MOL0     C32989   3.777   8.290   6.278 -0.3652  0.4871  0.5538
  245MOL0     C32990   3.889   8.357   6.236 -0.0235  0.2807  0.5041
  245MOL0     N32991   4.160   8.923   6.313 -0.2578  0.2292  0.2099
  245MOL0     N32992   4.149   9.015   6.234  0.2476 -0.6184  0.6057
  245MOL0     C32993   3.972   9.516   5.336  1.5138  0.1169  0.6814
  245MOL0     C32994   3.958   9.449   5.207 -0.0401  0.3947  0.3102
  245MOL0     C32995   3.955   9.331   4.794 -0.7663  0.2557 -0.1266
  245MOL0     C32996   4.030   9.210   4.757 -0.4770  0.1395  0.3118
  245MOL0     C32997   3.990   9.139   4.638 -0.0646  0.5953  0.8751
  245MOL0     C32998   3.883   9.181   4.554 -0.3440 -0.1183 -0.0515
  245MOL0     O32999   3.850   9.135   4.427  0.3155 -0.8081  0.2488
  245MOL0     C33000   3.946   9.058   4.345  0.5720 -0.3400  0.5518
  245MOL0     C33001   3.880   9.030   4.214 -0.5365  0.7665  0.5497
  245MOL0     C33002   3.917   9.134   4.112 -0.3484 -1.1037  0.7697
  245MOL0     C33003   3.822   9.132   3.981  0.2761 -0.0497 -0.3887
  245MOL0     C33004   3.678   9.122   4.020  0.2094 -0.8977 -0.4149
  245MOL0     C33005   3.563   9.123   4.054  0.1525 -0.1556 -0.0986
  245MOL0     C33006   3.807   9.296   4.589  0.2652  0.7673 -0.7573
  245MOL0     C33007   3.846   9.373   4.709  0.1898 -0.3259 -0.2091
  245MOL0     H33008   4.274   9.361   5.143  2.5442  1.6044  2.1422
  245MOL0     H33009   4.305   9.461   5.378  1.2307  0.6734 -1.1310
  245MOL0     H33010   4.210   9.444   5.599 -1.9680 -0.9184 -1.3958
  245MOL0     H33011   4.299   9.586   5.552 -2.2612  1.5988 -1.7013
  245MOL0     H33012   4.257   9.567   5.825 -0.5109 -2.4264 -1.1913
  245MOL0     H33013   4.206   9.714   5.750  4.1961 -0.1487  0.8417
  245MOL0     H33014   4.007   9.629   5.876 -0.4963 -3.9160  1.6538
  245MOL0     H33015   3.980   9.598   5.705 -0.6302  1.5602  0.2849
  245MOL0     H33016   3.937   9.436   5.882  0.2980  3.7146 -0.7674
  245MOL0     H33017   4.002   9.368   5.729 -0.9744  0.5664 -0.3800
  245MOL0     H33018   4.232   9.357   5.854  2.6030 -3.3021  3.7746
  245MOL0     H33019   4.137   9.407   6.005 -1.6230  2.4278 -1.2505
  245MOL0     H33020   4.033   9.192   5.998  1.2036  1.2653  1.2310
  245MOL0     H33021   4.081   9.176   5.830 -0.5671  0.0977 -0.2565
  245MOL0     H33022   4.212   9.026   5.952  1.2626 -1.6264  0.6186
  245MOL0     H33023   4.321   9.155   5.893  0.3825 -2.2978 -0.9489
  245MOL0     H33024   4.248   9.253   6.146  0.9721  0.0221 -0.2946
  245MOL0     H33025   4.395   9.175   6.083  0.5023 -2.5535  1.8882
  245MOL0     H33026   4.467   8.942   6.225  0.3104 -0.4433  2.2696
  245MOL0     H33027   4.421   8.816   6.489 -0.3420  3.5639 -1.7736
  245MOL0     H33028   4.261   8.751   6.484 -1.7288  1.7901 -2.6904
  245MOL0     H33029   4.453   8.575   6.414  0.0244 -0.9848 -0.2212
  245MOL0     H33030   4.481   8.690   6.291  1.1935  0.6334  0.7637
  245MOL0     H33031   4.323   8.524   6.181  2.2537  1.9596  0.4369
  245MOL0     H33032   4.225   8.662   6.216 -2.4410 -2.4753 -2.7069
  245MOL0     H33033   4.142   8.544   6.419 -1.1490  0.8474 -0.7588
  245MOL0     H33034   4.274   8.417   6.388 -0.3574  0.0730 -0.6043
  245MOL0     H33035   4.094   8.289   6.491 -0.9749 -0.2403  3.1899
  245MOL0     H33036   3.842   8.185   6.667 -0.0866  2.8318 -1.6118
  245MOL0     H33037   3.875   8.025   6.592  2.1360 -0.2882 -0.7191
  245MOL0     H33038   4.009   8.135   6.635 -0.9771  2.6732  1.0830
  245MOL0     H33039   3.575   7.847   6.356 -1.2726 -0.6213  3.7213
  245MOL0     H33040   3.371   7.714   6.367  2.2215  0.1296  2.9879
  245MOL0     H33041   3.124   7.720   6.206 -0.2917  2.5048  0.4283
  245MOL0     H33042   3.177   7.618   6.333  0.3411  2.4229  1.2379
  245MOL0     H33043   2.980   7.539   6.267  1.9856 -0.6167 -0.8161
  245MOL0     H33044   2.950   7.614   6.422  0.9708  2.4115  0.1892
  245MOL0     H33045   2.795   7.764   6.352  0.8775  2.1887 -1.6743
  245MOL0     H33046   2.751   7.646   6.231  0.4469  1.6949 -2.5558
  245MOL0     H33047   2.932   7.893   6.171  0.0698  1.2619 -1.2406
  245MOL0     H33048   2.906   7.764   6.055 -1.3568  3.3338 -1.7629
  245MOL0     H33049   2.700   7.945   6.190 -1.9674 -0.6965 -0.8329
  245MOL0     H33050   2.666   7.834   6.060  2.8584 -2.4053  0.7011
  245MOL0     H33051   2.816   8.096   6.046 -0.5593 -1.2853  3.4043
  245MOL0     H33052   2.864   7.961   5.945  0.5268 -2.5607  2.2352
  245MOL0     H33053   2.632   7.954   5.850 -0.9602  0.0283  0.6842
  245MOL0     H33054   2.710   8.115   5.831 -2.4505  3.8248  3.1790
  245MOL0     H33055   2.494   8.014   6.025 -3.0860  1.6203 -0.0295
  245MOL0     H33056   2.464   8.132   5.887  1.3907  0.8495 -0.2282
  245MOL0     H33057   3.121   8.051   6.385 -0.4069 -0.9237  0.8776
  245MOL0     H33058   3.315   8.199   6.338  0.3285 -0.2038 -2.2420
  245MOL0     H33059   3.688   8.295   6.217  2.4462 -0.4374 -4.0425
  245MOL0     H33060   3.890   8.405   6.139  0.7100  0.6384  0.6848
  245MOL0     H33061   3.888   9.570   5.380  1.8521 -0.5827  2.2695
  245MOL0     H33062   3.860   9.443   5.160  1.1122 -1.8623 -2.0094
  245MOL0     H33063   4.115   9.184   4.819 -0.0160  1.4705  0.2522
  245MOL0     H33064   4.041   9.047   4.610 -1.0221  0.6568 -1.2903
  245MOL0     H33065   4.032   9.122   4.328 -0.3904  0.7793 -0.2549
  245MOL0     H33066   3.971   8.962   4.392  0.2351 -1.0896 -0.7393
  245MOL0     H33067   3.773   9.009   4.224 -0.9729  2.6602  0.3216
  245MOL0     H33068   3.929   8.937   4.185 -2.0764  0.0031  0.3185
  245MOL0     H33069   4.025   9.128   4.094  0.7093  0.8504  5.0769
  245MOL0     H33070   3.906   9.236   4.148  1.2996 -0.2835 -0.8501
  245MOL0     H33071   3.841   9.043   3.920  2.5053 -0.7620  1.2260
  245MOL0     H33072   3.828   9.231   3.935 -0.4776 -0.2428 -0.9173
  245MOL0     H33073   3.461   9.098   4.076  0.4389 -2.8891 -1.4341
  245MOL0     H33074   3.731   9.324   4.516 -0.2776  0.9253 -0.1455
  245MOL0     H33075   3.791   9.462   4.736  0.2560  0.2424 -1.8198
  246MOL0     O33076  10.605   9.195   8.644  0.1033  0.2771 -0.8814
  246MOL0     C33077  10.554   9.303   8.673 -0.1230  1.1405  0.4560
  246MOL0     O33078  10.425   9.315   8.717 -0.6955  0.0347  1.2299
  246MOL0     C33079  10.352   9.215   8.777 -0.2203 -1.0982  0.0858
  246MOL0     C33080  10.211   9.223   8.755  1.0283 -1.0464 -0.0171
  246MOL0     C33081  10.127   9.117   8.792 -0.4122  1.2410  0.5030
  246MOL0     C33082  10.181   8.997   8.849  0.6968  0.0963 -0.1257
  246MOL0     O33083  10.119   8.877   8.876  0.3651 -0.3961  0.3673
  246MOL0     C33084   9.980   8.866   8.847 -0.3731 -0.6834  0.5090
  246MOL0     C33085   9.924   8.765   8.944  0.1623  0.2423  0.5420
  246MOL0     C33086   9.977   8.627   8.904 -0.4834  0.1442  0.2964
  246MOL0     C33087   9.943   8.513   9.000 -0.8575 -0.6950  0.5836
  246MOL0     C33088  10.011   8.538   9.134  0.4604 -0.6271  0.0705
  246MOL0     C33089  10.009   8.410   9.214 -0.0657 -0.0848  0.1001
  246MOL0     C33090  10.030   8.430   9.365 -0.0456  0.3187  0.5160
  246MOL0     C33091  10.037   8.301   9.444 -0.2982  1.0676 -0.2963
  246MOL0     N33092  10.150   8.211   9.391  0.3294 -0.0269 -0.3679
  246MOL0     C33093  10.285   8.225   9.427  0.6094  0.4150 -0.6016
  246MOL0     C33094  10.339   8.112   9.390  0.0837  0.6032 -1.7026
  246MOL0     C33095  10.488   8.089   9.404 -0.6652 -0.1503  0.1437
  246MOL0     C33096  10.531   8.093   9.554 -0.0547 -0.2616 -0.7275
  246MOL0     C33097  10.472   7.971   9.630 -0.3292 -0.1297 -0.1743
  246MOL0     C33098  10.352   8.017   9.718 -0.5716 -0.3380  0.0191
  246MOL0     O33099  10.255   7.910   9.740 -0.5720  0.4839  0.6549
  246MOL0     C33100  10.123   7.936   9.747 -0.3210  1.2036 -0.0364
  246MOL0     C33101  10.060   7.922   9.630 -0.1957 -0.9438  0.0405
  246MOL0     C33102   9.918   7.961   9.620  0.1499 -0.0569  0.3151
  246MOL0     C33103   9.851   7.944   9.482 -0.3337 -0.7098  0.1767
  246MOL0     C33104   9.841   7.977   9.744 -0.0463 -0.2502 -0.7044
  246MOL0     C33105   9.696   8.003   9.752 -0.0158  0.4445  0.1466
  246MOL0     O33106   9.640   8.041   9.867  0.1475 -0.0294 -0.5592
  246MOL0     C33107   9.509   8.069   9.869  0.4150  0.3876 -0.1121
  246MOL0     C33108   9.422   7.988   9.949  0.4744 -0.2375 -0.9863
  246MOL0     C33109   9.284   7.993   9.936  0.2939  0.3103  0.1080
  246MOL0     C33110   9.230   8.090   9.850  0.1568  0.7405 -1.1379
  246MOL0     O33111   9.092   8.110   9.849 -0.5330  0.6809  0.2063
  246MOL0     C33112   9.007   8.012   9.910 -0.8243 -0.7144 -0.3158
  246MOL0     C33113   8.860   8.015   9.888 -0.5135 -0.4975  0.4202
  246MOL0     C33114   8.796   7.871   9.903  0.5722  0.3214 -0.4208
  246MOL0     C33115   8.765   7.815  10.042 -0.2100  0.1040 -0.9956
  246MOL0     C33116   8.715   7.672  10.014  0.2417  0.3990  0.3768
  246MOL0     C33117   8.684   7.595  10.140 -1.1645 -0.0764  0.3987
  246MOL0     C33118   8.661   7.442  10.131  0.1597  0.0361  0.1907
  246MOL0     C33119   8.787   7.379  10.069 -0.0744  1.5369  0.0544
  246MOL0    Cl33120   8.768   7.199  10.066 -0.1188  0.0519  0.1502
  246MOL0     C33121   9.310   8.171   9.774  0.4643 -0.1852 -0.9814
  246MOL0     C33122   9.450   8.158   9.774  0.0705  0.2978 -0.5832
  246MOL0     O33123   9.635   7.986   9.646 -0.4203  0.2527 -0.8114
  246MOL0     C33124   9.920   7.985   9.866  0.6530 -0.1041 -0.0746
  246MOL0     C33125  10.060   7.971   9.866 -0.4363 -0.0317  0.0819
  246MOL0     N33126  10.253   8.033   9.323  0.8710 -0.0274 -0.0011
  246MOL0     N33127  10.148   8.106   9.311  0.0492  0.1331  0.3483
  246MOL0     C33128  10.316   9.008   8.902  1.3360 -0.6362  0.3950
  246MOL0     C33129  10.407   9.113   8.858  0.8614  0.9106  0.5325
  246MOL0     C33130  10.626   9.426   8.637 -0.6542  0.4097  0.7277
  246MOL0     C33131  10.570   9.549   8.660  0.0016 -0.1531 -0.4403
  246MOL0     C33132  10.632   9.663   8.624 -0.3151 -0.8846 -0.1471
  246MOL0     C33133  10.761   9.657   8.563  0.0397 -0.3249 -0.0475
  246MOL0     O33134  10.828   9.762   8.513  0.1841  0.4311 -0.1797
  246MOL0     C33135  10.780   9.902   8.506 -1.1674 -0.2044 -0.0145
  246MOL0     C33136  10.809   9.957   8.364  0.4197  0.5311 -0.5662
  246MOL0     C33137  10.817  10.117   8.353 -0.4349  0.2757  0.1894
  246MOL0     C33138  10.946  10.196   8.386 -0.1170 -0.0500  0.4043
  246MOL0     C33139  11.013  10.173   8.512 -0.0139 -1.0452  0.0248
  246MOL0     C33140  11.061  10.144   8.617  0.7929  0.5189  0.4797
  246MOL0     C33141  10.809   9.531   8.536  0.4940  0.5834 -0.3942
  246MOL0     C33142  10.749   9.413   8.569 -0.0463  0.0191  0.1284
  246MOL0     H33143  10.176   9.312   8.702 -2.5411 -1.9084  0.6309
  246MOL0     H33144  10.021   9.118   8.768  0.5263  1.2043 -4.9629
  246MOL0     H33145   9.923   8.957   8.868  0.6066  0.1390 -0.3001
  246MOL0     H33146   9.970   8.851   8.739  2.1209 -0.9312  0.2640
  246MOL0     H33147   9.964   8.794   9.042  0.6355  2.5734 -0.2643
  246MOL0     H33148   9.815   8.760   8.938  0.3128 -2.3358 -2.0262
  246MOL0     H33149   9.943   8.603   8.802  1.3699  0.3632 -0.4092
  246MOL0     H33150  10.086   8.632   8.895 -0.4291 -0.0053  0.8413
  246MOL0     H33151   9.836   8.502   9.021 -1.1731 -2.0650 -1.4724
  246MOL0     H33152   9.981   8.417   8.965  0.6979 -0.6840  2.1440
  246MOL0     H33153  10.109   8.581   9.111  0.1172  0.5461  0.7027
  246MOL0     H33154   9.957   8.612   9.194  2.7983  1.7369 -0.5371
  246MOL0     H33155   9.915   8.359   9.190 -0.6653  1.8135 -1.8484
  246MOL0     H33156  10.085   8.344   9.172  0.0714  0.8443 -1.1473
  246MOL0     H33157  10.128   8.479   9.371  1.3488 -2.3923  1.8394
  246MOL0     H33158   9.953   8.498   9.403 -1.6553 -1.6256  0.8835
  246MOL0     H33159   9.947   8.239   9.438  0.1813  0.4603 -1.8397
  246MOL0     H33160  10.060   8.334   9.546  1.5697  0.1712 -0.3807
  246MOL0     H33161  10.341   8.304   9.477  1.6166 -0.5819 -0.1069
  246MOL0     H33162  10.532   7.999   9.359  3.4156  1.6949  0.0026
  246MOL0     H33163  10.535   8.179   9.362  0.6186 -0.6457  0.4759
  246MOL0     H33164  10.495   8.187   9.595 -0.4682 -0.1900 -1.2520
  246MOL0     H33165  10.638   8.112   9.571 -0.1984  0.9449 -1.1347
  246MOL0     H33166  10.545   7.920   9.693 -1.2683 -3.9731 -1.9074
  246MOL0     H33167  10.437   7.896   9.558 -1.9738  0.0558  0.3713
  246MOL0     H33168  10.296   8.100   9.674  0.4029  0.5661  0.4560
  246MOL0     H33169  10.396   8.051   9.812  1.5012  2.3459 -1.7584
  246MOL0     H33170  10.111   7.907   9.536 -1.7557 -2.3697 -0.6437
  246MOL0     H33171   9.924   7.915   9.406 -0.2047 -2.5736  0.9620
  246MOL0     H33172   9.778   7.862   9.480 -2.2394  0.9089 -2.4059
  246MOL0     H33173   9.805   8.033   9.439  1.4393  0.0691 -0.2161
  246MOL0     H33174   9.481   7.921  10.011  0.5856 -1.6983 -2.5860
  246MOL0     H33175   9.227   7.924   9.998  1.7027  2.1956  3.7884
  246MOL0     H33176   9.036   7.910   9.883 -4.1767 -1.4548 -1.4820
  246MOL0     H33177   9.014   8.026  10.019 -0.3748  1.7414 -0.6089
  246MOL0     H33178   8.820   8.093   9.954  0.5805 -0.9595  1.6942
  246MOL0     H33179   8.840   8.041   9.784  2.6014  0.5177 -0.0299
  246MOL0     H33180   8.841   7.789   9.846 -0.9845 -1.3933  0.6852
  246MOL0     H33181   8.705   7.894   9.847  1.0195  1.8031 -0.5974
  246MOL0     H33182   8.853   7.809  10.107  0.1397 -2.3964 -1.6179
  246MOL0     H33183   8.683   7.878  10.078 -2.5494 -3.5933  0.6865
  246MOL0     H33184   8.788   7.615   9.954 -0.8099 -3.4621  2.3921
  246MOL0     H33185   8.623   7.678   9.954 -1.0177 -2.6416  1.7912
  246MOL0     H33186   8.767   7.605  10.211  0.4764 -0.0572 -1.4345
  246MOL0     H33187   8.589   7.634  10.178 -1.7481  0.9349 -1.9584
  246MOL0     H33188   8.583   7.419  10.058  0.7623 -1.0487 -0.1430
  246MOL0     H33189   8.641   7.401  10.231  0.8401 -0.3096  0.1912
  246MOL0     H33190   8.874   7.408  10.129  1.9908 -3.4949 -0.0280
  246MOL0     H33191   8.816   7.406   9.966  2.3701 -0.4645  0.1290
  246MOL0     H33192   9.255   8.241   9.712  0.9291 -0.0959 -1.2945
  246MOL0     H33193   9.509   8.216   9.703  2.4749 -0.1221  0.9835
  246MOL0     H33194   9.865   8.021   9.952 -0.7800  0.6064 -1.2435
  246MOL0     H33195  10.104   7.984   9.964 -0.2302  2.0695 -0.2425
  246MOL0     H33196  10.363   8.918   8.942  4.4734  0.9842  0.6180
  246MOL0     H33197  10.513   9.100   8.878  0.7517 -3.4512 -0.7639
  246MOL0     H33198  10.484   9.565   8.724  0.4378 -4.3321  1.5061
  246MOL0     H33199  10.591   9.752   8.672 -2.6439 -2.6735  1.3971
  246MOL0     H33200  10.676   9.898   8.539 -1.2392  0.9475 -0.0783
  246MOL0     H33201  10.836   9.966   8.575  1.8659 -1.1519 -1.4086
  246MOL0     H33202  10.727   9.924   8.300 -1.0798  1.5054  0.7705
  246MOL0     H33203  10.899   9.909   8.326  1.3676  0.8598  1.1625
  246MOL0     H33204  10.742  10.163   8.418  2.3516 -0.1253  4.0635
  246MOL0     H33205  10.788  10.137   8.250 -0.0295  1.0133  0.2099
  246MOL0     H33206  10.923  10.301   8.366 -0.1394  0.3331  2.2471
  246MOL0     H33207  11.021  10.165   8.313 -0.6453 -2.4378  0.7937
  246MOL0     H33208  11.087  10.105   8.713 -0.5362  1.8068  1.3946
  246MOL0     H33209  10.895   9.523   8.469 -0.0269 -3.4739 -0.8397
  246MOL0     H33210  10.808   9.322   8.564  2.0174  1.3554 -1.4903
  247MOL0     O33211   5.015   5.142   4.386  0.4193 -0.4551 -0.6491
  247MOL0     C33212   4.994   5.029   4.347 -0.4793  0.8928 -0.0477
  247MOL0     O33213   5.004   4.977   4.223  0.5931 -0.6220  0.1698
  247MOL0     C33214   5.003   5.061   4.113  0.3033 -0.3992  0.1162
  247MOL0     C33215   5.095   5.164   4.088 -0.6018 -0.4307 -0.1451
  247MOL0     C33216   5.099   5.232   3.969  0.2378 -0.2671 -0.0885
  247MOL0     C33217   5.006   5.204   3.869 -0.1716 -0.3091  0.4604
  247MOL0     O33218   5.008   5.284   3.752 -0.0682  0.1254 -0.1886
  247MOL0     C33219   4.888   5.289   3.677  0.0928  0.1972 -0.1080
  247MOL0     C33220   4.896   5.395   3.565  0.5726  0.0096 -0.0102
  247MOL0     C33221   4.782   5.375   3.464 -0.4047 -0.6481 -0.6877
  247MOL0     C33222   4.643   5.391   3.525  0.3022 -0.0366  0.5852
  247MOL0     C33223   4.542   5.317   3.441 -0.1592  0.7914 -1.0070
  247MOL0     C33224   4.547   5.341   3.290 -0.4933  0.0718 -0.7901
  247MOL0     C33225   4.441   5.263   3.220 -0.5230 -0.1265 -0.7719
  247MOL0     C33226   4.446   5.306   3.073 -0.7797 -0.9745 -0.2014
  247MOL0     N33227   4.370   5.221   2.982  0.2544  0.3786  0.5253
  247MOL0     C33228   4.260   5.240   2.921  0.3571 -0.3338 -0.7443
  247MOL0     C33229   4.245   5.142   2.831 -0.7105  0.7707 -0.6279
  247MOL0     C33230   4.146   5.152   2.729  0.3728  0.7852  1.0734
  247MOL0     C33231   4.006   5.170   2.780  0.5981 -0.8147 -0.0037
  247MOL0     C33232   3.949   5.055   2.865 -0.5650  0.9400  0.1121
  247MOL0     C33233   3.796   5.066   2.883  0.5818  0.0521 -0.0471
  247MOL0     O33234   3.720   4.967   2.967 -0.7528  0.5065 -0.2836
  247MOL0     C33235   3.584   4.981   2.986  0.1040  0.0036 -0.3262
  247MOL0     C33236   3.528   4.906   3.081  0.3829  1.1173 -0.5981
  247MOL0     C33237   3.393   4.910   3.111 -0.1487  1.4444 -0.5974
  247MOL0     C33238   3.352   4.817   3.228  0.0681  0.3718 -0.8274
  247MOL0     C33239   3.312   5.002   3.050  0.0751  0.2466  0.3941
  247MOL0     C33240   3.170   5.010   3.075  0.1910  0.1952  0.0126
  247MOL0     O33241   3.104   5.127   3.040 -0.7310 -0.3931  0.0336
  247MOL0     C33242   2.969   5.139   3.054 -0.3515 -0.8887  0.2868
  247MOL0     C33243   2.905   5.195   3.166 -0.6443 -0.2532 -0.4035
  247MOL0     C33244   2.767   5.209   3.177  0.8832 -0.6292  0.1088
  247MOL0     C33245   2.682   5.156   3.078 -0.9065 -0.5847 -0.9169
  247MOL0     O33246   2.544   5.181   3.089 -0.0651  0.4986  0.5925
  247MOL0     C33247   2.475   5.081   3.014  0.4880  0.4869 -0.8216
  247MOL0     C33248   2.332   5.058   3.064  0.4175 -0.4696 -0.3764
  247MOL0     C33249   2.259   4.953   2.977  0.1616  0.1194  0.5673
  247MOL0     C33250   2.134   4.896   3.047  0.3198  0.9289  0.6917
  247MOL0     C33251   2.171   4.788   3.143  0.0903 -0.9203  0.1781
  247MOL0     C33252   2.234   4.659   3.088  0.5525 -0.4320 -0.1232
  247MOL0     C33253   2.253   4.552   3.189  0.3967 -0.2844 -0.2167
  247MOL0     C33254   2.381   4.573   3.282  0.3967  0.3342 -0.3023
  247MOL0    Cl33255   2.349   4.497   3.448 -0.0492 -0.2544  0.5740
  247MOL0     C33256   2.745   5.089   2.969 -0.2461 -0.1027 -0.3210
  247MOL0     C33257   2.887   5.080   2.964  0.0517 -0.6446 -0.0985
  247MOL0     O33258   3.114   4.913   3.129 -0.2440  0.0403 -0.5033
  247MOL0     C33259   3.375   5.097   2.966 -0.0704  0.2435  0.2951
  247MOL0     C33260   3.503   5.078   2.918  0.2684  0.4609 -0.7362
  247MOL0     N33261   4.363   5.063   2.829 -0.8310  0.2937 -0.5509
  247MOL0     N33262   4.425   5.111   2.936 -0.0490 -0.0672  0.2027
  247MOL0     C33263   4.923   5.091   3.884  0.3064 -0.6460 -0.4799
  247MOL0     C33264   4.926   5.019   4.007 -0.1828 -0.3864 -0.2328
  247MOL0     C33265   4.934   4.938   4.444 -0.2822 -0.5758 -0.1944
  247MOL0     C33266   4.867   4.816   4.412  0.6868  0.8649  0.4211
  247MOL0     C33267   4.797   4.739   4.501 -0.4078  0.1907  0.5243
  247MOL0     C33268   4.815   4.769   4.631  0.0947 -0.1028 -0.6247
  247MOL0     O33269   4.758   4.705   4.734 -0.3265  0.3233 -0.7011
  247MOL0     C33270   4.789   4.568   4.743  0.0349 -0.2467  0.2096
  247MOL0     C33271   4.738   4.521   4.887  0.0742 -0.3078 -0.1987
  247MOL0     C33272   4.756   4.373   4.898 -0.0073  0.2102  0.0272
  247MOL0     C33273   4.696   4.306   5.024  0.4491 -0.2169  1.1869
  247MOL0     C33274   4.550   4.325   5.037 -0.1334 -0.5385  0.8601
  247MOL0     C33275   4.426   4.309   5.036 -0.6329  0.7010  1.9040
  247MOL0     C33276   4.886   4.876   4.671 -0.8572  0.0158 -0.2381
  247MOL0     C33277   4.931   4.968   4.578 -0.1161  0.3495  0.5604
  247MOL0     H33278   5.159   5.196   4.169 -0.5610  0.2539 -0.4488
  247MOL0     H33279   5.174   5.307   3.948  1.4512 -2.0985 -2.9613
  247MOL0     H33280   4.883   5.187   3.637 -2.0510 -1.2048  3.2656
  247MOL0     H33281   4.808   5.315   3.746  0.2885  0.9445 -0.1516
  247MOL0     H33282   4.872   5.496   3.601  1.0551  0.3682 -0.6707
  247MOL0     H33283   4.994   5.394   3.517 -0.2426  2.3239 -1.9062
  247MOL0     H33284   4.789   5.451   3.385  0.1952  3.5303  3.0061
  247MOL0     H33285   4.792   5.275   3.420  1.9631 -0.7875  0.0203
  247MOL0     H33286   4.636   5.358   3.628  3.1310 -0.6021  0.6814
  247MOL0     H33287   4.617   5.497   3.517 -1.9299 -0.6542 -1.8880
  247MOL0     H33288   4.570   5.212   3.458 -1.8574  0.1170 -2.0815
  247MOL0     H33289   4.438   5.333   3.471 -1.8161 -3.2740 -3.5736
  247MOL0     H33290   4.519   5.446   3.279  0.1605  0.4546  0.9663
  247MOL0     H33291   4.643   5.313   3.246  0.2510  2.2875 -0.6794
  247MOL0     H33292   4.461   5.155   3.216 -1.1673 -0.5874  3.5896
  247MOL0     H33293   4.339   5.285   3.252 -0.2433  0.6477 -0.4009
  247MOL0     H33294   4.546   5.304   3.028 -1.4405  0.3036 -1.8046
  247MOL0     H33295   4.402   5.404   3.058 -0.5722 -0.9710 -0.8046
  247MOL0     H33296   4.192   5.324   2.937  1.3569 -0.0426  2.8160
  247MOL0     H33297   4.163   5.230   2.654 -0.7255 -1.1394 -1.3152
  247MOL0     H33298   4.153   5.058   2.673  0.5744  2.4885 -2.0151
  247MOL0     H33299   3.944   5.171   2.690  1.3479  0.3937 -0.5287
  247MOL0     H33300   3.989   5.268   2.826 -0.8255 -0.2098 -1.7245
  247MOL0     H33301   4.007   5.058   2.957  1.6903 -0.7886 -1.1531
  247MOL0     H33302   3.969   4.959   2.816 -2.3372  0.3588  0.4361
  247MOL0     H33303   3.752   5.063   2.783 -0.5551 -2.2192  0.4637
  247MOL0     H33304   3.782   5.166   2.925  1.8311  1.0269 -1.8111
  247MOL0     H33305   3.584   4.827   3.130 -0.3819  2.5308  2.8442
  247MOL0     H33306   3.425   4.736   3.238 -1.2437 -0.8200 -0.5300
  247MOL0     H33307   3.345   4.873   3.321 -0.5755 -0.4702 -0.3534
  247MOL0     H33308   3.259   4.765   3.205 -0.9995  1.8341  0.0624
  247MOL0     H33309   2.973   5.234   3.242 -1.9816 -2.2330  1.9458
  247MOL0     H33310   2.724   5.264   3.259  0.4266  0.9836 -1.1674
  247MOL0     H33311   2.458   5.111   2.911 -0.5216  3.3124  0.0550
  247MOL0     H33312   2.513   4.979   3.023 -0.8728  0.0977  1.1556
  247MOL0     H33313   2.336   5.008   3.161 -1.6008 -0.8758 -0.4517
  247MOL0     H33314   2.283   5.156   3.069  1.3030 -0.0589  0.8443
  247MOL0     H33315   2.331   4.877   2.946  0.4679  0.6654 -0.0896
  247MOL0     H33316   2.216   4.984   2.881 -2.7218 -2.1693  0.9516
  247MOL0     H33317   2.076   4.976   3.093  1.2294  2.3438 -0.4984
  247MOL0     H33318   2.067   4.842   2.980 -0.8652  0.2385  2.3694
  247MOL0     H33319   2.084   4.756   3.202  0.3201 -2.0231 -0.0729
  247MOL0     H33320   2.232   4.836   3.220 -1.7154 -0.0591  1.1440
  247MOL0     H33321   2.170   4.634   3.003 -1.6249  0.1905  1.2472
  247MOL0     H33322   2.334   4.675   3.045 -0.4280 -0.7892 -2.7141
  247MOL0     H33323   2.245   4.449   3.153 -1.4529 -0.8623  1.6725
  247MOL0     H33324   2.163   4.563   3.251  0.9421 -0.9864  0.7453
  247MOL0     H33325   2.406   4.678   3.296 -0.2889  0.1198  3.5895
  247MOL0     H33326   2.461   4.522   3.226  0.1297  0.8690 -1.1916
  247MOL0     H33327   2.697   5.044   2.883  0.6982 -1.0439 -0.3714
  247MOL0     H33328   2.931   5.033   2.877 -1.0391 -1.1273 -0.4160
  247MOL0     H33329   3.326   5.171   2.903 -1.5327 -3.2427 -3.0686
  247MOL0     H33330   3.531   5.131   2.827 -3.2540  2.8501 -0.6394
  247MOL0     H33331   4.862   5.048   3.805 -0.8530 -2.4069  1.2823
  247MOL0     H33332   4.870   4.926   4.013  0.1897 -0.7416 -1.9209
  247MOL0     H33333   4.854   4.798   4.306  0.1151  0.7759  0.5034
  247MOL0     H33334   4.728   4.658   4.481  1.3219 -1.4699  0.9156
  247MOL0     H33335   4.741   4.506   4.666 -0.9021  0.5530  0.1335
  247MOL0     H33336   4.894   4.548   4.721  0.3106 -0.4962  1.6049
  247MOL0     H33337   4.630   4.540   4.890  0.0570 -0.5353  1.0025
  247MOL0     H33338   4.783   4.588   4.960  1.1363 -2.9615  1.7377
  247MOL0     H33339   4.863   4.348   4.902  0.0649  0.5580  0.3057
  247MOL0     H33340   4.718   4.333   4.804 -0.9953  2.8340 -0.7768
  247MOL0     H33341   4.746   4.339   5.116  0.8449  1.5658  0.3795
  247MOL0     H33342   4.713   4.199   5.011  2.8323  0.1183  1.2286
  247MOL0     H33343   4.321   4.291   5.024 -0.1579 -0.2761 -2.7592
  247MOL0     H33344   4.893   4.888   4.778 -1.3672 -0.8482 -0.0950
  247MOL0     H33345   4.970   5.060   4.620  1.8067  0.0803 -0.5139
  248MOL0     O33346   8.213   5.636  10.521  0.4683  0.6710 -0.8913
  248MOL0     C33347   8.208   5.705  10.623 -0.6463  0.0831 -0.3345
  248MOL0     O33348   8.274   5.821  10.639 -0.3820 -0.3565 -0.3625
  248MOL0     C33349   8.338   5.888  10.537 -0.0022  0.4948  0.1201
  248MOL0     C33350   8.405   5.819  10.431 -0.1429 -0.3346  0.0621
  248MOL0     C33351   8.476   5.895  10.340  0.6552 -1.1575 -0.6585
  248MOL0     C33352   8.493   6.037  10.357 -0.4385  1.3740  0.3696
  248MOL0     O33353   8.568   6.097  10.261  0.3593 -0.4604  0.4061
  248MOL0     C33354   8.667   6.170  10.324 -0.8967  0.2881  0.1535
  248MOL0     C33355   8.763   6.256  10.230  0.0032  0.2324 -0.9371
  248MOL0     C33356   8.889   6.317  10.299 -0.8645 -0.6271 -0.6290
  248MOL0     C33357   8.903   6.282  10.450  0.8200  0.0422  0.3721
  248MOL0     C33358   9.016   6.363  10.505 -0.1698 -0.4340  0.4467
  248MOL0     C33359   9.085   6.308  10.639  0.1441  0.0778 -0.2029
  248MOL0     C33360   9.224   6.363  10.666  0.3961  0.7248  0.8903
  248MOL0     C33361   9.218   6.507  10.708 -0.6538 -0.6797 -0.2932
  248MOL0     N33362   9.314   6.594  10.627 -0.4816 -0.0230  0.3574
  248MOL0     C33363   9.297   6.628  10.499 -1.2242  0.4317  0.3546
  248MOL0     C33364   9.416   6.690  10.464  0.0296  0.2204  0.4941
  248MOL0     C33365   9.439   6.741  10.330 -0.7813  0.2951 -0.0479
  248MOL0     C33366   9.499   6.642  10.233 -0.0586  0.0085 -0.5042
  248MOL0     C33367   9.504   6.688  10.086  0.2811 -0.4679  0.7576
  248MOL0     C33368   9.362   6.713  10.030 -0.0168  0.8212 -0.6907
  248MOL0     O33369   9.276   6.600  10.040 -0.2418 -0.1241  0.1335
  248MOL0     C33370   9.148   6.598   9.988  0.0337  0.7922 -0.5252
  248MOL0     C33371   9.086   6.702   9.918 -0.3757 -0.5785  0.3128
  248MOL0     C33372   8.952   6.701   9.868  0.0707  0.2732 -0.8173
  248MOL0     C33373   8.912   6.822   9.785  0.2585 -0.4009 -0.0599
  248MOL0     C33374   8.870   6.591   9.897  0.3078 -0.9077  0.4182
  248MOL0     C33375   8.725   6.581   9.849 -0.3171  0.1469  0.2571
  248MOL0     O33376   8.649   6.488   9.904 -0.3132  0.6907  0.1413
  248MOL0     C33377   8.513   6.471   9.877  0.7030 -0.3824 -1.5971
  248MOL0     C33378   8.467   6.367   9.950  0.3390 -0.9185  1.1421
  248MOL0     C33379   8.336   6.330   9.942 -0.2589 -0.1589  0.0433
  248MOL0     C33380   8.241   6.399   9.868  0.2242  0.3774  0.6265
  248MOL0     O33381   8.103   6.367   9.852 -0.0103 -0.5396  0.1412
  248MOL0     C33382   8.042   6.318   9.974  0.2073 -0.5925 -0.2599
  248MOL0     C33383   7.892   6.310   9.952  0.4405 -0.6406 -1.0563
  248MOL0     C33384   7.845   6.184   9.875  1.0491 -0.3679  1.0937
  248MOL0     C33385   7.691   6.184   9.847 -0.4365  0.9737 -0.1838
  248MOL0     C33386   7.653   6.046   9.816  0.2324  0.1735  0.0578
  248MOL0     C33387   7.523   6.039   9.731  0.0178 -0.4926  0.5841
  248MOL0     C33388   7.459   5.904   9.732 -1.0568 -0.2532 -0.2226
  248MOL0     C33389   7.369   5.869   9.613 -0.5138  0.1691 -1.0659
  248MOL0    Cl33390   7.309   5.700   9.611  0.1101 -0.2781  0.2515
  248MOL0     C33391   8.287   6.518   9.799  0.2120 -0.2375 -0.9282
  248MOL0     C33392   8.422   6.554   9.803 -0.3087  0.0786 -0.5085
  248MOL0     O33393   8.700   6.645   9.750 -0.2737  0.1317 -0.5951
  248MOL0     C33394   8.923   6.491   9.971  0.6005  0.8423 -0.9144
  248MOL0     C33395   9.060   6.493  10.017 -0.6768  0.1539  0.0249
  248MOL0     N33396   9.496   6.688  10.570  0.0943 -1.3303 -0.3872
  248MOL0     N33397   9.437   6.637  10.671 -0.3484 -0.2711 -0.7050
  248MOL0     C33398   8.424   6.100  10.460  0.0643  0.7832  0.6343
  248MOL0     C33399   8.347   6.025  10.546  0.1843 -0.1938  0.0258
  248MOL0     C33400   8.129   5.656  10.733  0.2641  0.1519 -0.9211
  248MOL0     C33401   8.036   5.548  10.725  0.6176 -0.4460  1.1176
  248MOL0     C33402   7.981   5.481  10.835 -1.2428 -0.0417  0.1496
  248MOL0     C33403   8.009   5.533  10.964 -0.4278  0.4028 -0.9525
  248MOL0     O33404   7.939   5.477  11.065  0.1471 -0.1794 -0.1078
  248MOL0     C33405   8.012   5.382  11.151 -0.7377 -0.6177  0.1673
  248MOL0     C33406   8.029   5.246  11.087 -0.0923  0.5004  0.6618
  248MOL0     C33407   8.111   5.146  11.183  1.0668  0.8530 -0.6708
  248MOL0     C33408   8.131   5.011  11.118  0.1723 -0.2592  0.0195
  248MOL0     C33409   8.005   4.968  11.049  0.8830  0.0254 -0.2655
  248MOL0     C33410   7.897   4.916  11.018  0.3092 -0.0631 -0.3979
  248MOL0     C33411   8.107   5.629  10.978 -0.0829  0.1205 -0.1365
  248MOL0     C33412   8.170   5.688  10.868  0.1552  0.5463 -0.3021
  248MOL0     H33413   8.421   5.712  10.429 -0.7399 -0.5564  2.8419
  248MOL0     H33414   8.540   5.851  10.264  1.1335 -1.9799  0.2032
  248MOL0     H33415   8.625   6.239  10.398 -1.3635 -1.1560  1.2583
  248MOL0     H33416   8.725   6.098  10.382  0.7460  2.9993  2.1566
  248MOL0     H33417   8.791   6.192  10.146  2.1374  1.8165 -1.5173
  248MOL0     H33418   8.703   6.334  10.182 -1.0564  1.6185  2.3140
  248MOL0     H33419   8.976   6.277  10.247  2.6275  0.8820  3.5003
  248MOL0     H33420   8.888   6.425  10.281 -0.9563 -0.7822 -1.5991
  248MOL0     H33421   8.814   6.318  10.501 -0.4106 -0.7588 -1.1329
  248MOL0     H33422   8.916   6.175  10.465  0.7645 -0.3312 -1.9252
  248MOL0     H33423   9.091   6.361  10.426  1.1176  0.2588  1.6172
  248MOL0     H33424   8.985   6.466  10.527 -0.4831 -1.0500  3.2614
  248MOL0     H33425   9.026   6.317  10.731  1.4935  0.4331  0.6538
  248MOL0     H33426   9.093   6.201  10.618  1.4720  0.3019 -0.9076
  248MOL0     H33427   9.260   6.317  10.759  0.6113  3.4571  2.2660
  248MOL0     H33428   9.300   6.339  10.591  2.1356  1.3739  2.3643
  248MOL0     H33429   9.242   6.511  10.815  0.4608 -2.7529 -0.4269
  248MOL0     H33430   9.118   6.545  10.685 -0.5357 -2.0344 -3.5691
  248MOL0     H33431   9.218   6.604  10.429  0.1553  1.0174 -1.4694
  248MOL0     H33432   9.341   6.777  10.298  0.5863  2.3215 -2.2921
  248MOL0     H33433   9.511   6.823  10.330 -0.0594 -0.3309 -0.0482
  248MOL0     H33434   9.436   6.553  10.235 -0.3878  0.2228 -1.1358
  248MOL0     H33435   9.600   6.612  10.262  0.6528  2.6714  0.1137
  248MOL0     H33436   9.553   6.611  10.026 -2.6968 -0.7437 -1.5930
  248MOL0     H33437   9.553   6.781  10.059  1.0181 -1.7434 -2.9182
  248MOL0     H33438   9.378   6.753   9.929  1.3508 -1.4912 -1.4684
  248MOL0     H33439   9.313   6.795  10.084 -1.3221 -0.4177  0.0942
  248MOL0     H33440   9.151   6.788   9.908  1.7105 -2.1045 -0.1734
  248MOL0     H33441   8.888   6.795   9.681  2.5439 -0.9362 -0.5039
  248MOL0     H33442   8.830   6.879   9.828  0.5820  1.3694 -1.6541
  248MOL0     H33443   8.989   6.900   9.778 -1.6740  1.5411 -1.2275
  248MOL0     H33444   8.544   6.308   9.999  1.9095 -0.9146 -1.1603
  248MOL0     H33445   8.306   6.235   9.986  0.9774 -1.7350 -2.3461
  248MOL0     H33446   8.089   6.226  10.009  0.0424 -0.1857  1.1025
  248MOL0     H33447   8.055   6.395  10.052 -2.8500 -0.0600 -0.1659
  248MOL0     H33448   7.839   6.300  10.047 -1.2174 -0.9074 -1.9657
  248MOL0     H33449   7.856   6.399   9.899  0.7807  1.0910  1.4477
  248MOL0     H33450   7.870   6.107   9.949  0.8149 -0.0703  1.4842
  248MOL0     H33451   7.905   6.178   9.784  0.7717  1.7475  0.7313
  248MOL0     H33452   7.641   6.223   9.936  2.0387 -0.7699  2.1369
  248MOL0     H33453   7.688   6.274   9.784  2.5144  2.1607  1.1618
  248MOL0     H33454   7.644   5.982   9.904  0.5621 -1.1720 -0.8465
  248MOL0     H33455   7.731   5.993   9.759 -2.3839 -2.0471 -1.7440
  248MOL0     H33456   7.456   6.113   9.776  1.3380 -0.0754  1.9552
  248MOL0     H33457   7.549   6.079   9.632 -1.0812  1.1683  0.9233
  248MOL0     H33458   7.414   5.885   9.830  2.1272 -0.2488  1.3487
  248MOL0     H33459   7.540   5.832   9.727 -0.6846  0.1559 -0.1505
  248MOL0     H33460   7.414   5.890   9.516  1.7690  1.2383  0.1396
  248MOL0     H33461   7.284   5.937   9.613 -0.0363  0.7823 -0.4030
  248MOL0     H33462   8.218   6.576   9.738 -3.9907 -0.5227  3.0363
  248MOL0     H33463   8.451   6.634   9.736 -0.4802  0.8212  0.2895
  248MOL0     H33464   8.865   6.404  10.000  2.8998 -0.8957 -1.1856
  248MOL0     H33465   9.108   6.415  10.076  0.2937  2.0352  1.8328
  248MOL0     H33466   8.441   6.207  10.470 -1.3118  1.7517 -4.5314
  248MOL0     H33467   8.301   6.095  10.615 -0.4363 -0.6696  0.0986
  248MOL0     H33468   8.012   5.525  10.622 -1.3907  3.5825  0.4944
  248MOL0     H33469   7.921   5.391  10.831 -0.3468 -0.6531  0.0752
  248MOL0     H33470   8.107   5.422  11.190 -0.2962 -3.8013  2.8042
  248MOL0     H33471   7.956   5.381  11.244 -2.5996 -0.4922 -0.9140
  248MOL0     H33472   8.078   5.261  10.991 -0.1212  0.4472  0.6392
  248MOL0     H33473   7.927   5.209  11.072  0.3258 -0.0198 -1.0313
  248MOL0     H33474   8.059   5.132  11.278 -0.3752 -1.9336 -1.7529
  248MOL0     H33475   8.209   5.191  11.203  1.1092  0.3196  0.3696
  248MOL0     H33476   8.175   4.935  11.182 -2.0110 -1.9486 -0.3570
  248MOL0     H33477   8.207   5.025  11.040  1.0555 -0.8788  0.7597
  248MOL0     H33478   7.806   4.869  10.987 -1.2894  3.4024 -1.4942
  248MOL0     H33479   8.142   5.655  11.077 -0.1440 -2.2404  0.5752
  248MOL0     H33480   8.254   5.757  10.878 -0.1316  0.5910  2.6749
  249MOL0     O33481   4.737  11.344   5.300  0.0958  0.0927  0.6221
  249MOL0     C33482   4.823  11.404   5.235  0.3868 -0.0224  0.3468
  249MOL0     O33483   4.903  11.347   5.138 -0.0655  0.1060  0.0508
  249MOL0     C33484   4.846  11.271   5.038  0.4403 -0.7381  0.1990
  249MOL0     C33485   4.926  11.214   4.944  1.1782 -0.2131 -0.5312
  249MOL0     C33486   4.877  11.132   4.847 -0.1605 -0.6654 -0.0678
  249MOL0     C33487   4.743  11.122   4.815 -0.3051 -0.5571  0.2195
  249MOL0     O33488   4.707  11.044   4.708  0.0177 -0.4082  0.3161
  249MOL0     C33489   4.570  11.062   4.663  0.8763 -0.8037 -0.1182
  249MOL0     C33490   4.480  10.957   4.719  0.4963  0.0625 -0.2303
  249MOL0     C33491   4.480  10.821   4.646  0.4865  0.9767  0.0586
  249MOL0     C33492   4.391  10.720   4.722 -0.8341  0.2054  1.1854
  249MOL0     C33493   4.347  10.610   4.632 -0.4407  0.1186  0.2588
  249MOL0     C33494   4.278  10.493   4.700 -0.2467  0.0775 -0.7946
  249MOL0     C33495   4.286  10.356   4.637 -0.2383  0.3659 -0.2147
  249MOL0     C33496   4.231  10.357   4.497 -0.1069  0.1816  1.1089
  249MOL0     N33497   4.270  10.236   4.426  0.2319 -0.4014  0.2474
  249MOL0     C33498   4.182  10.133   4.406  0.2652  0.5359 -1.0623
  249MOL0     C33499   4.247  10.053   4.314  0.2271  0.7914 -0.8811
  249MOL0     C33500   4.208   9.918   4.266 -0.1676 -0.3395  0.4179
  249MOL0     C33501   4.135   9.928   4.131 -0.4527 -0.1634 -0.0952
  249MOL0     C33502   4.000   9.991   4.130  0.5414  0.5134  0.6479
  249MOL0     C33503   3.892   9.921   4.203 -0.3113 -0.0602  0.7630
  249MOL0     O33504   3.883   9.789   4.168 -0.3270 -0.4930 -0.0107
  249MOL0     C33505   3.789   9.724   4.242  0.7653  0.0707  0.5524
  249MOL0     C33506   3.706   9.779   4.340  1.0030 -0.6720 -0.6797
  249MOL0     C33507   3.601   9.699   4.404  0.2745 -0.5695  0.1226
  249MOL0     C33508   3.521   9.765   4.513  0.1145  0.4432  0.0226
  249MOL0     C33509   3.595   9.563   4.365  0.2015 -0.6610  0.7640
  249MOL0     C33510   3.499   9.472   4.419  0.0038  0.0317 -0.1944
  249MOL0     O33511   3.494   9.482   4.558  0.3101  0.5856  0.7599
  249MOL0     C33512   3.412   9.406   4.643 -0.1124 -0.7708  0.2897
  249MOL0     C33513   3.364   9.280   4.620 -0.0399 -0.3840 -0.2782
  249MOL0     C33514   3.296   9.208   4.724 -0.6078  0.1703 -0.1834
  249MOL0     C33515   3.262   9.271   4.837 -0.0087  0.4180 -0.2575
  249MOL0     O33516   3.182   9.203   4.926 -1.3596 -0.3580 -0.0694
  249MOL0     C33517   3.236   9.173   5.057  0.8786  0.8798 -0.8501
  249MOL0     C33518   3.303   9.035   5.069 -0.2564  0.2107  0.9477
  249MOL0     C33519   3.349   9.017   5.217  0.0145 -0.6154  0.3591
  249MOL0     C33520   3.499   9.039   5.234 -0.8225  0.4452 -0.0031
  249MOL0     C33521   3.542   9.012   5.375 -0.4747  0.4392  0.5927
  249MOL0     C33522   3.699   9.016   5.388  0.3881  0.0980  0.0392
  249MOL0     C33523   3.738   9.011   5.531 -0.4501  0.3055  0.0958
  249MOL0     C33524   3.888   9.035   5.554 -0.4318  0.3285  0.8464
  249MOL0    Cl33525   3.918   9.207   5.503 -0.1871  0.3767 -0.5657
  249MOL0     C33526   3.312   9.399   4.868  0.1340  0.2321 -0.4321
  249MOL0     C33527   3.389   9.462   4.772 -1.4144 -0.0675 -0.4519
  249MOL0     O33528   3.418   9.403   4.345 -0.3432  0.3497 -0.1127
  249MOL0     C33529   3.671   9.508   4.263 -0.7807 -0.1045  0.0879
  249MOL0     C33530   3.771   9.585   4.202  0.8042 -0.7836  0.5922
  249MOL0     N33531   4.360  10.117   4.277 -0.1087  0.9049 -0.2531
  249MOL0     N33532   4.372  10.220   4.350  0.5595 -0.3694  0.6629
  249MOL0     C33533   4.659  11.187   4.901 -0.0343 -0.1862 -0.2718
  249MOL0     C33534   4.709  11.261   5.015 -0.8948  0.9876 -0.6149
  249MOL0     C33535   4.881  11.528   5.292 -0.0314  0.7828  0.4704
  249MOL0     C33536   4.976  11.596   5.209  0.1129 -0.7110 -0.3867
  249MOL0     C33537   5.038  11.723   5.242  0.2561  1.2282 -0.0741
  249MOL0     C33538   5.002  11.765   5.367 -0.5070  0.4170 -0.4711
  249MOL0     O33539   5.066  11.879   5.411  0.1327  0.1805 -0.0389
  249MOL0     C33540   5.210  11.880   5.431  0.3581 -0.5735 -0.3515
  249MOL0     C33541   5.257  12.022   5.405  0.1664  0.4119  1.0525
  249MOL0     C33542   5.386  12.046   5.480 -0.1156  0.5866 -0.0148
  249MOL0     C33543   5.445  12.189   5.453  1.1375  0.3701 -0.0709
  249MOL0     C33544   5.515  12.213   5.323 -0.3597  0.3235  0.4577
  249MOL0     C33545   5.569  12.230   5.217  0.3975 -0.1148  0.0876
  249MOL0     C33546   4.908  11.702   5.449 -0.3551 -0.6052 -0.0438
  249MOL0     C33547   4.838  11.583   5.413 -0.5616  0.4304 -0.1339
  249MOL0     H33548   5.032  11.217   4.968  0.8135 -0.6258  1.2999
  249MOL0     H33549   4.947  11.091   4.776  1.3004  0.7381  0.5034
  249MOL0     H33550   4.532  11.163   4.683  1.8421 -0.4507  0.0033
  249MOL0     H33551   4.569  11.051   4.554 -3.3612  0.2547 -0.3540
  249MOL0     H33552   4.528  10.941   4.816 -0.0583  1.5417  0.3178
  249MOL0     H33553   4.375  10.985   4.730  0.2672 -0.2614 -1.4475
  249MOL0     H33554   4.446  10.836   4.543 -2.6986 -3.3332  0.2055
  249MOL0     H33555   4.580  10.775   4.646 -0.4785 -1.3778 -2.2736
  249MOL0     H33556   4.453  10.685   4.805 -1.1098 -2.2310  0.4321
  249MOL0     H33557   4.305  10.773   4.766 -1.2327  1.5086 -0.9839
  249MOL0     H33558   4.285  10.647   4.550 -1.3669 -2.0892 -0.0967
  249MOL0     H33559   4.438  10.582   4.579 -0.2876  1.9397 -0.5416
  249MOL0     H33560   4.333  10.475   4.792  1.5365  2.1298 -1.3811
  249MOL0     H33561   4.171  10.515   4.707 -0.2814  0.3725 -2.0380
  249MOL0     H33562   4.387  10.316   4.647 -1.0481 -1.2492  2.3509
  249MOL0     H33563   4.227  10.287   4.698  0.3827 -0.7220 -0.8271
  249MOL0     H33564   4.262  10.442   4.434  0.9285  0.3454  1.8227
  249MOL0     H33565   4.122  10.365   4.499 -0.1555  0.6902 -0.7694
  249MOL0     H33566   4.097  10.099   4.465  0.9076 -1.1864 -1.0722
  249MOL0     H33567   4.308   9.878   4.250  1.6172  3.7501  0.2433
  249MOL0     H33568   4.156   9.853   4.337  3.1481 -2.3305  1.2437
  249MOL0     H33569   4.130   9.823   4.100  0.0418 -0.3727  0.5125
  249MOL0     H33570   4.208   9.978   4.066 -0.1483 -1.9246 -1.1781
  249MOL0     H33571   3.974   9.983   4.024  1.6495 -0.4721  0.4255
  249MOL0     H33572   4.006  10.099   4.150  1.2455  0.5443  0.3291
  249MOL0     H33573   3.801   9.975   4.177 -0.1177 -0.1194 -0.0597
  249MOL0     H33574   3.917   9.935   4.308 -1.0763 -0.8063  1.0602
  249MOL0     H33575   3.703   9.886   4.356 -5.0228 -0.1327 -2.8462
  249MOL0     H33576   3.583   9.803   4.595 -0.6113 -0.2189  0.8863
  249MOL0     H33577   3.482   9.854   4.462 -0.5537  0.2723  0.2231
  249MOL0     H33578   3.437   9.708   4.552  1.1318  0.2315  2.0415
  249MOL0     H33579   3.383   9.223   4.530 -1.1647  0.0603 -0.8156
  249MOL0     H33580   3.289   9.103   4.699 -0.3345  0.5972 -2.2116
  249MOL0     H33581   3.293   9.258   5.096  0.6360  0.0779  1.4323
  249MOL0     H33582   3.143   9.161   5.115 -0.2038  2.2032 -2.2530
  249MOL0     H33583   3.232   8.962   5.029 -2.5241  1.8976  1.6756
  249MOL0     H33584   3.388   9.025   5.001 -1.5548  0.0504 -0.7176
  249MOL0     H33585   3.320   8.916   5.248  1.3181 -1.2950 -0.5907
  249MOL0     H33586   3.292   9.088   5.278 -0.3337 -0.7968  0.2499
  249MOL0     H33587   3.556   8.978   5.163 -2.8279 -1.2762 -0.2273
  249MOL0     H33588   3.512   9.145   5.210 -0.0464 -0.3881 -4.0218
  249MOL0     H33589   3.510   8.912   5.405 -1.4614 -0.0723 -1.8983
  249MOL0     H33590   3.504   9.086   5.446  1.6188  1.1890  0.9893
  249MOL0     H33591   3.737   8.927   5.338  2.7749  0.8596  0.4076
  249MOL0     H33592   3.732   9.107   5.337 -1.5081  0.9619  0.2353
  249MOL0     H33593   3.716   8.913   5.576  1.1603  0.1411  0.5533
  249MOL0     H33594   3.681   9.075   5.598 -0.0568 -1.5787  2.3703
  249MOL0     H33595   3.943   8.964   5.492 -1.4794 -1.5032  1.9367
  249MOL0     H33596   3.915   9.022   5.659 -2.7632 -3.4871  1.1597
  249MOL0     H33597   3.290   9.454   4.959  0.7137  1.4102 -0.9849
  249MOL0     H33598   3.430   9.562   4.779 -2.8363  0.7320 -2.6942
  249MOL0     H33599   3.673   9.400   4.247  0.1870  0.3013 -3.4794
  249MOL0     H33600   3.839   9.538   4.131 -0.3812 -1.1053 -0.3634
  249MOL0     H33601   4.550  11.183   4.894 -0.0792 -1.9397  0.9492
  249MOL0     H33602   4.640  11.292   5.092  0.8665 -0.0638  1.5134
  249MOL0     H33603   5.010  11.546   5.118  1.1758 -2.0068  0.6715
  249MOL0     H33604   5.118  11.758   5.177  0.2175 -1.0443 -1.4684
  249MOL0     H33605   5.231  11.844   5.533 -2.1483  0.9821  0.8156
  249MOL0     H33606   5.263  11.817   5.360  2.1485 -1.0081  1.2747
  249MOL0     H33607   5.178  12.094   5.430 -0.9366 -0.0633 -0.8913
  249MOL0     H33608   5.272  12.044   5.299  0.8189 -2.1456  0.5464
  249MOL0     H33609   5.461  11.979   5.437 -2.1093 -0.7183 -1.6687
  249MOL0     H33610   5.368  12.032   5.588 -1.3976  1.2676 -0.1166
  249MOL0     H33611   5.506  12.216   5.539  0.3628  1.4081  0.1816
  249MOL0     H33612   5.368  12.267   5.450 -0.9670 -1.6014 -0.6365
  249MOL0     H33613   5.632  12.238   5.130  2.8902 -0.3600  1.7607
  249MOL0     H33614   4.887  11.752   5.543 -0.7061  0.4662 -0.6704
  249MOL0     H33615   4.764  11.532   5.474 -1.0679  1.7823  0.4416
  250MOL0     O33616   1.358   0.606   1.708 -0.1093  0.2486  0.6884
  250MOL0     C33617   1.475   0.635   1.674  0.7321  0.5161  0.0028
  250MOL0     O33618   1.588   0.635   1.753  0.7609 -0.0507 -0.3691
  250MOL0     C33619   1.572   0.599   1.887 -0.4947 -0.3398  0.5778
  250MOL0     C33620   1.542   0.467   1.926 -0.5921  0.1801  0.5560
  250MOL0     C33621   1.545   0.427   2.066 -0.1334  0.2192  0.0398
  250MOL0     C33622   1.563   0.525   2.166  0.2822  0.0446 -0.8217
  250MOL0     O33623   1.559   0.509   2.304 -0.4872  0.3035  0.0101
  250MOL0     C33624   1.542   0.386   2.377  1.2096 -0.7677  0.0990
  250MOL0     C33625   1.674   0.333   2.428 -0.3075  0.5399  0.6056
  250MOL0     C33626   1.746   0.432   2.529 -0.1678 -0.3333  0.5092
  250MOL0     C33627   1.887   0.370   2.572  0.8191  0.1835  0.6302
  250MOL0     C33628   1.950   0.461   2.665  0.4114  0.3486 -0.3390
  250MOL0     C33629   2.096   0.428   2.686 -0.4188  0.0876  1.0403
  250MOL0     C33630   2.158   0.535   2.774  0.3705 -0.7828  0.8885
  250MOL0     C33631   2.306   0.502   2.806 -0.3902 -0.1536 -0.4863
  250MOL0     N33632   2.402   0.502   2.692  0.2250  0.3497 -0.1501
  250MOL0     C33633   2.532   0.464   2.712 -0.6168 -0.3704 -0.1518
  250MOL0     C33634   2.596   0.505   2.597  0.1123  0.0758 -0.3737
  250MOL0     C33635   2.738   0.475   2.565 -0.6022 -1.3772 -0.5159
  250MOL0     C33636   2.792   0.544   2.433  0.1541  0.0262  0.1330
  250MOL0     C33637   2.949   0.529   2.426 -0.4301 -1.3458 -0.3707
  250MOL0     C33638   3.006   0.542   2.289  0.0910  0.3802  0.7108
  250MOL0     O33639   2.958   0.432   2.208  0.2473 -0.2076  0.8773
  250MOL0     C33640   2.999   0.310   2.216 -0.7881  0.9872 -0.2671
  250MOL0     C33641   2.925   0.215   2.169  0.2522 -0.5448  0.4365
  250MOL0     C33642   2.949   0.080   2.167  0.6464  0.7932  0.5042
  250MOL0     C33643   2.843  -0.019   2.139  0.1742 -0.0661 -0.0464
  250MOL0     C33644   3.084   0.045   2.193 -0.4441  0.2745  0.6549
  250MOL0     C33645   3.137  -0.097   2.201 -0.4598 -0.1196  0.3625
  250MOL0     O33646   3.279  -0.109   2.209 -0.0904 -0.3602  0.2791
  250MOL0     C33647   3.335  -0.230   2.211  0.8406 -0.2798 -0.8600
  250MOL0     C33648   3.312  -0.318   2.322  0.2088  0.2479 -0.0312
  250MOL0     C33649   3.372  -0.438   2.323 -0.1373  0.1741 -0.3261
  250MOL0     C33650   3.454  -0.486   2.219 -0.3082 -0.5774 -0.7204
  250MOL0     O33651   3.492  -0.613   2.232  0.3669  0.8489  0.0040
  250MOL0     C33652   3.574  -0.667   2.127 -0.8146  0.2928 -0.3289
  250MOL0     C33653   3.619  -0.810   2.169  0.3258 -0.1599 -1.0450
  250MOL0     C33654   3.675  -0.890   2.057 -0.0025 -0.0772  0.2298
  250MOL0     C33655   3.755  -1.015   2.111 -0.5483 -0.3832  0.1317
  250MOL0     C33656   3.825  -1.095   1.996 -0.5060 -0.2671  0.2519
  250MOL0     C33657   3.918  -1.203   2.049 -0.4592 -0.5589 -0.5366
  250MOL0     C33658   3.846  -1.317   2.125 -1.3256  0.0041  0.5627
  250MOL0     C33659   3.765  -1.407   2.027  0.4437  0.6783 -0.6298
  250MOL0    Cl33660   3.882  -1.497   1.932  0.1314 -0.2675  0.2733
  250MOL0     C33661   3.483  -0.397   2.115  1.4952  0.8034  0.7118
  250MOL0     C33662   3.420  -0.274   2.110 -0.2843  0.2776 -0.0154
  250MOL0     O33663   3.058  -0.192   2.187 -0.1505  0.0566 -0.4751
  250MOL0     C33664   3.171   0.152   2.232  0.0119 -1.0501 -0.1952
  250MOL0     C33665   3.130   0.275   2.258  0.5070  0.0576 -1.5549
  250MOL0     N33666   2.500   0.557   2.516 -0.5302 -0.0468  0.5906
  250MOL0     N33667   2.386   0.565   2.570 -0.6899  1.1142 -0.0442
  250MOL0     C33668   1.584   0.656   2.118  0.0395  0.3689 -0.8844
  250MOL0     C33669   1.582   0.695   1.986  0.5889  0.1593 -0.3957
  250MOL0     C33670   1.485   0.702   1.547 -0.4181 -0.6204 -0.5097
  250MOL0     C33671   1.612   0.770   1.517  0.9302  0.4734  0.6240
  250MOL0     C33672   1.637   0.833   1.394 -0.1242  0.4144 -0.3444
  250MOL0     C33673   1.537   0.840   1.296  0.3611 -0.3988  0.1702
  250MOL0     O33674   1.577   0.899   1.170  0.7203  0.6320 -0.5548
  250MOL0     C33675   1.480   0.891   1.060 -0.4437  0.0620  0.0458
  250MOL0     C33676   1.357   0.989   1.069  0.1037  1.0247 -0.3781
  250MOL0     C33677   1.238   0.966   0.983 -0.1446 -0.4612  0.3260
  250MOL0     C33678   1.129   1.068   1.005 -0.7611  0.1709  0.2319
  250MOL0     C33679   1.153   1.189   0.928  1.2218 -0.4030 -0.4534
  250MOL0     C33680   1.162   1.305   0.881 -0.4474 -0.3944 -0.8438
  250MOL0     C33681   1.411   0.787   1.323  0.2854  0.0318 -0.5518
  250MOL0     C33682   1.385   0.713   1.442 -0.6329 -0.1324  0.2407
  250MOL0     H33683   1.546   0.399   1.841  2.2958  0.2098  0.5722
  250MOL0     H33684   1.526   0.323   2.090 -2.6252  0.1114 -1.9416
  250MOL0     H33685   1.483   0.417   2.464  0.0781 -2.3807 -0.0640
  250MOL0     H33686   1.483   0.314   2.321 -0.4430 -0.6900  1.6539
  250MOL0     H33687   1.657   0.242   2.487 -0.8227  0.0974 -0.1968
  250MOL0     H33688   1.731   0.295   2.342 -0.1232  0.1381  0.9054
  250MOL0     H33689   1.754   0.533   2.487  1.2277 -0.2975  0.8199
  250MOL0     H33690   1.681   0.440   2.616  2.8628 -0.1144  2.9306
  250MOL0     H33691   1.866   0.271   2.612 -2.6559  0.9893  1.1811
  250MOL0     H33692   1.947   0.345   2.484  2.4009 -1.2203  2.0332
  250MOL0     H33693   1.941   0.566   2.635  0.1121  0.4143 -0.0267
  250MOL0     H33694   1.896   0.436   2.756  0.6990 -1.0339 -0.5326
  250MOL0     H33695   2.103   0.328   2.728 -1.9040 -2.2409 -3.5129
  250MOL0     H33696   2.145   0.434   2.588 -1.6021 -3.4536  0.0855
  250MOL0     H33697   2.158   0.624   2.710  0.3992 -1.4212 -0.0282
  250MOL0     H33698   2.109   0.549   2.870  3.6888  1.5212  2.4697
  250MOL0     H33699   2.314   0.403   2.851  2.6741 -0.5012 -1.5252
  250MOL0     H33700   2.344   0.575   2.879 -1.1570  1.0711 -1.2750
  250MOL0     H33701   2.578   0.418   2.799  0.6332 -1.7698 -1.4744
  250MOL0     H33702   2.793   0.522   2.648 -0.6862 -0.5547 -0.9143
  250MOL0     H33703   2.756   0.368   2.551  1.8298 -1.0968 -0.0146
  250MOL0     H33704   2.762   0.649   2.437 -0.4405 -0.1752  1.5401
  250MOL0     H33705   2.750   0.479   2.356 -0.6875 -4.5162  3.9008
  250MOL0     H33706   2.982   0.438   2.476  1.7662  1.0291  2.8722
  250MOL0     H33707   2.985   0.613   2.485 -3.1873 -0.7730  0.6415
  250MOL0     H33708   3.116   0.546   2.293  0.1959 -2.0143  1.8261
  250MOL0     H33709   2.973   0.637   2.244 -4.6986 -2.1881 -1.9484
  250MOL0     H33710   2.824   0.248   2.147  1.0453  1.9236  0.2501
  250MOL0     H33711   2.821  -0.067   2.235 -1.0886 -0.6302 -0.5820
  250MOL0     H33712   2.747   0.024   2.107  0.2452  2.6802  2.9081
  250MOL0     H33713   2.883  -0.092   2.068  0.3716  0.8777 -0.9205
  250MOL0     H33714   3.237  -0.298   2.398  0.7627  4.7235 -0.4088
  250MOL0     H33715   3.341  -0.516   2.393 -3.1703  0.0607 -1.6200
  250MOL0     H33716   3.509  -0.671   2.039  0.9275  3.2031 -1.8883
  250MOL0     H33717   3.661  -0.605   2.104  0.5230 -1.3472  0.1219
  250MOL0     H33718   3.688  -0.794   2.253 -0.8626  0.4774 -0.1666
  250MOL0     H33719   3.536  -0.855   2.224 -0.7830 -0.1676 -2.6547
  250MOL0     H33720   3.743  -0.825   2.001  2.5555 -2.1139  0.7568
  250MOL0     H33721   3.600  -0.920   1.983  0.7121  0.6973 -0.8540
  250MOL0     H33722   3.845  -0.978   2.161 -0.4896 -0.3960  0.0364
  250MOL0     H33723   3.697  -1.080   2.177 -1.3461  0.6404  0.4660
  250MOL0     H33724   3.891  -1.029   1.938  0.9724 -1.7393  0.1865
  250MOL0     H33725   3.756  -1.134   1.921  2.4289  1.0479 -3.4571
  250MOL0     H33726   3.987  -1.242   1.974  1.1967  0.0959  0.5798
  250MOL0     H33727   3.988  -1.165   2.125 -3.2276  2.7312  0.6442
  250MOL0     H33728   3.771  -1.292   2.200 -0.1428  1.9759  1.1448
  250MOL0     H33729   3.924  -1.367   2.183 -0.6508  1.3099  0.8007
  250MOL0     H33730   3.691  -1.350   1.969  1.2833  1.4032 -1.0047
  250MOL0     H33731   3.712  -1.476   2.093 -0.8951  0.8816 -1.4462
  250MOL0     H33732   3.528  -0.437   2.025  1.2678  2.6031 -0.2328
  250MOL0     H33733   3.442  -0.209   2.026  3.6081 -0.6956  0.0464
  250MOL0     H33734   3.274   0.131   2.259 -0.3453 -1.7342  0.6980
  250MOL0     H33735   3.199   0.352   2.290  1.3182 -1.2812  0.0920
  250MOL0     H33736   1.599   0.738   2.188  0.2053 -0.2083 -0.2305
  250MOL0     H33737   1.589   0.799   1.956  1.0973  1.0863  2.6125
  250MOL0     H33738   1.690   0.785   1.591 -0.4231  1.1536  1.9866
  250MOL0     H33739   1.732   0.883   1.378  0.0212  0.1435 -0.3386
  250MOL0     H33740   1.539   0.909   0.969 -3.5554 -0.5331 -2.2615
  250MOL0     H33741   1.432   0.795   1.037  2.5748 -1.3888 -0.7028
  250MOL0     H33742   1.397   1.090   1.073  0.1978  0.9576  0.4988
  250MOL0     H33743   1.322   0.980   1.172 -1.9886 -0.9764 -1.1819
  250MOL0     H33744   1.192   0.871   1.012 -0.8708 -0.2202 -0.0159
  250MOL0     H33745   1.277   0.970   0.881  0.3421  1.8008  0.5524
  250MOL0     H33746   1.121   1.106   1.107  2.7586 -0.3978  0.8364
  250MOL0     H33747   1.038   1.027   0.960 -0.3169  0.9377 -1.4375
  250MOL0     H33748   1.156   1.393   0.821 -4.0987  0.9688  1.1973
  250MOL0     H33749   1.326   0.787   1.256 -1.2211  1.0768  1.2480
  250MOL0     H33750   1.293   0.657   1.454 -1.6594  1.3079 -0.6164
  251MOL0     O33751   8.582   2.318   9.208  0.4853 -0.4704 -1.1843
  251MOL0     C33752   8.630   2.206   9.227 -0.4848 -0.5193 -0.7392
  251MOL0     O33753   8.759   2.168   9.203 -0.0791  0.7227  0.5787
  251MOL0     C33754   8.858   2.262   9.199 -0.5368  0.3493  0.1529
  251MOL0     C33755   8.951   2.266   9.100 -0.7076 -1.2353 -0.4651
  251MOL0     C33756   9.041   2.373   9.087  0.1154  0.2400 -0.2780
  251MOL0     C33757   9.034   2.477   9.190  0.3035  0.8951  0.0991
  251MOL0     O33758   9.125   2.578   9.183 -0.8336 -0.2333  1.2642
  251MOL0     C33759   9.266   2.540   9.204  0.3738  0.2681  0.2106
  251MOL0     C33760   9.353   2.645   9.139  0.2635 -0.2389  0.3191
  251MOL0     C33761   9.419   2.727   9.251 -0.5863 -0.9095 -0.3072
  251MOL0     C33762   9.490   2.853   9.196 -0.1379 -0.0597 -0.4207
  251MOL0     C33763   9.541   2.954   9.310 -0.4885  0.6329  0.4085
  251MOL0     C33764   9.444   3.030   9.397  1.2217 -0.5124 -0.3893
  251MOL0     C33765   9.520   3.097   9.517  0.6878  0.7975  0.4165
  251MOL0     C33766   9.616   3.215   9.474  0.5417  0.7480 -1.5134
  251MOL0     N33767   9.745   3.202   9.535  0.6542  0.0629 -0.4770
  251MOL0     C33768   9.836   3.303   9.561  0.1632  0.6872  0.0432
  251MOL0     C33769   9.942   3.251   9.625 -0.2003  0.0533 -0.6813
  251MOL0     C33770  10.056   3.335   9.681  0.3337 -0.0644 -0.3920
  251MOL0     C33771  10.013   3.417   9.808 -0.4454  0.2783 -0.8361
  251MOL0     C33772  10.042   3.331   9.936  0.0678  0.1934  0.9747
  251MOL0     C33773  10.192   3.318   9.960 -0.2413 -0.2319 -0.0171
  251MOL0     O33774  10.279   3.433   9.935  0.3061 -0.0376 -0.1411
  251MOL0     C33775  10.406   3.430   9.988 -0.1976 -0.6349  0.6681
  251MOL0     C33776  10.464   3.322  10.056 -0.0712  0.0138  1.4976
  251MOL0     C33777  10.607   3.312  10.082 -0.2185 -1.0957 -0.1065
  251MOL0     C33778  10.656   3.189  10.143  0.6454  0.3231  0.4010
  251MOL0     C33779  10.682   3.429  10.056 -0.7651  0.4603  0.2187
  251MOL0     C33780  10.826   3.452  10.092  0.0744 -0.1918  1.1060
  251MOL0     O33781  10.894   3.350  10.144 -0.4664 -0.1427 -0.3850
  251MOL0     C33782  11.030   3.363  10.190  1.1929  0.6261 -0.6944
  251MOL0     C33783  11.128   3.279  10.130  0.0505 -0.7492 -0.5871
  251MOL0     C33784  11.264   3.294  10.162 -0.3871 -0.1337  0.2310
  251MOL0     C33785  11.305   3.388  10.257 -1.2649  0.4312  0.3427
  251MOL0     O33786  11.432   3.418  10.298 -0.9593  0.0430  0.8922
  251MOL0     C33787  11.538   3.389  10.207  0.5669  0.0764 -0.0235
  251MOL0     C33788  11.656   3.477  10.240  0.2523  0.5125 -0.1185
  251MOL0     C33789  11.691   3.465  10.389 -0.1966 -0.1702  0.2679
  251MOL0     C33790  11.795   3.558  10.424 -0.6218 -0.7850  0.4676
  251MOL0     C33791  11.925   3.507  10.364  0.2416  0.6996 -0.1354
  251MOL0     C33792  12.040   3.604  10.390 -0.5634 -0.4784 -0.2110
  251MOL0     C33793  12.067   3.632  10.536 -0.4090  0.4036 -0.2486
  251MOL0     C33794  12.108   3.507  10.609  0.2680 -0.7190 -0.1630
  251MOL0    Cl33795  12.208   3.561  10.740 -0.1611  0.0141  0.0413
  251MOL0     C33796  11.208   3.462  10.319 -0.4100  0.2282 -0.1545
  251MOL0     C33797  11.068   3.450  10.291  0.0242 -0.3159 -0.6333
  251MOL0     O33798  10.873   3.563  10.050  0.4650  0.6099 -0.5928
  251MOL0     C33799  10.615   3.548  10.017  0.3216 -0.9318  0.5602
  251MOL0     C33800  10.481   3.545   9.979  0.1476  0.1352 -1.1789
  251MOL0     N33801   9.919   3.112   9.637  1.1097  0.2369 -0.2832
  251MOL0     N33802   9.799   3.088   9.585 -0.4918  0.2096  0.1743
  251MOL0     C33803   8.939   2.470   9.296  0.3616 -0.5720 -0.1886
  251MOL0     C33804   8.849   2.367   9.291 -0.3940 -0.0228 -0.1102
  251MOL0     C33805   8.548   2.090   9.260  0.9576 -0.7776 -0.5846
  251MOL0     C33806   8.589   1.971   9.319 -0.1547 -0.0765  0.5757
  251MOL0     C33807   8.501   1.873   9.346 -0.1482  1.1211 -1.2512
  251MOL0     C33808   8.361   1.885   9.328  0.5711  0.9232 -0.2491
  251MOL0     O33809   8.260   1.796   9.363  0.0431  0.4392 -0.4114
  251MOL0     C33810   8.188   1.842   9.474  0.0434 -0.4124 -0.5416
  251MOL0     C33811   8.098   1.724   9.511  0.2087 -1.3182  0.1594
  251MOL0     C33812   8.014   1.768   9.630 -0.0678 -0.3505  0.6794
  251MOL0     C33813   8.009   1.663   9.739 -0.2342  0.4283  0.0621
  251MOL0     C33814   8.001   1.720   9.872 -0.1437 -0.5368 -0.4654
  251MOL0     C33815   8.008   1.753   9.990 -0.2841  0.1106  0.2086
  251MOL0     C33816   8.324   2.001   9.283 -0.8954  0.2270  0.4587
  251MOL0     C33817   8.407   2.110   9.245 -0.4023 -0.0650 -0.2237
  251MOL0     H33818   8.953   2.181   9.033 -1.1280 -1.0601 -0.7014
  251MOL0     H33819   9.114   2.365   9.006  0.8338 -1.7905  0.5115
  251MOL0     H33820   9.291   2.519   9.309  1.8007  2.2465  0.3082
  251MOL0     H33821   9.279   2.443   9.155 -4.3305 -1.0498  1.0495
  251MOL0     H33822   9.436   2.602   9.082  1.5614 -1.9997  3.2973
  251MOL0     H33823   9.295   2.711   9.074  1.7942  3.2625  2.2115
  251MOL0     H33824   9.345   2.768   9.322  1.8188  1.4492  1.0121
  251MOL0     H33825   9.494   2.674   9.309 -1.5808 -0.2344  1.7162
  251MOL0     H33826   9.567   2.831   9.122  0.6420  1.1963 -0.0139
  251MOL0     H33827   9.406   2.897   9.142 -1.2311 -0.0643  1.1856
  251MOL0     H33828   9.608   2.895   9.374 -0.1788  2.0028  1.4056
  251MOL0     H33829   9.609   3.024   9.260  1.7299 -0.8447  1.1792
  251MOL0     H33830   9.391   3.107   9.339  0.7150  1.1000  2.0992
  251MOL0     H33831   9.370   2.956   9.430 -1.0718  1.6503 -0.4040
  251MOL0     H33832   9.438   3.142   9.575 -1.1998  0.4364 -1.7779
  251MOL0     H33833   9.573   3.021   9.573 -2.5210 -2.3576 -0.4255
  251MOL0     H33834   9.561   3.305   9.500 -1.1099 -0.9927  1.6522
  251MOL0     H33835   9.644   3.211   9.368  1.8913 -0.1047 -1.1610
  251MOL0     H33836   9.821   3.403   9.523 -1.2361 -0.1496 -1.7857
  251MOL0     H33837  10.136   3.262   9.694  1.4178  1.1568  0.0585
  251MOL0     H33838  10.093   3.399   9.600  2.1320  0.2577  0.6373
  251MOL0     H33839   9.907   3.444   9.801 -1.1370 -1.9332  0.3148
  251MOL0     H33840  10.079   3.503   9.825  3.0222 -1.9636 -1.8553
  251MOL0     H33841   9.996   3.233   9.919 -0.3379  0.2705  1.5783
  251MOL0     H33842   9.980   3.366  10.019  0.5812 -0.3103  1.5815
  251MOL0     H33843  10.230   3.239   9.894  0.9812  1.4383 -1.3895
  251MOL0     H33844  10.205   3.282  10.063 -1.0040  0.6578  0.4054
  251MOL0     H33845  10.401   3.234  10.066 -0.5970 -0.2162 -2.3317
  251MOL0     H33846  10.690   3.205  10.245 -0.0418 -1.5416  0.9662
  251MOL0     H33847  10.573   3.119  10.160  2.5342 -1.6846  1.8872
  251MOL0     H33848  10.731   3.144  10.077  1.4522 -0.1484  1.6126
  251MOL0     H33849  11.089   3.205  10.060 -3.9429 -0.2258  0.8236
  251MOL0     H33850  11.334   3.234  10.105  0.5469  3.7474 -3.2457
  251MOL0     H33851  11.571   3.286  10.223 -2.3199 -0.7049  1.7622
  251MOL0     H33852  11.501   3.392  10.104  0.8599  3.2232 -0.1324
  251MOL0     H33853  11.738   3.448  10.175  0.9174  0.8866  0.5397
  251MOL0     H33854  11.627   3.580  10.217  4.3237  1.9532  0.3738
  251MOL0     H33855  11.721   3.362  10.411 -2.9855 -1.9759 -3.2589
  251MOL0     H33856  11.605   3.488  10.453 -1.1847 -0.8001 -0.7776
  251MOL0     H33857  11.787   3.665  10.403  0.8008 -0.5579  0.9540
  251MOL0     H33858  11.815   3.545  10.531 -0.4747 -1.4554  0.3611
  251MOL0     H33859  11.924   3.482  10.258  0.4035 -2.8943  0.5942
  251MOL0     H33860  11.954   3.414  10.412 -0.6561 -0.3132 -1.5019
  251MOL0     H33861  12.130   3.564  10.343 -1.0030  2.3538 -3.9648
  251MOL0     H33862  12.028   3.701  10.341  2.8214  0.5187  0.6651
  251MOL0     H33863  11.981   3.667  10.594  2.8882  0.4342  5.3509
  251MOL0     H33864  12.134   3.718  10.547 -1.3210  0.8877  2.0149
  251MOL0     H33865  12.182   3.452  10.550  2.1201 -0.4730  1.7991
  251MOL0     H33866  12.033   3.438  10.647  1.1986 -1.7933 -0.2036
  251MOL0     H33867  11.246   3.529  10.395  0.7510 -2.7893  2.1190
  251MOL0     H33868  10.994   3.510  10.344  1.1963  1.1705 -0.6017
  251MOL0     H33869  10.666   3.641   9.995 -0.2706 -0.4183  1.3487
  251MOL0     H33870  10.432   3.636   9.946 -0.8041 -0.3146 -1.0420
  251MOL0     H33871   8.942   2.547   9.372  1.8826 -0.8259  0.0490
  251MOL0     H33872   8.779   2.366   9.373 -0.1457 -1.5462  0.1028
  251MOL0     H33873   8.696   1.949   9.316 -0.0648  0.3210 -2.3133
  251MOL0     H33874   8.549   1.792   9.400 -1.8138  0.1472 -1.1349
  251MOL0     H33875   8.252   1.856   9.562  0.7115  0.3178 -1.1289
  251MOL0     H33876   8.134   1.935   9.453  1.1163  0.5068  0.6256
  251MOL0     H33877   8.167   1.643   9.537  3.0736  0.5880 -1.0084
  251MOL0     H33878   8.023   1.698   9.435 -0.4529 -0.2387  0.4241
  251MOL0     H33879   7.909   1.786   9.605 -0.6054 -0.1840  2.9057
  251MOL0     H33880   8.052   1.861   9.674 -0.7817  0.1167  0.3349
  251MOL0     H33881   8.090   1.591   9.727  4.3017  4.7342  1.6289
  251MOL0     H33882   7.920   1.600   9.727  1.5918 -2.6965  1.4441
  251MOL0     H33883   8.030   1.777  10.092  0.7086 -2.3583  0.6456
  251MOL0     H33884   8.221   2.035   9.274 -0.2161  2.3100  0.1652
  251MOL0     H33885   8.374   2.203   9.201  0.3552 -0.2161 -1.1524
  252MOL0     O33886  11.148  11.000   9.990  0.8870  0.3044 -0.3122
  252MOL0     C33887  11.243  11.038   9.920  0.4414 -0.3966 -0.2498
  252MOL0     O33888  11.369  11.084   9.966  0.4981 -0.3920  0.4840
  252MOL0     C33889  11.384  11.123  10.097  0.3856 -0.1991 -0.1952
  252MOL0     C33890  11.370  11.038  10.201  0.0214 -0.8919  0.2613
  252MOL0     C33891  11.378  11.082  10.335  0.2734  0.7730 -0.0966
  252MOL0     C33892  11.390  11.222  10.369  0.2777  0.7337  0.8218
  252MOL0     O33893  11.406  11.265  10.495  0.2103  0.3836 -0.3195
  252MOL0     C33894  11.347  11.182  10.602  0.6357  0.0455  0.4078
  252MOL0     C33895  11.346  11.254  10.748  0.0512  0.6823  0.3173
  252MOL0     C33896  11.489  11.292  10.797 -0.4849 -0.0380  0.5152
  252MOL0     C33897  11.492  11.389  10.912  0.2309 -0.1041 -0.4214
  252MOL0     C33898  11.484  11.539  10.866 -0.4099 -0.1145 -0.1492
  252MOL0     C33899  11.493  11.627  10.995  1.1803 -0.2632  0.2978
  252MOL0     C33900  11.480  11.779  10.967 -1.2106  0.2700  0.0623
  252MOL0     C33901  11.428  11.837  11.105 -0.4657  0.4264  0.7092
  252MOL0     N33902  11.533  11.838  11.203 -1.0850 -0.1064  0.0071
  252MOL0     C33903  11.656  11.904  11.196  0.1726 -0.0554 -0.0980
  252MOL0     C33904  11.727  11.844  11.293  0.2749  0.0856  0.2998
  252MOL0     C33905  11.878  11.867  11.309  0.7678 -0.3047 -0.3008
  252MOL0     C33906  11.897  12.014  11.265  0.1910  0.2003 -1.2524
  252MOL0     C33907  12.035  12.057  11.311 -0.1312 -0.7746  0.5306
  252MOL0     C33908  12.159  12.007  11.262  1.5308 -0.1684 -0.1521
  252MOL0     O33909  12.261  12.099  11.306  1.1764 -0.5549 -0.2629
  252MOL0     C33910  12.320  12.092  11.429 -0.4116  0.9828 -0.1135
  252MOL0     C33911  12.422  12.181  11.441 -0.3557 -0.8365 -0.6466
  252MOL0     C33912  12.477  12.203  11.571  0.2086  0.0067  0.2084
  252MOL0     C33913  12.555  12.329  11.586 -0.8683  0.1731 -0.1675
  252MOL0     C33914  12.437  12.122  11.679 -0.3032 -0.1913  0.0118
  252MOL0     C33915  12.484  12.152  11.817  0.6375  0.1452  0.3116
  252MOL0     O33916  12.551  12.052  11.877 -0.1733 -0.2710 -0.3208
  252MOL0     C33917  12.615  12.061  11.995 -0.8763  0.2998 -0.4697
  252MOL0     C33918  12.705  11.961  12.021  0.2188  0.0857 -0.3706
  252MOL0     C33919  12.768  11.947  12.145 -1.1604 -0.0543  1.2056
  252MOL0     C33920  12.740  12.035  12.248 -0.5102 -0.0346 -0.7516
  252MOL0     O33921  12.790  12.019  12.376  0.0933 -0.0156 -0.2639
  252MOL0     C33922  12.875  11.920  12.406 -0.1858  0.3495  0.1983
  252MOL0     C33923  12.920  11.948  12.551  0.2773 -0.4572  0.3231
  252MOL0     C33924  13.000  11.836  12.617  1.0826  0.2604 -0.7395
  252MOL0     C33925  13.052  11.875  12.759 -0.1719  0.8105  0.1937
  252MOL0     C33926  13.162  11.771  12.807  0.5221  0.4126 -0.1365
  252MOL0     C33927  13.233  11.846  12.927 -0.4747  1.2176 -0.5544
  252MOL0     C33928  13.369  11.882  12.881  0.6089 -0.5953  0.7172
  252MOL0     C33929  13.394  11.989  12.773  0.1033 -0.2056 -0.6792
  252MOL0    Cl33930  13.556  11.986  12.724  0.0724  0.2611 -0.7340
  252MOL0     C33931  12.653  12.142  12.224 -0.2478  0.2303  0.4894
  252MOL0     C33932  12.592  12.159  12.094 -0.6650 -0.4319  0.0003
  252MOL0     O33933  12.462  12.262  11.859 -0.8715  0.2792  0.6195
  252MOL0     C33934  12.344  12.022  11.654  0.6623  0.7394 -0.3649
  252MOL0     C33935  12.278  12.008  11.537 -1.2024  0.3101  0.0926
  252MOL0     N33936  11.651  11.757  11.381  0.5096 -0.9850  0.6211
  252MOL0     N33937  11.537  11.755  11.314  0.3446  0.3775  0.4889
  252MOL0     C33938  11.415  11.308  10.257  1.0482  0.1235  0.2609
  252MOL0     C33939  11.407  11.254  10.133 -0.0164  0.3199 -0.2184
  252MOL0     C33940  11.238  11.045   9.771  0.9537  1.2850 -0.9163
  252MOL0     C33941  11.353  11.068   9.703 -0.7455  0.5692  0.5206
  252MOL0     C33942  11.341  11.065   9.565  0.3352 -0.3271  0.8922
  252MOL0     C33943  11.222  11.057   9.494 -0.0019  0.8225  0.8659
  252MOL0     O33944  11.212  11.086   9.362  1.1103  0.3677 -0.0561
  252MOL0     C33945  11.085  11.080   9.293  0.7264 -0.2036 -0.7513
  252MOL0     C33946  11.113  11.114   9.150 -1.1575 -0.3230 -0.1558
  252MOL0     C33947  11.116  10.988   9.070  0.4022  0.7691 -0.1480
  252MOL0     C33948  11.207  11.007   8.950  0.1858 -0.3639 -0.4821
  252MOL0     C33949  11.342  10.951   8.963 -0.5141  0.0612  0.2604
  252MOL0     C33950  11.457  10.906   8.973 -0.5096  0.8765 -0.2383
  252MOL0     C33951  11.111  11.023   9.569 -1.4162  0.1524 -1.0578
  252MOL0     C33952  11.119  11.017   9.705 -0.8401 -0.6032 -0.4853
  252MOL0     H33953  11.352  10.934  10.179 -3.5824 -0.5165  0.8545
  252MOL0     H33954  11.366  11.002  10.407 -1.1051 -0.6526 -1.8077
  252MOL0     H33955  11.239  11.171  10.586  0.4490  1.1623  0.7896
  252MOL0     H33956  11.404  11.089  10.610  1.7721  0.3843 -2.7226
  252MOL0     H33957  11.292  11.348  10.737  2.1952  1.6701 -3.9541
  252MOL0     H33958  11.298  11.186  10.819 -0.6558 -0.5686 -1.2923
  252MOL0     H33959  11.540  11.199  10.825 -1.3740 -0.3532  1.1559
  252MOL0     H33960  11.540  11.342  10.714 -0.7894 -1.3522 -0.5044
  252MOL0     H33961  11.416  11.362  10.986  1.3427 -2.4693 -0.0412
  252MOL0     H33962  11.586  11.372  10.966 -0.7840 -1.4072  1.0308
  252MOL0     H33963  11.574  11.546  10.804  0.4922 -4.4320  0.3705
  252MOL0     H33964  11.398  11.558  10.800  1.0604 -0.5680 -2.2891
  252MOL0     H33965  11.406  11.600  11.056  1.2795  0.9964  1.0215
  252MOL0     H33966  11.583  11.600  11.050 -1.7402 -0.7023  5.4713
  252MOL0     H33967  11.575  11.816  10.928 -1.6047  1.5712  0.2799
  252MOL0     H33968  11.404  11.796  10.891  0.6888  1.5599 -1.6591
  252MOL0     H33969  11.342  11.778  11.138  1.0985 -3.0560 -0.9135
  252MOL0     H33970  11.391  11.939  11.090  1.5670  0.7325 -3.7915
  252MOL0     H33971  11.680  11.981  11.124 -0.6319 -0.2364 -0.5714
  252MOL0     H33972  11.908  11.862  11.414  3.7840  2.8032 -0.8343
  252MOL0     H33973  11.929  11.808  11.232 -0.6564  2.4123 -3.5871
  252MOL0     H33974  11.831  12.085  11.316 -0.5327 -1.4529  0.2221
  252MOL0     H33975  11.880  12.034  11.159 -0.6859  0.9955 -0.9748
  252MOL0     H33976  12.036  12.035  11.418 -0.1204 -0.6311  0.5604
  252MOL0     H33977  12.033  12.166  11.303 -0.9165 -0.6618  1.9338
  252MOL0     H33978  12.170  11.994  11.153 -0.5694  0.2690 -0.4608
  252MOL0     H33979  12.177  11.905  11.296 -0.8742 -0.6294 -0.1027
  252MOL0     H33980  12.470  12.227  11.355 -2.8153  0.6156 -1.3274
  252MOL0     H33981  12.483  12.410  11.603 -0.4765  0.4009  0.4544
  252MOL0     H33982  12.631  12.326  11.665 -0.3820  2.0600 -0.5177
  252MOL0     H33983  12.614  12.349  11.497  1.6700 -1.8010  0.9570
  252MOL0     H33984  12.716  11.895  11.935 -1.5586  0.7608 -1.1584
  252MOL0     H33985  12.834  11.863  12.161 -1.7129 -0.7648 -0.0952
  252MOL0     H33986  12.826  11.823  12.397  1.8147 -0.7402  0.5517
  252MOL0     H33987  12.965  11.923  12.344  0.4013  0.7630  1.0425
  252MOL0     H33988  12.986  12.036  12.554  0.1305 -0.3491  0.4424
  252MOL0     H33989  12.834  11.973  12.614  1.4153 -2.9058  3.0149
  252MOL0     H33990  13.082  11.800  12.554  1.9939  2.9421 -1.1988
  252MOL0     H33991  12.938  11.747  12.626  1.1188  0.1850 -1.2193
  252MOL0     H33992  13.111  11.966  12.750  1.2481 -0.2245 -1.7686
  252MOL0     H33993  12.977  11.889  12.837  0.8903 -3.2859  2.2120
  252MOL0     H33994  13.241  11.751  12.734  2.6933 -0.2319  2.2600
  252MOL0     H33995  13.104  11.679  12.821 -0.4178  0.8377 -1.1100
  252MOL0     H33996  13.178  11.938  12.953  0.6340  1.8822 -0.5035
  252MOL0     H33997  13.249  11.781  13.014 -0.4329  0.0922 -1.3946
  252MOL0     H33998  13.416  11.789  12.846  1.4914  0.0234  0.2372
  252MOL0     H33999  13.437  11.923  12.956  0.0433  1.5990  0.0817
  252MOL0     H34000  13.364  12.083  12.820  1.1973 -0.8291  1.4117
  252MOL0     H34001  13.335  11.982  12.682 -3.4878 -3.0865  1.5948
  252MOL0     H34002  12.648  12.217  12.302  1.1894  2.0136 -1.0331
  252MOL0     H34003  12.534  12.250  12.086 -0.0766 -0.0112  0.4030
  252MOL0     H34004  12.316  11.953  11.732  2.0520  1.6952  1.0261
  252MOL0     H34005  12.201  11.934  11.517  1.1695 -2.1529 -0.4701
  252MOL0     H34006  11.444  11.412  10.267  2.9433 -0.2030 -1.1971
  252MOL0     H34007  11.421  11.322  10.050  0.5800 -0.3776 -0.7070
  252MOL0     H34008  11.453  11.085   9.742 -1.4976  0.8516  2.4463
  252MOL0     H34009  11.436  11.086   9.516  0.5910 -0.6029  1.2598
  252MOL0     H34010  11.021  10.994   9.315 -1.5030  1.9851  2.2451
  252MOL0     H34011  11.031  11.169   9.328  1.0378 -0.4997  0.5442
  252MOL0     H34012  11.204  11.175   9.155 -0.3553 -1.5310  0.5343
  252MOL0     H34013  11.041  11.189   9.117  1.3342  3.0172  1.3890
  252MOL0     H34014  11.014  10.982   9.032  1.4695 -0.3537 -3.0692
  252MOL0     H34015  11.149  10.898   9.122  2.6299  2.4025  1.4562
  252MOL0     H34016  11.222  11.115   8.936  2.7371 -0.7428 -1.1274
  252MOL0     H34017  11.172  10.955   8.861  2.7508 -1.3384 -1.0074
  252MOL0     H34018  11.550  10.854   8.986 -1.5110 -1.4862 -1.9197
  252MOL0     H34019  11.018  11.006   9.516 -0.5372  1.6120 -3.2100
  252MOL0     H34020  11.034  10.987   9.766 -0.2846  1.7131  1.5816
  253MOL0     O34021   7.160   1.334   4.789 -0.2131  0.6421 -0.9217
  253MOL0     C34022   7.110   1.222   4.802 -0.2959  0.3164  0.6614
  253MOL0     O34023   7.164   1.114   4.751  0.0742  0.7101  0.2420
  253MOL0     C34024   7.286   1.114   4.690 -0.5543  0.1169 -0.2857
  253MOL0     C34025   7.403   1.141   4.760 -0.8395  0.3047 -0.9745
  253MOL0     C34026   7.528   1.158   4.699  0.1412  0.2115 -1.0512
  253MOL0     C34027   7.540   1.146   4.561  0.3726  0.5879 -0.3348
  253MOL0     O34028   7.664   1.172   4.515 -0.5620 -0.0197  0.7532
  253MOL0     C34029   7.674   1.204   4.380  0.3235 -0.2331  0.6845
  253MOL0     C34030   7.801   1.292   4.346 -0.0592 -0.0419  1.0573
  253MOL0     C34031   7.837   1.403   4.446 -0.9904 -0.9398  0.1215
  253MOL0     C34032   7.953   1.493   4.395  1.0494 -0.8480 -0.4901
  253MOL0     C34033   7.965   1.611   4.488  0.0747  0.1428 -0.1391
  253MOL0     C34034   7.861   1.727   4.454 -1.4877 -0.3764 -0.4942
  253MOL0     C34035   7.895   1.870   4.508  1.3446 -1.1188  0.0640
  253MOL0     C34036   7.817   1.981   4.442 -0.5085 -0.0821 -0.1027
  253MOL0     N34037   7.692   1.994   4.506 -0.4148  0.7304  0.0866
  253MOL0     C34038   7.568   1.961   4.459 -0.0272 -0.1152  1.0705
  253MOL0     C34039   7.490   1.957   4.574  0.1581 -0.9816 -1.3977
  253MOL0     C34040   7.350   1.908   4.580 -0.6179  0.7421  0.4575
  253MOL0     C34041   7.321   1.793   4.670  0.2021  0.1049  0.3757
  253MOL0     C34042   7.303   1.840   4.818 -0.3246 -0.0093  0.0297
  253MOL0     C34043   7.303   1.713   4.903 -0.5323 -0.0478  0.8007
  253MOL0     O34044   7.350   1.729   5.033 -0.2932  0.2137  0.0794
  253MOL0     C34045   7.332   1.626   5.118  0.6736 -0.4763 -0.5357
  253MOL0     C34046   7.294   1.493   5.089 -0.0377 -0.5691  0.0816
  253MOL0     C34047   7.263   1.413   5.201 -0.1010 -0.5965  0.2180
  253MOL0     C34048   7.242   1.260   5.168  0.3913 -0.7781 -0.1676
  253MOL0     C34049   7.256   1.472   5.337 -0.4675 -0.7180 -0.0426
  253MOL0     C34050   7.232   1.395   5.464 -0.1348 -0.4295 -0.4306
  253MOL0     O34051   7.250   1.456   5.581 -0.1453 -0.2452  0.0758
  253MOL0     C34052   7.225   1.389   5.703  0.0249 -0.8607  0.4245
  253MOL0     C34053   7.235   1.487   5.811  0.7982  0.0462  0.9230
  253MOL0     C34054   7.210   1.456   5.941  1.4156  0.2634  0.0535
  253MOL0     C34055   7.199   1.323   5.978 -0.2815  0.6174 -0.1153
  253MOL0     O34056   7.210   1.289   6.111 -0.7002 -0.5696 -0.3767
  253MOL0     C34057   7.115   1.187   6.154  0.2608  0.0329  0.0631
  253MOL0     C34058   7.097   1.173   6.307  0.2309 -0.0110  0.0721
  253MOL0     C34059   7.088   1.313   6.361 -1.0455  0.3186  0.8447
  253MOL0     C34060   7.053   1.306   6.515  0.4472  0.3975  0.0318
  253MOL0     C34061   6.980   1.430   6.561 -0.8091 -0.4346 -0.1510
  253MOL0     C34062   6.944   1.447   6.711 -0.3270 -0.3486 -0.6286
  253MOL0     C34063   6.799   1.507   6.733  0.6464  0.7817  0.4186
  253MOL0     C34064   6.812   1.601   6.852 -0.6998  0.1588 -0.4319
  253MOL0    Cl34065   6.666   1.698   6.860 -0.4809  0.5890  0.4818
  253MOL0     C34066   7.189   1.223   5.873  0.2759  0.1818  0.0771
  253MOL0     C34067   7.196   1.256   5.739 -0.2150  0.5413 -0.4866
  253MOL0     O34068   7.218   1.277   5.448  0.3198 -0.3816  0.6548
  253MOL0     C34069   7.286   1.605   5.354 -0.2451 -0.1338  0.6392
  253MOL0     C34070   7.323   1.682   5.247 -0.4454  0.4392  0.8131
  253MOL0     N34071   7.564   1.997   4.684 -0.2547  0.2418  0.1769
  253MOL0     N34072   7.692   2.014   4.640  0.1756 -0.0856  0.2799
  253MOL0     C34073   7.426   1.106   4.486  0.2703  0.4677 -0.1869
  253MOL0     C34074   7.306   1.089   4.556  1.1283 -0.2685 -0.4282
  253MOL0     C34075   7.007   1.203   4.898  0.1931  0.0122  0.0667
  253MOL0     C34076   6.921   1.308   4.941 -0.3837  0.8172 -0.5221
  253MOL0     C34077   6.815   1.281   5.025 -0.5690 -0.7054  0.3034
  253MOL0     C34078   6.789   1.152   5.073  0.3449 -0.2615  0.8770
  253MOL0     O34079   6.677   1.145   5.143  0.3796  0.2876  0.0722
  253MOL0     C34080   6.608   1.022   5.190  0.3349  0.1165  0.1330
  253MOL0     C34081   6.531   0.942   5.091 -0.3272 -0.3494  0.1728
  253MOL0     C34082   6.442   0.840   5.156  0.8644  0.1525 -0.1931
  253MOL0     C34083   6.510   0.751   5.264 -0.0951  0.1342  0.2333
  253MOL0     C34084   6.528   0.814   5.395  0.1960 -0.4185 -0.3876
  253MOL0     C34085   6.535   0.863   5.508  0.9908  0.6669 -0.9598
  253MOL0     C34086   6.866   1.049   5.033  0.3168 -0.1735 -0.2892
  253MOL0     C34087   6.975   1.073   4.952  1.1075 -0.2947  0.6503
  253MOL0     H34088   7.391   1.153   4.867  0.0276 -0.0432 -0.8249
  253MOL0     H34089   7.618   1.181   4.755  0.0650 -0.7817 -0.5008
  253MOL0     H34090   7.677   1.108   4.328  1.8760  0.0867  0.1276
  253MOL0     H34091   7.593   1.267   4.343  0.8737  0.8612  1.2872
  253MOL0     H34092   7.881   1.219   4.337 -0.8303 -0.8077  0.2146
  253MOL0     H34093   7.788   1.343   4.250 -1.3413  0.6097  1.5489
  253MOL0     H34094   7.755   1.474   4.458  1.5048  1.9471  1.3530
  253MOL0     H34095   7.875   1.368   4.543 -0.5478  1.1506  0.7651
  253MOL0     H34096   8.054   1.451   4.389  0.9921 -1.5175  2.2114
  253MOL0     H34097   7.937   1.522   4.291  1.7953  0.7148 -0.1911
  253MOL0     H34098   7.949   1.577   4.591 -1.8584 -1.7205 -0.9843
  253MOL0     H34099   8.065   1.656   4.487  0.0146  0.2684 -0.7254
  253MOL0     H34100   7.878   1.728   4.346  3.9799 -2.0791  0.0164
  253MOL0     H34101   7.760   1.697   4.483 -0.6471 -3.2126 -0.1803
  253MOL0     H34102   7.886   1.875   4.617 -0.4455 -1.9113 -0.0121
  253MOL0     H34103   7.998   1.893   4.483  1.1782 -0.0117  0.3349
  253MOL0     H34104   7.806   1.963   4.334  2.4080 -1.2927 -0.2882
  253MOL0     H34105   7.871   2.075   4.456  0.3843 -0.6048  0.0406
  253MOL0     H34106   7.544   1.939   4.356 -0.3641 -2.1081  1.5343
  253MOL0     H34107   7.282   1.991   4.604  0.5759  1.9712 -0.3076
  253MOL0     H34108   7.340   1.874   4.477  3.0444  2.0404 -0.4563
  253MOL0     H34109   7.410   1.729   4.664  0.0724 -0.4409  2.8400
  253MOL0     H34110   7.238   1.736   4.628  1.8510 -1.2782 -1.1670
  253MOL0     H34111   7.211   1.897   4.831 -1.4489 -1.5390 -0.8522
  253MOL0     H34112   7.383   1.906   4.852 -1.1533  0.8815  0.2923
  253MOL0     H34113   7.377   1.646   4.858 -2.0337 -2.2751  1.4574
  253MOL0     H34114   7.204   1.668   4.889 -1.7707  2.8816 -0.6515
  253MOL0     H34115   7.297   1.452   4.989 -3.4418  2.0807 -1.2749
  253MOL0     H34116   7.149   1.228   5.216 -0.2904 -2.3863 -2.3858
  253MOL0     H34117   7.228   1.241   5.061 -0.0510 -1.5774  0.0267
  253MOL0     H34118   7.327   1.205   5.209 -0.9020 -0.7049  2.8840
  253MOL0     H34119   7.243   1.593   5.788 -3.6890  1.0172  2.7527
  253MOL0     H34120   7.202   1.534   6.016 -0.3272  1.0771 -0.9126
  253MOL0     H34121   7.015   1.210   6.114  0.8891 -0.6881 -2.0790
  253MOL0     H34122   7.147   1.090   6.115  1.5302  0.0967  0.8835
  253MOL0     H34123   7.004   1.119   6.327  0.0269 -0.3606 -1.7209
  253MOL0     H34124   7.184   1.130   6.357  1.1132  1.9368  0.2889
  253MOL0     H34125   7.016   1.376   6.309  0.2897  1.6583  0.5407
  253MOL0     H34126   7.184   1.365   6.352 -0.6452 -0.6471 -0.7897
  253MOL0     H34127   6.980   1.225   6.526  0.3620  0.3665 -0.6747
  253MOL0     H34128   7.146   1.290   6.569  0.5217  1.7635  0.3176
  253MOL0     H34129   6.892   1.446   6.498  0.4651  4.1932 -1.1920
  253MOL0     H34130   7.039   1.516   6.527  1.0201 -2.2221 -1.7652
  253MOL0     H34131   6.952   1.345   6.752 -3.0416 -0.3259  0.0975
  253MOL0     H34132   7.021   1.506   6.761 -0.2011 -2.1897  1.5416
  253MOL0     H34133   6.727   1.426   6.750 -0.0903  0.9912 -1.4737
  253MOL0     H34134   6.757   1.553   6.643  0.6419 -2.5075 -1.4449
  253MOL0     H34135   6.883   1.682   6.833 -1.7220  1.3349  0.6218
  253MOL0     H34136   6.851   1.555   6.944 -1.2088  0.8778  0.1529
  253MOL0     H34137   7.159   1.121   5.891  2.3742 -0.2883  1.2292
  253MOL0     H34138   7.183   1.179   5.664  0.0789  1.3494 -1.4006
  253MOL0     H34139   7.263   1.657   5.446 -2.1709 -1.1021  0.7506
  253MOL0     H34140   7.342   1.789   5.245 -0.2393  0.3933  0.0879
  253MOL0     H34141   7.435   1.089   4.380 -1.9181  0.5170 -0.4266
  253MOL0     H34142   7.220   1.044   4.506  0.9772 -0.9072  0.3869
  253MOL0     H34143   6.962   1.406   4.920  0.7415  0.5860  0.4828
  253MOL0     H34144   6.749   1.364   5.051  0.1835 -0.5935  1.9481
  253MOL0     H34145   6.684   0.962   5.240  0.4600 -0.4142 -0.6710
  253MOL0     H34146   6.525   1.046   5.257 -1.9165 -3.4684 -1.0853
  253MOL0     H34147   6.602   0.874   5.045 -0.5441 -1.1181  0.9561
  253MOL0     H34148   6.479   1.012   5.025  1.2354  1.8244  1.1028
  253MOL0     H34149   6.400   0.771   5.082  0.9399  1.9866 -2.0512
  253MOL0     H34150   6.352   0.892   5.190  1.3641  1.1877 -0.4173
  253MOL0     H34151   6.607   0.711   5.231  0.6741  0.7185  1.7138
  253MOL0     H34152   6.443   0.667   5.282  2.4068 -2.0570 -0.0277
  253MOL0     H34153   6.533   0.919   5.600  2.0911 -0.6178 -0.1305
  253MOL0     H34154   6.850   0.954   5.084 -0.6100 -0.5041 -1.1601
  253MOL0     H34155   7.053   0.999   4.937 -0.3760 -1.6346 -0.7949
  254MOL0     O34156   7.952   1.985   7.311 -0.5301 -0.1410 -0.0765
  254MOL0     C34157   7.931   2.100   7.265  0.2150 -0.3080 -0.3746
  254MOL0     O34158   7.803   2.159   7.262 -0.3776 -0.1382  1.0062
  254MOL0     C34159   7.697   2.075   7.281 -0.7248 -0.1775 -0.7971
  254MOL0     C34160   7.685   2.021   7.407  0.4391  0.6062  0.3408
  254MOL0     C34161   7.571   1.941   7.444 -1.3320 -0.4095  0.5716
  254MOL0     C34162   7.466   1.939   7.351 -0.2110 -0.3206  0.0685
  254MOL0     O34163   7.361   1.864   7.403 -0.2168  0.3730  0.3604
  254MOL0     C34164   7.257   1.824   7.312 -0.4106  0.2001  0.0179
  254MOL0     C34165   7.133   1.787   7.389 -0.3614 -0.4515  0.0893
  254MOL0     C34166   7.028   1.738   7.288 -0.4742 -0.0356 -0.1180
  254MOL0     C34167   6.890   1.721   7.348  0.2426  0.0811  0.0670
  254MOL0     C34168   6.791   1.666   7.246 -0.7970  0.1166 -0.1981
  254MOL0     C34169   6.648   1.619   7.302 -1.1785 -0.1715 -0.7194
  254MOL0     C34170   6.580   1.717   7.389  1.1004 -0.5286  0.2910
  254MOL0     C34171   6.501   1.823   7.308 -0.8232  0.6080  1.0397
  254MOL0     N34172   6.364   1.774   7.280 -0.0938 -0.7904  0.1604
  254MOL0     C34173   6.319   1.755   7.153  0.5893 -0.2499  0.9108
  254MOL0     C34174   6.197   1.691   7.167  0.3197  0.8610  0.8565
  254MOL0     C34175   6.102   1.622   7.066 -0.3904 -0.4561 -0.4938
  254MOL0     C34176   6.133   1.466   7.067  0.3563 -0.4983  0.3801
  254MOL0     C34177   6.059   1.391   6.960  0.8374 -1.1040 -0.1428
  254MOL0     C34178   6.119   1.389   6.819 -0.3343 -0.4390 -0.0959
  254MOL0     O34179   6.228   1.484   6.795  0.2424  0.4820 -0.8610
  254MOL0     C34180   6.200   1.603   6.733  0.3876 -0.0863 -0.3767
  254MOL0     C34181   6.309   1.674   6.688 -0.0160 -0.8013  0.0592
  254MOL0     C34182   6.303   1.801   6.634  0.6677  0.9953  0.2804
  254MOL0     C34183   6.423   1.844   6.558  0.2552 -0.7455  0.1860
  254MOL0     C34184   6.178   1.871   6.642  0.2617 -0.1551  0.4039
  254MOL0     C34185   6.158   2.016   6.592  0.9871  0.5180  0.3484
  254MOL0     O34186   6.262   2.092   6.547  0.0411  0.5176 -0.4026
  254MOL0     C34187   6.243   2.233   6.528 -0.2995 -0.2152 -0.1008
  254MOL0     C34188   6.135   2.315   6.587 -0.2264 -0.3795  0.6776
  254MOL0     C34189   6.133   2.451   6.562 -0.3776 -0.0002  0.3845
  254MOL0     C34190   6.222   2.518   6.482  0.3486 -0.4619  0.0168
  254MOL0     O34191   6.209   2.657   6.452  0.4924  1.3943 -0.0245
  254MOL0     C34192   6.182   2.751   6.560  0.1282 -1.2393  1.0678
  254MOL0     C34193   6.255   2.884   6.528  0.1606  0.2015  0.5963
  254MOL0     C34194   6.225   2.927   6.388  0.2618 -0.8829  0.2584
  254MOL0     C34195   6.255   3.075   6.380 -0.4331 -0.5825  0.3043
  254MOL0     C34196   6.295   3.109   6.235  0.4579 -0.4893 -0.5009
  254MOL0     C34197   6.333   3.261   6.244  0.5199 -0.1504 -0.1989
  254MOL0     C34198   6.377   3.314   6.103 -1.1218 -0.0989  0.3319
  254MOL0     C34199   6.531   3.284   6.092 -0.2082  0.5908 -0.0022
  254MOL0    Cl34200   6.604   3.379   5.960  0.1244  0.2562  0.5280
  254MOL0     C34201   6.319   2.443   6.421  0.6390  0.5507  0.7421
  254MOL0     C34202   6.332   2.307   6.451 -0.5989 -0.0386  0.0205
  254MOL0     O34203   6.038   2.047   6.589  0.3171 -0.4437  0.0121
  254MOL0     C34204   6.068   1.803   6.701 -0.1877  0.6489  0.1144
  254MOL0     C34205   6.078   1.670   6.740  0.5788  0.4617  0.3082
  254MOL0     N34206   6.175   1.665   7.304  0.1571 -0.2554 -0.6598
  254MOL0     N34207   6.279   1.711   7.369  0.4270 -0.3099 -0.2787
  254MOL0     C34208   7.467   2.011   7.229  0.8443  0.4059  0.3042
  254MOL0     C34209   7.597   2.065   7.191 -0.0794  0.0402  0.2721
  254MOL0     C34210   8.045   2.178   7.206  0.0164  0.0911  1.0291
  254MOL0     C34211   8.029   2.301   7.136  0.2969 -0.0219 -0.8899
  254MOL0     C34212   8.132   2.362   7.070 -0.7026  0.0479 -0.1877
  254MOL0     C34213   8.262   2.313   7.088 -0.2249 -0.2333 -0.2253
  254MOL0     O34214   8.351   2.384   7.013  0.0808  0.0495  0.5937
  254MOL0     C34215   8.494   2.348   7.015  0.8127  0.5953 -0.7347
  254MOL0     C34216   8.532   2.271   6.887  1.4398 -0.8830 -0.8836
  254MOL0     C34217   8.490   2.369   6.774 -0.5438  0.8225  1.1877
  254MOL0     C34218   8.544   2.327   6.640  0.1993  0.3538 -0.7548
  254MOL0     C34219   8.684   2.336   6.619 -0.3089 -0.1106 -0.5118
  254MOL0     C34220   8.795   2.310   6.582 -0.6139 -0.4891 -0.0433
  254MOL0     C34221   8.283   2.190   7.159 -0.7376 -0.5568  0.9407
  254MOL0     C34222   8.170   2.125   7.210  0.5147 -0.0758  1.4116
  254MOL0     H34223   7.767   2.036   7.476  0.3984  1.1863  0.2682
  254MOL0     H34224   7.558   1.888   7.538 -0.1487  0.0616  1.0246
  254MOL0     H34225   7.226   1.913   7.256  3.2532  0.3680 -2.0943
  254MOL0     H34226   7.280   1.755   7.230 -1.1721  1.5199 -1.3529
  254MOL0     H34227   7.164   1.706   7.456  1.9334 -0.0486 -0.3967
  254MOL0     H34228   7.115   1.872   7.455 -0.2594  0.6716 -1.2911
  254MOL0     H34229   7.025   1.813   7.208  3.3099 -2.1169 -2.5015
  254MOL0     H34230   7.053   1.650   7.229  0.1619 -0.1428  0.2935
  254MOL0     H34231   6.895   1.647   7.428  1.4696 -2.6218 -2.3412
  254MOL0     H34232   6.861   1.815   7.396  0.0979 -0.8293  1.8501
  254MOL0     H34233   6.766   1.747   7.178 -1.6978  1.7685  1.9671
  254MOL0     H34234   6.836   1.586   7.187 -2.9971  1.5843 -4.2355
  254MOL0     H34235   6.579   1.584   7.225 -3.6408 -0.0347  1.3047
  254MOL0     H34236   6.672   1.533   7.366  1.9322 -0.2572 -1.7898
  254MOL0     H34237   6.521   1.661   7.462  1.7191  1.0624  2.0696
  254MOL0     H34238   6.649   1.775   7.451 -1.2872  1.6224  1.1085
  254MOL0     H34239   6.549   1.857   7.216  2.2805  0.6818  2.5825
  254MOL0     H34240   6.503   1.908   7.377 -1.3657  1.5607 -0.0740
  254MOL0     H34241   6.357   1.774   7.054 -0.8210  0.1588  0.4275
  254MOL0     H34242   5.997   1.638   7.088 -0.0563  4.0441 -1.3762
  254MOL0     H34243   6.119   1.671   6.969 -1.0894 -0.2249 -0.5043
  254MOL0     H34244   6.100   1.432   7.166 -0.2074  2.3017  1.2345
  254MOL0     H34245   6.238   1.435   7.069  0.9581  1.4024 -0.4377
  254MOL0     H34246   5.958   1.433   6.956  0.8787 -0.6777  2.1854
  254MOL0     H34247   6.043   1.285   6.985 -0.6931 -1.3383 -1.8725
  254MOL0     H34248   6.044   1.405   6.741 -1.3146  2.1225  1.2602
  254MOL0     H34249   6.152   1.285   6.808 -2.0850 -1.3960  2.6429
  254MOL0     H34250   6.408   1.628   6.697  2.3283  3.1830 -2.5036
  254MOL0     H34251   6.478   1.759   6.518 -1.3403 -1.2827 -0.9761
  254MOL0     H34252   6.386   1.899   6.471  0.7546 -2.2779 -1.0470
  254MOL0     H34253   6.476   1.913   6.625 -0.9438 -0.3886  0.7988
  254MOL0     H34254   6.057   2.271   6.649 -2.1293  1.3430 -0.3807
  254MOL0     H34255   6.045   2.507   6.593  1.3999  2.6516  1.0477
  254MOL0     H34256   6.076   2.775   6.573  0.1544 -0.1405 -0.4323
  254MOL0     H34257   6.222   2.709   6.652  2.9050  0.9884  1.0058
  254MOL0     H34258   6.214   2.967   6.586 -3.8532 -0.3602 -1.0863
  254MOL0     H34259   6.364   2.880   6.536  0.4259  1.0575 -1.9250
  254MOL0     H34260   6.124   2.906   6.352  0.1021 -0.5869  0.5321
  254MOL0     H34261   6.300   2.881   6.322  1.1353  0.8326 -0.0223
  254MOL0     H34262   6.167   3.134   6.407 -0.3664  0.2762 -1.2436
  254MOL0     H34263   6.342   3.098   6.442 -0.0139 -0.2565 -0.3874
  254MOL0     H34264   6.215   3.100   6.161 -0.1930  0.6736  0.0373
  254MOL0     H34265   6.394   3.065   6.219  0.2289 -0.5823 -1.7458
  254MOL0     H34266   6.256   3.328   6.283  0.4097 -1.6317  2.3609
  254MOL0     H34267   6.417   3.266   6.314  0.8650  0.7484 -0.6672
  254MOL0     H34268   6.373   3.422   6.119  2.2075  0.0250  1.1619
  254MOL0     H34269   6.313   3.269   6.027 -1.6001 -1.0915  1.2974
  254MOL0     H34270   6.562   3.180   6.082 -0.3729  0.4017  1.3702
  254MOL0     H34271   6.583   3.322   6.181 -1.0384 -2.4214  1.8965
  254MOL0     H34272   6.392   2.486   6.353  0.4788  0.5463  0.5653
  254MOL0     H34273   6.413   2.254   6.401  0.6778  1.0018  0.9129
  254MOL0     H34274   5.973   1.853   6.718  0.1193  1.7156 -1.1330
  254MOL0     H34275   5.986   1.637   6.786  0.8607 -0.9630 -0.0888
  254MOL0     H34276   7.387   2.016   7.155  0.0229  3.2044  1.2665
  254MOL0     H34277   7.614   2.111   7.094  0.7839  0.2538  0.5172
  254MOL0     H34278   7.931   2.347   7.133 -0.3283 -0.7188  3.4708
  254MOL0     H34279   8.113   2.443   7.000  0.0253  0.0365 -0.4093
  254MOL0     H34280   8.568   2.428   7.026  0.8078  0.4184  0.8759
  254MOL0     H34281   8.517   2.281   7.098 -0.7872  1.2461  0.2857
  254MOL0     H34282   8.459   2.189   6.888 -0.1990  0.5107  0.6666
  254MOL0     H34283   8.637   2.241   6.885  2.1424  0.6184  3.6753
  254MOL0     H34284   8.509   2.477   6.779  2.1783  0.5972 -1.2286
  254MOL0     H34285   8.382   2.364   6.755 -0.0901  2.9379 -3.7063
  254MOL0     H34286   8.492   2.390   6.568 -0.9907  1.1482  0.7525
  254MOL0     H34287   8.527   2.221   6.617  0.4541  0.9162 -4.0377
  254MOL0     H34288   8.890   2.299   6.534 -0.3259 -0.0240  0.4180
  254MOL0     H34289   8.385   2.157   7.175  0.6347  1.3628 -2.6798
  254MOL0     H34290   8.178   2.035   7.269 -0.0840  0.2095  1.9370
  255MOL0     O34291   9.476   7.187   2.206  0.9195  1.0169  0.7748
  255MOL0     C34292   9.480   7.308   2.200  0.6881 -0.1924 -0.2228
  255MOL0     O34293   9.544   7.390   2.279 -0.3188  0.0870 -0.4251
  255MOL0     C34294   9.650   7.347   2.351  0.1936 -0.0481 -0.0888
  255MOL0     C34295   9.743   7.265   2.287 -0.4422  0.7701  0.1929
  255MOL0     C34296   9.862   7.220   2.354  0.6671 -0.3771  0.2161
  255MOL0     C34297   9.874   7.246   2.492 -0.7973 -0.0434 -0.0052
  255MOL0     O34298   9.960   7.186   2.576 -0.5185  0.3664 -0.5054
  255MOL0     C34299  10.094   7.234   2.565  0.5348  0.0685 -1.2333
  255MOL0     C34300  10.185   7.146   2.664  0.1308 -0.6006 -0.3277
  255MOL0     C34301  10.134   7.161   2.817  0.7168 -0.0207  0.2337
  255MOL0     C34302  10.129   7.305   2.863  0.2521 -0.9687 -0.6702
  255MOL0     C34303  10.115   7.340   3.012  0.0844 -0.5337 -1.0719
  255MOL0     C34304  10.027   7.252   3.090  0.4194 -0.2730  0.3067
  255MOL0     C34305  10.036   7.270   3.245  0.2008 -0.9222  0.4914
  255MOL0     C34306   9.987   7.404   3.301  0.1234 -0.5754  0.0316
  255MOL0     N34307  10.073   7.524   3.268  0.3686  1.0933  0.3021
  255MOL0     C34308  10.196   7.541   3.333 -0.3169 -0.0386  0.3731
  255MOL0     C34309  10.235   7.661   3.308  0.4413 -0.2800  0.5706
  255MOL0     C34310  10.372   7.712   3.354  0.1149 -0.7390 -0.7328
  255MOL0     C34311  10.336   7.793   3.486  0.0918 -0.6264 -0.2050
  255MOL0     C34312  10.462   7.840   3.565  0.0934 -1.0664 -0.4008
  255MOL0     C34313  10.481   7.999   3.572  0.3782 -0.5765 -0.1227
  255MOL0     O34314  10.581   8.016   3.685  0.4099 -0.6789 -0.2431
  255MOL0     C34315  10.570   8.120   3.773 -0.5645  0.4415 -0.5943
  255MOL0     C34316  10.688   8.169   3.830 -0.6885 -0.2232  0.2886
  255MOL0     C34317  10.704   8.275   3.930  0.3252 -1.4121  0.3054
  255MOL0     C34318  10.841   8.318   3.969 -1.2343 -0.2496  0.6618
  255MOL0     C34319  10.585   8.354   3.960 -0.4208  0.1090 -0.0363
  255MOL0     C34320  10.583   8.485   4.034 -0.1058  0.6789  0.5677
  255MOL0     O34321  10.466   8.554   4.032 -0.6303 -0.6750  0.3263
  255MOL0     C34322  10.445   8.674   4.093  0.0807 -0.1390  0.4407
  255MOL0     C34323  10.313   8.716   4.045  0.1649 -0.5858 -0.6879
  255MOL0     C34324  10.274   8.847   4.080  0.6676  0.0147 -0.6051
  255MOL0     C34325  10.343   8.921   4.183  0.1412  0.4675 -0.2478
  255MOL0     O34326  10.315   9.048   4.228  0.6379 -0.1854  0.0551
  255MOL0     C34327  10.191   9.101   4.186  0.3584  0.1516 -0.0398
  255MOL0     C34328  10.168   9.227   4.258  0.2794 -0.1075 -0.5912
  255MOL0     C34329  10.050   9.308   4.191  0.3937  0.0740 -0.8259
  255MOL0     C34330  10.047   9.446   4.247  0.5184  0.1247  0.1966
  255MOL0     C34331   9.941   9.538   4.180  0.2175  0.1280 -1.0387
  255MOL0     C34332   9.959   9.681   4.245  0.0782 -0.4451  0.7811
  255MOL0     C34333   9.842   9.781   4.227  0.3575  0.1773  0.1346
  255MOL0     C34334   9.897   9.927   4.199  0.4264  0.9301 -1.1753
  255MOL0    Cl34335   9.949   9.949   4.030  0.2981 -0.7185  0.1107
  255MOL0     C34336  10.466   8.865   4.224 -0.3812 -0.6527 -0.9974
  255MOL0     C34337  10.517   8.745   4.186 -0.5200 -1.0048 -0.8854
  255MOL0     O34338  10.690   8.527   4.091  0.7933  0.9367  0.4156
  255MOL0     C34339  10.464   8.299   3.903 -0.1686  0.2711  0.3848
  255MOL0     C34340  10.449   8.187   3.821 -0.0517  0.4096  0.4717
  255MOL0     N34341  10.135   7.726   3.241 -0.0277  0.2594  0.0299
  255MOL0     N34342  10.038   7.645   3.223 -0.1469 -1.0419  0.1341
  255MOL0     C34343   9.788   7.333   2.542 -0.4854 -0.5173 -0.1562
  255MOL0     C34344   9.682   7.400   2.480 -0.4958  0.8300  0.7783
  255MOL0     C34345   9.393   7.377   2.103 -0.9641 -0.2074  0.9485
  255MOL0     C34346   9.324   7.487   2.155  0.6396 -0.5149 -0.0548
  255MOL0     C34347   9.236   7.546   2.062 -0.1915  0.1956  0.9558
  255MOL0     C34348   9.227   7.509   1.932 -0.0648  1.3825 -0.0139
  255MOL0     O34349   9.153   7.590   1.851  0.1189 -0.6445 -0.0320
  255MOL0     C34350   9.182   7.584   1.709  0.5385 -0.5097  0.5400
  255MOL0     C34351   9.110   7.707   1.646  0.2452  0.3039 -0.1475
  255MOL0     C34352   9.156   7.840   1.696  0.4075 -1.7029  0.0907
  255MOL0     C34353   9.096   7.963   1.624  0.2417  0.3796 -0.7516
  255MOL0     C34354   9.163   7.980   1.495 -0.3770 -0.4162 -0.4859
  255MOL0     C34355   9.230   7.996   1.398  0.7584 -0.8005  0.8954
  255MOL0     C34356   9.290   7.393   1.897 -0.1245  0.3250 -0.0512
  255MOL0     C34357   9.380   7.326   1.974 -0.1807  0.2535 -0.3189
  255MOL0     H34358   9.732   7.249   2.180 -1.8832  0.0588  0.4186
  255MOL0     H34359   9.925   7.144   2.309 -2.0758 -2.9868  0.3795
  255MOL0     H34360  10.125   7.211   2.463 -2.2408 -0.3079 -2.0794
  255MOL0     H34361  10.101   7.340   2.593 -2.6412 -0.1700  0.9734
  255MOL0     H34362  10.195   7.042   2.633 -0.5503 -0.3749 -1.3548
  255MOL0     H34363  10.286   7.188   2.667  0.3973 -1.2725  0.7538
  255MOL0     H34364  10.033   7.122   2.832  0.9908 -1.5410 -1.4982
  255MOL0     H34365  10.200   7.102   2.882  0.1538  0.3071  1.1155
  255MOL0     H34366  10.212   7.367   2.826 -0.0031  0.0463  0.3662
  255MOL0     H34367  10.033   7.341   2.824  0.3473  1.2932  0.9565
  255MOL0     H34368  10.216   7.330   3.053 -0.1983  0.4884 -0.0931
  255MOL0     H34369  10.101   7.448   3.018  1.1395 -0.3509 -1.5950
  255MOL0     H34370   9.925   7.266   3.053  0.5135 -0.4104 -0.0132
  255MOL0     H34371  10.053   7.148   3.067 -1.0366 -0.9650  1.5535
  255MOL0     H34372   9.976   7.188   3.285  1.3266 -1.2399  1.5762
  255MOL0     H34373  10.142   7.265   3.269  0.2915 -1.1059  0.0567
  255MOL0     H34374   9.971   7.396   3.409  1.2467  0.4249  0.2953
  255MOL0     H34375   9.894   7.428   3.249  0.5139  0.9839  0.0036
  255MOL0     H34376  10.257   7.478   3.397 -0.8579  0.2241  1.1549
  255MOL0     H34377  10.434   7.626   3.382  1.4195 -0.2853 -2.0830
  255MOL0     H34378  10.423   7.782   3.287 -0.0942 -0.1018 -0.2384
  255MOL0     H34379  10.267   7.730   3.542 -0.3564 -1.7211 -1.9033
  255MOL0     H34380  10.288   7.889   3.464 -0.1824 -0.5805  0.5954
  255MOL0     H34381  10.555   7.798   3.525  0.7354 -3.7125  3.4216
  255MOL0     H34382  10.462   7.797   3.665 -2.4923 -0.6207 -0.1479
  255MOL0     H34383  10.388   8.049   3.601  2.0446  2.3000  0.6682
  255MOL0     H34384  10.521   8.039   3.479  2.2073  0.9373  1.2297
  255MOL0     H34385  10.776   8.112   3.801 -0.2475  0.4963  0.1634
  255MOL0     H34386  10.853   8.327   4.078  2.9443  2.7458  0.2012
  255MOL0     H34387  10.922   8.256   3.930  0.1207  2.7302 -1.6181
  255MOL0     H34388  10.855   8.421   3.934 -3.0866 -0.5316 -1.0549
  255MOL0     H34389  10.254   8.655   3.977 -0.2551 -1.2960  0.2964
  255MOL0     H34390  10.178   8.890   4.053 -0.4113 -2.5739 -1.1211
  255MOL0     H34391  10.194   9.119   4.078 -0.3907  1.3947  0.1213
  255MOL0     H34392  10.117   9.031   4.226 -3.4217  2.9105 -1.6033
  255MOL0     H34393  10.161   9.201   4.364 -0.1567 -2.7295 -1.1990
  255MOL0     H34394  10.257   9.289   4.241 -1.5166  2.4092 -1.4356
  255MOL0     H34395   9.955   9.258   4.207 -0.8798  1.4028 -3.4672
  255MOL0     H34396  10.069   9.301   4.083 -0.4347  0.2826 -0.9958
  255MOL0     H34397  10.018   9.432   4.351 -0.7219 -2.9438 -0.4680
  255MOL0     H34398  10.150   9.483   4.247  2.2689 -4.0936  1.3013
  255MOL0     H34399   9.837   9.511   4.198  0.1861  1.6927  1.7229
  255MOL0     H34400   9.953   9.539   4.072  0.9861  1.4673 -0.9741
  255MOL0     H34401   9.971   9.660   4.352  0.2043 -2.4848  0.4137
  255MOL0     H34402  10.047   9.725   4.198 -1.0390  0.4767 -0.5258
  255MOL0     H34403   9.779   9.787   4.316  0.8664  2.7244  0.4105
  255MOL0     H34404   9.789   9.747   4.138  1.5404  3.4245 -1.9892
  255MOL0     H34405   9.977   9.952   4.269  0.2526 -1.4455 -0.0147
  255MOL0     H34406   9.813   9.995   4.218 -0.4581 -0.7054  1.2775
  255MOL0     H34407  10.531   8.924   4.288 -0.5460  1.5256 -2.6884
  255MOL0     H34408  10.615   8.726   4.229 -0.7612 -0.6559 -0.1454
  255MOL0     H34409  10.376   8.363   3.907  0.1946  0.7095  2.4398
  255MOL0     H34410  10.342   8.176   3.804  0.2140 -0.1464 -1.0537
  255MOL0     H34411   9.808   7.352   2.647  1.5497 -1.3543 -0.3667
  255MOL0     H34412   9.615   7.458   2.542 -0.2116  2.1895 -0.1426
  255MOL0     H34413   9.328   7.528   2.256 -1.5375 -0.2691 -0.0253
  255MOL0     H34414   9.203   7.647   2.083  1.2265  0.3624  2.6408
  255MOL0     H34415   9.287   7.601   1.684 -0.2119  2.1236 -1.1505
  255MOL0     H34416   9.146   7.491   1.663  1.6100  0.0132 -1.4510
  255MOL0     H34417   9.002   7.695   1.659  0.2434  1.9510  1.9594
  255MOL0     H34418   9.128   7.701   1.538 -0.2136 -1.5634 -0.1504
  255MOL0     H34419   9.266   7.845   1.688  0.3087 -1.2789 -1.4568
  255MOL0     H34420   9.123   7.846   1.800  2.8526 -2.3407  0.9960
  255MOL0     H34421   9.113   8.052   1.685  3.6242 -1.2315  0.9236
  255MOL0     H34422   8.991   7.942   1.602 -0.1260  0.7438  0.5747
  255MOL0     H34423   9.288   8.017   1.310 -0.8162 -1.0886 -0.2616
  255MOL0     H34424   9.279   7.362   1.793 -2.1204 -0.3262  0.3224
  255MOL0     H34425   9.433   7.235   1.945 -1.9198 -1.4690  1.6131
  256MOL0     O34426   3.790  10.611  11.441 -0.7861  0.2029  0.7783
  256MOL0     C34427   3.817  10.564  11.330  0.2592  0.0290  0.7539
  256MOL0     O34428   3.898  10.466  11.307 -1.1438  1.0059  0.3996
  256MOL0     C34429   3.946  10.396  11.412 -0.0460 -0.2904 -1.0676
  256MOL0     C34430   3.907  10.268  11.446  0.2881 -0.0265  0.2308
  256MOL0     C34431   3.969  10.198  11.551  0.5352  0.1505 -0.5986
  256MOL0     C34432   4.072  10.258  11.635  0.4962 -0.5615  0.3700
  256MOL0     O34433   4.132  10.175  11.731 -0.5492 -0.1117  0.6091
  256MOL0     C34434   4.217  10.239  11.820 -0.5156 -0.5673 -0.0290
  256MOL0     C34435   4.262  10.168  11.945 -0.1011  0.1020 -0.4547
  256MOL0     C34436   4.148  10.072  12.011 -0.3470  0.2195  1.8042
  256MOL0     C34437   4.209   9.973  12.125  0.8543  0.7921  0.2944
  256MOL0     C34438   4.316   9.872  12.100  0.6382 -0.3394 -0.6379
  256MOL0     C34439   4.275   9.759  12.007 -0.0373  0.0818 -0.3770
  256MOL0     C34440   4.389   9.671  11.964 -0.8244  0.4482 -0.3717
  256MOL0     C34441   4.501   9.732  11.875 -0.5883 -0.7445  0.3762
  256MOL0     N34442   4.457   9.748  11.739  0.5643  0.3642  0.7815
  256MOL0     C34443   4.382   9.868  11.702 -0.2422  0.1211 -0.1378
  256MOL0     C34444   4.345   9.844  11.578  0.6386 -0.0468 -0.3938
  256MOL0     C34445   4.262   9.931  11.484 -0.4806  0.2656 -0.3575
  256MOL0     C34446   4.349  10.053  11.440  0.2285  0.5051 -0.3452
  256MOL0     C34447   4.324  10.102  11.298 -0.3526 -1.0831  0.3596
  256MOL0     C34448   4.360  10.009  11.177  0.0721 -0.1151 -0.2763
  256MOL0     O34449   4.417  10.065  11.056 -0.6477 -0.1061 -0.5333
  256MOL0     C34450   4.308  10.125  10.984 -0.7568 -0.5138 -0.3761
  256MOL0     C34451   4.248  10.066  10.875  0.6916 -1.0818 -0.1941
  256MOL0     C34452   4.152  10.134  10.792  0.5395 -0.2308 -0.3585
  256MOL0     C34453   4.105  10.056  10.667  0.6263  0.2584 -0.4704
  256MOL0     C34454   4.123  10.272  10.820 -0.4099  0.4102 -0.8688
  256MOL0     C34455   4.039  10.364  10.737 -0.4548  0.0834 -0.3010
  256MOL0     O34456   4.001  10.492  10.786  0.0374 -0.1068 -0.6749
  256MOL0     C34457   3.982  10.598  10.702  0.9065 -0.1290  0.1726
  256MOL0     C34458   3.901  10.580  10.589  1.0218 -1.2706 -0.0405
  256MOL0     C34459   3.866  10.696  10.517  0.2129 -0.4580 -0.5212
  256MOL0     C34460   3.901  10.825  10.548 -0.3946  0.1263 -0.1795
  256MOL0     O34461   3.879  10.937  10.473 -0.6439 -0.3510 -0.3937
  256MOL0     C34462   3.757  10.937  10.390 -0.7185  0.0031  0.1855
  256MOL0     C34463   3.733  11.073  10.323  0.5036 -0.1965 -0.3837
  256MOL0     C34464   3.598  11.083  10.249  0.8852  0.6560 -0.2610
  256MOL0     C34465   3.564  10.960  10.153  0.4935  0.2290  0.7661
  256MOL0     C34466   3.451  11.000  10.054  0.9190  0.0180 -0.8427
  256MOL0     C34467   3.385  10.880   9.990 -0.1478  0.0435  0.9564
  256MOL0     C34468   3.485  10.778   9.931  0.2087  0.5441 -0.2401
  256MOL0     C34469   3.393  10.654   9.898  0.1799  1.2114 -1.3328
  256MOL0    Cl34470   3.336  10.576  10.051  0.1122 -0.4263 -0.2556
  256MOL0     C34471   3.985  10.838  10.661 -0.3937 -0.3796 -0.4346
  256MOL0     C34472   4.010  10.727  10.741 -0.3897  0.2533  0.0392
  256MOL0     O34473   4.004  10.308  10.633  0.3771 -0.0153 -0.0256
  256MOL0     C34474   4.189  10.327  10.937 -0.2887  0.2474  0.3439
  256MOL0     C34475   4.268  10.250  11.013 -0.7926  0.3682  0.3189
  256MOL0     N34476   4.403   9.723  11.528 -0.3454 -0.2980  0.1143
  256MOL0     N34477   4.471   9.670  11.626 -0.2560  0.2206 -0.3098
  256MOL0     C34478   4.104  10.392  11.600 -0.1596  0.4230 -0.0695
  256MOL0     C34479   4.038  10.455  11.496  0.6742 -0.9824 -0.5485
  256MOL0     C34480   3.737  10.627  11.226 -0.3494 -0.2565 -0.7758
  256MOL0     C34481   3.655  10.743  11.235 -0.2925  0.0017 -0.1043
  256MOL0     C34482   3.583  10.796  11.127 -0.1298 -0.3148 -0.0351
  256MOL0     C34483   3.611  10.745  10.997  0.0079 -0.7459  0.3291
  256MOL0     O34484   3.527  10.797  10.892 -0.3249 -0.0534 -0.6600
  256MOL0     C34485   3.547  10.750  10.763 -0.2297  0.4900  0.0010
  256MOL0     C34486   3.461  10.815  10.659 -0.4068 -0.8308  0.0531
  256MOL0     C34487   3.312  10.833  10.682  0.5460  0.8575 -0.1502
  256MOL0     C34488   3.243  10.871  10.558  0.0685 -0.4158  0.9625
  256MOL0     C34489   3.289  10.996  10.513  0.6676 -0.1735  1.4884
  256MOL0     C34490   3.333  11.100  10.478 -1.0523 -0.3060 -0.2050
  256MOL0     C34491   3.696  10.637  10.979 -1.0300 -0.4168 -0.3735
  256MOL0     C34492   3.749  10.579  11.097  0.0184  0.2251  0.1261
  256MOL0     H34493   3.823  10.226  11.391  0.3104  0.2764 -0.0421
  256MOL0     H34494   3.951  10.091  11.558 -0.8263  0.4762  2.2601
  256MOL0     H34495   4.307  10.279  11.773  0.3212 -0.6171  1.4751
  256MOL0     H34496   4.161  10.324  11.861 -1.4904 -0.6360 -1.1536
  256MOL0     H34497   4.351  10.113  11.913  2.5066  2.9129  1.2690
  256MOL0     H34498   4.304  10.244  12.012 -0.1681  0.2731 -0.6074
  256MOL0     H34499   4.068  10.134  12.054 -1.1190  0.0210  0.6978
  256MOL0     H34500   4.117  10.019  11.921 -1.2771  1.5447  1.3100
  256MOL0     H34501   4.253  10.029  12.208  0.7338  1.1187  0.1357
  256MOL0     H34502   4.121   9.918  12.160  0.4363  0.3818 -1.3388
  256MOL0     H34503   4.395   9.930  12.052  1.2610 -1.8543 -1.5023
  256MOL0     H34504   4.351   9.840  12.199  1.5537 -0.4779 -0.9919
  256MOL0     H34505   4.210   9.698  12.071  3.0363 -1.4713  1.5216
  256MOL0     H34506   4.224   9.787  11.915 -4.0235 -2.2470  0.8619
  256MOL0     H34507   4.440   9.630  12.052  2.1739  1.6652 -1.3951
  256MOL0     H34508   4.350   9.584  11.911 -0.0380  0.1049 -0.4014
  256MOL0     H34509   4.591   9.670  11.877  0.2482  0.3398 -1.3030
  256MOL0     H34510   4.539   9.828  11.911  4.2265 -1.4294 -2.1111
  256MOL0     H34511   4.370   9.959  11.759  1.4354  0.1986  0.1433
  256MOL0     H34512   4.245   9.858  11.404  4.2842 -0.3347 -1.1462
  256MOL0     H34513   4.171   9.968  11.532 -0.8376  0.5755 -1.2495
  256MOL0     H34514   4.453  10.020  11.432  0.2771  1.0030 -2.0521
  256MOL0     H34515   4.325  10.130  11.514 -2.4184 -1.1870  0.6816
  256MOL0     H34516   4.374  10.198  11.284 -4.1394  1.2851  1.6587
  256MOL0     H34517   4.222  10.139  11.286  0.3632  0.3880 -1.7274
  256MOL0     H34518   4.272   9.946  11.157 -3.8325  3.2406  4.0690
  256MOL0     H34519   4.447   9.950  11.208  1.5042  3.2162  2.6587
  256MOL0     H34520   4.270   9.965  10.844 -0.2160 -1.1850 -0.5301
  256MOL0     H34521   3.997  10.059  10.650 -0.0068  1.5370  2.8746
  256MOL0     H34522   4.146  10.105  10.579 -1.1042 -2.2587 -2.8312
  256MOL0     H34523   4.140   9.952  10.664 -0.9793 -0.3604  0.5416
  256MOL0     H34524   3.860  10.480  10.579  0.1726 -1.1098  1.4954
  256MOL0     H34525   3.791  10.681  10.440 -1.0734  1.6501  0.2537
  256MOL0     H34526   3.754  10.854  10.318  1.2027 -0.1267  0.2009
  256MOL0     H34527   3.673  10.903  10.451 -1.0546  0.1118 -0.2074
  256MOL0     H34528   3.730  11.143  10.407  0.9787  1.5528 -1.7488
  256MOL0     H34529   3.813  11.099  10.254 -1.3637  1.3993 -2.0871
  256MOL0     H34530   3.585  11.177  10.193 -2.9123  1.8673  2.2534
  256MOL0     H34531   3.516  11.081  10.321 -1.6010  5.0557 -2.5058
  256MOL0     H34532   3.646  10.940  10.084 -0.8650 -3.3992 -0.0065
  256MOL0     H34533   3.543  10.864  10.201  1.5513 -0.4643 -0.1241
  256MOL0     H34534   3.491  11.067   9.977  0.2506  2.2179  0.6279
  256MOL0     H34535   3.380  11.049  10.121  1.2906 -0.0673 -0.3778
  256MOL0     H34536   3.330  10.833  10.073  3.0878  0.5686  3.5838
  256MOL0     H34537   3.316  10.908   9.910  0.8511 -0.9094 -0.2722
  256MOL0     H34538   3.570  10.756   9.995  0.8722  3.8252  0.1731
  256MOL0     H34539   3.532  10.812   9.838  0.3029  1.0181 -0.0210
  256MOL0     H34540   3.444  10.575   9.843 -0.6825 -0.2735 -0.0734
  256MOL0     H34541   3.307  10.689   9.840 -0.4491  3.4798  0.7817
  256MOL0     H34542   4.010  10.938  10.695 -1.2656  0.8027 -3.0055
  256MOL0     H34543   4.060  10.742  10.836  0.0990  1.4030 -0.3930
  256MOL0     H34544   4.168  10.427  10.973  1.2798  0.1950  1.5224
  256MOL0     H34545   4.304  10.298  11.103  0.2383 -1.7879  1.1153
  256MOL0     H34546   4.161  10.444  11.677 -2.3383  0.3393  1.6924
  256MOL0     H34547   4.071  10.558  11.483 -0.3677 -0.9010 -3.3249
  256MOL0     H34548   3.643  10.769  11.340 -1.2807 -4.7139  1.2128
  256MOL0     H34549   3.505  10.871  11.129 -1.8704 -1.9952 -1.1301
  256MOL0     H34550   3.649  10.771  10.731 -0.5032  0.3577 -0.9741
  256MOL0     H34551   3.528  10.642  10.755  1.7911  0.2156 -2.5520
  256MOL0     H34552   3.476  10.747  10.574 -0.8446 -0.4505 -0.3315
  256MOL0     H34553   3.513  10.903  10.620  1.6901 -2.4933 -1.1692
  256MOL0     H34554   3.285  10.901  10.764  0.5529 -0.5720  1.0682
  256MOL0     H34555   3.278  10.732  10.703  1.1512  0.3735 -1.3878
  256MOL0     H34556   3.138  10.890  10.580  0.1523  0.6157  0.5083
  256MOL0     H34557   3.238  10.792  10.482  0.5938 -0.4977  1.0043
  256MOL0     H34558   3.378  11.187  10.434  0.4789 -1.8099 -1.7805
  256MOL0     H34559   3.728  10.596  10.883  0.5262 -1.0631  0.3847
  256MOL0     H34560   3.798  10.483  11.083 -1.3241 -0.2257 -1.9363
  257MOL0     O34561  11.375   5.143   8.877 -0.2089  0.7709 -0.2973
  257MOL0     C34562  11.383   5.213   8.978  0.3994 -0.6133  0.1918
  257MOL0     O34563  11.463   5.321   8.989 -0.3219 -0.3792 -0.7048
  257MOL0     C34564  11.549   5.360   8.892 -1.0387 -0.8637  0.2029
  257MOL0     C34565  11.555   5.508   8.868  0.4638  0.8250  0.1976
  257MOL0     C34566  11.647   5.555   8.770 -0.9522 -0.9026 -0.4228
  257MOL0     C34567  11.732   5.469   8.704  0.3792  0.3486 -0.3131
  257MOL0     O34568  11.837   5.509   8.620 -0.4739 -0.2333  1.0963
  257MOL0     C34569  11.841   5.648   8.579  0.5833 -0.2584  0.3899
  257MOL0     C34570  11.852   5.667   8.428 -1.1825 -0.7835 -0.4397
  257MOL0     C34571  11.733   5.636   8.333  0.3440  0.7946 -0.2461
  257MOL0     C34572  11.712   5.491   8.318 -0.3882  0.0520  0.2953
  257MOL0     C34573  11.579   5.446   8.247 -0.0563 -1.0256  0.1742
  257MOL0     C34574  11.591   5.293   8.238 -0.3156 -0.2593 -0.0507
  257MOL0     C34575  11.497   5.231   8.132 -0.6444  0.2804  0.9596
  257MOL0     C34576  11.499   5.080   8.121  0.5432 -0.1966  0.1843
  257MOL0     N34577  11.627   5.032   8.073  0.0895 -0.1235  0.8357
  257MOL0     C34578  11.703   5.068   7.962 -0.5469 -0.6982  0.2096
  257MOL0     C34579  11.797   4.967   7.961 -0.0299  0.8698 -0.2083
  257MOL0     C34580  11.912   4.964   7.867 -1.0210 -0.4556 -0.0398
  257MOL0     C34581  12.040   5.007   7.934  0.3172 -0.3678 -0.4920
  257MOL0     C34582  12.074   4.939   8.071  0.3477  0.0305 -0.2278
  257MOL0     C34583  12.192   4.986   8.150 -0.0115  0.6393 -0.8071
  257MOL0     O34584  12.323   4.966   8.091  0.0631  0.2610  0.6493
  257MOL0     C34585  12.401   5.075   8.061  0.7803 -0.9045 -0.0994
  257MOL0     C34586  12.348   5.204   8.035  1.2442 -0.2411  0.1486
  257MOL0     C34587  12.440   5.303   7.982  0.1727 -0.4258 -1.2274
  257MOL0     C34588  12.394   5.440   7.937 -1.0220  0.1762 -1.5583
  257MOL0     C34589  12.578   5.278   7.985  1.5172  0.1240  0.2177
  257MOL0     C34590  12.686   5.369   7.945  0.8506  0.1629  0.3815
  257MOL0     O34591  12.816   5.328   7.968  0.5244 -0.5747 -0.4310
  257MOL0     C34592  12.925   5.410   7.932  0.2116 -0.6456  0.9910
  257MOL0     C34593  13.028   5.448   8.021 -0.0516  1.3060 -0.3278
  257MOL0     C34594  13.142   5.530   7.989 -0.0232 -0.0465 -0.2487
  257MOL0     C34595  13.139   5.586   7.867 -0.1578  0.0544  0.6262
  257MOL0     O34596  13.240   5.669   7.808 -0.7733  0.0059 -0.7955
  257MOL0     C34597  13.374   5.647   7.869  1.7064  0.3099 -0.3957
  257MOL0     C34598  13.471   5.711   7.771 -0.2562 -0.7502 -0.1416
  257MOL0     C34599  13.615   5.726   7.832  0.1786 -0.1662 -0.2127
  257MOL0     C34600  13.713   5.790   7.733 -0.1905 -0.2275  1.0616
  257MOL0     C34601  13.705   5.940   7.706 -0.7707  0.6276  0.6457
  257MOL0     C34602  13.813   5.984   7.600  0.0728 -0.6676 -0.0512
  257MOL0     C34603  13.830   6.136   7.581  0.4592 -0.9658 -0.2227
  257MOL0     C34604  13.714   6.194   7.508  0.3871 -0.1043  0.2447
  257MOL0    Cl34605  13.719   6.375   7.520  0.2665  0.4111  0.1270
  257MOL0     C34606  13.046   5.551   7.778  0.0964  0.4844 -0.2662
  257MOL0     C34607  12.939   5.464   7.805 -0.0843  0.1879  1.3241
  257MOL0     O34608  12.652   5.466   7.873 -0.8718 -0.4779 -0.5268
  257MOL0     C34609  12.618   5.153   8.029 -0.3045  0.2279 -0.1566
  257MOL0     C34610  12.532   5.058   8.063  0.3492 -0.4215  0.6479
  257MOL0     N34611  11.774   4.871   8.053  0.1956 -0.2990  0.4223
  257MOL0     N34612  11.671   4.905   8.118 -0.2367  0.2204  0.3584
  257MOL0     C34613  11.727   5.328   8.731 -0.0411 -0.0219  0.3508
  257MOL0     C34614  11.648   5.282   8.835  0.0154  0.2491  0.1981
  257MOL0     C34615  11.320   5.172   9.107  0.5211 -0.1547  1.0894
  257MOL0     C34616  11.340   5.244   9.223  0.2935 -0.2186  0.0744
  257MOL0     C34617  11.315   5.192   9.350  0.0502 -1.1140  0.7702
  257MOL0     C34618  11.253   5.068   9.355 -1.1740  0.1905 -0.0517
  257MOL0     O34619  11.212   5.003   9.471  0.3075  0.7328  0.0782
  257MOL0     C34620  11.255   5.054   9.598 -1.0448  0.1026  0.2913
  257MOL0     C34621  11.245   4.969   9.725  0.9658  0.1234  0.5283
  257MOL0     C34622  11.288   5.047   9.851  1.0860  0.8467  0.0608
  257MOL0     C34623  11.440   5.072   9.877  0.3148  0.7395  0.0933
  257MOL0     C34624  11.519   4.958   9.908 -0.1205 -0.1530 -0.3777
  257MOL0     C34625  11.582   4.855   9.939  0.0854 -0.8059 -0.1076
  257MOL0     C34626  11.200   5.006   9.236  0.7154 -0.7749 -1.1563
  257MOL0     C34627  11.253   5.052   9.118  0.1131  0.2355  0.4612
  257MOL0     H34628  11.507   5.556   8.953  1.5315 -1.5320  2.2457
  257MOL0     H34629  11.650   5.664   8.770 -1.7457 -0.8701 -1.4319
  257MOL0     H34630  11.759   5.714   8.610  2.7952  2.8259  0.1171
  257MOL0     H34631  11.929   5.690   8.627 -0.7610  0.8253  1.9952
  257MOL0     H34632  11.888   5.770   8.416  1.9174 -1.9123 -1.6046
  257MOL0     H34633  11.940   5.610   8.400  1.0798  2.0297  0.4126
  257MOL0     H34634  11.639   5.678   8.371 -1.8533 -0.7832 -3.4078
  257MOL0     H34635  11.744   5.681   8.234 -3.6381  1.6423 -0.4968
  257MOL0     H34636  11.799   5.458   8.260 -0.8171  2.6815 -2.0009
  257MOL0     H34637  11.718   5.445   8.418 -0.2140 -1.4070 -0.3519
  257MOL0     H34638  11.493   5.487   8.301  1.1474  1.7031  0.1667
  257MOL0     H34639  11.576   5.487   8.146  1.2321  0.6231  0.7627
  257MOL0     H34640  11.693   5.276   8.201  0.5868  2.4133  1.0036
  257MOL0     H34641  11.571   5.245   8.334 -1.9607 -0.0782 -0.2771
  257MOL0     H34642  11.392   5.253   8.155 -0.9966  0.0870 -0.3402
  257MOL0     H34643  11.535   5.283   8.043  2.2017 -1.0898  1.2620
  257MOL0     H34644  11.421   5.049   8.051  1.9721  2.9382 -3.1171
  257MOL0     H34645  11.478   5.034   8.219 -1.8258  2.4654  1.0441
  257MOL0     H34646  11.694   5.147   7.889  1.0623 -1.4258 -0.8195
  257MOL0     H34647  11.946   4.861   7.850 -0.0045 -1.0731  4.4033
  257MOL0     H34648  11.893   5.027   7.780 -3.4572 -1.8907 -0.6344
  257MOL0     H34649  12.057   5.115   7.941  1.4302 -0.5396 -0.3148
  257MOL0     H34650  12.119   4.974   7.866 -0.3987 -2.1872 -0.4841
  257MOL0     H34651  12.078   4.830   8.060 -0.1372 -0.1384  1.0705
  257MOL0     H34652  11.994   4.953   8.144  2.0186 -0.9795  1.9528
  257MOL0     H34653  12.202   4.923   8.239  3.5980 -2.3593 -3.0494
  257MOL0     H34654  12.172   5.089   8.182  2.7519  1.6115 -1.9289
  257MOL0     H34655  12.242   5.225   8.030  1.4118  2.1491  3.3657
  257MOL0     H34656  12.398   5.448   7.828 -0.0863 -1.9559 -1.7224
  257MOL0     H34657  12.294   5.450   7.980 -0.1414  0.8052  0.4598
  257MOL0     H34658  12.454   5.510   7.995 -0.6406 -0.8385 -0.7055
  257MOL0     H34659  13.017   5.386   8.110 -0.6653 -2.4109 -2.7917
  257MOL0     H34660  13.223   5.546   8.060  1.2221 -2.0809 -1.1206
  257MOL0     H34661  13.385   5.692   7.969  1.7897  0.7494 -0.5996
  257MOL0     H34662  13.390   5.540   7.878 -0.2996  0.1456  2.7148
  257MOL0     H34663  13.477   5.648   7.682  0.8761  0.3085 -0.8413
  257MOL0     H34664  13.434   5.807   7.733 -3.6027 -1.2395  1.4842
  257MOL0     H34665  13.648   5.624   7.857 -1.2348 -0.5761  0.0704
  257MOL0     H34666  13.616   5.778   7.928  0.1229  4.6377 -2.5196
  257MOL0     H34667  13.816   5.764   7.760  0.1359 -2.0302 -1.5782
  257MOL0     H34668  13.695   5.747   7.635  2.6298 -1.6049  1.0296
  257MOL0     H34669  13.719   5.992   7.801  0.3749  0.4435  0.5862
  257MOL0     H34670  13.606   5.972   7.671  0.2103  1.1611 -1.8525
  257MOL0     H34671  13.903   5.942   7.645  0.4286 -0.4014 -0.4968
  257MOL0     H34672  13.803   5.927   7.507  1.0321  0.6485 -1.0058
  257MOL0     H34673  13.926   6.156   7.532  0.2972  0.5356  0.0339
  257MOL0     H34674  13.837   6.174   7.683  0.4813 -0.5233 -0.3864
  257MOL0     H34675  13.619   6.159   7.552 -1.6346  1.8601 -2.2373
  257MOL0     H34676  13.708   6.160   7.405 -1.3174  1.9619 -0.4183
  257MOL0     H34677  13.056   5.594   7.679  1.3661  1.8958  0.4415
  257MOL0     H34678  12.866   5.434   7.731 -2.6907  3.3778  2.3767
  257MOL0     H34679  12.721   5.119   8.041 -0.4486 -0.0912  0.1927
  257MOL0     H34680  12.551   4.955   8.092  0.7109 -0.4422  0.3497
  257MOL0     H34681  11.797   5.262   8.680 -1.3377 -0.4913 -0.8927
  257MOL0     H34682  11.650   5.180   8.871  4.1700 -0.2291 -0.8437
  257MOL0     H34683  11.388   5.341   9.221 -0.2060  0.0190 -1.1855
  257MOL0     H34684  11.362   5.234   9.438 -1.5504 -1.4561  1.8282
  257MOL0     H34685  11.364   5.067   9.596 -0.9114 -0.8206  0.8407
  257MOL0     H34686  11.208   5.152   9.615  0.3321  0.9149 -0.4277
  257MOL0     H34687  11.296   4.873   9.712 -0.0682 -0.3297 -0.3149
  257MOL0     H34688  11.142   4.944   9.751  0.9321  1.4868  1.8415
  257MOL0     H34689  11.256   4.998   9.944  2.9164  4.6289  2.9258
  257MOL0     H34690  11.241   5.145   9.838  0.4088  0.2446 -3.0321
  257MOL0     H34691  11.449   5.121   9.974  0.4787 -3.0599  2.2219
  257MOL0     H34692  11.482   5.123   9.790 -1.1198  1.1438 -0.3848
  257MOL0     H34693  11.642   4.772   9.971 -0.1910 -0.3251  1.7716
  257MOL0     H34694  11.135   4.919   9.238  0.5255 -0.8079  3.7405
  257MOL0     H34695  11.240   5.010   9.018  0.3814  1.1704  0.0290
  258MOL0     O34696   5.893   9.567   4.634  0.7252 -0.3727 -0.4298
  258MOL0     C34697   5.935   9.643   4.718 -0.2489  0.7938  0.0854
  258MOL0     O34698   5.860   9.682   4.830  0.0208  0.0040  0.1194
  258MOL0     C34699   5.720   9.651   4.845  0.9204 -0.3518 -0.3769
  258MOL0     C34700   5.678   9.616   4.977 -0.3491  0.3502 -0.5327
  258MOL0     C34701   5.545   9.584   4.999 -0.1968 -0.0020 -0.7110
  258MOL0     C34702   5.457   9.580   4.894 -0.2414  0.9612 -0.5361
  258MOL0     O34703   5.325   9.540   4.927 -0.2822 -0.6051  0.4952
  258MOL0     C34704   5.209   9.595   4.865  0.3513  0.0024  0.4438
  258MOL0     C34705   5.167   9.517   4.742 -0.1826 -0.4092  0.6376
  258MOL0     C34706   5.016   9.549   4.725 -1.1394  0.5735  0.5496
  258MOL0     C34707   4.965   9.460   4.598  0.4237  0.4534  0.4837
  258MOL0     C34708   4.817   9.474   4.572 -0.0179  0.1697 -0.4279
  258MOL0     C34709   4.783   9.393   4.446 -1.0388 -0.1329 -0.4877
  258MOL0     C34710   4.641   9.421   4.419  0.3537 -0.2520 -0.0832
  258MOL0     C34711   4.613   9.558   4.349 -1.0007 -0.6879  0.6166
  258MOL0     N34712   4.668   9.574   4.210 -0.8222  1.3076 -0.0238
  258MOL0     C34713   4.649   9.504   4.090 -0.3731 -0.3982 -0.7173
  258MOL0     C34714   4.701   9.571   3.986 -1.0221  0.2984 -0.9956
  258MOL0     C34715   4.708   9.563   3.835  0.1735  0.0967 -0.3753
  258MOL0     C34716   4.609   9.649   3.756 -0.4466  0.5293 -0.2989
  258MOL0     C34717   4.462   9.613   3.777 -0.4740  0.3806  0.7666
  258MOL0     C34718   4.395   9.653   3.908  0.4192 -0.7468  0.0658
  258MOL0     O34719   4.248   9.633   3.907  0.7339 -0.2108  0.3187
  258MOL0     C34720   4.159   9.728   3.845  0.6634 -0.4960 -0.0519
  258MOL0     C34721   4.024   9.696   3.849 -0.5298  0.1634 -0.3573
  258MOL0     C34722   3.931   9.789   3.804 -0.6697  0.7027  0.4493
  258MOL0     C34723   3.784   9.756   3.815  0.9154  0.0285  0.0398
  258MOL0     C34724   3.980   9.911   3.746 -0.8901 -0.0218  0.0684
  258MOL0     C34725   3.889  10.020   3.704  0.2700  0.1504 -0.5997
  258MOL0     O34726   3.791  10.057   3.795  0.0883  0.1860  0.1428
  258MOL0     C34727   3.701  10.165   3.768 -1.5101  0.7177  0.3296
  258MOL0     C34728   3.597  10.188   3.864 -0.5404  0.4805 -0.2663
  258MOL0     C34729   3.492  10.269   3.827  1.1717 -0.0592  0.1017
  258MOL0     C34730   3.501  10.373   3.723 -0.2329 -0.2696  0.5213
  258MOL0     O34731   3.416  10.475   3.707 -0.9164 -0.0986  0.0927
  258MOL0     C34732   3.327  10.501   3.814  0.5390 -0.4839 -0.3949
  258MOL0     C34733   3.244  10.625   3.788 -0.9230 -0.1162 -0.0626
  258MOL0     C34734   3.309  10.759   3.808 -0.2856 -0.8006 -0.6086
  258MOL0     C34735   3.211  10.876   3.823  0.3497 -0.2841  0.6312
  258MOL0     C34736   3.286  11.013   3.821  0.6325  0.6832 -0.2263
  258MOL0     C34737   3.186  11.127   3.850 -0.5043 -0.0734 -0.1447
  258MOL0     C34738   3.251  11.267   3.827  0.7740  0.4207 -0.0017
  258MOL0     C34739   3.170  11.396   3.869 -0.4792  0.1293  0.5618
  258MOL0    Cl34740   3.159  11.425   4.043 -0.0272  0.5648  0.1240
  258MOL0     C34741   3.625  10.366   3.660 -0.1000 -0.0164 -0.1957
  258MOL0     C34742   3.717  10.262   3.675  0.6121 -0.4291 -0.3836
  258MOL0     O34743   3.918  10.075   3.600  0.0771  0.1507 -0.1900
  258MOL0     C34744   4.117   9.941   3.735 -0.4832 -0.5399 -0.1861
  258MOL0     C34745   4.203   9.842   3.780  0.4389 -1.0135 -0.5364
  258MOL0     N34746   4.749   9.691   4.045  0.4574  0.3610  0.7226
  258MOL0     N34747   4.728   9.690   4.171 -0.3310  0.6443 -0.6220
  258MOL0     C34748   5.494   9.609   4.765 -0.1758  0.4349  0.1491
  258MOL0     C34749   5.621   9.661   4.745 -0.8725  0.6512 -0.4548
  258MOL0     C34750   6.076   9.664   4.714  0.2462 -0.7802 -0.3014
  258MOL0     C34751   6.162   9.586   4.641 -1.1552  0.6506  1.5086
  258MOL0     C34752   6.298   9.635   4.610 -0.2509 -0.7490  0.1699
  258MOL0     C34753   6.349   9.748   4.689  0.7761  0.6855 -0.8826
  258MOL0     O34754   6.476   9.793   4.666  0.3756  0.6232  0.2740
  258MOL0     C34755   6.568   9.702   4.600  0.1526 -0.0472 -0.2873
  258MOL0     C34756   6.721   9.736   4.641 -1.0141  0.4666 -0.5139
  258MOL0     C34757   6.745   9.730   4.795  0.1937 -0.6453  0.5056
  258MOL0     C34758   6.888   9.734   4.847  0.3419  0.0467 -0.2581
  258MOL0     C34759   6.932   9.876   4.849 -1.0707 -0.0074  0.2234
  258MOL0     C34760   6.975   9.990   4.846 -0.1464  0.5666  0.6585
  258MOL0     C34761   6.253   9.817   4.767  0.0926 -0.4274  0.5185
  258MOL0     C34762   6.125   9.779   4.785  0.5251 -0.7748  0.3150
  258MOL0     H34763   5.742   9.615   5.066 -1.8865  2.8532  0.7184
  258MOL0     H34764   5.530   9.545   5.099 -3.4662 -0.6911 -1.3784
  258MOL0     H34765   5.141   9.581   4.950  0.0421 -2.9413 -0.1828
  258MOL0     H34766   5.214   9.703   4.849  1.1536 -0.3764 -2.3279
  258MOL0     H34767   5.223   9.544   4.652 -1.1701  0.3597  0.2378
  258MOL0     H34768   5.179   9.408   4.747 -3.5194 -1.0377 -1.7059
  258MOL0     H34769   4.955   9.534   4.814  0.9973  2.2400  2.4319
  258MOL0     H34770   5.000   9.653   4.692 -2.5315 -0.3456 -1.9938
  258MOL0     H34771   5.011   9.494   4.504 -0.5271 -0.8930 -0.5197
  258MOL0     H34772   4.992   9.357   4.622  1.3182  0.4312 -0.5280
  258MOL0     H34773   4.762   9.442   4.661 -0.3487 -0.8949 -0.9880
  258MOL0     H34774   4.798   9.580   4.551 -0.9167 -0.0729 -0.9227
  258MOL0     H34775   4.848   9.428   4.365  0.4683 -0.8056  0.3892
  258MOL0     H34776   4.794   9.288   4.473 -0.7064 -0.7151 -2.7189
  258MOL0     H34777   4.607   9.337   4.357  2.3561 -0.0805 -1.5083
  258MOL0     H34778   4.568   9.425   4.501 -1.9520  2.1351 -2.0368
  258MOL0     H34779   4.636   9.641   4.416 -3.3391 -1.6580  2.8222
  258MOL0     H34780   4.504   9.566   4.338 -1.0795 -1.8303  0.3713
  258MOL0     H34781   4.644   9.395   4.094 -0.6074 -0.3627  0.9688
  258MOL0     H34782   4.804   9.578   3.785 -0.4811  2.1741 -1.1041
  258MOL0     H34783   4.680   9.459   3.818 -0.6814  0.1754  0.5113
  258MOL0     H34784   4.636   9.642   3.650  0.9816 -1.8721  0.1618
  258MOL0     H34785   4.635   9.752   3.785  1.1477  0.2108 -0.5532
  258MOL0     H34786   4.451   9.506   3.756  0.6984  0.3828  0.0485
  258MOL0     H34787   4.409   9.665   3.697  0.1684 -1.8928 -1.2701
  258MOL0     H34788   4.434   9.753   3.934 -0.1298  0.1258 -2.2529
  258MOL0     H34789   4.432   9.590   3.989  1.0354 -0.5244 -0.0383
  258MOL0     H34790   3.997   9.601   3.894 -3.7870  2.1658  2.4762
  258MOL0     H34791   3.730   9.798   3.729 -2.1041  0.4667  1.9936
  258MOL0     H34792   3.760   9.649   3.810  1.5089 -0.0671 -2.2435
  258MOL0     H34793   3.751   9.806   3.906  2.7145  1.2000  0.0930
  258MOL0     H34794   3.592  10.119   3.948 -0.5370  2.5844  1.5697
  258MOL0     H34795   3.406  10.256   3.891  2.5078  0.6113  2.1263
  258MOL0     H34796   3.257  10.418   3.831 -2.5230  2.1841  1.0461
  258MOL0     H34797   3.381  10.514   3.909  1.5351  2.8294 -1.2760
  258MOL0     H34798   3.201  10.615   3.688  0.5245 -1.3493 -0.5792
  258MOL0     H34799   3.163  10.619   3.862 -0.9868  1.9504  0.0994
  258MOL0     H34800   3.394  10.775   3.741  0.4569  1.3854  0.7473
  258MOL0     H34801   3.355  10.752   3.907 -0.4263 -2.9811 -0.6442
  258MOL0     H34802   3.134  10.873   3.746  1.0481  0.9787 -0.1306
  258MOL0     H34803   3.159  10.862   3.918  0.5787  1.1968  0.9956
  258MOL0     H34804   3.328  11.026   3.720 -1.7116  1.6042 -1.1658
  258MOL0     H34805   3.356  11.010   3.905 -1.8356 -4.0888  1.9842
  258MOL0     H34806   3.096  11.115   3.789  0.0242  1.5313 -1.3092
  258MOL0     H34807   3.163  11.112   3.955  2.3360 -2.0457  0.3328
  258MOL0     H34808   3.267  11.271   3.719  1.2917 -0.0675  0.0585
  258MOL0     H34809   3.349  11.272   3.875  0.8983 -0.0405 -0.2038
  258MOL0     H34810   3.068  11.395   3.829 -0.5720  2.3865  0.6104
  258MOL0     H34811   3.220  11.477   3.816  0.8902 -1.5808 -0.8799
  258MOL0     H34812   3.674  10.444   3.602 -0.0730  1.8143  2.1003
  258MOL0     H34813   3.808  10.278   3.619  2.1968 -1.3591  1.7761
  258MOL0     H34814   4.157  10.041   3.725 -4.7644  1.8483  3.3161
  258MOL0     H34815   4.308   9.867   3.773 -0.3580  2.6729 -2.2162
  258MOL0     H34816   5.431   9.585   4.680 -0.6780 -0.8989  0.8626
  258MOL0     H34817   5.662   9.686   4.647 -1.7489 -3.0304 -1.9209
  258MOL0     H34818   6.134   9.503   4.578 -0.0110  0.4676  1.2242
  258MOL0     H34819   6.361   9.579   4.542 -0.1806 -1.2787  0.6574
  258MOL0     H34820   6.564   9.593   4.610  0.7995 -0.2264 -1.6672
  258MOL0     H34821   6.555   9.712   4.492 -1.4491  0.0121 -0.1205
  258MOL0     H34822   6.747   9.834   4.601 -1.3774  0.8003  0.0589
  258MOL0     H34823   6.792   9.673   4.585 -0.7444 -0.2375  0.5886
  258MOL0     H34824   6.697   9.642   4.840 -0.4486 -0.4508  0.2103
  258MOL0     H34825   6.682   9.810   4.835 -2.2183 -1.6967 -0.9465
  258MOL0     H34826   6.950   9.681   4.774  2.6921  4.0361 -1.4263
  258MOL0     H34827   6.903   9.685   4.944  1.5009 -1.5067 -1.1641
  258MOL0     H34828   6.985  10.096   4.835  0.3114  0.3152 -1.9990
  258MOL0     H34829   6.285   9.908   4.817 -1.6323 -1.9104  4.7464
  258MOL0     H34830   6.055   9.852   4.825 -0.1131 -2.5686  2.6757
  259MOL0     O34831   0.695   9.388   1.124 -0.5709 -1.2093 -0.1853
  259MOL0     C34832   0.658   9.397   1.007 -1.2039 -0.1486  0.5187
  259MOL0     O34833   0.585   9.306   0.929  0.0448  0.1642 -0.4632
  259MOL0     C34834   0.509   9.205   0.986  0.7528  0.7762  0.2953
  259MOL0     C34835   0.494   9.165   1.118 -1.7196  0.5332 -0.0544
  259MOL0     C34836   0.421   9.055   1.152  0.1900  0.7790  0.4573
  259MOL0     C34837   0.340   8.986   1.068  0.3344  0.0838  0.5217
  259MOL0     O34838   0.274   8.876   1.119  0.6365  0.5496 -0.1346
  259MOL0     C34839   0.191   8.800   1.021 -0.2525  0.4183  0.0671
  259MOL0     C34840   0.148   8.671   1.083  0.6911 -0.1250  0.0366
  259MOL0     C34841   0.255   8.566   1.086 -0.2576  0.4717 -0.2729
  259MOL0     C34842   0.204   8.433   1.148  0.0505 -0.2712  0.2396
  259MOL0     C34843   0.286   8.302   1.125  0.0894 -0.2864 -0.8990
  259MOL0     C34844   0.433   8.322   1.168  0.0153  0.2164 -0.5162
  259MOL0     C34845   0.518   8.197   1.157  0.5256  0.9138  0.3513
  259MOL0     C34846   0.510   8.130   1.022 -0.1799 -0.3301  0.1173
  259MOL0     N34847   0.599   8.017   1.024  0.8140 -0.8996  0.5588
  259MOL0     C34848   0.716   8.015   0.958  0.5366  0.4473  0.7160
  259MOL0     C34849   0.744   7.883   0.963  0.0205 -1.2718 -0.1939
  259MOL0     C34850   0.882   7.839   0.925  0.0234 -0.3253  0.1135
  259MOL0     C34851   0.992   7.834   1.039  0.0562 -0.6389  0.1027
  259MOL0     C34852   0.939   7.783   1.174  0.4739  0.6442 -0.1785
  259MOL0     C34853   1.049   7.741   1.271 -0.6853 -0.3033  0.6157
  259MOL0     O34854   1.112   7.865   1.301  1.3007 -0.0446  0.9936
  259MOL0     C34855   1.202   7.868   1.405  0.3857  0.8088  0.4236
  259MOL0     C34856   1.223   7.987   1.468  0.4813 -0.1976 -0.1899
  259MOL0     C34857   1.303   7.995   1.590 -0.1420  0.8218  0.1773
  259MOL0     C34858   1.307   8.130   1.668  0.1055 -1.0703 -0.4420
  259MOL0     C34859   1.361   7.876   1.642  0.0549  0.0235 -0.0938
  259MOL0     C34860   1.446   7.866   1.767  1.2574 -0.1596 -0.3627
  259MOL0     O34861   1.508   7.980   1.817  0.2052 -0.0819 -0.0649
  259MOL0     C34862   1.608   7.972   1.904 -0.8622 -0.5711 -0.0650
  259MOL0     C34863   1.579   7.979   2.040  0.3855  0.3770  0.3097
  259MOL0     C34864   1.686   7.968   2.130 -0.5259  0.6238  0.8349
  259MOL0     C34865   1.819   7.934   2.095 -0.4406 -0.1358  0.0584
  259MOL0     O34866   1.918   7.915   2.194 -0.2166 -0.0272  0.4767
  259MOL0     C34867   1.934   8.000   2.309 -0.5558  0.4640  0.2031
  259MOL0     C34868   2.035   8.115   2.270  1.1812  0.4964 -0.9148
  259MOL0     C34869   2.104   8.160   2.407 -0.0162 -0.1544  0.0657
  259MOL0     C34870   2.162   8.300   2.383  0.3140  0.4523 -0.5354
  259MOL0     C34871   2.232   8.336   2.513 -0.6611 -0.2994  0.5644
  259MOL0     C34872   2.372   8.277   2.529 -0.2224 -0.2290  0.7349
  259MOL0     C34873   2.445   8.331   2.647 -0.1375  0.1909  0.4159
  259MOL0     C34874   2.403   8.247   2.768  0.1278  0.4118  1.0241
  259MOL0    Cl34875   2.253   8.304   2.844  0.1111 -0.3275 -0.5455
  259MOL0     C34876   1.843   7.928   1.955 -0.0268  0.1943  1.2462
  259MOL0     C34877   1.737   7.948   1.858 -0.1593  0.0341 -0.7739
  259MOL0     O34878   1.473   7.753   1.813  0.7680 -0.4191 -0.3408
  259MOL0     C34879   1.325   7.760   1.580 -0.5419  1.0382  0.0754
  259MOL0     C34880   1.258   7.754   1.466  0.3254  0.3085  0.3027
  259MOL0     N34881   0.647   7.810   1.029 -0.1276 -0.2781  0.4797
  259MOL0     N34882   0.559   7.898   1.075 -1.6112  0.4161 -0.3257
  259MOL0     C34883   0.318   9.046   0.948 -0.0231 -0.1204 -0.3399
  259MOL0     C34884   0.399   9.156   0.899 -1.0281  0.1290 -0.2052
  259MOL0     C34885   0.723   9.487   0.907 -0.5022  0.8129 -0.5379
  259MOL0     C34886   0.806   9.590   0.961  0.4901 -0.4362  0.4943
  259MOL0     C34887   0.853   9.693   0.873 -0.2113 -0.0816  0.3671
  259MOL0     C34888   0.819   9.693   0.738  0.8264 -0.3304  0.6238
  259MOL0     O34889   0.870   9.798   0.657 -0.1214 -0.0143  0.3564
  259MOL0     C34890   0.873   9.792   0.516 -0.8318  0.0327 -0.2076
  259MOL0     C34891   0.791   9.902   0.462 -0.6142 -1.4912 -0.4247
  259MOL0     C34892   0.871  10.034   0.481 -0.4400  0.7367  0.2719
  259MOL0     C34893   0.981  10.062   0.370 -0.0305 -0.0848 -0.3522
  259MOL0     C34894   1.102  10.112   0.431  0.3958 -0.7605 -0.5377
  259MOL0     C34895   1.199  10.167   0.473  0.0206  0.2304  0.6026
  259MOL0     C34896   0.739   9.585   0.694  0.7823 -0.3385 -0.2010
  259MOL0     C34897   0.688   9.487   0.773 -0.9598  0.9916 -0.1203
  259MOL0     H34898   0.552   9.210   1.198 -1.1855  0.8023 -0.5844
  259MOL0     H34899   0.432   9.020   1.255  0.9299 -3.2905 -0.8273
  259MOL0     H34900   0.102   8.857   0.989 -0.1805 -0.5970 -2.0916
  259MOL0     H34901   0.253   8.783   0.933 -0.8473  1.1083 -0.5052
  259MOL0     H34902   0.123   8.691   1.188 -2.4678 -2.0264 -0.2398
  259MOL0     H34903   0.064   8.629   1.028  1.6353 -0.9406 -0.8264
  259MOL0     H34904   0.298   8.549   0.986 -0.8882 -1.3207 -0.2740
  259MOL0     H34905   0.341   8.596   1.146  0.5648 -1.0543 -0.6389
  259MOL0     H34906   0.196   8.435   1.257 -0.5725 -3.8648  0.3980
  259MOL0     H34907   0.102   8.412   1.114  0.0418 -0.7864  0.5560
  259MOL0     H34908   0.235   8.220   1.177 -0.9934 -0.3679 -2.0519
  259MOL0     H34909   0.277   8.278   1.019  1.5393  0.9966 -1.3488
  259MOL0     H34910   0.479   8.399   1.105  0.6791 -0.8979 -1.4228
  259MOL0     H34911   0.440   8.366   1.268 -0.5869  5.1577 -2.3614
  259MOL0     H34912   0.620   8.222   1.190 -0.1255 -1.3960  5.0199
  259MOL0     H34913   0.487   8.132   1.239 -1.8483  1.0289 -0.3902
  259MOL0     H34914   0.549   8.208   0.957 -0.3705 -0.8355 -0.6177
  259MOL0     H34915   0.407   8.105   0.995 -0.2313 -0.4356  0.4081
  259MOL0     H34916   0.775   8.100   0.925 -1.8426  1.5015 -1.1255
  259MOL0     H34917   0.877   7.739   0.881 -0.0823  0.1580 -1.0123
  259MOL0     H34918   0.923   7.893   0.839  1.4042  0.2179  1.0781
  259MOL0     H34919   1.040   7.930   1.057  0.5762 -1.3107  2.6927
  259MOL0     H34920   1.066   7.761   1.002 -0.5557 -1.1974 -0.0415
  259MOL0     H34921   0.876   7.697   1.151  2.1851 -0.8707  0.5003
  259MOL0     H34922   0.873   7.856   1.221  0.7778 -0.5356  2.2304
  259MOL0     H34923   1.120   7.674   1.222 -1.6848  0.2459 -1.6707
  259MOL0     H34924   1.015   7.697   1.365  0.9088 -0.6472  1.0601
  259MOL0     H34925   1.172   8.076   1.434  0.0048 -1.2323 -2.3397
  259MOL0     H34926   1.336   8.139   1.773  1.4838  0.1633 -0.8935
  259MOL0     H34927   1.355   8.210   1.610  0.5752 -1.5754 -0.7610
  259MOL0     H34928   1.201   8.156   1.661  0.7882  2.9036  1.5283
  259MOL0     H34929   1.480   7.997   2.078  0.1923 -2.4328  1.4041
  259MOL0     H34930   1.657   7.972   2.234 -2.4364 -2.1415  0.5123
  259MOL0     H34931   1.842   8.048   2.346 -1.0632  0.0749 -0.5310
  259MOL0     H34932   1.978   7.941   2.390 -2.1168 -2.8997 -1.2219
  259MOL0     H34933   2.106   8.086   2.192  1.1257 -0.4338 -0.6395
  259MOL0     H34934   1.984   8.204   2.232 -0.9373 -0.2074  0.1173
  259MOL0     H34935   2.177   8.083   2.430 -1.5988 -1.2246  1.7866
  259MOL0     H34936   2.024   8.159   2.482 -1.4012  0.1247 -1.3300
  259MOL0     H34937   2.233   8.306   2.301  1.7924 -0.4606  0.6245
  259MOL0     H34938   2.083   8.375   2.367 -0.3698  0.0061  0.5823
  259MOL0     H34939   2.166   8.316   2.598 -0.2876  1.0119  1.1899
  259MOL0     H34940   2.247   8.445   2.511 -2.5940  0.0232 -1.9690
  259MOL0     H34941   2.365   8.168   2.541  5.1587 -0.8946  0.4543
  259MOL0     H34942   2.421   8.300   2.434 -1.3868  2.7401  0.7533
  259MOL0     H34943   2.428   8.438   2.662  0.1180  1.2221 -4.8556
  259MOL0     H34944   2.551   8.309   2.634 -0.3858 -3.3637  2.8384
  259MOL0     H34945   2.483   8.245   2.841  0.9086 -1.9128  0.2117
  259MOL0     H34946   2.398   8.139   2.750 -0.8620  0.2529  2.1236
  259MOL0     H34947   1.943   7.908   1.919 -0.9620  0.7067 -1.9052
  259MOL0     H34948   1.751   7.935   1.751 -0.0915  2.9530 -1.1936
  259MOL0     H34949   1.373   7.667   1.609  1.8723  1.7543 -1.2907
  259MOL0     H34950   1.259   7.651   1.430 -0.0615  0.4133 -0.0113
  259MOL0     H34951   0.250   9.009   0.872 -1.3291 -0.9992  1.2027
  259MOL0     H34952   0.402   9.198   0.799 -2.7971 -1.9708 -1.2406
  259MOL0     H34953   0.820   9.604   1.067 -3.0299 -0.0446  1.0093
  259MOL0     H34954   0.924   9.771   0.900  2.2357 -1.9165 -0.4279
  259MOL0     H34955   0.977   9.794   0.481 -1.1437 -0.8860 -1.2023
  259MOL0     H34956   0.848   9.697   0.468  2.8483 -1.4456  0.4401
  259MOL0     H34957   0.702   9.920   0.524  1.8262 -0.5824  3.1211
  259MOL0     H34958   0.759   9.891   0.358 -1.4177  4.4639 -1.1636
  259MOL0     H34959   0.915  10.022   0.581 -1.6608 -1.1872  0.6321
  259MOL0     H34960   0.804  10.120   0.478  1.3749  2.1824 -0.4212
  259MOL0     H34961   0.943  10.142   0.306  1.1071 -0.8161 -2.0193
  259MOL0     H34962   0.994   9.975   0.305  0.0037 -0.1881 -0.2088
  259MOL0     H34963   1.286  10.215   0.514 -0.1712 -0.6154  2.0579
  259MOL0     H34964   0.675   9.609   0.609 -1.2487  3.0055  2.0669
  259MOL0     H34965   0.618   9.418   0.726  1.6579  0.0862 -3.0388
  260MOL0     O34966   4.507   7.369   7.666  0.6382  0.4319  0.1364
  260MOL0     C34967   4.534   7.358   7.790  0.4939  1.0220 -0.1990
  260MOL0     O34968   4.653   7.380   7.843  0.1979  0.1970 -0.0150
  260MOL0     C34969   4.761   7.416   7.767  0.3034 -0.3795 -0.5898
  260MOL0     C34970   4.839   7.313   7.713  0.2857 -0.3963 -0.1475
  260MOL0     C34971   4.946   7.328   7.628  1.3674  0.1602 -1.3647
  260MOL0     C34972   4.988   7.459   7.613  0.5724  0.1027  0.2344
  260MOL0     O34973   5.097   7.478   7.534  0.2613 -0.3983 -0.0754
  260MOL0     C34974   5.225   7.434   7.595  0.0731 -0.0229  1.5343
  260MOL0     C34975   5.332   7.440   7.489 -0.0340  0.2804 -1.0304
  260MOL0     C34976   5.304   7.375   7.364 -0.5071 -0.4118  0.0513
  260MOL0     C34977   5.273   7.224   7.355  0.7044  0.5334 -0.8403
  260MOL0     C34978   5.249   7.168   7.219 -0.7746  1.2433  0.6425
  260MOL0     C34979   5.215   7.020   7.217 -0.3743  0.3418  0.4954
  260MOL0     C34980   5.191   6.978   7.067  0.1044  0.3648 -0.9430
  260MOL0     C34981   5.063   6.899   7.028  0.5317  0.1400  0.0210
  260MOL0     N34982   5.091   6.750   7.056  0.6416 -0.4754  0.3033
  260MOL0     C34983   4.992   6.651   7.050  0.0444  0.9227 -0.5914
  260MOL0     C34984   5.052   6.527   7.058 -0.3547  0.0008 -0.2167
  260MOL0     C34985   4.990   6.393   7.083 -0.8608  0.2131  0.3036
  260MOL0     C34986   4.879   6.390   7.188 -0.4382 -0.2208 -0.3965
  260MOL0     C34987   4.731   6.399   7.134 -1.4691  0.4727  0.5802
  260MOL0     C34988   4.618   6.393   7.235  0.0325  0.3158 -0.4162
  260MOL0     O34989   4.480   6.413   7.206  0.1226 -1.0995 -0.2970
  260MOL0     C34990   4.402   6.305   7.163 -0.3985 -0.6909  0.4574
  260MOL0     C34991   4.446   6.172   7.156  0.1446  0.5044 -0.2484
  260MOL0     C34992   4.369   6.063   7.105 -0.6715 -0.7339 -0.6717
  260MOL0     C34993   4.430   5.924   7.095 -0.0841 -0.4204  0.1175
  260MOL0     C34994   4.243   6.100   7.041 -1.1212  0.0806 -0.2267
  260MOL0     C34995   4.165   5.999   6.964 -0.2802 -0.7758 -0.9004
  260MOL0     O34996   4.233   5.912   6.874  0.7349 -0.0918 -1.3022
  260MOL0     C34997   4.152   5.818   6.818 -1.1308  0.7535 -0.3527
  260MOL0     C34998   4.119   5.699   6.881 -0.3869  0.6837 -0.0663
  260MOL0     C34999   4.030   5.605   6.822  0.0599  0.9945  0.4925
  260MOL0     C35000   3.968   5.628   6.701 -0.4955  0.0455 -0.3243
  260MOL0     O35001   3.876   5.539   6.665  0.0013 -0.3853 -0.5753
  260MOL0     C35002   3.745   5.587   6.700  1.1262  0.1390  0.1860
  260MOL0     C35003   3.649   5.470   6.735 -0.5582  0.6215  0.9796
  260MOL0     C35004   3.600   5.393   6.602 -0.6057 -0.1565 -0.6785
  260MOL0     C35005   3.477   5.462   6.545 -0.2703 -0.6003  0.5056
  260MOL0     C35006   3.412   5.363   6.439 -1.0642  0.3035  1.0702
  260MOL0     C35007   3.335   5.237   6.492  0.0392 -0.2386  0.6687
  260MOL0     C35008   3.248   5.178   6.386 -0.4120 -0.1691  0.4416
  260MOL0     C35009   3.118   5.146   6.453  0.1876  0.0874 -0.0759
  260MOL0    Cl35010   3.133   5.014   6.583 -0.1041  0.1621  0.4652
  260MOL0     C35011   3.995   5.749   6.636  0.3766 -0.3679 -0.0646
  260MOL0     C35012   4.083   5.842   6.698  0.2623 -0.0527  0.2623
  260MOL0     O35013   4.042   6.012   6.987 -0.1598  1.0255  0.0347
  260MOL0     C35014   4.201   6.230   7.026 -0.7281 -0.4951  0.1449
  260MOL0     C35015   4.282   6.338   7.085 -1.0756 -0.3621  0.4478
  260MOL0     N35016   5.192   6.557   7.076  0.0034  0.3556  0.6195
  260MOL0     N35017   5.208   6.691   7.066  0.1911 -0.6314  0.3595
  260MOL0     C35018   4.916   7.566   7.661  0.5835  1.3945 -0.4025
  260MOL0     C35019   4.806   7.549   7.742  0.4683  0.6968 -0.1173
  260MOL0     C35020   4.434   7.316   7.891 -0.2893  0.2848  0.4427
  260MOL0     C35021   4.305   7.274   7.848 -0.8134 -0.5090 -0.9596
  260MOL0     C35022   4.208   7.220   7.933 -0.2963 -0.1178 -0.9192
  260MOL0     C35023   4.234   7.207   8.073 -1.3058 -0.2492 -0.2092
  260MOL0     O35024   4.126   7.161   8.150 -0.2819 -0.1617  0.5328
  260MOL0     C35025   4.136   7.142   8.292  0.1924  0.1892 -0.1976
  260MOL0     C35026   4.001   7.093   8.347  0.5346  0.5053 -0.6589
  260MOL0     C35027   3.957   6.967   8.268 -0.3017  0.7662 -0.4167
  260MOL0     C35028   3.803   6.952   8.272  0.0371 -0.4367  0.1025
  260MOL0     C35029   3.762   6.887   8.395  0.6163  0.3252 -0.0680
  260MOL0     C35030   3.723   6.863   8.513  0.4751 -0.4585  0.2952
  260MOL0     C35031   4.364   7.244   8.123  0.0282 -0.2732  0.8414
  260MOL0     C35032   4.462   7.297   8.031  0.1023  0.4591 -0.4366
  260MOL0     H35033   4.811   7.212   7.739  0.6167 -0.4874 -0.1414
  260MOL0     H35034   4.995   7.240   7.587  0.8954 -0.9634  0.3310
  260MOL0     H35035   5.240   7.493   7.686 -0.6474  0.2277  1.4978
  260MOL0     H35036   5.223   7.325   7.610  0.4823 -0.7756 -2.5579
  260MOL0     H35037   5.343   7.547   7.466 -0.0902  0.2791 -1.0649
  260MOL0     H35038   5.424   7.417   7.542 -0.8371 -0.2752  0.1544
  260MOL0     H35039   5.232   7.425   7.299 -0.0757  0.3317  0.1399
  260MOL0     H35040   5.389   7.395   7.299 -0.4121 -2.7405 -0.6533
  260MOL0     H35041   5.352   7.166   7.405  0.5153 -0.0903 -1.2521
  260MOL0     H35042   5.191   7.198   7.422  0.5778  1.4111 -0.6458
  260MOL0     H35043   5.171   7.219   7.163  0.9063  1.8471 -1.2442
  260MOL0     H35044   5.336   7.183   7.155 -1.0163  0.9241  0.2360
  260MOL0     H35045   5.298   6.972   7.270 -1.2895  1.2639  2.9115
  260MOL0     H35046   5.128   6.995   7.278  0.2581 -1.2162  0.8124
  260MOL0     H35047   5.172   7.059   6.996 -3.0408  2.8781  2.4102
  260MOL0     H35048   5.287   6.934   7.038  0.7151 -0.5062  2.0556
  260MOL0     H35049   5.047   6.908   6.920 -1.6154 -1.0806  0.1791
  260MOL0     H35050   4.973   6.936   7.079  2.1585  0.5560  2.8015
  260MOL0     H35051   4.887   6.672   7.034 -0.7860 -2.0420  0.2563
  260MOL0     H35052   4.950   6.354   6.989  2.1826  2.7544 -2.3149
  260MOL0     H35053   5.067   6.330   7.130 -0.9846 -0.8073 -0.8042
  260MOL0     H35054   4.906   6.478   7.248  1.9451 -0.2258 -1.3666
  260MOL0     H35055   4.881   6.298   7.247 -3.3244 -0.4293 -0.4457
  260MOL0     H35056   4.723   6.305   7.079 -0.0338 -0.8033  2.4301
  260MOL0     H35057   4.728   6.491   7.074  3.1181  2.0341  2.2616
  260MOL0     H35058   4.642   6.469   7.310 -0.0681  0.0254 -0.0862
  260MOL0     H35059   4.634   6.306   7.300 -2.5084  2.1203  2.9950
  260MOL0     H35060   4.546   6.155   7.196  0.3835  1.4263 -0.4220
  260MOL0     H35061   4.530   5.929   7.139  0.2066 -2.9411 -0.0990
  260MOL0     H35062   4.376   5.853   7.159  1.1138 -0.2496  1.3757
  260MOL0     H35063   4.454   5.889   6.995 -1.8871 -1.1812 -0.0932
  260MOL0     H35064   4.166   5.678   6.977 -0.7523 -1.5805 -0.3325
  260MOL0     H35065   4.006   5.514   6.876 -0.5719  1.0308  0.2730
  260MOL0     H35066   3.747   5.651   6.788  3.0432 -2.3799  2.1045
  260MOL0     H35067   3.709   5.640   6.611  0.2207 -0.6481  0.0665
  260MOL0     H35068   3.698   5.406   6.809 -2.9926 -0.7366  1.5524
  260MOL0     H35069   3.562   5.520   6.779 -1.8472 -0.3146 -0.4030
  260MOL0     H35070   3.564   5.297   6.642 -1.1621  0.8257  1.3280
  260MOL0     H35071   3.673   5.372   6.523 -0.8567 -3.7698 -0.1202
  260MOL0     H35072   3.402   5.459   6.625 -0.4544 -2.2184  0.3078
  260MOL0     H35073   3.498   5.561   6.505 -0.6929 -0.0704  1.5630
  260MOL0     H35074   3.487   5.344   6.362 -1.3056 -0.6036  1.0456
  260MOL0     H35075   3.343   5.426   6.381  0.6488  2.5430  1.3530
  260MOL0     H35076   3.401   5.153   6.518  0.8295  0.5476  1.2624
  260MOL0     H35077   3.280   5.257   6.584  0.8189 -2.5882  1.7389
  260MOL0     H35078   3.279   5.086   6.334 -2.3780 -0.4243 -0.3854
  260MOL0     H35079   3.236   5.246   6.302 -0.4870 -4.1024 -3.0920
  260MOL0     H35080   3.059   5.091   6.379  0.5145 -0.6927  0.2307
  260MOL0     H35081   3.068   5.235   6.494 -1.4443 -1.2834  1.0666
  260MOL0     H35082   3.927   5.774   6.555  1.2447 -1.4614 -1.1635
  260MOL0     H35083   4.090   5.937   6.648  1.1351 -0.7536 -1.0025
  260MOL0     H35084   4.119   6.252   6.959  0.1068 -1.2736 -1.1816
  260MOL0     H35085   4.256   6.443   7.084 -0.5844 -0.2138  1.7075
  260MOL0     H35086   4.952   7.667   7.644 -2.2582  2.6460  0.4331
  260MOL0     H35087   4.753   7.637   7.778  0.2268  0.4505  0.1241
  260MOL0     H35088   4.275   7.285   7.744  0.2820  3.2945 -1.0294
  260MOL0     H35089   4.108   7.190   7.901  0.4691 -2.2917 -1.4557
  260MOL0     H35090   4.205   7.059   8.309 -1.8342 -2.1165 -2.3999
  260MOL0     H35091   4.176   7.227   8.348  3.4212  0.0661 -2.0933
  260MOL0     H35092   3.929   7.171   8.321  1.1125  1.2091 -0.1998
  260MOL0     H35093   4.009   7.081   8.456 -1.7836 -2.8841 -0.7318
  260MOL0     H35094   3.996   6.880   8.321 -1.3421  1.1962  1.1148
  260MOL0     H35095   3.994   6.983   8.166 -3.3400  1.6205 -1.5119
  260MOL0     H35096   3.764   6.904   8.183 -1.6740  1.2182 -0.1009
  260MOL0     H35097   3.756   7.051   8.271  3.1154  1.1391 -0.2153
  260MOL0     H35098   3.690   6.855   8.615 -0.2558  0.7438  0.1731
  260MOL0     H35099   4.373   7.241   8.232 -1.8888  3.3233  1.2554
  260MOL0     H35100   4.553   7.321   8.085  0.3243 -1.4072  0.1024
  261MOL0     O35101   0.180  10.190   3.076 -0.0834 -0.6054  0.2783
  261MOL0     C35102   0.131  10.291   3.020 -0.1974 -0.9724 -0.1062
  261MOL0     O35103   0.081  10.406   3.081 -0.3702  0.5592  0.3900
  261MOL0     C35104   0.104  10.420   3.217  0.7878  0.3001 -0.2404
  261MOL0     C35105   0.209  10.376   3.296  0.5535  0.1284 -0.1255
  261MOL0     C35106   0.223  10.424   3.422 -0.0323 -0.8288  0.0572
  261MOL0     C35107   0.128  10.519   3.478  0.0015  0.1594 -0.4872
  261MOL0     O35108   0.137  10.579   3.601 -0.3024  0.3216 -0.1040
  261MOL0     C35109   0.243  10.535   3.685 -0.4879 -0.4611  0.4938
  261MOL0     C35110   0.223  10.629   3.800  0.2889 -0.2280 -0.6929
  261MOL0     C35111   0.283  10.581   3.939  0.0538  0.0160  0.0613
  261MOL0     C35112   0.413  10.651   3.976 -1.5228 -0.0720 -0.6804
  261MOL0     C35113   0.487  10.585   4.098  0.4881  0.7749 -0.9109
  261MOL0     C35114   0.553  10.449   4.057  0.0664  0.5123 -0.8583
  261MOL0     C35115   0.603  10.374   4.180  0.3768  0.3647  0.2576
  261MOL0     C35116   0.710  10.439   4.267 -0.6117  0.1489 -0.3085
  261MOL0     N35117   0.741  10.348   4.385 -0.2122  0.6134  0.0677
  261MOL0     C35118   0.780  10.213   4.386 -1.4187 -0.9122  0.3799
  261MOL0     C35119   0.796  10.178   4.514 -0.1424 -0.3057  0.5836
  261MOL0     C35120   0.837  10.039   4.566  0.1962  0.4810  0.7256
  261MOL0     C35121   0.987  10.029   4.569 -0.4750  0.0597  0.5879
  261MOL0     C35122   1.031   9.883   4.588 -0.9254  0.8275  0.8783
  261MOL0     C35123   0.953   9.806   4.687  0.5010  1.1094 -0.2550
  261MOL0     O35124   0.923   9.881   4.811  0.3249  0.2970 -0.3644
  261MOL0     C35125   0.885   9.812   4.923  1.0627  0.6639  0.2854
  261MOL0     C35126   0.907   9.871   5.047 -1.2225 -0.1425  0.2369
  261MOL0     C35127   0.899   9.805   5.168 -0.0839 -0.0627  0.3948
  261MOL0     C35128   0.889   9.878   5.307  0.2081 -0.8718  0.6227
  261MOL0     C35129   0.856   9.669   5.161  0.3188 -0.1336 -0.5598
  261MOL0     C35130   0.869   9.585   5.287 -0.6119 -0.1527 -0.5208
  261MOL0     O35131   0.989   9.593   5.355 -0.2121 -0.1594  0.2909
  261MOL0     C35132   0.984   9.535   5.483  0.6015 -0.4587 -0.1291
  261MOL0     C35133   0.959   9.608   5.598  0.7141 -0.1678  0.2660
  261MOL0     C35134   0.947   9.548   5.726 -0.0687 -0.7412  0.1504
  261MOL0     C35135   0.972   9.411   5.734 -0.0539  0.1160  0.4421
  261MOL0     O35136   0.960   9.334   5.852  0.1360  0.3605  0.3142
  261MOL0     C35137   0.930   9.412   5.973  0.1168 -0.0745  1.3402
  261MOL0     C35138   1.053   9.499   6.023 -0.3849  1.1296 -0.7686
  261MOL0     C35139   1.154   9.401   6.094 -0.1895  0.2279  0.4648
  261MOL0     C35140   1.114   9.334   6.227 -0.8584  0.7548 -0.1737
  261MOL0     C35141   1.183   9.411   6.346 -0.3491  0.0189 -0.7002
  261MOL0     C35142   1.161   9.344   6.474  0.4926 -0.2752 -1.2333
  261MOL0     C35143   1.248   9.414   6.580 -0.4756  0.8008  0.4476
  261MOL0     C35144   1.290   9.319   6.685  0.3994 -0.1022 -0.6751
  261MOL0    Cl35145   1.378   9.418   6.795 -0.0846 -0.4382  0.0577
  261MOL0     C35146   1.000   9.340   5.621 -0.7243  0.2621  0.4461
  261MOL0     C35147   1.004   9.398   5.502 -0.2875 -0.6676  0.4255
  261MOL0     O35148   0.775   9.514   5.322  0.3442  0.1820  0.3732
  261MOL0     C35149   0.825   9.612   5.035  0.3858 -0.1319 -0.4170
  261MOL0     C35150   0.837   9.676   4.915  0.1111  0.0212  0.6489
  261MOL0     N35151   0.778  10.287   4.591  0.5124 -0.1873  0.1345
  261MOL0     N35152   0.739  10.386   4.520  0.1404  0.4819 -0.2110
  261MOL0     C35153   0.021  10.562   3.402 -0.3819 -0.4695  0.1302
  261MOL0     C35154   0.010  10.513   3.274 -0.3151 -0.7914 -0.8269
  261MOL0     C35155   0.121  10.295   2.870 -0.9102 -0.7780 -0.4928
  261MOL0     C35156   0.162  10.181   2.790  0.3646 -0.0415  0.7453
  261MOL0     C35157   0.140  10.188   2.653 -0.6017 -0.2346  0.5746
  261MOL0     C35158   0.081  10.304   2.599 -0.2956 -0.0288 -0.7965
  261MOL0     O35159   0.036  10.314   2.474 -0.0144 -0.5855  0.0023
  261MOL0     C35160   0.100  10.230   2.377  1.0927  0.4327 -0.6272
  261MOL0     C35161   0.093  10.290   2.235  0.1973 -0.1316  0.6214
  261MOL0     C35162   0.169  10.205   2.126  0.1956  0.5475 -0.9594
  261MOL0     C35163   0.084  10.140   2.023 -0.3365  0.2848  0.1432
  261MOL0     C35164   0.053   9.999   2.071  1.0615 -1.6669  0.2009
  261MOL0     C35165   0.010   9.896   2.111  0.3308  0.1508 -0.0515
  261MOL0     C35166   0.039  10.414   2.670  0.8441  0.1360  0.2028
  261MOL0     C35167   0.071  10.413   2.809  0.4513 -1.2486 -0.4732
  261MOL0     H35168   0.290  10.317   3.255  1.5988  1.6989 -0.4020
  261MOL0     H35169   0.315  10.397   3.472  0.8186  2.0089  0.2126
  261MOL0     H35170   0.234  10.429   3.712  1.6478 -0.5616  0.9682
  261MOL0     H35171   0.343  10.551   3.644  0.1510 -0.2358  2.0382
  261MOL0     H35172   0.270  10.724   3.773  0.5929 -0.4320 -0.8918
  261MOL0     H35173   0.118  10.643   3.826  0.4380  1.3994 -0.8625
  261MOL0     H35174   0.205  10.598   4.013 -1.1338 -4.1621  0.0038
  261MOL0     H35175   0.291  10.472   3.941  0.5704  0.0635  1.0684
  261MOL0     H35176   0.472  10.665   3.886  0.5374 -0.7641  0.5059
  261MOL0     H35177   0.381  10.749   4.015 -1.0697  0.2690 -1.1618
  261MOL0     H35178   0.566  10.645   4.143  1.0428 -1.0833  0.7131
  261MOL0     H35179   0.409  10.564   4.171  0.0405  0.8563 -1.3587
  261MOL0     H35180   0.485  10.390   3.995  0.4142 -1.9838  0.9670
  261MOL0     H35181   0.641  10.467   3.995 -0.8269 -0.8019 -2.5896
  261MOL0     H35182   0.527  10.356   4.256  0.1126 -0.4221 -0.1839
  261MOL0     H35183   0.632  10.275   4.143  0.3918  0.1661  0.7894
  261MOL0     H35184   0.670  10.536   4.297  1.6547  1.0199  0.1663
  261MOL0     H35185   0.802  10.465   4.213 -1.0908 -2.6085 -2.7093
  261MOL0     H35186   0.790  10.149   4.298 -0.5076  0.4464 -0.5526
  261MOL0     H35187   0.785  10.007   4.656  0.1223 -0.4686  0.3609
  261MOL0     H35188   0.791   9.966   4.499  2.4313 -2.4761  2.2136
  261MOL0     H35189   1.027  10.074   4.660  0.2152 -2.5695  1.6818
  261MOL0     H35190   1.030  10.082   4.483  0.8136 -2.0313 -0.1163
  261MOL0     H35191   1.133   9.872   4.626 -1.2403 -3.5069  0.9561
  261MOL0     H35192   1.021   9.839   4.488  2.5632  0.4111  0.5753
  261MOL0     H35193   1.010   9.717   4.716 -0.3765  0.4569 -0.4652
  261MOL0     H35194   0.859   9.786   4.634  1.1575 -0.0351 -1.0347
  261MOL0     H35195   0.932   9.975   5.027 -1.7254 -0.5488 -3.2654
  261MOL0     H35196   0.846   9.977   5.289  3.4486  0.0427 -3.6599
  261MOL0     H35197   0.829   9.819   5.377 -1.5079  1.2919  1.0809
  261MOL0     H35198   0.985   9.911   5.346 -0.8377  1.0868  1.6924
  261MOL0     H35199   0.941   9.715   5.590 -0.1077 -0.4236 -3.1481
  261MOL0     H35200   0.920   9.611   5.810 -0.5450  2.6844 -2.3504
  261MOL0     H35201   0.843   9.475   5.958  0.2905  0.2505  1.6676
  261MOL0     H35202   0.891   9.343   6.050 -2.1657 -2.9249 -2.0444
  261MOL0     H35203   1.104   9.558   5.947  2.5624  0.2640  0.3993
  261MOL0     H35204   1.013   9.555   6.108 -1.2147  2.0052 -1.7086
  261MOL0     H35205   1.255   9.442   6.101 -0.2887  0.5660 -0.0213
  261MOL0     H35206   1.164   9.317   6.024 -2.0953  1.7982 -1.8328
  261MOL0     H35207   1.006   9.342   6.237 -1.1567 -3.9756  3.7802
  261MOL0     H35208   1.131   9.226   6.228 -0.8597  0.6904 -2.3888
  261MOL0     H35209   1.143   9.512   6.354 -1.2004 -0.4021  0.6248
  261MOL0     H35210   1.291   9.429   6.337 -0.5634  1.6973 -0.2888
  261MOL0     H35211   1.057   9.350   6.507 -0.2332 -3.7319 -2.4829
  261MOL0     H35212   1.176   9.236   6.475  0.6598 -0.2554 -0.5950
  261MOL0     H35213   1.199   9.501   6.625  1.4071  0.3001  3.7544
  261MOL0     H35214   1.336   9.463   6.536  0.1296 -0.4259  0.2491
  261MOL0     H35215   1.349   9.239   6.639 -1.3176 -2.5337  1.0921
  261MOL0     H35216   1.202   9.281   6.737  2.6402 -3.2989  1.1801
  261MOL0     H35217   1.004   9.232   5.621 -3.8056  0.0711  0.2748
  261MOL0     H35218   1.025   9.343   5.411  0.2069 -2.8699  1.8021
  261MOL0     H35219   0.788   9.510   5.044  0.3861 -0.0567  0.6325
  261MOL0     H35220   0.808   9.628   4.822  2.0392 -1.7057  0.8466
  261MOL0     H35221  -0.039  10.643   3.440  1.2542  0.5219  0.6778
  261MOL0     H35222  -0.067  10.549   3.207 -1.4894 -2.2874 -0.3537
  261MOL0     H35223   0.208  10.091   2.830  2.2858  0.4853 -0.1531
  261MOL0     H35224   0.151  10.106   2.584 -0.6104  0.6199 -0.4791
  261MOL0     H35225   0.208  10.219   2.395  1.3213  2.6285 -0.4534
  261MOL0     H35226   0.052  10.132   2.386 -0.0738  1.0358  0.0253
  261MOL0     H35227   0.146  10.385   2.246 -1.7703  0.9715  1.1596
  261MOL0     H35228  -0.010  10.306   2.203  0.1284  0.4180  1.0968
  261MOL0     H35229   0.224  10.125   2.177 -0.9162 -0.9558 -2.0200
  261MOL0     H35230   0.244  10.273   2.086  0.7607 -0.1850 -1.1758
  261MOL0     H35231   0.141  10.126   1.931 -0.1150  1.2754  0.1141
  261MOL0     H35232  -0.017  10.179   2.009  0.4164  1.7361 -1.7801
  261MOL0     H35233  -0.030   9.807   2.155 -0.2985 -0.3042 -1.4996
  261MOL0     H35234   0.008  10.501   2.613 -0.1399 -0.0253  0.4781
  261MOL0     H35235   0.047  10.500   2.869 -0.4104 -0.2774 -2.1487
  262MOL0     O35236   7.397   8.024  11.384  0.0302 -0.1135 -0.3573
  262MOL0     C35237   7.315   8.091  11.316 -0.4217 -1.3001  0.0303
  262MOL0     O35238   7.354   8.149  11.188  0.3538  0.0567 -0.3925
  262MOL0     C35239   7.472   8.110  11.133 -0.7431  0.1867 -0.1058
  262MOL0     C35240   7.563   8.207  11.084  0.9811  0.0927  0.9556
  262MOL0     C35241   7.681   8.167  11.023  0.0797 -0.2717  0.2230
  262MOL0     C35242   7.712   8.026  11.005 -0.2241 -0.6145  0.9106
  262MOL0     O35243   7.830   7.999  10.943 -0.4235  0.3820  0.1733
  262MOL0     C35244   7.915   7.894  10.998  0.0225  0.1970  0.4531
  262MOL0     C35245   8.042   7.880  10.911  0.6949 -0.0950 -0.4036
  262MOL0     C35246   8.014   7.820  10.782  0.0997 -0.9788 -1.1178
  262MOL0     C35247   8.124   7.833  10.681 -0.1060 -0.3294  0.8736
  262MOL0     C35248   8.077   7.788  10.540 -0.5548 -0.4168 -0.2121
  262MOL0     C35249   8.006   7.648  10.554  0.1105 -0.1267 -0.1459
  262MOL0     C35250   7.974   7.585  10.420  0.5775 -1.1335 -0.8864
  262MOL0     C35251   7.925   7.440  10.435  1.1769 -0.2896 -0.1898
  262MOL0     N35252   7.938   7.372  10.312 -0.0336  0.3519  0.7553
  262MOL0     C35253   8.012   7.269  10.278  0.2996 -0.8811 -0.3075
  262MOL0     C35254   7.971   7.233  10.155 -0.1940  0.6065 -0.6028
  262MOL0     C35255   8.022   7.117  10.074 -0.3593 -0.5781 -0.1459
  262MOL0     C35256   7.915   7.046   9.990 -0.1229  0.2007  0.7468
  262MOL0     C35257   8.001   6.964   9.886 -0.6084  0.5772  0.0865
  262MOL0     C35258   7.904   6.922   9.777  0.8285 -0.3159  0.2883
  262MOL0     O35259   7.880   6.784   9.798 -0.4143 -0.8379  0.6510
  262MOL0     C35260   7.838   6.709   9.691 -0.7468 -0.5768 -0.0262
  262MOL0     C35261   7.730   6.752   9.605 -0.0912 -0.2270 -0.0702
  262MOL0     C35262   7.694   6.663   9.500 -0.5376  0.2006  0.3032
  262MOL0     C35263   7.597   6.727   9.398 -0.7347 -0.0091 -0.2771
  262MOL0     C35264   7.739   6.525   9.496  0.7545 -0.2104  0.0293
  262MOL0     C35265   7.688   6.431   9.398 -0.4320 -0.2268  0.5676
  262MOL0     O35266   7.639   6.307   9.443  1.0216 -0.6775 -0.8440
  262MOL0     C35267   7.555   6.227   9.370  0.0465 -0.0403 -0.3901
  262MOL0     C35268   7.417   6.217   9.396  0.6086  1.0277 -0.3287
  262MOL0     C35269   7.332   6.129   9.335  0.3252 -0.6961 -0.1864
  262MOL0     C35270   7.374   6.043   9.231 -0.7670  0.0365 -0.4363
  262MOL0     O35271   7.297   5.956   9.160  0.5393 -0.5335 -0.4903
  262MOL0     C35272   7.337   5.816   9.138  0.2312  0.5410  1.2293
  262MOL0     C35273   7.217   5.728   9.096 -0.5308  0.1922  0.2887
  262MOL0     C35274   7.158   5.670   9.218  0.2513 -0.2140 -0.3721
  262MOL0     C35275   7.037   5.580   9.184  0.3043 -0.0645  0.9817
  262MOL0     C35276   6.996   5.481   9.298 -0.3055 -0.2282  0.2881
  262MOL0     C35277   6.929   5.549   9.418  0.2639  0.1157 -1.0415
  262MOL0     C35278   6.901   5.455   9.533 -0.1664  0.2905 -0.3621
  262MOL0     C35279   7.033   5.382   9.586  0.2795 -0.0189  0.0363
  262MOL0    Cl35280   7.042   5.231   9.507 -0.0402  0.2980  0.0374
  262MOL0     C35281   7.516   6.051   9.204  0.2865  0.0421  0.5649
  262MOL0     C35282   7.605   6.129   9.285  0.2215  0.2297  0.6243
  262MOL0     O35283   7.678   6.465   9.282 -0.6073  0.1188  0.2229
  262MOL0     C35284   7.830   6.483   9.586 -0.3322 -0.2133 -0.9447
  262MOL0     C35285   7.884   6.581   9.681 -0.5901 -0.3746 -0.5051
  262MOL0     N35286   7.870   7.310  10.105  0.4732 -0.2538  0.1813
  262MOL0     N35287   7.844   7.388  10.214 -0.4223 -0.6969  0.1760
  262MOL0     C35288   7.624   7.925  11.046  0.6281 -0.5718  0.3404
  262MOL0     C35289   7.508   7.970  11.115 -0.0043  0.0513  0.3170
  262MOL0     C35290   7.170   8.102  11.362 -0.7026 -0.4708  0.0425
  262MOL0     C35291   7.076   8.170  11.285 -0.3563 -0.2815 -0.2755
  262MOL0     C35292   6.943   8.186  11.321  0.9620  0.1159  0.4589
  262MOL0     C35293   6.890   8.129  11.437 -0.0370  1.5301  1.0399
  262MOL0     O35294   6.758   8.128  11.469  0.6607 -0.5722 -0.1073
  262MOL0     C35295   6.720   8.206  11.588 -0.2945 -0.1667  0.3130
  262MOL0     C35296   6.591   8.144  11.644  0.5092 -0.4742  0.0233
  262MOL0     C35297   6.509   8.243  11.741 -0.5664 -0.1032 -0.2650
  262MOL0     C35298   6.586   8.267  11.872  0.1935  0.8058  0.0441
  262MOL0     C35299   6.513   8.347  11.977 -0.3418  0.7497 -0.1361
  262MOL0     C35300   6.459   8.413  12.067  0.3645 -0.5064 -0.3312
  262MOL0     C35301   6.983   8.055  11.508 -0.3496  0.5128 -0.6041
  262MOL0     C35302   7.114   8.032  11.470  0.6019 -0.0522 -0.2120
  262MOL0     H35303   7.532   8.311  11.084 -2.7318 -0.8602 -0.3153
  262MOL0     H35304   7.757   8.231  10.978 -0.9493 -0.1833 -1.4767
  262MOL0     H35305   7.955   7.920  11.096  1.0253 -0.2185  0.1673
  262MOL0     H35306   7.871   7.794  11.003 -0.6793  0.5254  0.9746
  262MOL0     H35307   8.097   7.974  10.897 -0.0027  0.4489  0.4367
  262MOL0     H35308   8.117   7.819  10.963  1.1962  0.4313 -0.4901
  262MOL0     H35309   8.003   7.715  10.811 -2.0711 -0.2167  1.2207
  262MOL0     H35310   7.921   7.866  10.745 -0.0081  0.3977  0.7148
  262MOL0     H35311   8.152   7.939  10.674  2.5478 -1.0800 -2.4014
  262MOL0     H35312   8.211   7.774  10.711 -0.2480 -0.9669  0.0559
  262MOL0     H35313   8.010   7.868  10.508 -3.5168 -2.3044  0.8048
  262MOL0     H35314   8.158   7.779  10.467 -2.0063  0.3033 -1.9762
  262MOL0     H35315   8.064   7.574  10.610 -0.1954  0.0175  0.3702
  262MOL0     H35316   7.911   7.673  10.603 -1.1102 -0.1972 -2.3368
  262MOL0     H35317   7.904   7.652  10.370 -1.3882 -2.5376 -0.1386
  262MOL0     H35318   8.063   7.584  10.356  0.7576  0.8434 -0.7533
  262MOL0     H35319   7.824   7.453  10.476  1.5742  3.9233 -0.0573
  262MOL0     H35320   7.986   7.392  10.512 -1.2740 -1.0100  1.4417
  262MOL0     H35321   8.076   7.218  10.349  0.7419  1.2257  0.9003
  262MOL0     H35322   8.104   7.155  10.011  1.9533 -1.8245  1.9436
  262MOL0     H35323   8.068   7.039  10.135 -1.9686 -0.5814  1.1250
  262MOL0     H35324   7.850   7.117   9.938 -0.1617 -0.5286 -0.2254
  262MOL0     H35325   7.840   6.985  10.042 -1.1928  0.8211 -0.0459
  262MOL0     H35326   8.050   6.882   9.938  0.1134  0.3804 -0.8967
  262MOL0     H35327   8.078   7.021   9.833 -0.9219 -1.0603 -2.2820
  262MOL0     H35328   7.947   6.943   9.679  6.6616 -1.3883  2.2573
  262MOL0     H35329   7.807   6.972   9.783  0.5543 -0.6919 -0.7613
  262MOL0     H35330   7.685   6.849   9.625 -1.2187 -0.8934  0.7977
  262MOL0     H35331   7.656   6.766   9.314 -0.4915 -0.6436 -0.4088
  262MOL0     H35332   7.540   6.649   9.347  0.2072 -0.8381 -0.0800
  262MOL0     H35333   7.529   6.798   9.446 -1.8624 -1.8753  1.0340
  262MOL0     H35334   7.378   6.275   9.479 -0.7030  2.2140 -1.7112
  262MOL0     H35335   7.226   6.121   9.354 -0.0985 -0.4190 -2.1742
  262MOL0     H35336   7.403   5.810   9.052 -2.0435 -1.7761 -0.5068
  262MOL0     H35337   7.399   5.783   9.222  2.7790  0.1781 -0.6783
  262MOL0     H35338   7.140   5.785   9.045 -0.5502 -0.6216 -0.6237
  262MOL0     H35339   7.266   5.654   9.032 -1.3705 -1.2598  1.2425
  262MOL0     H35340   7.130   5.751   9.286 -2.0568 -1.1580 -0.0861
  262MOL0     H35341   7.230   5.614   9.278 -0.4663  1.8810  2.6339
  262MOL0     H35342   6.951   5.647   9.174 -0.4575 -0.9708  1.3379
  262MOL0     H35343   7.048   5.519   9.094 -0.5266  1.3985 -0.1537
  262MOL0     H35344   7.082   5.425   9.336 -1.5841 -2.2553  0.3474
  262MOL0     H35345   6.928   5.403   9.264  1.7393 -2.7268  1.4893
  262MOL0     H35346   6.990   5.636   9.444  1.5357 -0.3809 -2.2756
  262MOL0     H35347   6.825   5.580   9.400 -1.2569 -2.2489  2.5727
  262MOL0     H35348   6.833   5.382   9.489  0.2814  1.8737 -4.0216
  262MOL0     H35349   6.845   5.517   9.604  1.2774  0.2599  0.8526
  262MOL0     H35350   7.020   5.362   9.692 -3.4774  1.8075  0.0803
  262MOL0     H35351   7.129   5.432   9.575  0.7181 -0.4718  1.5585
  262MOL0     H35352   7.559   5.988   9.127 -3.0632 -1.0864 -0.5876
  262MOL0     H35353   7.712   6.117   9.274  0.6137  3.3749 -0.0667
  262MOL0     H35354   7.878   6.385   9.584 -2.4616 -1.3682  0.6858
  262MOL0     H35355   7.967   6.567   9.750 -0.9981  1.1199  0.3455
  262MOL0     H35356   7.638   7.819  11.025 -0.6274 -0.1452 -3.4804
  262MOL0     H35357   7.428   7.903  11.143 -1.6682  1.3585 -1.0750
  262MOL0     H35358   7.108   8.215  11.191  0.1952 -3.6401 -1.8228
  262MOL0     H35359   6.876   8.242  11.256  0.9861 -0.9824 -0.5588
  262MOL0     H35360   6.804   8.212  11.657  0.1870 -1.6435 -0.1085
  262MOL0     H35361   6.699   8.307  11.550 -1.2303 -0.4149  0.1385
  262MOL0     H35362   6.595   8.053  11.704  2.6348 -1.0673 -0.9383
  262MOL0     H35363   6.521   8.123  11.562  0.2869  1.0899 -0.2175
  262MOL0     H35364   6.405   8.218  11.764 -0.6437  0.0832 -0.4161
  262MOL0     H35365   6.514   8.337  11.686  1.1550  0.5918  0.9938
  262MOL0     H35366   6.687   8.308  11.857  1.8392 -2.8594 -0.0354
  262MOL0     H35367   6.609   8.169  11.912  4.3432  0.8595 -1.6812
  262MOL0     H35368   6.413   8.470  12.145 -1.9366 -0.0252 -1.9392
  262MOL0     H35369   6.952   8.017  11.604  1.9540  0.6583  0.2453
  262MOL0     H35370   7.174   7.969  11.535 -0.0335  0.6214  1.0671
  263MOL0     O35371   0.614   2.305  11.036 -0.2154  0.4845  0.2622
  263MOL0     C35372   0.592   2.386  10.948  0.1036 -0.1948  0.5481
  263MOL0     O35373   0.676   2.428  10.848  0.2902  0.1710 -1.2264
  263MOL0     C35374   0.798   2.363  10.846 -0.1339  0.2051 -0.4210
  263MOL0     C35375   0.894   2.373  10.948 -0.8140  0.2429 -0.1207
  263MOL0     C35376   1.022   2.316  10.942  0.7845  0.2458  0.0753
  263MOL0     C35377   1.052   2.237  10.827  1.1927  0.3990  0.1293
  263MOL0     O35378   1.174   2.176  10.808 -0.6212  0.3672  0.7549
  263MOL0     C35379   1.285   2.266  10.824  1.3599  0.2383 -0.4964
  263MOL0     C35380   1.411   2.194  10.870  0.1897  0.9288  0.4612
  263MOL0     C35381   1.378   2.114  10.997  1.2211  0.4355 -0.6489
  263MOL0     C35382   1.505   2.037  11.043  0.7330  0.4172  0.2931
  263MOL0     C35383   1.565   1.920  10.951  0.1555  0.6918  0.5295
  263MOL0     C35384   1.474   1.800  10.946  0.3383 -0.2976 -0.7943
  263MOL0     C35385   1.522   1.685  10.870  0.3497  0.6682  0.3284
  263MOL0     C35386   1.408   1.574  10.860  0.3755 -0.0445 -0.9666
  263MOL0     N35387   1.438   1.473  10.763 -0.4003  0.3132  0.3188
  263MOL0     C35388   1.413   1.487  10.627  0.8744 -0.2998  0.4343
  263MOL0     C35389   1.445   1.365  10.581 -1.3510  0.8632 -0.0220
  263MOL0     C35390   1.465   1.345  10.433 -0.2998  0.6483  0.1155
  263MOL0     C35391   1.548   1.222  10.383 -0.9314  0.0197  0.2223
  263MOL0     C35392   1.482   1.088  10.422 -0.6547 -1.1718  0.2743
  263MOL0     C35393   1.345   1.073  10.366  0.6224  0.1425 -0.2843
  263MOL0     O35394   1.335   1.074  10.219 -0.1314 -0.1389 -0.1522
  263MOL0     C35395   1.214   1.080  10.153 -0.4287 -0.6421 -0.1793
  263MOL0     C35396   1.205   1.106  10.019 -0.1515  0.0920 -0.2814
  263MOL0     C35397   1.085   1.102   9.948 -0.2863 -0.0685 -0.6452
  263MOL0     C35398   1.085   1.124   9.797 -0.5925  0.5134 -1.5084
  263MOL0     C35399   0.962   1.073  10.019 -0.1707 -0.0502  0.4871
  263MOL0     C35400   0.825   1.054   9.965 -0.6771  0.6153  0.7620
  263MOL0     O35401   0.715   1.083  10.043  0.3988 -0.1881 -0.1187
  263MOL0     C35402   0.587   1.077   9.989 -0.1514  0.7995 -0.5840
  263MOL0     C35403   0.539   0.950   9.947  0.5383  0.4875 -1.0411
  263MOL0     C35404   0.402   0.927   9.909  0.0429 -0.0222 -0.2528
  263MOL0     C35405   0.304   1.021   9.950  0.0889  0.0078  0.4203
  263MOL0     O35406   0.174   0.990   9.920  0.0287 -0.5630  0.8340
  263MOL0     C35407   0.067   1.082   9.966  0.4912 -0.2188 -0.1361
  263MOL0     C35408  -0.058   0.992   9.981  0.7199 -0.8509  0.7972
  263MOL0     C35409  -0.186   1.089   9.968  0.3769 -0.7957  0.6274
  263MOL0     C35410  -0.332   1.037   9.971  0.5712 -0.3952 -0.1917
  263MOL0     C35411  -0.433   1.139  10.021 -1.5187 -0.4054 -0.9537
  263MOL0     C35412  -0.478   1.225   9.902  0.5320 -0.0415 -0.0407
  263MOL0     C35413  -0.577   1.341   9.953 -0.2114 -0.4930 -0.6354
  263MOL0     C35414  -0.554   1.478   9.881  0.6698  0.2580 -0.2022
  263MOL0    Cl35415  -0.618   1.468   9.713 -0.1025  0.3193 -0.4261
  263MOL0     C35416   0.348   1.146   9.995  0.1872  0.3652  0.9284
  263MOL0     C35417   0.490   1.179   9.998 -0.3495  0.8355 -0.2997
  263MOL0     O35418   0.812   1.007   9.854 -0.1824 -0.0758  0.1632
  263MOL0     C35419   0.966   1.067  10.162  0.3355  0.1491  0.5676
  263MOL0     C35420   1.091   1.055  10.217  0.2456 -0.5925 -0.4079
  263MOL0     N35421   1.473   1.279  10.685  0.2158  0.3369  0.0978
  263MOL0     N35422   1.464   1.345  10.797  0.2621 -0.4530  0.4112
  263MOL0     C35423   0.956   2.224  10.722  1.1895 -1.1937  0.0994
  263MOL0     C35424   0.828   2.289  10.737 -1.4899 -0.2803 -0.1635
  263MOL0     C35425   0.460   2.455  10.962 -0.2363 -0.3676 -0.2164
  263MOL0     C35426   0.370   2.419  11.067 -0.6976 -0.6195 -0.6313
  263MOL0     C35427   0.240   2.473  11.069  0.6183  0.9380  0.3386
  263MOL0     C35428   0.194   2.561  10.980  0.8874 -1.4867  0.8190
  263MOL0     O35429   0.071   2.606  11.001 -0.1400  0.8293 -0.5504
  263MOL0     C35430   0.002   2.690  10.909 -0.0639 -0.4031  0.0819
  263MOL0     C35431  -0.075   2.615  10.805  0.2192  0.3915  0.6682
  263MOL0     C35432  -0.209   2.565  10.855  0.3958  0.3021  0.1696
  263MOL0     C35433  -0.308   2.674  10.884  0.2241 -0.3484  0.3768
  263MOL0     C35434  -0.344   2.746  10.765 -0.0481 -0.2096  0.0856
  263MOL0     C35435  -0.379   2.799  10.668  0.8202  0.7262 -0.2316
  263MOL0     C35436   0.274   2.590  10.872 -0.7893  0.0838 -0.7079
  263MOL0     C35437   0.407   2.535  10.861  0.0148  0.2998  0.1860
  263MOL0     H35438   0.870   2.420  11.043  0.9722 -2.4149  1.7816
  263MOL0     H35439   1.080   2.325  11.034 -0.3251 -0.0786  0.8358
  263MOL0     H35440   1.294   2.319  10.728 -1.3056  3.8634  0.9886
  263MOL0     H35441   1.265   2.338  10.904 -3.4352 -0.0675 -1.0978
  263MOL0     H35442   1.433   2.120  10.792 -0.3083  0.9791  0.2740
  263MOL0     H35443   1.488   2.269  10.887 -0.8614  2.0211  0.5139
  263MOL0     H35444   1.353   2.183  11.078  0.7024 -1.4124  0.8103
  263MOL0     H35445   1.298   2.041  10.991  3.0438 -1.8842  1.4782
  263MOL0     H35446   1.579   2.117  11.051 -0.8836  1.8282  2.1015
  263MOL0     H35447   1.499   1.991  11.142 -0.8008 -0.5627 -0.2181
  263MOL0     H35448   1.570   1.967  10.852 -3.3498 -1.2812 -0.7497
  263MOL0     H35449   1.660   1.884  10.991 -0.3964  0.3092  1.5270
  263MOL0     H35450   1.468   1.771  11.052  0.4915 -1.0007 -0.9730
  263MOL0     H35451   1.371   1.824  10.918  0.1212 -0.2163  0.0412
  263MOL0     H35452   1.555   1.729  10.775  1.9879  1.8853  1.3920
  263MOL0     H35453   1.608   1.641  10.921  0.1348 -0.8856 -0.5858
  263MOL0     H35454   1.313   1.621  10.834  0.0404 -0.1559 -0.0093
  263MOL0     H35455   1.393   1.528  10.958 -0.2197  1.4881 -0.3134
  263MOL0     H35456   1.378   1.575  10.573 -0.5723 -1.6076 -0.8594
  263MOL0     H35457   1.367   1.355  10.385  0.9475  0.0530 -2.8378
  263MOL0     H35458   1.530   1.427  10.400 -1.5407  0.4152 -3.3287
  263MOL0     H35459   1.652   1.224  10.416 -0.2803 -0.6804 -1.6466
  263MOL0     H35460   1.559   1.227  10.274  0.7614  0.7707  0.3949
  263MOL0     H35461   1.473   1.074  10.531  1.7939 -2.1485  0.4161
  263MOL0     H35462   1.543   1.002  10.393  0.3851 -2.0603  4.4029
  263MOL0     H35463   1.277   1.154  10.394  0.2202 -1.2721  3.2985
  263MOL0     H35464   1.305   0.986  10.418 -2.0142  1.0600 -0.6123
  263MOL0     H35465   1.295   1.130   9.964 -3.8851  3.9671 -5.8191
  263MOL0     H35466   1.190   1.134   9.766 -0.3103  2.2718 -0.0915
  263MOL0     H35467   1.055   1.031   9.746  4.0211 -1.0009 -1.9066
  263MOL0     H35468   1.032   1.215   9.769  0.0868  1.0512 -1.0691
  263MOL0     H35469   0.615   0.873   9.933 -0.5910 -0.0868 -5.2215
  263MOL0     H35470   0.353   0.839   9.867 -2.0442  0.6108  0.7165
  263MOL0     H35471   0.104   1.127  10.058 -0.1416  0.1632 -0.0672
  263MOL0     H35472   0.051   1.165   9.897 -0.8590  0.5337  1.0245
  263MOL0     H35473  -0.059   0.909   9.910 -2.9185 -1.4234  1.3072
  263MOL0     H35474  -0.050   0.939  10.077 -0.3203 -1.3680  0.6111
  263MOL0     H35475  -0.186   1.146   9.874 -0.3820  1.0714  1.7085
  263MOL0     H35476  -0.177   1.155  10.055 -3.1537  1.8901 -0.7717
  263MOL0     H35477  -0.357   1.004   9.869  1.2441  1.8615 -1.1549
  263MOL0     H35478  -0.334   0.953  10.041 -0.3938  1.0964  1.6673
  263MOL0     H35479  -0.389   1.211  10.091 -0.7346  0.5225 -2.3543
  263MOL0     H35480  -0.520   1.093  10.068  0.2791 -1.6961  1.2961
  263MOL0     H35481  -0.393   1.273   9.852 -1.3264  3.6769  0.0197
  263MOL0     H35482  -0.534   1.158   9.836  0.7934 -1.0531  0.7357
  263MOL0     H35483  -0.554   1.359  10.058  1.4330  2.0902 -1.3517
  263MOL0     H35484  -0.678   1.304   9.930 -1.5114  1.1743  1.8824
  263MOL0     H35485  -0.447   1.504   9.884  1.6268 -3.0188 -1.2956
  263MOL0     H35486  -0.604   1.565   9.923  1.9069  2.1876 -2.4902
  263MOL0     H35487   0.273   1.223  10.007  0.4356  0.8883 -0.6364
  263MOL0     H35488   0.521   1.279  10.029 -1.2399  0.7442  0.9583
  263MOL0     H35489   0.874   1.052  10.218  0.6605  1.1241  1.3755
  263MOL0     H35490   1.091   1.024  10.321 -1.6139  3.3961  0.9807
  263MOL0     H35491   0.999   2.179  10.633  0.7078  0.4341 -1.0087
  263MOL0     H35492   0.756   2.295  10.656 -1.7974  0.1676  0.1422
  263MOL0     H35493   0.407   2.358  11.148 -0.1617 -0.2103 -0.5616
  263MOL0     H35494   0.171   2.441  11.147 -0.4536 -0.9245 -1.2930
  263MOL0     H35495  -0.073   2.745  10.967 -0.1931 -0.9798  0.4727
  263MOL0     H35496   0.066   2.769  10.869 -0.1129 -0.8637 -0.9354
  263MOL0     H35497  -0.013   2.531  10.771  0.8895  0.3986  1.8189
  263MOL0     H35498  -0.088   2.677  10.715  0.1539  0.0680  0.4511
  263MOL0     H35499  -0.199   2.497  10.941  0.8595  0.4061  0.2004
  263MOL0     H35500  -0.250   2.498  10.780 -1.2909 -1.5786  2.6091
  263MOL0     H35501  -0.277   2.739  10.966 -0.2635 -0.7411  0.8789
  263MOL0     H35502  -0.393   2.620  10.926  1.6277 -2.6069  0.5298
  263MOL0     H35503  -0.419   2.846  10.580  1.8613 -0.0858 -1.1715
  263MOL0     H35504   0.237   2.644  10.785  3.5034  1.0962 -2.1541
  263MOL0     H35505   0.460   2.561  10.769 -1.8097  2.7520 -0.2800
  264MOL0     O35506   0.501   3.165  11.377 -0.2765 -0.9028 -0.1395
  264MOL0     C35507   0.538   3.201  11.487  0.0359  0.7402  0.5060
  264MOL0     O35508   0.464   3.240  11.595  0.6250  0.4165  0.1436
  264MOL0     C35509   0.331   3.241  11.573 -0.3091 -0.1293 -0.5067
  264MOL0     C35510   0.250   3.127  11.554 -0.2811 -0.1763 -0.1231
  264MOL0     C35511   0.105   3.137  11.560  1.7104  0.5838  0.6219
  264MOL0     C35512   0.041   3.263  11.584 -0.4010 -0.0167  0.1799
  264MOL0     O35513  -0.095   3.290  11.580 -0.1173  0.1405  0.0740
  264MOL0     C35514  -0.178   3.179  11.600 -0.0737  0.1523  0.6103
  264MOL0     C35515  -0.317   3.226  11.576 -0.6024  0.3638 -0.1228
  264MOL0     C35516  -0.421   3.129  11.639 -1.0116  0.5456  0.5348
  264MOL0     C35517  -0.560   3.184  11.601 -0.0886 -0.7944 -0.2855
  264MOL0     C35518  -0.672   3.097  11.664  0.0446  0.0999  0.6989
  264MOL0     C35519  -0.812   3.154  11.618  0.1916 -0.1247  0.1946
  264MOL0     C35520  -0.918   3.055  11.666  0.7812 -0.8049 -0.3126
  264MOL0     C35521  -1.062   3.112  11.657 -0.2506 -0.3015  0.6247
  264MOL0     N35522  -1.099   3.175  11.792 -0.2965 -0.8902  0.4871
  264MOL0     C35523  -1.138   3.112  11.908 -0.4152  0.0910 -0.1878
  264MOL0     C35524  -1.182   3.203  11.994 -0.1079 -0.5529  0.0524
  264MOL0     C35525  -1.248   3.195  12.136  0.6112  0.7179  0.2140
  264MOL0     C35526  -1.143   3.206  12.245  0.4423  0.5447 -0.6198
  264MOL0     C35527  -1.198   3.206  12.395 -0.4871  0.1960  0.8518
  264MOL0     C35528  -1.068   3.239  12.465  0.4670 -0.3048 -0.8020
  264MOL0     O35529  -1.030   3.385  12.473  0.0896  0.6686 -0.4672
  264MOL0     C35530  -0.895   3.411  12.478  0.7124 -0.5103 -0.2337
  264MOL0     C35531  -0.830   3.446  12.592 -0.0293 -0.3140 -0.0921
  264MOL0     C35532  -0.690   3.482  12.609 -0.2623  0.4239  0.3942
  264MOL0     C35533  -0.633   3.501  12.745  0.3325 -0.7683 -0.0449
  264MOL0     C35534  -0.630   3.499  12.491  0.0776  0.3102 -0.1516
  264MOL0     C35535  -0.495   3.536  12.493  0.5167 -0.2512  0.5824
  264MOL0     O35536  -0.466   3.667  12.527 -0.5887 -0.2099  0.8076
  264MOL0     C35537  -0.329   3.697  12.515  1.5777 -0.0987  0.4119
  264MOL0     C35538  -0.278   3.732  12.382  0.5521 -0.1372 -0.4309
  264MOL0     C35539  -0.145   3.754  12.362 -0.6439 -0.1338 -0.1832
  264MOL0     C35540  -0.061   3.764  12.477  0.1583 -0.5722  0.5105
  264MOL0     O35541   0.074   3.792  12.472  0.1496 -0.7221 -0.3903
  264MOL0     C35542   0.138   3.779  12.344  0.1843 -0.1271 -0.4521
  264MOL0     C35543   0.285   3.818  12.354  0.1232 -0.3268  0.0316
  264MOL0     C35544   0.360   3.807  12.210  0.6409  0.3935 -0.4949
  264MOL0     C35545   0.402   3.948  12.155 -0.5170  0.4896  0.7374
  264MOL0     C35546   0.486   3.938  12.034 -0.0858  0.8352 -0.3745
  264MOL0     C35547   0.396   3.914  11.911 -0.5426 -0.2805  0.6666
  264MOL0     C35548   0.471   3.970  11.791  0.8978  0.3290  0.7274
  264MOL0     C35549   0.605   3.889  11.766  0.1432  0.2026  0.9674
  264MOL0    Cl35550   0.677   3.948  11.614 -0.2867  0.2625  0.3571
  264MOL0     C35551  -0.109   3.727  12.604 -0.0674  0.9527 -0.1172
  264MOL0     C35552  -0.240   3.686  12.621  0.1980  0.2030  0.4095
  264MOL0     O35553  -0.418   3.448  12.446  0.0901 -0.2121  0.1009
  264MOL0     C35554  -0.682   3.464  12.367  0.3949 -0.7564 -1.0889
  264MOL0     C35555  -0.821   3.429  12.367 -0.4103 -0.4846  0.5486
  264MOL0     N35556  -1.153   3.327  11.941  0.2456  0.2738 -0.1756
  264MOL0     N35557  -1.112   3.310  11.819 -0.2394 -0.7290  0.1525
  264MOL0     C35558   0.128   3.368  11.603  0.4278  0.5172 -0.4532
  264MOL0     C35559   0.267   3.359  11.595 -0.7825 -0.9722 -0.7753
  264MOL0     C35560   0.681   3.235  11.497  0.7784 -0.3976  0.4260
  264MOL0     C35561   0.735   3.256  11.631 -0.2915 -0.2060 -0.7921
  264MOL0     C35562   0.878   3.288  11.639  0.4679 -0.0311 -0.5903
  264MOL0     C35563   0.956   3.294  11.525 -0.8147 -0.0908  0.1788
  264MOL0     O35564   1.097   3.293  11.536  0.6380  0.3842 -0.3184
  264MOL0     C35565   1.188   3.364  11.448 -0.2004 -0.2763 -0.0855
  264MOL0     C35566   1.137   3.506  11.405 -0.7241  1.3787  0.0735
  264MOL0     C35567   1.262   3.600  11.367 -0.1857  0.7781 -0.4155
  264MOL0     C35568   1.351   3.544  11.259  1.1044  0.3137 -0.2615
  264MOL0     C35569   1.461   3.464  11.301 -0.0214 -0.4272 -0.6140
  264MOL0     C35570   1.550   3.395  11.350  0.9101  0.4885  0.1879
  264MOL0     C35571   0.898   3.280  11.403 -0.7894 -0.5862 -0.2783
  264MOL0     C35572   0.762   3.255  11.385 -0.8089 -0.1267  0.2856
  264MOL0     H35573   0.297   3.029  11.555  1.5835  0.5926  3.7478
  264MOL0     H35574   0.041   3.055  11.528  4.2564 -0.8664 -1.1610
  264MOL0     H35575  -0.151   3.086  11.549 -3.5364 -1.1273  0.8942
  264MOL0     H35576  -0.179   3.152  11.706  0.9271 -0.5027  0.4649
  264MOL0     H35577  -0.327   3.327  11.616 -1.8547  0.4389 -0.5876
  264MOL0     H35578  -0.341   3.232  11.469  0.1095  0.4934 -0.2820
  264MOL0     H35579  -0.413   3.032  11.589  2.7570  0.9496  0.0521
  264MOL0     H35580  -0.418   3.130  11.748  3.3639 -2.9420  0.7140
  264MOL0     H35581  -0.568   3.285  11.643  2.2529 -0.9164  0.6478
  264MOL0     H35582  -0.584   3.185  11.494 -4.6087  0.7362  0.5347
  264MOL0     H35583  -0.666   2.992  11.635  1.1900  0.4467 -0.4314
  264MOL0     H35584  -0.667   3.106  11.773 -0.5382  5.8000  0.5725
  264MOL0     H35585  -0.826   3.253  11.661 -1.5650 -0.8123  1.3260
  264MOL0     H35586  -0.825   3.181  11.512 -0.4359  1.1257  0.5657
  264MOL0     H35587  -0.905   2.958  11.616  3.3804 -0.0734 -1.2368
  264MOL0     H35588  -0.907   3.035  11.773  0.4717 -0.1405 -0.1539
  264MOL0     H35589  -1.140   3.036  11.645 -2.5724  2.1478 -0.9420
  264MOL0     H35590  -1.086   3.177  11.573 -0.4556 -0.8921  0.2177
  264MOL0     H35591  -1.121   3.007  11.926  3.9677  1.3053  5.8668
  264MOL0     H35592  -1.315   3.281  12.145  1.9850  1.8704 -0.1538
  264MOL0     H35593  -1.296   3.098  12.149 -4.4175  2.7646 -0.8483
  264MOL0     H35594  -1.087   3.297  12.223 -0.6787  0.7225 -3.1084
  264MOL0     H35595  -1.080   3.119  12.224  0.5881  0.3616  0.5278
  264MOL0     H35596  -1.252   3.120  12.436  1.5015 -1.1350  0.7785
  264MOL0     H35597  -1.261   3.294  12.409 -1.9433 -0.3245 -1.7607
  264MOL0     H35598  -0.983   3.183  12.426  2.7650  1.3080  1.5195
  264MOL0     H35599  -1.083   3.208  12.569  2.3679 -1.1775 -0.7418
  264MOL0     H35600  -0.896   3.445  12.679  0.5243  2.3628  0.4538
  264MOL0     H35601  -0.526   3.525  12.749  0.2280 -0.4666  1.4037
  264MOL0     H35602  -0.694   3.576  12.795  1.1824 -1.4831  2.1823
  264MOL0     H35603  -0.629   3.404  12.797 -0.0251 -0.9094 -0.2753
  264MOL0     H35604  -0.346   3.740  12.298  0.3616  3.9070 -0.0804
  264MOL0     H35605  -0.110   3.759  12.259  0.0707  0.9168  0.0927
  264MOL0     H35606   0.138   3.678  12.303  1.5814  0.2899 -1.5533
  264MOL0     H35607   0.086   3.832  12.263 -0.4863 -1.4577 -0.9143
  264MOL0     H35608   0.292   3.925  12.377 -2.0368 -0.0362 -0.4350
  264MOL0     H35609   0.332   3.755  12.430 -0.6732  0.0972  0.8853
  264MOL0     H35610   0.295   3.749  12.144 -0.4313 -0.0909  0.9433
  264MOL0     H35611   0.445   3.749  12.246 -2.2487 -2.0989  3.0285
  264MOL0     H35612   0.308   4.002  12.140  0.0357  1.6284  1.2791
  264MOL0     H35613   0.456   3.993  12.238  0.4937  0.6312  0.0206
  264MOL0     H35614   0.560   3.858  12.036 -1.6281 -0.8428 -3.0977
  264MOL0     H35615   0.543   4.030  12.024  0.1199  1.6085  5.1618
  264MOL0     H35616   0.382   3.807  11.893  1.3533 -0.5744  0.7529
  264MOL0     H35617   0.300   3.958  11.938 -1.4895 -0.0257 -2.6672
  264MOL0     H35618   0.492   4.076  11.806 -1.3345  1.5905 -3.4942
  264MOL0     H35619   0.405   3.963  11.704  2.1127 -2.0040 -0.0861
  264MOL0     H35620   0.590   3.781  11.755  2.2415 -0.1635  1.2475
  264MOL0     H35621   0.670   3.898  11.853  1.9697  0.1393 -0.3183
  264MOL0     H35622  -0.036   3.741  12.683  0.0354 -1.4189  0.2898
  264MOL0     H35623  -0.269   3.659  12.722  0.2308 -1.8978 -0.0850
  264MOL0     H35624  -0.632   3.468  12.270  0.2888  0.0695 -1.1172
  264MOL0     H35625  -0.873   3.406  12.274 -2.7395  1.0719  1.3511
  264MOL0     H35626   0.095   3.469  11.625  0.5391  0.9976 -2.3103
  264MOL0     H35627   0.323   3.441  11.639 -1.4719 -1.1487  0.4703
  264MOL0     H35628   0.686   3.247  11.727  0.4894 -0.7138 -0.4350
  264MOL0     H35629   0.922   3.284  11.738 -1.9292 -1.0125  0.5223
  264MOL0     H35630   1.276   3.378  11.511  0.2705  1.5631 -1.0850
  264MOL0     H35631   1.225   3.298  11.369  0.2363 -0.2881  0.1217
  264MOL0     H35632   1.074   3.556  11.479 -1.2683  2.8032 -1.2926
  264MOL0     H35633   1.080   3.494  11.313  3.0168  0.1748 -2.3278
  264MOL0     H35634   1.325   3.615  11.454 -1.6557 -1.0862  1.0675
  264MOL0     H35635   1.212   3.695  11.346 -0.4144  0.6871 -0.2929
  264MOL0     H35636   1.390   3.625  11.195  3.7807  1.1917  2.2480
  264MOL0     H35637   1.282   3.476  11.209  0.2977 -1.1147  2.6126
  264MOL0     H35638   1.635   3.343  11.388  0.3760 -0.2099  0.4372
  264MOL0     H35639   0.959   3.277  11.313 -3.6466 -0.2683 -2.3638
  264MOL0     H35640   0.718   3.241  11.287  0.4838 -0.6026 -0.2399
  265MOL0     O35641   7.093   5.094  11.105 -0.1729  0.2001  0.2757
  265MOL0     C35642   7.111   5.022  11.203 -0.1552  0.9853  0.4110
  265MOL0     O35643   7.069   4.895  11.215 -0.3807  0.0979  0.0408
  265MOL0     C35644   6.969   4.838  11.128  1.0049  0.4417 -1.1609
  265MOL0     C35645   6.829   4.864  11.135 -0.0750 -0.6746  0.8733
  265MOL0     C35646   6.736   4.794  11.051 -0.2145  0.9729 -0.3937
  265MOL0     C35647   6.784   4.690  10.967 -0.0169 -0.4352  0.4043
  265MOL0     O35648   6.682   4.628  10.899 -0.6752 -0.1007  0.2847
  265MOL0     C35649   6.715   4.502  10.822 -0.1844  0.7426  1.1701
  265MOL0     C35650   6.601   4.447  10.731 -0.1573  0.5439 -0.0680
  265MOL0     C35651   6.571   4.539  10.606  0.6407  0.8839  0.2076
  265MOL0     C35652   6.483   4.656  10.635 -0.9556  0.0994  0.3402
  265MOL0     C35653   6.435   4.723  10.505 -0.2302  0.1498  1.2130
  265MOL0     C35654   6.358   4.850  10.540  0.2084  0.8350  0.0222
  265MOL0     C35655   6.307   4.908  10.409 -0.4950 -0.0830 -0.9753
  265MOL0     C35656   6.271   5.055  10.412  0.5243 -0.1126  0.5747
  265MOL0     N35657   6.231   5.096  10.271 -0.3277  0.2986 -1.0816
  265MOL0     C35658   6.129   5.039  10.190 -0.0538  0.6526  0.4072
  265MOL0     C35659   6.133   5.122  10.078  0.5743  0.7870 -0.3729
  265MOL0     C35660   6.047   5.113   9.955 -0.6565 -0.9328  0.0320
  265MOL0     C35661   5.913   5.190   9.990 -0.0237 -0.0945 -0.2512
  265MOL0     C35662   5.869   5.254   9.866 -0.1600  0.8027  0.0591
  265MOL0     C35663   5.742   5.339   9.878 -0.3032  0.1372  0.6336
  265MOL0     O35664   5.680   5.367   9.753 -1.3728 -0.2590 -0.6103
  265MOL0     C35665   5.555   5.423   9.758  0.3722 -0.4998 -0.0429
  265MOL0     C35666   5.471   5.390   9.651  0.2409  0.4494  0.0603
  265MOL0     C35667   5.344   5.455   9.635 -0.0835 -0.0279  0.2192
  265MOL0     C35668   5.268   5.426   9.511  0.4900  0.3278 -0.8154
  265MOL0     C35669   5.298   5.543   9.743 -0.3582 -0.3468 -0.2124
  265MOL0     C35670   5.158   5.597   9.749 -1.1606 -0.6542 -0.1371
  265MOL0     O35671   5.153   5.721   9.790 -0.3550 -0.2512 -0.3480
  265MOL0     C35672   5.050   5.800   9.772  0.1619  0.2380  0.2809
  265MOL0     C35673   4.941   5.777   9.680  0.0503 -1.0973  0.0445
  265MOL0     C35674   4.849   5.880   9.661  0.5898 -0.0436 -0.3052
  265MOL0     C35675   4.847   5.995   9.735 -0.0630 -0.7151  0.8427
  265MOL0     O35676   4.761   6.101   9.724 -0.9728 -0.5950  0.4299
  265MOL0     C35677   4.657   6.115   9.624 -0.2626  0.4733  0.6885
  265MOL0     C35678   4.563   6.233   9.672  0.6086 -0.1876  0.0387
  265MOL0     C35679   4.425   6.240   9.594  0.1003  0.5281 -0.8013
  265MOL0     C35680   4.422   6.339   9.486 -0.7450 -0.2153 -0.0801
  265MOL0     C35681   4.298   6.356   9.412 -1.0987 -1.0119 -0.0616
  265MOL0     C35682   4.291   6.252   9.301  0.5176  0.6930 -0.1039
  265MOL0     C35683   4.152   6.220   9.269 -0.2640 -0.4261 -0.0792
  265MOL0     C35684   4.148   6.172   9.119 -1.4232 -0.7996 -0.0975
  265MOL0    Cl35685   3.988   6.159   9.044 -0.3170 -0.2734  0.1801
  265MOL0     C35686   4.951   6.011   9.823 -0.4068 -0.6339  0.4161
  265MOL0     C35687   5.050   5.918   9.855  0.4313  0.5932  0.4758
  265MOL0     O35688   5.063   5.515   9.740 -0.0506  0.2051  0.2862
  265MOL0     C35689   5.382   5.568   9.847 -1.1124 -0.2807  0.0251
  265MOL0     C35690   5.518   5.516   9.854  0.1170  0.0901  0.7954
  265MOL0     N35691   6.223   5.221  10.103  0.5734  0.2101  0.2097
  265MOL0     N35692   6.275   5.206  10.215 -0.8311 -0.4941 -0.2222
  265MOL0     C35693   6.924   4.669  10.951 -1.1588  0.8385 -0.3087
  265MOL0     C35694   7.016   4.741  11.028  1.2313  0.2787 -0.8415
  265MOL0     C35695   7.179   5.088  11.326 -0.4351 -0.1693 -0.3431
  265MOL0     C35696   7.260   5.015  11.412  0.5564  0.4811  0.1349
  265MOL0     C35697   7.329   5.079  11.513 -0.7603  0.1318  0.3800
  265MOL0     C35698   7.308   5.207  11.552 -0.1805  0.1255  0.5853
  265MOL0     O35699   7.370   5.272  11.658  0.1978  0.5706  0.0378
  265MOL0     C35700   7.464   5.207  11.743 -0.0360 -0.1204  0.3659
  265MOL0     C35701   7.604   5.217  11.685  0.0729  0.9584 -0.1409
  265MOL0     C35702   7.714   5.158  11.781  0.3461 -0.1565  1.4520
  265MOL0     C35703   7.828   5.268  11.803 -0.0362  0.9183  0.4222
  265MOL0     C35704   7.949   5.197  11.829 -0.4856  0.2559  0.1093
  265MOL0     C35705   8.048   5.132  11.868  0.6628  0.0868 -0.3402
  265MOL0     C35706   7.229   5.283  11.468  0.1029  0.2468 -0.2765
  265MOL0     C35707   7.172   5.230  11.349 -0.1328  0.4171  0.7708
  265MOL0     H35708   6.805   4.941  11.208  1.1156  1.8643 -1.2816
  265MOL0     H35709   6.630   4.815  11.057 -0.1712  1.6990 -1.7998
  265MOL0     H35710   6.796   4.532  10.754  0.3910  1.2569  2.0678
  265MOL0     H35711   6.760   4.423  10.883  0.1838 -1.0410 -1.2508
  265MOL0     H35712   6.627   4.348  10.694 -1.3892 -1.1028  3.1239
  265MOL0     H35713   6.510   4.441  10.792  0.5303  3.7348  1.4987
  265MOL0     H35714   6.670   4.566  10.566  1.3343  1.3689  2.1463
  265MOL0     H35715   6.520   4.483  10.527  0.7991  1.4067 -0.2794
  265MOL0     H35716   6.397   4.627  10.694 -2.0693  1.0770 -0.7448
  265MOL0     H35717   6.549   4.728  10.684  0.3411  1.1986 -2.7436
  265MOL0     H35718   6.518   4.756  10.441 -1.6679  2.3531  0.3595
  265MOL0     H35719   6.373   4.655  10.447  1.9491  0.4954 -1.8150
  265MOL0     H35720   6.267   4.819  10.593 -0.8291  1.1610 -1.5164
  265MOL0     H35721   6.410   4.915  10.612  1.1627  0.2550 -0.1211
  265MOL0     H35722   6.383   4.915  10.331 -0.5981  2.7499 -0.9232
  265MOL0     H35723   6.224   4.851  10.367  0.4732 -1.7614 -0.7256
  265MOL0     H35724   6.347   5.115  10.461  0.5514 -0.6202  1.1708
  265MOL0     H35725   6.187   5.062  10.481 -0.3027 -2.2429 -0.1069
  265MOL0     H35726   6.076   4.951  10.225  3.9209 -1.5101  1.5525
  265MOL0     H35727   6.103   5.164   9.876  1.1581 -0.6050  1.4711
  265MOL0     H35728   6.024   5.009   9.931  2.9084 -2.2105  1.4989
  265MOL0     H35729   5.935   5.272  10.059  0.0549 -0.2038 -0.1439
  265MOL0     H35730   5.839   5.124  10.035  0.9465 -0.8418  0.2973
  265MOL0     H35731   5.868   5.189   9.778  0.5096  1.7897 -0.7004
  265MOL0     H35732   5.949   5.323   9.838  0.5718  0.1596  0.5092
  265MOL0     H35733   5.776   5.436   9.917  1.0906  0.9205 -2.2478
  265MOL0     H35734   5.661   5.297   9.939 -0.8142 -2.2427 -1.5251
  265MOL0     H35735   5.505   5.336   9.564  1.9647  1.4894  0.0437
  265MOL0     H35736   5.240   5.321   9.510 -1.5137  0.7301  1.4549
  265MOL0     H35737   5.171   5.478   9.517 -0.2082 -1.0251  0.0673
  265MOL0     H35738   5.321   5.464   9.423 -1.5577  1.7261 -1.5235
  265MOL0     H35739   4.937   5.687   9.620 -2.2946 -2.7522  2.4963
  265MOL0     H35740   4.777   5.863   9.581 -0.9460 -2.3246  1.4208
  265MOL0     H35741   4.708   6.143   9.531  0.3103  0.1662  0.9037
  265MOL0     H35742   4.589   6.030   9.611  1.5267 -0.9285 -0.0092
  265MOL0     H35743   4.548   6.220   9.780 -1.5156 -4.7761 -0.5537
  265MOL0     H35744   4.615   6.327   9.654 -0.4319  0.8915  2.2746
  265MOL0     H35745   4.357   6.276   9.672 -0.3412  0.5690 -1.2026
  265MOL0     H35746   4.391   6.145   9.552 -4.7700  0.9295  1.4619
  265MOL0     H35747   4.442   6.437   9.529  0.9616 -1.5898  2.5180
  265MOL0     H35748   4.498   6.325   9.409 -0.2748 -0.2693  0.3885
  265MOL0     H35749   4.283   6.460   9.382  0.7825 -0.0982  1.9171
  265MOL0     H35750   4.223   6.330   9.488 -2.6744 -5.7332 -2.8304
  265MOL0     H35751   4.345   6.297   9.217  2.0524  1.8182  1.4134
  265MOL0     H35752   4.338   6.159   9.334  3.4902  2.2045  0.2211
  265MOL0     H35753   4.084   6.305   9.281  1.3568  0.7094  1.6695
  265MOL0     H35754   4.116   6.135   9.327  0.4735 -0.0423  0.9786
  265MOL0     H35755   4.189   6.071   9.119 -1.4870 -0.8307 -0.8018
  265MOL0     H35756   4.215   6.235   9.059 -3.0384  2.1252  0.9684
  265MOL0     H35757   4.961   6.111   9.865 -0.1292  1.2572 -3.6502
  265MOL0     H35758   5.123   5.945   9.930 -0.0904 -1.2134  1.6819
  265MOL0     H35759   5.352   5.636   9.926  1.1083  3.3048 -1.9582
  265MOL0     H35760   5.581   5.555   9.934  2.1328 -1.1947 -0.0941
  265MOL0     H35761   6.964   4.588  10.891 -0.1193 -0.0221  1.4516
  265MOL0     H35762   7.122   4.720  11.023  0.8215 -2.0422 -0.9932
  265MOL0     H35763   7.266   4.906  11.407 -0.5889  0.4731 -1.4630
  265MOL0     H35764   7.408   5.024  11.563 -0.3748  1.0215  0.7696
  265MOL0     H35765   7.469   5.263  11.836 -0.5242  0.6908 -0.0795
  265MOL0     H35766   7.440   5.105  11.775  0.2662  0.9847  4.6604
  265MOL0     H35767   7.619   5.323  11.665 -0.3158  0.9326 -0.5902
  265MOL0     H35768   7.611   5.170  11.587  1.9066  3.9712 -1.5976
  265MOL0     H35769   7.759   5.077  11.723  1.2856  2.6898 -2.1161
  265MOL0     H35770   7.686   5.106  11.874  0.4258 -2.2589  0.3668
  265MOL0     H35771   7.796   5.329  11.888  1.0074  3.5635 -0.9390
  265MOL0     H35772   7.838   5.333  11.715 -1.9767  2.6107  1.3707
  265MOL0     H35773   8.143   5.092  11.899 -0.3890 -1.2316  1.3333
  265MOL0     H35774   7.226   5.388  11.496  1.5003 -0.4421  2.9579
  265MOL0     H35775   7.121   5.301  11.285  1.8088  0.4872 -0.8076
  266MOL0     O35776   9.818   7.446   8.341  0.6642 -0.9133 -0.6137
  266MOL0     C35777   9.812   7.540   8.263 -0.7494 -0.3276  0.8517
  266MOL0     O35778   9.714   7.627   8.253  0.8413 -0.7402  0.0450
  266MOL0     C35779   9.619   7.657   8.346  0.4242 -1.3060  0.3737
  266MOL0     C35780   9.644   7.656   8.480  0.6712  0.3047  0.5597
  266MOL0     C35781   9.552   7.697   8.575  0.1900  0.4264  0.3293
  266MOL0     C35782   9.426   7.752   8.532 -0.1670  0.1014  1.0283
  266MOL0     O35783   9.340   7.801   8.624 -0.0932 -0.2359  1.1752
  266MOL0     C35784   9.288   7.699   8.706  0.0782  0.3204 -0.0851
  266MOL0     C35785   9.198   7.748   8.816 -0.5136 -0.2197  0.0888
  266MOL0     C35786   9.280   7.821   8.917  0.4602 -0.4676  0.3368
  266MOL0     C35787   9.207   7.828   9.050 -1.4290 -0.1519  0.0358
  266MOL0     C35788   9.297   7.883   9.162 -0.7010 -0.0150 -0.2156
  266MOL0     C35789   9.305   8.039   9.160 -0.0447 -0.3488 -1.0313
  266MOL0     C35790   9.399   8.090   9.277 -0.2532 -0.3022  0.5921
  266MOL0     C35791   9.449   8.232   9.251 -0.4221 -0.9830  0.3554
  266MOL0     N35792   9.332   8.321   9.266 -0.1796 -0.3482  0.6012
  266MOL0     C35793   9.244   8.337   9.167 -0.8543  0.2697 -0.8370
  266MOL0     C35794   9.181   8.450   9.196 -0.5711 -0.1445 -0.0833
  266MOL0     C35795   9.072   8.506   9.123  0.3982 -0.1010  0.5106
  266MOL0     C35796   9.099   8.562   8.980 -0.6847 -0.4088  0.5228
  266MOL0     C35797   8.964   8.600   8.915  0.2838  0.2511 -0.4686
  266MOL0     C35798   8.945   8.744   8.866  0.0135 -0.8939 -0.4995
  266MOL0     O35799   8.807   8.750   8.811  0.3618 -0.9552 -0.7016
  266MOL0     C35800   8.792   8.730   8.676 -0.3833 -0.6305 -0.4040
  266MOL0     C35801   8.861   8.791   8.575 -1.5930 -0.4602 -0.4953
  266MOL0     C35802   8.851   8.747   8.445 -0.9092  0.1205 -0.0496
  266MOL0     C35803   8.925   8.828   8.336  0.6299  0.5708  0.4573
  266MOL0     C35804   8.782   8.627   8.425  0.2194  0.0293 -0.0014
  266MOL0     C35805   8.777   8.567   8.287  0.1345 -0.3344  0.0425
  266MOL0     O35806   8.650   8.544   8.233  0.1287 -0.1017 -0.9349
  266MOL0     C35807   8.640   8.490   8.110 -0.2125 -0.6799 -0.1562
  266MOL0     C35808   8.649   8.584   8.003  0.7585  0.5544 -0.2473
  266MOL0     C35809   8.649   8.534   7.874  0.8435  0.8151  0.2697
  266MOL0     C35810   8.630   8.397   7.849  0.5864 -1.8094 -0.1930
  266MOL0     O35811   8.609   8.344   7.723 -0.3242  0.5635 -0.6232
  266MOL0     C35812   8.470   8.346   7.685 -0.1626 -0.2598  0.3375
  266MOL0     C35813   8.460   8.308   7.532  0.8585  0.0299  0.0832
  266MOL0     C35814   8.299   8.279   7.511 -0.2996 -0.9536 -0.9834
  266MOL0     C35815   8.265   8.293   7.363 -0.6684  0.3137 -0.3355
  266MOL0     C35816   8.118   8.261   7.315 -0.6557 -0.9207  0.2096
  266MOL0     C35817   8.111   8.210   7.176  0.5257 -0.3695 -0.1018
  266MOL0     C35818   8.208   8.270   7.074 -0.0762  0.0149  0.2321
  266MOL0     C35819   8.146   8.231   6.940  0.3533  0.8551  1.0618
  266MOL0    Cl35820   8.133   8.062   6.892  0.0658 -0.5378  0.0341
  266MOL0     C35821   8.623   8.304   7.953 -0.2439  0.2534 -0.6177
  266MOL0     C35822   8.629   8.355   8.085 -0.2827  0.2091 -0.2151
  266MOL0     O35823   8.879   8.571   8.215  0.5377  0.1944  0.2053
  266MOL0     C35824   8.703   8.576   8.523  0.7908  0.3134 -0.4111
  266MOL0     C35825   8.709   8.631   8.652 -0.2522  0.3032  0.5936
  266MOL0     N35826   9.221   8.491   9.324 -0.2881  0.8245 -0.4374
  266MOL0     N35827   9.306   8.403   9.373 -0.2281  0.8412  1.3956
  266MOL0     C35828   9.399   7.762   8.395 -0.2457  0.7892 -0.2378
  266MOL0     C35829   9.495   7.720   8.300  1.1792  0.9954 -0.3548
  266MOL0     C35830   9.911   7.561   8.148  1.1466 -0.0289  0.3160
  266MOL0     C35831   9.876   7.636   8.033  0.0725  0.0357  0.4377
  266MOL0     C35832   9.975   7.680   7.939 -0.2758 -0.2341 -0.0149
  266MOL0     C35833  10.110   7.632   7.954 -0.6731  0.5158 -0.7142
  266MOL0     O35834  10.223   7.644   7.875  1.2170  0.3399 -0.0326
  266MOL0     C35835  10.207   7.722   7.752  0.4346 -0.3894 -0.3318
  266MOL0     C35836  10.259   7.863   7.770  0.2546  0.5389 -0.0232
  266MOL0     C35837  10.370   7.884   7.877  0.4697 -0.9497  0.0590
  266MOL0     C35838  10.433   8.018   7.865  0.2986 -0.8594 -0.1542
  266MOL0     C35839  10.526   8.013   7.978 -0.2374  0.2753  0.1073
  266MOL0     C35840  10.606   8.013   8.070 -0.2232 -0.7079  0.0229
  266MOL0     C35841  10.139   7.548   8.060  0.4219  0.0836  0.3389
  266MOL0     C35842  10.041   7.509   8.156 -0.3529  0.3530 -0.2864
  266MOL0     H35843   9.743   7.633   8.519 -0.0748 -0.5267  2.0571
  266MOL0     H35844   9.594   7.704   8.675  4.4133  0.8605 -1.2479
  266MOL0     H35845   9.234   7.624   8.647  0.2506  0.0879  0.0516
  266MOL0     H35846   9.376   7.654   8.751 -1.6699  0.2857  3.6969
  266MOL0     H35847   9.123   7.814   8.772  1.6428  1.3120 -1.5109
  266MOL0     H35848   9.151   7.668   8.874  1.2872 -1.2214  0.2471
  266MOL0     H35849   9.374   7.767   8.930  1.8383  1.5501 -0.7142
  266MOL0     H35850   9.311   7.916   8.873 -1.2625 -1.7450 -4.2475
  266MOL0     H35851   9.111   7.880   9.050 -1.3632  0.0037  1.5528
  266MOL0     H35852   9.181   7.725   9.075 -0.1025 -0.5276 -0.0361
  266MOL0     H35853   9.252   7.854   9.258  0.1331 -0.5199  0.0263
  266MOL0     H35854   9.395   7.836   9.150  0.6380  2.7940 -1.1257
  266MOL0     H35855   9.348   8.077   9.066 -3.4708  2.0550 -1.8411
  266MOL0     H35856   9.211   8.095   9.156  1.4830  2.4968 -0.2227
  266MOL0     H35857   9.366   8.067   9.379  0.0458 -0.1160  0.7360
  266MOL0     H35858   9.492   8.031   9.280 -0.9211 -1.3838  3.5318
  266MOL0     H35859   9.508   8.239   9.160  0.2511  4.7062  0.8263
  266MOL0     H35860   9.511   8.255   9.338 -3.6086 -2.4407  3.2452
  266MOL0     H35861   9.242   8.282   9.074 -1.4159  1.8415 -1.7846
  266MOL0     H35862   8.995   8.428   9.131  1.4631 -1.3776 -1.0237
  266MOL0     H35863   9.031   8.595   9.173  1.6156  0.9148 -0.2423
  266MOL0     H35864   9.142   8.482   8.919 -3.4844 -1.0427 -0.7725
  266MOL0     H35865   9.168   8.647   8.980 -2.5335  1.1601  0.4087
  266MOL0     H35866   8.876   8.580   8.977  0.5311  0.2014 -0.1337
  266MOL0     H35867   8.953   8.541   8.823  0.1349  0.4004 -0.5488
  266MOL0     H35868   9.020   8.767   8.791  0.2709 -2.1894 -0.6537
  266MOL0     H35869   8.947   8.811   8.953 -0.9879  0.3193 -1.3739
  266MOL0     H35870   8.937   8.862   8.606 -1.2908 -1.6030  1.6377
  266MOL0     H35871   8.884   8.809   8.236 -3.7544 -1.1195  2.3529
  266MOL0     H35872   8.929   8.936   8.351 -0.6361  1.0588 -2.1109
  266MOL0     H35873   9.031   8.801   8.322  0.3294 -1.1656  1.3442
  266MOL0     H35874   8.652   8.692   8.012 -3.3433  0.8035 -0.1450
  266MOL0     H35875   8.655   8.594   7.784 -2.3205 -2.6829 -2.6196
  266MOL0     H35876   8.409   8.285   7.753 -1.1512 -0.6706 -0.8641
  266MOL0     H35877   8.424   8.444   7.699 -1.7127 -0.7644 -0.8857
  266MOL0     H35878   8.511   8.379   7.467  2.9664  0.5639  2.1496
  266MOL0     H35879   8.518   8.217   7.511  0.3686 -0.4094  0.5908
  266MOL0     H35880   8.245   8.351   7.574  4.3277  0.7049  1.6149
  266MOL0     H35881   8.281   8.175   7.542  0.5822 -1.2883 -1.5772
  266MOL0     H35882   8.276   8.394   7.322 -5.2836  1.0812 -0.2310
  266MOL0     H35883   8.328   8.218   7.315  1.5775  0.9513  1.4415
  266MOL0     H35884   8.081   8.363   7.326  3.9541  1.1241 -1.0877
  266MOL0     H35885   8.076   8.190   7.388  1.4447  0.5004  2.9800
  266MOL0     H35886   8.143   8.106   7.184 -1.5344 -1.1771 -1.6288
  266MOL0     H35887   8.004   8.219   7.153  0.0319 -1.4929  1.5531
  266MOL0     H35888   8.306   8.223   7.088 -0.1771 -1.1876 -2.4480
  266MOL0     H35889   8.212   8.379   7.076  1.0035  0.0017 -0.2077
  266MOL0     H35890   8.192   8.278   6.853 -0.3185  3.1053  1.8582
  266MOL0     H35891   8.042   8.264   6.939 -0.3924 -1.1839 -2.0235
  266MOL0     H35892   8.629   8.198   7.933 -1.5490  0.2701 -1.1951
  266MOL0     H35893   8.615   8.301   8.179  0.1103  1.8898  0.8487
  266MOL0     H35894   8.645   8.489   8.492  0.8103  0.4745 -0.9176
  266MOL0     H35895   8.673   8.562   8.728  1.0572 -2.6807 -1.3502
  266MOL0     H35896   9.298   7.792   8.369  0.7778  4.8839 -0.2618
  266MOL0     H35897   9.464   7.714   8.196  0.6206 -0.8366 -0.1187
  266MOL0     H35898   9.782   7.688   8.021  1.4735  2.1422 -2.6676
  266MOL0     H35899   9.959   7.743   7.852  0.4200  0.8252  0.6017
  266MOL0     H35900  10.267   7.685   7.669 -1.7640 -1.6633 -1.4549
  266MOL0     H35901  10.100   7.721   7.729 -0.6770 -1.7226  3.9790
  266MOL0     H35902  10.172   7.922   7.800 -2.0824 -3.5180  2.0797
  266MOL0     H35903  10.293   7.903   7.674 -1.4191 -0.5868 -1.1368
  266MOL0     H35904  10.447   7.807   7.876 -0.0040 -1.4287 -0.3719
  266MOL0     H35905  10.313   7.894   7.970 -0.7188 -0.4194 -0.7040
  266MOL0     H35906  10.368   8.105   7.856 -1.8385 -1.9423  3.0565
  266MOL0     H35907  10.506   8.020   7.783  0.6257  2.1556  0.0961
  266MOL0     H35908  10.679   8.007   8.148 -0.5195  0.0794  0.3730
  266MOL0     H35909  10.233   7.495   8.067  1.2032  0.8954 -2.5912
  266MOL0     H35910  10.076   7.450   8.240 -1.3906  0.8978  0.5540
  267MOL0     O35911   5.653   6.654   2.256  0.7651 -0.1757 -0.0496
  267MOL0     C35912   5.634   6.735   2.347 -0.5276  0.0598 -0.9118
  267MOL0     O35913   5.520   6.791   2.383  0.4987 -0.3127  0.3234
  267MOL0     C35914   5.398   6.742   2.342 -0.2921  0.1565 -0.8740
  267MOL0     C35915   5.360   6.755   2.209 -0.1137  0.0307 -0.0217
  267MOL0     C35916   5.240   6.701   2.160  0.0184  0.9878  0.2743
  267MOL0     C35917   5.154   6.645   2.250  0.0285 -0.3332 -0.0137
  267MOL0     O35918   5.035   6.588   2.206 -0.2982  0.6398  0.1185
  267MOL0     C35919   4.931   6.693   2.200 -0.2250 -0.4171 -0.2377
  267MOL0     C35920   4.803   6.634   2.252  0.2553  0.5131  0.2476
  267MOL0     C35921   4.756   6.510   2.167 -0.0955  0.0251  1.0635
  267MOL0     C35922   4.626   6.447   2.226 -0.9539 -0.4969  0.2424
  267MOL0     C35923   4.499   6.533   2.230 -0.1653 -0.1566 -0.1402
  267MOL0     C35924   4.372   6.457   2.275 -0.9583  0.3013 -0.1461
  267MOL0     C35925   4.235   6.521   2.276 -0.0711  0.2329  0.1667
  267MOL0     C35926   4.214   6.634   2.387  0.2079 -0.3242  0.3839
  267MOL0     N35927   4.079   6.621   2.446 -0.3897  0.4243 -0.4001
  267MOL0     C35928   3.961   6.635   2.383  0.0365 -0.7570  0.1863
  267MOL0     C35929   3.870   6.574   2.466 -0.2377 -0.4066  0.9191
  267MOL0     C35930   3.724   6.579   2.432  0.3061  1.2657  0.1790
  267MOL0     C35931   3.698   6.503   2.305  1.1012  0.2589  0.1922
  267MOL0     C35932   3.685   6.349   2.318 -0.1213 -0.3917  0.2461
  267MOL0     C35933   3.642   6.285   2.453 -0.0060 -0.4239  0.3262
  267MOL0     O35934   3.653   6.146   2.438 -0.1084  0.6450  0.3780
  267MOL0     C35935   3.605   6.085   2.543  0.7219  0.1676 -0.6278
  267MOL0     C35936   3.470   6.083   2.574  1.3839  0.7751  0.5712
  267MOL0     C35937   3.413   5.996   2.671 -0.0146 -0.6279 -0.0195
  267MOL0     C35938   3.274   6.002   2.704  0.5655 -0.6241  0.0655
  267MOL0     C35939   3.501   5.907   2.733 -0.4381  0.7583 -0.5840
  267MOL0     C35940   3.470   5.812   2.849 -0.6649  0.1496 -1.0399
  267MOL0     O35941   3.549   5.692   2.858  0.2977  0.6457  0.1602
  267MOL0     C35942   3.546   5.612   2.970  0.0650  0.1569 -0.4137
  267MOL0     C35943   3.541   5.653   3.106  1.1502  0.2601  0.0493
  267MOL0     C35944   3.556   5.569   3.214 -0.3498  0.2821  0.6157
  267MOL0     C35945   3.577   5.429   3.190 -0.2808 -1.2269  0.1537
  267MOL0     O35946   3.594   5.347   3.293 -0.7861  0.4545  0.5739
  267MOL0     C35947   3.555   5.214   3.274  0.1721  0.0637  0.0614
  267MOL0     C35948   3.574   5.131   3.400  0.1096 -0.4340 -0.3010
  267MOL0     C35949   3.709   5.129   3.470 -0.3180  0.0906  0.7106
  267MOL0     C35950   3.702   5.043   3.592  0.4398  0.1680  0.1873
  267MOL0     C35951   3.842   5.049   3.668  0.2059 -0.2553 -0.2471
  267MOL0     C35952   3.936   4.956   3.607  1.0077 -0.3460 -0.0388
  267MOL0     C35953   4.075   4.957   3.684  0.4019 -0.0975  0.9897
  267MOL0     C35954   4.085   4.862   3.803  0.9161  0.8139 -0.0822
  267MOL0    Cl35955   4.070   4.688   3.755  0.0760 -0.5886 -0.4185
  267MOL0     C35956   3.579   5.382   3.052  0.2644 -0.2696 -0.0700
  267MOL0     C35957   3.566   5.473   2.942  0.0188 -0.5404  0.1285
  267MOL0     O35958   3.396   5.850   2.938  0.4364  0.5842  0.0052
  267MOL0     C35959   3.638   5.898   2.691  0.3353  0.4653  0.0405
  267MOL0     C35960   3.686   5.982   2.595 -0.3591 -0.0855 -0.1313
  267MOL0     N35961   3.930   6.512   2.569 -0.8818 -0.3012  0.2682
  267MOL0     N35962   4.059   6.542   2.560 -0.2130 -0.2185 -0.1475
  267MOL0     C35963   5.191   6.639   2.395  1.2903  0.9100  0.7481
  267MOL0     C35964   5.309   6.683   2.434 -0.6685 -1.3873  0.4510
  267MOL0     C35965   5.766   6.785   2.405 -0.2575 -0.6576  0.2569
  267MOL0     C35966   5.779   6.893   2.494  0.1360 -0.7252  0.3879
  267MOL0     C35967   5.904   6.949   2.521  0.0674  1.0462  0.1505
  267MOL0     C35968   6.017   6.886   2.479 -0.7414  0.2572  0.6147
  267MOL0     O35969   6.139   6.938   2.508 -0.0888  0.2474 -1.1944
  267MOL0     C35970   6.180   6.921   2.646  0.2160  0.1117  0.1258
  267MOL0     C35971   6.341   6.902   2.639  0.6313  0.6911 -0.5827
  267MOL0     C35972   6.413   7.036   2.624  0.3664  0.4597 -0.3150
  267MOL0     C35973   6.556   7.033   2.561  0.5512 -0.4192  0.3962
  267MOL0     C35974   6.666   6.981   2.648  0.2763  0.4088 -0.5124
  267MOL0     C35975   6.769   6.964   2.706 -0.8884 -0.1300  0.7559
  267MOL0     C35976   6.007   6.760   2.408 -0.1185 -1.0358  0.1245
  267MOL0     C35977   5.881   6.723   2.369  0.2167  0.4587  0.5985
  267MOL0     H35978   5.423   6.816   2.146  0.7958 -0.6589  0.2008
  267MOL0     H35979   5.209   6.711   2.056  0.4272 -1.6742 -0.1591
  267MOL0     H35980   4.957   6.778   2.263  2.1818 -1.2537  0.0094
  267MOL0     H35981   4.927   6.740   2.101 -2.5288 -0.6370 -0.3163
  267MOL0     H35982   4.801   6.596   2.354  1.3435  2.5382  1.0833
  267MOL0     H35983   4.728   6.714   2.258 -0.2970  0.0406 -0.1607
  267MOL0     H35984   4.735   6.546   2.066  2.7619  0.1293  0.4285
  267MOL0     H35985   4.846   6.449   2.156 -0.6808 -0.4760 -1.8210
  267MOL0     H35986   4.611   6.349   2.178 -2.3736 -0.0266 -0.3147
  267MOL0     H35987   4.645   6.431   2.333 -0.4166  3.3712  0.8610
  267MOL0     H35988   4.518   6.615   2.300  4.7650  2.3850 -3.7887
  267MOL0     H35989   4.480   6.590   2.138 -0.0065 -1.3628 -0.9442
  267MOL0     H35990   4.359   6.368   2.212 -0.0260  0.3170 -0.3801
  267MOL0     H35991   4.395   6.426   2.378  0.2222  0.9239 -0.2047
  267MOL0     H35992   4.203   6.537   2.172 -0.9296 -0.2544  0.3436
  267MOL0     H35993   4.171   6.436   2.302  1.6971 -1.3762 -0.5309
  267MOL0     H35994   4.220   6.734   2.343  0.3106  0.4507  2.0727
  267MOL0     H35995   4.292   6.613   2.462  2.2010 -0.2606 -1.5607
  267MOL0     H35996   3.955   6.699   2.295  4.4510  2.2984  1.7576
  267MOL0     H35997   3.658   6.536   2.508  0.1366 -0.1582 -0.7462
  267MOL0     H35998   3.688   6.681   2.414 -0.5200  1.0932  0.7959
  267MOL0     H35999   3.758   6.522   2.215 -5.2032 -2.1813 -5.4050
  267MOL0     H36000   3.602   6.535   2.262  1.9117  1.9582 -0.4621
  267MOL0     H36001   3.780   6.305   2.288 -1.0905 -1.9165 -0.6714
  267MOL0     H36002   3.613   6.320   2.241  1.5047 -0.5028 -1.2751
  267MOL0     H36003   3.542   6.317   2.485  0.8651  2.3324  0.5232
  267MOL0     H36004   3.715   6.317   2.528  0.7234  4.2727 -1.9650
  267MOL0     H36005   3.396   6.149   2.530  0.4746  1.3233  2.7817
  267MOL0     H36006   3.215   6.057   2.630  3.1104  1.0676 -0.8378
  267MOL0     H36007   3.249   5.898   2.728  0.6587 -0.4213  1.0604
  267MOL0     H36008   3.263   6.059   2.796  0.2312  0.6344 -0.7391
  267MOL0     H36009   3.527   5.755   3.140 -1.6268 -0.8362  2.7344
  267MOL0     H36010   3.560   5.595   3.319 -0.0246 -1.7943  1.1612
  267MOL0     H36011   3.456   5.195   3.232  0.3538 -1.1183  0.1253
  267MOL0     H36012   3.626   5.170   3.203  1.4975  1.6514  0.3708
  267MOL0     H36013   3.499   5.174   3.468 -0.2293  0.2730 -1.1027
  267MOL0     H36014   3.543   5.030   3.372  0.0764 -0.2434 -0.9477
  267MOL0     H36015   3.745   5.231   3.485 -0.3572  0.0569  1.0565
  267MOL0     H36016   3.783   5.108   3.392 -1.9818  5.4189 -2.8221
  267MOL0     H36017   3.631   5.068   3.671  1.9732  0.4850  1.5228
  267MOL0     H36018   3.671   4.943   3.561  0.1368 -0.1527  1.4804
  267MOL0     H36019   3.831   5.034   3.776  2.6187  1.5242  0.3351
  267MOL0     H36020   3.882   5.150   3.656  1.8516 -0.0428  4.6077
  267MOL0     H36021   3.885   4.860   3.601 -0.7595  0.5237  0.1518
  267MOL0     H36022   3.944   4.997   3.506  1.6498  1.9568  0.8845
  267MOL0     H36023   4.107   5.053   3.723 -0.1043 -0.4383  2.2861
  267MOL0     H36024   4.151   4.931   3.610 -1.4201 -1.7794 -0.4090
  267MOL0     H36025   3.993   4.882   3.858  0.7244  0.9388 -0.4462
  267MOL0     H36026   4.175   4.880   3.862  1.9082 -2.2294 -0.4980
  267MOL0     H36027   3.604   5.286   3.008  0.2715 -0.3891  0.1927
  267MOL0     H36028   3.571   5.445   2.837 -0.8646 -2.5683  0.5870
  267MOL0     H36029   3.703   5.817   2.723 -0.2328  0.8664  2.3393
  267MOL0     H36030   3.790   5.967   2.570 -0.5159 -2.1855  0.2790
  267MOL0     H36031   5.132   6.582   2.466  0.1530 -1.4844 -1.9342
  267MOL0     H36032   5.338   6.653   2.534 -1.0557 -2.0527  0.3746
  267MOL0     H36033   5.690   6.934   2.540  0.5249 -1.1619  1.5666
  267MOL0     H36034   5.917   7.016   2.605  2.2458 -0.2177  0.9114
  267MOL0     H36035   6.165   7.012   2.706 -0.0761 -0.7556  1.4128
  267MOL0     H36036   6.140   6.837   2.704 -1.7103  0.0066 -1.2859
  267MOL0     H36037   6.363   6.835   2.556  1.3684  0.3129 -0.0895
  267MOL0     H36038   6.371   6.846   2.727 -0.0295 -0.7347 -1.2206
  267MOL0     H36039   6.407   7.076   2.726 -5.4383 -2.6282  0.9744
  267MOL0     H36040   6.353   7.097   2.556  1.5312 -0.9007 -2.6879
  267MOL0     H36041   6.575   7.136   2.527  0.5506 -0.6512 -0.3385
  267MOL0     H36042   6.557   6.971   2.471  2.8465 -1.9016  1.3541
  267MOL0     H36043   6.864   6.948   2.754 -0.3341 -0.8731 -0.5365
  267MOL0     H36044   6.093   6.698   2.382  1.2584 -0.7273  3.5025
  267MOL0     H36045   5.866   6.632   2.311 -1.5439  2.1492 -1.7650
  268MOL0     O36046   8.030   0.505   2.476  0.4948 -0.3424  0.0498
  268MOL0     C36047   8.000   0.620   2.444  0.5130  0.0588 -0.5228
  268MOL0     O36048   7.875   0.662   2.395  0.1562 -0.2359  0.0770
  268MOL0     C36049   7.774   0.578   2.376  0.6743  0.5912  0.1397
  268MOL0     C36050   7.794   0.470   2.289  0.0131  0.2297 -0.2433
  268MOL0     C36051   7.688   0.411   2.234  0.7011 -0.1889  0.0838
  268MOL0     C36052   7.556   0.439   2.273  0.2572 -0.1026  0.1947
  268MOL0     O36053   7.461   0.372   2.204 -0.0553 -0.3800 -0.6015
  268MOL0     C36054   7.323   0.407   2.222 -0.3134  1.0407  0.8216
  268MOL0     C36055   7.280   0.340   2.352 -0.1543 -0.3813  0.3995
  268MOL0     C36056   7.121   0.367   2.360 -0.5917 -0.4213 -0.5251
  268MOL0     C36057   7.047   0.289   2.460  1.0585  0.1833 -0.2483
  268MOL0     C36058   7.127   0.255   2.590  0.4691  0.6437 -0.7816
  268MOL0     C36059   7.049   0.148   2.682  0.2551 -1.2080  1.2808
  268MOL0     C36060   7.128   0.137   2.809  0.1957 -1.0049  0.6101
  268MOL0     C36061   7.075   0.016   2.894  0.1590 -0.0928 -0.4463
  268MOL0     N36062   7.179  -0.048   2.980  0.2436  0.3409  0.7832
  268MOL0     C36063   7.302  -0.094   2.940  0.2606  0.1411 -1.1400
  268MOL0     C36064   7.368  -0.147   3.043 -0.5200 -0.8677 -0.2657
  268MOL0     C36065   7.504  -0.208   3.048  0.1951 -0.6700 -0.0434
  268MOL0     C36066   7.491  -0.356   2.993 -0.5514 -0.3238 -0.2628
  268MOL0     C36067   7.427  -0.443   3.098  0.5304  1.0509 -0.0182
  268MOL0     C36068   7.404  -0.583   3.071 -0.6532  0.2129  0.5062
  268MOL0     O36069   7.521  -0.647   3.111 -0.1690 -0.5541 -0.1952
  268MOL0     C36070   7.535  -0.785   3.108  0.5274  0.7100  0.2087
  268MOL0     C36071   7.435  -0.862   3.037 -0.4039  0.0932 -0.2747
  268MOL0     C36072   7.442  -1.000   3.040 -0.6892  0.2477 -0.0061
  268MOL0     C36073   7.343  -1.064   2.952 -0.0436 -0.7491  0.4075
  268MOL0     C36074   7.553  -1.072   3.115  0.1396 -0.0621 -0.5083
  268MOL0     C36075   7.563  -1.220   3.124 -0.6779  0.2975 -0.3309
  268MOL0     O36076   7.656  -1.266   3.213 -0.1114 -0.1420 -0.4576
  268MOL0     C36077   7.655  -1.401   3.228 -0.0343 -0.2259 -1.4128
  268MOL0     C36078   7.553  -1.460   3.300  0.0238 -0.1165 -0.9461
  268MOL0     C36079   7.565  -1.599   3.325 -0.1064 -0.5497  0.0844
  268MOL0     C36080   7.671  -1.677   3.282  0.7702 -0.6089  0.6205
  268MOL0     O36081   7.658  -1.813   3.314 -0.0176  0.4332 -0.0690
  268MOL0     C36082   7.764  -1.910   3.292  0.5155  0.0520  0.1710
  268MOL0     C36083   7.727  -2.045   3.353 -0.2606 -0.7122  0.0407
  268MOL0     C36084   7.844  -2.141   3.327 -0.0416  0.0163  0.8933
  268MOL0     C36085   7.822  -2.276   3.398 -0.7501 -0.3250  0.4514
  268MOL0     C36086   7.931  -2.381   3.365  0.6671 -0.0541  0.0142
  268MOL0     C36087   7.908  -2.486   3.478  0.2320 -0.6643 -0.2713
  268MOL0     C36088   7.986  -2.616   3.442 -0.1796 -0.3950 -0.6222
  268MOL0     C36089   7.964  -2.731   3.537  0.4786 -0.0729 -0.7272
  268MOL0    Cl36090   7.793  -2.762   3.557 -0.3370 -0.2402 -0.0642
  268MOL0     C36091   7.774  -1.616   3.207 -1.2097 -0.8815 -0.2268
  268MOL0     C36092   7.763  -1.474   3.188 -0.1855  0.6641  0.3774
  268MOL0     O36093   7.485  -1.296   3.056 -0.0633 -0.4064 -0.8227
  268MOL0     C36094   7.642  -0.996   3.186 -1.3165 -1.1292 -0.7737
  268MOL0     C36095   7.639  -0.848   3.182  0.5704  0.2094 -0.8212
  268MOL0     N36096   7.270  -0.161   3.139 -0.1398  0.4000  0.3323
  268MOL0     N36097   7.166  -0.093   3.107 -0.9477 -0.6514 -0.0187
  268MOL0     C36098   7.530   0.552   2.362 -0.3647  0.1785  0.3620
  268MOL0     C36099   7.643   0.614   2.413 -0.0880  0.4655 -1.0654
  268MOL0     C36100   8.103   0.717   2.468 -0.0894 -0.1425  0.0671
  268MOL0     C36101   8.063   0.844   2.503 -0.4141 -0.6976 -0.7808
  268MOL0     C36102   8.169   0.941   2.518  0.2067 -1.1627  0.1295
  268MOL0     C36103   8.297   0.914   2.499  1.1236  0.2702  0.3870
  268MOL0     O36104   8.397   1.008   2.525 -0.3372 -0.2954  1.1731
  268MOL0     C36105   8.523   0.962   2.585  0.2526 -0.1922  0.1141
  268MOL0     C36106   8.588   1.067   2.674  0.1263 -0.0987 -1.2204
  268MOL0     C36107   8.671   1.173   2.607  0.4842  0.0529 -0.0782
  268MOL0     C36108   8.762   1.258   2.692 -0.0600 -0.3203 -0.9728
  268MOL0     C36109   8.714   1.334   2.812  0.2154 -0.0472  0.3649
  268MOL0     C36110   8.664   1.393   2.903 -0.4039  0.3186  0.3974
  268MOL0     C36111   8.339   0.788   2.461 -0.5944 -0.1352  0.6458
  268MOL0     C36112   8.238   0.691   2.451 -0.0018 -0.4301 -0.5167
  268MOL0     H36113   7.887   0.441   2.241  1.6866  0.9111  2.3521
  268MOL0     H36114   7.699   0.344   2.149 -0.9298  1.5666 -1.6219
  268MOL0     H36115   7.308   0.516   2.218  0.3569  1.1213 -2.8495
  268MOL0     H36116   7.275   0.347   2.144 -0.5586 -2.1913  3.2669
  268MOL0     H36117   7.302   0.233   2.346  1.3439 -0.0803  0.1199
  268MOL0     H36118   7.338   0.398   2.424 -1.0354  2.4490 -1.0221
  268MOL0     H36119   7.095   0.470   2.386  2.5789  1.6913 -4.5038
  268MOL0     H36120   7.066   0.365   2.265 -0.7280 -1.0823 -0.4339
  268MOL0     H36121   6.954   0.341   2.485  1.0287 -0.4312  1.0300
  268MOL0     H36122   7.012   0.195   2.418 -2.1190  1.9128 -1.7857
  268MOL0     H36123   7.220   0.207   2.559  0.1126 -1.0710  0.6380
  268MOL0     H36124   7.163   0.341   2.647  2.5968 -1.6318  1.5587
  268MOL0     H36125   6.950   0.186   2.709  0.4558 -0.8308  1.4978
  268MOL0     H36126   7.036   0.048   2.642 -3.2971 -0.2043 -0.5148
  268MOL0     H36127   7.232   0.107   2.792  0.4534 -0.2475  0.7970
  268MOL0     H36128   7.120   0.231   2.864  0.6166  0.7275 -2.0786
  268MOL0     H36129   7.030  -0.065   2.836 -2.3454 -1.0888  2.5905
  268MOL0     H36130   6.992   0.055   2.955 -1.0650  0.3283 -2.2684
  268MOL0     H36131   7.337  -0.072   2.840  0.7795  4.8458 -0.1824
  268MOL0     H36132   7.575  -0.147   2.992  2.7360 -3.8609 -0.6106
  268MOL0     H36133   7.549  -0.226   3.146 -0.5041  1.9833  0.8556
  268MOL0     H36134   7.587  -0.393   2.957 -1.1769  1.1134 -3.8064
  268MOL0     H36135   7.436  -0.353   2.899  1.9795 -0.2514 -1.8095
  268MOL0     H36136   7.328  -0.399   3.103  0.2456  1.4444 -4.4959
  268MOL0     H36137   7.467  -0.436   3.200 -2.3967  1.1896  1.2038
  268MOL0     H36138   7.385  -0.606   2.966  1.3323  3.2225 -0.6725
  268MOL0     H36139   7.319  -0.629   3.122  1.1294 -1.2432  2.3290
  268MOL0     H36140   7.346  -0.815   2.997  0.1662  1.2023 -0.2929
  268MOL0     H36141   7.276  -0.993   2.902  1.0732  1.2854  1.6811
  268MOL0     H36142   7.406  -1.099   2.870  2.5680  1.5267  1.3003
  268MOL0     H36143   7.290  -1.149   2.996 -0.9357  1.2607  3.5632
  268MOL0     H36144   7.482  -1.396   3.351 -1.5403 -3.6871  1.7497
  268MOL0     H36145   7.485  -1.647   3.381 -0.9594  0.7931  0.0639
  268MOL0     H36146   7.779  -1.929   3.185 -1.0856  0.1058 -0.0872
  268MOL0     H36147   7.861  -1.874   3.328  0.0845  0.9713  0.4303
  268MOL0     H36148   7.711  -2.029   3.460  3.3966  3.4988  0.2668
  268MOL0     H36149   7.636  -2.083   3.307  0.3994 -1.5039 -0.6377
  268MOL0     H36150   7.941  -2.097   3.354 -0.8964  3.1249 -0.6120
  268MOL0     H36151   7.848  -2.163   3.220  0.2931 -0.9183  1.0876
  268MOL0     H36152   7.820  -2.250   3.504  0.4317  2.6355 -0.1429
  268MOL0     H36153   7.726  -2.320   3.371 -1.0774  0.7551 -0.2112
  268MOL0     H36154   8.032  -2.339   3.364  1.0196 -0.7045 -3.3508
  268MOL0     H36155   7.911  -2.437   3.273 -0.8921 -2.1790  1.5590
  268MOL0     H36156   7.929  -2.450   3.580 -3.9425 -1.5294  1.1114
  268MOL0     H36157   7.802  -2.512   3.480  0.2609 -0.9548  3.0651
  268MOL0     H36158   8.092  -2.590   3.438 -0.3475  0.1033 -2.8721
  268MOL0     H36159   7.957  -2.650   3.343  0.3725 -1.0135 -0.5795
  268MOL0     H36160   8.016  -2.710   3.631  1.8489 -0.7912 -1.2991
  268MOL0     H36161   8.019  -2.818   3.500  2.1646  0.9712 -0.8049
  268MOL0     H36162   7.867  -1.669   3.189 -1.1314 -0.5737 -0.7552
  268MOL0     H36163   7.830  -1.409   3.132  0.7021 -0.3448  0.2400
  268MOL0     H36164   7.711  -1.034   3.261 -1.8200 -0.2773  0.1455
  268MOL0     H36165   7.701  -0.787   3.246 -0.5688 -0.1332  0.6499
  268MOL0     H36166   7.432   0.592   2.385 -1.0061 -0.3104 -1.4160
  268MOL0     H36167   7.638   0.691   2.489 -2.3186 -0.6219 -0.0221
  268MOL0     H36168   7.965   0.874   2.538 -1.3808 -2.9384 -1.3713
  268MOL0     H36169   8.138   1.041   2.544  3.2588 -0.7887  3.0371
  268MOL0     H36170   8.494   0.870   2.635 -0.5890 -1.4294 -2.4598
  268MOL0     H36171   8.593   0.935   2.505  0.8618 -0.2506  0.6622
  268MOL0     H36172   8.627   1.026   2.767  0.0626 -1.3745 -1.7336
  268MOL0     H36173   8.504   1.120   2.720  0.8790 -0.1014  0.2187
  268MOL0     H36174   8.607   1.239   2.548  0.6099 -0.4919 -0.8419
  268MOL0     H36175   8.737   1.120   2.537  1.1558 -0.8760  1.2201
  268MOL0     H36176   8.815   1.333   2.631  1.2060  1.0482  1.6317
  268MOL0     H36177   8.828   1.193   2.751 -2.5328  0.8256  3.5368
  268MOL0     H36178   8.608   1.424   2.989  1.6440  2.3928  1.1095
  268MOL0     H36179   8.438   0.759   2.429 -0.2867  0.5489  0.9601
  268MOL0     H36180   8.273   0.593   2.420  0.2613 -0.8067  0.9310
  269MOL0     O36181   7.283   3.029   3.528 -0.0399 -0.4131 -0.2344
  269MOL0     C36182   7.205   3.002   3.618  0.3846  0.1762  0.0662
  269MOL0     O36183   7.195   3.067   3.732  0.8176 -0.8253 -0.6096
  269MOL0     C36184   7.245   3.193   3.755 -0.4708  0.6896  0.1869
  269MOL0     C36185   7.180   3.301   3.704  0.0310  0.2164  0.1020
  269MOL0     C36186   7.207   3.432   3.743  0.2809  1.1052 -0.9168
  269MOL0     C36187   7.331   3.460   3.814  0.0538  0.5449  0.1995
  269MOL0     O36188   7.385   3.587   3.845  0.1463  0.6064  0.2330
  269MOL0     C36189   7.299   3.703   3.847  0.1825  0.3154  0.1364
  269MOL0     C36190   7.402   3.808   3.873  0.4935 -0.1296 -0.8681
  269MOL0     C36191   7.423   3.831   4.024 -0.2166  1.0647 -0.2448
  269MOL0     C36192   7.521   3.940   4.056 -0.4669  0.3047 -0.0906
  269MOL0     C36193   7.545   3.960   4.209  0.1097  0.2166 -0.3834
  269MOL0     C36194   7.453   4.072   4.264 -0.9898  1.1557  0.0719
  269MOL0     C36195   7.475   4.116   4.414  0.4449 -0.0764 -0.5819
  269MOL0     C36196   7.384   4.239   4.437 -0.4760 -1.0528  0.0967
  269MOL0     N36197   7.443   4.370   4.404  0.4706 -0.0993 -0.0709
  269MOL0     C36198   7.544   4.442   4.479  0.0879  0.6907  0.2171
  269MOL0     C36199   7.585   4.541   4.402  0.3998 -0.8363 -0.8993
  269MOL0     C36200   7.691   4.641   4.443 -0.3982  0.3284  0.1465
  269MOL0     C36201   7.659   4.793   4.417 -1.4933 -0.8557 -0.9707
  269MOL0     C36202   7.768   4.889   4.472 -0.7920 -0.3033 -0.4693
  269MOL0     C36203   7.914   4.872   4.407  0.0037  0.6934  0.2642
  269MOL0     O36204   7.969   4.754   4.462 -0.6759 -0.1922 -0.2521
  269MOL0     C36205   8.095   4.721   4.412  0.5733 -1.1534 -0.2002
  269MOL0     C36206   8.137   4.590   4.434 -0.4750  0.5914 -1.0021
  269MOL0     C36207   8.270   4.535   4.399  0.1762 -0.4872 -0.9597
  269MOL0     C36208   8.293   4.388   4.417 -0.5417  0.0095 -0.3208
  269MOL0     C36209   8.356   4.627   4.337 -0.0753 -0.2865  0.2999
  269MOL0     C36210   8.502   4.608   4.308 -0.2813  0.2165 -0.2485
  269MOL0     O36211   8.580   4.718   4.299  0.1043  0.2835 -0.8161
  269MOL0     C36212   8.722   4.707   4.291  0.0009  0.0893 -0.2833
  269MOL0     C36213   8.799   4.611   4.226 -0.2090 -0.5610  0.9358
  269MOL0     C36214   8.934   4.608   4.208 -0.8507 -0.3544 -0.7722
  269MOL0     C36215   9.008   4.704   4.271  0.4599 -0.5840  0.4963
  269MOL0     O36216   9.143   4.694   4.296 -0.3324 -0.3087  0.1415
  269MOL0     C36217   9.159   4.659   4.435  0.2963  0.0478 -0.4365
  269MOL0     C36218   9.307   4.668   4.480  0.7457  0.3513  0.1776
  269MOL0     C36219   9.407   4.580   4.401 -0.3288  0.3056  0.6344
  269MOL0     C36220   9.546   4.606   4.467 -0.6793 -0.2825  0.0383
  269MOL0     C36221   9.650   4.504   4.416 -0.1170  0.4337 -0.2782
  269MOL0     C36222   9.782   4.502   4.498  0.3162 -0.4643 -0.3581
  269MOL0     C36223   9.760   4.443   4.644  0.6077  0.1046  0.4429
  269MOL0     C36224   9.896   4.411   4.705 -0.4955  0.7923  0.2378
  269MOL0    Cl36225   9.890   4.447   4.874 -0.1099 -0.1194 -0.3590
  269MOL0     C36226   8.941   4.811   4.337  0.0158  1.0378  0.1153
  269MOL0     C36227   8.804   4.818   4.335 -0.0512 -0.4348  1.1982
  269MOL0     O36228   8.543   4.491   4.297 -0.4272  0.4163 -0.1374
  269MOL0     C36229   8.307   4.757   4.301  0.5309  0.7854 -0.0983
  269MOL0     C36230   8.189   4.803   4.347  0.1625  0.3228 -0.2758
  269MOL0     N36231   7.505   4.545   4.281 -0.0110  0.0022 -0.3668
  269MOL0     N36232   7.426   4.443   4.290  0.3028  0.3383  0.2420
  269MOL0     C36233   7.405   3.351   3.857 -0.5531 -0.7694  0.0325
  269MOL0     C36234   7.355   3.219   3.830  0.0272 -0.1097  0.3717
  269MOL0     C36235   7.119   2.874   3.599  0.7808 -1.5447 -0.4375
  269MOL0     C36236   7.143   2.794   3.494  0.4145 -0.1814  0.0164
  269MOL0     C36237   7.073   2.671   3.479  0.8380  0.0359 -0.0632
  269MOL0     C36238   6.989   2.628   3.586 -0.3020  0.7401 -0.2445
  269MOL0     O36239   6.916   2.509   3.598 -0.5487  0.2213  0.0861
  269MOL0     C36240   6.953   2.414   3.496 -0.1268  0.3771  0.8804
  269MOL0     C36241   6.869   2.284   3.495  0.1104 -0.1362 -0.1046
  269MOL0     C36242   6.720   2.310   3.453  0.9485 -0.2323 -0.4314
  269MOL0     C36243   6.640   2.188   3.413  0.4119  0.3641  0.8094
  269MOL0     C36244   6.610   2.114   3.534  0.0468  0.3439 -0.3072
  269MOL0     C36245   6.563   2.058   3.632  0.1872 -0.0811 -0.5065
  269MOL0     C36246   6.974   2.714   3.697  0.2397 -0.2229 -0.1537
  269MOL0     C36247   7.032   2.834   3.701  0.2022 -0.6389 -0.3465
  269MOL0     H36248   7.094   3.283   3.641 -1.1350  0.6955  1.5003
  269MOL0     H36249   7.146   3.515   3.709 -3.1304 -1.0618 -0.6217
  269MOL0     H36250   7.236   3.729   3.762 -1.8982  0.3047  1.5883
  269MOL0     H36251   7.233   3.700   3.934  1.2011  0.4875  0.9418
  269MOL0     H36252   7.496   3.779   3.826 -1.2711 -3.5132 -2.6847
  269MOL0     H36253   7.358   3.901   3.836 -0.0305  0.4450  1.0811
  269MOL0     H36254   7.332   3.870   4.071 -0.6559  0.1857 -0.3504
  269MOL0     H36255   7.456   3.743   4.079  2.4526  1.9550 -0.3038
  269MOL0     H36256   7.618   3.908   4.016 -0.3605  1.3292 -0.6922
  269MOL0     H36257   7.487   4.029   4.002 -2.6384 -1.4520 -1.7948
  269MOL0     H36258   7.525   3.868   4.266  1.3496 -0.5255 -1.1180
  269MOL0     H36259   7.646   3.996   4.228 -0.5866  0.5556  3.5397
  269MOL0     H36260   7.473   4.157   4.198 -2.3138 -0.4636 -2.6259
  269MOL0     H36261   7.347   4.058   4.239 -0.0083 -2.6157 -2.9724
  269MOL0     H36262   7.459   4.034   4.485  4.6271 -1.7013 -1.2041
  269MOL0     H36263   7.579   4.143   4.431  1.0043 -1.1501 -2.0630
  269MOL0     H36264   7.346   4.244   4.539 -0.8844 -1.4486 -0.0286
  269MOL0     H36265   7.293   4.241   4.377 -0.0687  1.9963 -0.5696
  269MOL0     H36266   7.584   4.418   4.577  0.5129  0.6404  0.0310
  269MOL0     H36267   7.732   4.636   4.544 -3.1184  2.7460  1.5306
  269MOL0     H36268   7.770   4.614   4.373 -0.1161  0.3116  0.4681
  269MOL0     H36269   7.559   4.825   4.448 -1.9713 -1.2321 -2.0942
  269MOL0     H36270   7.661   4.814   4.310  3.9015  1.3488 -0.7452
  269MOL0     H36271   7.776   4.877   4.580 -4.3210 -2.4539 -0.2697
  269MOL0     H36272   7.732   4.989   4.448  1.6584  0.3019 -2.0042
  269MOL0     H36273   7.968   4.961   4.439  0.1647  1.2365 -1.4245
  269MOL0     H36274   7.900   4.868   4.298  0.5874  2.8288  0.0788
  269MOL0     H36275   8.063   4.525   4.480 -2.1728  1.7298 -2.0101
  269MOL0     H36276   8.233   4.334   4.491  0.2658 -2.8270 -1.6185
  269MOL0     H36277   8.300   4.338   4.320 -0.5215 -1.2328  0.3073
  269MOL0     H36278   8.396   4.387   4.454 -0.4463 -1.1652 -0.5997
  269MOL0     H36279   8.752   4.532   4.169  1.7457 -0.9199 -0.3020
  269MOL0     H36280   8.986   4.530   4.152 -2.2665 -2.1549  0.2939
  269MOL0     H36281   9.098   4.730   4.492 -0.9682  0.4284 -2.1721
  269MOL0     H36282   9.116   4.559   4.452 -3.2151  1.7536  1.9924
  269MOL0     H36283   9.340   4.771   4.464  2.5385 -0.3998 -1.3547
  269MOL0     H36284   9.315   4.649   4.588 -2.1116  2.1066  0.8147
  269MOL0     H36285   9.427   4.603   4.296 -0.7231  1.3292  0.7775
  269MOL0     H36286   9.381   4.474   4.410 -2.0688  0.7141  0.6855
  269MOL0     H36287   9.588   4.705   4.448 -2.2608  0.1504 -1.4733
  269MOL0     H36288   9.539   4.599   4.576 -0.8995 -0.7182 -0.0002
  269MOL0     H36289   9.674   4.540   4.315 -3.4371  1.1007 -0.9302
  269MOL0     H36290   9.603   4.405   4.411 -0.0774  0.3290  1.0850
  269MOL0     H36291   9.857   4.438   4.450  0.1029 -0.6462 -0.4533
  269MOL0     H36292   9.825   4.602   4.498 -3.6350  1.4563 -1.2576
  269MOL0     H36293   9.711   4.345   4.651 -1.4606  1.1545  1.2336
  269MOL0     H36294   9.702   4.512   4.705 -0.2426 -2.1817  2.3642
  269MOL0     H36295   9.983   4.459   4.658  1.3487 -3.2321 -1.0159
  269MOL0     H36296   9.915   4.303   4.697 -2.0621  0.4732  0.5777
  269MOL0     H36297   8.999   4.893   4.378 -0.5180  1.4422  0.0717
  269MOL0     H36298   8.754   4.908   4.369  0.2398 -0.0528  0.6458
  269MOL0     H36299   8.373   4.836   4.265  1.8406 -0.2584 -0.0757
  269MOL0     H36300   8.172   4.910   4.337 -3.1096  0.0301  0.8014
  269MOL0     H36301   7.496   3.364   3.914 -0.5832 -3.4893  0.8231
  269MOL0     H36302   7.419   3.137   3.863  2.9603  1.2513 -1.4674
  269MOL0     H36303   7.221   2.825   3.426 -0.5850  2.7852  0.1061
  269MOL0     H36304   7.107   2.609   3.397  2.2398 -0.3490  0.7845
  269MOL0     H36305   6.943   2.462   3.398 -2.4924  0.1766  0.9709
  269MOL0     H36306   7.058   2.386   3.511 -0.4173 -1.6451 -0.5479
  269MOL0     H36307   6.872   2.239   3.595  2.6263 -2.0210 -0.9118
  269MOL0     H36308   6.916   2.218   3.422 -2.2237 -2.5313  0.4110
  269MOL0     H36309   6.706   2.388   3.378  2.1507 -0.6449 -1.1231
  269MOL0     H36310   6.676   2.363   3.538  2.0360  0.4917 -0.2908
  269MOL0     H36311   6.687   2.118   3.343 -2.6424  0.0764 -1.1621
  269MOL0     H36312   6.548   2.215   3.360  1.0796  0.2938 -0.4311
  269MOL0     H36313   6.533   1.992   3.711  1.1441 -1.3625 -1.1809
  269MOL0     H36314   6.903   2.691   3.776 -1.5219  1.2186 -1.2322
  269MOL0     H36315   7.006   2.900   3.783 -0.6291  2.9792 -3.2492
  270MOL0     O36316   1.405   7.628   9.982  0.2231 -0.1756 -0.8151
  270MOL0     C36317   1.488   7.611   9.890 -0.1867  0.2523 -0.5283
  270MOL0     O36318   1.483   7.546   9.778 -0.0318 -1.0128 -0.1115
  270MOL0     C36319   1.368   7.507   9.712 -0.1867  0.2510  0.3285
  270MOL0     C36320   1.252   7.452   9.781 -0.0304 -0.2392  0.1504
  270MOL0     C36321   1.151   7.409   9.704  0.7799 -0.0621  0.4408
  270MOL0     C36322   1.149   7.415   9.560  0.3817  0.0336 -0.3109
  270MOL0     O36323   1.060   7.349   9.479  0.2156  0.3779  0.1338
  270MOL0     C36324   0.946   7.281   9.536  0.0248  0.4753  0.5186
  270MOL0     C36325   0.870   7.241   9.404  0.1906 -0.3174  0.1241
  270MOL0     C36326   0.751   7.155   9.440  0.7322  0.5617  0.2520
  270MOL0     C36327   0.670   7.130   9.315 -0.9222 -1.1570  0.5654
  270MOL0     C36328   0.564   7.028   9.352  0.5889 -0.2012 -0.2063
  270MOL0     C36329   0.471   6.984   9.235 -1.0380 -0.1239  0.5845
  270MOL0     C36330   0.383   6.856   9.277 -0.5509 -0.3570  0.1385
  270MOL0     C36331   0.352   6.846   9.430  0.3811 -0.9906  0.1197
  270MOL0     N36332   0.261   6.739   9.460 -0.5339  0.2473  0.3282
  270MOL0     C36333   0.221   6.711   9.590 -0.6819 -0.9839  0.9014
  270MOL0     C36334   0.177   6.585   9.580 -0.5858 -0.8420  1.0791
  270MOL0     C36335   0.130   6.493   9.678  0.0997 -0.2780 -0.4151
  270MOL0     C36336   0.070   6.366   9.632  0.0266 -0.5711 -0.2798
  270MOL0     C36337  -0.074   6.370   9.589  0.5337 -0.4350  0.1674
  270MOL0     C36338  -0.175   6.424   9.694  0.4022  0.0594 -0.0047
  270MOL0     O36339  -0.148   6.361   9.819  0.6547  0.1450 -0.3344
  270MOL0     C36340  -0.241   6.350   9.916 -0.9054 -0.2897  0.3828
  270MOL0     C36341  -0.377   6.363   9.909 -0.2190 -0.4436 -0.1433
  270MOL0     C36342  -0.464   6.341  10.013 -0.3456  0.2316  0.0672
  270MOL0     C36343  -0.608   6.362   9.983  0.1565  0.5275  0.0544
  270MOL0     C36344  -0.403   6.284  10.127  0.3306 -0.5668 -0.0889
  270MOL0     C36345  -0.480   6.269  10.253 -0.0484  0.5461 -0.0408
  270MOL0     O36346  -0.617   6.293  10.255  0.0624 -0.7067  0.4275
  270MOL0     C36347  -0.696   6.258  10.358  0.0131 -0.0694 -0.4136
  270MOL0     C36348  -0.785   6.353  10.406  1.0199 -0.0355 -0.0971
  270MOL0     C36349  -0.873   6.329  10.512 -0.2717 -0.0140  0.1255
  270MOL0     C36350  -0.874   6.209  10.569 -0.2693  0.6387  0.3861
  270MOL0     O36351  -0.957   6.181  10.676 -0.2009  0.4014 -0.0321
  270MOL0     C36352  -0.899   6.177  10.804  0.0827 -0.4013  0.4815
  270MOL0     C36353  -1.006   6.175  10.913 -0.2445  0.1782 -0.2642
  270MOL0     C36354  -1.113   6.292  10.892 -0.0032  0.0079 -0.5635
  270MOL0     C36355  -1.071   6.442  10.875  0.4594  0.7337  0.1928
  270MOL0     C36356  -1.184   6.533  10.831 -0.4335  0.2729 -0.5287
  270MOL0     C36357  -1.255   6.578  10.957  0.4391  0.2942 -0.2846
  270MOL0     C36358  -1.371   6.658  10.910 -0.1992  0.0597 -0.7293
  270MOL0     C36359  -1.443   6.723  11.025  0.3913 -0.6244 -0.0696
  270MOL0    Cl36360  -1.600   6.778  10.954  0.3024 -0.0932  0.3223
  270MOL0     C36361  -0.787   6.108  10.521 -0.1586  0.2386 -0.4567
  270MOL0     C36362  -0.693   6.132  10.418 -0.8422  0.3997  0.7450
  270MOL0     O36363  -0.414   6.236  10.351 -0.3363 -0.0992 -0.1033
  270MOL0     C36364  -0.266   6.259  10.134  0.4722  0.2900 -0.4866
  270MOL0     C36365  -0.188   6.294  10.030  0.3084 -0.5019 -0.1737
  270MOL0     N36366   0.177   6.545   9.436 -0.7286 -0.0671 -0.6172
  270MOL0     N36367   0.231   6.637   9.377  0.0502  0.3657  0.1309
  270MOL0     C36368   1.255   7.485   9.505 -1.5000  0.4218  1.2454
  270MOL0     C36369   1.370   7.525   9.577 -0.1838  0.0224  0.2911
  270MOL0     C36370   1.628   7.664   9.916  0.5473 -1.4862  0.3688
  270MOL0     C36371   1.728   7.681   9.816 -1.0359 -0.5202  1.1331
  270MOL0     C36372   1.861   7.731   9.859 -0.0555  0.2879  0.7818
  270MOL0     C36373   1.887   7.756   9.993  0.2445 -0.5074  1.1079
  270MOL0     O36374   2.014   7.799  10.040 -0.6648  0.2369 -0.5768
  270MOL0     C36375   2.098   7.705  10.112  0.2819 -0.9319 -0.4934
  270MOL0     C36376   2.202   7.792  10.185 -0.2920  1.6013 -0.2556
  270MOL0     C36377   2.276   7.886  10.095  0.8007  0.2339  0.6713
  270MOL0     C36378   2.322   8.010  10.162 -1.1135  0.5655  0.0039
  270MOL0     C36379   2.377   8.100  10.062 -0.6951  0.5060  0.0119
  270MOL0     C36380   2.415   8.156   9.966 -0.5162 -0.1466 -0.9066
  270MOL0     C36381   1.785   7.742  10.085 -0.3068  0.0337 -0.4703
  270MOL0     C36382   1.660   7.703  10.051 -0.5698  0.7428 -0.3961
  270MOL0     H36383   1.249   7.432   9.888  1.8088 -1.3029  0.0389
  270MOL0     H36384   1.070   7.360   9.758  1.8978  0.2016  2.4538
  270MOL0     H36385   0.973   7.196   9.599 -0.8267  1.0481  1.6981
  270MOL0     H36386   0.886   7.343   9.603 -1.4736  0.0332 -0.3809
  270MOL0     H36387   0.826   7.337   9.377  0.1807 -0.4304 -0.2643
  270MOL0     H36388   0.939   7.187   9.339 -0.6999 -2.5284  0.8824
  270MOL0     H36389   0.790   7.071   9.497 -0.2452  1.4664  2.3631
  270MOL0     H36390   0.686   7.201   9.515 -1.6118 -1.7373 -0.2159
  270MOL0     H36391   0.638   7.224   9.268 -0.7539 -0.8301  1.0903
  270MOL0     H36392   0.734   7.088   9.237  0.1446  1.7535 -0.2522
  270MOL0     H36393   0.622   6.940   9.385  1.1232  0.4414  0.6298
  270MOL0     H36394   0.505   7.078   9.430 -0.3133 -2.0235  0.3494
  270MOL0     H36395   0.412   7.068   9.197  1.2524  2.3033  2.0231
  270MOL0     H36396   0.529   6.963   9.144 -0.5070  0.3160  0.8142
  270MOL0     H36397   0.286   6.862   9.225 -2.2065  0.3295  3.0625
  270MOL0     H36398   0.437   6.770   9.237  2.0255  1.1731  0.1193
  270MOL0     H36399   0.306   6.934   9.476 -0.6314 -1.9038  0.8963
  270MOL0     H36400   0.445   6.827   9.485  0.3248 -1.0758  0.1871
  270MOL0     H36401   0.244   6.779   9.671 -0.6990  0.0354  0.0780
  270MOL0     H36402   0.214   6.469   9.745  0.8868 -0.8604 -1.5734
  270MOL0     H36403   0.052   6.552   9.727  0.0105  0.4446 -1.4148
  270MOL0     H36404   0.077   6.284   9.704  1.6834 -3.0612 -3.0522
  270MOL0     H36405   0.138   6.330   9.555  0.1155  1.0400 -0.9894
  270MOL0     H36406  -0.109   6.272   9.556 -0.1382  0.0914 -0.7125
  270MOL0     H36407  -0.080   6.440   9.506 -1.5325 -2.0756 -1.1708
  270MOL0     H36408  -0.272   6.393   9.652  0.2305 -0.2113  0.5923
  270MOL0     H36409  -0.172   6.533   9.696  0.7861  0.0631 -0.6001
  270MOL0     H36410  -0.422   6.402   9.819  0.7272  0.4261 -0.2552
  270MOL0     H36411  -0.649   6.421  10.066  0.9322  2.1360 -0.6528
  270MOL0     H36412  -0.626   6.422   9.893  0.9514  1.8373  0.7345
  270MOL0     H36413  -0.658   6.267   9.965  4.3052 -1.9873  0.5914
  270MOL0     H36414  -0.786   6.454  10.367  0.0998  1.2593  2.9578
  270MOL0     H36415  -0.942   6.405  10.548 -0.1418 -0.0584  0.4703
  270MOL0     H36416  -0.835   6.088  10.813 -0.5962 -1.3233 -2.4665
  270MOL0     H36417  -0.843   6.270  10.813  0.8701 -0.9910  2.0578
  270MOL0     H36418  -1.048   6.074  10.910  2.6305 -1.2840  2.5710
  270MOL0     H36419  -0.953   6.186  11.008 -3.3305 -1.6432  1.8276
  270MOL0     H36420  -1.182   6.290  10.977  1.1185  0.7800  0.3976
  270MOL0     H36421  -1.157   6.254  10.799  2.5133 -3.1317 -0.6283
  270MOL0     H36422  -1.021   6.456  10.972 -1.7795  0.9799  1.3715
  270MOL0     H36423  -0.996   6.450  10.796  2.6893 -4.1024  1.4547
  270MOL0     H36424  -1.256   6.484  10.764  0.3125  0.7466 -1.7282
  270MOL0     H36425  -1.136   6.616  10.778  1.4265 -1.1544 -1.1722
  270MOL0     H36426  -1.302   6.496  11.012 -0.3477 -0.6887 -2.3348
  270MOL0     H36427  -1.178   6.626  11.018  1.4150  0.8098 -1.8600
  270MOL0     H36428  -1.442   6.599  10.850 -3.5743  1.1874  1.8096
  270MOL0     H36429  -1.328   6.738  10.850  1.0088 -1.0058 -1.3363
  270MOL0     H36430  -1.478   6.650  11.098  0.0941  1.3209  1.8394
  270MOL0     H36431  -1.382   6.796  11.079 -1.7283 -0.0858  1.7111
  270MOL0     H36432  -0.777   6.018  10.581 -1.7032 -1.6512 -2.8555
  270MOL0     H36433  -0.619   6.066  10.374 -0.7898 -0.4957  2.1168
  270MOL0     H36434  -0.214   6.207  10.214  2.2579  2.0304 -0.4391
  270MOL0     H36435  -0.081   6.276  10.029  0.3654 -0.4372 -2.6449
  270MOL0     H36436   1.259   7.490   9.396  0.6584 -0.0665  1.2572
  270MOL0     H36437   1.459   7.563   9.529 -0.7518  1.4743  0.3154
  270MOL0     H36438   1.723   7.636   9.717 -0.4410  1.7423  0.0108
  270MOL0     H36439   1.934   7.751   9.782  1.0420  0.9410  1.9428
  270MOL0     H36440   2.040   7.650  10.187 -3.1515  2.1421 -0.6536
  270MOL0     H36441   2.146   7.639  10.039 -2.5587 -1.1782 -2.2658
  270MOL0     H36442   2.276   7.722  10.225  0.6981  1.7395 -1.7438
  270MOL0     H36443   2.149   7.845  10.265  0.4606  0.4962  1.0289
  270MOL0     H36444   2.210   7.914  10.012  1.4899  1.3560  0.4838
  270MOL0     H36445   2.363   7.834  10.055  0.1944 -1.4411  1.4205
  270MOL0     H36446   2.395   7.983  10.239  0.5132  0.3379 -1.5610
  270MOL0     H36447   2.234   8.062  10.203 -1.4345  1.0723 -1.2739
  270MOL0     H36448   2.459   8.218   9.890 -3.9888  4.2056  0.1869
  270MOL0     H36449   1.808   7.745  10.191  0.8729  4.6317 -0.6316
  270MOL0     H36450   1.599   7.685  10.139  0.5679 -1.9384 -0.0587
  271MOL0     O36451  10.380   4.837   3.378  0.4167  0.5711  0.2972
  271MOL0     C36452  10.471   4.756   3.378  0.7381 -0.0036  0.2338
  271MOL0     O36453  10.453   4.622   3.380  0.2411  0.6184 -0.6438
  271MOL0     C36454  10.328   4.558   3.366  0.3117  0.6502  0.2377
  271MOL0     C36455  10.240   4.564   3.471 -0.2025  0.1456 -0.6230
  271MOL0     C36456  10.129   4.485   3.471  0.7261 -0.2386 -0.6586
  271MOL0     C36457  10.093   4.410   3.355  0.1226 -0.3223 -0.4230
  271MOL0     O36458   9.976   4.333   3.338  0.3062  0.1573 -0.1610
  271MOL0     C36459   9.912   4.302   3.470  0.6744  0.4735 -0.4101
  271MOL0     C36460   9.790   4.210   3.454  0.0373  0.6859  0.0990
  271MOL0     C36461   9.814   4.084   3.373 -0.3206  0.7114 -0.7417
  271MOL0     C36462   9.694   3.995   3.346  0.2437 -0.7908  0.6373
  271MOL0     C36463   9.579   4.055   3.257 -0.6046  0.6206  0.3156
  271MOL0     C36464   9.622   4.122   3.123  0.2871  0.0448  0.1853
  271MOL0     C36465   9.515   4.192   3.038  0.4519 -0.2631 -0.0353
  271MOL0     C36466   9.381   4.130   3.005  1.1761  0.2795  0.8665
  271MOL0     N36467   9.404   3.999   2.952  0.0213  0.2431  1.0718
  271MOL0     C36468   9.354   3.885   3.004 -0.7864  0.2115 -0.4976
  271MOL0     C36469   9.373   3.793   2.916 -0.1031  0.7405  0.5041
  271MOL0     C36470   9.333   3.643   2.934 -1.0868 -0.6832  0.2985
  271MOL0     C36471   9.176   3.634   2.923 -0.1671 -0.3050 -0.6361
  271MOL0     C36472   9.129   3.684   2.793  0.2136 -0.3740 -0.5978
  271MOL0     C36473   8.976   3.691   2.783 -0.9521 -0.2608  0.3600
  271MOL0     O36474   8.921   3.570   2.819  0.3510 -0.0173  0.0505
  271MOL0     C36475   8.893   3.482   2.725  0.6252  0.3951  0.7320
  271MOL0     C36476   8.779   3.403   2.745 -1.2748 -0.7700 -1.1573
  271MOL0     C36477   8.745   3.295   2.671  0.7557 -0.0700 -0.3190
  271MOL0     C36478   8.602   3.228   2.702  0.1240  0.2223  0.3164
  271MOL0     C36479   8.817   3.257   2.557  0.2616 -0.7497  0.0686
  271MOL0     C36480   8.779   3.144   2.470 -0.2543 -0.2761  0.2696
  271MOL0     O36481   8.815   3.169   2.334  0.0738  0.7177 -0.5739
  271MOL0     C36482   8.810   3.068   2.244  0.9268 -0.0064 -1.1904
  271MOL0     C36483   8.791   3.107   2.111  0.1626 -1.0409 -0.4429
  271MOL0     C36484   8.794   3.011   2.006  0.2622 -0.6263 -0.2455
  271MOL0     C36485   8.822   2.878   2.025  0.5568 -0.3188  0.3829
  271MOL0     O36486   8.808   2.777   1.928  0.6882  0.9942 -0.0613
  271MOL0     C36487   8.804   2.817   1.789  0.6855  0.7438  1.4292
  271MOL0     C36488   8.801   2.704   1.699 -0.3139  1.2419  0.7710
  271MOL0     C36489   8.919   2.709   1.615 -0.3691 -0.7914  0.2653
  271MOL0     C36490   8.929   2.580   1.531  0.3794 -0.3310 -0.0426
  271MOL0     C36491   8.975   2.462   1.607 -0.0864  0.0456  0.1343
  271MOL0     C36492   8.979   2.338   1.513  0.6303 -0.4099 -0.0096
  271MOL0     C36493   9.039   2.205   1.572 -0.4229 -0.0751 -0.4061
  271MOL0     C36494   9.034   2.094   1.468 -0.0397  0.0242  0.0450
  271MOL0    Cl36495   8.871   2.020   1.465  0.3377  0.0509  0.3519
  271MOL0     C36496   8.832   2.837   2.156 -0.1627  0.5826  0.3499
  271MOL0     C36497   8.824   2.925   2.264  0.8064 -1.1264 -0.4829
  271MOL0     O36498   8.725   3.046   2.515  0.0139 -0.0567 -0.1095
  271MOL0     C36499   8.935   3.331   2.532  0.3960 -0.3884  0.2705
  271MOL0     C36500   8.966   3.448   2.608 -0.3812 -0.0460  0.1364
  271MOL0     N36501   9.458   3.843   2.819 -0.5952  0.2081 -0.1132
  271MOL0     N36502   9.480   3.972   2.841 -0.6261  1.0195 -0.9924
  271MOL0     C36503  10.179   4.417   3.241  0.3817  0.1883 -0.5629
  271MOL0     C36504  10.305   4.478   3.252  0.1235 -0.6548  0.6012
  271MOL0     C36505  10.595   4.820   3.405 -0.1779  0.1549 -0.2072
  271MOL0     C36506  10.713   4.752   3.438 -0.3033 -0.0075 -0.6391
  271MOL0     C36507  10.824   4.811   3.488 -0.8003 -0.1351 -0.0840
  271MOL0     C36508  10.832   4.945   3.521  0.4861 -0.0053 -0.9391
  271MOL0     O36509  10.955   4.991   3.567 -0.0065  0.2767 -0.0339
  271MOL0     C36510  10.979   5.131   3.599 -0.2062  0.2777  0.5101
  271MOL0     C36511  11.045   5.196   3.472  0.5306 -0.8432  0.8731
  271MOL0     C36512  11.037   5.358   3.483  0.3490 -0.4187  0.3482
  271MOL0     C36513  11.134   5.395   3.592 -0.1923  0.0649 -0.3849
  271MOL0     C36514  11.162   5.533   3.578  0.1237 -0.2084  0.0758
  271MOL0     C36515  11.167   5.654   3.566 -0.7276  0.0957 -0.3326
  271MOL0     C36516  10.715   5.025   3.493 -0.2059 -0.3840  0.2789
  271MOL0     C36517  10.601   4.960   3.430 -1.1609 -0.7257 -0.2039
  271MOL0     H36518  10.266   4.625   3.557  0.0094 -0.7000 -0.0778
  271MOL0     H36519  10.074   4.486   3.564  3.8800 -0.4045  1.3739
  271MOL0     H36520   9.970   4.248   3.545  3.0941  3.2496 -0.1418
  271MOL0     H36521   9.876   4.398   3.508 -2.4960 -1.5766  2.3403
  271MOL0     H36522   9.739   4.188   3.548 -2.6532  1.0475 -1.1838
  271MOL0     H36523   9.721   4.260   3.386 -2.1089 -1.5268  0.5127
  271MOL0     H36524   9.845   4.101   3.270 -2.3263 -4.1374 -2.4430
  271MOL0     H36525   9.882   4.017   3.428 -1.1214 -0.3090 -0.9552
  271MOL0     H36526   9.732   3.910   3.288 -1.6532  0.5560 -2.8855
  271MOL0     H36527   9.655   3.959   3.441 -0.0581  1.6329  1.4822
  271MOL0     H36528   9.510   3.973   3.238 -1.3438  1.2398  0.2650
  271MOL0     H36529   9.526   4.135   3.309 -2.1730  0.9703 -1.6834
  271MOL0     H36530   9.707   4.191   3.133  0.2674 -0.0908  1.4744
  271MOL0     H36531   9.660   4.042   3.060 -1.3290  0.1292 -0.9711
  271MOL0     H36532   9.492   4.288   3.085  1.0820  0.1710 -0.5936
  271MOL0     H36533   9.561   4.202   2.939 -0.5346 -2.9444 -0.8347
  271MOL0     H36534   9.320   4.182   2.930 -0.9597 -2.6262  0.4103
  271MOL0     H36535   9.321   4.130   3.097  1.1680  2.8624  0.9533
  271MOL0     H36536   9.311   3.865   3.102  0.7773 -0.0515  0.1725
  271MOL0     H36537   9.375   3.586   2.851 -0.9327  1.0053 -0.8092
  271MOL0     H36538   9.377   3.602   3.026 -0.0790 -1.5961 -0.5629
  271MOL0     H36539   9.135   3.698   3.002 -2.3760 -0.3811 -1.6472
  271MOL0     H36540   9.134   3.535   2.937 -2.1654  0.7755  1.7329
  271MOL0     H36541   9.158   3.618   2.710  1.0354  0.3407 -0.8852
  271MOL0     H36542   9.169   3.785   2.780  0.6225  0.3668  4.2541
  271MOL0     H36543   8.949   3.722   2.682  2.8978  0.7380 -0.5082
  271MOL0     H36544   8.940   3.767   2.852 -2.2357  0.7686 -1.3660
  271MOL0     H36545   8.705   3.437   2.818  1.7427  2.1992  0.8375
  271MOL0     H36546   8.551   3.279   2.785  0.5755  1.9500 -0.4162
  271MOL0     H36547   8.537   3.233   2.615  0.3895 -0.5921  0.0667
  271MOL0     H36548   8.618   3.121   2.715  1.1412  0.5398  2.1825
  271MOL0     H36549   8.769   3.211   2.089 -2.3675 -1.1710  1.0876
  271MOL0     H36550   8.767   3.053   1.910 -2.6725 -1.4122  0.1271
  271MOL0     H36551   8.709   2.870   1.778 -0.0083  0.3168  4.4217
  271MOL0     H36552   8.897   2.869   1.765  3.4838 -3.6250  1.6085
  271MOL0     H36553   8.793   2.605   1.746 -1.2334 -0.2959 -2.3733
  271MOL0     H36554   8.710   2.709   1.638 -0.1154 -0.4202  0.2876
  271MOL0     H36555   9.013   2.742   1.661 -0.6725  0.7449 -0.1439
  271MOL0     H36556   8.895   2.790   1.546  1.0162 -0.8574 -0.3267
  271MOL0     H36557   8.832   2.553   1.487 -0.0578 -0.0997  0.7651
  271MOL0     H36558   8.996   2.604   1.447  0.7900 -0.5758  0.2103
  271MOL0     H36559   8.922   2.444   1.701  0.3786  1.6223  0.7167
  271MOL0     H36560   9.075   2.493   1.638 -0.0511  2.1393 -1.7664
  271MOL0     H36561   8.879   2.316   1.475  0.6240  2.0135 -1.6338
  271MOL0     H36562   9.042   2.353   1.424  0.1763  0.4431 -0.2088
  271MOL0     H36563   8.988   2.172   1.663  0.8681 -0.7851  0.0850
  271MOL0     H36564   9.144   2.229   1.592 -0.2184 -2.4990  1.9107
  271MOL0     H36565   9.116   2.025   1.487 -0.0678 -0.3598 -1.1256
  271MOL0     H36566   9.057   2.133   1.368  0.3525 -0.8856 -0.2259
  271MOL0     H36567   8.834   2.730   2.174  0.2450  0.6005  0.4332
  271MOL0     H36568   8.833   2.884   2.364 -2.9399 -1.1880 -0.0403
  271MOL0     H36569   9.006   3.307   2.453  0.5677 -1.7206  0.8060
  271MOL0     H36570   9.047   3.516   2.584 -1.4573  1.6801  1.1374
  271MOL0     H36571  10.159   4.366   3.147 -0.2146 -2.5961  0.9452
  271MOL0     H36572  10.355   4.473   3.156 -2.4639  0.7724 -0.9486
  271MOL0     H36573  10.708   4.645   3.422  1.7487  0.0207 -1.8058
  271MOL0     H36574  10.914   4.757   3.516  0.4799  0.7606 -2.2170
  271MOL0     H36575  10.883   5.176   3.628 -0.7627 -3.1471  4.9533
  271MOL0     H36576  11.051   5.144   3.680  0.3282  1.6047 -0.1346
  271MOL0     H36577  10.994   5.165   3.380  0.2346 -0.5298  0.9297
  271MOL0     H36578  11.151   5.171   3.457  0.9196 -0.0612  2.1483
  271MOL0     H36579  10.932   5.383   3.502  0.8001  0.1734  2.3858
  271MOL0     H36580  11.064   5.399   3.386 -1.4795  1.2550  0.4866
  271MOL0     H36581  11.232   5.345   3.590 -2.1856 -4.3945  1.1417
  271MOL0     H36582  11.087   5.384   3.690  1.3589  0.3097  0.4139
  271MOL0     H36583  11.154   5.760   3.557 -0.3661  0.1548 -0.1692
  271MOL0     H36584  10.702   5.127   3.530 -0.4040 -0.5065  0.5558
  271MOL0     H36585  10.520   5.031   3.413  0.3199  0.2680 -4.2504
  272MOL0     O36586   9.405   4.471   0.556 -0.1170  0.1779 -0.3556
  272MOL0     C36587   9.299   4.404   0.592  0.1858 -0.0811 -0.6058
  272MOL0     O36588   9.196   4.455   0.651 -0.7060 -0.1509  0.5467
  272MOL0     C36589   9.182   4.590   0.645 -0.0687  0.0721  0.1374
  272MOL0     C36590   9.217   4.670   0.752 -0.2745 -0.6972 -0.0359
  272MOL0     C36591   9.227   4.806   0.741 -0.5798  0.0028 -0.0208
  272MOL0     C36592   9.205   4.872   0.615  0.3544 -0.2783  0.3574
  272MOL0     O36593   9.210   5.002   0.586  0.3089 -0.0758 -1.0432
  272MOL0     C36594   9.266   5.093   0.683 -0.6037 -0.0800 -0.6128
  272MOL0     C36595   9.281   5.229   0.627 -0.5024 -0.8117  0.4731
  272MOL0     C36596   9.149   5.300   0.595  0.8201 -0.2894  0.4716
  272MOL0     C36597   9.161   5.452   0.594  0.4627  0.2763  0.6425
  272MOL0     C36598   9.146   5.527   0.458 -0.1819 -0.2254 -0.2556
  272MOL0     C36599   9.273   5.539   0.386  1.0845  0.6570 -0.2844
  272MOL0     C36600   9.257   5.580   0.239 -0.0847  0.3034 -0.5096
  272MOL0     C36601   9.397   5.567   0.174 -0.0909 -0.9231  0.0930
  272MOL0     N36602   9.383   5.554   0.025 -0.4478  0.4010  0.6529
  272MOL0     C36603   9.374   5.658  -0.070 -0.5213  1.1766  0.5227
  272MOL0     C36604   9.370   5.582  -0.187 -0.1606  0.0669  1.1372
  272MOL0     C36605   9.376   5.641  -0.323  0.0443 -0.5099  0.4758
  272MOL0     C36606   9.240   5.644  -0.390 -0.2219 -0.5046 -0.2444
  272MOL0     C36607   9.252   5.664  -0.545 -0.7789 -0.0942 -0.6812
  272MOL0     C36608   9.313   5.546  -0.628 -0.3595  0.0108  0.1491
  272MOL0     O36609   9.316   5.589  -0.761  0.2201 -0.3160  0.3006
  272MOL0     C36610   9.376   5.516  -0.861  0.2583 -0.5482  0.4438
  272MOL0     C36611   9.342   5.545  -0.992  0.1484 -0.1243  0.3257
  272MOL0     C36612   9.398   5.474  -1.098  0.3006 -0.8862  0.0710
  272MOL0     C36613   9.362   5.519  -1.239  0.4100  0.1191 -1.1244
  272MOL0     C36614   9.486   5.367  -1.074  0.8092 -0.2707  0.2133
  272MOL0     C36615   9.543   5.300  -1.190  0.4637 -0.1019 -0.3700
  272MOL0     O36616   9.505   5.159  -1.189  0.7266 -0.7139 -0.1824
  272MOL0     C36617   9.547   5.083  -1.300  1.3206  0.1418  0.8623
  272MOL0     C36618   9.440   5.019  -1.361  1.0614 -0.9462  0.2183
  272MOL0     C36619   9.464   4.938  -1.474 -0.1200 -0.4244 -0.7383
  272MOL0     C36620   9.596   4.913  -1.516 -0.3546 -0.6670 -0.2780
  272MOL0     O36621   9.628   4.826  -1.617  0.4423  0.0678 -0.4744
  272MOL0     C36622   9.540   4.718  -1.646 -0.0889  0.5067  0.4107
  272MOL0     C36623   9.615   4.617  -1.732  0.7222  0.3684  0.0178
  272MOL0     C36624   9.693   4.690  -1.846  0.2553 -0.0619 -0.5827
  272MOL0     C36625   9.751   4.599  -1.959  0.3259  1.3141 -0.7248
  272MOL0     C36626   9.876   4.516  -1.910  0.0459  0.1937  0.4522
  272MOL0     C36627   9.920   4.408  -2.017 -1.1049 -0.0009  0.0898
  272MOL0     C36628  10.056   4.337  -1.986  0.6240 -0.4873  0.4942
  272MOL0     C36629  10.044   4.239  -1.872 -0.3234  1.1212  1.0827
  272MOL0    Cl36630   9.991   4.101  -1.963  0.0355 -0.0581 -0.1408
  272MOL0     C36631   9.702   4.981  -1.451 -0.1062 -0.6836  0.3846
  272MOL0     C36632   9.677   5.066  -1.347  0.1488 -0.0123 -0.1178
  272MOL0     O36633   9.631   5.350  -1.262 -0.0084  0.3940  0.7999
  272MOL0     C36634   9.511   5.329  -0.943 -0.4810  0.3240  0.1183
  272MOL0     C36635   9.453   5.401  -0.838 -0.0506 -0.9365 -1.0086
  272MOL0     N36636   9.364   5.447  -0.161  0.2800 -0.4113  0.3199
  272MOL0     N36637   9.357   5.433  -0.035 -0.6074 -0.1505 -0.2448
  272MOL0     C36638   9.165   4.792   0.508 -0.2249  0.8617  0.6653
  272MOL0     C36639   9.151   4.650   0.522 -0.0629 -0.4652 -0.1391
  272MOL0     C36640   9.303   4.262   0.593 -0.5596  0.9184 -0.0286
  272MOL0     C36641   9.224   4.185   0.682 -0.1868  0.1087  0.6169
  272MOL0     C36642   9.231   4.042   0.671 -0.4553  0.8471  0.6205
  272MOL0     C36643   9.309   3.975   0.576  0.3958  0.4637 -0.3557
  272MOL0     O36644   9.316   3.838   0.572  0.4723  0.1790 -0.8615
  272MOL0     C36645   9.234   3.753   0.647 -0.1955 -1.3629 -0.1695
  272MOL0     C36646   9.267   3.607   0.606  0.4443 -0.1316 -0.3741
  272MOL0     C36647   9.396   3.550   0.683  0.6891 -0.9672  0.4920
  272MOL0     C36648   9.389   3.542   0.836 -0.1681  0.1720  0.3377
  272MOL0     C36649   9.251   3.532   0.891 -1.0038  0.1775  0.4321
  272MOL0     C36650   9.141   3.504   0.931  0.4826 -0.3868  0.9782
  272MOL0     C36651   9.386   4.053   0.492  0.8926 -0.7370  0.5683
  272MOL0     C36652   9.389   4.198   0.500 -0.0056  0.0394  0.2272
  272MOL0     H36653   9.243   4.623   0.846  0.5705  4.1174  2.4711
  272MOL0     H36654   9.269   4.859   0.825 -2.6244  0.0794  1.0271
  272MOL0     H36655   9.199   5.093   0.770  0.9853  0.5878  0.6647
  272MOL0     H36656   9.363   5.061   0.721 -1.5634 -0.5609  1.5730
  272MOL0     H36657   9.325   5.298   0.700 -1.7606  0.8170 -0.2543
  272MOL0     H36658   9.338   5.221   0.533  1.5261 -1.9147  1.7175
  272MOL0     H36659   9.117   5.261   0.499  2.2429  0.4568 -0.3413
  272MOL0     H36660   9.080   5.272   0.675 -1.3226  0.8972 -0.8646
  272MOL0     H36661   9.077   5.488   0.654  0.5741  2.2778 -0.2944
  272MOL0     H36662   9.249   5.493   0.644  0.4916  0.7202  0.2450
  272MOL0     H36663   9.060   5.493   0.400 -2.3522 -0.3394  2.8088
  272MOL0     H36664   9.116   5.622   0.503 -0.2356 -1.0433  1.5234
  272MOL0     H36665   9.339   5.608   0.441  2.2178 -1.4967  1.1808
  272MOL0     H36666   9.320   5.442   0.403  0.2588  0.6743  2.6544
  272MOL0     H36667   9.188   5.508   0.194 -0.9151  1.4546 -1.1386
  272MOL0     H36668   9.206   5.677   0.232  0.0194  0.3261 -0.9998
  272MOL0     H36669   9.442   5.473   0.207  0.2803 -1.3267 -1.4555
  272MOL0     H36670   9.459   5.652   0.205 -1.3283  0.7093 -1.6901
  272MOL0     H36671   9.382   5.765  -0.053 -0.8016  1.1539  0.7984
  272MOL0     H36672   9.401   5.746  -0.306 -0.5785 -0.4358  0.9458
  272MOL0     H36673   9.449   5.587  -0.385 -0.3170  1.0264 -1.4015
  272MOL0     H36674   9.183   5.723  -0.341  3.4478  1.7241  0.8470
  272MOL0     H36675   9.184   5.552  -0.372 -1.6371  0.8982  3.3016
  272MOL0     H36676   9.300   5.758  -0.576 -1.4277  0.1966 -0.8189
  272MOL0     H36677   9.147   5.676  -0.572 -0.8250 -0.5635 -0.7154
  272MOL0     H36678   9.239   5.465  -0.620 -3.2673  2.3384 -1.0052
  272MOL0     H36679   9.412   5.522  -0.589  0.9927  1.2235 -2.2882
  272MOL0     H36680   9.274   5.627  -1.012  1.5475  1.2119  0.8395
  272MOL0     H36681   9.261   5.562  -1.236 -1.0148 -2.3103 -5.3509
  272MOL0     H36682   9.425   5.592  -1.290 -0.4338  1.0227 -0.9136
  272MOL0     H36683   9.354   5.439  -1.313  0.7586  0.5386 -1.6245
  272MOL0     H36684   9.342   5.039  -1.320  1.0350 -1.7674  0.5700
  272MOL0     H36685   9.370   4.901  -1.514 -0.2864 -0.0265 -0.7278
  272MOL0     H36686   9.499   4.676  -1.553 -1.6844 -1.2777 -1.0311
  272MOL0     H36687   9.463   4.764  -1.708  0.1868  0.6662  0.1873
  272MOL0     H36688   9.681   4.559  -1.665 -0.3833  0.8982  1.6330
  272MOL0     H36689   9.547   4.542  -1.772  0.2594 -0.5156  2.2695
  272MOL0     H36690   9.776   4.749  -1.806  0.7476 -0.0901 -1.5299
  272MOL0     H36691   9.634   4.763  -1.902  3.5006  3.7634  0.4998
  272MOL0     H36692   9.672   4.532  -1.992 -0.1468  0.8494  1.2291
  272MOL0     H36693   9.784   4.657  -2.046 -0.9166 -0.3147 -2.3493
  272MOL0     H36694   9.849   4.464  -1.818  3.1024 -1.9409  0.3041
  272MOL0     H36695   9.958   4.585  -1.885  1.2269 -0.3543 -1.6110
  272MOL0     H36696   9.845   4.331  -2.039  2.3998 -2.9332 -3.0604
  272MOL0     H36697   9.939   4.461  -2.111  0.3081  0.9092  0.8628
  272MOL0     H36698  10.135   4.405  -1.953 -1.2505  1.5254  1.0975
  272MOL0     H36699  10.085   4.278  -2.073 -1.6929  2.4971 -2.5862
  272MOL0     H36700   9.970   4.263  -1.795  1.0048 -0.4258  2.9291
  272MOL0     H36701  10.144   4.229  -1.829 -0.3442  2.8232  1.5980
  272MOL0     H36702   9.805   4.973  -1.484  0.6681  1.9441  1.8680
  272MOL0     H36703   9.746   5.112  -1.276  0.3084 -1.3171  0.6085
  272MOL0     H36704   9.579   5.244  -0.931 -1.6972 -0.4199  2.3497
  272MOL0     H36705   9.479   5.377  -0.736 -0.0310  1.1887 -0.4704
  272MOL0     H36706   9.128   4.833   0.414 -0.6531 -2.9314 -1.0258
  272MOL0     H36707   9.117   4.587   0.441  1.4687 -0.2303 -1.0082
  272MOL0     H36708   9.152   4.231   0.749  0.2763 -1.1853  2.0711
  272MOL0     H36709   9.166   3.993   0.743 -2.2099  0.4183 -1.1392
  272MOL0     H36710   9.235   3.772   0.755 -3.7439  1.9736 -0.5217
  272MOL0     H36711   9.134   3.778   0.611  0.5371 -0.7002 -1.8616
  272MOL0     H36712   9.275   3.598   0.497  0.6400 -3.7021 -0.1709
  272MOL0     H36713   9.178   3.548   0.631  1.6830 -3.1414 -2.5088
  272MOL0     H36714   9.480   3.618   0.665 -0.0678 -0.0702  0.2135
  272MOL0     H36715   9.426   3.453   0.644 -1.0999 -1.2479 -0.2910
  272MOL0     H36716   9.428   3.637   0.872  0.6443 -0.1904  0.4331
  272MOL0     H36717   9.452   3.467   0.885  0.2126  2.5129  3.7536
  272MOL0     H36718   9.041   3.471   0.954  0.9928 -3.7444 -0.8792
  272MOL0     H36719   9.450   4.008   0.417 -2.2086 -3.1250 -0.8879
  272MOL0     H36720   9.447   4.254   0.427 -2.0812  1.2329 -0.6185
  273MOL0     O36721   7.858   9.982   9.278 -0.5345  0.4901  0.8555
  273MOL0     C36722   7.940   9.885   9.286 -0.0253  0.7351  0.7684
  273MOL0     O36723   8.028   9.871   9.389  0.3989  0.1803 -0.3899
  273MOL0     C36724   8.066   9.976   9.462 -0.5260  0.3191  0.5210
  273MOL0     C36725   8.111   9.927   9.585  0.0296  0.3583  0.7416
  273MOL0     C36726   8.152  10.013   9.681 -0.5700 -0.1530  0.1220
  273MOL0     C36727   8.157  10.155   9.664  0.4079  0.5388  0.7855
  273MOL0     O36728   8.193  10.228   9.775 -0.0133  0.1457  0.0157
  273MOL0     C36729   8.160  10.368   9.786 -0.6374 -1.0256 -0.6631
  273MOL0     C36730   8.015  10.365   9.828  0.6546 -0.1626 -0.1838
  273MOL0     C36731   8.000  10.339   9.982 -0.2232  0.2726  0.0943
  273MOL0     C36732   7.860  10.290  10.021  0.5242 -0.2462 -0.2252
  273MOL0     C36733   7.866  10.214  10.154  0.5180  0.6948 -0.1224
  273MOL0     C36734   7.887  10.300  10.280  0.2811 -0.3663  0.3360
  273MOL0     C36735   7.870  10.223  10.416 -1.1848  0.3452 -0.1366
  273MOL0     C36736   7.996  10.149  10.461  0.3346  0.1482  0.4499
  273MOL0     N36737   8.071  10.076  10.360  0.2558  0.3584  0.0572
  273MOL0     C36738   8.178  10.136  10.287  0.4508  0.8269 -0.1925
  273MOL0     C36739   8.217  10.048  10.193 -0.0900 -0.8994 -0.0698
  273MOL0     C36740   8.313  10.094  10.089 -1.3973  0.3659  0.8226
  273MOL0     C36741   8.465  10.091  10.117 -0.2931 -1.0590  0.1710
  273MOL0     C36742   8.501  10.220  10.206 -1.0425  0.3272  1.1001
  273MOL0     C36743   8.654  10.230  10.234 -1.0231  0.5254  0.0161
  273MOL0     O36744   8.741  10.233  10.115 -0.0592 -0.1128 -0.1388
  273MOL0     C36745   8.868  10.213  10.150 -0.5863  0.2983 -0.0262
  273MOL0     C36746   8.958  10.142  10.070  0.1854 -0.3964  0.7066
  273MOL0     C36747   9.098  10.119  10.107  1.0547 -0.6883  0.2255
  273MOL0     C36748   9.171  10.027  10.017  0.2229  0.3239 -0.1189
  273MOL0     C36749   9.156  10.185  10.218  0.4833  0.2998 -0.3914
  273MOL0     C36750   9.300  10.183  10.241  0.7054  1.2110 -0.1301
  273MOL0     O36751   9.349  10.272  10.336  0.5045  0.5423 -1.1476
  273MOL0     C36752   9.480  10.268  10.387 -0.2830  0.6577  1.0251
  273MOL0     C36753   9.494  10.215  10.518  0.3773 -0.2326 -1.0558
  273MOL0     C36754   9.622  10.196  10.577 -0.1758 -0.5040 -0.0983
  273MOL0     C36755   9.733  10.209  10.497  0.3238 -0.6007 -0.5341
  273MOL0     O36756   9.857  10.193  10.552  0.6850 -0.6872  0.6717
  273MOL0     C36757   9.967  10.265  10.488 -0.4968 -0.8153 -0.4356
  273MOL0     C36758  10.096  10.282  10.576  0.2255 -0.5060 -0.2710
  273MOL0     C36759  10.075  10.396  10.677 -0.3545  0.0986 -0.7552
  273MOL0     C36760  10.040  10.533  10.621 -0.0723  0.0305  0.1671
  273MOL0     C36761  10.034  10.651  10.729 -0.6848 -0.9531  0.9472
  273MOL0     C36762  10.163  10.685  10.802  0.7421  0.2796  0.5565
  273MOL0     C36763  10.280  10.720  10.695  0.0646 -0.2440 -0.7078
  273MOL0     C36764  10.377  10.604  10.675  0.7737  0.2097  0.0670
  273MOL0    Cl36765  10.494  10.652  10.546 -0.0314  0.1091  0.3655
  273MOL0     C36766   9.718  10.255  10.362  0.9441  0.6735 -0.2142
  273MOL0     C36767   9.595  10.299  10.314 -1.1861 -0.5625  0.1292
  273MOL0     O36768   9.372  10.113  10.176 -0.3874 -0.4187 -0.2180
  273MOL0     C36769   9.068  10.271  10.298  0.2939 -0.0815 -0.0212
  273MOL0     C36770   8.927  10.283  10.259 -0.3428  0.1075 -0.5072
  273MOL0     N36771   8.145   9.933  10.226  0.0226  0.8831  0.0284
  273MOL0     N36772   8.052   9.946  10.315 -0.1699 -0.9829  1.4311
  273MOL0     C36773   8.098  10.204   9.539 -0.6291 -1.5873 -0.3417
  273MOL0     C36774   8.064  10.113   9.435  0.7363  0.6504 -0.6693
  273MOL0     C36775   7.930   9.778   9.175  0.2079  1.1333  0.4079
  273MOL0     C36776   7.831   9.803   9.072 -0.4682  0.1763 -0.2779
  273MOL0     C36777   7.824   9.707   8.965 -0.3765 -1.4789 -0.4372
  273MOL0     C36778   7.902   9.605   8.954  0.6233  1.0084  0.3657
  273MOL0     O36779   7.897   9.525   8.838 -0.2899  0.4354 -0.0056
  273MOL0     C36780   8.001   9.423   8.827  0.1431  0.3896  0.4250
  273MOL0     C36781   7.943   9.305   8.738  0.0187  1.0347  0.1691
  273MOL0     C36782   8.019   9.176   8.766 -0.4340  0.3080  0.0969
  273MOL0     C36783   8.164   9.176   8.715 -0.8674 -0.0997  0.7403
  273MOL0     C36784   8.183   9.187   8.569  0.3944 -0.1576  0.0780
  273MOL0     C36785   8.183   9.221   8.453 -0.7917  0.1088 -0.2886
  273MOL0     C36786   7.994   9.583   9.060 -0.6063  0.3402  0.3748
  273MOL0     C36787   8.008   9.670   9.166 -0.2596 -0.3860 -1.4126
  273MOL0     H36788   8.106   9.818   9.583 -3.5597  0.2622 -4.1706
  273MOL0     H36789   8.170   9.977   9.782  0.7977 -0.2343 -0.1365
  273MOL0     H36790   8.234  10.422   9.846  0.2733 -0.4492 -2.2650
  273MOL0     H36791   8.173  10.415   9.689  2.9899 -1.3073 -0.4310
  273MOL0     H36792   7.969  10.462   9.804 -0.4303 -1.3961 -3.8761
  273MOL0     H36793   7.965  10.294   9.762 -0.9503  1.3333 -0.6622
  273MOL0     H36794   8.071  10.258  10.002 -0.1147  0.1866 -0.5959
  273MOL0     H36795   8.028  10.434  10.027  1.5709  1.4677 -3.2375
  273MOL0     H36796   7.789  10.373  10.015 -2.0715 -2.2801  0.2422
  273MOL0     H36797   7.822  10.217   9.949  1.5052  0.2496 -1.2920
  273MOL0     H36798   7.764  10.177  10.164  0.4249  0.8076 -0.6298
  273MOL0     H36799   7.941  10.137  10.138  1.8020  1.9682 -0.4173
  273MOL0     H36800   7.980  10.355  10.263 -1.8597  3.3305 -0.6304
  273MOL0     H36801   7.812  10.380  10.277  0.0392 -0.6123 -0.4177
  273MOL0     H36802   7.844  10.291  10.497 -2.0799  0.8378 -0.8139
  273MOL0     H36803   7.788  10.154  10.394 -0.0139 -1.0727 -0.2142
  273MOL0     H36804   7.978  10.078  10.542 -2.7471 -1.8064 -1.7033
  273MOL0     H36805   8.077  10.216  10.492  1.9175 -1.4532 -0.0802
  273MOL0     H36806   8.200  10.243  10.294  4.8618  0.0264  2.0212
  273MOL0     H36807   8.291  10.042   9.995  2.7290  1.2799 -0.8538
  273MOL0     H36808   8.283  10.198  10.071  2.0524  1.3665  0.2040
  273MOL0     H36809   8.518  10.099  10.022  4.4693 -0.0512  2.6219
  273MOL0     H36810   8.488  10.000  10.172 -2.1811 -1.0638  1.0314
  273MOL0     H36811   8.454  10.226  10.304 -1.3512  0.3843  0.9483
  273MOL0     H36812   8.470  10.307  10.147 -2.1620 -1.3150 -0.8801
  273MOL0     H36813   8.678  10.144  10.298  3.3784  1.5048 -0.0642
  273MOL0     H36814   8.659  10.320  10.296 -1.6087  0.1308  0.6601
  273MOL0     H36815   8.926  10.092   9.978  2.6578 -0.9393  0.0727
  273MOL0     H36816   9.232  10.083   9.946  2.2028 -0.8839  0.5612
  273MOL0     H36817   9.239   9.958  10.067 -0.5678 -1.2352 -1.1160
  273MOL0     H36818   9.102   9.971   9.952  1.6201  0.2033 -1.5573
  273MOL0     H36819   9.402  10.189  10.570  1.4708 -1.8773  0.1653
  273MOL0     H36820   9.637  10.149  10.674 -0.6143  1.6479  1.0715
  273MOL0     H36821  10.009  10.208  10.405  1.3460 -2.6024  1.6117
  273MOL0     H36822   9.945  10.364  10.447  2.6093  0.9274  1.6426
  273MOL0     H36823  10.121  10.180  10.606  0.9636 -0.3051 -0.2018
  273MOL0     H36824  10.175  10.320  10.511  0.1886 -2.3065 -1.4299
  273MOL0     H36825  10.175  10.403  10.721 -0.4734 -0.1978 -0.4318
  273MOL0     H36826   9.996  10.360  10.744 -0.2951  2.8959  0.9940
  273MOL0     H36827  10.095  10.562  10.531 -3.4434  3.9187 -0.9343
  273MOL0     H36828   9.936  10.526  10.588 -0.1307  2.1045 -0.2639
  273MOL0     H36829   9.949  10.633  10.796 -2.6974  2.3817 -0.4391
  273MOL0     H36830   9.991  10.733  10.671 -1.1579 -1.6519  0.2972
  273MOL0     H36831  10.132  10.774  10.858  0.0944  1.1672 -1.1699
  273MOL0     H36832  10.194  10.607  10.873 -0.3905 -0.3902  0.3466
  273MOL0     H36833  10.338  10.800  10.743  2.9933 -1.7932 -1.4250
  273MOL0     H36834  10.252  10.755  10.595  0.8628 -0.5479 -1.0417
  273MOL0     H36835  10.315  10.519  10.645 -2.3343  2.3482 -0.0360
  273MOL0     H36836  10.423  10.583  10.772  0.0986  3.2823  1.1503
  273MOL0     H36837   9.801  10.265  10.292  1.7872 -0.0375  0.6396
  273MOL0     H36838   9.593  10.347  10.217  0.7986  0.0868  0.3595
  273MOL0     H36839   9.114  10.328  10.379  1.3527  0.2305 -0.8188
  273MOL0     H36840   8.865  10.359  10.305 -1.2644 -1.1250  0.3275
  273MOL0     H36841   8.079  10.310   9.536 -0.6080 -1.5085  1.3000
  273MOL0     H36842   8.001  10.152   9.355 -0.7664 -0.2776  0.0023
  273MOL0     H36843   7.779   9.899   9.068  0.8042  0.9348  0.7436
  273MOL0     H36844   7.768   9.728   8.875 -1.7012  1.1851  0.8708
  273MOL0     H36845   8.095   9.461   8.787 -0.6472  1.8812 -0.0695
  273MOL0     H36846   8.017   9.377   8.926  3.7282  2.3655  0.9290
  273MOL0     H36847   7.951   9.323   8.631 -0.2338  1.2807  0.1909
  273MOL0     H36848   7.837   9.295   8.761 -0.3625 -0.3045 -1.9700
  273MOL0     H36849   7.969   9.102   8.702  2.2863  0.0886 -1.9740
  273MOL0     H36850   8.007   9.146   8.870 -1.0348 -2.4147 -0.6763
  273MOL0     H36851   8.218   9.085   8.742  2.6543  1.3717 -0.7925
  273MOL0     H36852   8.217   9.257   8.765  2.1071 -1.7725  0.5143
  273MOL0     H36853   8.162   9.247   8.351 -0.6645  0.9193 -0.1182
  273MOL0     H36854   8.061   9.498   9.066 -0.9223  0.0362 -0.2252
  273MOL0     H36855   8.072   9.662   9.253 -1.8756 -2.3657 -0.3182
  274MOL0     O36856   0.189   6.994  10.497  0.0763  0.4123 -0.0152
  274MOL0     C36857   0.263   7.090  10.484  0.6388  0.5702  0.8773
  274MOL0     O36858   0.312   7.183  10.581  0.2063 -0.2372  0.1466
  274MOL0     C36859   0.269   7.183  10.707 -0.5879  0.1257  1.1004
  274MOL0     C36860   0.347   7.272  10.794  0.1872  0.3109  0.6102
  274MOL0     C36861   0.315   7.292  10.923  0.6838  0.1525 -0.0352
  274MOL0     C36862   0.191   7.250  10.972  0.1454 -0.4762 -0.2850
  274MOL0     O36863   0.146   7.290  11.089  0.3790  0.8784 -0.2530
  274MOL0     C36864   0.011   7.324  11.095 -0.0985 -0.0330 -0.4602
  274MOL0     C36865   0.010   7.452  11.173 -0.3553 -0.0847  0.2174
  274MOL0     C36866  -0.142   7.480  11.192 -0.5261  0.1995  0.0087
  274MOL0     C36867  -0.159   7.621  11.243 -1.1385 -0.8674 -0.3478
  274MOL0     C36868  -0.305   7.655  11.275  0.0070  0.2816 -0.7765
  274MOL0     C36869  -0.348   7.579  11.398  0.5291  0.4346  0.8505
  274MOL0     C36870  -0.502   7.560  11.411  0.4535 -0.1885 -0.0187
  274MOL0     C36871  -0.584   7.684  11.415 -0.6938 -0.2518  0.1406
  274MOL0     N36872  -0.728   7.654  11.397 -0.6539 -0.3967  0.5749
  274MOL0     C36873  -0.808   7.601  11.486  0.3121  0.2667  0.4934
  274MOL0     C36874  -0.928   7.589  11.416 -0.5465  0.1520  1.1705
  274MOL0     C36875  -1.053   7.559  11.485  0.3309  0.8613 -0.1068
  274MOL0     C36876  -1.093   7.416  11.445 -0.6170 -0.5310 -0.4614
  274MOL0     C36877  -1.022   7.306  11.526  0.4760  0.9307 -0.5269
  274MOL0     C36878  -1.018   7.181  11.444  1.2971  0.5895 -0.0128
  274MOL0     O36879  -0.911   7.103  11.488 -0.5918  0.6841  0.4734
  274MOL0     C36880  -0.790   7.114  11.410  0.4219 -0.4628 -0.2395
  274MOL0     C36881  -0.765   7.218  11.323  0.8736 -0.3433 -0.8625
  274MOL0     C36882  -0.655   7.212  11.233 -0.3703 -0.2446 -0.9114
  274MOL0     C36883  -0.636   7.319  11.125  1.0035  0.5568  0.0818
  274MOL0     C36884  -0.571   7.097  11.231 -1.0285 -0.3055  0.1920
  274MOL0     C36885  -0.445   7.073  11.147 -0.7318  0.4612  0.2445
  274MOL0     O36886  -0.404   6.937  11.132 -0.5386  1.0086  0.7529
  274MOL0     C36887  -0.295   6.896  11.051  0.4987  0.1278 -0.0876
  274MOL0     C36888  -0.173   6.888  11.113 -0.3994 -1.6932 -0.2366
  274MOL0     C36889  -0.060   6.855  11.042 -0.1901 -0.7791  0.2768
  274MOL0     C36890  -0.064   6.797  10.910  0.0433  0.4145 -0.5104
  274MOL0     O36891   0.062   6.764  10.860 -0.2924 -0.0770 -0.4828
  274MOL0     C36892   0.062   6.713  10.717  0.1306  0.1879  0.1755
  274MOL0     C36893   0.203   6.685  10.677 -0.4234 -0.6292  1.0141
  274MOL0     C36894   0.277   6.554  10.717  0.5371  0.1669  0.0859
  274MOL0     C36895   0.391   6.525  10.614  0.8479 -1.4046 -0.4048
  274MOL0     C36896   0.429   6.377  10.608  0.1269 -0.7097 -1.2132
  274MOL0     C36897   0.459   6.328  10.751  0.9913 -0.6359  0.9071
  274MOL0     C36898   0.502   6.178  10.747 -0.7677  0.6101 -1.3009
  274MOL0     C36899   0.644   6.155  10.813  0.0363  0.2081 -0.3311
  274MOL0    Cl36900   0.763   6.214  10.702  0.2905 -0.0796  0.3389
  274MOL0     C36901  -0.195   6.799  10.852 -0.5994 -0.0012 -0.9247
  274MOL0     C36902  -0.310   6.844  10.924  0.0885  0.0755 -1.0144
  274MOL0     O36903  -0.375   7.170  11.130  0.0270  0.6945  0.1899
  274MOL0     C36904  -0.600   6.996  11.326  0.0119  0.1017 -0.2738
  274MOL0     C36905  -0.703   7.006  11.408 -0.4167  0.6225  0.1914
  274MOL0     N36906  -0.902   7.623  11.285 -0.6119 -0.1897 -0.9446
  274MOL0     N36907  -0.783   7.658  11.273 -0.5961  0.4544  0.1716
  274MOL0     C36908   0.120   7.148  10.892  0.2181 -0.0549 -0.3246
  274MOL0     C36909   0.159   7.122  10.767 -0.1400  0.9841  0.1284
  274MOL0     C36910   0.313   7.105  10.348 -0.0609 -0.4392  0.3955
  274MOL0     C36911   0.374   7.218  10.295  0.1713 -0.3457  0.0721
  274MOL0     C36912   0.425   7.225  10.161 -0.6134 -0.6702 -0.8825
  274MOL0     C36913   0.419   7.118  10.076 -0.0387  0.0161 -0.1807
  274MOL0     O36914   0.456   7.144   9.944  0.6108 -0.2363 -1.1833
  274MOL0     C36915   0.373   7.081   9.840 -1.2420 -0.4984  0.5938
  274MOL0     C36916   0.290   7.197   9.789  0.1132  0.7894 -0.1630
  274MOL0     C36917   0.367   7.287   9.702 -0.2020 -0.0648 -0.4084
  274MOL0     C36918   0.297   7.402   9.636 -0.3702 -0.6259  0.2787
  274MOL0     C36919   0.178   7.359   9.560  0.2997  0.2645  0.4148
  274MOL0     C36920   0.088   7.318   9.491 -0.4082  0.1716 -0.0720
  274MOL0     C36921   0.366   6.998  10.131  0.6387 -0.6939 -0.6196
  274MOL0     C36922   0.300   6.996  10.256 -0.0447  0.2831  0.8867
  274MOL0     H36923   0.439   7.320  10.762  1.2681 -1.3754  1.0759
  274MOL0     H36924   0.388   7.349  10.980  1.5900  1.7962 -2.6510
  274MOL0     H36925  -0.033   7.336  10.995 -1.3224 -3.6617 -0.4975
  274MOL0     H36926  -0.040   7.248  11.154  0.8494 -0.4305 -0.1331
  274MOL0     H36927   0.057   7.434  11.270 -0.6378 -1.4466  0.1171
  274MOL0     H36928   0.058   7.538  11.125 -1.2648  0.6483  0.5995
  274MOL0     H36929  -0.194   7.470  11.096  0.6299 -0.2336 -0.5860
  274MOL0     H36930  -0.186   7.410  11.265  0.9545 -0.3390  0.4125
  274MOL0     H36931  -0.096   7.645  11.329 -0.9330  0.2604 -0.7933
  274MOL0     H36932  -0.120   7.684  11.162 -1.1591 -0.4345 -0.0250
  274MOL0     H36933  -0.327   7.759  11.302 -1.1122  0.1597 -1.2005
  274MOL0     H36934  -0.366   7.638  11.186 -0.6475 -1.1391 -0.0917
  274MOL0     H36935  -0.302   7.479  11.394 -0.4375 -0.0024 -0.3238
  274MOL0     H36936  -0.320   7.627  11.492 -2.9224  4.4374  0.1315
  274MOL0     H36937  -0.537   7.497  11.328 -0.0036  0.9614 -0.7282
  274MOL0     H36938  -0.516   7.506  11.505  3.2228  0.5773  0.9329
  274MOL0     H36939  -0.559   7.750  11.331  2.0327 -1.2549  0.0675
  274MOL0     H36940  -0.571   7.743  11.507  1.6718  0.4559 -0.5862
  274MOL0     H36941  -0.789   7.582  11.591 -0.0624  1.9887  0.9133
  274MOL0     H36942  -1.044   7.590  11.590  3.4675  3.2018 -0.8968
  274MOL0     H36943  -1.127   7.624  11.437  0.5587 -0.5251 -2.4536
  274MOL0     H36944  -1.062   7.408  11.340  0.2545  1.3171 -0.3857
  274MOL0     H36945  -1.201   7.406  11.452 -1.0927  1.0738 -3.6199
  274MOL0     H36946  -1.070   7.299  11.624 -0.1607  0.3989 -0.8689
  274MOL0     H36947  -0.916   7.333  11.521  0.1701  3.3409  2.7246
  274MOL0     H36948  -1.028   7.202  11.337 -0.1010  0.6417  0.1035
  274MOL0     H36949  -1.111   7.131  11.472  2.2462  0.8112  4.1031
  274MOL0     H36950  -0.834   7.301  11.318  1.2799 -0.0155 -1.0623
  274MOL0     H36951  -0.536   7.320  11.082  0.7431  0.2623 -0.5515
  274MOL0     H36952  -0.701   7.297  11.039  4.7683 -0.0599 -2.8951
  274MOL0     H36953  -0.650   7.421  11.160 -3.2265  0.2476 -0.1355
  274MOL0     H36954  -0.159   6.937  11.209  3.7225  2.9687 -2.7796
  274MOL0     H36955   0.038   6.856  11.089  1.7856  2.9375 -3.2660
  274MOL0     H36956   0.007   6.619  10.710 -0.4301  0.4714  0.7028
  274MOL0     H36957   0.014   6.785  10.650 -1.1714  0.4134  1.2996
  274MOL0     H36958   0.205   6.695  10.568 -0.8351 -1.6671  0.9023
  274MOL0     H36959   0.267   6.766  10.713  1.3178 -2.1360  1.4659
  274MOL0     H36960   0.197   6.481  10.697  1.2978 -0.5575 -0.4208
  274MOL0     H36961   0.306   6.543  10.821  2.1037  0.1080 -0.3295
  274MOL0     H36962   0.351   6.548  10.515  3.2029 -1.4234 -1.4351
  274MOL0     H36963   0.473   6.596  10.627 -1.6018  1.7183 -0.7392
  274MOL0     H36964   0.516   6.366  10.544  1.6816 -1.8803  0.9455
  274MOL0     H36965   0.348   6.319  10.563 -0.0758  0.4302 -2.3539
  274MOL0     H36966   0.532   6.396  10.795  1.3735  2.0517 -3.2986
  274MOL0     H36967   0.371   6.336  10.815  0.3640  3.4077 -0.1848
  274MOL0     H36968   0.498   6.140  10.645  2.6163 -2.1380 -0.5590
  274MOL0     H36969   0.429   6.122  10.807 -1.7907  2.3477 -0.8349
  274MOL0     H36970   0.664   6.050  10.834 -4.1678 -1.1514 -2.1438
  274MOL0     H36971   0.662   6.205  10.909 -1.1065 -0.2869  0.1584
  274MOL0     H36972  -0.202   6.766  10.749  1.6974 -0.9218 -0.8584
  274MOL0     H36973  -0.406   6.834  10.875  1.2933 -0.8034 -3.3630
  274MOL0     H36974  -0.535   6.909  11.331  2.1165  1.3851 -2.5026
  274MOL0     H36975  -0.731   6.915  11.460 -0.0326  1.5268  2.0856
  274MOL0     H36976   0.033   7.098  10.933 -0.1001  0.8490  0.1336
  274MOL0     H36977   0.112   7.046  10.705  1.3667  0.5429 -0.5209
  274MOL0     H36978   0.396   7.304  10.358 -1.1395  0.6685 -0.7878
  274MOL0     H36979   0.458   7.325  10.135 -1.2024 -0.1195  0.4327
  274MOL0     H36980   0.433   7.043   9.756  1.2746 -0.1555  2.1412
  274MOL0     H36981   0.308   6.998   9.868 -0.6855 -1.5201 -0.9863
  274MOL0     H36982   0.256   7.234   9.887  0.7442 -2.0207  1.2026
  274MOL0     H36983   0.207   7.152   9.735  0.8269 -0.5133 -0.2041
  274MOL0     H36984   0.418   7.240   9.617 -0.9330 -0.6266 -0.5522
  274MOL0     H36985   0.441   7.337   9.765 -4.1099  3.1398  2.1331
  274MOL0     H36986   0.369   7.457   9.575 -1.1741  0.3859  0.2160
  274MOL0     H36987   0.265   7.476   9.710  1.9631  0.3615  0.4084
  274MOL0     H36988   0.018   7.276   9.421 -3.0478 -0.7599  2.8426
  274MOL0     H36989   0.368   6.917  10.057 -0.0705 -0.9637 -0.3510
  274MOL0     H36990   0.272   6.895  10.285 -1.9285  1.7253  4.6070
  275MOL0     O36991   5.788   6.574  10.967 -1.0489 -0.1969  0.0244
  275MOL0     C36992   5.721   6.562  11.072 -0.8376 -0.0537 -0.1021
  275MOL0     O36993   5.757   6.493  11.181 -0.2494  0.1593  0.2113
  275MOL0     C36994   5.891   6.454  11.189  0.1412  0.8374  0.5162
  275MOL0     C36995   5.976   6.513  11.280 -0.2075  0.3474 -0.3571
  275MOL0     C36996   6.109   6.463  11.284  0.8653 -0.3853 -0.5718
  275MOL0     C36997   6.155   6.352  11.219  0.6741 -0.8592 -0.2480
  275MOL0     O36998   6.288   6.328  11.233 -0.9084  0.6902 -0.1619
  275MOL0     C36999   6.345   6.211  11.181 -0.1652 -0.1706  0.9665
  275MOL0     C37000   6.398   6.259  11.040 -0.3405 -0.2670  0.4687
  275MOL0     C37001   6.488   6.383  11.050  0.4215 -0.6608 -0.5134
  275MOL0     C37002   6.552   6.427  10.913  0.9952  0.1575  0.5812
  275MOL0     C37003   6.625   6.566  10.925 -0.4561  0.3144  0.2851
  275MOL0     C37004   6.766   6.541  10.963 -0.5543 -0.3991 -0.7175
  275MOL0     C37005   6.832   6.673  10.991  0.8808 -0.2662 -0.4646
  275MOL0     C37006   6.952   6.654  11.088  0.4405  0.0876 -0.0316
  275MOL0     N37007   7.009   6.786  11.122 -0.4515  0.1063 -0.4233
  275MOL0     C37008   7.043   6.880  11.025 -0.1213  0.4354  1.1311
  275MOL0     C37009   7.100   6.975  11.097  0.2034 -0.1649  0.0152
  275MOL0     C37010   7.173   7.089  11.036  0.2026 -0.2049  0.4558
  275MOL0     C37011   7.279   7.151  11.123 -0.7238 -0.0959 -0.2652
  275MOL0     C37012   7.380   7.228  11.035  0.1756  0.5972 -0.3182
  275MOL0     C37013   7.483   7.295  11.108  0.0873  1.2128 -0.1109
  275MOL0     O37014   7.553   7.390  11.025  1.2053  0.2585  0.4694
  275MOL0     C37015   7.493   7.514  10.994  0.2275  0.5230 -0.7281
  275MOL0     C37016   7.543   7.578  10.874 -0.5257 -0.2968 -1.2459
  275MOL0     C37017   7.479   7.698  10.827  0.2815 -0.0562 -0.1833
  275MOL0     C37018   7.541   7.778  10.714 -0.6889 -0.2647  0.9715
  275MOL0     C37019   7.361   7.741  10.892  0.3657  0.2961  0.3843
  275MOL0     C37020   7.273   7.850  10.842 -0.3410  0.3849 -0.5566
  275MOL0     O37021   7.212   7.921  10.940  0.7154  0.0936 -0.0863
  275MOL0     C37022   7.136   8.028  10.902 -0.1777 -0.6130 -1.3624
  275MOL0     C37023   7.189   8.151  10.872  0.1889 -0.3547 -0.3744
  275MOL0     C37024   7.105   8.259  10.845 -0.1110  0.0684  0.5672
  275MOL0     C37025   6.963   8.255  10.853 -0.0900 -0.1056 -0.0678
  275MOL0     O37026   6.877   8.357  10.833  0.0171  0.1649  0.3784
  275MOL0     C37027   6.912   8.453  10.733  0.0785 -0.3801  0.3001
  275MOL0     C37028   6.932   8.400  10.595  1.0855 -0.1455  0.1021
  275MOL0     C37029   6.914   8.531  10.507 -0.2653  0.6092  0.9306
  275MOL0     C37030   7.025   8.533  10.399 -0.2223  0.5191  0.9152
  275MOL0     C37031   6.989   8.654  10.311  0.2337 -0.3766 -0.3857
  275MOL0     C37032   6.860   8.651  10.234 -0.3555  0.9582 -0.4541
  275MOL0     C37033   6.840   8.765  10.128 -0.1075  0.5808  0.4815
  275MOL0     C37034   6.705   8.748  10.061  0.2319  0.2309 -0.1067
  275MOL0    Cl37035   6.569   8.781  10.171  0.3106 -0.1318  0.0930
  275MOL0     C37036   6.917   8.133  10.885 -0.6642  0.8133  1.0658
  275MOL0     C37037   7.000   8.017  10.908  0.4645  0.1575  0.6622
  275MOL0     O37038   7.251   7.857  10.722 -0.1566 -0.7949 -0.6442
  275MOL0     C37039   7.315   7.677  11.006 -0.4554 -0.0932 -0.0919
  275MOL0     C37040   7.383   7.566  11.064 -0.7870  0.1597 -0.1694
  275MOL0     N37041   7.079   6.960  11.238  0.5790  0.8057 -0.2288
  275MOL0     N37042   7.025   6.836  11.250 -0.2178 -0.3850 -0.1711
  275MOL0     C37043   6.069   6.301  11.121 -0.1091 -0.1229  0.1011
  275MOL0     C37044   5.933   6.343  11.113  0.3679  0.0552 -0.3242
  275MOL0     C37045   5.592   6.634  11.083  0.4621  0.4221 -0.4295
  275MOL0     C37046   5.562   6.679  11.217  0.3969 -0.7768  0.0836
  275MOL0     C37047   5.446   6.760  11.230  0.7579  0.0196 -0.4501
  275MOL0     C37048   5.369   6.806  11.123 -0.3477  0.4541  0.0545
  275MOL0     O37049   5.250   6.865  11.156 -0.3965  0.6796 -0.2050
  275MOL0     C37050   5.222   6.991  11.089  0.0495 -0.0382 -0.1887
  275MOL0     C37051   5.093   7.063  11.139  0.2241  0.3595  0.1681
  275MOL0     C37052   4.964   7.014  11.083 -0.0687  0.3184  0.1900
  275MOL0     C37053   4.932   7.110  10.972  0.3135 -0.8119  1.4800
  275MOL0     C37054   4.812   7.064  10.896  0.1135 -0.7266  0.0710
  275MOL0     C37055   4.712   7.033  10.842  0.4184 -0.2508 -1.3988
  275MOL0     C37056   5.405   6.761  10.996 -0.2300  0.1599  0.1496
  275MOL0     C37057   5.511   6.670  10.972  0.0233  0.5787  0.0536
  275MOL0     H37058   5.943   6.603  11.331  2.6611  1.3422 -0.0534
  275MOL0     H37059   6.176   6.506  11.358 -0.8602 -2.0927  2.1416
  275MOL0     H37060   6.431   6.172  11.236  0.7515 -0.9102 -0.8906
  275MOL0     H37061   6.284   6.121  11.175 -2.1926  0.8648  3.9449
  275MOL0     H37062   6.454   6.171  11.007 -1.1751 -0.3118 -0.9210
  275MOL0     H37063   6.324   6.284  10.964  3.4186  0.1523 -3.4185
  275MOL0     H37064   6.432   6.465  11.096 -1.7654 -2.6018  0.4932
  275MOL0     H37065   6.566   6.356  11.121 -0.8884  0.5808  1.5043
  275MOL0     H37066   6.625   6.357  10.871 -1.7117 -0.8324 -2.9461
  275MOL0     H37067   6.467   6.432  10.845  1.3757 -0.1673  0.0814
  275MOL0     H37068   6.635   6.620  10.831  0.2645  2.7221  1.6729
  275MOL0     H37069   6.568   6.626  10.996  2.3028  0.4364  2.5569
  275MOL0     H37070   6.766   6.473  11.049 -3.5551  1.1641  0.6911
  275MOL0     H37071   6.817   6.498  10.877  0.1004 -0.9199 -0.0813
  275MOL0     H37072   6.867   6.723  10.901  3.9730  1.7912  1.6779
  275MOL0     H37073   6.763   6.741  11.042  0.9828 -0.4615 -0.0568
  275MOL0     H37074   7.029   6.592  11.040 -0.6369 -1.5621  0.2789
  275MOL0     H37075   6.912   6.598  11.173 -0.2157 -2.5891 -1.9861
  275MOL0     H37076   7.048   6.880  10.917  0.3711 -0.2160  1.1495
  275MOL0     H37077   7.223   7.060  10.943 -2.0237 -1.0107 -0.5532
  275MOL0     H37078   7.102   7.168  11.012  1.0001  0.3114 -0.2447
  275MOL0     H37079   7.328   7.067  11.175 -3.6199 -0.7109  1.6942
  275MOL0     H37080   7.237   7.224  11.192 -0.1531 -1.0339  1.1208
  275MOL0     H37081   7.330   7.305  10.975  0.4365  2.0163  1.2117
  275MOL0     H37082   7.418   7.153  10.966  1.1949  3.0843 -2.6303
  275MOL0     H37083   7.549   7.217  11.149 -3.5622 -1.4677  1.2180
  275MOL0     H37084   7.445   7.352  11.193  1.7270  1.8077  0.2588
  275MOL0     H37085   7.632   7.537  10.826  1.2151 -0.5937  1.9940
  275MOL0     H37086   7.570   7.883  10.725  0.5557 -0.3311 -1.0268
  275MOL0     H37087   7.633   7.722  10.691 -0.6933 -0.4636  1.4349
  275MOL0     H37088   7.477   7.772  10.626  3.4350 -1.2420 -2.3130
  275MOL0     H37089   7.296   8.171  10.869 -0.1644  1.6215 -1.5541
  275MOL0     H37090   7.145   8.358  10.826 -1.7408  0.3792 -1.5795
  275MOL0     H37091   6.826   8.522  10.735  0.4652  0.1138  0.1149
  275MOL0     H37092   6.996   8.512  10.769  0.9285  0.5110 -2.8131
  275MOL0     H37093   7.038   8.378  10.603  0.8202 -1.1527  1.0482
  275MOL0     H37094   6.866   8.319  10.561 -0.1271  1.1813 -0.8494
  275MOL0     H37095   6.923   8.626  10.560 -2.3483  1.3673  0.0246
  275MOL0     H37096   6.816   8.519  10.460  0.6979 -2.7073 -0.4832
  275MOL0     H37097   7.122   8.560  10.441  1.3315 -0.8606 -1.6042
  275MOL0     H37098   7.025   8.444  10.336  3.0841 -1.8172  3.8543
  275MOL0     H37099   7.070   8.672  10.239  2.3811  1.0284  2.1982
  275MOL0     H37100   6.984   8.747  10.368 -0.8605 -0.5423 -0.1948
  275MOL0     H37101   6.849   8.553  10.188  0.8882 -0.3320  1.7922
  275MOL0     H37102   6.781   8.657  10.311 -0.8138  1.2144 -0.9387
  275MOL0     H37103   6.919   8.754  10.053 -0.1303 -1.1096  0.6538
  275MOL0     H37104   6.851   8.863  10.174 -1.1093  1.3120 -0.7644
  275MOL0     H37105   6.699   8.648  10.016  0.0152  1.0276 -1.9240
  275MOL0     H37106   6.700   8.820   9.980 -1.2941  1.5600  1.1099
  275MOL0     H37107   6.809   8.124  10.888 -0.5063 -1.3033  1.9582
  275MOL0     H37108   6.951   7.924  10.935 -0.3532  0.5639  0.6194
  275MOL0     H37109   7.241   7.723  11.070  0.4919  0.6316  0.4992
  275MOL0     H37110   7.340   7.536  11.159 -2.1274  0.7344 -0.5823
  275MOL0     H37111   6.108   6.223  11.057  3.4018  1.6057 -0.1060
  275MOL0     H37112   5.854   6.298  11.053 -0.5517 -0.3271  1.1339
  275MOL0     H37113   5.633   6.668  11.299  1.8325 -2.3942 -1.3007
  275MOL0     H37114   5.409   6.782  11.329  1.0698 -2.2637  0.2277
  275MOL0     H37115   5.298   7.063  11.123 -1.0858  0.2167  1.9805
  275MOL0     H37116   5.237   6.988  10.981  6.4340 -0.2019  0.2870
  275MOL0     H37117   5.120   7.166  11.113  1.2994  0.2045  0.6142
  275MOL0     H37118   5.081   7.060  11.248 -0.7528  2.2157  0.1423
  275MOL0     H37119   4.880   7.023  11.152 -1.4107 -2.3674 -0.9636
  275MOL0     H37120   4.969   6.910  11.049 -3.1395  0.6247 -1.5376
  275MOL0     H37121   5.012   7.119  10.898 -1.7587  0.4074 -0.7713
  275MOL0     H37122   4.913   7.211  11.010  2.5030 -0.3909  1.5815
  275MOL0     H37123   4.621   6.993  10.802 -2.4739  2.6130  1.7474
  275MOL0     H37124   5.349   6.808  10.916 -0.5078  0.0862  0.3012
  275MOL0     H37125   5.536   6.652  10.868 -0.5225  5.3290 -1.1703
  276MOL0     O37126   6.581   1.636   8.701  0.4322 -0.2228 -0.1707
  276MOL0     C37127   6.637   1.740   8.727 -0.2515 -0.3345 -0.6730
  276MOL0     O37128   6.605   1.827   8.832  0.0523  0.0491 -0.4575
  276MOL0     C37129   6.489   1.788   8.891  0.1602  0.0735 -0.2171
  276MOL0     C37130   6.360   1.808   8.835  0.0810 -0.2878 -0.7077
  276MOL0     C37131   6.238   1.772   8.902  0.1683  0.1570  0.2506
  276MOL0     C37132   6.240   1.711   9.029  0.4714  1.0877  1.0458
  276MOL0     O37133   6.132   1.669   9.102 -0.5018 -0.4245 -0.1619
  276MOL0     C37134   6.024   1.760   9.110  0.0927 -0.3939  0.5292
  276MOL0     C37135   5.952   1.712   9.242 -0.6742  0.8629 -0.1480
  276MOL0     C37136   5.839   1.806   9.288  0.3131 -1.0206  0.6990
  276MOL0     C37137   5.714   1.758   9.206  0.4248  0.0201  0.0616
  276MOL0     C37138   5.593   1.846   9.223  0.0358 -0.1492 -0.4340
  276MOL0     C37139   5.513   1.826   9.353  0.4498  0.1699 -0.2481
  276MOL0     C37140   5.368   1.853   9.336  0.9907  0.1562  0.1475
  276MOL0     C37141   5.284   1.843   9.467  0.3119 -1.1472  0.2869
  276MOL0     N37142   5.314   1.934   9.574  0.8180  0.3526 -1.4433
  276MOL0     C37143   5.269   2.064   9.567  1.1778 -1.1701 -0.8189
  276MOL0     C37144   5.308   2.106   9.690  0.3703 -1.6108 -0.7016
  276MOL0     C37145   5.299   2.247   9.758 -0.2156  0.1144 -0.4152
  276MOL0     C37146   5.154   2.285   9.789 -0.0456 -0.4801 -0.0003
  276MOL0     C37147   5.074   2.188   9.862  0.4236  0.2823 -0.7404
  276MOL0     C37148   4.931   2.228   9.900  0.1761  0.1453  0.2326
  276MOL0     O37149   4.848   2.125   9.972  0.2314  0.3471 -0.2279
  276MOL0     C37150   4.878   2.101  10.101  1.0297 -0.3174 -0.0270
  276MOL0     C37151   4.967   2.164  10.188  0.3984  0.2345  0.1045
  276MOL0     C37152   4.979   2.126  10.325  0.6079 -0.1849 -0.8017
  276MOL0     C37153   5.085   2.188  10.414 -0.2019 -1.1196  0.4045
  276MOL0     C37154   4.898   2.023  10.370 -0.8711  0.4226 -0.6014
  276MOL0     C37155   4.909   1.962  10.506 -0.2208 -0.1197  0.2904
  276MOL0     O37156   5.026   1.961  10.580  0.7116 -0.0039  0.1796
  276MOL0     C37157   5.054   1.889  10.693 -0.1378 -0.6518 -0.7869
  276MOL0     C37158   5.111   1.764  10.676 -0.2781  0.6675 -1.1673
  276MOL0     C37159   5.142   1.681  10.789  0.2828 -0.2287 -0.1197
  276MOL0     C37160   5.103   1.714  10.916  0.1219 -0.5873 -0.5792
  276MOL0     O37161   5.146   1.634  11.020 -0.0439  0.2043 -0.2093
  276MOL0     C37162   5.213   1.697  11.124 -0.4428  0.3628 -0.6724
  276MOL0     C37163   5.260   1.584  11.221  0.9078  0.6514 -0.3736
  276MOL0     C37164   5.143   1.513  11.298 -0.4216 -0.5181 -1.6494
  276MOL0     C37165   5.185   1.382  11.369  0.5136 -0.3661  0.3622
  276MOL0     C37166   5.108   1.357  11.495  0.4654  0.0100 -0.7153
  276MOL0     C37167   4.969   1.300  11.469  0.5268  0.3755  0.9248
  276MOL0     C37168   4.868   1.309  11.584 -0.5903 -0.2561  0.2312
  276MOL0     C37169   4.926   1.245  11.707 -0.6517 -0.3109 -0.1635
  276MOL0    Cl37170   4.794   1.236  11.831 -0.3977 -0.3172  0.4780
  276MOL0     C37171   5.039   1.843  10.932 -0.9710  1.0904 -0.0090
  276MOL0     C37172   5.012   1.932  10.820 -0.3385 -0.0843  0.8703
  276MOL0     O37173   4.806   1.921  10.555  0.2506  0.3760 -0.8102
  276MOL0     C37174   4.811   1.961  10.287  0.4534  0.0675 -0.3884
  276MOL0     C37175   4.794   1.998  10.155 -0.6073 -0.1766  0.2302
  276MOL0     N37176   5.383   2.008   9.762 -0.8746 -1.1444  0.1395
  276MOL0     N37177   5.391   1.900   9.687 -0.1267 -0.1300 -0.5397
  276MOL0     C37178   6.368   1.696   9.090 -0.7962  0.2992  0.7449
  276MOL0     C37179   6.487   1.731   9.017 -0.3383  0.4352  0.1880
  276MOL0     C37180   6.753   1.777   8.645 -0.2500  0.1849 -1.0650
  276MOL0     C37181   6.835   1.683   8.586  0.1917 -0.5760 -0.1334
  276MOL0     C37182   6.950   1.716   8.526 -0.1486 -0.3081  0.7475
  276MOL0     C37183   6.981   1.854   8.506  0.6562 -0.1398  0.1147
  276MOL0     O37184   7.091   1.900   8.448 -0.9818  0.0519  0.3264
  276MOL0     C37185   7.213   1.847   8.481  0.1211  0.3757  0.8145
  276MOL0     C37186   7.326   1.942   8.441  0.5873 -0.3035 -0.9220
  276MOL0     C37187   7.334   2.080   8.515  0.8680  0.2874  0.6984
  276MOL0     C37188   7.208   2.160   8.559  0.0201  0.3128 -0.7878
  276MOL0     C37189   7.153   2.111   8.694 -0.0777 -0.3535 -0.1968
  276MOL0     C37190   7.120   2.064   8.799 -0.4494  0.2486 -0.0786
  276MOL0     C37191   6.893   1.948   8.548  0.1743 -0.5044 -0.6333
  276MOL0     C37192   6.785   1.916   8.629  0.2176 -0.0024 -0.2469
  276MOL0     H37193   6.362   1.870   8.746 -0.1477  2.4954  1.1127
  276MOL0     H37194   6.145   1.787   8.848  0.5274 -0.8088 -0.6671
  276MOL0     H37195   6.054   1.862   9.134 -1.3752 -0.0205  0.8904
  276MOL0     H37196   5.965   1.749   9.018 -0.2431  0.1270  0.6813
  276MOL0     H37197   5.920   1.608   9.232  2.0050  0.0535 -1.2132
  276MOL0     H37198   6.025   1.717   9.324 -1.8727  0.7138  0.9652
  276MOL0     H37199   5.819   1.808   9.396 -0.9880  2.5867  0.5284
  276MOL0     H37200   5.867   1.904   9.249  1.4063 -2.4222 -2.3115
  276MOL0     H37201   5.737   1.762   9.099 -0.0028  1.3160  0.0047
  276MOL0     H37202   5.683   1.656   9.232 -2.2480  1.0824  1.4341
  276MOL0     H37203   5.622   1.952   9.223 -0.1741 -0.0875 -1.2661
  276MOL0     H37204   5.525   1.818   9.142 -0.4086 -3.8151  1.0239
  276MOL0     H37205   5.526   1.726   9.393  1.3926  1.0641  1.7856
  276MOL0     H37206   5.554   1.896   9.426  0.5456  0.3666 -0.4881
  276MOL0     H37207   5.345   1.943   9.277  0.7969 -1.4758 -2.4314
  276MOL0     H37208   5.322   1.781   9.267 -2.5168  2.5547 -0.3159
  276MOL0     H37209   5.295   1.739   9.501 -1.1425 -1.2316  0.5700
  276MOL0     H37210   5.178   1.866   9.454  0.6029  3.7354  3.9164
  276MOL0     H37211   5.216   2.112   9.486  1.5050  1.1903  0.2721
  276MOL0     H37212   5.376   2.249   9.836 -0.0555 -1.3801 -0.4976
  276MOL0     H37213   5.331   2.319   9.682  1.7989 -0.9060 -0.6156
  276MOL0     H37214   5.108   2.307   9.692  0.6065 -0.8534 -0.4060
  276MOL0     H37215   5.163   2.380   9.842  2.3334  1.3623 -3.2691
  276MOL0     H37216   5.126   2.149   9.950  0.3083 -2.1949 -1.6824
  276MOL0     H37217   5.067   2.093   9.808  1.9629 -1.0698  1.2957
  276MOL0     H37218   4.877   2.256   9.809  0.0116 -0.7387  0.0476
  276MOL0     H37219   4.933   2.324   9.953  0.6121  1.2661 -1.7070
  276MOL0     H37220   5.032   2.239  10.144  0.4970 -0.1879 -0.4801
  276MOL0     H37221   5.132   2.273  10.363  1.8305 -0.4133  3.2328
  276MOL0     H37222   5.045   2.224  10.509  1.0755  3.7088 -0.5948
  276MOL0     H37223   5.164   2.115  10.433 -0.3106 -0.9381  1.5888
  276MOL0     H37224   5.153   1.730  10.582  2.8732  0.9820 -0.0076
  276MOL0     H37225   5.194   1.586  10.784 -0.0111 -0.3911 -0.1046
  276MOL0     H37226   5.298   1.752  11.086 -0.5933  0.8706 -0.2841
  276MOL0     H37227   5.146   1.765  11.178 -1.7704 -1.2957 -0.1107
  276MOL0     H37228   5.311   1.504  11.166  1.0715 -1.3941  2.5512
  276MOL0     H37229   5.322   1.638  11.293 -0.4038  2.5301 -0.5946
  276MOL0     H37230   5.052   1.510  11.237 -1.7577  2.6854 -0.0952
  276MOL0     H37231   5.115   1.589  11.371  3.3119  1.4319 -1.9955
  276MOL0     H37232   5.167   1.312  11.287  1.2790 -0.3867  0.2101
  276MOL0     H37233   5.293   1.388  11.384  0.5178  6.5848  0.8785
  276MOL0     H37234   5.100   1.450  11.552 -0.8330  0.5782 -1.7699
  276MOL0     H37235   5.164   1.292  11.563 -1.4341 -2.4439 -1.3737
  276MOL0     H37236   4.926   1.344  11.378  1.6965 -0.4444 -0.0562
  276MOL0     H37237   4.993   1.200  11.430 -0.2135  0.7796 -0.6476
  276MOL0     H37238   4.775   1.254  11.566  0.4279 -2.4682  1.2598
  276MOL0     H37239   4.840   1.413  11.601 -0.6477 -0.1035 -0.7796
  276MOL0     H37240   5.011   1.299  11.749 -2.2438  1.2939  1.1544
  276MOL0     H37241   4.944   1.142  11.672  1.1059  0.1148 -0.6186
  276MOL0     H37242   5.016   1.861  11.036 -0.5057  2.7064 -0.1670
  276MOL0     H37243   4.960   2.026  10.828  0.4128  0.3800  0.4340
  276MOL0     H37244   4.745   1.888  10.333  3.3617 -0.4313  3.4860
  276MOL0     H37245   4.724   1.949  10.088 -1.7407 -1.8919  2.5150
  276MOL0     H37246   6.388   1.656   9.188  1.8751  2.3255  1.1381
  276MOL0     H37247   6.588   1.719   9.053 -0.9538 -0.7922  1.5966
  276MOL0     H37248   6.804   1.580   8.595 -0.8531 -0.3422 -0.8222
  276MOL0     H37249   7.016   1.635   8.495 -0.1707  0.3258 -1.1007
  276MOL0     H37250   7.211   1.820   8.587  2.4485  0.6792  0.9971
  276MOL0     H37251   7.220   1.750   8.430  0.7703  1.1839 -0.6908
  276MOL0     H37252   7.319   1.965   8.334 -0.3191  2.7621 -0.2963
  276MOL0     H37253   7.420   1.888   8.459  0.2871 -0.0303  1.9540
  276MOL0     H37254   7.375   2.153   8.445  1.0793  0.7194  1.2697
  276MOL0     H37255   7.410   2.067   8.593  1.1869 -0.0833  0.3295
  276MOL0     H37256   7.132   2.166   8.481 -3.8085  1.9823  2.6635
  276MOL0     H37257   7.230   2.265   8.583 -1.6210 -0.2903  4.8449
  276MOL0     H37258   7.104   2.005   8.888  3.3928  1.1985  1.4196
  276MOL0     H37259   6.909   2.055   8.537 -1.4446 -0.2903 -1.0958
  276MOL0     H37260   6.731   1.998   8.674  0.2066 -0.0050 -0.2561
  277MOL0     O37261   7.680   0.974   4.970  0.4102 -0.1110 -0.5889
  277MOL0     C37262   7.800   0.948   4.985  0.7474 -0.0085  0.4395
  277MOL0     O37263   7.900   1.030   4.966  0.1036  0.2163  0.3524
  277MOL0     C37264   7.879   1.163   4.964  0.3468 -0.3219  0.9630
  277MOL0     C37265   7.875   1.229   5.086 -0.4283 -0.1812  0.6412
  277MOL0     C37266   7.861   1.369   5.096  0.3935  0.9054 -0.6884
  277MOL0     C37267   7.837   1.447   4.987  0.4998  0.5598  0.3182
  277MOL0     O37268   7.844   1.583   5.000 -0.0806 -0.8313  0.0118
  277MOL0     C37269   7.841   1.680   4.892 -0.0638 -0.2592 -0.3771
  277MOL0     C37270   7.899   1.814   4.957  0.3756 -0.5218 -0.1293
  277MOL0     C37271   7.817   1.872   5.067 -0.0027  0.6354 -0.2131
  277MOL0     C37272   7.667   1.891   5.040 -0.3917  0.3657  0.4247
  277MOL0     C37273   7.601   1.958   5.165 -0.4288  0.8384 -0.0368
  277MOL0     C37274   7.625   1.882   5.301  0.6385 -0.3714  0.1212
  277MOL0     C37275   7.530   1.932   5.413  0.4200  0.2986 -0.6680
  277MOL0     C37276   7.523   1.846   5.530  0.4064 -0.0679 -0.0835
  277MOL0     N37277   7.430   1.906   5.635 -0.3937  0.2576 -0.1251
  277MOL0     C37278   7.415   2.037   5.671 -0.1486 -0.0063  0.6175
  277MOL0     C37279   7.341   2.035   5.792  0.4461 -0.0813  0.2368
  277MOL0     C37280   7.304   2.151   5.883 -0.0619 -0.1168 -0.1471
  277MOL0     C37281   7.417   2.235   5.947 -0.0008  0.2713  0.6602
  277MOL0     C37282   7.475   2.173   6.072 -0.8495 -0.2430  0.6542
  277MOL0     C37283   7.589   2.065   6.037  0.3643 -0.2946  0.1548
  277MOL0     O37284   7.702   2.147   5.984  0.3359  0.4264 -0.0249
  277MOL0     C37285   7.808   2.081   5.928  0.2255  0.2421  0.9032
  277MOL0     C37286   7.858   1.957   5.975 -0.6739  0.5597  0.3241
  277MOL0     C37287   7.967   1.888   5.909  0.0301  0.0443 -0.2828
  277MOL0     C37288   8.008   1.754   5.964 -0.2695  0.5616 -0.2936
  277MOL0     C37289   8.032   1.952   5.803  0.4767  0.9724  0.1756
  277MOL0     C37290   8.161   1.902   5.738 -0.7212  0.2107  0.2963
  277MOL0     O37291   8.199   1.962   5.620  0.2793 -0.4217 -0.3345
  277MOL0     C37292   8.324   1.944   5.565 -0.1027 -0.1146  0.2964
  277MOL0     C37293   8.406   2.052   5.543 -0.4960 -0.2378 -0.3252
  277MOL0     C37294   8.527   2.046   5.485 -0.0924  0.8760  0.1036
  277MOL0     C37295   8.581   1.916   5.444 -0.5651  0.3635 -1.4501
  277MOL0     O37296   8.699   1.897   5.373 -0.2228 -0.4646  0.4328
  277MOL0     C37297   8.767   2.011   5.312 -0.3498  0.2770  0.1917
  277MOL0     C37298   8.876   1.949   5.217  0.7153 -0.4335 -0.8215
  277MOL0     C37299   8.993   1.905   5.297 -0.6176  0.1632 -0.6021
  277MOL0     C37300   9.081   1.809   5.216 -0.3784 -0.3075  0.0423
  277MOL0     C37301   9.223   1.816   5.271 -0.3055  0.5501  0.0156
  277MOL0     C37302   9.331   1.741   5.197  0.6710  0.3346 -0.5901
  277MOL0     C37303   9.331   1.735   5.040  0.5414 -0.1632  0.0383
  277MOL0     C37304   9.445   1.641   4.990  0.2828 -0.9825 -0.8327
  277MOL0    Cl37305   9.606   1.704   5.053  0.2069  0.2137  0.1204
  277MOL0     C37306   8.497   1.811   5.464  0.6987  0.1360 -0.3071
  277MOL0     C37307   8.373   1.820   5.524  0.5602  0.2476  0.0579
  277MOL0     O37308   8.219   1.807   5.785  0.7743 -0.3092 -0.5811
  277MOL0     C37309   7.992   2.085   5.769 -0.5866 -0.6508  0.0814
  277MOL0     C37310   7.881   2.137   5.823  0.6364 -0.5253 -0.0488
  277MOL0     N37311   7.335   1.900   5.828  0.9935  0.7986 -0.4466
  277MOL0     N37312   7.384   1.829   5.734 -0.1467  0.9535  0.5032
  277MOL0     C37313   7.835   1.378   4.861 -0.7572 -0.0761 -1.1621
  277MOL0     C37314   7.856   1.242   4.847 -0.2602  0.9883 -0.1775
  277MOL0     C37315   7.836   0.802   5.000  0.0183  0.1397  0.2709
  277MOL0     C37316   7.737   0.715   5.034 -0.5442  0.2601  0.8171
  277MOL0     C37317   7.760   0.577   5.040 -0.3650 -0.2513  0.3201
  277MOL0     C37318   7.879   0.528   5.004  0.2683 -0.4294  0.1446
  277MOL0     O37319   7.891   0.391   5.017 -0.1070  0.4546  0.2972
  277MOL0     C37320   8.016   0.339   4.951  0.8730 -0.8097 -0.1980
  277MOL0     C37321   8.036   0.185   4.943  0.4859 -0.1320 -0.1341
  277MOL0     C37322   7.926   0.122   4.856  0.6585 -0.6189  0.0774
  277MOL0     C37323   7.959  -0.017   4.811 -0.6607 -0.9856  1.0226
  277MOL0     C37324   7.837  -0.062   4.746 -0.5582 -0.6438  0.1427
  277MOL0     C37325   7.744  -0.111   4.689 -0.3024 -0.0661 -0.2382
  277MOL0     C37326   7.982   0.616   4.959 -0.4285 -0.8728 -0.2272
  277MOL0     C37327   7.963   0.750   4.965 -0.6165 -0.2706  0.0764
  277MOL0     H37328   7.885   1.169   5.176  2.2065  0.0765  0.5993
  277MOL0     H37329   7.862   1.421   5.191 -4.0049  1.4256 -0.7256
  277MOL0     H37330   7.917   1.656   4.817 -1.4774 -0.1676 -1.8790
  277MOL0     H37331   7.741   1.696   4.852 -0.2372  0.2364  0.2222
  277MOL0     H37332   7.993   1.790   5.007  0.4786  0.7980  0.3369
  277MOL0     H37333   7.914   1.892   4.882 -2.0758  0.7204  0.5783
  277MOL0     H37334   7.818   1.799   5.148  1.0505  1.7947  0.8843
  277MOL0     H37335   7.851   1.965   5.115  0.8538 -0.5951  1.6704
  277MOL0     H37336   7.638   1.954   4.956 -1.0136 -2.0000 -1.2536
  277MOL0     H37337   7.623   1.791   5.028 -1.5377  1.2054 -4.1078
  277MOL0     H37338   7.640   2.057   5.190  2.3266 -0.6194  1.9722
  277MOL0     H37339   7.492   1.957   5.152 -0.3599  0.1660 -0.6064
  277MOL0     H37340   7.599   1.778   5.279  0.2422 -0.2261 -0.1117
  277MOL0     H37341   7.730   1.892   5.329  0.0190  1.1754  2.0844
  277MOL0     H37342   7.554   2.035   5.443 -1.3023  1.2414 -2.3761
  277MOL0     H37343   7.429   1.954   5.378 -0.7614 -0.7748  1.8022
  277MOL0     H37344   7.617   1.819   5.579 -1.0504 -2.2958  1.6953
  277MOL0     H37345   7.479   1.749   5.507 -3.1811  1.1309  1.1104
  277MOL0     H37346   7.454   2.127   5.625 -0.3428  0.6967  1.7777
  277MOL0     H37347   7.248   2.220   5.818  0.7107  1.6442  0.9880
  277MOL0     H37348   7.232   2.117   5.959  0.7797 -0.8190  0.3605
  277MOL0     H37349   7.366   2.327   5.978 -0.5504  1.6896 -3.7921
  277MOL0     H37350   7.477   2.264   5.861 -2.8877 -0.6037 -1.8243
  277MOL0     H37351   7.395   2.126   6.130 -2.0128  1.8139  0.8237
  277MOL0     H37352   7.521   2.251   6.133  2.2593 -1.3886 -0.0509
  277MOL0     H37353   7.551   1.991   5.966 -0.7430 -0.2448  0.6564
  277MOL0     H37354   7.611   2.008   6.128  0.8308  2.4249  1.8391
  277MOL0     H37355   7.797   1.905   6.048 -0.7156 -2.1751 -1.5018
  277MOL0     H37356   8.109   1.770   6.002 -1.4787  1.6441  2.7839
  277MOL0     H37357   7.948   1.717   6.048  2.5335 -0.2098  1.4848
  277MOL0     H37358   8.019   1.687   5.878 -0.9233  0.7416 -0.5263
  277MOL0     H37359   8.372   2.142   5.593 -0.4969 -1.6768  2.5131
  277MOL0     H37360   8.591   2.134   5.481 -0.5360  1.2438  0.7199
  277MOL0     H37361   8.702   2.072   5.248  1.2282  1.2616 -0.5280
  277MOL0     H37362   8.804   2.066   5.399 -0.1866  0.7845 -0.1986
  277MOL0     H37363   8.824   1.871   5.162 -2.9889  1.6139 -0.5292
  277MOL0     H37364   8.915   2.021   5.144  0.7231  1.7762  1.2328
  277MOL0     H37365   8.970   1.837   5.380 -3.1688  1.3522 -0.2388
  277MOL0     H37366   9.047   1.990   5.339  1.9882 -1.0527 -1.2958
  277MOL0     H37367   9.048   1.706   5.223 -1.3438  0.0551  0.9602
  277MOL0     H37368   9.080   1.853   5.116  1.2202  0.5479  0.3520
  277MOL0     H37369   9.227   1.788   5.376  2.0289 -2.4940 -0.7129
  277MOL0     H37370   9.260   1.919   5.266 -1.9796  1.2392  1.1666
  277MOL0     H37371   9.428   1.776   5.233 -0.0673  2.3025 -0.3947
  277MOL0     H37372   9.337   1.635   5.225  2.8858  0.4333 -0.4909
  277MOL0     H37373   9.357   1.838   5.016 -1.3581  0.1243 -0.9480
  277MOL0     H37374   9.230   1.706   5.009  1.7809 -3.1569 -1.6040
  277MOL0     H37375   9.454   1.644   4.881  0.5977  2.5434 -0.8444
  277MOL0     H37376   9.440   1.538   5.023 -2.1212 -0.6877 -0.0884
  277MOL0     H37377   8.513   1.713   5.420 -2.7119 -0.8911  0.5030
  277MOL0     H37378   8.306   1.735   5.523  0.2860  0.4608  0.1015
  277MOL0     H37379   8.037   2.140   5.687  0.3581  0.5514  1.3678
  277MOL0     H37380   7.849   2.229   5.776  0.7460 -1.0414 -1.1730
  277MOL0     H37381   7.799   1.440   4.779  0.9877  2.2838 -0.2593
  277MOL0     H37382   7.862   1.193   4.750  0.4569  1.5395 -0.4248
  277MOL0     H37383   7.637   0.749   5.058 -0.2552  0.9946  1.0135
  277MOL0     H37384   7.674   0.519   5.072 -1.0243 -0.3374 -1.4673
  277MOL0     H37385   8.013   0.375   4.848 -1.2955 -0.4354 -0.0377
  277MOL0     H37386   8.099   0.394   4.998 -0.3811 -0.0447  1.2278
  277MOL0     H37387   8.021   0.145   5.044 -0.5334  2.6771  0.9314
  277MOL0     H37388   8.134   0.159   4.900  0.4866 -2.0933  0.9555
  277MOL0     H37389   7.870   0.186   4.788 -2.9710  1.2219  4.2643
  277MOL0     H37390   7.835   0.106   4.915  0.2098 -1.8805 -0.9060
  277MOL0     H37391   7.989  -0.089   4.887  2.5682  0.3684  1.1755
  277MOL0     H37392   8.041  -0.009   4.739  1.6948  2.2684  3.7510
  277MOL0     H37393   7.653  -0.148   4.645 -0.5022 -2.2299  1.7780
  277MOL0     H37394   8.083   0.586   4.933 -1.1141 -4.0279  0.3881
  277MOL0     H37395   8.039   0.820   4.933 -0.5667 -0.6783 -0.7237
  278MOL0     O37396   9.452   5.779   0.714  0.5229  0.0318 -0.0259
  278MOL0     C37397   9.458   5.660   0.726  0.7247 -0.7411  0.6318
  278MOL0     O37398   9.398   5.584   0.824 -0.8941 -0.3853  0.5960
  278MOL0     C37399   9.269   5.593   0.879  0.4024 -0.9705 -0.0061
  278MOL0     C37400   9.220   5.482   0.947  0.0012 -0.7735 -0.6163
  278MOL0     C37401   9.104   5.486   1.021 -0.5510 -0.5914 -0.2421
  278MOL0     C37402   9.029   5.602   1.030 -1.1889 -0.2071 -0.4700
  278MOL0     O37403   8.904   5.597   1.076  0.1698 -0.7200 -0.0099
  278MOL0     C37404   8.889   5.583   1.217  0.2475 -0.2836  0.2849
  278MOL0     C37405   8.747   5.549   1.266 -0.3981 -0.3434 -0.3074
  278MOL0     C37406   8.643   5.651   1.223  0.3230  0.2359 -1.0389
  278MOL0     C37407   8.506   5.628   1.294 -0.8087  0.0374  0.3200
  278MOL0     C37408   8.426   5.759   1.309 -1.1387  0.5534 -0.3555
  278MOL0     C37409   8.277   5.740   1.364  0.6384 -0.1788  0.9335
  278MOL0     C37410   8.192   5.629   1.286 -1.1541  0.6052 -0.2417
  278MOL0     C37411   8.042   5.667   1.293 -0.5986 -0.1831  0.7847
  278MOL0     N37412   7.974   5.689   1.420  0.8175 -0.0218 -0.2936
  278MOL0     C37413   7.886   5.794   1.437  0.1553 -0.3914 -0.4323
  278MOL0     C37414   7.872   5.807   1.574 -0.3889  0.9188 -0.0940
  278MOL0     C37415   7.795   5.916   1.637  0.0985 -0.4579  0.0868
  278MOL0     C37416   7.653   5.858   1.691 -0.0870 -0.3806 -0.1995
  278MOL0     C37417   7.554   5.974   1.696 -0.9619  0.5544 -0.5947
  278MOL0     C37418   7.418   5.914   1.744  0.1282 -0.6452 -0.8515
  278MOL0     O37419   7.300   5.971   1.684  0.0726  0.1707 -0.4510
  278MOL0     C37420   7.198   6.003   1.774 -0.5343 -0.2961 -0.0658
  278MOL0     C37421   7.103   5.905   1.793 -0.4970  0.0820 -0.5902
  278MOL0     C37422   6.997   5.930   1.877  0.3716  0.2660 -0.0761
  278MOL0     C37423   6.910   5.812   1.911  0.9573 -0.8603  0.9747
  278MOL0     C37424   6.978   6.059   1.954 -0.4343  0.1563 -1.1727
  278MOL0     C37425   6.866   6.097   2.044  0.1587  0.1479  0.4556
  278MOL0     O37426   6.755   6.021   2.033  0.7031  0.0657 -0.0276
  278MOL0     C37427   6.636   6.092   2.021  0.3389 -0.6446 -0.1225
  278MOL0     C37428   6.594   6.136   1.895  0.2455  0.0328 -0.6328
  278MOL0     C37429   6.471   6.199   1.885  0.9894 -0.5478 -0.9008
  278MOL0     C37430   6.375   6.213   1.997 -0.4567 -0.1583 -0.3351
  278MOL0     O37431   6.254   6.271   1.970 -0.0418  0.1125  0.4484
  278MOL0     C37432   6.154   6.260   2.072 -0.7898  0.4711 -1.2242
  278MOL0     C37433   6.020   6.244   2.010  0.5955 -1.2428 -0.8234
  278MOL0     C37434   5.984   6.100   1.962  0.0470 -0.8093  0.7027
  278MOL0     C37435   5.913   6.035   2.076  0.1115  0.2831 -0.2518
  278MOL0     C37436   5.880   5.887   2.052 -0.9231  0.3677 -0.5976
  278MOL0     C37437   5.795   5.856   1.932  0.1637  0.0495 -0.0804
  278MOL0     C37438   5.665   5.936   1.925  0.2288  0.3217 -0.2845
  278MOL0     C37439   5.549   5.851   1.883 -1.3218  0.3755 -0.6025
  278MOL0    Cl37440   5.413   5.969   1.880 -0.2730 -0.0310  0.4872
  278MOL0     C37441   6.419   6.165   2.121  0.6569  0.3089  0.1296
  278MOL0     C37442   6.544   6.101   2.134  0.2788 -0.5911  0.1893
  278MOL0     O37443   6.865   6.209   2.096 -0.5050 -0.0834  0.1808
  278MOL0     C37444   7.076   6.152   1.927  0.6322 -0.1771 -0.3132
  278MOL0     C37445   7.186   6.123   1.841  0.3396 -0.5296 -0.8150
  278MOL0     N37446   7.940   5.711   1.638 -0.4791 -0.1711 -0.8498
  278MOL0     N37447   8.003   5.643   1.546 -0.4915  0.6785 -0.8003
  278MOL0     C37448   9.065   5.705   0.946  0.2658  0.7452  0.1732
  278MOL0     C37449   9.187   5.712   0.880 -0.7973 -0.5586  0.2799
  278MOL0     C37450   9.570   5.601   0.650 -0.4684  0.4680 -0.5690
  278MOL0     C37451   9.681   5.678   0.609 -0.6047 -0.3542 -1.0393
  278MOL0     C37452   9.793   5.611   0.548 -0.4799 -0.6685  0.4389
  278MOL0     C37453   9.789   5.477   0.530 -0.5322 -0.0189  0.1812
  278MOL0     O37454   9.899   5.416   0.466  0.3962  1.0370  0.7975
  278MOL0     C37455   9.864   5.344   0.349  0.8765 -0.2368 -0.9316
  278MOL0     C37456   9.991   5.283   0.288  0.0366  0.0232  0.3793
  278MOL0     C37457  10.072   5.205   0.406  0.0167  1.0004  0.3532
  278MOL0     C37458  10.171   5.103   0.346  0.2866 -0.3010 -0.3121
  278MOL0     C37459  10.106   5.006   0.261 -0.1915  0.4703  0.2408
  278MOL0     C37460  10.054   4.916   0.198 -0.7968  0.7282 -0.6977
  278MOL0     C37461   9.691   5.397   0.584  0.6379 -0.5288 -0.5930
  278MOL0     C37462   9.584   5.459   0.637  0.6056  0.3404  0.4842
  278MOL0     H37463   9.281   5.392   0.943  1.1516 -0.2090  2.0590
  278MOL0     H37464   9.064   5.398   1.070  0.9542 -0.6014  1.0502
  278MOL0     H37465   8.960   5.510   1.259  0.0608  1.1154  3.3025
  278MOL0     H37466   8.920   5.670   1.275  1.1136 -0.7902  0.6128
  278MOL0     H37467   8.724   5.444   1.245  1.5490 -0.5631 -1.6101
  278MOL0     H37468   8.757   5.568   1.374  0.4538  2.5158 -0.8098
  278MOL0     H37469   8.668   5.757   1.237  2.1669  0.2310 -3.5985
  278MOL0     H37470   8.634   5.645   1.114 -0.8434  1.7253 -1.0544
  278MOL0     H37471   8.445   5.560   1.233 -0.5771  0.6209 -0.5599
  278MOL0     H37472   8.518   5.585   1.394  2.4485  1.0447  0.4473
  278MOL0     H37473   8.484   5.806   1.389  0.8966 -3.7875  1.0361
  278MOL0     H37474   8.421   5.827   1.223 -1.4024  3.1273  1.5673
  278MOL0     H37475   8.275   5.716   1.471  3.1405  0.8316  1.2795
  278MOL0     H37476   8.227   5.837   1.358  1.3930  0.1964  0.5021
  278MOL0     H37477   8.226   5.637   1.182 -2.0247  0.0544 -0.5825
  278MOL0     H37478   8.218   5.531   1.328  3.4730  1.7523  0.1011
  278MOL0     H37479   7.985   5.593   1.235 -0.9656  2.0260 -1.8967
  278MOL0     H37480   8.035   5.754   1.227  1.8718  0.3255  1.1079
  278MOL0     H37481   7.841   5.858   1.362  1.0465  1.2203  0.3545
  278MOL0     H37482   7.846   5.962   1.722 -4.0375 -0.1111  2.5985
  278MOL0     H37483   7.776   5.999   1.569  0.3783  1.3459  2.1206
  278MOL0     H37484   7.671   5.805   1.785 -1.6362 -3.8465 -1.6875
  278MOL0     H37485   7.614   5.789   1.615 -0.2480 -1.7664  1.0936
  278MOL0     H37486   7.542   6.008   1.593  1.0453 -1.4808 -1.5751
  278MOL0     H37487   7.586   6.055   1.763  1.9474 -1.1205  0.2087
  278MOL0     H37488   7.406   5.909   1.852 -2.4554 -0.1639 -1.0404
  278MOL0     H37489   7.415   5.812   1.705 -0.5772 -1.6347  1.6407
  278MOL0     H37490   7.131   5.809   1.752  0.6599 -0.7191  1.9030
  278MOL0     H37491   6.912   5.800   2.020 -1.9327 -2.0851  0.9754
  278MOL0     H37492   6.808   5.829   1.876  0.9746  0.3799  1.4581
  278MOL0     H37493   6.948   5.719   1.868  1.0797  0.0468 -1.0070
  278MOL0     H37494   6.652   6.123   1.805 -1.3216 -3.4185 -1.2998
  278MOL0     H37495   6.449   6.240   1.787 -2.5237 -0.2074 -0.1308
  278MOL0     H37496   6.161   6.172   2.136 -1.5150  1.0736 -0.2981
  278MOL0     H37497   6.169   6.352   2.128 -0.6293  0.6352 -1.5346
  278MOL0     H37498   5.949   6.282   2.084  1.3964 -0.0485 -0.6352
  278MOL0     H37499   6.019   6.323   1.934  4.2276 -1.4105 -1.1972
  278MOL0     H37500   6.070   6.038   1.933 -0.7895 -1.3988 -0.6570
  278MOL0     H37501   5.912   6.102   1.880 -0.5781 -3.8390  1.0694
  278MOL0     H37502   5.965   6.062   2.169  0.6543  0.7723 -0.6905
  278MOL0     H37503   5.817   6.085   2.089 -1.3076 -2.4437  0.3842
  278MOL0     H37504   5.823   5.851   2.138  0.9659  1.4481  1.2122
  278MOL0     H37505   5.973   5.830   2.040 -1.5013 -0.1793 -3.0029
  278MOL0     H37506   5.859   5.882   1.847  0.5876  1.2483  0.5740
  278MOL0     H37507   5.766   5.751   1.923  1.5077 -0.1937 -2.4477
  278MOL0     H37508   5.683   6.021   1.859  1.9338  1.2362  1.2712
  278MOL0     H37509   5.642   5.962   2.029  1.3173 -1.7180  0.5148
  278MOL0     H37510   5.532   5.768   1.951 -0.1213 -0.4761 -1.2908
  278MOL0     H37511   5.566   5.813   1.782 -2.2444 -0.6199 -0.3952
  278MOL0     H37512   6.352   6.177   2.205 -1.5672 -0.2653 -1.4573
  278MOL0     H37513   6.577   6.083   2.236 -1.8455 -0.9429  0.8639
  278MOL0     H37514   7.069   6.250   1.974  1.4285 -1.3180  2.3624
  278MOL0     H37515   7.253   6.206   1.820 -0.1998  0.0391 -0.3307
  278MOL0     H37516   8.996   5.789   0.949  1.2105  1.5465  0.2703
  278MOL0     H37517   9.220   5.796   0.819 -0.8817  1.9380  3.4183
  278MOL0     H37518   9.693   5.782   0.638 -0.9484  0.5978 -4.0314
  278MOL0     H37519   9.877   5.669   0.512  0.8237 -2.1672  0.9452
  278MOL0     H37520   9.798   5.264   0.383 -1.2987  2.2864  1.2869
  278MOL0     H37521   9.804   5.398   0.275 -0.9596 -1.9422 -0.7743
  278MOL0     H37522  10.053   5.359   0.239  0.0294 -0.2441 -0.0488
  278MOL0     H37523   9.963   5.216   0.207  1.3736  0.6808 -0.6664
  278MOL0     H37524   9.999   5.150   0.465 -3.2498  1.5746 -2.8248
  278MOL0     H37525  10.121   5.276   0.474  0.7086  1.3438 -0.4845
  278MOL0     H37526  10.205   5.040   0.429  0.9433 -1.2962 -1.3043
  278MOL0     H37527  10.243   5.159   0.286  1.8932  0.5461  2.2750
  278MOL0     H37528  10.012   4.843   0.131  1.5156  0.0152 -1.4760
  278MOL0     H37529   9.688   5.289   0.590  0.6704 -0.4624  1.0102
  278MOL0     H37530   9.511   5.395   0.686  0.6799 -1.9397 -2.1288
  279MOL0     O37531   0.864   4.113  10.747 -0.3698  0.6177  0.2644
  279MOL0     C37532   0.908   4.224  10.764 -0.8656 -0.2274  0.3902
  279MOL0     O37533   0.854   4.326  10.843 -0.0081 -0.4502  0.2007
  279MOL0     C37534   0.770   4.306  10.949  0.9027  0.5708 -0.6098
  279MOL0     C37535   0.775   4.207  11.044  0.1049  0.2315 -0.4965
  279MOL0     C37536   0.693   4.223  11.161 -0.2888  0.4901  0.7216
  279MOL0     C37537   0.610   4.333  11.175 -0.4316  0.2569 -0.2672
  279MOL0     O37538   0.523   4.356  11.277 -0.5875 -0.7000  0.7361
  279MOL0     C37539   0.486   4.253  11.368  0.0608  0.6119 -0.9241
  279MOL0     C37540   0.423   4.300  11.495  0.4211 -0.8413 -0.3051
  279MOL0     C37541   0.511   4.371  11.596  0.2053 -0.3043  0.3945
  279MOL0     C37542   0.429   4.449  11.701 -0.0324 -0.6770  0.2732
  279MOL0     C37543   0.513   4.554  11.783 -0.2256 -1.1343 -0.0506
  279MOL0     C37544   0.581   4.667  11.702 -0.0051  0.2535  0.2545
  279MOL0     C37545   0.665   4.768  11.780 -0.6349  0.1450  0.3268
  279MOL0     C37546   0.740   4.883  11.698 -0.1090  0.6603  0.9334
  279MOL0     N37547   0.824   4.818  11.597 -0.0925  0.8339  0.1776
  279MOL0     C37548   0.788   4.760  11.476 -0.8127  0.3691 -0.6389
  279MOL0     C37549   0.862   4.643  11.463 -0.0365  0.8409  0.1224
  279MOL0     C37550   0.840   4.536  11.358 -0.3108 -0.0987  0.2622
  279MOL0     C37551   0.967   4.516  11.270 -1.0603  0.0631 -0.6234
  279MOL0     C37552   0.996   4.631  11.179 -0.5233  0.1967 -0.1076
  279MOL0     C37553   1.064   4.604  11.037 -0.1483  0.7455 -0.3327
  279MOL0     O37554   1.138   4.726  11.001  1.2509 -0.5343  0.2825
  279MOL0     C37555   1.265   4.721  10.946 -0.4396 -0.4233 -0.4186
  279MOL0     C37556   1.315   4.620  10.866 -0.5086 -0.0427  0.2610
  279MOL0     C37557   1.436   4.628  10.789 -0.8309  0.0174 -0.2964
  279MOL0     C37558   1.458   4.524  10.681  0.7257 -1.0461 -0.2264
  279MOL0     C37559   1.518   4.746  10.815 -0.2017 -0.1641  0.7648
  279MOL0     C37560   1.648   4.762  10.745 -0.0484 -0.9509  1.0641
  279MOL0     O37561   1.709   4.882  10.759 -0.0182  0.0677 -0.3919
  279MOL0     C37562   1.846   4.893  10.764  1.1740 -0.2583 -0.3273
  279MOL0     C37563   1.909   4.966  10.668 -0.1189 -0.7448 -0.2071
  279MOL0     C37564   2.043   4.997  10.680 -0.1920 -0.2837  0.2297
  279MOL0     C37565   2.121   4.935  10.775 -0.7214  0.6350 -0.8211
  279MOL0     O37566   2.259   4.950  10.776  0.6284 -0.9841  0.3299
  279MOL0     C37567   2.334   4.890  10.664  0.5488  0.0083 -0.4807
  279MOL0     C37568   2.281   4.752  10.626 -0.3063 -0.5048 -0.0420
  279MOL0     C37569   2.376   4.685  10.532  0.0731  0.1722 -0.6046
  279MOL0     C37570   2.386   4.749  10.399 -0.2118 -0.0451 -0.1719
  279MOL0     C37571   2.466   4.664  10.305  0.3043 -0.2504 -0.2643
  279MOL0     C37572   2.399   4.532  10.261  0.1822 -0.4252  0.1584
  279MOL0     C37573   2.487   4.415  10.215  0.2135 -0.2454  0.3364
  279MOL0     C37574   2.424   4.271  10.226 -0.5972 -1.7055  0.4341
  279MOL0    Cl37575   2.496   4.161  10.112  0.1877 -0.4591 -0.2098
  279MOL0     C37576   2.066   4.846  10.867  0.9386 -0.8194  0.1435
  279MOL0     C37577   1.924   4.824  10.858  0.0783  0.6158 -0.6072
  279MOL0     O37578   1.695   4.664  10.685 -0.5025 -0.8969  0.2410
  279MOL0     C37579   1.471   4.852  10.893  1.1962  0.1918 -1.0880
  279MOL0     C37580   1.346   4.835  10.954 -0.7167 -0.3831 -0.7874
  279MOL0     N37581   0.948   4.641  11.563 -0.7142  0.1814 -0.7480
  279MOL0     N37582   0.926   4.737  11.645  0.1643 -0.5751  0.2639
  279MOL0     C37583   0.605   4.427  11.077 -0.3765 -0.5050  0.3776
  279MOL0     C37584   0.687   4.414  10.966  0.9625 -0.3830 -0.7605
  279MOL0     C37585   1.028   4.253  10.677  0.9266 -0.9995 -0.0222
  279MOL0     C37586   1.043   4.383  10.626  0.1422  0.7377  0.4989
  279MOL0     C37587   1.147   4.411  10.530 -0.1318  0.4613 -0.0740
  279MOL0     C37588   1.248   4.316  10.502  0.6696  0.4097 -0.0728
  279MOL0     O37589   1.341   4.339  10.403 -0.1404  0.5713  0.7171
  279MOL0     C37590   1.410   4.229  10.338  0.2939 -0.1330  0.7312
  279MOL0     C37591   1.521   4.304  10.248 -0.5934  0.0854 -0.1371
  279MOL0     C37592   1.664   4.300  10.311 -0.0153 -0.8789 -0.0796
  279MOL0     C37593   1.678   4.396  10.422 -0.4719  0.0743 -0.3296
  279MOL0     C37594   1.824   4.414  10.443  0.1546  0.3437 -0.5776
  279MOL0     C37595   1.942   4.439  10.461 -0.8911  0.2462  0.0345
  279MOL0     C37596   1.236   4.196  10.559  1.2688 -0.0207 -0.2402
  279MOL0     C37597   1.131   4.162  10.642  0.3123 -0.2198  0.5539
  279MOL0     H37598   0.836   4.118  11.033  0.6002 -0.0332  3.1952
  279MOL0     H37599   0.686   4.140  11.231 -3.6533  0.0763  0.0645
  279MOL0     H37600   0.418   4.178  11.328 -1.6166  2.5822 -1.9817
  279MOL0     H37601   0.569   4.190  11.400 -1.0525 -1.9273 -2.7508
  279MOL0     H37602   0.343   4.371  11.472 -1.1405 -1.9807  1.3151
  279MOL0     H37603   0.383   4.206  11.535  3.0020 -1.6388  0.6011
  279MOL0     H37604   0.563   4.290  11.647 -1.0439 -1.5403 -0.2566
  279MOL0     H37605   0.587   4.439  11.557  1.7656 -1.2053  1.7470
  279MOL0     H37606   0.341   4.491  11.652 -3.5707 -2.9553  4.0413
  279MOL0     H37607   0.389   4.367  11.762 -0.4255  0.2247  1.2655
  279MOL0     H37608   0.449   4.599  11.860 -1.2980 -1.6433 -0.6240
  279MOL0     H37609   0.594   4.505  11.837  0.6870 -0.4665 -0.8029
  279MOL0     H37610   0.640   4.620  11.622 -2.4564  1.6241 -2.5836
  279MOL0     H37611   0.508   4.724  11.644  0.0006  0.2428  0.2367
  279MOL0     H37612   0.607   4.814  11.861 -1.5447 -0.9889  0.3403
  279MOL0     H37613   0.748   4.716  11.830  0.3386  3.1676  2.1150
  279MOL0     H37614   0.808   4.938  11.763  1.7364 -0.4675  0.0294
  279MOL0     H37615   0.674   4.959  11.654 -1.6070 -0.9028  0.3400
  279MOL0     H37616   0.705   4.790  11.413 -2.5348 -2.1669  0.2844
  279MOL0     H37617   0.811   4.442  11.406  4.3571 -1.4470  1.0130
  279MOL0     H37618   0.758   4.575  11.298 -0.2787 -1.6771 -0.8793
  279MOL0     H37619   0.942   4.429  11.208  0.1399 -0.2448 -0.6929
  279MOL0     H37620   1.050   4.492  11.337 -1.4396 -1.8410 -0.7742
  279MOL0     H37621   1.068   4.680  11.245 -1.0010 -2.4051  2.5789
  279MOL0     H37622   0.912   4.697  11.158  0.2461  1.9907  2.0513
  279MOL0     H37623   0.992   4.565  10.964 -0.5957  3.6823 -1.5787
  279MOL0     H37624   1.133   4.521  11.056 -2.3552 -1.1774 -0.2929
  279MOL0     H37625   1.248   4.537  10.847  0.5448  0.0223 -5.9073
  279MOL0     H37626   1.366   4.485  10.637 -1.0080  1.8823  0.5689
  279MOL0     H37627   1.513   4.563  10.595 -0.7135  1.4627 -0.1028
  279MOL0     H37628   1.517   4.447  10.732  0.1267 -1.4581 -0.1516
  279MOL0     H37629   1.856   5.014  10.586 -0.4173 -1.1404 -0.2459
  279MOL0     H37630   2.089   5.062  10.606  0.0927 -0.0988  0.5626
  279MOL0     H37631   2.320   4.960  10.581  1.5247 -0.0196 -0.6776
  279MOL0     H37632   2.440   4.885  10.689  0.2877  0.1973  0.7269
  279MOL0     H37633   2.254   4.693  10.714 -1.3910  0.2120  0.1207
  279MOL0     H37634   2.188   4.770  10.572 -0.4634  0.0728  0.4078
  279MOL0     H37635   2.336   4.583  10.523 -2.7386  1.2578 -1.6874
  279MOL0     H37636   2.471   4.674  10.585 -0.0857 -0.7066 -0.4734
  279MOL0     H37637   2.284   4.766  10.362 -0.2979  1.1046  0.5248
  279MOL0     H37638   2.435   4.844  10.421 -0.1694 -0.2922  0.8933
  279MOL0     H37639   2.554   4.644  10.366  0.4322  3.8538  1.2193
  279MOL0     H37640   2.493   4.723  10.217  2.3742 -0.2092  0.3447
  279MOL0     H37641   2.341   4.498  10.347 -1.3055  1.9801  0.1784
  279MOL0     H37642   2.321   4.552  10.187  0.9620  1.2414 -0.2578
  279MOL0     H37643   2.581   4.416  10.270 -0.1050  0.7440  0.9000
  279MOL0     H37644   2.495   4.424  10.106  1.6722  0.4960  0.4835
  279MOL0     H37645   2.317   4.290  10.212 -0.0902  3.1543  1.2866
  279MOL0     H37646   2.431   4.242  10.331 -0.3229  1.2690  1.3435
  279MOL0     H37647   2.129   4.802  10.944  0.2030 -0.4980  0.9399
  279MOL0     H37648   1.885   4.754  10.932 -0.2664  0.7835 -0.6262
  279MOL0     H37649   1.542   4.930  10.916  1.9066 -0.3501 -1.3937
  279MOL0     H37650   1.312   4.918  11.015  2.3660 -0.3929  1.1225
  279MOL0     H37651   0.553   4.522  11.084  0.3153 -0.1293  0.5977
  279MOL0     H37652   0.697   4.496  10.895  3.5808  0.5733  0.5653
  279MOL0     H37653   0.975   4.465  10.647 -0.9029  0.9570 -3.0747
  279MOL0     H37654   1.154   4.512  10.490  1.1983  0.9176  1.2244
  279MOL0     H37655   1.453   4.155  10.406  2.3333  0.0509 -0.2765
  279MOL0     H37656   1.337   4.176  10.276 -1.3215 -0.1012  2.5290
  279MOL0     H37657   1.492   4.404  10.216  1.4969  0.1551 -2.0754
  279MOL0     H37658   1.517   4.249  10.154 -2.9647  0.2771 -0.2183
  279MOL0     H37659   1.730   4.336  10.232 -1.9951 -0.6376 -1.7151
  279MOL0     H37660   1.687   4.197  10.340  2.4681 -0.3669  0.0409
  279MOL0     H37661   1.626   4.354  10.509  1.8669 -3.3064 -0.3629
  279MOL0     H37662   1.645   4.496  10.394 -0.1598  0.1137 -0.5703
  279MOL0     H37663   2.048   4.448  10.471 -0.9234  1.3042 -0.4653
  279MOL0     H37664   1.305   4.112  10.546  3.0661  1.1967  0.9890
  279MOL0     H37665   1.122   4.061  10.682 -2.6855  0.0680  0.8016
  280MOL0     O37666   3.731   8.810   7.804 -0.0635  0.2976 -0.1166
  280MOL0     C37667   3.794   8.875   7.725 -0.3545 -1.7067  0.5727
  280MOL0     O37668   3.899   8.963   7.758  0.6357 -0.2957  0.0006
  280MOL0     C37669   3.956   8.959   7.882  0.0568 -0.7751 -0.2530
  280MOL0     C37670   3.889   8.977   8.003 -0.2440  0.3121  0.3933
  280MOL0     C37671   3.954   8.974   8.125 -0.3258 -0.3648  0.5718
  280MOL0     C37672   4.099   8.951   8.132  0.6773  0.3564  0.1898
  280MOL0     O37673   4.165   8.954   8.247  0.3392  0.4328  0.0375
  280MOL0     C37674   4.210   8.825   8.293 -0.8240  0.4015 -0.4527
  280MOL0     C37675   4.296   8.832   8.424  0.1493 -0.8113  0.3874
  280MOL0     C37676   4.206   8.883   8.534  0.2223  0.1861  0.3388
  280MOL0     C37677   4.092   8.766   8.560  0.4376  0.1479 -0.1579
  280MOL0     C37678   4.024   8.799   8.688  0.2668 -0.0157 -0.0446
  280MOL0     C37679   3.875   8.761   8.699  1.2477  0.0275 -0.1958
  280MOL0     C37680   3.799   8.843   8.804 -0.2226 -0.6037  1.0937
  280MOL0     C37681   3.853   8.845   8.948 -0.7725  0.7751 -0.8805
  280MOL0     N37682   3.861   8.709   9.011 -0.5270  0.0380 -0.1721
  280MOL0     C37683   3.763   8.640   9.085 -0.7917 -0.5934 -0.2965
  280MOL0     C37684   3.840   8.542   9.155 -0.1757 -0.6188 -0.0489
  280MOL0     C37685   3.803   8.446   9.258  1.2325 -0.7214 -0.0949
  280MOL0     C37686   3.687   8.347   9.230 -0.7391  0.3856 -0.0634
  280MOL0     C37687   3.548   8.405   9.255 -0.4359 -0.5296  0.8077
  280MOL0     C37688   3.425   8.306   9.238  0.2738 -0.7163  0.4365
  280MOL0     O37689   3.295   8.358   9.273 -0.4524 -0.9147 -0.0804
  280MOL0     C37690   3.188   8.278   9.285  0.3004 -0.5489 -0.4038
  280MOL0     C37691   3.069   8.353   9.299 -0.3815 -0.2053  0.6008
  280MOL0     C37692   2.948   8.293   9.301  0.2085  0.1705  0.4261
  280MOL0     C37693   2.836   8.390   9.318  0.0265  0.4214  0.3704
  280MOL0     C37694   2.938   8.150   9.311  0.0256  0.1057 -1.5520
  280MOL0     C37695   2.821   8.079   9.323 -0.5569  0.5308 -0.0123
  280MOL0     O37696   2.830   7.959   9.253 -0.0847  0.2048 -0.7964
  280MOL0     C37697   2.719   7.881   9.245  0.7647  0.4821  0.4552
  280MOL0     C37698   2.601   7.862   9.322  0.3293 -1.8562 -0.2711
  280MOL0     C37699   2.502   7.772   9.292  0.7180  0.1886  0.9965
  280MOL0     C37700   2.514   7.691   9.174  0.3077  0.3859  0.6654
  280MOL0     O37701   2.412   7.618   9.115  0.2197 -0.0864 -0.0843
  280MOL0     C37702   2.291   7.604   9.185  0.5943  0.6113 -0.4902
  280MOL0     C37703   2.187   7.529   9.113  0.0879 -0.9171 -0.2165
  280MOL0     C37704   2.207   7.379   9.124 -0.3380 -1.6055 -0.3989
  280MOL0     C37705   2.102   7.302   9.037 -0.1383 -0.9019  0.0146
  280MOL0     C37706   2.070   7.160   9.086  0.3285 -0.9078 -0.3898
  280MOL0     C37707   1.987   7.169   9.210 -0.6969  0.8292  0.4559
  280MOL0     C37708   1.973   7.041   9.283 -0.0363 -0.6484  1.1092
  280MOL0     C37709   1.859   7.079   9.386  0.4073 -0.3491  0.2919
  280MOL0    Cl37710   1.687   7.105   9.306  0.3432  0.4369  0.0554
  280MOL0     C37711   2.632   7.696   9.094  1.0096 -0.7113 -0.4158
  280MOL0     C37712   2.728   7.795   9.128 -0.3308 -0.1279 -0.9075
  280MOL0     O37713   2.723   8.109   9.384 -0.4106 -0.0573  0.1315
  280MOL0     C37714   3.056   8.079   9.296  0.2410 -1.0345  0.0596
  280MOL0     C37715   3.179   8.141   9.277  0.0206 -0.2971 -0.0161
  280MOL0     N37716   3.968   8.555   9.109  0.3150  0.1479  0.6188
  280MOL0     N37717   3.981   8.655   9.032 -0.0505  0.6655  0.5540
  280MOL0     C37718   4.165   8.935   8.016 -0.4175 -0.2559 -0.1606
  280MOL0     C37719   4.100   8.937   7.891 -1.0654 -0.8238 -0.1899
  280MOL0     C37720   3.762   8.858   7.580  0.0337 -0.0731 -0.3566
  280MOL0     C37721   3.839   8.919   7.480 -0.4298  0.0012  0.4640
  280MOL0     C37722   3.809   8.889   7.340 -0.3063  0.1216 -1.1037
  280MOL0     C37723   3.711   8.799   7.301  0.7488  0.1724 -0.8164
  280MOL0     O37724   3.689   8.762   7.169  0.1681 -0.0470 -0.1798
  280MOL0     C37725   3.786   8.810   7.072 -0.3932 -0.0524 -0.3766
  280MOL0     C37726   3.777   8.750   6.932 -0.1242  0.4067 -0.0814
  280MOL0     C37727   3.717   8.848   6.831 -0.0898  0.4764 -0.3251
  280MOL0     C37728   3.697   8.778   6.696 -0.3166 -0.0627 -0.5478
  280MOL0     C37729   3.837   8.774   6.640  0.4548  0.2091 -0.5573
  280MOL0     C37730   3.949   8.776   6.599 -0.9061  0.0517  0.2621
  280MOL0     C37731   3.629   8.745   7.402 -0.5553  0.7158 -0.1522
  280MOL0     C37732   3.660   8.762   7.543 -1.0428 -0.0964  0.1582
  280MOL0     H37733   3.781   8.986   7.997 -0.1929  0.1675 -2.2546
  280MOL0     H37734   3.892   8.998   8.211  1.4172  1.5890  1.3645
  280MOL0     H37735   4.130   8.754   8.315 -1.2187  0.5607 -1.3529
  280MOL0     H37736   4.265   8.779   8.211 -1.2473 -0.8171 -0.0716
  280MOL0     H37737   4.351   8.738   8.439 -0.7867 -2.1744 -3.4915
  280MOL0     H37738   4.382   8.894   8.396 -1.6788  0.7265 -2.2137
  280MOL0     H37739   4.272   8.890   8.621  0.5520 -1.8973  0.3234
  280MOL0     H37740   4.164   8.978   8.501  1.1768  0.7254  0.6088
  280MOL0     H37741   4.020   8.745   8.480 -1.4930 -1.2552  1.8420
  280MOL0     H37742   4.140   8.669   8.576  1.5110  0.7783  0.5143
  280MOL0     H37743   4.076   8.739   8.763  0.1488 -0.1094 -0.0366
  280MOL0     H37744   4.043   8.903   8.713 -3.2145  0.7495 -0.0784
  280MOL0     H37745   3.826   8.780   8.603 -0.0695 -0.2280  0.4029
  280MOL0     H37746   3.859   8.661   8.739  1.2318  1.2827  3.2768
  280MOL0     H37747   3.807   8.944   8.764  1.2800 -0.0291  2.7182
  280MOL0     H37748   3.694   8.815   8.804 -0.4781  0.3110  0.5753
  280MOL0     H37749   3.798   8.909   9.018 -0.9363  0.5486 -0.8022
  280MOL0     H37750   3.950   8.896   8.941 -1.2312  2.2451  2.0813
  280MOL0     H37751   3.657   8.662   9.096 -1.5899 -2.7451 -2.6784
  280MOL0     H37752   3.892   8.387   9.278 -0.6352 -3.0967  1.7471
  280MOL0     H37753   3.771   8.501   9.347 -1.8519  1.2687 -2.1882
  280MOL0     H37754   3.709   8.259   9.291  1.4029  0.4496 -0.6752
  280MOL0     H37755   3.697   8.315   9.126 -1.0786 -1.0526  0.3155
  280MOL0     H37756   3.527   8.493   9.194  1.1591  0.7444  1.9931
  280MOL0     H37757   3.558   8.441   9.358  0.6604  0.7407  0.2917
  280MOL0     H37758   3.449   8.218   9.299  1.2381 -0.6314  0.1919
  280MOL0     H37759   3.428   8.273   9.133 -2.5155  0.6004 -0.1576
  280MOL0     H37760   3.072   8.461   9.295 -2.1278 -0.1327 -3.0951
  280MOL0     H37761   2.866   8.475   9.380  0.9013  1.3030 -1.1887
  280MOL0     H37762   2.810   8.412   9.214 -0.9013 -2.0146  0.0337
  280MOL0     H37763   2.743   8.352   9.361  0.5754  1.0193  2.1746
  280MOL0     H37764   2.577   7.918   9.412 -0.7193 -4.1165  0.9308
  280MOL0     H37765   2.406   7.775   9.343 -0.7525  5.0036 -1.4413
  280MOL0     H37766   2.314   7.556   9.281 -0.5948 -0.2864 -0.6453
  280MOL0     H37767   2.254   7.704   9.210 -2.2391 -0.6968  0.9533
  280MOL0     H37768   2.091   7.552   9.159  1.1423  1.8627  0.8268
  280MOL0     H37769   2.187   7.568   9.011 -1.0772  0.4183  0.2691
  280MOL0     H37770   2.190   7.350   9.228 -1.0009  1.5196  0.4899
  280MOL0     H37771   2.307   7.343   9.100 -0.2938 -1.6970 -0.0821
  280MOL0     H37772   2.012   7.362   9.055 -0.7587 -1.3173 -1.5525
  280MOL0     H37773   2.128   7.296   8.931  1.5554  0.2098  0.3297
  280MOL0     H37774   2.154   7.095   9.114  1.5260  1.2410  1.2917
  280MOL0     H37775   2.012   7.107   9.010 -0.6738  1.4895 -1.3956
  280MOL0     H37776   2.046   7.228   9.280  0.7546 -3.3298  3.0950
  280MOL0     H37777   1.888   7.210   9.189 -0.8090  0.6436  0.6188
  280MOL0     H37778   2.068   7.003   9.321  2.7909  2.5997 -1.9466
  280MOL0     H37779   1.945   6.966   9.208  0.1896  1.2980 -1.0439
  280MOL0     H37780   1.893   7.163   9.447  1.2919 -0.8745  0.5422
  280MOL0     H37781   1.854   6.992   9.452 -1.2939 -1.2465 -0.9204
  280MOL0     H37782   2.639   7.629   9.008 -0.4094 -0.4527 -0.7524
  280MOL0     H37783   2.823   7.802   9.075 -0.7073 -0.4750 -1.6435
  280MOL0     H37784   3.049   7.971   9.293  0.0345 -1.0035 -0.6197
  280MOL0     H37785   3.258   8.074   9.244 -0.5276  0.4368 -3.1289
  280MOL0     H37786   4.273   8.942   8.025 -0.5535  2.8248  0.1793
  280MOL0     H37787   4.153   8.934   7.796  0.5307  2.7187  0.4368
  280MOL0     H37788   3.926   8.982   7.496 -0.1858  1.0614 -3.8456
  280MOL0     H37789   3.874   8.939   7.268  2.3006 -0.8557  0.4406
  280MOL0     H37790   3.784   8.919   7.061 -2.9346  0.0171  0.0634
  280MOL0     H37791   3.885   8.792   7.114 -0.4191  0.8309  0.1026
  280MOL0     H37792   3.713   8.662   6.940  1.6840 -1.1285 -1.5382
  280MOL0     H37793   3.872   8.707   6.902  0.6134  0.7247  1.6883
  280MOL0     H37794   3.785   8.933   6.819 -0.4111  0.5102 -2.2920
  280MOL0     H37795   3.623   8.880   6.876 -0.0397 -0.7301  0.6847
  280MOL0     H37796   3.632   8.836   6.630  2.2050  0.7123 -2.4736
  280MOL0     H37797   3.656   8.677   6.711  0.4031 -0.4379 -1.0936
  280MOL0     H37798   4.049   8.785   6.561 -0.9356 -1.1135 -0.1191
  280MOL0     H37799   3.547   8.681   7.372 -1.3040  1.5808 -0.0108
  280MOL0     H37800   3.608   8.713   7.624  1.4109  2.0906  3.2707
  281MOL0     O37801   5.114   9.164   8.687  0.3915 -0.4419 -0.6783
  281MOL0     C37802   5.092   9.254   8.609  0.5850 -0.7009 -0.5758
  281MOL0     O37803   5.134   9.375   8.621  0.4061  0.1646 -0.5840
  281MOL0     C37804   5.220   9.400   8.721 -1.1350  0.0038 -0.5114
  281MOL0     C37805   5.359   9.413   8.714  0.3357 -0.0780 -0.2585
  281MOL0     C37806   5.440   9.450   8.828 -0.4005 -0.7284 -0.1420
  281MOL0     C37807   5.383   9.479   8.948  0.5436  0.5616 -0.2216
  281MOL0     O37808   5.459   9.527   9.056 -0.3724 -0.5028 -0.3757
  281MOL0     C37809   5.559   9.626   9.040 -0.6398 -0.3777  0.0899
  281MOL0     C37810   5.623   9.676   9.175  0.7769  0.4740 -0.6150
  281MOL0     C37811   5.736   9.785   9.171  0.2197  0.5776 -0.1056
  281MOL0     C37812   5.696   9.915   9.119  0.0901 -0.2268 -0.3989
  281MOL0     C37813   5.805  10.020   9.158  0.3075 -0.8095 -0.5129
  281MOL0     C37814   5.784  10.155   9.079 -0.5748  0.6697  0.3539
  281MOL0     C37815   5.680  10.244   9.139  0.2286 -0.4458  0.1066
  281MOL0     C37816   5.660  10.367   9.060  0.2500 -0.5015  1.1803
  281MOL0     N37817   5.608  10.333   8.922  0.6580 -0.6357  0.2735
  281MOL0     C37818   5.649  10.408   8.812  0.1758 -0.4977 -0.2197
  281MOL0     C37819   5.561  10.384   8.720  0.0279  0.2643 -0.4500
  281MOL0     C37820   5.559  10.433   8.569  0.5279 -0.5630 -0.1632
  281MOL0     C37821   5.589  10.582   8.531  0.5602 -0.5944  0.0602
  281MOL0     C37822   5.477  10.682   8.579  0.4659 -0.0590 -0.0765
  281MOL0     C37823   5.510  10.818   8.525  0.0322 -0.4311  0.4127
  281MOL0     O37824   5.635  10.865   8.569  0.4286 -0.4335 -0.3101
  281MOL0     C37825   5.717  10.914   8.473  0.1552 -0.1627 -0.7702
  281MOL0     C37826   5.849  10.926   8.512 -0.1433  0.8073 -1.1054
  281MOL0     C37827   5.947  10.992   8.431  0.1964  0.2760  0.1726
  281MOL0     C37828   6.076  11.021   8.508  0.7876  0.7576 -0.2871
  281MOL0     C37829   5.912  11.032   8.302  0.3274 -0.7117  0.0136
  281MOL0     C37830   6.010  11.090   8.200 -0.4067  0.2374 -1.3365
  281MOL0     O37831   5.961  11.166   8.099 -0.7618  0.0188  0.2433
  281MOL0     C37832   6.055  11.213   8.004 -0.3995 -0.1975 -0.8218
  281MOL0     C37833   6.143  11.322   8.036  0.3922  1.1151 -0.2729
  281MOL0     C37834   6.232  11.369   7.940 -0.4919  0.9132  0.4447
  281MOL0     C37835   6.235  11.305   7.813  0.8223 -0.1623 -0.5585
  281MOL0     O37836   6.315  11.364   7.725 -0.0028  0.2919  1.4604
  281MOL0     C37837   6.357  11.286   7.612 -0.1856  0.3583 -0.5797
  281MOL0     C37838   6.488  11.345   7.549  0.5870 -0.4547 -0.1342
  281MOL0     C37839   6.524  11.285   7.405 -0.6841 -0.4312  0.1828
  281MOL0     C37840   6.417  11.306   7.300  0.4234  0.3630  0.1931
  281MOL0     C37841   6.475  11.310   7.150  0.3780  0.2308  0.1793
  281MOL0     C37842   6.366  11.331   7.047 -0.5602  0.1088  0.0249
  281MOL0     C37843   6.280  11.448   7.051  0.2717  0.9184 -0.2622
  281MOL0     C37844   6.166  11.448   6.947  0.1302  0.0865 -0.5119
  281MOL0    Cl37845   6.243  11.433   6.786  0.1582  0.3108 -0.8632
  281MOL0     C37846   6.151  11.198   7.778  0.4743  0.6131  0.6688
  281MOL0     C37847   6.059  11.154   7.873 -0.0631  0.2674 -0.5777
  281MOL0     O37848   6.130  11.064   8.216 -0.0312 -0.0960 -0.1530
  281MOL0     C37849   5.779  11.031   8.266 -1.1340  0.2972 -0.5151
  281MOL0     C37850   5.678  10.975   8.355  0.1020  0.6577 -0.2572
  281MOL0     N37851   5.464  10.293   8.770 -0.2534 -0.2139  0.5413
  281MOL0     N37852   5.496  10.269   8.893  0.0249  0.8287  0.0093
  281MOL0     C37853   5.237   9.468   8.953  0.2276 -1.1513 -0.5974
  281MOL0     C37854   5.166   9.426   8.841  1.3026  0.2678  0.5568
  281MOL0     C37855   4.995   9.232   8.503  0.1037 -0.4883 -0.4771
  281MOL0     C37856   4.993   9.312   8.388  0.0520  0.0779  0.2956
  281MOL0     C37857   4.902   9.295   8.287 -0.4127 -0.5481 -0.4705
  281MOL0     C37858   4.820   9.186   8.288 -0.5555  0.3433  0.2853
  281MOL0     O37859   4.748   9.168   8.168 -0.2620 -0.0547 -1.0375
  281MOL0     C37860   4.663   9.051   8.155 -0.2439  0.3162 -0.9713
  281MOL0     C37861   4.613   9.055   8.012 -0.4350  0.4140  0.0326
  281MOL0     C37862   4.720   9.034   7.902  0.3162  0.4343 -0.8043
  281MOL0     C37863   4.656   9.029   7.765  0.3805 -0.3330 -0.0995
  281MOL0     C37864   4.544   8.946   7.748  0.0078 -0.2330  0.2651
  281MOL0     C37865   4.458   8.868   7.724 -0.1048 -0.2705  0.5342
  281MOL0     C37866   4.818   9.096   8.402 -0.2190 -0.3014  0.0205
  281MOL0     C37867   4.909   9.121   8.509  1.2833  1.3661  0.2235
  281MOL0     H37868   5.398   9.379   8.619 -3.8426 -1.1789 -1.8006
  281MOL0     H37869   5.546   9.468   8.815 -0.7190  1.9837  0.3767
  281MOL0     H37870   5.644   9.577   8.990  0.4851 -0.0021  1.5615
  281MOL0     H37871   5.527   9.710   8.978  1.7502  2.2626  2.1730
  281MOL0     H37872   5.536   9.701   9.236  0.6724  0.1450 -0.6234
  281MOL0     H37873   5.673   9.591   9.223  0.1699  1.2839  1.5314
  281MOL0     H37874   5.771   9.797   9.274 -1.2673  1.1661  0.3640
  281MOL0     H37875   5.814   9.755   9.100 -0.6744  0.7771 -1.2143
  281MOL0     H37876   5.673   9.911   9.012  1.1979  1.4411 -0.7428
  281MOL0     H37877   5.606   9.937   9.176 -1.7808  1.3307 -3.6863
  281MOL0     H37878   5.799  10.047   9.264 -1.3337  1.2187 -1.0690
  281MOL0     H37879   5.905   9.987   9.131  1.8050  2.5575  0.4659
  281MOL0     H37880   5.879  10.209   9.086 -0.0156 -0.3565  1.1560
  281MOL0     H37881   5.764  10.133   8.974  1.4334 -1.1097  0.2688
  281MOL0     H37882   5.580  10.202   9.150 -0.5291  1.0217 -0.7782
  281MOL0     H37883   5.708  10.281   9.238 -0.8123 -0.7943  0.5454
  281MOL0     H37884   5.754  10.422   9.060  1.0884 -1.7288 -1.8104
  281MOL0     H37885   5.586  10.417   9.122 -1.3677  0.2200 -1.1711
  281MOL0     H37886   5.741  10.465   8.812  0.1164 -0.3725  1.1976
  281MOL0     H37887   5.621  10.370   8.506 -0.3414 -0.0272 -1.6022
  281MOL0     H37888   5.458  10.406   8.537  1.2404 -4.0597  0.1883
  281MOL0     H37889   5.587  10.596   8.422 -1.9585 -1.0641 -0.0115
  281MOL0     H37890   5.689  10.609   8.566  0.9312  0.0613 -1.4173
  281MOL0     H37891   5.467  10.692   8.687 -2.4979  2.4545 -0.4387
  281MOL0     H37892   5.377  10.659   8.541 -0.2922  1.5849  0.8435
  281MOL0     H37893   5.429  10.884   8.557  0.5305 -0.0557  0.9271
  281MOL0     H37894   5.494  10.809   8.417 -0.2070 -1.3084  0.5102
  281MOL0     H37895   5.861  10.899   8.616 -0.9723  0.2136 -1.1524
  281MOL0     H37896   6.148  10.943   8.480 -0.9632 -0.6357 -1.1530
  281MOL0     H37897   6.112  11.121   8.483 -2.1210  1.7207 -0.9365
  281MOL0     H37898   6.058  11.012   8.616 -2.0469  2.4865 -0.5232
  281MOL0     H37899   6.142  11.376   8.131  3.9646  0.0898  0.4791
  281MOL0     H37900   6.293  11.457   7.953  1.0843  0.3325 -2.3324
  281MOL0     H37901   6.387  11.194   7.663 -0.5695  1.1493  1.1436
  281MOL0     H37902   6.278  11.259   7.541  0.0609 -3.2387  0.3260
  281MOL0     H37903   6.469  11.452   7.538 -0.5238 -0.4981  1.1565
  281MOL0     H37904   6.578  11.329   7.610  1.5933 -2.1711 -1.9497
  281MOL0     H37905   6.548  11.178   7.407 -0.1296 -0.3090  0.0248
  281MOL0     H37906   6.602  11.341   7.352 -0.3940 -0.3780  0.6598
  281MOL0     H37907   6.351  11.221   7.319 -1.1020  1.7924  1.5903
  281MOL0     H37908   6.354  11.393   7.319 -1.0496 -0.5095 -0.5306
  281MOL0     H37909   6.508  11.209   7.124 -0.6193  0.4681 -2.2718
  281MOL0     H37910   6.559  11.380   7.144 -0.2988  0.9610 -1.1129
  281MOL0     H37911   6.413  11.312   6.950  0.1097 -0.1595  0.3900
  281MOL0     H37912   6.297  11.246   7.046 -0.1556 -0.2263 -0.5037
  281MOL0     H37913   6.332  11.542   7.032 -2.9747  2.7980 -0.6597
  281MOL0     H37914   6.245  11.460   7.154  1.5358 -1.4362  0.5153
  281MOL0     H37915   6.106  11.539   6.958  0.7834  0.5463 -0.7148
  281MOL0     H37916   6.113  11.353   6.963  1.0935 -0.4606 -0.5084
  281MOL0     H37917   6.138  11.160   7.677 -0.6762 -2.1086  1.7393
  281MOL0     H37918   5.996  11.069   7.848  1.0742 -0.9098  0.4463
  281MOL0     H37919   5.752  11.093   8.181  1.6186  0.3582 -1.4395
  281MOL0     H37920   5.575  10.995   8.327 -0.9512 -0.4568  2.4907
  281MOL0     H37921   5.183   9.504   9.040  0.7078  3.4094 -1.9603
  281MOL0     H37922   5.058   9.419   8.841  1.2953 -0.3989 -1.2251
  281MOL0     H37923   5.062   9.396   8.385 -0.1249  0.3459  2.2225
  281MOL0     H37924   4.926   9.361   8.204  2.1682 -4.4701 -3.2144
  281MOL0     H37925   4.714   8.956   8.172 -1.5887 -0.5584 -1.6111
  281MOL0     H37926   4.579   9.058   8.225  1.0855 -0.8437  0.8217
  281MOL0     H37927   4.560   9.150   7.998  2.7219  2.2541 -0.1917
  281MOL0     H37928   4.541   8.973   8.001  0.5809 -0.2412 -2.6130
  281MOL0     H37929   4.777   8.944   7.925 -2.0631 -1.2767 -1.3029
  281MOL0     H37930   4.789   9.120   7.907  0.6033  0.1384  1.0215
  281MOL0     H37931   4.729   8.975   7.703 -1.0097 -0.8654 -1.3284
  281MOL0     H37932   4.632   9.131   7.735 -0.5138  0.2514  2.4134
  281MOL0     H37933   4.383   8.793   7.706  0.3731 -0.7106  0.3496
  281MOL0     H37934   4.754   9.008   8.394  1.2204 -1.2797 -1.1381
  281MOL0     H37935   4.909   9.043   8.584 -0.3560  1.5687  0.4707
  282MOL0     O37936   8.721   4.087   4.764  0.1296  0.5588  0.2053
  282MOL0     C37937   8.794   3.990   4.752  0.2087 -1.1334  0.3287
  282MOL0     O37938   8.798   3.905   4.638  0.2195 -0.3218 -0.1123
  282MOL0     C37939   8.756   3.954   4.513 -0.0435  0.2746 -0.0015
  282MOL0     C37940   8.763   4.088   4.471  0.1682 -0.1489 -0.2306
  282MOL0     C37941   8.717   4.131   4.349  0.9627 -0.5954  0.1488
  282MOL0     C37942   8.655   4.039   4.263 -0.6624  0.1101 -0.2481
  282MOL0     O37943   8.621   4.073   4.135  0.1648  0.1051  0.1957
  282MOL0     C37944   8.612   4.214   4.114  0.3105  0.8677  0.6213
  282MOL0     C37945   8.529   4.224   3.984 -0.4917  0.7168  0.5509
  282MOL0     C37946   8.426   4.335   3.977 -0.2257  0.8407  0.5229
  282MOL0     C37947   8.367   4.368   3.826  0.2659  0.0934  0.6163
  282MOL0     C37948   8.290   4.502   3.832 -0.5678 -0.2087  0.0420
  282MOL0     C37949   8.157   4.496   3.903 -0.3469 -0.2278 -0.1834
  282MOL0     C37950   8.089   4.635   3.896  0.6423 -0.2518 -0.1745
  282MOL0     C37951   8.074   4.693   4.036  0.6263 -0.4980  0.4103
  282MOL0     N37952   8.022   4.829   4.054  0.1246  0.8369  0.8005
  282MOL0     C37953   7.892   4.867   4.011  1.1057  0.2315 -0.0367
  282MOL0     C37954   7.884   5.000   4.024 -0.4976  0.4715  1.7773
  282MOL0     C37955   7.756   5.074   3.975 -1.4955 -0.1705 -0.1838
  282MOL0     C37956   7.653   5.091   4.088  0.3388 -0.3042  0.2399
  282MOL0     C37957   7.553   4.971   4.099  0.5692 -0.5182  0.2598
  282MOL0     C37958   7.431   4.979   4.007  0.5945 -1.1280  0.3082
  282MOL0     O37959   7.355   5.098   4.040  0.5811  1.1711 -0.7629
  282MOL0     C37960   7.256   5.081   4.135  0.2774 -0.0615 -0.2131
  282MOL0     C37961   7.237   4.982   4.232 -0.8406 -0.2124  0.4433
  282MOL0     C37962   7.128   4.974   4.322 -0.2825  0.2465 -0.8506
  282MOL0     C37963   7.104   4.854   4.412 -0.4401 -0.8021  0.3261
  282MOL0     C37964   7.034   5.084   4.311 -0.2215 -0.0370  0.3751
  282MOL0     C37965   6.924   5.113   4.407 -1.2114 -1.0132 -1.1409
  282MOL0     O37966   6.945   5.079   4.536  0.6721 -0.0654  0.2457
  282MOL0     C37967   6.844   5.107   4.624  0.0199 -0.0384 -0.2455
  282MOL0     C37968   6.807   5.240   4.662  0.2114  0.0030  0.1079
  282MOL0     C37969   6.697   5.271   4.746  0.4146 -0.1722 -0.3638
  282MOL0     C37970   6.635   5.169   4.815  0.7113 -0.2354 -0.1631
  282MOL0     O37971   6.536   5.202   4.897  0.4656 -0.7037 -0.4234
  282MOL0     C37972   6.507   5.120   5.003 -0.0011  0.7705  0.0997
  282MOL0     C37973   6.614   5.127   5.108  0.1031  0.3574 -0.0887
  282MOL0     C37974   6.594   5.047   5.232  0.5852  0.0489 -0.6225
  282MOL0     C37975   6.521   5.144   5.334  0.3135  0.0338  0.3139
  282MOL0     C37976   6.616   5.210   5.429  0.4783 -0.9893 -0.1578
  282MOL0     C37977   6.625   5.127   5.550 -1.1670 -0.1335  1.2282
  282MOL0     C37978   6.745   5.150   5.638 -0.0940 -0.1547  0.7308
  282MOL0     C37979   6.738   5.078   5.774 -0.8896  0.2775  0.2038
  282MOL0    Cl37980   6.720   4.901   5.761 -0.2943  0.3189 -0.1513
  282MOL0     C37981   6.667   5.035   4.776  0.6756 -0.6286  0.2839
  282MOL0     C37982   6.764   5.005   4.676 -0.4508  0.4987  0.0876
  282MOL0     O37983   6.829   5.177   4.366 -0.1151 -0.9061 -0.9115
  282MOL0     C37984   7.055   5.190   4.224 -0.3201 -0.8256  0.4316
  282MOL0     C37985   7.175   5.187   4.141 -0.3244 -1.0839  0.2695
  282MOL0     N37986   8.009   5.047   4.064 -0.6615 -0.0107 -0.3920
  282MOL0     N37987   8.091   4.945   4.071 -0.3321  0.3988 -0.2143
  282MOL0     C37988   8.640   3.904   4.304 -0.5332  1.2317 -0.7210
  282MOL0     C37989   8.691   3.856   4.427  0.1008 -0.0625 -0.2009
  282MOL0     C37990   8.881   3.943   4.864 -0.0203 -0.5493  0.1653
  282MOL0     C37991   8.880   3.993   4.997  1.0759  0.6769  0.7690
  282MOL0     C37992   8.959   3.946   5.091 -0.4851 -1.0013  0.0457
  282MOL0     C37993   9.062   3.852   5.056 -0.1337  0.4729  0.1305
  282MOL0     O37994   9.147   3.817   5.150 -0.1940  0.8946  0.3881
  282MOL0     C37995   9.289   3.853   5.131 -0.2301 -0.1702  0.4495
  282MOL0     C37996   9.383   3.788   5.235 -0.9455 -0.1510 -0.1967
  282MOL0     C37997   9.398   3.632   5.210 -0.1792 -0.3818  0.1064
  282MOL0     C37998   9.443   3.567   5.342  0.8171  0.5110 -0.3216
  282MOL0     C37999   9.574   3.615   5.392 -0.0747  0.0684 -0.2380
  282MOL0     C38000   9.684   3.638   5.422 -0.8194 -0.8154 -0.3911
  282MOL0     C38001   9.070   3.798   4.931  1.5075  0.6690  0.2850
  282MOL0     C38002   8.974   3.839   4.834  0.2254 -1.2199 -0.0711
  282MOL0     H38003   8.819   4.160   4.530  0.3966 -0.4836 -0.0361
  282MOL0     H38004   8.735   4.229   4.307  0.1919 -0.6912 -0.4209
  282MOL0     H38005   8.553   4.263   4.192 -0.6851  2.4306 -1.0192
  282MOL0     H38006   8.711   4.261   4.103  1.5310 -1.3586  1.5238
  282MOL0     H38007   8.607   4.241   3.909 -2.4639 -2.5071 -2.5494
  282MOL0     H38008   8.483   4.126   3.969  0.0716  0.3062  1.4464
  282MOL0     H38009   8.347   4.314   4.050 -0.7259 -1.4877 -0.5822
  282MOL0     H38010   8.475   4.425   4.016 -1.1964  1.9513 -0.7338
  282MOL0     H38011   8.450   4.383   3.756  1.3641 -1.4751  1.5040
  282MOL0     H38012   8.315   4.277   3.794 -0.4439 -0.4354  3.0449
  282MOL0     H38013   8.348   4.575   3.890 -0.0866 -1.6569  1.4596
  282MOL0     H38014   8.282   4.527   3.725  0.8161 -1.6824 -0.4528
  282MOL0     H38015   8.101   4.419   3.849  0.9591  1.1371 -3.8423
  282MOL0     H38016   8.170   4.449   4.000  0.9313 -1.0537 -0.7170
  282MOL0     H38017   8.153   4.694   3.830  1.9317 -0.9901  0.3712
  282MOL0     H38018   7.989   4.630   3.853  0.0767  1.6681  0.7803
  282MOL0     H38019   8.173   4.683   4.082  0.2898 -1.5514  0.9455
  282MOL0     H38020   8.010   4.633   4.102  1.3274  0.6924  2.2489
  282MOL0     H38021   7.815   4.800   3.976  4.0965 -3.7448  0.2373
  282MOL0     H38022   7.779   5.169   3.927  5.1916 -1.9820 -1.6455
  282MOL0     H38023   7.725   5.014   3.888  0.8499 -0.6143 -0.7878
  282MOL0     H38024   7.593   5.178   4.062 -2.5231 -2.9298 -2.8650
  282MOL0     H38025   7.709   5.114   4.179  1.2943  1.7771 -0.8076
  282MOL0     H38026   7.511   4.986   4.199  0.7123  1.6595  0.0372
  282MOL0     H38027   7.608   4.877   4.091  2.9586  0.8633 -0.3740
  282MOL0     H38028   7.371   4.888   4.009  0.4549 -1.0279  1.0255
  282MOL0     H38029   7.468   4.978   3.904 -2.0003  0.1108 -0.7142
  282MOL0     H38030   7.297   4.892   4.234 -0.9430 -0.4835 -3.0736
  282MOL0     H38031   7.162   4.862   4.504 -0.6059 -1.0540  0.4513
  282MOL0     H38032   6.998   4.856   4.437 -0.5727  2.0894 -0.1939
  282MOL0     H38033   7.133   4.756   4.373  1.3832 -0.6750  1.2507
  282MOL0     H38034   6.858   5.316   4.605  1.5953 -0.9122  0.0758
  282MOL0     H38035   6.660   5.371   4.765  2.5666  0.0194  4.0840
  282MOL0     H38036   6.417   5.164   5.048 -0.8760  1.2740 -2.0315
  282MOL0     H38037   6.477   5.020   4.973  0.0617  0.8609 -0.2615
  282MOL0     H38038   6.710   5.095   5.066  0.1163 -1.4119  1.2070
  282MOL0     H38039   6.641   5.233   5.117  1.7190  0.2117 -2.3000
  282MOL0     H38040   6.695   5.012   5.255  0.2816 -2.4479 -2.6799
  282MOL0     H38041   6.532   4.957   5.224 -0.9193  0.8474  1.3338
  282MOL0     H38042   6.471   5.216   5.268  1.4384 -1.9315 -2.9084
  282MOL0     H38043   6.439   5.092   5.384 -1.7920  1.9743 -0.9098
  282MOL0     H38044   6.589   5.308   5.469  1.1541  0.3914 -2.8235
  282MOL0     H38045   6.718   5.217   5.389  0.7181  3.4697  0.7123
  282MOL0     H38046   6.538   5.144   5.614 -1.6404  0.8110  0.3574
  282MOL0     H38047   6.629   5.022   5.520  1.8958  0.5288 -1.2234
  282MOL0     H38048   6.777   5.254   5.641 -0.5761  0.0108  0.1335
  282MOL0     H38049   6.823   5.107   5.574 -0.4347  0.2195  0.0569
  282MOL0     H38050   6.661   5.131   5.831  0.4677  2.1981  0.3472
  282MOL0     H38051   6.835   5.102   5.817 -1.9475  0.6099  2.5768
  282MOL0     H38052   6.633   4.954   4.840 -1.2729 -0.4929 -0.4991
  282MOL0     H38053   6.801   4.905   4.657  1.1460  0.6617  1.9430
  282MOL0     H38054   6.992   5.278   4.213 -3.0631 -2.9377 -2.6287
  282MOL0     H38055   7.165   5.268   4.070 -0.2564 -0.3044  1.1163
  282MOL0     H38056   8.581   3.846   4.233 -0.1497  2.2476 -1.8996
  282MOL0     H38057   8.680   3.752   4.455  1.5389 -0.0862  0.4054
  282MOL0     H38058   8.827   4.088   5.006 -0.4747  0.1277 -1.7021
  282MOL0     H38059   8.947   3.984   5.192  0.6712  1.9300 -0.7960
  282MOL0     H38060   9.324   3.828   5.030  0.9501 -0.2940  0.8770
  282MOL0     H38061   9.309   3.960   5.139  1.4458 -0.1939 -2.1169
  282MOL0     H38062   9.352   3.808   5.338 -1.6927 -1.6320 -0.1021
  282MOL0     H38063   9.485   3.826   5.225 -1.0381  2.0524  4.6082
  282MOL0     H38064   9.461   3.607   5.124 -1.6666  0.1779 -1.1935
  282MOL0     H38065   9.297   3.597   5.188 -0.9240  2.3132 -1.2556
  282MOL0     H38066   9.436   3.462   5.314  0.2839  0.4789 -0.0840
  282MOL0     H38067   9.362   3.594   5.410  0.9520 -2.2294  1.0146
  282MOL0     H38068   9.778   3.655   5.472 -1.3525  3.4990 -0.4656
  282MOL0     H38069   9.152   3.730   4.908 -0.9711 -1.7498 -2.1405
  282MOL0     H38070   8.994   3.803   4.733  0.5595  1.0157 -0.8504
  283MOL0     O38071  10.001   2.924   4.070  0.4169  0.5190  0.3160
  283MOL0     C38072  10.089   2.913   3.986 -0.7072  0.5234 -0.4925
  283MOL0     O38073  10.173   3.013   3.943  0.5417 -0.7575 -0.3480
  283MOL0     C38074  10.156   3.141   4.001 -0.4443  0.3386 -0.0880
  283MOL0     C38075  10.161   3.153   4.141  1.3372 -0.9433  0.5653
  283MOL0     C38076  10.130   3.278   4.206 -1.1070  0.6384  0.4189
  283MOL0     C38077  10.108   3.393   4.132 -0.2230  0.4428 -0.9273
  283MOL0     O38078  10.094   3.514   4.200 -0.2009  0.5238 -0.4489
  283MOL0     C38079  10.076   3.635   4.120  0.1502  0.4904 -0.2282
  283MOL0     C38080   9.929   3.682   4.107 -0.2772  1.1641  0.1336
  283MOL0     C38081   9.898   3.826   4.059 -0.2496  0.4062  0.4353
  283MOL0     C38082   9.915   3.835   3.904  0.9328  0.6517 -0.0572
  283MOL0     C38083   9.875   3.978   3.852  0.2356 -0.1636 -0.1482
  283MOL0     C38084   9.983   4.068   3.807  0.1590 -0.2706 -0.4101
  283MOL0     C38085  10.073   4.012   3.694  0.6512 -0.0003 -0.6040
  283MOL0     C38086  10.225   4.058   3.702 -0.1762  0.2795 -0.5501
  283MOL0     N38087  10.291   4.011   3.822  0.2707  0.2850 -0.6273
  283MOL0     C38088  10.275   4.054   3.949 -0.0110  0.0568 -0.3454
  283MOL0     C38089  10.332   3.965   4.029 -0.0725 -0.6576  0.8541
  283MOL0     C38090  10.330   3.972   4.180  0.1821  0.4276 -0.7396
  283MOL0     C38091  10.409   3.861   4.257 -0.0397  0.0798  0.2277
  283MOL0     C38092  10.555   3.868   4.228 -0.6843  0.0264  0.0980
  283MOL0     C38093  10.613   3.989   4.314  1.3519 -0.2249  0.7313
  283MOL0     O38094  10.748   3.955   4.322  0.1340 -1.1151 -0.1521
  283MOL0     C38095  10.835   4.048   4.377  0.2424  0.1405  0.1110
  283MOL0     C38096  10.822   4.185   4.388  0.0509 -0.6374 -1.3572
  283MOL0     C38097  10.917   4.268   4.448  0.1964  0.0411  0.6525
  283MOL0     C38098  10.881   4.406   4.472  0.4135 -0.4511  1.3868
  283MOL0     C38099  11.040   4.212   4.483 -0.9225  0.2374  0.6938
  283MOL0     C38100  11.150   4.294   4.537 -1.4287 -0.2981 -0.6705
  283MOL0     O38101  11.273   4.243   4.522  0.0809  0.1590  0.6790
  283MOL0     C38102  11.360   4.263   4.630  1.6167  0.4502 -0.7673
  283MOL0     C38103  11.462   4.356   4.606  1.0278 -1.1437  0.5177
  283MOL0     C38104  11.561   4.386   4.704  0.0255 -0.8238  0.2757
  283MOL0     C38105  11.562   4.318   4.829  1.1442 -0.8015  0.4224
  283MOL0     O38106  11.653   4.331   4.928  0.1653  0.7405 -0.7685
  283MOL0     C38107  11.785   4.383   4.904  0.2801  0.3061 -0.7084
  283MOL0     C38108  11.868   4.367   5.031 -0.0241 -0.3685 -0.1859
  283MOL0     C38109  11.877   4.216   5.067 -0.1138 -0.3614 -0.4160
  283MOL0     C38110  11.978   4.169   5.175  0.6042 -0.3296 -0.0541
  283MOL0     C38111  11.937   4.029   5.216 -0.0402 -1.1913  1.0440
  283MOL0     C38112  12.057   3.944   5.262  1.0688 -0.6064  0.1555
  283MOL0     C38113  12.018   3.810   5.325 -0.0425 -0.4139  0.3221
  283MOL0     C38114  12.115   3.700   5.285  0.1562 -0.0495 -1.1686
  283MOL0    Cl38115  12.054   3.556   5.354  0.4878  0.4621 -0.1973
  283MOL0     C38116  11.460   4.226   4.847 -0.2762 -0.6860  0.2452
  283MOL0     C38117  11.366   4.186   4.747  0.1551 -0.8366 -0.2082
  283MOL0     O38118  11.124   4.385   4.619 -0.1614  0.8842 -0.3021
  283MOL0     C38119  11.061   4.077   4.456  0.7155 -0.2995  0.0088
  283MOL0     C38120  10.963   3.995   4.406  0.6242  0.5338  0.3620
  283MOL0     N38121  10.358   3.847   3.947  0.2334  0.1706 -0.4608
  283MOL0     N38122  10.337   3.882   3.820  0.4335 -0.1512 -0.5381
  283MOL0     C38123  10.109   3.378   3.992  0.6522 -0.2295 -0.0591
  283MOL0     C38124  10.140   3.260   3.937  0.4363  0.9783 -0.0801
  283MOL0     C38125  10.110   2.786   3.923  0.5459 -0.5576  0.5478
  283MOL0     C38126   9.998   2.708   3.922 -0.3208 -0.3851 -0.7004
  283MOL0     C38127  10.013   2.574   3.892 -0.3851 -0.3375  0.7269
  283MOL0     C38128  10.138   2.519   3.854  0.0528 -0.6984  0.5504
  283MOL0     O38129  10.154   2.383   3.838 -0.1805 -0.4336 -0.3722
  283MOL0     C38130  10.111   2.292   3.937 -0.3010  0.2108 -0.5670
  283MOL0     C38131  10.180   2.155   3.915  0.1131  0.0599 -0.9157
  283MOL0     C38132  10.332   2.152   3.888  0.8513  0.2874 -0.2571
  283MOL0     C38133  10.373   2.025   3.809  0.2093 -0.3896  0.6134
  283MOL0     C38134  10.308   1.995   3.683  0.1360 -0.2023 -0.4172
  283MOL0     C38135  10.282   1.936   3.584  0.1742  0.0974  0.0968
  283MOL0     C38136  10.248   2.603   3.844  0.1216 -0.2955 -0.9750
  283MOL0     C38137  10.237   2.734   3.897 -0.3542  0.3426 -1.1786
  283MOL0     H38138  10.175   3.065   4.202  1.3376  0.3772  2.5321
  283MOL0     H38139  10.138   3.281   4.314  0.9319  2.5150  0.2846
  283MOL0     H38140  10.135   3.717   4.162  1.9441 -0.1427 -1.4100
  283MOL0     H38141  10.127   3.626   4.024 -2.9985 -0.0720 -2.0123
  283MOL0     H38142   9.878   3.606   4.047  2.1917 -3.2144  2.9431
  283MOL0     H38143   9.886   3.696   4.207 -2.0206  2.2279 -0.7303
  283MOL0     H38144   9.802   3.859   4.099 -2.0533 -0.6984 -2.6505
  283MOL0     H38145   9.974   3.886   4.111  1.3703 -1.1938  0.0278
  283MOL0     H38146  10.020   3.812   3.888  0.7721  0.9927 -1.7608
  283MOL0     H38147   9.852   3.759   3.858 -1.0812  1.1784  1.6451
  283MOL0     H38148   9.807   3.960   3.768 -1.4044  0.9378  0.8767
  283MOL0     H38149   9.815   4.033   3.925  0.1554 -1.9330  1.1574
  283MOL0     H38150   9.937   4.161   3.772  1.1439  0.5613  0.4343
  283MOL0     H38151  10.042   4.095   3.895  0.7609  1.3291 -1.2586
  283MOL0     H38152  10.056   3.904   3.685 -1.4112  0.2275  0.0904
  283MOL0     H38153  10.034   4.049   3.598  0.4253 -1.5356 -1.1343
  283MOL0     H38154  10.236   4.166   3.692  1.3398  0.4727  2.0233
  283MOL0     H38155  10.286   4.019   3.620 -2.1764 -3.8491 -0.3014
  283MOL0     H38156  10.242   4.154   3.977 -0.0245  0.1995 -0.8673
  283MOL0     H38157  10.369   4.070   4.208  1.0844  0.1719 -1.0873
  283MOL0     H38158  10.226   3.959   4.211  0.2752 -0.5363 -0.8120
  283MOL0     H38159  10.356   3.770   4.229 -1.8041  0.8723  0.8592
  283MOL0     H38160  10.391   3.876   4.364 -1.9760  1.3394 -0.2238
  283MOL0     H38161  10.593   3.871   4.125 -2.7352 -3.2001 -0.8984
  283MOL0     H38162  10.613   3.786   4.272 -2.3566 -0.1063  2.2395
  283MOL0     H38163  10.572   3.992   4.415  1.2909 -2.6441  0.8449
  283MOL0     H38164  10.593   4.083   4.262 -2.8099 -1.0117  0.5649
  283MOL0     H38165  10.730   4.239   4.366  0.5621  0.5446 -0.7195
  283MOL0     H38166  10.875   4.427   4.579  1.4584  3.5665  0.7953
  283MOL0     H38167  10.956   4.464   4.418 -0.1534  0.9157  2.0170
  283MOL0     H38168  10.786   4.438   4.428  0.3513  1.8729  3.0500
  283MOL0     H38169  11.477   4.400   4.508  0.4321  0.2658  1.0313
  283MOL0     H38170  11.644   4.448   4.669 -3.2254  2.5667 -2.2603
  283MOL0     H38171  11.832   4.326   4.824  0.7914 -2.1996  1.2642
  283MOL0     H38172  11.770   4.487   4.874 -3.3017 -0.3342 -1.5227
  283MOL0     H38173  11.972   4.399   5.020 -0.6308  0.9088 -3.1717
  283MOL0     H38174  11.826   4.423   5.115 -2.5129  0.5705 -1.9163
  283MOL0     H38175  11.912   4.163   4.979 -1.5126 -1.3779 -0.3997
  283MOL0     H38176  11.780   4.173   5.094  1.4703 -2.4511  2.5023
  283MOL0     H38177  12.081   4.185   5.142  0.4769  1.8988  0.4133
  283MOL0     H38178  11.959   4.218   5.271  2.1262 -1.3753  0.8041
  283MOL0     H38179  11.886   3.976   5.135  0.6701 -1.3151  0.6658
  283MOL0     H38180  11.866   4.053   5.295 -0.4967  2.4385 -0.2589
  283MOL0     H38181  12.129   3.932   5.181  0.5779 -0.7197 -0.2684
  283MOL0     H38182  12.102   4.003   5.343 -0.0738  0.5311  0.0019
  283MOL0     H38183  11.915   3.783   5.298  1.2960 -3.1915 -2.6355
  283MOL0     H38184  12.030   3.823   5.433  2.8305 -1.2735  0.1751
  283MOL0     H38185  12.216   3.716   5.325 -0.5628 -1.0516  1.2249
  283MOL0     H38186  12.114   3.690   5.176 -2.5597 -1.4803 -1.0767
  283MOL0     H38187  11.475   4.170   4.939  0.0552  0.7194  1.0683
  283MOL0     H38188  11.296   4.107   4.773 -1.4478  0.4336 -0.5449
  283MOL0     H38189  11.158   4.032   4.475  0.3519  0.3792  4.4029
  283MOL0     H38190  10.972   3.888   4.390 -0.9941 -0.1444  3.2364
  283MOL0     H38191  10.094   3.449   3.912 -5.8450 -1.2468 -0.3222
  283MOL0     H38192  10.159   3.247   3.831  0.0203 -0.2621 -0.0275
  283MOL0     H38193   9.902   2.757   3.932  0.7757  1.6769  0.2504
  283MOL0     H38194   9.925   2.512   3.880 -0.3475 -0.2069 -0.3160
  283MOL0     H38195  10.159   2.323   4.030  3.2979  1.0412 -2.5001
  283MOL0     H38196  10.002   2.290   3.950 -0.2477  0.4402 -0.0800
  283MOL0     H38197  10.126   2.114   3.829  0.1761 -0.1672 -0.8479
  283MOL0     H38198  10.164   2.100   4.008  4.7476  2.0987  1.4062
  283MOL0     H38199  10.382   2.157   3.985  2.2564  5.2892 -0.9436
  283MOL0     H38200  10.371   2.245   3.845  3.9964 -0.4236  0.8157
  283MOL0     H38201  10.357   1.946   3.882 -0.6376 -0.2192  0.6234
  283MOL0     H38202  10.481   2.026   3.794  0.4261  2.4137  1.7852
  283MOL0     H38203  10.245   1.890   3.494 -1.0267 -0.3807  0.7940
  283MOL0     H38204  10.346   2.561   3.821  0.2119 -1.3498  1.1528
  283MOL0     H38205  10.313   2.812   3.898 -1.1814  1.1730  0.3333
  284MOL0     O38206  10.862   8.911   0.898  0.4335  0.3404  0.2737
  284MOL0     C38207  10.826   8.921   0.783 -1.0585 -1.1474 -0.0650
  284MOL0     O38208  10.854   9.025   0.698  0.4319 -1.4920 -0.2245
  284MOL0     C38209  10.935   9.127   0.742 -1.4895  0.5581 -0.1316
  284MOL0     C38210  10.887   9.240   0.812 -0.0652  0.7490  0.5069
  284MOL0     C38211  10.989   9.332   0.838  0.0729 -0.4121 -0.2159
  284MOL0     C38212  11.130   9.317   0.803 -0.0862  0.1436  0.0539
  284MOL0     O38213  11.231   9.404   0.840  0.4302  0.4405 -0.4306
  284MOL0     C38214  11.190   9.524   0.903 -0.2781 -0.2343 -0.4697
  284MOL0     C38215  11.310   9.616   0.921 -1.0195 -0.7633  0.8084
  284MOL0     C38216  11.392   9.568   1.046 -0.7658  0.1019 -0.4504
  284MOL0     C38217  11.517   9.640   1.065  0.0193 -0.6473  0.2820
  284MOL0     C38218  11.568   9.632   1.210  0.4366  0.3312 -1.4944
  284MOL0     C38219  11.610   9.496   1.265  0.1242 -1.4834 -0.1181
  284MOL0     C38220  11.712   9.423   1.185 -0.3150 -0.2053  0.0349
  284MOL0     C38221  11.832   9.511   1.149  0.0721  1.2746 -0.4343
  284MOL0     N38222  11.896   9.565   1.271  0.1154 -0.1488  0.0111
  284MOL0     C38223  11.951   9.491   1.374  0.5201 -0.8930 -0.8924
  284MOL0     C38224  11.987   9.580   1.472 -0.4481 -0.5040  0.0441
  284MOL0     C38225  12.055   9.536   1.597  1.3241 -0.3570 -0.2533
  284MOL0     C38226  12.140   9.648   1.659  0.2016 -0.1888 -0.0532
  284MOL0     C38227  12.259   9.688   1.566  0.3107  0.1742 -1.0599
  284MOL0     C38228  12.354   9.803   1.623 -0.0051  1.0073  0.3768
  284MOL0     O38229  12.485   9.815   1.570  0.0382 -0.3481  0.1751
  284MOL0     C38230  12.501   9.848   1.431 -0.3936  0.4116 -0.3359
  284MOL0     C38231  12.597   9.771   1.369  0.3058  1.1159  0.2038
  284MOL0     C38232  12.645   9.787   1.242 -0.0619 -0.4609 -1.3001
  284MOL0     C38233  12.753   9.688   1.198 -0.6700  0.0571 -0.3131
  284MOL0     C38234  12.607   9.900   1.167  0.0630  0.2337  0.6093
  284MOL0     C38235  12.667   9.924   1.035  0.4212 -0.3927  0.3152
  284MOL0     O38236  12.788   9.873   1.007  0.2083 -0.1315  0.3905
  284MOL0     C38237  12.836   9.876   0.884 -0.2498 -0.6088  0.3920
  284MOL0     C38238  12.762   9.851   0.769 -0.8410 -0.7205 -0.6875
  284MOL0     C38239  12.820   9.846   0.641 -0.0607 -0.4113 -0.3142
  284MOL0     C38240  12.957   9.869   0.631 -0.4334 -0.6827  0.9623
  284MOL0     O38241  13.019   9.880   0.508  0.0544  0.0869  0.1609
  284MOL0     C38242  12.947   9.946   0.411  0.0332 -0.4964  0.1568
  284MOL0     C38243  13.038  10.020   0.310  0.2623 -0.4687 -0.4269
  284MOL0     C38244  13.084   9.926   0.197  0.3375 -0.0298 -0.3142
  284MOL0     C38245  13.162   9.811   0.261 -0.2941 -0.0124 -0.3120
  284MOL0     C38246  13.248   9.737   0.165  0.2007 -0.2548  1.4211
  284MOL0     C38247  13.339   9.633   0.240 -0.5315  0.5363 -0.0274
  284MOL0     C38248  13.463   9.678   0.321 -0.6599 -0.4024  0.3623
  284MOL0     C38249  13.552   9.798   0.263  0.7860  0.4700  0.2469
  284MOL0    Cl38250  13.678   9.843   0.382 -0.1450 -0.3409 -0.1072
  284MOL0     C38251  13.033   9.891   0.742 -0.5247  0.6080 -0.6916
  284MOL0     C38252  12.975   9.887   0.871  0.3801  0.0405 -0.5219
  284MOL0     O38253  12.604  10.001   0.962  0.2425 -0.2074 -0.4255
  284MOL0     C38254  12.498   9.975   1.224 -0.1766 -0.8154  0.5717
  284MOL0     C38255  12.444   9.943   1.355  0.0224 -0.2138  0.2703
  284MOL0     N38256  11.959   9.709   1.413  0.3063  0.0186  0.5644
  284MOL0     N38257  11.891   9.700   1.304 -0.1350 -0.3512  0.6179
  284MOL0     C38258  11.170   9.193   0.750 -0.2007 -0.5369  0.3671
  284MOL0     C38259  11.068   9.099   0.720 -0.4461 -1.0814  0.0340
  284MOL0     C38260  10.752   8.817   0.718 -0.0767 -0.7014  0.5657
  284MOL0     C38261  10.673   8.734   0.789  0.6009  0.6605 -0.4371
  284MOL0     C38262  10.586   8.642   0.730 -0.9849  0.1200 -0.3590
  284MOL0     C38263  10.593   8.612   0.598  0.2783 -0.6117  0.4368
  284MOL0     O38264  10.520   8.509   0.549 -0.4978  0.6411  0.8202
  284MOL0     C38265  10.520   8.459   0.415 -0.8890  0.1678 -0.3157
  284MOL0     C38266  10.440   8.553   0.319  0.4825  0.1204 -0.1392
  284MOL0     C38267  10.397   8.488   0.191  1.0845 -0.7343 -0.0083
  284MOL0     C38268  10.290   8.563   0.109 -1.0682  0.2799  0.2839
  284MOL0     C38269  10.329   8.701   0.079 -0.5728 -1.5472  0.7177
  284MOL0     C38270  10.343   8.825   0.052 -0.2133  1.1029 -0.2066
  284MOL0     C38271  10.673   8.693   0.521  0.5559 -0.0416 -0.3406
  284MOL0     C38272  10.736   8.803   0.580 -0.4129 -0.9254  0.7484
  284MOL0     H38273  10.785   9.268   0.836 -0.9892  0.2570 -2.4063
  284MOL0     H38274  10.967   9.423   0.893  0.6568  0.0844 -0.7815
  284MOL0     H38275  11.107   9.576   0.854 -1.7808  0.6456  2.7325
  284MOL0     H38276  11.152   9.497   1.002  0.1888 -2.1519 -0.7838
  284MOL0     H38277  11.373   9.601   0.832 -1.9587 -4.9714  0.6608
  284MOL0     H38278  11.280   9.721   0.928  0.4566 -0.3877  2.1845
  284MOL0     H38279  11.329   9.568   1.136  2.3808  0.5948  1.9324
  284MOL0     H38280  11.425   9.464   1.032  1.2924  0.7024 -0.2774
  284MOL0     H38281  11.590   9.612   0.988 -0.7166  0.0489 -0.6938
  284MOL0     H38282  11.501   9.748   1.056  1.6582 -0.3577  0.4931
  284MOL0     H38283  11.661   9.690   1.209  1.3013 -0.9864 -0.6057
  284MOL0     H38284  11.491   9.674   1.276  0.2188  0.4776 -1.8401
  284MOL0     H38285  11.655   9.526   1.361 -0.8516  2.1312 -0.6309
  284MOL0     H38286  11.529   9.423   1.272  0.6058 -1.9079  1.7223
  284MOL0     H38287  11.745   9.334   1.241  1.2361 -2.0497 -3.5090
  284MOL0     H38288  11.663   9.381   1.097 -1.3054 -1.3330  1.0848
  284MOL0     H38289  11.812   9.593   1.080 -1.6172 -1.4224 -3.4307
  284MOL0     H38290  11.908   9.450   1.098  1.3541 -0.9745  3.6340
  284MOL0     H38291  11.969   9.384   1.381 -1.1110 -1.2467 -1.5043
  284MOL0     H38292  11.984   9.499   1.671 -1.2841 -0.8749 -2.8139
  284MOL0     H38293  12.124   9.451   1.585  0.5100 -1.1083  0.2197
  284MOL0     H38294  12.178   9.629   1.760  1.3558  1.3767 -0.1465
  284MOL0     H38295  12.080   9.737   1.675 -0.2271 -1.0300  4.0150
  284MOL0     H38296  12.222   9.705   1.464 -2.5663  1.6846  0.1195
  284MOL0     H38297  12.322   9.599   1.570 -0.2754 -0.2246 -0.4114
  284MOL0     H38298  12.358   9.780   1.730 -2.5049 -0.2725  0.2599
  284MOL0     H38299  12.297   9.896   1.616  0.2336  1.0280 -2.9658
  284MOL0     H38300  12.633   9.697   1.440 -1.4655  0.3174  0.3096
  284MOL0     H38301  12.734   9.650   1.098 -2.1993 -0.6759  0.2209
  284MOL0     H38302  12.853   9.732   1.203 -0.7271  0.5500 -2.4823
  284MOL0     H38303  12.758   9.602   1.265  0.7961 -0.6444 -1.2652
  284MOL0     H38304  12.656   9.831   0.778 -0.6362 -1.7475 -0.4463
  284MOL0     H38305  12.767   9.820   0.550 -0.1162  0.7288 -0.6254
  284MOL0     H38306  12.877   9.880   0.359 -2.4303  1.8849  0.2502
  284MOL0     H38307  12.884  10.018   0.464 -0.6970  1.3771 -2.9793
  284MOL0     H38308  12.995  10.111   0.267  3.2158  1.3000  0.0695
  284MOL0     H38309  13.120  10.057   0.373 -1.8069  2.0377  0.9811
  284MOL0     H38310  13.145   9.995   0.138  1.4040 -2.3067 -2.0037
  284MOL0     H38311  13.013   9.877   0.130  0.0588  3.0147 -2.4443
  284MOL0     H38312  13.229   9.830   0.346  2.2521 -5.4374 -0.6813
  284MOL0     H38313  13.082   9.754   0.308 -0.4552  1.7359  1.6968
  284MOL0     H38314  13.320   9.801   0.112  2.3018 -3.2910  0.3099
  284MOL0     H38315  13.189   9.682   0.092  2.5743 -1.8729  0.5835
  284MOL0     H38316  13.278   9.572   0.308 -0.0110  1.2204  1.0770
  284MOL0     H38317  13.378   9.571   0.159  3.0680  0.7959  1.2827
  284MOL0     H38318  13.534   9.594   0.324 -0.8445 -0.6703 -1.4258
  284MOL0     H38319  13.442   9.699   0.426  0.6799  0.3998  0.4990
  284MOL0     H38320  13.492   9.887   0.243  1.6962  1.2687  1.0004
  284MOL0     H38321  13.583   9.765   0.163 -0.7682  2.3630 -0.9544
  284MOL0     H38322  13.141   9.891   0.732 -0.4556  2.6932 -0.4591
  284MOL0     H38323  13.031   9.894   0.963 -0.8416  1.4323  0.1644
  284MOL0     H38324  12.448  10.053   1.168 -0.0285  1.4336  3.3507
  284MOL0     H38325  12.380  10.013   1.408  2.6429  1.9814  0.7125
  284MOL0     H38326  11.278   9.177   0.748 -0.5326 -3.0274 -1.0953
  284MOL0     H38327  11.086   9.001   0.678 -0.9062 -1.4805  0.7510
  284MOL0     H38328  10.681   8.729   0.897 -1.5821  0.6604 -0.2192
  284MOL0     H38329  10.537   8.563   0.787 -1.6596  0.4593 -0.4554
  284MOL0     H38330  10.625   8.459   0.384 -0.4309  0.3128  1.1700
  284MOL0     H38331  10.468   8.363   0.414 -0.2865 -0.1582 -0.4709
  284MOL0     H38332  10.509   8.637   0.303 -0.2014  0.6833 -0.2225
  284MOL0     H38333  10.354   8.595   0.372  1.2432 -0.1786  1.4177
  284MOL0     H38334  10.351   8.392   0.215 -2.0506  0.5936 -0.2546
  284MOL0     H38335  10.482   8.489   0.122 -1.1230 -0.2859 -2.8894
  284MOL0     H38336  10.198   8.555   0.167 -2.8126  1.5953 -2.1422
  284MOL0     H38337  10.270   8.520   0.010 -0.4635 -0.0493  0.2999
  284MOL0     H38338  10.347   8.928   0.024  0.5222  1.3106  0.6453
  284MOL0     H38339  10.671   8.677   0.413  2.6723 -1.4116 -0.2352
  284MOL0     H38340  10.785   8.881   0.523 -0.2065  1.4130  3.9048
  285MOL0     O38341   2.998   5.160   7.766  0.5797 -0.2892  0.5070
  285MOL0     C38342   3.094   5.223   7.806 -0.1117 -0.3266 -0.2555
  285MOL0     O38343   3.217   5.168   7.846  0.8743 -0.5009 -0.8245
  285MOL0     C38344   3.213   5.029   7.863 -0.1605 -0.6686  0.0762
  285MOL0     C38345   3.251   4.953   7.757 -0.0921 -0.1430  0.5131
  285MOL0     C38346   3.253   4.811   7.764  0.5671 -0.9733  0.6843
  285MOL0     C38347   3.212   4.749   7.891  0.2352  0.2031  0.7678
  285MOL0     O38348   3.186   4.618   7.921  0.4131 -0.2286 -0.0275
  285MOL0     C38349   3.198   4.527   7.809 -0.1670  0.5676  0.4640
  285MOL0     C38350   3.139   4.400   7.871  0.0007  1.1076  0.4473
  285MOL0     C38351   2.995   4.403   7.905 -0.5203 -0.2791  0.1852
  285MOL0     C38352   2.962   4.458   8.052 -0.0848 -0.3596  0.4495
  285MOL0     C38353   2.834   4.525   8.060 -0.5445  0.7240 -0.1191
  285MOL0     C38354   2.834   4.661   7.981 -0.2166  0.4949 -0.6100
  285MOL0     C38355   2.702   4.693   7.915 -0.6015 -0.8565 -0.4483
  285MOL0     C38356   2.684   4.843   7.884  0.1264 -0.3672  0.1815
  285MOL0     N38357   2.706   4.937   8.001 -0.0479  0.1236 -0.1456
  285MOL0     C38358   2.789   5.043   8.008  0.1511  0.0906  0.2031
  285MOL0     C38359   2.774   5.099   8.135 -0.3057  0.3964  0.7657
  285MOL0     C38360   2.869   5.204   8.190  0.0369 -0.3370 -0.2044
  285MOL0     C38361   2.795   5.329   8.232  0.0988 -0.0421 -0.4745
  285MOL0     C38362   2.901   5.441   8.268 -0.4070 -0.8750 -0.8944
  285MOL0     C38363   2.831   5.572   8.268  0.0297 -0.1759  0.9623
  285MOL0     O38364   2.926   5.683   8.274  0.7933 -0.3960 -0.7495
  285MOL0     C38365   2.866   5.800   8.311 -0.3614 -0.1296 -0.1951
  285MOL0     C38366   2.948   5.908   8.362  1.1396  0.2960 -0.2534
  285MOL0     C38367   2.905   6.034   8.401 -0.3439  0.3627  0.0243
  285MOL0     C38368   3.008   6.141   8.447  0.4903  0.0436  0.2475
  285MOL0     C38369   2.764   6.065   8.381  0.1105  0.0481 -0.3925
  285MOL0     C38370   2.691   6.198   8.351 -1.3558 -0.9983  0.1614
  285MOL0     O38371   2.558   6.204   8.380 -0.0511 -0.2109 -0.5752
  285MOL0     C38372   2.505   6.330   8.385 -0.6855  0.9597 -0.2764
  285MOL0     C38373   2.554   6.436   8.458 -0.1426 -1.7244 -0.8766
  285MOL0     C38374   2.497   6.562   8.431 -0.1220  0.0841 -0.1528
  285MOL0     C38375   2.383   6.570   8.348 -0.9133  1.4973  0.4071
  285MOL0     O38376   2.332   6.693   8.323 -1.1694  0.2683 -0.7625
  285MOL0     C38377   2.197   6.706   8.284 -0.3814  0.2880  0.3087
  285MOL0     C38378   2.158   6.850   8.307  0.6909  0.1550 -0.8416
  285MOL0     C38379   2.006   6.849   8.332  0.3771  0.1996  0.0845
  285MOL0     C38380   1.943   6.998   8.326 -0.2565  0.8661  0.5917
  285MOL0     C38381   1.799   7.008   8.267  1.6556  0.0782  1.1873
  285MOL0     C38382   1.784   6.957   8.124  0.3538 -0.4006 -0.6979
  285MOL0     C38383   1.654   7.010   8.050  0.2646  0.0771  0.2503
  285MOL0     C38384   1.658   6.952   7.907 -0.5953 -0.1279 -0.5759
  285MOL0    Cl38385   1.533   7.013   7.804 -0.1629 -0.6539  0.0896
  285MOL0     C38386   2.332   6.454   8.282 -0.5515 -0.0043  0.6365
  285MOL0     C38387   2.399   6.336   8.297  1.1055  0.8344 -0.4644
  285MOL0     O38388   2.765   6.294   8.319  0.0287  0.0017 -0.3094
  285MOL0     C38389   2.682   5.955   8.352 -0.0200 -0.0097 -0.6902
  285MOL0     C38390   2.736   5.832   8.315  0.4177 -0.2956  0.2918
  285MOL0     N38391   2.669   5.029   8.193 -0.8258 -0.2368  0.8266
  285MOL0     N38392   2.625   4.939   8.106  0.2530  0.0898  0.2630
  285MOL0     C38393   3.195   4.838   8.004 -0.4187  0.8960 -0.8199
  285MOL0     C38394   3.182   4.975   7.990  1.2676  0.4997 -0.0730
  285MOL0     C38395   3.076   5.367   7.838  0.3332 -0.3958  0.1153
  285MOL0     C38396   3.188   5.450   7.854  0.4541 -0.1374  0.2381
  285MOL0     C38397   3.177   5.582   7.907  0.1846  0.2033  0.6835
  285MOL0     C38398   3.043   5.632   7.922  0.2686 -0.0026 -0.2213
  285MOL0     O38399   3.009   5.760   7.958 -0.6621  0.6970  0.2757
  285MOL0     C38400   3.100   5.871   7.957 -0.5456  0.2886  0.5923
  285MOL0     C38401   3.023   6.007   7.964 -1.2430 -0.6981  0.0600
  285MOL0     C38402   3.130   6.127   7.956  0.1821  0.6282  0.6016
  285MOL0     C38403   3.200   6.167   8.084  0.9794  0.7052 -0.3881
  285MOL0     C38404   3.312   6.241   8.040 -0.2837  0.1899 -0.2275
  285MOL0     C38405   3.408   6.302   7.992  0.0606 -1.1290 -0.1091
  285MOL0     C38406   2.932   5.549   7.909 -0.2037 -0.3432  0.8918
  285MOL0     C38407   2.947   5.414   7.881 -0.5137  0.1078 -0.0771
  285MOL0     H38408   3.281   4.999   7.663 -1.7481 -0.0735 -0.0087
  285MOL0     H38409   3.280   4.766   7.668  1.3275 -0.2126  0.5274
  285MOL0     H38410   3.137   4.563   7.726 -0.0331 -0.2799 -0.0167
  285MOL0     H38411   3.297   4.499   7.774 -1.4418 -3.5157 -0.4199
  285MOL0     H38412   3.151   4.320   7.798 -0.6830  0.8768  0.5843
  285MOL0     H38413   3.185   4.376   7.968 -1.3434 -1.3762  0.5369
  285MOL0     H38414   2.935   4.467   7.840  0.1124 -0.3622 -0.4913
  285MOL0     H38415   2.956   4.302   7.889  1.4697 -1.3047  1.2837
  285MOL0     H38416   2.970   4.372   8.118 -1.4633 -0.7155  0.1851
  285MOL0     H38417   3.041   4.527   8.082  0.3836 -0.4621 -0.5181
  285MOL0     H38418   2.763   4.460   8.008 -1.9813  1.8765  0.3445
  285MOL0     H38419   2.802   4.530   8.165  0.5032  0.7267  0.2144
  285MOL0     H38420   2.868   4.731   8.058  1.8680  1.2723 -2.1159
  285MOL0     H38421   2.913   4.662   7.905 -0.9494 -0.7622 -1.4223
  285MOL0     H38422   2.687   4.642   7.820 -0.8560  0.2372 -1.0183
  285MOL0     H38423   2.625   4.678   7.992  0.4546  0.1345  0.8479
  285MOL0     H38424   2.587   4.852   7.833  1.1217 -0.3917 -1.8425
  285MOL0     H38425   2.754   4.872   7.804  1.7196 -1.0421  1.2879
  285MOL0     H38426   2.852   5.070   7.924  0.2922  1.2366  0.6591
  285MOL0     H38427   2.921   5.158   8.275  4.5248  1.0849 -1.9357
  285MOL0     H38428   2.951   5.226   8.122 -1.5235  2.1453 -1.3940
  285MOL0     H38429   2.740   5.312   8.325  2.2970 -0.3490  0.8270
  285MOL0     H38430   2.734   5.368   8.149  2.9928  4.0466 -0.9660
  285MOL0     H38431   2.981   5.441   8.193  2.7039 -0.4466  2.1777
  285MOL0     H38432   2.955   5.415   8.359  0.8512  0.9412 -1.0611
  285MOL0     H38433   2.769   5.575   8.358 -2.0236  3.8667 -0.3565
  285MOL0     H38434   2.767   5.578   8.179 -2.0835 -2.7599  2.1566
  285MOL0     H38435   3.055   5.893   8.369  1.2197  1.3701  1.3385
  285MOL0     H38436   3.083   6.149   8.367  2.8966 -2.5467  2.0346
  285MOL0     H38437   2.957   6.234   8.474  1.3116  0.4301  0.5086
  285MOL0     H38438   3.053   6.118   8.544 -2.2577  2.5001  2.2866
  285MOL0     H38439   2.644   6.438   8.520 -1.5995  2.0549  1.4896
  285MOL0     H38440   2.537   6.658   8.461  1.6254 -0.8966  0.8376
  285MOL0     H38441   2.189   6.679   8.178 -4.2802 -1.1832  0.8174
  285MOL0     H38442   2.122   6.640   8.328 -1.3251  1.0521 -0.1254
  285MOL0     H38443   2.200   6.884   8.402 -1.5196  1.3169 -0.2286
  285MOL0     H38444   2.197   6.910   8.224 -2.4938  0.5962 -2.1495
  285MOL0     H38445   1.975   6.791   8.420  0.0745  0.6492  0.2788
  285MOL0     H38446   1.961   6.791   8.251  1.4366 -1.8550  0.9093
  285MOL0     H38447   1.935   7.034   8.430 -1.2811 -0.9455  1.1841
  285MOL0     H38448   2.012   7.066   8.276  1.7318 -1.4308  0.0563
  285MOL0     H38449   1.762   7.111   8.272  0.0067 -0.2540 -1.9604
  285MOL0     H38450   1.728   6.945   8.321  0.1888 -0.1343 -0.8911
  285MOL0     H38451   1.870   6.991   8.065  0.0856  2.3655  0.3780
  285MOL0     H38452   1.792   6.848   8.127 -0.4296 -0.4701 -0.6755
  285MOL0     H38453   1.639   7.118   8.053  2.9192  0.6548 -2.5212
  285MOL0     H38454   1.566   6.968   8.101  0.8053 -0.6550  0.6019
  285MOL0     H38455   1.661   6.843   7.906  0.0810 -0.1127 -1.3461
  285MOL0     H38456   1.758   6.978   7.870 -1.0130  1.7916 -0.4755
  285MOL0     H38457   2.248   6.460   8.214  2.1536  1.4154 -2.8911
  285MOL0     H38458   2.383   6.248   8.235 -0.7353  1.1699 -0.5257
  285MOL0     H38459   2.580   5.975   8.320 -0.5009 -0.6795  0.3855
  285MOL0     H38460   2.663   5.761   8.277 -1.1532  1.2596  0.3033
  285MOL0     H38461   3.177   4.798   8.104 -2.8013  4.3456  0.3075
  285MOL0     H38462   3.153   5.032   8.078  3.0750  0.7755  0.3873
  285MOL0     H38463   3.284   5.404   7.834  1.3479  1.4507  0.6572
  285MOL0     H38464   3.267   5.643   7.911  0.2124  0.3057 -0.9772
  285MOL0     H38465   3.172   5.881   8.039 -0.1032  2.1714  0.0321
  285MOL0     H38466   3.162   5.875   7.867 -0.0806 -0.7301  0.8464
  285MOL0     H38467   2.965   6.009   8.057 -0.2801 -0.6774  0.6739
  285MOL0     H38468   2.954   6.004   7.878 -1.7932 -3.1625  0.4996
  285MOL0     H38469   3.079   6.215   7.916 -0.5184 -0.9120 -2.2219
  285MOL0     H38470   3.206   6.099   7.882 -1.9179  0.8191 -1.7754
  285MOL0     H38471   3.222   6.080   8.147  2.9228  1.1081 -0.4363
  285MOL0     H38472   3.130   6.226   8.144 -0.0147 -1.0008  0.1983
  285MOL0     H38473   3.500   6.350   7.966 -0.1227  0.0006  1.2384
  285MOL0     H38474   2.831   5.586   7.926 -0.6802 -1.0672 -0.2437
  285MOL0     H38475   2.865   5.344   7.897  0.8596 -1.6637 -0.5456
  286MOL0     O38476  10.900   7.056   0.367 -0.3102 -0.6067 -0.4875
  286MOL0     C38477  10.910   7.124   0.264  1.4982  0.3127 -0.5013
  286MOL0     O38478  10.822   7.225   0.231  0.1781  0.4676  0.0296
  286MOL0     C38479  10.727   7.272   0.319 -0.3816  0.4240  1.6336
  286MOL0     C38480  10.722   7.410   0.328  1.1841 -0.0773 -0.5826
  286MOL0     C38481  10.646   7.470   0.438 -0.6990 -0.4763  0.5137
  286MOL0     C38482  10.565   7.386   0.520 -0.2707  0.4978 -0.3089
  286MOL0     O38483  10.481   7.442   0.617 -0.1142  0.3899 -0.9536
  286MOL0     C38484  10.546   7.443   0.749  0.0271 -0.2409  0.0439
  286MOL0     C38485  10.654   7.555   0.750 -0.9505 -1.1410 -0.0589
  286MOL0     C38486  10.700   7.603   0.894 -0.1676  0.9255  0.2433
  286MOL0     C38487  10.585   7.689   0.952 -0.1186  0.8806 -0.3522
  286MOL0     C38488  10.621   7.752   1.090 -0.4368 -0.1872 -0.3924
  286MOL0     C38489  10.540   7.879   1.123 -0.9906 -0.5698 -0.3479
  286MOL0     C38490  10.504   7.876   1.267 -0.4377 -0.2024  0.1380
  286MOL0     C38491  10.397   7.980   1.300 -0.1442 -0.0381  0.9072
  286MOL0     N38492  10.439   8.119   1.274 -0.1410 -0.5280 -0.3864
  286MOL0     C38493  10.491   8.211   1.373 -0.3025 -0.5014  0.2923
  286MOL0     C38494  10.494   8.326   1.302 -0.0209 -0.5473  0.0396
  286MOL0     C38495  10.537   8.458   1.353 -0.9568 -0.5488  0.8472
  286MOL0     C38496  10.635   8.520   1.255  0.6203  0.1855  0.1757
  286MOL0     C38497  10.668   8.666   1.320 -0.6396 -0.4140 -0.8983
  286MOL0     C38498  10.768   8.740   1.217 -0.0597 -0.2338  0.4414
  286MOL0     O38499  10.885   8.654   1.199 -0.0728  0.2436  0.0980
  286MOL0     C38500  10.991   8.669   1.281 -0.2170  0.8530  0.8599
  286MOL0     C38501  10.998   8.749   1.397  0.5993  0.4180 -0.5732
  286MOL0     C38502  11.128   8.774   1.460 -0.4928 -0.4649 -0.5069
  286MOL0     C38503  11.130   8.864   1.585 -0.2138  0.6955  0.6040
  286MOL0     C38504  11.238   8.691   1.420 -0.7075  0.7365  0.2528
  286MOL0     C38505  11.380   8.696   1.473  0.0537 -0.6997 -0.5993
  286MOL0     O38506  11.406   8.790   1.572 -0.4979 -0.5434 -0.4515
  286MOL0     C38507  11.509   8.774   1.663 -0.6439  1.3858  1.1540
  286MOL0     C38508  11.521   8.855   1.775 -0.1850 -0.1592 -0.7804
  286MOL0     C38509  11.606   8.829   1.888 -0.2171 -0.2854  0.1867
  286MOL0     C38510  11.697   8.724   1.884 -0.1942 -0.1680  0.9861
  286MOL0     O38511  11.783   8.672   1.981  0.8290 -0.1831  0.0107
  286MOL0     C38512  11.725   8.659   2.117  0.7031 -0.1992  0.6665
  286MOL0     C38513  11.828   8.574   2.202  0.1298  0.5346 -0.7463
  286MOL0     C38514  11.831   8.646   2.332  0.0362 -0.5707  0.7986
  286MOL0     C38515  11.917   8.591   2.440 -0.6843  0.0910 -0.2347
  286MOL0     C38516  11.897   8.660   2.577  0.3744 -0.8615  0.0312
  286MOL0     C38517  11.929   8.797   2.580 -0.0742  0.1271 -0.6112
  286MOL0     C38518  11.959   8.838   2.732  0.5687 -0.3059 -0.8465
  286MOL0     C38519  11.832   8.873   2.817 -0.5962  0.4188 -0.2424
  286MOL0    Cl38520  11.763   8.710   2.886 -0.1905  0.3195 -0.1672
  286MOL0     C38521  11.700   8.649   1.768  0.8990  0.3842  0.0079
  286MOL0     C38522  11.615   8.674   1.662  0.7798  1.4844  0.4383
  286MOL0     O38523  11.463   8.628   1.414  0.5845 -0.4794 -0.3147
  286MOL0     C38524  11.218   8.596   1.314 -0.1647 -0.1680  0.3512
  286MOL0     C38525  11.102   8.593   1.241 -0.3042  1.0369  0.1504
  286MOL0     N38526  10.462   8.301   1.165  0.0008 -0.4896  0.2505
  286MOL0     N38527  10.428   8.173   1.153  0.9996  0.1878  0.4557
  286MOL0     C38528  10.565   7.252   0.498 -0.3292  0.7972  0.1183
  286MOL0     C38529  10.638   7.192   0.400  0.3549  0.2287  0.4220
  286MOL0     C38530  11.016   7.083   0.172 -1.2738  0.7817  0.6672
  286MOL0     C38531  11.064   7.170   0.073 -0.1091  0.2141  0.1655
  286MOL0     C38532  11.183   7.139  -0.004 -0.4861 -0.3316  0.6933
  286MOL0     C38533  11.268   7.036   0.033 -0.5672 -0.2174  0.5094
  286MOL0     O38534  11.392   7.014  -0.029 -0.6232  0.3766 -0.1706
  286MOL0     C38535  11.508   6.988   0.053 -0.1558 -0.5761  0.1004
  286MOL0     C38536  11.628   6.967  -0.031 -0.7976  0.1765 -0.1693
  286MOL0     C38537  11.698   7.092  -0.097 -0.2436 -0.0362 -0.3883
  286MOL0     C38538  11.776   7.034  -0.217 -0.5407  0.6575 -0.1200
  286MOL0     C38539  11.892   6.945  -0.169 -0.2651  0.9269  0.0805
  286MOL0     C38540  11.981   6.861  -0.146  0.4732  0.0930 -0.0832
  286MOL0     C38541  11.221   6.952   0.129 -0.3437  0.1111 -0.8511
  286MOL0     C38542  11.095   6.965   0.185 -0.0779  0.0943 -0.1558
  286MOL0     H38543  10.794   7.477   0.282 -0.1768  0.9250 -1.3555
  286MOL0     H38544  10.661   7.575   0.464 -0.5787 -0.3595 -0.0183
  286MOL0     H38545  10.465   7.485   0.811 -0.6809 -2.0215  0.3714
  286MOL0     H38546  10.582   7.347   0.788 -0.5810  0.3253  2.1846
  286MOL0     H38547  10.736   7.522   0.685 -1.9691  0.8002 -2.4859
  286MOL0     H38548  10.618   7.646   0.702  1.9252 -0.0205 -0.2541
  286MOL0     H38549  10.719   7.510   0.949  0.4373 -0.1225 -1.6134
  286MOL0     H38550  10.784   7.673   0.886  0.4923  0.2025  0.6971
  286MOL0     H38551  10.558   7.764   0.878  0.7002  0.8428 -0.6979
  286MOL0     H38552  10.497   7.628   0.976 -1.3359  1.8591 -2.1407
  286MOL0     H38553  10.626   7.680   1.172 -2.6040  1.0189  0.9031
  286MOL0     H38554  10.726   7.784   1.081 -0.4639  0.7911  1.9234
  286MOL0     H38555  10.592   7.972   1.102 -1.0218 -0.3111  0.6630
  286MOL0     H38556  10.449   7.881   1.062 -1.9235 -2.4546  0.8682
  286MOL0     H38557  10.460   7.777   1.278  0.7887 -0.9045 -1.0120
  286MOL0     H38558  10.581   7.875   1.344 -1.3715 -2.6813  1.1120
  286MOL0     H38559  10.365   7.970   1.404 -0.4743 -1.6373  0.6807
  286MOL0     H38560  10.314   7.952   1.235 -2.0060  3.1163  1.6697
  286MOL0     H38561  10.510   8.205   1.479 -3.7350  1.4475  1.1655
  286MOL0     H38562  10.442   8.510   1.365 -0.2046  1.5030 -1.2830
  286MOL0     H38563  10.596   8.445   1.444  1.4530  1.3539 -0.3294
  286MOL0     H38564  10.585   8.531   1.158 -2.0538  1.4541  1.6134
  286MOL0     H38565  10.723   8.455   1.248  0.3292 -0.0840 -1.2717
  286MOL0     H38566  10.723   8.672   1.414  0.3605  1.5612 -1.5742
  286MOL0     H38567  10.578   8.725   1.340  0.7068  1.6404 -0.6454
  286MOL0     H38568  10.794   8.839   1.256 -0.2099 -0.4586  1.1179
  286MOL0     H38569  10.707   8.754   1.127  0.7288  1.0208  0.0840
  286MOL0     H38570  10.914   8.799   1.445  1.7045 -0.3687  2.4106
  286MOL0     H38571  11.161   8.801   1.669  0.3710 -3.1191 -2.2265
  286MOL0     H38572  11.188   8.956   1.576  0.4353  0.1908 -0.5753
  286MOL0     H38573  11.024   8.889   1.596 -0.3630 -0.2173  1.3696
  286MOL0     H38574  11.450   8.937   1.777 -2.3629 -1.8474 -2.7426
  286MOL0     H38575  11.618   8.903   1.967  0.9021  0.7315 -0.9069
  286MOL0     H38576  11.710   8.758   2.159 -2.3513 -1.8017  3.8859
  286MOL0     H38577  11.624   8.617   2.119  0.4069  0.5366  1.6920
  286MOL0     H38578  11.792   8.473   2.226  1.3117  0.5897  1.5785
  286MOL0     H38579  11.928   8.578   2.157 -0.9642  3.4341 -3.2041
  286MOL0     H38580  11.731   8.667   2.370  0.9798  4.5643  1.1624
  286MOL0     H38581  11.868   8.745   2.303 -1.0248 -0.7386 -1.3298
  286MOL0     H38582  11.914   8.482   2.449  1.4986 -0.3920 -3.4409
  286MOL0     H38583  12.020   8.601   2.403 -1.3014 -2.2619 -3.0307
  286MOL0     H38584  11.951   8.602   2.653  0.3036  0.8065  1.4051
  286MOL0     H38585  11.796   8.641   2.614  0.3311 -1.8049 -0.5168
  286MOL0     H38586  12.018   8.808   2.516  0.2595 -0.9943 -0.3587
  286MOL0     H38587  11.849   8.860   2.540 -0.3704 -0.0406 -0.2835
  286MOL0     H38588  12.011   8.933   2.722 -0.7410  0.4999 -0.2780
  286MOL0     H38589  12.027   8.770   2.784 -1.0636  0.1028  2.0462
  286MOL0     H38590  11.752   8.927   2.765  0.1215  0.7431 -1.0403
  286MOL0     H38591  11.868   8.926   2.905 -0.2142 -1.0190  0.5099
  286MOL0     H38592  11.778   8.574   1.760 -0.9049 -1.8065  1.7717
  286MOL0     H38593  11.625   8.609   1.576  0.7469  0.7266  0.9947
  286MOL0     H38594  11.290   8.519   1.289  0.8262  0.8879 -0.1579
  286MOL0     H38595  11.093   8.525   1.158 -0.4490  0.2915  0.7653
  286MOL0     H38596  10.505   7.193   0.567 -2.2202  2.9056  0.3566
  286MOL0     H38597  10.627   7.086   0.380  0.1077  0.3029  0.1538
  286MOL0     H38598  11.014   7.265   0.062  1.4528  1.0128 -0.3484
  286MOL0     H38599  11.194   7.213  -0.083  1.6188 -0.7939  0.5183
  286MOL0     H38600  11.527   7.072   0.121 -1.9929 -1.9616  2.4590
  286MOL0     H38601  11.492   6.896   0.109 -0.5978 -0.3816  0.3007
  286MOL0     H38602  11.600   6.903  -0.115  2.4529 -0.2410 -1.1022
  286MOL0     H38603  11.699   6.902   0.021 -2.0251  0.7236  2.3193
  286MOL0     H38604  11.760   7.146  -0.025 -0.4560  0.0247 -0.2493
  286MOL0     H38605  11.620   7.160  -0.134  0.5297  1.1436  0.0873
  286MOL0     H38606  11.817   7.112  -0.282 -0.1448  0.2420 -0.3767
  286MOL0     H38607  11.717   6.975  -0.288 -0.6626  0.6825 -0.0373
  286MOL0     H38608  12.059   6.789  -0.132  1.2702  0.1123 -3.5519
  286MOL0     H38609  11.277   6.860   0.140 -0.5821  0.0392 -0.2045
  286MOL0     H38610  11.060   6.887   0.253 -2.9268  0.1122 -1.4856
  287MOL0     O38611   9.862   6.851   6.414  1.6376 -0.2040  0.4712
  287MOL0     C38612   9.814   6.906   6.518  0.2881 -0.4672 -0.4809
  287MOL0     O38613   9.771   6.843   6.635 -0.6175 -0.3791  0.2945
  287MOL0     C38614   9.771   6.704   6.635  0.9867  0.0145  0.1745
  287MOL0     C38615   9.869   6.618   6.596 -0.3640 -1.0251 -0.7345
  287MOL0     C38616   9.869   6.480   6.597  0.8934  0.0942  0.4957
  287MOL0     C38617   9.745   6.416   6.638 -0.3849  0.1019 -0.5644
  287MOL0     O38618   9.728   6.282   6.671 -1.2020  0.6880  0.7946
  287MOL0     C38619   9.815   6.183   6.602 -0.5296  0.3108  0.1412
  287MOL0     C38620   9.721   6.065   6.572  0.5193  0.1967 -0.2372
  287MOL0     C38621   9.803   5.960   6.488 -0.0564 -0.4021  0.9666
  287MOL0     C38622   9.937   5.922   6.553  0.1514  1.5266  1.3469
  287MOL0     C38623   9.994   5.794   6.489 -0.3601  0.2688  0.2018
  287MOL0     C38624  10.005   5.801   6.340  0.4525 -0.3874  0.3406
  287MOL0     C38625  10.101   5.915   6.285  0.4005  0.0560 -0.5520
  287MOL0     C38626  10.068   5.936   6.135  0.0013  0.5326 -0.1438
  287MOL0     N38627  10.171   6.002   6.059 -0.3500  0.0318 -0.2234
  287MOL0     C38628  10.309   6.014   6.077 -0.9140  0.3112  0.7352
  287MOL0     C38629  10.352   6.124   6.007  0.1464  0.0274  0.7499
  287MOL0     C38630  10.487   6.184   6.006  0.0582  0.1105  0.3188
  287MOL0     C38631  10.595   6.093   5.943 -0.1170 -0.8469  0.3518
  287MOL0     C38632  10.744   6.158   5.951 -0.0080  0.0278 -0.0326
  287MOL0     C38633  10.739   6.296   5.878 -0.1043  0.5180  0.4702
  287MOL0     O38634  10.687   6.270   5.746 -0.2392 -0.5210  0.5313
  287MOL0     C38635  10.776   6.311   5.654 -0.0878  0.3874 -0.2577
  287MOL0     C38636  10.796   6.445   5.631  0.0017 -0.8407  0.0166
  287MOL0     C38637  10.874   6.496   5.537  0.0604  0.2251 -0.1607
  287MOL0     C38638  10.915   6.643   5.533  0.1710 -1.1689 -0.5010
  287MOL0     C38639  10.946   6.414   5.443  0.4728  0.7436  0.1526
  287MOL0     C38640  11.044   6.453   5.344 -0.7689 -0.4466 -0.9855
  287MOL0     O38641  11.032   6.562   5.268 -0.5351  0.0062  0.3711
  287MOL0     C38642  11.144   6.618   5.208  0.2300  0.4909  0.9229
  287MOL0     C38643  11.121   6.646   5.071 -0.0960 -0.2137 -0.9283
  287MOL0     C38644  11.216   6.723   5.002 -0.3650  0.8895  0.3956
  287MOL0     C38645  11.340   6.747   5.052 -0.3436 -0.4643 -0.4409
  287MOL0     O38646  11.444   6.808   4.988  0.0980 -0.2296 -0.9011
  287MOL0     C38647  11.440   6.820   4.841 -0.3990  0.0719  0.2440
  287MOL0     C38648  11.577   6.825   4.785  0.5413  0.5202  0.1999
  287MOL0     C38649  11.576   6.840   4.632 -0.0426  1.0674 -0.9386
  287MOL0     C38650  11.718   6.841   4.587  0.5957  1.0507  0.8525
  287MOL0     C38651  11.708   6.831   4.430  0.4678 -0.3088 -0.3082
  287MOL0     C38652  11.853   6.792   4.386 -1.2462  0.5057 -0.1985
  287MOL0     C38653  11.859   6.779   4.235 -0.2507  0.8306  0.2447
  287MOL0     C38654  12.005   6.751   4.194 -0.1752  0.5201  0.2309
  287MOL0    Cl38655  12.013   6.701   4.020  0.0520 -0.1755  0.2444
  287MOL0     C38656  11.368   6.711   5.184 -0.0361  0.4097 -0.0025
  287MOL0     C38657  11.272   6.642   5.261  0.4711  0.1031  0.4115
  287MOL0     O38658  11.150   6.385   5.350  0.1743  1.0196 -0.3594
  287MOL0     C38659  10.926   6.275   5.456  0.4171 -0.8450 -0.5121
  287MOL0     C38660  10.842   6.230   5.565 -0.7756  1.0415 -1.5223
  287MOL0     N38661  10.230   6.176   5.953 -0.4563  0.4703 -0.6123
  287MOL0     N38662  10.127   6.096   5.979 -0.4162 -0.6206 -0.1417
  287MOL0     C38663   9.633   6.492   6.670  0.1692 -0.2700  0.0572
  287MOL0     C38664   9.640   6.634   6.670 -1.1481  0.1885 -0.7577
  287MOL0     C38665   9.806   7.059   6.512 -0.9090  0.2856  0.2818
  287MOL0     C38666   9.826   7.131   6.395 -0.5773 -0.0923  0.7576
  287MOL0     C38667   9.812   7.271   6.398  0.1134 -0.0108  0.1020
  287MOL0     C38668   9.783   7.340   6.525  0.7154 -0.4792  0.0547
  287MOL0     O38669   9.767   7.474   6.519 -0.2956  0.3531 -0.3465
  287MOL0     C38670   9.735   7.557   6.630 -0.0171 -0.2175  0.0246
  287MOL0     C38671   9.753   7.697   6.564 -0.0903  0.1623 -0.9257
  287MOL0     C38672   9.734   7.811   6.663  0.7347 -0.3279  0.4078
  287MOL0     C38673   9.751   7.942   6.599  0.2848  1.7635  0.4990
  287MOL0     C38674   9.718   8.045   6.692 -0.3889 -0.1956  0.2265
  287MOL0     C38675   9.697   8.138   6.772 -0.6719 -0.0313  0.5937
  287MOL0     C38676   9.772   7.267   6.637  0.2231  0.0128  0.3555
  287MOL0     C38677   9.777   7.127   6.631  0.3563 -0.0839  0.3417
  287MOL0     H38678   9.960   6.651   6.547 -0.3417 -2.1037 -1.4543
  287MOL0     H38679   9.961   6.431   6.565  0.6674  1.1894 -2.0384
  287MOL0     H38680   9.856   6.231   6.513  2.4888  1.0765  1.8255
  287MOL0     H38681   9.894   6.146   6.668 -1.0786 -1.5123 -0.1849
  287MOL0     H38682   9.683   6.018   6.663  1.2200 -1.1922 -0.6352
  287MOL0     H38683   9.635   6.112   6.523  0.2456  4.4583  3.7259
  287MOL0     H38684   9.752   5.866   6.465  2.0708 -1.6567  1.0471
  287MOL0     H38685   9.823   5.998   6.387 -1.0296  0.9862  1.2724
  287MOL0     H38686  10.007   6.002   6.527  2.5119 -0.5577  0.9419
  287MOL0     H38687   9.943   5.910   6.661  2.7643  1.5624  1.2624
  287MOL0     H38688  10.092   5.780   6.536 -0.3865 -0.0197  0.1746
  287MOL0     H38689   9.927   5.711   6.516 -2.0655  0.1371 -3.7309
  287MOL0     H38690  10.047   5.708   6.298 -0.8183 -0.0202 -1.9155
  287MOL0     H38691   9.909   5.818   6.291  0.7277  3.1221  0.8175
  287MOL0     H38692  10.073   6.007   6.336  0.6681 -1.3771  2.4156
  287MOL0     H38693  10.208   5.902   6.303  0.2384 -1.0975 -0.3198
  287MOL0     H38694   9.978   5.997   6.123 -0.3757 -0.0864 -0.5528
  287MOL0     H38695  10.048   5.842   6.081 -2.1828  1.2830 -0.7606
  287MOL0     H38696  10.367   5.940   6.131 -2.2422 -1.1745  0.2064
  287MOL0     H38697  10.482   6.272   5.940 -2.0659 -0.0817  0.1250
  287MOL0     H38698  10.513   6.224   6.105 -1.0971  4.2550 -0.8256
  287MOL0     H38699  10.576   6.064   5.840  2.3175  1.9354 -1.0462
  287MOL0     H38700  10.605   6.008   6.011  2.8049  1.5470  3.2618
  287MOL0     H38701  10.829   6.100   5.913  1.4061  0.4605  2.2665
  287MOL0     H38702  10.765   6.175   6.057  1.3966 -1.1103 -0.0956
  287MOL0     H38703  10.841   6.333   5.868  1.2125 -2.7602  0.3623
  287MOL0     H38704  10.678   6.375   5.923  0.6880  1.6900 -0.4586
  287MOL0     H38705  10.757   6.525   5.693  1.7889 -0.9108  1.3152
  287MOL0     H38706  10.928   6.679   5.636  1.0784  1.7947 -1.5530
  287MOL0     H38707  11.017   6.657   5.495  0.1029  2.6154  0.3358
  287MOL0     H38708  10.845   6.713   5.486  0.2876 -1.2348 -0.7746
  287MOL0     H38709  11.024   6.622   5.029 -1.2149  2.6684 -0.2575
  287MOL0     H38710  11.169   6.747   4.907 -0.9450  0.0515  0.4555
  287MOL0     H38711  11.392   6.729   4.804 -0.8882  0.2398  0.4715
  287MOL0     H38712  11.374   6.900   4.806  0.9135  0.8844 -0.4712
  287MOL0     H38713  11.635   6.909   4.824 -0.3091  1.9613 -1.4865
  287MOL0     H38714  11.622   6.727   4.803 -2.1955 -1.3550 -2.1468
  287MOL0     H38715  11.540   6.941   4.612 -1.8456  0.4984 -0.7288
  287MOL0     H38716  11.511   6.770   4.579  0.7856  0.8802 -1.7398
  287MOL0     H38717  11.748   6.940   4.625  0.0279  0.0766  4.1238
  287MOL0     H38718  11.768   6.754   4.629 -1.0465 -0.6856 -0.6416
  287MOL0     H38719  11.682   6.931   4.393  0.1491 -0.8319 -1.5265
  287MOL0     H38720  11.641   6.749   4.403 -0.6168  1.2558 -2.7557
  287MOL0     H38721  11.933   6.858   4.422 -0.9263  1.3186 -2.2610
  287MOL0     H38722  11.859   6.688   4.421 -1.7624 -0.6943 -3.3960
  287MOL0     H38723  11.831   6.872   4.183 -0.6016 -1.1983 -3.5233
  287MOL0     H38724  11.794   6.706   4.188 -1.2882  2.2606 -0.6188
  287MOL0     H38725  12.052   6.686   4.268 -0.9742  0.3462  0.5922
  287MOL0     H38726  12.057   6.847   4.200 -0.1233  0.8302 -3.1927
  287MOL0     H38727  11.469   6.726   5.221  0.7927 -2.3390 -0.9031
  287MOL0     H38728  11.293   6.619   5.365 -0.1899 -2.3040  0.0764
  287MOL0     H38729  10.967   6.205   5.383  2.9618 -0.1321  0.1118
  287MOL0     H38730  10.815   6.125   5.572 -3.3242  1.6177 -1.5251
  287MOL0     H38731   9.545   6.434   6.698  0.3920  0.4807  2.4880
  287MOL0     H38732   9.554   6.684   6.713 -1.0574 -2.3512  2.7783
  287MOL0     H38733   9.872   7.085   6.308 -3.8163 -2.1289 -0.0282
  287MOL0     H38734   9.836   7.318   6.303 -0.7972  0.0794 -0.0978
  287MOL0     H38735   9.632   7.546   6.665 -0.9015 -2.0295 -2.8117
  287MOL0     H38736   9.799   7.544   6.718  0.2409  3.6949  0.5798
  287MOL0     H38737   9.681   7.703   6.483 -2.2791  0.1384  0.9105
  287MOL0     H38738   9.854   7.708   6.524  1.3560  0.2797  2.3715
  287MOL0     H38739   9.792   7.794   6.754  0.0797 -0.7781  0.7459
  287MOL0     H38740   9.629   7.791   6.688  1.1584 -1.6670  1.1855
  287MOL0     H38741   9.683   7.943   6.514  0.6690  0.0611  0.1433
  287MOL0     H38742   9.853   7.955   6.561  0.3308 -0.7303 -0.3980
  287MOL0     H38743   9.683   8.217   6.843  2.3339  2.6292 -1.5018
  287MOL0     H38744   9.748   7.293   6.740  0.8176 -3.9778  1.6436
  287MOL0     H38745   9.758   7.092   6.731 -4.6191 -0.5349 -0.4949
  288MOL0     O38746  10.488   5.836   7.490  0.3257 -0.3089 -0.5519
  288MOL0     C38747  10.514   5.885   7.598 -0.1691 -0.1039 -0.0380
  288MOL0     O38748  10.599   5.836   7.695  0.0906 -0.8049  0.3153
  288MOL0     C38749  10.667   5.714   7.691 -0.0060 -1.2538  0.3376
  288MOL0     C38750  10.697   5.642   7.580  0.4209 -0.7636  0.2001
  288MOL0     C38751  10.777   5.530   7.574 -0.3644  0.5213  0.8748
  288MOL0     C38752  10.832   5.479   7.690  0.1260 -0.0353  0.4311
  288MOL0     O38753  10.914   5.370   7.697 -0.5768  0.3483 -0.0783
  288MOL0     C38754  10.904   5.268   7.590  0.3745 -0.6508 -0.1711
  288MOL0     C38755  10.968   5.138   7.642  0.3085 -0.2941 -0.6174
  288MOL0     C38756  10.994   5.066   7.512 -0.7283  0.7526 -0.2073
  288MOL0     C38757  10.863   5.026   7.435  0.0166  0.6178 -1.0894
  288MOL0     C38758  10.857   4.907   7.334 -0.6096 -0.2269  0.5979
  288MOL0     C38759  10.954   4.907   7.210  0.0069  0.4549  1.0871
  288MOL0     C38760  10.946   4.774   7.129  0.4537 -0.2916  1.0275
  288MOL0     C38761  11.086   4.706   7.105  0.0395  0.3565 -0.3039
  288MOL0     N38762  11.089   4.637   6.978  0.2282 -0.5743 -0.6096
  288MOL0     C38763  11.085   4.497   6.941  0.4173  0.5346 -0.0352
  288MOL0     C38764  11.096   4.498   6.805 -0.5462 -0.3292  0.3444
  288MOL0     C38765  11.087   4.375   6.722 -1.3120  0.4512  0.0329
  288MOL0     C38766  11.220   4.293   6.750 -0.7824 -0.5128  0.2387
  288MOL0     C38767  11.225   4.170   6.655 -0.2623 -0.2959  0.0332
  288MOL0     C38768  11.361   4.084   6.671 -0.3234 -0.9526 -0.3145
  288MOL0     O38769  11.471   4.168   6.619  0.3796 -0.2597  0.1555
  288MOL0     C38770  11.597   4.119   6.598  1.1782 -0.7843 -0.0159
  288MOL0     C38771  11.680   4.220   6.572  0.7353 -0.1976  0.7791
  288MOL0     C38772  11.816   4.198   6.540 -0.0343 -0.3446  0.1017
  288MOL0     C38773  11.904   4.318   6.520  0.2507 -0.4841  0.2788
  288MOL0     C38774  11.871   4.073   6.545 -0.6183 -0.6952  0.2218
  288MOL0     C38775  12.012   4.043   6.525 -0.3599  0.3389  0.1998
  288MOL0     O38776  12.102   4.126   6.593 -0.9358  0.4306 -0.0690
  288MOL0     C38777  12.221   4.138   6.525  0.5513  0.0778  0.2573
  288MOL0     C38778  12.232   4.191   6.395 -0.1564  0.3176 -0.1258
  288MOL0     C38779  12.351   4.219   6.329  0.4999 -0.7617  0.0907
  288MOL0     C38780  12.469   4.197   6.394  0.3986  0.1265  0.3416
  288MOL0     O38781  12.587   4.226   6.332 -0.3930  0.3135  0.9601
  288MOL0     C38782  12.680   4.113   6.320 -0.1659  0.4242 -0.4401
  288MOL0     C38783  12.820   4.155   6.308 -0.6211 -0.1180 -0.2132
  288MOL0     C38784  12.830   4.219   6.164  0.4984 -0.6150 -0.1141
  288MOL0     C38785  12.974   4.277   6.135 -0.0629  1.3231 -0.5423
  288MOL0     C38786  12.975   4.338   5.998 -0.1982 -0.3444  0.8206
  288MOL0     C38787  13.114   4.355   5.942  0.4811 -0.6292 -0.2228
  288MOL0     C38788  13.111   4.428   5.805 -0.7418 -0.3277 -0.0170
  288MOL0     C38789  13.245   4.441   5.736  0.5449 -0.1499 -0.0853
  288MOL0    Cl38790  13.245   4.538   5.593  0.5759  0.4081 -0.0652
  288MOL0     C38791  12.456   4.153   6.529 -0.4595 -0.5988  0.0449
  288MOL0     C38792  12.336   4.122   6.588 -1.3145 -0.1002 -0.1264
  288MOL0     O38793  12.043   3.944   6.453  0.3832 -0.5984  0.0787
  288MOL0     C38794  11.780   3.970   6.562  0.0257  0.4009  1.4300
  288MOL0     C38795  11.647   3.995   6.596 -0.6549  0.4336 -0.4508
  288MOL0     N38796  11.109   4.629   6.770 -0.3223  0.1979 -0.3359
  288MOL0     N38797  11.108   4.708   6.866 -0.5506 -0.3384 -0.4216
  288MOL0     C38798  10.797   5.546   7.815  0.0123  0.8353  0.8342
  288MOL0     C38799  10.727   5.666   7.808  0.4756  0.1072 -0.0978
  288MOL0     C38800  10.433   6.003   7.632 -0.4218 -0.0127  0.2252
  288MOL0     C38801  10.332   6.054   7.552 -0.8454  0.5282 -0.5383
  288MOL0     C38802  10.266   6.175   7.586 -0.1780  0.3008  0.1357
  288MOL0     C38803  10.301   6.234   7.709 -0.7637 -0.1420 -0.6260
  288MOL0     O38804  10.239   6.343   7.760  0.0675 -1.2088  0.3251
  288MOL0     C38805  10.143   6.421   7.690 -0.8942 -0.2572 -1.5853
  288MOL0     C38806  10.222   6.497   7.576  0.7330 -0.9351 -0.3268
  288MOL0     C38807  10.322   6.600   7.619  0.0847 -0.1804 -0.0552
  288MOL0     C38808  10.251   6.736   7.634  0.6751  0.6626  0.9764
  288MOL0     C38809  10.338   6.831   7.696  0.5889  0.6616  0.0463
  288MOL0     C38810  10.424   6.892   7.748  0.6893  0.8593  1.1891
  288MOL0     C38811  10.381   6.171   7.805  1.0211  0.0981  0.0591
  288MOL0     C38812  10.451   6.052   7.768  0.0164 -0.7038 -0.7184
  288MOL0     H38813  10.673   5.694   7.488 -1.2897 -0.8522  0.5540
  288MOL0     H38814  10.798   5.508   7.470 -0.1667  1.4101  0.7147
  288MOL0     H38815  10.801   5.261   7.554  0.2983 -0.7173  0.0612
  288MOL0     H38816  10.963   5.303   7.504  1.3916 -2.8171 -0.4227
  288MOL0     H38817  11.060   5.155   7.699  0.1670 -0.8460 -0.2147
  288MOL0     H38818  10.904   5.080   7.709  0.0804 -1.0058 -1.4381
  288MOL0     H38819  11.059   5.131   7.453 -1.4409  0.6560 -1.1238
  288MOL0     H38820  11.049   4.974   7.535  1.2552  2.4588  2.4545
  288MOL0     H38821  10.789   4.997   7.510  0.1886  0.1379 -1.0999
  288MOL0     H38822  10.828   5.112   7.378 -0.8179  0.5282 -0.7274
  288MOL0     H38823  10.888   4.817   7.387 -0.4830 -1.3659 -1.3364
  288MOL0     H38824  10.760   4.879   7.293  0.9011  1.5154 -5.1280
  288MOL0     H38825  10.924   4.991   7.147  1.2891 -1.5424 -2.4836
  288MOL0     H38826  11.058   4.928   7.236  0.3593  0.2967 -0.1302
  288MOL0     H38827  10.877   4.714   7.189 -1.7511  2.9041  1.9437
  288MOL0     H38828  10.909   4.807   7.031 -0.6682  0.9878  1.8649
  288MOL0     H38829  11.129   4.636   7.177  2.0476 -0.9599 -2.6256
  288MOL0     H38830  11.161   4.785   7.098 -0.6850  1.0976  0.2128
  288MOL0     H38831  11.096   4.423   7.020 -1.6533  1.6030  1.3664
  288MOL0     H38832  10.998   4.312   6.718 -0.9237 -0.0765 -3.3417
  288MOL0     H38833  11.097   4.408   6.619  1.3266  1.2366  0.4558
  288MOL0     H38834  11.219   4.263   6.855 -2.5093  0.5268  0.5479
  288MOL0     H38835  11.304   4.364   6.752 -2.1972  1.2393 -0.3092
  288MOL0     H38836  11.210   4.194   6.550  2.2117 -1.9940 -0.7910
  288MOL0     H38837  11.140   4.106   6.682  0.8043 -1.0907  1.6805
  288MOL0     H38838  11.355   3.992   6.613  2.1355 -0.3212 -1.6816
  288MOL0     H38839  11.389   4.067   6.776  0.7527  2.9830  0.2087
  288MOL0     H38840  11.642   4.321   6.567 -2.7715 -1.4259 -0.4910
  288MOL0     H38841  11.964   4.298   6.430 -1.5059 -1.7833 -0.6714
  288MOL0     H38842  11.849   4.410   6.498  0.6922 -0.2059  0.3157
  288MOL0     H38843  11.964   4.337   6.610 -0.5815 -0.6806  0.8857
  288MOL0     H38844  12.140   4.218   6.344 -0.1525 -0.5601 -0.6099
  288MOL0     H38845  12.348   4.263   6.230 -0.6783  0.7666  0.7571
  288MOL0     H38846  12.667   4.064   6.417  0.3170  1.6186  0.2554
  288MOL0     H38847  12.648   4.055   6.233  0.7048  0.8931 -1.0784
  288MOL0     H38848  12.856   4.231   6.377 -0.1547  0.7395 -1.3671
  288MOL0     H38849  12.882   4.065   6.314 -2.7702 -1.6434  1.0601
  288MOL0     H38850  12.767   4.308   6.155  3.6458  1.7171 -1.2108
  288MOL0     H38851  12.803   4.148   6.085 -2.7822 -0.0669  0.3590
  288MOL0     H38852  12.996   4.351   6.213 -0.3477 -0.5695  1.4416
  288MOL0     H38853  13.051   4.200   6.139  0.4533  1.7979 -1.1264
  288MOL0     H38854  12.921   4.433   6.001 -0.7954 -0.6949  1.7943
  288MOL0     H38855  12.916   4.278   5.928 -1.9665  2.1867  0.0123
  288MOL0     H38856  13.170   4.412   6.017 -0.3084  1.2846 -1.0224
  288MOL0     H38857  13.161   4.257   5.931 -1.1022 -1.2946 -1.3740
  288MOL0     H38858  13.064   4.525   5.829  3.8262  1.9814  0.6841
  288MOL0     H38859  13.038   4.376   5.743  0.1448 -4.6382  2.2197
  288MOL0     H38860  13.277   4.340   5.710 -2.6103 -0.9174 -1.3804
  288MOL0     H38861  13.313   4.484   5.810 -0.3874  1.4036 -0.0867
  288MOL0     H38862  12.541   4.136   6.594 -1.9403 -2.6953  1.5793
  288MOL0     H38863  12.344   4.097   6.693  0.2697  0.0523 -0.1803
  288MOL0     H38864  11.820   3.870   6.550  1.0600  0.8819  0.7593
  288MOL0     H38865  11.583   3.907   6.603 -2.2816  1.6808  1.4532
  288MOL0     H38866  10.837   5.503   7.906  1.4851 -1.5227 -0.7829
  288MOL0     H38867  10.704   5.718   7.901  1.5938  1.2442 -0.4285
  288MOL0     H38868  10.318   6.003   7.457  2.2081  1.8324 -1.8235
  288MOL0     H38869  10.181   6.212   7.529  0.8179 -0.2058 -1.7599
  288MOL0     H38870  10.071   6.353   7.645 -1.6090 -0.4912 -0.1323
  288MOL0     H38871  10.088   6.488   7.757 -0.9439  0.1502 -2.0236
  288MOL0     H38872  10.150   6.541   7.507 -1.6987 -1.3409  1.8066
  288MOL0     H38873  10.285   6.429   7.518 -1.5052 -0.9330 -2.9557
  288MOL0     H38874  10.398   6.595   7.540 -0.3039 -0.8171 -0.3997
  288MOL0     H38875  10.368   6.577   7.715 -0.7822  0.7057  0.5964
  288MOL0     H38876  10.167   6.737   7.704  0.6860 -1.8556  1.1053
  288MOL0     H38877  10.219   6.775   7.537 -0.6530 -1.8589  0.3210
  288MOL0     H38878  10.495   6.939   7.813 -0.3945  0.3174  2.8569
  288MOL0     H38879  10.405   6.219   7.900 -1.5271 -0.7979  1.2703
  288MOL0     H38880  10.525   6.010   7.835 -0.7584  0.2764  0.8039
  289MOL0     O38881   1.913   5.919   3.996 -1.3217 -1.3541  0.2129
  289MOL0     C38882   1.956   6.028   4.050 -0.3765 -0.0301  0.6358
  289MOL0     O38883   2.060   6.041   4.143 -0.6910 -0.5858  0.1729
  289MOL0     C38884   2.135   5.940   4.199  0.1179 -0.2645 -0.2568
  289MOL0     C38885   2.241   5.992   4.272 -0.0479  0.4431  0.5480
  289MOL0     C38886   2.327   5.897   4.335 -0.1258 -0.1752 -0.1675
  289MOL0     C38887   2.320   5.759   4.321 -0.1133  0.1332 -0.0600
  289MOL0     O38888   2.414   5.679   4.388 -0.4748  0.1074  0.4090
  289MOL0     C38889   2.428   5.532   4.363  0.8235  0.0580  0.3488
  289MOL0     C38890   2.516   5.506   4.241  0.1465  0.6397  0.1974
  289MOL0     C38891   2.557   5.360   4.231 -0.6869  0.2293 -0.3139
  289MOL0     C38892   2.650   5.340   4.115 -1.0187  0.0001 -0.9110
  289MOL0     C38893   2.703   5.188   4.103  0.4729 -0.6189  0.6713
  289MOL0     C38894   2.770   5.160   3.968 -0.3573 -0.4743  0.0164
  289MOL0     C38895   2.816   5.018   3.945  0.2243  0.5394 -0.6926
  289MOL0     C38896   2.967   4.994   3.980  0.0056  0.6698  0.7834
  289MOL0     N38897   2.993   4.854   3.996  0.8848  0.4208 -0.0012
  289MOL0     C38898   2.961   4.783   4.115 -0.3219  0.7024 -0.4854
  289MOL0     C38899   2.955   4.653   4.066  0.5152 -0.0071  0.1774
  289MOL0     C38900   2.931   4.521   4.133  0.2991 -0.5218  0.1112
  289MOL0     C38901   3.047   4.484   4.231 -0.3853  0.2868  0.5668
  289MOL0     C38902   3.159   4.409   4.147 -0.7024 -0.0731  0.0329
  289MOL0     C38903   3.143   4.263   4.099 -0.2726  0.0852  0.0802
  289MOL0     O38904   3.138   4.187   4.224 -0.1531 -0.0134  0.4149
  289MOL0     C38905   3.140   4.048   4.210  0.4488 -0.2618  0.8175
  289MOL0     C38906   3.117   3.983   4.326  0.7952  1.2202 -0.3428
  289MOL0     C38907   3.145   3.841   4.343 -0.5101 -0.6961 -0.1925
  289MOL0     C38908   3.128   3.767   4.472  0.0162  0.1342  0.7672
  289MOL0     C38909   3.160   3.768   4.219  0.0545  0.0589  0.5303
  289MOL0     C38910   3.172   3.630   4.202  0.1283 -0.3468 -0.0081
  289MOL0     O38911   3.079   3.568   4.123 -0.1591  0.7009 -0.7241
  289MOL0     C38912   3.052   3.434   4.146  0.5397  0.4316  0.0476
  289MOL0     C38913   3.057   3.369   4.271 -0.2292  0.9341  0.3948
  289MOL0     C38914   3.050   3.232   4.278  0.4109  1.1389 -0.4226
  289MOL0     C38915   3.003   3.158   4.169 -0.3433  0.3123 -0.4788
  289MOL0     O38916   2.992   3.023   4.190  0.4816  0.5739 -0.2516
  289MOL0     C38917   2.887   2.962   4.114 -0.8382  0.4201  0.0661
  289MOL0     C38918   2.963   2.889   4.019 -0.4358  0.7896  0.4761
  289MOL0     C38919   2.877   2.830   3.901  0.4435 -0.0041 -0.2217
  289MOL0     C38920   2.766   2.732   3.946  0.2757  0.6495 -0.8414
  289MOL0     C38921   2.670   2.694   3.829  0.4115 -0.6122 -0.4435
  289MOL0     C38922   2.531   2.641   3.875 -0.5420 -0.0025 -0.1695
  289MOL0     C38923   2.454   2.563   3.762 -0.0426 -0.6231 -0.3047
  289MOL0     C38924   2.483   2.414   3.775 -0.1991  0.2736  0.1190
  289MOL0    Cl38925   2.391   2.328   3.645  0.3656 -0.3941  0.3029
  289MOL0     C38926   2.983   3.223   4.045  0.0398  0.6908 -0.4228
  289MOL0     C38927   3.002   3.365   4.035  0.4867  1.4122  0.2564
  289MOL0     O38928   3.260   3.574   4.267  0.1805 -0.2618  0.3345
  289MOL0     C38929   3.168   3.840   4.098 -0.4100 -0.1475  0.2052
  289MOL0     C38930   3.160   3.983   4.094  0.1082 -1.0756  0.3195
  289MOL0     N38931   2.994   4.643   3.937 -0.3155 -0.9061 -0.4763
  289MOL0     N38932   3.006   4.760   3.893 -0.6585 -0.5688  1.1273
  289MOL0     C38933   2.214   5.713   4.241 -1.1689  0.6597 -0.1655
  289MOL0     C38934   2.119   5.797   4.180 -1.2151  1.1413 -0.2926
  289MOL0     C38935   1.907   6.147   3.987 -0.0579 -0.1947  0.1668
  289MOL0     C38936   1.959   6.266   4.038 -0.1605 -1.2158  0.3192
  289MOL0     C38937   1.923   6.395   3.973  0.2625  0.3264 -0.4056
  289MOL0     C38938   1.844   6.403   3.856 -0.4036 -1.2513 -0.5141
  289MOL0     O38939   1.812   6.517   3.787 -0.5807 -0.8336  0.2955
  289MOL0     C38940   1.846   6.640   3.832 -1.2301  0.7678  0.3460
  289MOL0     C38941   1.832   6.747   3.725  0.0170 -0.2470  0.8415
  289MOL0     C38942   1.694   6.785   3.678  0.3104 -0.0541 -0.3790
  289MOL0     C38943   1.607   6.682   3.607 -0.3692  0.4629 -0.4623
  289MOL0     C38944   1.664   6.612   3.496 -0.1953 -0.4172 -0.4257
  289MOL0     C38945   1.707   6.545   3.418 -0.4041  0.7724 -0.3628
  289MOL0     C38946   1.786   6.278   3.818  0.0927  0.5830 -0.1132
  289MOL0     C38947   1.816   6.153   3.877  0.0919  0.1147  0.6359
  289MOL0     H38948   2.243   6.101   4.269 -0.6451  0.4337 -0.6529
  289MOL0     H38949   2.418   5.929   4.384 -1.7707 -1.3058  4.0663
  289MOL0     H38950   2.454   5.478   4.455 -2.8226 -1.8322  0.4719
  289MOL0     H38951   2.328   5.492   4.346  0.6648 -0.0284  1.3842
  289MOL0     H38952   2.460   5.524   4.149 -0.2309 -4.9930 -1.0448
  289MOL0     H38953   2.602   5.571   4.258  0.3550  0.6305 -0.7648
  289MOL0     H38954   2.604   5.335   4.327  0.9006  0.0546 -1.1073
  289MOL0     H38955   2.464   5.304   4.218 -1.7018  2.4096 -3.6885
  289MOL0     H38956   2.591   5.358   4.024  0.3706 -1.6899 -2.2207
  289MOL0     H38957   2.737   5.406   4.122 -2.2412  1.4751  1.5890
  289MOL0     H38958   2.763   5.148   4.185 -0.9213 -0.3399  1.8677
  289MOL0     H38959   2.615   5.126   4.086 -0.4476  0.7321  0.3171
  289MOL0     H38960   2.696   5.174   3.889  1.6645 -2.0283 -2.2765
  289MOL0     H38961   2.858   5.224   3.962 -0.3375 -0.6325 -2.0984
  289MOL0     H38962   2.756   4.950   4.006  1.1061  0.9799  0.7056
  289MOL0     H38963   2.804   5.011   3.837 -2.9888  1.7778 -0.5268
  289MOL0     H38964   2.996   5.035   4.078  1.7179 -2.3029  1.6328
  289MOL0     H38965   3.028   5.037   3.900  1.4196 -3.3548 -0.5315
  289MOL0     H38966   2.948   4.816   4.218  2.6374 -1.6980  0.8157
  289MOL0     H38967   2.843   4.528   4.197  2.8180 -2.5947  4.2077
  289MOL0     H38968   2.905   4.445   4.058 -0.0869 -2.0386  1.7108
  289MOL0     H38969   3.014   4.413   4.307  0.1165 -1.8564 -1.1149
  289MOL0     H38970   3.096   4.572   4.273  2.0492  0.2259 -1.8116
  289MOL0     H38971   3.253   4.416   4.202  0.5454  0.3160 -2.0136
  289MOL0     H38972   3.170   4.466   4.054 -1.8376 -2.5380 -1.7382
  289MOL0     H38973   3.234   4.230   4.049 -0.2793  1.5518 -0.9683
  289MOL0     H38974   3.058   4.259   4.030  0.1962  1.4806 -0.6186
  289MOL0     H38975   3.090   4.042   4.412  2.5263 -0.7087  1.6369
  289MOL0     H38976   3.214   3.700   4.481  0.7638  0.9907  0.0886
  289MOL0     H38977   3.120   3.832   4.560 -1.5941  2.9299 -1.2997
  289MOL0     H38978   3.040   3.702   4.467 -1.1524  1.4394  2.8018
  289MOL0     H38979   3.077   3.422   4.364  0.5396  1.8474 -0.2705
  289MOL0     H38980   3.066   3.180   4.372  0.8963 -1.5901 -1.9315
  289MOL0     H38981   2.840   2.891   4.182  3.7290 -1.7541  1.3225
  289MOL0     H38982   2.814   3.021   4.058 -0.1941  0.8015 -0.4001
  289MOL0     H38983   3.042   2.946   3.969 -0.8571  2.3817  1.5194
  289MOL0     H38984   3.017   2.806   4.066  2.4825  2.9445  1.2330
  289MOL0     H38985   2.938   2.762   3.842 -0.2932 -1.8292  1.0303
  289MOL0     H38986   2.827   2.913   3.850  2.2319 -0.4425 -2.8609
  289MOL0     H38987   2.806   2.650   4.007  0.7212  0.0741 -1.8762
  289MOL0     H38988   2.707   2.777   4.027 -1.5409 -2.9403  0.0391
  289MOL0     H38989   2.711   2.611   3.770 -1.3086 -1.5916 -0.3306
  289MOL0     H38990   2.647   2.780   3.765 -1.3595  0.2814  1.2829
  289MOL0     H38991   2.540   2.575   3.962 -0.1596 -0.7205 -0.7410
  289MOL0     H38992   2.466   2.727   3.896 -1.2630 -0.6510  0.3442
  289MOL0     H38993   2.490   2.615   3.673 -1.5923  2.1455  0.5309
  289MOL0     H38994   2.349   2.588   3.781  0.7556  0.4799  3.4037
  289MOL0     H38995   2.459   2.367   3.871  0.3126 -2.2674 -0.9186
  289MOL0     H38996   2.590   2.400   3.756  0.2614 -0.8196  2.9965
  289MOL0     H38997   2.940   3.170   3.960  1.4480  2.2816 -2.2076
  289MOL0     H38998   2.980   3.425   3.948  1.0842  1.8699  0.4091
  289MOL0     H38999   3.181   3.782   4.008 -0.6969 -0.5346  0.4100
  289MOL0     H39000   3.167   4.033   3.998  2.0569  1.3737  1.6417
  289MOL0     H39001   2.186   5.609   4.226 -0.7399  0.8456 -2.6027
  289MOL0     H39002   2.033   5.753   4.130 -2.7916  0.1641  3.0181
  289MOL0     H39003   2.022   6.284   4.125  4.1079  4.3445 -3.1804
  289MOL0     H39004   1.967   6.481   4.022 -0.7168  0.1875  0.7424
  289MOL0     H39005   1.796   6.674   3.923 -1.3964  0.2165  0.4629
  289MOL0     H39006   1.953   6.643   3.857 -0.7379  0.7859 -1.5949
  289MOL0     H39007   1.898   6.730   3.640  1.3304  3.0814  1.0252
  289MOL0     H39008   1.883   6.832   3.772  3.3427 -0.8109 -1.3982
  289MOL0     H39009   1.711   6.877   3.621  4.5241  1.8635  3.3903
  289MOL0     H39010   1.631   6.811   3.764  1.1024 -5.5405  2.2831
  289MOL0     H39011   1.513   6.732   3.583 -2.0671 -1.4414  1.7354
  289MOL0     H39012   1.596   6.600   3.678  1.6618 -1.7549 -2.5394
  289MOL0     H39013   1.737   6.463   3.355 -1.2332 -2.0762  2.6673
  289MOL0     H39014   1.731   6.279   3.724 -3.0524  1.0549  1.5956
  289MOL0     H39015   1.790   6.057   3.834  2.2882 -0.4708  0.5365
  290MOL0     O39016  10.212   7.929   7.002 -0.9906 -0.4634  0.5099
  290MOL0     C39017  10.276   8.037   6.981  0.4911 -0.9428  0.3726
  290MOL0     O39018  10.228   8.173   6.987 -0.0532  0.4414 -0.5107
  290MOL0     C39019  10.105   8.181   7.032  0.3764 -0.7451 -0.3027
  290MOL0     C39020  10.079   8.284   7.128  0.5088  0.6060  0.5022
  290MOL0     C39021   9.952   8.308   7.179 -0.0610  0.3746  0.0473
  290MOL0     C39022   9.844   8.231   7.131  0.3074  0.6954 -0.9353
  290MOL0     O39023   9.708   8.241   7.184 -0.5430 -0.0451  0.9181
  290MOL0     C39024   9.657   8.363   7.248  0.2648 -0.1235  0.5276
  290MOL0     C39025   9.627   8.476   7.151  0.2662  0.8210  0.1994
  290MOL0     C39026   9.574   8.609   7.207 -0.7948  1.5206  0.3309
  290MOL0     C39027   9.675   8.685   7.298  0.3024  0.0893 -0.0199
  290MOL0     C39028   9.785   8.756   7.221  0.2432 -0.0813 -0.4906
  290MOL0     C39029   9.903   8.806   7.305 -0.3769  0.4046  0.1181
  290MOL0     C39030  10.005   8.693   7.310 -0.7688  0.7832 -0.0705
  290MOL0     C39031  10.142   8.752   7.351 -0.3030 -0.1950  0.4569
  290MOL0     N39032  10.257   8.668   7.324  0.0443  0.0393 -0.0397
  290MOL0     C39033  10.387   8.695   7.375  0.6006  0.4280  0.1045
  290MOL0     C39034  10.467   8.588   7.344  0.1109 -0.1483 -0.0853
  290MOL0     C39035  10.611   8.581   7.381  1.0720  0.6502  0.3535
  290MOL0     C39036  10.633   8.547   7.533  0.2774  0.2152 -0.3817
  290MOL0     C39037  10.770   8.566   7.587 -1.3241 -0.5878 -0.1163
  290MOL0     C39038  10.866   8.452   7.555 -0.3171  0.0899 -0.0340
  290MOL0     O39039  10.995   8.492   7.609  1.5841 -0.1998  0.5558
  290MOL0     C39040  11.090   8.407   7.561  0.5433 -0.8895  0.2433
  290MOL0     C39041  11.075   8.290   7.491  0.4223 -0.2127 -0.1811
  290MOL0     C39042  11.172   8.205   7.446  0.4321  0.5795  0.0465
  290MOL0     C39043  11.133   8.072   7.374  0.4022  0.5242  0.0666
  290MOL0     C39044  11.301   8.241   7.479  0.2049  0.5660  0.3224
  290MOL0     C39045  11.415   8.147   7.441  0.3462 -1.3021 -0.4264
  290MOL0     O39046  11.516   8.154   7.525 -0.2368  0.0509 -0.1608
  290MOL0     C39047  11.635   8.091   7.494  0.1249  0.1181  0.4843
  290MOL0     C39048  11.653   7.944   7.478  0.0358  0.4050 -0.0599
  290MOL0     C39049  11.786   7.894   7.464 -0.3073  0.2275  0.3636
  290MOL0     C39050  11.891   7.983   7.468 -0.4258 -1.2400 -0.2657
  290MOL0     O39051  12.015   7.936   7.450 -0.0110 -0.3888 -0.6336
  290MOL0     C39052  12.052   7.802   7.493  0.2753 -0.2336  1.1979
  290MOL0     C39053  12.194   7.781   7.520 -0.0805  0.2140  0.1531
  290MOL0     C39054  12.268   7.757   7.391  0.8552  0.2567 -0.0466
  290MOL0     C39055  12.414   7.733   7.423 -0.0837 -0.0841  0.0361
  290MOL0     C39056  12.449   7.594   7.453  0.6232  0.2963  0.1423
  290MOL0     C39057  12.557   7.537   7.352 -0.8074  0.1724 -0.8336
  290MOL0     C39058  12.617   7.407   7.408 -0.1730  0.3195  0.9034
  290MOL0     C39059  12.506   7.302   7.459  0.4116 -0.2573  0.0628
  290MOL0    Cl39060  12.598   7.161   7.509 -0.0967  0.0317  0.0370
  290MOL0     C39061  11.876   8.129   7.467  1.0938 -0.6155  0.2085
  290MOL0     C39062  11.746   8.180   7.490  0.3298 -0.6332  0.5195
  290MOL0     O39063  11.398   8.082   7.337 -0.3972 -0.1596 -0.3892
  290MOL0     C39064  11.325   8.355   7.550 -0.0660 -0.0903 -0.5780
  290MOL0     C39065  11.220   8.438   7.590 -0.6907  1.1575 -0.5250
  290MOL0     N39066  10.385   8.497   7.278  0.7094  0.1632  0.0450
  290MOL0     N39067  10.275   8.554   7.249 -0.2604 -0.4013 -0.2106
  290MOL0     C39068   9.864   8.121   7.044 -0.4726 -0.4331  0.2550
  290MOL0     C39069   9.994   8.103   6.990 -0.5868 -0.0690 -0.1262
  290MOL0     C39070  10.408   8.020   6.918 -0.0629 -1.0196  0.5116
  290MOL0     C39071  10.492   8.132   6.876 -0.3136 -0.0620  0.4343
  290MOL0     C39072  10.616   8.114   6.816 -0.2536  0.3136 -0.0450
  290MOL0     C39073  10.667   7.984   6.789 -0.2117 -0.4102 -0.3438
  290MOL0     O39074  10.797   7.974   6.751  0.3351 -0.3274  0.2212
  290MOL0     C39075  10.852   7.854   6.713  0.3906 -0.5546 -0.4745
  290MOL0     C39076  10.980   7.876   6.631  0.5475 -0.7070 -0.1576
  290MOL0     C39077  10.935   7.929   6.491  0.1473 -1.3674 -0.0955
  290MOL0     C39078  11.046   7.952   6.400 -0.2783 -0.5206  0.2910
  290MOL0     C39079  10.993   8.003   6.274 -0.0719 -0.2615 -0.0481
  290MOL0     C39080  10.941   8.056   6.177 -0.5495  0.9388  1.0037
  290MOL0     C39081  10.582   7.879   6.822 -0.4773  0.6933  0.2247
  290MOL0     C39082  10.461   7.890   6.888  0.0868  0.1725 -0.9038
  290MOL0     H39083  10.168   8.339   7.156  0.5557 -0.0635  1.7424
  290MOL0     H39084   9.944   8.387   7.252 -0.5335 -1.6505  2.2952
  290MOL0     H39085   9.569   8.334   7.307 -0.1467 -0.1405 -0.0822
  290MOL0     H39086   9.737   8.389   7.318  0.0453 -1.5505  1.3506
  290MOL0     H39087   9.721   8.487   7.096 -0.0757 -1.6525 -1.0210
  290MOL0     H39088   9.550   8.448   7.078  2.1548 -0.4065 -1.4103
  290MOL0     H39089   9.554   8.677   7.124  1.3209  2.4154  0.4890
  290MOL0     H39090   9.486   8.589   7.269 -2.0586  1.7414 -1.3226
  290MOL0     H39091   9.621   8.767   7.347  1.0217  0.2626  0.5063
  290MOL0     H39092   9.715   8.631   7.384 -2.7376 -1.4688  0.5575
  290MOL0     H39093   9.827   8.681   7.154  1.8732  1.6577 -1.5038
  290MOL0     H39094   9.751   8.838   7.157  1.7444  1.8531  1.0592
  290MOL0     H39095   9.950   8.881   7.240 -1.4819 -0.1981 -1.4554
  290MOL0     H39096   9.867   8.857   7.395  0.3293  1.7321 -0.3282
  290MOL0     H39097   9.977   8.612   7.378 -0.9825 -0.5611 -1.6947
  290MOL0     H39098  10.010   8.647   7.210  4.1650  0.1229  0.2161
  290MOL0     H39099  10.137   8.776   7.457 -0.0947  0.6263  0.2939
  290MOL0     H39100  10.153   8.848   7.300  0.0262  0.7564  2.2328
  290MOL0     H39101  10.420   8.790   7.416  0.5306 -0.0108  1.2018
  290MOL0     H39102  10.642   8.499   7.316 -3.8014 -1.5033  0.2864
  290MOL0     H39103  10.647   8.683   7.362 -0.5569  1.9709  3.5850
  290MOL0     H39104  10.609   8.441   7.547  1.3927  0.1220  1.0478
  290MOL0     H39105  10.565   8.605   7.596 -0.3459 -1.9343  1.0365
  290MOL0     H39106  10.767   8.555   7.696  0.0642  0.7412  0.1025
  290MOL0     H39107  10.812   8.664   7.561  1.9071 -2.2387 -1.6739
  290MOL0     H39108  10.856   8.442   7.447 -0.7036 -1.3366  0.1142
  290MOL0     H39109  10.832   8.356   7.594 -1.4416 -0.7888 -2.9175
  290MOL0     H39110  10.973   8.263   7.463 -0.5373  1.3592  1.5978
  290MOL0     H39111  11.134   8.057   7.266  0.6940 -3.0736  0.4381
  290MOL0     H39112  11.194   7.989   7.410 -1.7296 -0.6463  1.1686
  290MOL0     H39113  11.033   8.047   7.410  1.5032 -0.2790  2.8058
  290MOL0     H39114  11.567   7.880   7.497 -1.1479  1.7762 -0.6116
  290MOL0     H39115  11.802   7.787   7.475  0.6926 -0.0471 -2.6625
  290MOL0     H39116  12.008   7.778   7.591  0.2753 -3.4872  0.5285
  290MOL0     H39117  12.028   7.734   7.411 -0.7196  1.8958 -0.3601
  290MOL0     H39118  12.234   7.873   7.562  0.3431 -1.7624  4.6116
  290MOL0     H39119  12.207   7.696   7.587 -0.1854 -1.0859 -1.4100
  290MOL0     H39120  12.253   7.849   7.334 -3.7821 -0.7376 -0.8528
  290MOL0     H39121  12.217   7.670   7.349  1.2409  0.5347 -1.1006
  290MOL0     H39122  12.478   7.760   7.338 -2.1899  2.2584 -0.9279
  290MOL0     H39123  12.452   7.799   7.502 -0.5475 -0.8145  0.8862
  290MOL0     H39124  12.356   7.538   7.439  0.8983 -0.1215 -0.0268
  290MOL0     H39125  12.485   7.587   7.557  0.0608  3.4907  0.6484
  290MOL0     H39126  12.514   7.517   7.253  2.3144  2.6795 -2.8957
  290MOL0     H39127  12.642   7.605   7.336  0.3510 -1.2713 -1.0587
  290MOL0     H39128  12.696   7.426   7.481  1.3889  0.4509 -0.7489
  290MOL0     H39129  12.676   7.366   7.325 -1.2873 -0.4574  0.4605
  290MOL0     H39130  12.439   7.281   7.375  0.4139  1.7188 -0.4834
  290MOL0     H39131  12.449   7.349   7.540  0.4063  2.9813 -1.6452
  290MOL0     H39132  11.963   8.193   7.458 -0.9027  2.1135 -0.9791
  290MOL0     H39133  11.727   8.286   7.500 -4.1769 -1.1349 -0.6379
  290MOL0     H39134  11.425   8.396   7.559 -0.3076  0.7662 -1.6194
  290MOL0     H39135  11.245   8.523   7.653 -0.8181 -1.7204  3.7613
  290MOL0     H39136   9.781   8.055   7.020 -1.5102  0.8683  0.1742
  290MOL0     H39137  10.010   8.014   6.930  0.9105 -0.7412  1.1996
  290MOL0     H39138  10.458   8.233   6.896 -1.3570 -0.0617 -1.1023
  290MOL0     H39139  10.689   8.191   6.796  0.1513 -0.8495 -3.6133
  290MOL0     H39140  10.894   7.806   6.803 -0.2519 -2.2294 -1.0210
  290MOL0     H39141  10.784   7.779   6.670  1.1914 -1.1289 -0.7507
  290MOL0     H39142  11.036   7.782   6.627  0.5957 -0.9422  3.2267
  290MOL0     H39143  11.045   7.947   6.684 -0.9656  1.4795 -1.0837
  290MOL0     H39144  10.874   8.020   6.500  0.0761 -1.6261  3.5522
  290MOL0     H39145  10.872   7.854   6.443  0.7286  0.3544 -3.9322
  290MOL0     H39146  11.095   7.855   6.386 -2.4795 -1.3319 -2.8706
  290MOL0     H39147  11.118   8.022   6.443  1.5922 -1.7544 -0.7097
  290MOL0     H39148  10.881   8.111   6.108 -1.6243  1.6158  2.4209
  290MOL0     H39149  10.627   7.781   6.826  0.9639  1.3335  0.4549
  290MOL0     H39150  10.404   7.803   6.915 -1.6520  1.5112 -0.0903
  291MOL0     O39151   6.870  10.518   9.454  0.0533 -1.0158 -0.6981
  291MOL0     C39152   6.799  10.618   9.449  0.5083  0.0446  0.3735
  291MOL0     O39153   6.659  10.618   9.461 -0.2956  0.0352 -0.1662
  291MOL0     C39154   6.576  10.511   9.458 -0.3820  0.0156  0.3675
  291MOL0     C39155   6.599  10.390   9.394  0.6092  0.6945  0.7871
  291MOL0     C39156   6.516  10.267   9.415  0.1720  0.1369  0.5800
  291MOL0     C39157   6.403  10.276   9.500 -0.3965 -0.8087 -0.3490
  291MOL0     O39158   6.333  10.156   9.520 -0.3916 -0.3461 -0.6138
  291MOL0     C39159   6.240  10.160   9.625 -0.4531  0.9187  0.2695
  291MOL0     C39160   6.195  10.013   9.644 -0.7857  0.7481  1.0873
  291MOL0     C39161   6.064  10.017   9.720  0.3608  0.1379 -0.7103
  291MOL0     C39162   5.944  10.046   9.636  0.0605 -0.3603  0.8472
  291MOL0     C39163   5.825  10.068   9.711  0.1704  0.1870  0.0036
  291MOL0     C39164   5.702  10.109   9.635 -0.1921 -0.9850 -0.4707
  291MOL0     C39165   5.572  10.086   9.711 -0.4635  0.3206  0.0198
  291MOL0     C39166   5.447  10.095   9.617  0.1969 -0.1015 -0.3778
  291MOL0     N39167   5.434   9.998   9.514  0.4156 -0.2888 -0.1258
  291MOL0     C39168   5.362   9.883   9.524  0.2787  0.7700  0.4700
  291MOL0     C39169   5.339   9.845   9.392  0.5630 -0.1130 -0.2522
  291MOL0     C39170   5.252   9.730   9.355  0.6627 -0.4632 -0.5147
  291MOL0     C39171   5.150   9.760   9.238 -0.4052  0.0832 -0.6357
  291MOL0     C39172   5.051   9.642   9.241 -0.1990  0.3032  0.2146
  291MOL0     C39173   4.965   9.668   9.122 -0.1355 -0.1934  0.4911
  291MOL0     O39174   4.879   9.553   9.126 -0.1410 -0.4733 -0.1609
  291MOL0     C39175   4.826   9.504   9.002 -0.2479 -0.3236  0.0616
  291MOL0     C39176   4.851   9.566   8.878 -0.6262  0.9139  0.1848
  291MOL0     C39177   4.791   9.518   8.760  0.4399  0.1315  0.8712
  291MOL0     C39178   4.838   9.581   8.633 -0.2465  0.8502 -0.6214
  291MOL0     C39179   4.692   9.415   8.755  0.2918 -0.0480 -0.7066
  291MOL0     C39180   4.618   9.363   8.635 -0.5644 -0.8245  0.2873
  291MOL0     O39181   4.594   9.443   8.521  0.8669 -0.9917  0.0343
  291MOL0     C39182   4.505   9.400   8.420 -0.5240 -0.1350 -0.1053
  291MOL0     C39183   4.556   9.401   8.289 -0.0831  0.1324 -0.5131
  291MOL0     C39184   4.468   9.358   8.193 -0.0162 -0.2480  0.1810
  291MOL0     C39185   4.333   9.327   8.212 -0.0222  0.0725 -0.4583
  291MOL0     O39186   4.250   9.286   8.114  0.3380  0.8097 -0.2972
  291MOL0     C39187   4.119   9.338   8.115 -0.1377 -0.1110 -0.6527
  291MOL0     C39188   4.064   9.343   7.973  0.1548  0.4260 -0.5555
  291MOL0     C39189   3.916   9.381   7.962  1.2009 -0.6140 -0.4584
  291MOL0     C39190   3.879   9.508   8.042 -0.4946  0.4794  0.4474
  291MOL0     C39191   3.730   9.522   8.066  0.6188  0.4070  0.3547
  291MOL0     C39192   3.649   9.574   7.937 -1.3325  0.1523 -1.0741
  291MOL0     C39193   3.504   9.602   7.960 -0.7306  0.6766  0.4183
  291MOL0     C39194   3.427   9.705   7.871 -1.4887  0.2776  0.0782
  291MOL0    Cl39195   3.250   9.711   7.932 -0.0146  0.4013 -0.2336
  291MOL0     C39196   4.288   9.332   8.342  0.0057 -0.0806  0.2508
  291MOL0     C39197   4.379   9.358   8.446  0.5269 -0.6541 -0.1901
  291MOL0     O39198   4.573   9.251   8.645  0.0179 -0.3091 -0.1240
  291MOL0     C39199   4.680   9.356   8.886  0.5264  0.3123 -0.2892
  291MOL0     C39200   4.746   9.400   9.003 -0.0290  0.0731  0.2074
  291MOL0     N39201   5.391   9.952   9.317  0.0257  0.3052  0.6853
  291MOL0     N39202   5.447  10.040   9.388  0.3656  0.0948 -0.3157
  291MOL0     C39203   6.372  10.407   9.553 -0.5529  0.4241 -0.2188
  291MOL0     C39204   6.455  10.512   9.534 -0.1802  0.5217 -0.3175
  291MOL0     C39205   6.868  10.737   9.453 -0.1578 -1.2655  0.1007
  291MOL0     C39206   6.807  10.858   9.411 -0.1849 -0.0439  0.9713
  291MOL0     C39207   6.878  10.976   9.399  0.8366  0.1915  0.2797
  291MOL0     C39208   7.015  10.975   9.440  0.3758 -0.4713  0.1400
  291MOL0     O39209   7.099  11.078   9.404  0.6176 -0.0538  0.1894
  291MOL0     C39210   7.183  11.058   9.287  0.2210 -0.0238 -1.1153
  291MOL0     C39211   7.085  11.051   9.171 -0.0498 -0.3235  0.1703
  291MOL0     C39212   7.156  11.085   9.038  0.2061 -0.0433 -0.4277
  291MOL0     C39213   7.229  10.954   8.993 -0.9313 -0.4689  0.4302
  291MOL0     C39214   7.312  10.982   8.871  0.0670  0.3415 -1.3228
  291MOL0     C39215   7.379  11.005   8.771 -0.0871  0.4368  0.0910
  291MOL0     C39216   7.073  10.860   9.483  0.6030  0.2285 -1.3223
  291MOL0     C39217   6.999  10.740   9.492 -0.1798  0.2617  0.1811
  291MOL0     H39218   6.684  10.391   9.327  0.8092 -0.3714  1.0059
  291MOL0     H39219   6.558  10.176   9.373  1.4438  1.8335 -2.0586
  291MOL0     H39220   6.294  10.192   9.714  0.5343  0.4520 -0.1519
  291MOL0     H39221   6.158  10.228   9.598 -0.0163  1.2444 -0.2662
  291MOL0     H39222   6.186   9.954   9.552 -0.7673  2.2665  0.0673
  291MOL0     H39223   6.283   9.964   9.689  0.8625 -0.4648 -2.9435
  291MOL0     H39224   6.054   9.926   9.780  1.5325 -2.4608 -4.1530
  291MOL0     H39225   6.076  10.093   9.798 -0.5286 -2.9937  2.7802
  291MOL0     H39226   5.954  10.134   9.571 -1.0261 -1.5501 -1.0270
  291MOL0     H39227   5.925   9.956   9.577  1.9053  1.6071 -3.2009
  291MOL0     H39228   5.812   9.978   9.772  1.5846  0.3446  0.5802
  291MOL0     H39229   5.846  10.137   9.794  0.7516 -0.4761  0.4138
  291MOL0     H39230   5.713  10.215   9.611 -2.3357 -0.2343  1.4731
  291MOL0     H39231   5.704  10.056   9.539  2.0875  0.4910 -1.3286
  291MOL0     H39232   5.587   9.990   9.761  1.3577  1.4762  1.8357
  291MOL0     H39233   5.554  10.161   9.789  1.5036 -0.5763  1.4026
  291MOL0     H39234   5.455  10.194   9.569 -2.0425  0.4655  0.3037
  291MOL0     H39235   5.361  10.091   9.684  2.8367  0.0747  3.3127
  291MOL0     H39236   5.312   9.842   9.612 -2.5681  1.4070 -0.7231
  291MOL0     H39237   5.316   9.650   9.318  0.4921 -0.8136 -0.0605
  291MOL0     H39238   5.197   9.690   9.441  2.9812 -1.7385  0.4584
  291MOL0     H39239   5.203   9.776   9.144 -1.5150  1.4096 -1.0671
  291MOL0     H39240   5.087   9.846   9.263 -0.6357 -0.3192  0.2056
  291MOL0     H39241   4.989   9.644   9.331 -3.0589  0.9701 -1.6372
  291MOL0     H39242   5.110   9.550   9.235  2.5053  1.7610  2.2460
  291MOL0     H39243   5.037   9.665   9.040  0.0950 -0.4179  0.7000
  291MOL0     H39244   4.905   9.759   9.127 -0.4523 -0.4272  1.0008
  291MOL0     H39245   4.924   9.647   8.870 -0.4748  0.6143 -1.8061
  291MOL0     H39246   4.939   9.620   8.649  0.4471 -0.8894 -0.5704
  291MOL0     H39247   4.846   9.516   8.546  2.2803  0.7925 -0.4307
  291MOL0     H39248   4.780   9.672   8.614  0.7739  1.6829  0.1401
  291MOL0     H39249   4.655   9.437   8.264 -0.2878  3.0124  2.2938
  291MOL0     H39250   4.505   9.364   8.092 -0.5965  0.0918 -0.0188
  291MOL0     H39251   4.060   9.284   8.189 -0.8313  2.4139  0.7630
  291MOL0     H39252   4.127   9.440   8.154 -0.3142 -1.6123  3.8429
  291MOL0     H39253   4.121   9.420   7.922  0.5844  0.2929 -0.2790
  291MOL0     H39254   4.072   9.252   7.913 -0.3484  1.6668 -2.5973
  291MOL0     H39255   3.857   9.298   8.004  2.1308 -0.4236  1.3411
  291MOL0     H39256   3.884   9.402   7.860 -2.0761  4.2291  1.1871
  291MOL0     H39257   3.919   9.496   8.143  1.3997  1.2212 -0.1672
  291MOL0     H39258   3.923   9.593   7.988 -1.8854 -0.1841 -1.9048
  291MOL0     H39259   3.722   9.604   8.139  2.1050  2.3130 -1.5109
  291MOL0     H39260   3.686   9.433   8.113  2.1133 -1.1759 -1.1332
  291MOL0     H39261   3.705   9.664   7.911 -1.5053  0.4249 -0.5148
  291MOL0     H39262   3.666   9.498   7.860 -0.0475 -0.7934  0.0910
  291MOL0     H39263   3.503   9.644   8.061  1.9917  1.7296  0.1111
  291MOL0     H39264   3.446   9.510   7.952  0.7100 -0.5434  2.7239
  291MOL0     H39265   3.439   9.681   7.765  0.0328  4.3041 -0.8416
  291MOL0     H39266   3.461   9.808   7.883  0.2172 -0.4309  1.9337
  291MOL0     H39267   4.195   9.281   8.367  1.2771 -2.8808 -0.3049
  291MOL0     H39268   4.355   9.339   8.550 -0.9169  0.7864 -0.2214
  291MOL0     H39269   4.619   9.268   8.902  3.1666 -1.5050  0.4147
  291MOL0     H39270   4.721   9.345   9.093  0.9004 -0.4779  0.1335
  291MOL0     H39271   6.296  10.425   9.629  0.8940  2.5212  0.8256
  291MOL0     H39272   6.415  10.595   9.591 -1.2501 -0.5980  0.6230
  291MOL0     H39273   6.707  10.868   9.371 -0.2742  2.1426  1.5803
  291MOL0     H39274   6.823  11.053   9.346  0.6647  0.1721  0.4303
  291MOL0     H39275   7.252  11.143   9.286 -0.4514  0.5344 -0.8923
  291MOL0     H39276   7.236  10.962   9.291 -1.2292 -0.8208  0.0301
  291MOL0     H39277   6.999  11.116   9.187 -0.6967 -1.1028 -0.1088
  291MOL0     H39278   7.039  10.952   9.172 -0.8877 -0.0342  3.4608
  291MOL0     H39279   7.224  11.170   9.052  0.4192  0.0303 -1.7741
  291MOL0     H39280   7.085  11.118   8.961  0.6478 -0.3110 -0.9631
  291MOL0     H39281   7.148  10.890   8.957  1.5407 -1.6635 -3.7822
  291MOL0     H39282   7.287  10.906   9.073  4.2839  2.2827 -1.2545
  291MOL0     H39283   7.428  11.021   8.677 -0.8942  2.2254 -0.0575
  291MOL0     H39284   7.176  10.874   9.515 -0.1957  1.5139  0.8764
  291MOL0     H39285   7.046  10.659   9.547  0.7822  1.8146  1.7207
  292MOL0     O39286   1.295   1.878   4.138  0.8231 -0.2372 -0.3710
  292MOL0     C39287   1.322   1.758   4.149  0.8455 -0.2946  0.5880
  292MOL0     O39288   1.287   1.666   4.056  0.0440  0.7090 -0.5675
  292MOL0     C39289   1.211   1.698   3.947 -0.5475 -0.4912  0.2696
  292MOL0     C39290   1.266   1.765   3.834  0.3975  0.9797 -0.1840
  292MOL0     C39291   1.184   1.790   3.719 -0.6479  0.1184 -0.4711
  292MOL0     C39292   1.053   1.738   3.717  0.7862 -0.5944  0.1428
  292MOL0     O39293   0.969   1.788   3.617  0.2874 -0.2078 -0.3074
  292MOL0     C39294   0.854   1.713   3.579  1.0532  0.8815  0.1902
  292MOL0     C39295   0.771   1.773   3.459 -0.6153 -0.1157 -0.0387
  292MOL0     C39296   0.630   1.710   3.427  0.8063 -0.3399 -0.1987
  292MOL0     C39297   0.570   1.760   3.293 -0.3331  0.9688  0.0214
  292MOL0     C39298   0.532   1.909   3.312 -0.0889  0.1961  0.3089
  292MOL0     C39299   0.486   1.967   3.176  0.4108  0.0338 -0.0737
  292MOL0     C39300   0.479   2.121   3.192  0.6116 -0.0325 -0.5610
  292MOL0     C39301   0.458   2.178   3.055  0.8092  0.4267 -0.0017
  292MOL0     N39302   0.318   2.154   3.011 -0.7537 -0.0214  0.5712
  292MOL0     C39303   0.206   2.212   3.053  0.3006  0.2062 -0.0121
  292MOL0     C39304   0.102   2.143   3.001  0.7028 -0.3003  0.9785
  292MOL0     C39305  -0.041   2.169   3.033 -0.5452 -0.1788 -0.7638
  292MOL0     C39306  -0.113   2.241   2.916 -0.6847 -0.6401 -0.5038
  292MOL0     C39307  -0.117   2.393   2.918 -0.0431 -0.7344  0.5148
  292MOL0     C39308   0.004   2.468   2.872 -0.5355  1.4198  0.3454
  292MOL0     O39309   0.079   2.489   2.989  0.2854 -0.9746 -0.0842
  292MOL0     C39310   0.193   2.572   2.978 -0.3222  0.2982  0.1711
  292MOL0     C39311   0.254   2.584   3.104  1.0472 -0.1865 -0.6707
  292MOL0     C39312   0.381   2.636   3.110 -0.7460  0.2938  0.2019
  292MOL0     C39313   0.447   2.617   3.239 -0.6748  0.4331  0.2824
  292MOL0     C39314   0.445   2.688   2.990 -0.0924  0.1935  0.0343
  292MOL0     C39315   0.577   2.753   2.986  0.4478  0.9376  1.0646
  292MOL0     O39316   0.619   2.788   2.864  0.0884  0.0247  0.0189
  292MOL0     C39317   0.742   2.841   2.855 -0.8491 -0.1567  0.2744
  292MOL0     C39318   0.761   2.972   2.908 -0.2827 -0.0041  0.3302
  292MOL0     C39319   0.888   3.028   2.910 -0.9468 -0.7080  0.9727
  292MOL0     C39320   1.004   2.962   2.867 -0.5662 -0.3276 -0.2576
  292MOL0     O39321   1.126   3.029   2.881 -0.5695 -0.0453 -0.3491
  292MOL0     C39322   1.251   2.974   2.834 -0.1792  1.1510 -0.8809
  292MOL0     C39323   1.361   3.074   2.791  0.7748 -0.1284  0.0342
  292MOL0     C39324   1.391   3.171   2.898 -0.3723  0.4036  0.0623
  292MOL0     C39325   1.516   3.256   2.872 -1.3058 -0.2141  0.3876
  292MOL0     C39326   1.507   3.404   2.822 -0.0477  0.1380 -0.9069
  292MOL0     C39327   1.645   3.469   2.825  0.8780 -0.2430 -0.0657
  292MOL0     C39328   1.612   3.620   2.810 -1.1130  0.4131  0.4936
  292MOL0     C39329   1.731   3.707   2.762 -0.0523  0.4989 -0.0266
  292MOL0    Cl39330   1.670   3.861   2.692 -0.2387  0.4783 -0.3308
  292MOL0     C39331   0.978   2.833   2.808 -0.1375  0.7255 -0.2454
  292MOL0     C39332   0.851   2.768   2.813  1.1266 -0.4971 -0.7042
  292MOL0     O39333   0.632   2.776   3.089 -1.1440 -0.6550 -0.1030
  292MOL0     C39334   0.380   2.686   2.869  0.1532 -0.2650 -0.0212
  292MOL0     C39335   0.249   2.625   2.858 -0.2628 -0.2231 -0.0467
  292MOL0     N39336   0.153   2.029   2.933  0.2608  0.6916  0.0868
  292MOL0     N39337   0.285   2.036   2.948  0.3998  0.3895  0.4571
  292MOL0     C39338   1.005   1.656   3.826  0.1643  0.1662 -0.3751
  292MOL0     C39339   1.082   1.633   3.936  0.9501 -0.8874  0.3971
  292MOL0     C39340   1.394   1.708   4.269  0.2290  0.0549 -1.0254
  292MOL0     C39341   1.444   1.583   4.276  0.8798  0.7097  0.2104
  292MOL0     C39342   1.515   1.539   4.385  0.9058  0.1877  0.6379
  292MOL0     C39343   1.540   1.622   4.502  0.1964 -0.3627  0.5324
  292MOL0     O39344   1.618   1.593   4.620  0.0279  0.3854 -0.5012
  292MOL0     C39345   1.648   1.457   4.639  0.5843  0.5649  0.7399
  292MOL0     C39346   1.738   1.424   4.753 -0.1084  0.7521  0.9307
  292MOL0     C39347   1.740   1.269   4.789  0.5979  0.7265 -0.2276
  292MOL0     C39348   1.855   1.222   4.874  0.8208 -0.2231  1.3044
  292MOL0     C39349   1.970   1.231   4.778 -0.0996 -0.3781  0.4167
  292MOL0     C39350   2.059   1.249   4.697 -0.0949 -0.1950 -0.2016
  292MOL0     C39351   1.483   1.753   4.491 -0.2302  0.5968 -0.8470
  292MOL0     C39352   1.413   1.797   4.375 -0.9466 -0.0799 -0.9513
  292MOL0     H39353   1.368   1.802   3.839  0.3711  0.9728  0.5055
  292MOL0     H39354   1.220   1.845   3.633 -1.1071 -0.0225 -0.7555
  292MOL0     H39355   0.892   1.614   3.553  0.8771  0.2067  2.3591
  292MOL0     H39356   0.785   1.711   3.664 -1.4139  2.9393 -1.5719
  292MOL0     H39357   0.746   1.877   3.480  2.1084  0.6572 -0.2100
  292MOL0     H39358   0.838   1.778   3.373 -0.6104  0.4663 -0.0046
  292MOL0     H39359   0.642   1.603   3.447  0.4345 -0.0989  1.5162
  292MOL0     H39360   0.552   1.742   3.496 -2.1073  1.1568 -3.8357
  292MOL0     H39361   0.647   1.743   3.217 -1.8852 -3.6161 -0.8355
  292MOL0     H39362   0.487   1.697   3.258 -1.3973  0.9043  2.4379
  292MOL0     H39363   0.452   1.924   3.385 -0.9698 -1.1196 -0.3433
  292MOL0     H39364   0.626   1.957   3.341 -0.5219  0.0921  1.9964
  292MOL0     H39365   0.555   1.947   3.094  0.6674  1.8922 -0.3581
  292MOL0     H39366   0.393   1.911   3.161  0.5965 -0.1744 -0.4587
  292MOL0     H39367   0.399   2.137   3.265  1.3132  2.4725 -0.2635
  292MOL0     H39368   0.570   2.163   3.236 -1.0895  2.5592  0.7131
  292MOL0     H39369   0.525   2.137   2.979  0.3676 -0.6818  0.2015
  292MOL0     H39370   0.467   2.286   3.070  0.6635  0.4923 -0.3762
  292MOL0     H39371   0.203   2.305   3.109  1.7443  0.4929 -0.3713
  292MOL0     H39372  -0.081   2.068   3.045  2.4319 -1.6520 -2.0424
  292MOL0     H39373  -0.048   2.224   3.127  1.1268 -1.4543  0.1475
  292MOL0     H39374  -0.215   2.202   2.921  0.0674 -2.5913  3.4692
  292MOL0     H39375  -0.076   2.202   2.821 -1.9466 -0.7376 -0.9845
  292MOL0     H39376  -0.140   2.436   3.016  0.5453 -1.2679  0.8933
  292MOL0     H39377  -0.199   2.415   2.850  0.4521  1.3205  0.4935
  292MOL0     H39378  -0.022   2.561   2.820 -0.2527 -0.6722 -3.9535
  292MOL0     H39379   0.069   2.416   2.802 -3.3671  1.1486 -2.3131
  292MOL0     H39380   0.211   2.548   3.197  2.1270  1.7862  0.6536
  292MOL0     H39381   0.400   2.546   3.306  1.5278 -2.4611 -1.0240
  292MOL0     H39382   0.541   2.567   3.214 -1.2335  1.6608 -5.8463
  292MOL0     H39383   0.474   2.711   3.288  0.7742 -0.0636  0.5091
  292MOL0     H39384   0.680   3.041   2.927 -1.8865 -1.7906  0.3122
  292MOL0     H39385   0.893   3.127   2.956 -2.7793  0.0571 -0.3683
  292MOL0     H39386   1.285   2.903   2.911  2.3423  2.7616 -0.3953
  292MOL0     H39387   1.224   2.913   2.746 -1.2663  1.9364 -1.1125
  292MOL0     H39388   1.444   3.013   2.757 -0.2807 -1.5042 -0.1418
  292MOL0     H39389   1.332   3.131   2.702  3.1124 -0.3549 -0.9320
  292MOL0     H39390   1.380   3.131   2.999  0.9633  0.9767  0.4598
  292MOL0     H39391   1.306   3.239   2.908  0.8266  1.7457  1.7305
  292MOL0     H39392   1.565   3.260   2.970 -0.4728  1.8024 -0.0826
  292MOL0     H39393   1.586   3.210   2.801  0.2648  5.8687 -2.6433
  292MOL0     H39394   1.442   3.461   2.888 -1.1208 -0.8807 -1.0632
  292MOL0     H39395   1.462   3.396   2.722 -2.5423 -4.5939  0.3063
  292MOL0     H39396   1.698   3.447   2.918 -2.7781 -3.0226  1.5861
  292MOL0     H39397   1.705   3.431   2.741  0.0722  0.6611 -1.0941
  292MOL0     H39398   1.572   3.668   2.900  1.8853 -0.5921  2.5234
  292MOL0     H39399   1.541   3.638   2.729  3.3207  2.3633 -3.4329
  292MOL0     H39400   1.788   3.656   2.684 -1.7859 -0.4988 -0.6995
  292MOL0     H39401   1.793   3.727   2.850  5.0689 -3.9351 -2.0752
  292MOL0     H39402   1.072   2.783   2.788  1.1782  1.0602  3.9865
  292MOL0     H39403   0.843   2.663   2.790  0.0655 -0.7694  0.7758
  292MOL0     H39404   0.406   2.736   2.776 -1.8337 -0.6630 -0.8523
  292MOL0     H39405   0.202   2.625   2.761  0.1124  3.9370 -0.4024
  292MOL0     H39406   0.911   1.604   3.809 -0.7193  1.0279  1.4958
  292MOL0     H39407   1.059   1.560   4.013  1.8067  1.2734  2.8654
  292MOL0     H39408   1.425   1.515   4.194 -1.5706  1.8796 -0.3088
  292MOL0     H39409   1.563   1.442   4.379 -0.9072 -0.6554 -1.9679
  292MOL0     H39410   1.549   1.414   4.657 -0.9330  4.2660  2.3248
  292MOL0     H39411   1.691   1.406   4.552 -1.8829  0.1474 -0.3429
  292MOL0     H39412   1.705   1.481   4.840 -3.7367  3.7183 -2.0592
  292MOL0     H39413   1.842   1.453   4.735  0.0748  0.1225  0.9638
  292MOL0     H39414   1.729   1.200   4.705 -1.1841 -1.2245  1.4587
  292MOL0     H39415   1.653   1.244   4.851 -0.3273 -1.3987 -2.2208
  292MOL0     H39416   1.849   1.120   4.912 -3.2491  0.0310  1.7976
  292MOL0     H39417   1.873   1.294   4.954 -0.7264  2.0392 -0.2405
  292MOL0     H39418   2.147   1.267   4.638  0.1164 -1.2083 -0.2031
  292MOL0     H39419   1.488   1.829   4.569 -1.5627 -1.2629  1.1667
  292MOL0     H39420   1.380   1.900   4.369  0.2579  0.3358 -0.7242
  293MOL0     O39421   7.167   3.403   9.346 -0.2397 -0.2140  0.3321
  293MOL0     C39422   7.111   3.460   9.254  0.1919  0.0395  0.6592
  293MOL0     O39423   7.168   3.492   9.136  0.8046  0.1185  0.2592
  293MOL0     C39424   7.294   3.442   9.112  0.0626  0.7444 -0.4458
  293MOL0     C39425   7.403   3.504   9.169 -0.9013 -0.1920 -0.3792
  293MOL0     C39426   7.534   3.463   9.143 -0.1288 -0.1037 -0.6272
  293MOL0     C39427   7.563   3.353   9.061 -0.3613 -0.6438 -0.6883
  293MOL0     O39428   7.686   3.295   9.054  0.2970 -0.6611 -0.4006
  293MOL0     C39429   7.799   3.372   9.103 -1.0352  0.3253  0.3435
  293MOL0     C39430   7.813   3.359   9.255 -0.3899  0.0026 -1.3919
  293MOL0     C39431   7.950   3.410   9.304  1.0557  0.1537  0.0667
  293MOL0     C39432   8.065   3.320   9.263 -0.3277  0.4032 -0.2492
  293MOL0     C39433   8.190   3.352   9.329 -0.1230  0.3601  0.1936
  293MOL0     C39434   8.285   3.228   9.308 -0.3212  0.4788  0.4297
  293MOL0     C39435   8.431   3.262   9.339  0.8917  0.5545  0.9543
  293MOL0     C39436   8.531   3.170   9.276  0.3400 -0.1472  0.1935
  293MOL0     N39437   8.513   3.028   9.313 -0.2122 -0.3386  0.0950
  293MOL0     C39438   8.509   2.977   9.437  1.1804 -0.2066 -0.5220
  293MOL0     C39439   8.487   2.839   9.419 -0.2108 -0.8734 -0.1466
  293MOL0     C39440   8.479   2.736   9.534  0.4325  0.2097 -0.8810
  293MOL0     C39441   8.330   2.677   9.524 -0.3592  1.0163 -0.2445
  293MOL0     C39442   8.214   2.774   9.549  0.8095 -0.4653 -0.0276
  293MOL0     C39443   8.086   2.700   9.588 -0.3662 -0.0829  0.5345
  293MOL0     O39444   8.108   2.640   9.712 -0.2973  0.2022  0.0177
  293MOL0     C39445   8.001   2.571   9.765 -0.3073  0.0588  0.7815
  293MOL0     C39446   7.860   2.588   9.748 -0.2281  0.0936  0.1422
  293MOL0     C39447   7.757   2.504   9.789 -0.9593 -0.0303 -0.4194
  293MOL0     C39448   7.615   2.545   9.774 -0.9638  0.7855 -0.6304
  293MOL0     C39449   7.806   2.389   9.855 -0.4539  0.7970 -0.1237
  293MOL0     C39450   7.712   2.292   9.927  0.0587  0.4768 -0.1010
  293MOL0     O39451   7.602   2.354   9.973  0.1294  0.3181  0.4350
  293MOL0     C39452   7.530   2.301  10.081  0.6607  0.0560 -0.4619
  293MOL0     C39453   7.401   2.263  10.069 -0.4400  0.4899  0.6794
  293MOL0     C39454   7.327   2.212  10.173  0.3315 -0.2130 -0.4179
  293MOL0     C39455   7.381   2.192  10.301  0.5315  0.3931 -0.0579
  293MOL0     O39456   7.313   2.148  10.401  0.6367 -0.4730  0.2424
  293MOL0     C39457   7.171   2.109  10.406  0.3407 -0.3974 -0.0713
  293MOL0     C39458   7.138   2.053  10.545 -0.4590 -0.5165  0.4720
  293MOL0     C39459   6.989   2.087  10.577 -0.4298 -0.8043  0.2310
  293MOL0     C39460   6.939   1.990  10.685 -0.4873  0.0640  1.9429
  293MOL0     C39461   6.799   2.020  10.735 -0.7736 -0.2907 -0.0587
  293MOL0     C39462   6.724   1.896  10.777  0.7909 -0.0190 -0.1137
  293MOL0     C39463   6.789   1.793  10.869 -0.7087 -0.2444  0.9192
  293MOL0     C39464   6.689   1.704  10.948  0.0111  0.0249  0.3657
  293MOL0    Cl39465   6.570   1.617  10.833  0.9623  0.1194 -0.2645
  293MOL0     C39466   7.518   2.216  10.319  0.1287 -1.2497  1.0420
  293MOL0     C39467   7.585   2.273  10.205 -0.0156  0.1810  0.2692
  293MOL0     O39468   7.758   2.185   9.966 -0.2752 -0.1114 -1.0248
  293MOL0     C39469   7.945   2.353   9.864 -0.3626 -0.4355 -0.2366
  293MOL0     C39470   8.041   2.447   9.822 -0.6738  1.1176  1.1729
  293MOL0     N39471   8.485   2.810   9.286  0.8232  0.8108  0.1710
  293MOL0     N39472   8.501   2.926   9.229 -0.2538 -0.2042 -0.1626
  293MOL0     C39473   7.453   3.288   9.001 -0.4284  0.0585  0.5325
  293MOL0     C39474   7.320   3.332   9.021  0.0800  0.0863 -1.0719
  293MOL0     C39475   6.966   3.498   9.288 -0.2877  1.3529  0.5798
  293MOL0     C39476   6.897   3.567   9.197 -0.8585  0.4163  0.0164
  293MOL0     C39477   6.764   3.607   9.211 -0.4315  0.1752 -0.4735
  293MOL0     C39478   6.706   3.576   9.336  0.6036  0.4198 -0.5931
  293MOL0     O39479   6.582   3.618   9.368 -0.8077  0.6963 -0.7129
  293MOL0     C39480   6.477   3.572   9.284  0.0327 -0.5627  0.3725
  293MOL0     C39481   6.360   3.667   9.289  0.9608  0.3370  0.2793
  293MOL0     C39482   6.259   3.644   9.179 -1.0042 -1.0067 -0.0477
  293MOL0     C39483   6.267   3.756   9.069 -0.3750  0.2938 -0.6427
  293MOL0     C39484   6.388   3.755   8.997  0.0393 -0.0534  0.5616
  293MOL0     C39485   6.502   3.756   8.956 -0.3053  0.9738  0.4514
  293MOL0     C39486   6.782   3.508   9.431 -0.0892  0.6997 -0.3234
  293MOL0     C39487   6.907   3.466   9.413 -0.3605 -0.5228  0.4234
  293MOL0     H39488   7.377   3.599   9.215  1.9760  0.9628 -0.9689
  293MOL0     H39489   7.610   3.524   9.192 -0.2566 -1.7714  1.8002
  293MOL0     H39490   7.891   3.339   9.053 -2.7145 -3.3141 -0.7204
  293MOL0     H39491   7.790   3.479   9.081  2.5280  0.6228 -0.3345
  293MOL0     H39492   7.737   3.421   9.302 -2.0853 -2.8655 -0.1426
  293MOL0     H39493   7.802   3.259   9.299 -0.1285  0.6292  0.1727
  293MOL0     H39494   7.957   3.508   9.255  0.8994 -0.8849 -2.1600
  293MOL0     H39495   7.942   3.426   9.412 -0.8118  1.6224 -0.2360
  293MOL0     H39496   8.040   3.214   9.274  2.6165 -0.2828  0.6501
  293MOL0     H39497   8.079   3.332   9.155  0.2423 -0.4115 -0.2705
  293MOL0     H39498   8.231   3.449   9.301  2.2937 -0.4935  0.5351
  293MOL0     H39499   8.179   3.357   9.438  0.5682 -0.1396  0.2917
  293MOL0     H39500   8.251   3.142   9.366  2.1465  0.4230  1.9378
  293MOL0     H39501   8.276   3.202   9.202  1.1389 -1.2377  0.6752
  293MOL0     H39502   8.447   3.366   9.309 -0.7266  0.4372 -0.4740
  293MOL0     H39503   8.444   3.256   9.447 -1.2621  0.7146  1.2687
  293MOL0     H39504   8.637   3.200   9.282 -0.3722  3.0592 -1.0894
  293MOL0     H39505   8.503   3.174   9.170  0.4674 -2.9410 -0.0041
  293MOL0     H39506   8.521   3.030   9.531  0.0274 -1.7704  0.5645
  293MOL0     H39507   8.550   2.654   9.521 -0.4438 -1.2573  2.4350
  293MOL0     H39508   8.496   2.782   9.632  2.2065 -0.0134 -1.0507
  293MOL0     H39509   8.332   2.598   9.600 -0.2355 -0.7254 -1.9463
  293MOL0     H39510   8.317   2.625   9.428  4.3198 -0.7977 -0.1774
  293MOL0     H39511   8.205   2.847   9.468 -1.3601  0.1125  0.6698
  293MOL0     H39512   8.232   2.828   9.643 -2.1011 -1.0753  0.9735
  293MOL0     H39513   8.049   2.631   9.511  0.5773 -2.3949  2.0339
  293MOL0     H39514   8.016   2.784   9.594  2.2171  2.3003 -0.5792
  293MOL0     H39515   7.821   2.667   9.685 -1.3057  1.2493  2.1764
  293MOL0     H39516   7.570   2.568   9.871 -1.5368 -0.3147 -0.6190
  293MOL0     H39517   7.610   2.630   9.706  1.3377  0.0556 -1.8124
  293MOL0     H39518   7.555   2.457   9.747 -1.2763  0.3935  1.1742
  293MOL0     H39519   7.346   2.288   9.979  0.0030 -0.7599  0.0466
  293MOL0     H39520   7.225   2.179  10.152  0.7379 -1.0924 -1.0933
  293MOL0     H39521   7.116   2.199  10.377  1.1361 -0.1392 -0.7937
  293MOL0     H39522   7.142   2.040  10.325  1.2250  0.2777 -0.9824
  293MOL0     H39523   7.159   1.946  10.543 -2.1666 -0.8778 -0.4694
  293MOL0     H39524   7.206   2.104  10.613  2.4793 -2.0014 -1.1631
  293MOL0     H39525   6.923   2.092  10.490 -2.7630  1.5927  1.9456
  293MOL0     H39526   6.989   2.189  10.617  0.9641 -0.4996 -0.5061
  293MOL0     H39527   6.952   1.890  10.642  1.3659  0.1665  2.1911
  293MOL0     H39528   7.016   2.002  10.762 -0.7982 -0.5597  2.3556
  293MOL0     H39529   6.738   2.073  10.662 -0.5390  0.0700 -0.0005
  293MOL0     H39530   6.799   2.074  10.831 -2.5524  0.8887 -0.6776
  293MOL0     H39531   6.635   1.934  10.827  1.1357 -1.4408  1.6779
  293MOL0     H39532   6.682   1.843  10.692 -1.5239  1.4812 -0.0023
  293MOL0     H39533   6.846   1.846  10.946 -0.1160 -0.9875  1.0004
  293MOL0     H39534   6.864   1.738  10.813  1.3642  0.5101  2.8004
  293MOL0     H39535   6.635   1.778  11.008 -2.3539  1.5080 -3.2205
  293MOL0     H39536   6.747   1.632  11.007 -1.5296 -1.7292 -0.1490
  293MOL0     H39537   7.565   2.185  10.411 -0.3567  0.3989  1.8951
  293MOL0     H39538   7.692   2.288  10.217 -0.2284 -0.0449  3.0245
  293MOL0     H39539   7.974   2.262   9.915  2.6110 -0.7857 -2.3221
  293MOL0     H39540   8.148   2.434   9.821 -0.5736  1.7759  1.8931
  293MOL0     H39541   7.473   3.205   8.934  1.8708  1.0834 -0.1304
  293MOL0     H39542   7.230   3.294   8.974 -0.6970  0.2268  0.2638
  293MOL0     H39543   6.946   3.589   9.103 -0.4877  0.1386  0.1429
  293MOL0     H39544   6.714   3.670   9.139  0.4348  3.1294  1.3315
  293MOL0     H39545   6.525   3.562   9.187  2.4963 -2.8108  1.6783
  293MOL0     H39546   6.434   3.478   9.321 -0.2002 -0.8005 -0.4846
  293MOL0     H39547   6.387   3.773   9.281  1.2749  0.2352 -0.0191
  293MOL0     H39548   6.310   3.657   9.385 -0.1154 -0.5215 -0.3498
  293MOL0     H39549   6.154   3.653   9.210 -1.2595  3.1663 -1.5223
  293MOL0     H39550   6.274   3.549   9.126  0.2770 -0.4795 -0.6687
  293MOL0     H39551   6.250   3.856   9.109  1.9464  1.2898 -1.9373
  293MOL0     H39552   6.191   3.738   8.993  0.5646 -2.0723 -1.1258
  293MOL0     H39553   6.593   3.781   8.906 -0.1426  3.3817  1.7891
  293MOL0     H39554   6.733   3.479   9.524 -3.9576 -0.6334 -2.5534
  293MOL0     H39555   6.963   3.406   9.483  2.1100  0.5889 -0.4935
  294MOL0     O39556  10.623   5.992   6.264  0.0136  0.2889 -0.2576
  294MOL0     C39557  10.688   5.974   6.367  0.0089 -0.3067  0.0202
  294MOL0     O39558  10.826   5.977   6.373 -0.3534  0.6177 -0.0821
  294MOL0     C39559  10.907   5.929   6.273  0.3374  0.3427 -0.0834
  294MOL0     C39560  10.870   5.830   6.183  0.1647  0.2790  0.3690
  294MOL0     C39561  10.969   5.788   6.092  0.7756 -0.3101  0.4353
  294MOL0     C39562  11.096   5.828   6.093 -0.2661  0.1217  0.5144
  294MOL0     O39563  11.176   5.757   6.004  0.3950 -0.6754 -0.1727
  294MOL0     C39564  11.306   5.727   6.039 -0.2588 -0.0566 -0.5530
  294MOL0     C39565  11.376   5.607   5.951  1.1155  0.6310 -0.0126
  294MOL0     C39566  11.354   5.472   6.005 -0.3156 -0.9167 -0.5726
  294MOL0     C39567  11.409   5.366   5.905  0.1256  0.3124 -0.1782
  294MOL0     C39568  11.342   5.234   5.934 -0.7310  0.9019 -0.8426
  294MOL0     C39569  11.416   5.133   5.844  0.3110  0.1041  0.4179
  294MOL0     C39570  11.354   4.995   5.842  0.4682  0.9461  0.6542
  294MOL0     C39571  11.255   4.978   5.724 -0.2889  0.2325 -0.6884
  294MOL0     N39572  11.165   4.868   5.746  0.1979 -0.5475 -0.1772
  294MOL0     C39573  11.038   4.872   5.806  0.5300  0.4793 -0.5793
  294MOL0     C39574  10.999   4.744   5.827  0.4261 -0.3101 -0.9352
  294MOL0     C39575  10.861   4.708   5.875  0.3107  0.0120  0.6574
  294MOL0     C39576  10.762   4.710   5.759 -0.0324 -0.4793 -0.3367
  294MOL0     C39577  10.620   4.646   5.782  0.7288 -0.1243 -0.2172
  294MOL0     C39578  10.529   4.721   5.887  0.3954  0.7969 -0.7860
  294MOL0     O39579  10.390   4.680   5.857  0.6113 -0.3450 -0.6822
  294MOL0     C39580  10.280   4.752   5.913  0.0430 -1.0344 -0.6590
  294MOL0     C39581  10.304   4.849   6.014  0.8131 -0.4275  0.3216
  294MOL0     C39582  10.201   4.922   6.080 -0.2442  0.9278  1.1928
  294MOL0     C39583  10.238   5.016   6.191 -0.0277 -0.0289 -1.1837
  294MOL0     C39584  10.067   4.889   6.047  0.0530 -0.1538  0.2754
  294MOL0     C39585   9.956   4.961   6.115 -0.6708 -0.5454 -0.0722
  294MOL0     O39586   9.957   5.098   6.107 -0.8538 -0.2540 -0.6978
  294MOL0     C39587   9.875   5.186   6.171  0.6798  0.6968  0.0278
  294MOL0     C39588   9.770   5.155   6.257 -0.0482  0.9466 -0.1548
  294MOL0     C39589   9.716   5.257   6.340  0.3864 -0.0361 -0.4339
  294MOL0     C39590   9.748   5.387   6.311  0.4282  0.2155 -0.8877
  294MOL0     O39591   9.683   5.485   6.378 -1.1232  0.1046  1.0370
  294MOL0     C39592   9.550   5.517   6.335 -0.8556 -0.2371 -0.3806
  294MOL0     C39593   9.537   5.668   6.376 -0.1916  0.3712 -0.9134
  294MOL0     C39594   9.392   5.719   6.344 -0.4802 -0.7144  0.2632
  294MOL0     C39595   9.377   5.861   6.399  0.0757  0.0527 -0.8257
  294MOL0     C39596   9.231   5.912   6.388  0.1699 -0.1158  0.9515
  294MOL0     C39597   9.223   6.067   6.422 -0.1644 -0.0111  0.2603
  294MOL0     C39598   9.241   6.080   6.570  0.2372 -0.4365 -0.4496
  294MOL0     C39599   9.256   6.224   6.621 -0.1452 -1.3449 -0.5972
  294MOL0    Cl39600   9.103   6.326   6.571  0.0070  0.2246  0.1384
  294MOL0     C39601   9.828   5.421   6.207 -0.4575 -0.6942  0.2261
  294MOL0     C39602   9.892   5.322   6.142 -0.2475  0.2813  0.3148
  294MOL0     O39603   9.892   4.892   6.191 -0.4483  0.0095  0.0128
  294MOL0     C39604  10.040   4.797   5.948  0.2435  0.2778  0.3644
  294MOL0     C39605  10.145   4.725   5.878  0.5660  1.0755 -0.0523
  294MOL0     N39606  11.102   4.664   5.782  0.2635 -0.3406  0.3438
  294MOL0     N39607  11.192   4.735   5.729 -0.3340 -0.3369 -0.2081
  294MOL0     C39608  11.139   5.929   6.182  1.0242  0.0081  0.2933
  294MOL0     C39609  11.041   5.969   6.272  0.3934 -0.7981 -0.0385
  294MOL0     C39610  10.616   5.961   6.498 -0.2756 -0.1267 -0.1199
  294MOL0     C39611  10.690   5.938   6.613  0.1848 -0.3155 -0.3229
  294MOL0     C39612  10.624   5.945   6.740 -0.6422 -0.0842  0.5142
  294MOL0     C39613  10.486   5.961   6.760  0.3111  0.2330  0.0174
  294MOL0     O39614  10.434   5.961   6.881 -0.4162 -0.1804  0.1962
  294MOL0     C39615  10.320   5.878   6.895 -0.4446 -0.2705  0.3249
  294MOL0     C39616  10.301   5.842   7.040  0.4268  0.0570 -0.9961
  294MOL0     C39617  10.198   5.934   7.109  0.4414  0.6057  1.0285
  294MOL0     C39618  10.143   5.892   7.245 -0.1354  0.3985 -0.0054
  294MOL0     C39619  10.051   5.991   7.293 -0.0470  0.2799  0.2664
  294MOL0     C39620   9.965   6.068   7.318  0.6510  0.3585  0.2343
  294MOL0     C39621  10.418   5.995   6.648  0.9022  0.7230  0.4685
  294MOL0     C39622  10.479   5.989   6.520 -0.1016  1.1383 -0.5964
  294MOL0     H39623  10.767   5.798   6.192 -0.9079  3.3037 -0.0972
  294MOL0     H39624  10.938   5.716   6.017  1.8217 -0.2530 -0.0805
  294MOL0     H39625  11.355   5.823   6.020 -2.8477  1.9393  2.0147
  294MOL0     H39626  11.309   5.705   6.147 -0.4813  1.1146 -0.2974
  294MOL0     H39627  11.320   5.626   5.860  0.1959 -2.1872 -0.1554
  294MOL0     H39628  11.482   5.630   5.943  2.6207 -3.6424  3.3518
  294MOL0     H39629  11.407   5.453   6.099 -1.4901  0.1668  0.3425
  294MOL0     H39630  11.247   5.456   6.021 -0.7285  2.8988  1.4828
  294MOL0     H39631  11.379   5.393   5.804  2.6070  1.1611 -0.7725
  294MOL0     H39632  11.519   5.367   5.908  0.1352 -0.4544  2.4011
  294MOL0     H39633  11.346   5.210   6.041 -3.2211  0.5257 -0.7590
  294MOL0     H39634  11.238   5.247   5.900 -1.2413 -1.6891 -0.4909
  294MOL0     H39635  11.428   5.168   5.741  1.8209 -1.9923 -0.1889
  294MOL0     H39636  11.514   5.131   5.892 -0.6418 -1.2280  2.4931
  294MOL0     H39637  11.431   4.916   5.844  1.3914  1.8253  2.3385
  294MOL0     H39638  11.290   4.981   5.930 -0.0089 -0.6585  0.0867
  294MOL0     H39639  11.313   4.952   5.635  0.2741 -1.1585  0.0515
  294MOL0     H39640  11.192   5.064   5.702 -0.9390  0.9044  3.0968
  294MOL0     H39641  10.987   4.968   5.819  0.8177  0.3721  1.7848
  294MOL0     H39642  10.871   4.608   5.918  2.9317  0.5381  1.4458
  294MOL0     H39643  10.828   4.786   5.944  0.4328  1.1023 -0.5007
  294MOL0     H39644  10.812   4.645   5.686  0.9081 -0.4731  0.2856
  294MOL0     H39645  10.761   4.808   5.711  1.6687  0.8952  2.2172
  294MOL0     H39646  10.620   4.539   5.802 -0.0017 -0.2797 -1.0010
  294MOL0     H39647  10.562   4.650   5.689 -0.3803 -3.6131  0.1779
  294MOL0     H39648  10.525   4.830   5.874 -1.4492  0.8520 -0.1313
  294MOL0     H39649  10.558   4.693   5.989  0.3464  0.8053 -0.7699
  294MOL0     H39650  10.406   4.875   6.039  1.3008  0.1829 -2.1331
  294MOL0     H39651  10.348   5.022   6.195 -0.1020  0.9710  0.4775
  294MOL0     H39652  10.206   5.121   6.187  3.6358  1.3257  0.3656
  294MOL0     H39653  10.210   4.963   6.282  2.7120 -0.2968 -0.3960
  294MOL0     H39654   9.752   5.050   6.278 -1.4244  1.9492  4.8322
  294MOL0     H39655   9.638   5.237   6.413 -1.8512  1.4881 -2.2583
  294MOL0     H39656   9.536   5.507   6.227 -3.4977  1.9949 -0.3701
  294MOL0     H39657   9.481   5.457   6.395 -0.7862 -1.8425 -1.8380
  294MOL0     H39658   9.550   5.684   6.483  3.8617 -0.3843 -1.1389
  294MOL0     H39659   9.606   5.732   6.320 -0.1409 -0.2650 -1.6022
  294MOL0     H39660   9.313   5.658   6.388 -1.2171  1.2027  1.7487
  294MOL0     H39661   9.381   5.703   6.236  1.9350 -1.7727  0.0883
  294MOL0     H39662   9.410   5.861   6.504  1.9983  0.5536 -1.3900
  294MOL0     H39663   9.442   5.928   6.342  3.9806  0.4628  3.4563
  294MOL0     H39664   9.167   5.847   6.448  0.2660 -1.0361  0.0810
  294MOL0     H39665   9.204   5.902   6.282  0.7247 -3.9173  1.0455
  294MOL0     H39666   9.298   6.125   6.367 -3.8691  2.1229 -3.0550
  294MOL0     H39667   9.120   6.100   6.405 -0.5883 -0.1569  2.2403
  294MOL0     H39668   9.333   6.026   6.592  0.9935  1.2043  0.6377
  294MOL0     H39669   9.158   6.036   6.625  1.1522  1.0713  2.3667
  294MOL0     H39670   9.344   6.266   6.571 -1.3016  0.5119 -1.1970
  294MOL0     H39671   9.266   6.212   6.729 -2.3417 -2.6469 -0.4754
  294MOL0     H39672   9.826   5.526   6.180 -1.0393 -0.6447  0.4421
  294MOL0     H39673   9.972   5.344   6.071  1.4432 -0.0848  2.0148
  294MOL0     H39674   9.933   4.791   5.932 -0.1239  4.5578  0.0754
  294MOL0     H39675  10.146   4.652   5.798 -0.8509  0.7446  0.1921
  294MOL0     H39676  11.234   5.982   6.179  1.9958 -1.7049 -0.3933
  294MOL0     H39677  11.066   6.037   6.353  0.5120  0.3625 -1.0248
  294MOL0     H39678  10.797   5.918   6.614  0.0624 -0.9826  1.1697
  294MOL0     H39679  10.693   5.945   6.824  0.8383  1.8410 -0.6067
  294MOL0     H39680  10.236   5.935   6.855  0.1104 -1.2543 -2.4525
  294MOL0     H39681  10.317   5.784   6.839  0.4468 -1.1954  1.7438
  294MOL0     H39682  10.388   5.840   7.106 -0.7583 -3.9811  0.7509
  294MOL0     H39683  10.257   5.744   7.061 -5.0789  2.1168 -1.3589
  294MOL0     H39684  10.117   5.935   7.035 -1.1104 -0.1956  2.6273
  294MOL0     H39685  10.247   6.032   7.108  0.5258  0.5723 -0.7034
  294MOL0     H39686  10.219   5.862   7.319  1.3792 -0.0567 -1.6646
  294MOL0     H39687  10.085   5.804   7.216 -0.4934  1.4405 -2.6624
  294MOL0     H39688   9.887   6.135   7.350  0.5789  1.3921 -1.9055
  294MOL0     H39689  10.309   6.001   6.650  0.8143 -0.7504  1.3861
  294MOL0     H39690  10.410   6.016   6.441 -4.9752 -5.2677  0.6388
  295MOL0     O39691   9.764   7.828   7.715  0.0486  0.5563 -0.4942
  295MOL0     C39692   9.667   7.862   7.776  0.0292  0.0515  0.5196
  295MOL0     O39693   9.653   7.968   7.859 -0.2233  0.3961 -0.3904
  295MOL0     C39694   9.741   8.072   7.881 -1.0503  0.9539  1.5994
  295MOL0     C39695   9.700   8.183   7.947  0.3522  0.6537  0.0883
  295MOL0     C39696   9.789   8.289   7.982  0.2155  0.3786  0.5402
  295MOL0     C39697   9.916   8.280   7.940  0.6583  0.9569 -0.9221
  295MOL0     O39698   9.988   8.392   7.974 -0.1145  0.0934 -0.3793
  295MOL0     C39699  10.130   8.369   7.988  0.2811 -0.6656 -0.4362
  295MOL0     C39700  10.185   8.493   8.062  0.7111  0.4422 -0.3501
  295MOL0     C39701  10.329   8.533   8.034  0.3292  0.3073  0.0962
  295MOL0     C39702  10.432   8.419   8.050 -0.1855  0.7721 -0.8937
  295MOL0     C39703  10.578   8.470   8.038  0.0270  0.6306  0.5576
  295MOL0     C39704  10.681   8.356   8.056  0.1976  0.5867 -0.1888
  295MOL0     C39705  10.827   8.404   8.063 -0.0326  0.0516 -0.3773
  295MOL0     C39706  10.914   8.281   8.094 -0.1868 -0.2378 -0.3944
  295MOL0     N39707  10.939   8.256   8.237 -0.4050  0.3481  0.2281
  295MOL0     C39708  11.028   8.330   8.317 -0.4997  0.6234 -0.6547
  295MOL0     C39709  11.006   8.290   8.446  0.3319 -0.1826  0.5433
  295MOL0     C39710  11.066   8.336   8.577 -0.1711  0.5773  0.0279
  295MOL0     C39711  11.036   8.484   8.584 -0.1841 -0.0234 -0.0826
  295MOL0     C39712  11.048   8.524   8.730 -0.3689 -0.2298  0.5119
  295MOL0     C39713  11.051   8.672   8.750 -0.1026 -1.8123  0.2815
  295MOL0     O39714  11.077   8.706   8.885 -1.0551 -0.4210  0.0612
  295MOL0     C39715  11.054   8.841   8.915  1.2355 -0.0250  0.1173
  295MOL0     C39716  11.146   8.924   8.979 -0.0514  0.1738  0.4767
  295MOL0     C39717  11.116   9.061   9.015 -0.0017 -0.3356 -0.4088
  295MOL0     C39718  11.227   9.140   9.075 -0.2698 -0.6938  0.0579
  295MOL0     C39719  10.988   9.118   9.009  0.0724 -0.1526 -0.6283
  295MOL0     C39720  10.942   9.258   9.041 -0.3727 -0.1807 -0.8184
  295MOL0     O39721  10.826   9.300   8.975 -0.0798 -0.0245  0.0036
  295MOL0     C39722  10.805   9.434   8.995 -0.2400  0.2215  0.1958
  295MOL0     C39723  10.710   9.489   9.086  0.5200  0.4771 -0.1278
  295MOL0     C39724  10.671   9.626   9.073 -0.3573 -1.0035 -0.0077
  295MOL0     C39725  10.729   9.708   8.973  0.4863  0.3453 -0.0699
  295MOL0     O39726  10.700   9.848   8.968  0.2925 -0.5157 -0.0867
  295MOL0     C39727  10.785   9.946   9.032 -0.3931 -0.4068 -0.6874
  295MOL0     C39728  10.789  10.054   8.927  0.1775 -0.2523  0.1022
  295MOL0     C39729  10.870  10.173   8.979 -0.3746 -0.0794  0.4025
  295MOL0     C39730  10.853  10.293   8.888 -1.3644 -0.3202  0.5254
  295MOL0     C39731  10.984  10.387   8.868  0.5300  0.6408 -0.6442
  295MOL0     C39732  10.999  10.474   8.994  0.2374  0.3776 -0.3765
  295MOL0     C39733  11.063  10.611   8.972 -0.0742  0.6506 -1.2185
  295MOL0     C39734  11.218  10.608   8.973  0.4750  0.3403  0.2492
  295MOL0    Cl39735  11.291  10.537   8.827 -0.2391  0.1344 -0.2944
  295MOL0     C39736  10.825   9.654   8.895 -0.3123  0.3247  0.4526
  295MOL0     C39737  10.865   9.522   8.907  0.7127  0.8396 -1.0558
  295MOL0     O39738  11.013   9.325   9.116  0.3799  0.4210  0.4524
  295MOL0     C39739  10.889   9.032   8.952 -0.4334 -0.0797 -0.2664
  295MOL0     C39740  10.921   8.900   8.912  0.3148  0.4081 -0.5064
  295MOL0     N39741  10.916   8.191   8.436 -0.0874 -0.7433 -0.6303
  295MOL0     N39742  10.880   8.171   8.314  0.1645 -0.2303  1.2054
  295MOL0     C39743   9.966   8.161   7.876  0.0295 -0.3344 -0.1061
  295MOL0     C39744   9.883   8.059   7.848  0.6614  0.5990  0.0434
  295MOL0     C39745   9.541   7.788   7.741  0.1955  0.7035  0.7292
  295MOL0     C39746   9.541   7.688   7.642 -0.0523 -0.5415 -0.6661
  295MOL0     C39747   9.420   7.629   7.599  0.4201  0.9824  0.3553
  295MOL0     C39748   9.290   7.661   7.660 -0.2950 -0.4646  0.7873
  295MOL0     O39749   9.175   7.607   7.622  0.0244  0.1164  0.2607
  295MOL0     C39750   9.178   7.488   7.541 -0.7813  0.1867  0.7443
  295MOL0     C39751   9.032   7.451   7.523  0.8676 -0.4727 -0.0710
  295MOL0     C39752   8.931   7.567   7.488  0.2772  0.1936  0.4556
  295MOL0     C39753   8.787   7.518   7.496  0.4961  0.0048 -0.3136
  295MOL0     C39754   8.730   7.471   7.630  0.9355 -1.2033  0.0716
  295MOL0     C39755   8.672   7.443   7.732 -0.3938 -0.2319 -0.1736
  295MOL0     C39756   9.295   7.759   7.760  0.6593 -1.4248  0.3869
  295MOL0     C39757   9.416   7.817   7.793 -1.0409  0.2065 -0.2790
  295MOL0     H39758   9.598   8.198   7.980 -0.1852 -0.4182 -1.0249
  295MOL0     H39759   9.762   8.381   8.033 -2.4791  1.3403 -2.3159
  295MOL0     H39760  10.162   8.286   8.052  2.2818  0.5659  0.2572
  295MOL0     H39761  10.187   8.375   7.895 -0.0052  2.2629 -0.5195
  295MOL0     H39762  10.129   8.580   8.027 -2.1793 -1.7157 -1.5040
  295MOL0     H39763  10.165   8.471   8.167 -1.5135  1.1317 -0.5791
  295MOL0     H39764  10.331   8.570   7.931 -3.8513 -1.7094 -0.9396
  295MOL0     H39765  10.367   8.618   8.092  1.7723 -0.5785  0.5083
  295MOL0     H39766  10.419   8.377   8.151 -0.1296  0.9146 -0.8270
  295MOL0     H39767  10.401   8.335   7.988  0.1735  0.9634 -1.3357
  295MOL0     H39768  10.594   8.513   7.938 -1.9418  3.7488  1.4385
  295MOL0     H39769  10.599   8.545   8.115 -1.5902  0.8790  0.7819
  295MOL0     H39770  10.660   8.291   8.141  0.9703  0.7379  0.1247
  295MOL0     H39771  10.683   8.292   7.968 -0.1624 -0.9670  0.9064
  295MOL0     H39772  10.855   8.436   7.962  2.2710 -2.5056 -0.6728
  295MOL0     H39773  10.843   8.484   8.137 -0.7619 -0.5558  0.4571
  295MOL0     H39774  11.008   8.286   8.038  1.0509 -2.3748  1.3447
  295MOL0     H39775  10.872   8.191   8.050 -0.8084 -0.3013  0.3181
  295MOL0     H39776  11.098   8.403   8.279  0.8700 -1.0732 -1.5226
  295MOL0     H39777  11.021   8.276   8.656  2.2303 -0.4682  0.6705
  295MOL0     H39778  11.173   8.316   8.585 -0.1562 -0.8219 -2.5036
  295MOL0     H39779  10.936   8.508   8.549 -0.6714  1.3999  2.0675
  295MOL0     H39780  11.108   8.531   8.516 -0.1886  0.3977  0.1981
  295MOL0     H39781  11.147   8.493   8.764  0.2126 -0.3096 -1.1397
  295MOL0     H39782  10.984   8.479   8.806  0.3668  0.2258  1.4181
  295MOL0     H39783  10.956   8.713   8.714  0.5317  0.5183  1.1089
  295MOL0     H39784  11.131   8.714   8.689  0.2730 -0.0101  1.9445
  295MOL0     H39785  11.245   8.883   8.993 -0.4006 -1.4116 -1.2302
  295MOL0     H39786  11.325   9.093   9.068 -0.7105 -1.6182 -0.1249
  295MOL0     H39787  11.239   9.244   9.044 -2.0796 -0.9391 -1.7036
  295MOL0     H39788  11.205   9.141   9.182 -1.7502 -1.1723 -0.2110
  295MOL0     H39789  10.653   9.421   9.148 -2.0808  0.9061 -1.8495
  295MOL0     H39790  10.605   9.675   9.144  1.5448 -0.3897  1.4131
  295MOL0     H39791  10.746   9.980   9.129 -0.6646 -0.2337 -0.8563
  295MOL0     H39792  10.886   9.908   9.050  0.1454  1.7300  1.3926
  295MOL0     H39793  10.837  10.019   8.835  3.1584 -0.7754  1.7335
  295MOL0     H39794  10.689  10.095   8.914 -0.2944 -0.7245  2.0260
  295MOL0     H39795  10.976  10.145   8.982  0.4494  2.6400 -0.2058
  295MOL0     H39796  10.848  10.209   9.080  1.3372  4.2497 -0.5368
  295MOL0     H39797  10.816  10.254   8.793  0.6146 -1.8721  0.3296
  295MOL0     H39798  10.780  10.356   8.940 -0.7318  0.7695  0.1256
  295MOL0     H39799  10.956  10.447   8.781  2.2117  1.1085 -0.8927
  295MOL0     H39800  11.075  10.333   8.841 -0.4350 -1.1349 -0.4729
  295MOL0     H39801  10.903  10.493   9.043 -1.4157  0.0185 -3.2536
  295MOL0     H39802  11.067  10.429   9.067  0.7126 -0.2342 -1.1926
  295MOL0     H39803  11.034  10.682   9.050  1.7305 -1.3679  1.4828
  295MOL0     H39804  11.028  10.647   8.875 -1.1958  0.8612 -0.7453
  295MOL0     H39805  11.250  10.547   9.058 -0.5387 -1.2232 -0.4490
  295MOL0     H39806  11.260  10.706   8.998 -0.5176  0.7746  0.2440
  295MOL0     H39807  10.875   9.705   8.813 -1.7232  0.8686 -0.1041
  295MOL0     H39808  10.940   9.478   8.841  0.1983 -1.5310 -0.1818
  295MOL0     H39809  10.791   9.075   8.934 -0.6636 -0.6990 -0.5004
  295MOL0     H39810  10.837   8.848   8.867 -1.3387  1.7892  0.8332
  295MOL0     H39811  10.069   8.136   7.852 -0.6509 -2.0488 -1.5035
  295MOL0     H39812   9.917   7.964   7.807  2.1219  0.5047  1.3730
  295MOL0     H39813   9.624   7.659   7.578  0.8993  0.4619  0.0493
  295MOL0     H39814   9.424   7.547   7.528 -1.0068 -1.8801  3.3488
  295MOL0     H39815   9.223   7.514   7.444 -0.0615 -1.0878  0.7063
  295MOL0     H39816   9.240   7.406   7.578 -3.3652 -2.5096 -0.5034
  295MOL0     H39817   9.003   7.396   7.613  0.9325 -2.8700 -1.4402
  295MOL0     H39818   9.020   7.384   7.437 -2.2307  1.5116 -1.3461
  295MOL0     H39819   8.950   7.598   7.385  0.0474  0.9043  0.6176
  295MOL0     H39820   8.935   7.649   7.560 -1.5052  1.2781 -0.6105
  295MOL0     H39821   8.773   7.436   7.426 -0.4273 -1.3141  1.3364
  295MOL0     H39822   8.728   7.605   7.463 -1.9540 -0.3415  2.6514
  295MOL0     H39823   8.636   7.421   7.831 -1.7819  0.9723 -0.3784
  295MOL0     H39824   9.201   7.796   7.802  0.1566  0.5307 -2.2040
  295MOL0     H39825   9.391   7.904   7.854  1.1345 -0.1786  1.2867
  296MOL0     O39826   7.334   5.884  11.369 -0.4139  0.0164 -0.4453
  296MOL0     C39827   7.252   5.789  11.375  0.2640 -0.4177  0.3011
  296MOL0     O39828   7.160   5.769  11.476 -0.2643 -0.4590 -0.1853
  296MOL0     C39829   7.157   5.862  11.572 -0.1212  0.8268 -0.5173
  296MOL0     C39830   7.265   5.907  11.649  0.1232 -0.5848  0.2542
  296MOL0     C39831   7.240   6.008  11.750  0.0891 -0.3224 -0.2223
  296MOL0     C39832   7.110   6.063  11.763 -0.6643 -0.0826  0.2097
  296MOL0     O39833   7.067   6.152  11.858 -0.4267 -0.0316 -0.2094
  296MOL0     C39834   7.157   6.212  11.954 -0.5787 -0.3860  0.5678
  296MOL0     C39835   7.165   6.105  12.073  0.6234 -1.0852 -0.8066
  296MOL0     C39836   7.288   6.127  12.161  0.1880  0.7103  0.0327
  296MOL0     C39837   7.270   6.239  12.263  0.2974 -0.5861  0.6615
  296MOL0     C39838   7.402   6.269  12.341 -0.2297  0.7363 -0.0994
  296MOL0     C39839   7.403   6.371  12.455 -0.6320 -0.8179  0.5795
  296MOL0     C39840   7.539   6.382  12.526  0.0047 -0.8549  0.0321
  296MOL0     C39841   7.542   6.505  12.621  0.3543 -0.0407 -0.8039
  296MOL0     N39842   7.680   6.553  12.656 -1.1929  0.5299 -0.0651
  296MOL0     C39843   7.795   6.488  12.632 -0.3109  1.1325  0.1711
  296MOL0     C39844   7.896   6.567  12.681  0.0356 -0.2241 -0.2616
  296MOL0     C39845   8.049   6.569  12.676  1.1102 -0.2377  0.1537
  296MOL0     C39846   8.122   6.503  12.793  0.1245 -0.7153  0.1367
  296MOL0     C39847   8.176   6.583  12.915 -0.0209 -0.0614  0.1920
  296MOL0     C39848   8.068   6.638  12.998  0.6978 -0.5880 -1.1831
  296MOL0     O39849   8.102   6.668  13.137  0.7130 -0.0809  0.4427
  296MOL0     C39850   8.001   6.665  13.226  1.0137 -0.2386 -0.4708
  296MOL0     C39851   8.035   6.641  13.357  0.4289 -0.4260  0.6298
  296MOL0     C39852   7.940   6.647  13.466  0.4541 -0.0663  0.2719
  296MOL0     C39853   7.977   6.620  13.606 -0.4394  0.4970  0.0615
  296MOL0     C39854   7.810   6.691  13.438 -0.2297  0.1154 -0.0326
  296MOL0     C39855   7.709   6.719  13.543  0.5321  0.1617 -0.1143
  296MOL0     O39856   7.586   6.659  13.529  0.0153 -0.3721  0.1866
  296MOL0     C39857   7.471   6.714  13.587 -0.9211  0.6899  0.0963
  296MOL0     C39858   7.351   6.723  13.519  0.1019  0.3343 -0.5199
  296MOL0     C39859   7.232   6.758  13.582  0.3652  0.0132  0.1051
  296MOL0     C39860   7.226   6.779  13.715  0.3117  0.7555  0.4973
  296MOL0     O39861   7.096   6.798  13.762  0.0430  0.1081  0.2803
  296MOL0     C39862   7.084   6.911  13.842 -0.6293  0.5060 -0.0741
  296MOL0     C39863   6.941   6.948  13.836  0.2051 -1.5418 -0.5341
  296MOL0     C39864   6.907   7.002  13.697 -1.3376  0.4585 -0.5258
  296MOL0     C39865   6.769   7.055  13.674  0.1723 -0.3109 -1.1067
  296MOL0     C39866   6.729   7.129  13.545  0.3477 -0.3192 -0.4095
  296MOL0     C39867   6.582   7.104  13.507  0.9131 -0.5782 -0.0805
  296MOL0     C39868   6.522   7.198  13.400  0.1107  0.1399  0.3995
  296MOL0     C39869   6.490   7.337  13.428  0.4989 -0.0533 -0.2635
  296MOL0    Cl39870   6.332   7.348  13.497  0.6564  0.1471 -0.3148
  296MOL0     C39871   7.332   6.750  13.793  0.4613 -0.4553  0.0904
  296MOL0     C39872   7.457   6.724  13.726 -0.0551 -0.3832 -0.6686
  296MOL0     O39873   7.748   6.793  13.632  0.1725 -0.1655 -0.3062
  296MOL0     C39874   7.785   6.712  13.298  0.3433 -0.4671  0.0256
  296MOL0     C39875   7.876   6.706  13.196  0.3811 -0.2181  0.3200
  296MOL0     N39876   7.834   6.678  12.729  0.4515 -0.3975  0.5670
  296MOL0     N39877   7.702   6.668  12.717 -0.5541 -0.2473 -0.1352
  296MOL0     C39878   7.011   6.015  11.682  1.0136  0.6652 -0.1029
  296MOL0     C39879   7.034   5.921  11.580 -0.0819  1.1516 -0.1218
  296MOL0     C39880   7.234   5.724  11.243 -0.2330  0.6989  0.4211
  296MOL0     C39881   7.283   5.789  11.128 -0.2542 -0.2707 -0.2468
  296MOL0     C39882   7.273   5.739  11.003  0.6842 -1.0198  0.0751
  296MOL0     C39883   7.207   5.621  10.985  0.5521 -0.3398  0.1291
  296MOL0     O39884   7.200   5.552  10.864  0.3640  0.2320 -0.0437
  296MOL0     C39885   7.083   5.577  10.784  0.0436  0.3118  1.3891
  296MOL0     C39886   7.091   5.723  10.723 -0.4754  0.4961  1.1267
  296MOL0     C39887   7.031   5.749  10.593 -0.7161  0.3546 -0.5164
  296MOL0     C39888   7.089   5.682  10.472 -0.0364  0.0864  0.8506
  296MOL0     C39889   7.226   5.708  10.435  0.1898 -0.9325 -0.8346
  296MOL0     C39890   7.341   5.733  10.405  0.0720  0.0290  0.2457
  296MOL0     C39891   7.154   5.555  11.100 -0.0712  0.1001  1.1415
  296MOL0     C39892   7.169   5.602  11.231  0.2523 -0.0514  0.3705
  296MOL0     H39893   7.366   5.874  11.632  1.3284  2.5369  0.7054
  296MOL0     H39894   7.323   6.047  11.807 -0.7399 -0.6456  1.2423
  296MOL0     H39895   7.261   6.234  11.928 -0.4915 -1.8423 -0.4592
  296MOL0     H39896   7.107   6.303  11.988 -3.1453 -1.1055 -0.9588
  296MOL0     H39897   7.068   6.129  12.117  1.2970  3.3357 -1.3278
  296MOL0     H39898   7.154   6.003  12.034  0.4877 -0.0884 -3.5592
  296MOL0     H39899   7.307   6.039  12.222 -3.3335 -0.6316 -0.5427
  296MOL0     H39900   7.374   6.149  12.097  1.3028 -1.0991  0.8715
  296MOL0     H39901   7.222   6.325  12.217 -1.2700 -2.3979 -1.3245
  296MOL0     H39902   7.199   6.201  12.337 -0.6617  0.0046  0.0661
  296MOL0     H39903   7.435   6.171  12.377 -1.0020  0.3004 -0.5610
  296MOL0     H39904   7.474   6.303  12.265  0.2177  2.3173  0.9828
  296MOL0     H39905   7.382   6.469  12.412  0.2815  0.0982  2.1572
  296MOL0     H39906   7.320   6.348  12.522 -1.7450  0.1371 -0.4398
  296MOL0     H39907   7.539   6.289  12.583  0.4063 -0.6314  0.3977
  296MOL0     H39908   7.623   6.382  12.456  1.3820  3.4349  1.3620
  296MOL0     H39909   7.493   6.479  12.716  1.1801  4.5883  1.1925
  296MOL0     H39910   7.487   6.593  12.587  2.7362  2.6775  1.7096
  296MOL0     H39911   7.814   6.393  12.582 -2.1504  0.4314  0.7294
  296MOL0     H39912   8.073   6.508  12.588 -3.0402 -1.3642 -0.4186
  296MOL0     H39913   8.091   6.668  12.660  0.2881  0.2748  1.0638
  296MOL0     H39914   8.204   6.448  12.746  1.1499  0.6858  0.2284
  296MOL0     H39915   8.052   6.426  12.826 -1.7997  0.8743 -0.0184
  296MOL0     H39916   8.232   6.667  12.873  0.3549 -0.8286 -0.9073
  296MOL0     H39917   8.238   6.514  12.973 -0.1230 -2.0993 -1.9496
  296MOL0     H39918   7.977   6.579  12.987  0.3700 -0.5540  0.9302
  296MOL0     H39919   8.046   6.742  12.970 -0.7240 -0.0841  1.5190
  296MOL0     H39920   8.135   6.605  13.378  0.7169 -0.9715 -1.4931
  296MOL0     H39921   8.069   6.560  13.606 -0.2986  0.7109  0.1540
  296MOL0     H39922   8.002   6.704  13.670 -1.1267  0.4385  0.4125
  296MOL0     H39923   7.896   6.565  13.654 -0.6258  1.3154  0.6997
  296MOL0     H39924   7.357   6.701  13.412  1.9439  0.4190 -0.4642
  296MOL0     H39925   7.136   6.759  13.532  0.2867 -2.2188  0.0729
  296MOL0     H39926   7.127   6.896  13.942  1.8858 -0.9145 -1.2770
  296MOL0     H39927   7.139   6.999  13.805 -1.9895  2.6766  2.6337
  296MOL0     H39928   6.876   6.861  13.848 -0.3255 -0.9695  0.9922
  296MOL0     H39929   6.926   7.020  13.918  2.6943 -1.2029 -0.2962
  296MOL0     H39930   6.931   6.922  13.627  0.7959 -0.7958  1.4990
  296MOL0     H39931   6.979   7.081  13.674  0.3513 -0.7647  0.3605
  296MOL0     H39932   6.709   6.965  13.687  2.8078 -1.7355  2.8934
  296MOL0     H39933   6.734   7.125  13.750  0.2730 -0.2363 -1.1278
  296MOL0     H39934   6.795   7.098  13.464 -1.2455  0.1661 -1.9462
  296MOL0     H39935   6.740   7.238  13.549  0.1306 -0.3196  0.3474
  296MOL0     H39936   6.563   7.001  13.474 -1.8641  0.1333 -1.0007
  296MOL0     H39937   6.519   7.113  13.596 -0.1981  1.3991 -1.0043
  296MOL0     H39938   6.444   7.146  13.343  1.9692 -0.2979 -1.9228
  296MOL0     H39939   6.599   7.211  13.324 -1.4928  0.7316 -1.2014
  296MOL0     H39940   6.495   7.396  13.335 -0.4116 -2.5125 -1.9862
  296MOL0     H39941   6.559   7.385  13.498  0.0027  1.8002 -0.9688
  296MOL0     H39942   7.323   6.763  13.901 -0.0305 -1.6700  0.2109
  296MOL0     H39943   7.547   6.710  13.785  0.2783 -0.5846 -1.2151
  296MOL0     H39944   7.685   6.752  13.289  0.3135 -0.1812  1.4276
  296MOL0     H39945   7.860   6.731  13.092  0.0621  0.0682  0.4387
  296MOL0     H39946   6.913   6.060  11.692  0.8584  0.0788  1.2650
  296MOL0     H39947   6.959   5.889  11.508  0.9697 -0.0269 -0.7378
  296MOL0     H39948   7.322   5.889  11.145 -2.4721  0.2686  2.4736
  296MOL0     H39949   7.322   5.790  10.920 -0.6508  0.6923  0.2830
  296MOL0     H39950   7.076   5.498  10.709 -1.3753  0.6382  1.1488
  296MOL0     H39951   6.987   5.559  10.834 -1.3224 -1.0146 -1.5076
  296MOL0     H39952   7.197   5.746  10.713  0.6802 -4.1983 -0.0066
  296MOL0     H39953   7.039   5.788  10.794 -1.7774  0.9716 -0.1972
  296MOL0     H39954   7.023   5.857  10.575 -1.1079  0.0918 -2.0477
  296MOL0     H39955   6.925   5.723  10.595 -1.6125  3.2229 -2.7124
  296MOL0     H39956   7.026   5.699  10.384  2.2908  0.0699 -0.9035
  296MOL0     H39957   7.078   5.575  10.493 -0.6274 -0.0632 -0.1584
  296MOL0     H39958   7.445   5.756  10.407  0.3513 -1.0847  3.2414
  296MOL0     H39959   7.089   5.470  11.081 -0.9188  0.4035  2.5678
  296MOL0     H39960   7.125   5.539  11.307  1.1312 -2.0167 -0.6871
  297MOL0     O39961   6.457   2.423   7.566  0.6770  0.0510 -0.2357
  297MOL0     C39962   6.558   2.452   7.629 -0.3020 -0.8325 -0.0053
  297MOL0     O39963   6.578   2.437   7.761  0.1356 -0.2590  0.5255
  297MOL0     C39964   6.487   2.379   7.846  0.3774  0.0187  0.2995
  297MOL0     C39965   6.524   2.277   7.924  0.0007  0.3838 -0.6511
  297MOL0     C39966   6.437   2.221   8.015 -1.4216 -0.3370 -0.3115
  297MOL0     C39967   6.311   2.272   8.034  0.4126  0.1263 -0.0990
  297MOL0     O39968   6.231   2.217   8.130  0.0360  0.7166  0.3950
  297MOL0     C39969   6.123   2.132   8.073 -0.4723  0.5026  0.0614
  297MOL0     C39970   6.035   2.090   8.192 -0.0424  0.1438 -0.6403
  297MOL0     C39971   5.915   2.010   8.163 -0.6815  0.3705 -0.1966
  297MOL0     C39972   5.948   1.873   8.094  0.4464 -0.8590 -0.9049
  297MOL0     C39973   5.823   1.796   8.060  0.0730  0.3867 -0.4774
  297MOL0     C39974   5.833   1.715   7.935 -0.1452 -0.0092  1.4553
  297MOL0     C39975   5.833   1.809   7.810 -1.2040 -0.3673 -0.0627
  297MOL0     C39976   5.826   1.731   7.688 -0.9086 -0.2839  0.7902
  297MOL0     N39977   5.827   1.816   7.568  0.3291  0.1041 -0.0042
  297MOL0     C39978   5.921   1.819   7.465 -0.7320 -1.1347  0.0985
  297MOL0     C39979   5.858   1.887   7.366  0.2823  0.2943  0.2325
  297MOL0     C39980   5.935   1.945   7.247 -0.3872 -0.4431  0.2806
  297MOL0     C39981   5.876   1.924   7.105  0.4613 -0.0656  0.0138
  297MOL0     C39982   5.748   1.996   7.074 -1.2247 -0.1621 -0.5643
  297MOL0     C39983   5.702   1.963   6.936 -0.3430  0.1093  0.0435
  297MOL0     O39984   5.793   2.012   6.839 -0.6630 -0.0700 -0.4983
  297MOL0     C39985   5.761   2.131   6.796  1.1875 -0.4910 -0.0678
  297MOL0     C39986   5.835   2.244   6.840  0.4593  0.4684 -0.1774
  297MOL0     C39987   5.805   2.367   6.791  0.6129 -0.5772 -0.5888
  297MOL0     C39988   5.870   2.477   6.866  0.2324 -0.3258 -1.1369
  297MOL0     C39989   5.709   2.388   6.684 -0.9567 -0.3999 -0.3918
  297MOL0     C39990   5.670   2.523   6.636 -0.4780 -0.1731  0.1406
  297MOL0     O39991   5.532   2.543   6.596 -0.1166  0.0593  0.5594
  297MOL0     C39992   5.479   2.644   6.525 -0.2638 -0.2219  0.0288
  297MOL0     C39993   5.542   2.705   6.419 -0.7791  0.3630 -0.6002
  297MOL0     C39994   5.469   2.775   6.330 -0.3186 -0.7653 -0.0074
  297MOL0     C39995   5.336   2.810   6.341 -0.8047 -1.3184 -0.0066
  297MOL0     O39996   5.276   2.898   6.252  0.0972  0.2182  0.0304
  297MOL0     C39997   5.138   2.866   6.217 -0.0445  0.4127  1.1246
  297MOL0     C39998   5.132   2.890   6.060  0.4547  0.6282 -0.0381
  297MOL0     C39999   5.200   2.776   5.971 -0.5867  0.9375 -0.3849
  297MOL0     C40000   5.216   2.811   5.829  0.4433 -0.4835  0.1820
  297MOL0     C40001   5.303   2.705   5.757 -1.2752 -0.1285  0.1981
  297MOL0     C40002   5.337   2.733   5.614  0.3194 -0.1086 -0.0357
  297MOL0     C40003   5.411   2.866   5.590 -0.4812 -0.1168 -1.4307
  297MOL0     C40004   5.482   2.879   5.455  0.2762 -0.5297  0.6361
  297MOL0    Cl40005   5.366   2.829   5.338 -0.1003  0.3246 -0.3993
  297MOL0     C40006   5.277   2.760   6.455 -1.5743  0.6828 -0.2580
  297MOL0     C40007   5.344   2.680   6.548 -1.2571 -0.3170 -0.5911
  297MOL0     O40008   5.757   2.611   6.641  0.1949 -0.4913 -0.8322
  297MOL0     C40009   5.628   2.281   6.651 -0.1305  0.1601  0.4651
  297MOL0     C40010   5.658   2.155   6.699  0.9334  0.0181 -0.2713
  297MOL0     N40011   5.720   1.908   7.395  0.6739  0.0107 -0.7548
  297MOL0     N40012   5.716   1.877   7.521  0.2753  0.4659  0.3956
  297MOL0     C40013   6.270   2.376   7.948 -0.0182  0.1942  0.0740
  297MOL0     C40014   6.360   2.424   7.852  0.3438  0.7190 -0.4402
  297MOL0     C40015   6.683   2.485   7.557  0.3497  0.0258 -0.2117
  297MOL0     C40016   6.662   2.543   7.428 -0.1533 -0.2952  0.3979
  297MOL0     C40017   6.783   2.592   7.360  0.1080 -0.0459 -1.0373
  297MOL0     C40018   6.905   2.580   7.415 -0.2687 -0.4739 -0.2929
  297MOL0     O40019   7.006   2.625   7.340 -0.2115 -0.0708 -0.0942
  297MOL0     C40020   7.143   2.638   7.370  0.6759 -0.5787  0.7523
  297MOL0     C40021   7.215   2.771   7.327 -0.2463  1.0314  0.2921
  297MOL0     C40022   7.241   2.774   7.174  0.0408 -0.5085 -1.3166
  297MOL0     C40023   7.353   2.883   7.146 -0.5710  1.1838 -0.1134
  297MOL0     C40024   7.311   3.024   7.137  1.5216 -0.1335 -0.5244
  297MOL0     C40025   7.260   3.128   7.122 -0.0960 -0.0352  0.2766
  297MOL0     C40026   6.921   2.518   7.535 -0.4547 -0.0337 -0.5084
  297MOL0     C40027   6.814   2.474   7.614  0.0907  0.2326  0.0697
  297MOL0     H40028   6.627   2.244   7.937 -0.9612 -2.1105  1.6697
  297MOL0     H40029   6.459   2.133   8.074 -4.5256 -0.9410  0.1196
  297MOL0     H40030   6.061   2.175   7.993 -0.6914  0.0191 -0.0303
  297MOL0     H40031   6.179   2.042   8.047  2.2643  2.3166 -0.7751
  297MOL0     H40032   6.095   2.046   8.272  2.2891  3.3755 -0.4383
  297MOL0     H40033   6.011   2.186   8.238 -1.0481 -0.7053  0.6553
  297MOL0     H40034   5.859   1.986   8.254  0.6116 -3.2451 -0.1915
  297MOL0     H40035   5.843   2.066   8.103 -2.1446  0.2012  1.3203
  297MOL0     H40036   6.008   1.894   8.005  1.6337  0.4634  0.1589
  297MOL0     H40037   6.001   1.802   8.158 -3.1913 -0.4465  2.9721
  297MOL0     H40038   5.802   1.729   8.144  1.7540 -0.0419 -0.3499
  297MOL0     H40039   5.737   1.863   8.064 -0.4652 -0.2615 -1.0905
  297MOL0     H40040   5.920   1.649   7.945  0.2979  0.1371 -0.7265
  297MOL0     H40041   5.753   1.644   7.913 -0.5479  1.4591 -2.8852
  297MOL0     H40042   5.753   1.884   7.821  0.1241  1.1088 -0.0940
  297MOL0     H40043   5.927   1.864   7.808 -1.7981  0.8025  1.6248
  297MOL0     H40044   5.726   1.685   7.686 -1.1637  0.2033 -1.8717
  297MOL0     H40045   5.903   1.654   7.684 -2.7893 -2.3795 -4.7342
  297MOL0     H40046   6.023   1.782   7.467 -0.1671  0.3354 -0.1225
  297MOL0     H40047   5.932   2.052   7.269  0.4418 -0.2938 -0.2524
  297MOL0     H40048   6.038   1.907   7.244 -0.3662 -0.3202 -0.5515
  297MOL0     H40049   5.881   1.816   7.091 -1.5525 -0.4601  1.8833
  297MOL0     H40050   5.954   1.977   7.048  1.7752  1.3718  2.9072
  297MOL0     H40051   5.765   2.102   7.094 -1.5749 -0.5754  2.4247
  297MOL0     H40052   5.669   1.974   7.148  0.6213  2.3198  2.4017
  297MOL0     H40053   5.605   2.012   6.925  0.9333  2.7924 -0.0321
  297MOL0     H40054   5.693   1.855   6.923  2.1710 -0.0479 -0.9378
  297MOL0     H40055   5.911   2.235   6.917  2.2696  0.5822 -1.8640
  297MOL0     H40056   5.792   2.539   6.912  0.9983  1.0212 -1.5899
  297MOL0     H40057   5.932   2.439   6.947  1.8952 -0.7452 -2.5596
  297MOL0     H40058   5.939   2.538   6.807  0.6319 -1.8855 -2.3389
  297MOL0     H40059   5.649   2.702   6.406 -0.1718 -0.8606  3.3099
  297MOL0     H40060   5.532   2.809   6.248  0.9115 -3.4184 -0.2572
  297MOL0     H40061   5.100   2.765   6.234 -2.8367  1.0554 -0.6326
  297MOL0     H40062   5.071   2.941   6.259  1.9401  1.5806  2.3880
  297MOL0     H40063   5.027   2.894   6.031 -0.9761 -1.4108  4.0759
  297MOL0     H40064   5.182   2.986   6.044  1.7580  0.6326  3.2243
  297MOL0     H40065   5.152   2.678   5.977  0.2904  0.5146 -0.0846
  297MOL0     H40066   5.299   2.767   6.016 -0.6044  2.1786 -0.0690
  297MOL0     H40067   5.114   2.817   5.789  0.4117 -0.7926  0.2127
  297MOL0     H40068   5.261   2.911   5.829  0.6332 -0.5472  1.7399
  297MOL0     H40069   5.249   2.610   5.752  0.3171 -1.1101  0.9734
  297MOL0     H40070   5.394   2.684   5.813 -0.0481 -1.1587 -2.0306
  297MOL0     H40071   5.404   2.660   5.568 -1.6944  0.0558 -3.5402
  297MOL0     H40072   5.240   2.729   5.563 -0.1003 -0.1118  0.7424
  297MOL0     H40073   5.480   2.873   5.675  0.1785  1.8483 -2.0607
  297MOL0     H40074   5.339   2.949   5.592  0.5994  0.8432 -0.5683
  297MOL0     H40075   5.577   2.829   5.434  0.2917 -0.1994 -0.1038
  297MOL0     H40076   5.502   2.986   5.448 -1.1706  0.0286  3.5159
  297MOL0     H40077   5.175   2.787   6.483 -1.6318 -0.0360  0.2498
  297MOL0     H40078   5.295   2.647   6.639 -0.4618  2.5628  0.9872
  297MOL0     H40079   5.544   2.297   6.584  1.9103 -2.7370 -3.1131
  297MOL0     H40080   5.593   2.073   6.669 -0.7633  1.2142  0.0050
  297MOL0     H40081   6.170   2.416   7.963  0.1739 -0.2393  3.2738
  297MOL0     H40082   6.332   2.494   7.774  0.0008 -0.1959 -1.1588
  297MOL0     H40083   6.566   2.564   7.382  1.5763  0.3231 -3.2518
  297MOL0     H40084   6.783   2.633   7.260  1.6980 -0.0281 -1.0581
  297MOL0     H40085   7.149   2.629   7.479 -0.2931 -3.0254  0.6584
  297MOL0     H40086   7.201   2.560   7.321 -0.9613 -1.7566  0.6176
  297MOL0     H40087   7.319   2.782   7.359 -0.3164 -0.1842  0.9972
  297MOL0     H40088   7.150   2.854   7.354 -2.4818 -0.3374 -0.6276
  297MOL0     H40089   7.150   2.780   7.114 -0.1567 -2.3412 -1.2744
  297MOL0     H40090   7.288   2.677   7.152 -0.3753 -1.6829  2.3606
  297MOL0     H40091   7.401   2.869   7.049 -0.4684  4.3230 -0.6064
  297MOL0     H40092   7.434   2.878   7.219 -0.0093 -1.6991 -0.7930
  297MOL0     H40093   7.214   3.224   7.110 -0.4395  0.1752  2.7333
  297MOL0     H40094   7.013   2.517   7.592 -0.4050  0.6193 -0.5621
  297MOL0     H40095   6.811   2.448   7.719 -1.1451 -0.2712 -0.0814
  298MOL0     O40096   0.197   9.709  11.230 -0.6956  0.1752 -0.5306
  298MOL0     C40097   0.082   9.745  11.236  0.9633  0.0128  0.0727
  298MOL0     O40098  -0.025   9.658  11.225  0.3049  0.8015 -0.3006
  298MOL0     C40099  -0.002   9.528  11.207  0.3877  0.3843  0.0170
  298MOL0     C40100   0.001   9.447  11.324  0.0178 -0.6324 -0.0240
  298MOL0     C40101   0.014   9.307  11.318  0.2088  1.0086 -0.4599
  298MOL0     C40102   0.029   9.242  11.200 -0.2051 -0.3139  0.8091
  298MOL0     O40103   0.064   9.106  11.180 -0.0031 -0.3241 -0.0966
  298MOL0     C40104  -0.026   9.012  11.123  0.2400  0.1717 -0.5886
  298MOL0     C40105  -0.135   8.993  11.228  0.7656 -0.1733 -0.0140
  298MOL0     C40106  -0.087   8.935  11.364  0.0401  0.2303 -0.0434
  298MOL0     C40107  -0.203   8.894  11.451 -2.2019  0.2461  0.6502
  298MOL0     C40108  -0.181   8.892  11.604 -0.2208  1.2957  0.5973
  298MOL0     C40109  -0.306   8.834  11.676 -0.2717  0.1143 -0.6645
  298MOL0     C40110  -0.288   8.846  11.825 -0.2762 -0.0432  1.1589
  298MOL0     C40111  -0.368   8.729  11.898 -0.4767 -0.4002 -0.0206
  298MOL0     N40112  -0.304   8.596  11.883  0.0691  0.1124  0.2399
  298MOL0     C40113  -0.171   8.582  11.878  0.3414 -1.1557  0.4144
  298MOL0     C40114  -0.148   8.449  11.899  0.0656 -0.6550  0.4106
  298MOL0     C40115  -0.022   8.380  11.925 -0.8165  0.2060 -0.1135
  298MOL0     C40116   0.004   8.275  11.820 -0.1252  0.5978 -0.4970
  298MOL0     C40117   0.145   8.294  11.755 -0.0214 -0.7763  0.1281
  298MOL0     C40118   0.243   8.240  11.854 -0.4515  0.1230  0.0856
  298MOL0     O40119   0.367   8.279  11.789 -0.3081  0.0409  0.3218
  298MOL0     C40120   0.486   8.238  11.843  0.6696 -0.4065  0.5274
  298MOL0     C40121   0.611   8.291  11.799 -0.2440 -0.5344  1.2090
  298MOL0     C40122   0.745   8.276  11.857  0.2457 -0.8709  0.0834
  298MOL0     C40123   0.862   8.364  11.818 -0.2939  0.1284  0.3361
  298MOL0     C40124   0.746   8.179  11.962 -0.6764  1.0226  0.0424
  298MOL0     C40125   0.879   8.119  12.016 -0.3223  0.1715 -0.1064
  298MOL0     O40126   0.992   8.181  11.985  0.1659  0.3490  0.4579
  298MOL0     C40127   1.111   8.133  12.041 -0.2284 -0.6054 -0.9191
  298MOL0     C40128   1.131   8.103  12.180 -0.1172 -0.0273 -0.0143
  298MOL0     C40129   1.265   8.068  12.220  0.1681  0.4995 -0.3943
  298MOL0     C40130   1.367   8.067  12.133 -1.0034 -0.2399 -0.8075
  298MOL0     O40131   1.487   8.020  12.186  0.7997  0.5478  1.0598
  298MOL0     C40132   1.574   7.948  12.092  0.8727  0.4774  0.1809
  298MOL0     C40133   1.685   7.868  12.163 -0.1711  0.9108 -0.8611
  298MOL0     C40134   1.769   7.973  12.234  0.5839  0.9390  0.4564
  298MOL0     C40135   1.877   7.907  12.316 -0.1083  0.5864 -0.0126
  298MOL0     C40136   1.972   8.000  12.392 -0.0746  0.3760 -0.0160
  298MOL0     C40137   1.917   8.114  12.486  0.7728  0.3505 -0.0639
  298MOL0     C40138   2.042   8.189  12.551 -0.3037  0.5359 -0.2515
  298MOL0     C40139   2.011   8.293  12.660  0.6599  0.2104  0.9156
  298MOL0    Cl40140   2.171   8.361  12.724 -0.1634  0.0705  0.1778
  298MOL0     C40141   1.358   8.109  12.008  0.4875 -0.0286  0.5792
  298MOL0     C40142   1.232   8.144  11.957 -0.3123  0.7894  0.1079
  298MOL0     O40143   0.866   8.031  12.099  0.2666 -0.0258 -0.4457
  298MOL0     C40144   0.619   8.118  12.007 -0.9220  0.6520 -0.0194
  298MOL0     C40145   0.494   8.150  11.955 -0.1070  0.2640  0.2493
  298MOL0     N40146  -0.273   8.393  11.907  0.0877  0.7658 -0.1932
  298MOL0     N40147  -0.366   8.477  11.900 -0.2801 -0.6001 -0.1179
  298MOL0     C40148   0.017   9.320  11.088 -0.4402  0.3596  0.5130
  298MOL0     C40149   0.018   9.461  11.083 -0.6700 -0.4483  0.3454
  298MOL0     C40150   0.046   9.879  11.265  0.0772  0.5224 -0.6464
  298MOL0     C40151   0.145   9.962  11.320 -0.5376  0.3173  0.9301
  298MOL0     C40152   0.123  10.101  11.329 -0.6429  0.7320 -0.0120
  298MOL0     C40153  -0.000  10.154  11.291  0.2735  0.6647  0.4009
  298MOL0     O40154  -0.031  10.284  11.297 -0.1871 -0.1620  0.0769
  298MOL0     C40155   0.040  10.362  11.402 -0.2534  0.3745  0.6450
  298MOL0     C40156  -0.051  10.478  11.437 -0.4417  0.4032 -0.7400
  298MOL0     C40157  -0.020  10.582  11.331 -0.1954  0.5659 -0.2739
  298MOL0     C40158  -0.099  10.711  11.361  0.3313  0.6172 -0.3440
  298MOL0     C40159  -0.050  10.780  11.477  0.4109 -1.2686  0.5248
  298MOL0     C40160  -0.011  10.855  11.563  0.0279 -0.2263  0.9667
  298MOL0     C40161  -0.101  10.067  11.251  0.2307 -0.1438 -0.5556
  298MOL0     C40162  -0.083   9.927  11.237 -0.8876 -0.8434 -0.4217
  298MOL0     H40163   0.004   9.495  11.421  3.0253 -0.0263 -0.3384
  298MOL0     H40164   0.014   9.262  11.417 -0.3340  2.3701  0.1808
  298MOL0     H40165  -0.063   9.046  11.026  1.9027  0.2109 -1.2523
  298MOL0     H40166   0.034   8.921  11.110  3.0661  1.4449  2.2246
  298MOL0     H40167  -0.195   9.084  11.236 -0.0919 -0.8747  2.4374
  298MOL0     H40168  -0.202   8.919  11.182  0.1104  0.2997  0.1626
  298MOL0     H40169  -0.010   8.859  11.350 -1.0984 -1.1014  0.6411
  298MOL0     H40170  -0.040   9.023  11.408 -0.4238  0.7569 -0.5775
  298MOL0     H40171  -0.297   8.948  11.437 -0.4152  3.9574  1.6101
  298MOL0     H40172  -0.218   8.789  11.425  1.5172  0.0270 -1.3494
  298MOL0     H40173  -0.087   8.841  11.628 -0.0557  2.2187  2.0567
  298MOL0     H40174  -0.176   8.998  11.631 -1.0482  1.2339  1.0209
  298MOL0     H40175  -0.401   8.884  11.655 -0.7834 -0.5069  0.0937
  298MOL0     H40176  -0.324   8.728  11.655 -1.0941  0.0298  0.3698
  298MOL0     H40177  -0.180   8.851  11.841  0.0362  0.8631 -0.9888
  298MOL0     H40178  -0.316   8.948  11.850  2.3767  2.0108 -3.1587
  298MOL0     H40179  -0.475   8.729  11.876 -0.4148  0.1094 -0.3499
  298MOL0     H40180  -0.356   8.751  12.005 -2.3405 -0.3983  0.2301
  298MOL0     H40181  -0.097   8.661  11.872 -1.6914  0.9171  1.2548
  298MOL0     H40182   0.052   8.461  11.926  0.8031 -1.2279  1.0909
  298MOL0     H40183  -0.007   8.335  12.024  1.6822 -0.6155 -0.7890
  298MOL0     H40184  -0.064   8.303  11.738  1.1321 -0.4813 -1.9649
  298MOL0     H40185  -0.006   8.179  11.872 -0.9617  1.9835  2.0657
  298MOL0     H40186   0.161   8.401  11.737  0.5391 -1.2067 -2.3180
  298MOL0     H40187   0.139   8.241  11.659 -2.3007  0.5361 -0.5395
  298MOL0     H40188   0.231   8.133  11.872  0.4554 -0.0008 -0.0287
  298MOL0     H40189   0.238   8.292  11.950 -0.7216  0.2034  0.0308
  298MOL0     H40190   0.609   8.364  11.719  2.0161  0.0541  1.6203
  298MOL0     H40191   0.917   8.297  11.752 -3.9565 -1.0039 -1.8459
  298MOL0     H40192   0.841   8.447  11.750  2.6902  1.5769  1.0191
  298MOL0     H40193   0.920   8.404  11.902 -0.3371 -1.3885  1.1383
  298MOL0     H40194   1.040   8.095  12.238 -1.7966  1.8989 -2.1820
  298MOL0     H40195   1.284   8.029  12.320  1.4162 -0.1408 -0.8593
  298MOL0     H40196   1.524   7.882  12.021  1.3106  0.3861 -0.0427
  298MOL0     H40197   1.616   8.017  12.018 -0.3895 -0.7429 -1.7795
  298MOL0     H40198   1.650   7.802  12.243  1.6676  4.3714  3.2213
  298MOL0     H40199   1.744   7.812  12.090  1.0591  1.3782 -0.2497
  298MOL0     H40200   1.711   8.028  12.309 -0.5730  2.5974 -1.5710
  298MOL0     H40201   1.810   8.042  12.160 -3.0563  2.1766 -0.5941
  298MOL0     H40202   1.825   7.846  12.392 -0.3078  0.4235 -0.2779
  298MOL0     H40203   1.945   7.847  12.255 -0.4917 -1.7159  1.6625
  298MOL0     H40204   2.045   8.038  12.320  0.0974  1.2505  0.5992
  298MOL0     H40205   2.016   7.924  12.457 -1.2374  1.4815  2.2037
  298MOL0     H40206   1.857   8.181  12.423  1.6786  0.7030 -0.5769
  298MOL0     H40207   1.858   8.064  12.563  0.1479  0.1707 -0.6504
  298MOL0     H40208   2.101   8.239  12.473 -0.0673  1.2847  0.3941
  298MOL0     H40209   2.113   8.114  12.587 -0.7285  0.1016 -0.3164
  298MOL0     H40210   1.955   8.240  12.736 -0.8742 -1.7893 -1.4637
  298MOL0     H40211   1.944   8.372  12.624  0.4841  0.0907  0.9779
  298MOL0     H40212   1.442   8.110  11.939  2.3423 -2.8704  2.5460
  298MOL0     H40213   1.224   8.197  11.863 -0.4973  2.1993  0.8978
  298MOL0     H40214   0.609   8.048  12.089  0.0276 -1.6387 -1.7339
  298MOL0     H40215   0.406   8.114  12.009 -0.2875  0.1998 -0.0870
  298MOL0     H40216   0.018   9.264  10.995 -4.2380  1.9351 -0.6480
  298MOL0     H40217   0.015   9.516  10.990 -0.1956  1.4694  1.4160
  298MOL0     H40218   0.247   9.929  11.334  0.4391  1.6940 -2.0447
  298MOL0     H40219   0.214  10.153  11.357  0.1964 -1.0437  0.7978
  298MOL0     H40220   0.058  10.291  11.483  1.5727 -1.4941 -1.2715
  298MOL0     H40221   0.140  10.394  11.369 -1.4073  0.1434 -3.6587
  298MOL0     H40222  -0.035  10.509  11.541 -2.1558 -0.5744 -0.1480
  298MOL0     H40223  -0.155  10.446  11.427  0.2944 -2.0062 -1.4067
  298MOL0     H40224  -0.048  10.541  11.233  1.9290  1.5059 -1.3555
  298MOL0     H40225   0.089  10.596  11.325 -0.2683  0.6606 -2.1910
  298MOL0     H40226  -0.204  10.696  11.386  0.7787  2.0997  3.0567
  298MOL0     H40227  -0.084  10.779  11.277  1.7363  0.5446 -0.1908
  298MOL0     H40228   0.028  10.935  11.622  0.0630  1.6414 -1.4106
  298MOL0     H40229  -0.198  10.111  11.225  0.2347 -0.9771 -2.0989
  298MOL0     H40230  -0.162   9.858  11.209  0.0054 -3.5148  2.9201
  299MOL0     O40231   0.055   1.461   4.352  0.6310 -0.3004 -0.6072
  299MOL0     C40232   0.142   1.385   4.388  0.2036  0.2039 -0.7492
  299MOL0     O40233   0.242   1.411   4.470 -0.2519 -0.0067  0.3609
  299MOL0     C40234   0.243   1.542   4.516  0.1930 -0.3507  0.5881
  299MOL0     C40235   0.328   1.645   4.457  0.4538 -0.7446  0.6278
  299MOL0     C40236   0.332   1.774   4.503 -0.6095  0.4186 -0.9559
  299MOL0     C40237   0.280   1.799   4.633 -0.0488  0.8031 -0.3093
  299MOL0     O40238   0.312   1.919   4.687  0.9748  0.4457  0.0670
  299MOL0     C40239   0.243   1.962   4.806  0.0225 -0.2951  0.1331
  299MOL0     C40240   0.303   2.097   4.852 -0.3533 -1.0363  0.3103
  299MOL0     C40241   0.221   2.212   4.797 -0.1573 -0.0617  0.2795
  299MOL0     C40242   0.096   2.255   4.885 -0.3465 -0.8082  0.3874
  299MOL0     C40243  -0.014   2.328   4.809 -0.8409  0.4476  1.5425
  299MOL0     C40244  -0.121   2.405   4.899 -0.0230  0.1819 -0.3840
  299MOL0     C40245  -0.211   2.474   4.807 -0.2289 -0.3967  1.2440
  299MOL0     C40246  -0.285   2.604   4.866  0.0715 -0.3312 -0.6547
  299MOL0     N40247  -0.408   2.563   4.940  0.6507 -0.6740  0.1580
  299MOL0     C40248  -0.540   2.606   4.910 -0.3284  0.6201 -0.0167
  299MOL0     C40249  -0.618   2.523   4.975 -0.6524  0.0746  1.0459
  299MOL0     C40250  -0.768   2.523   4.963  0.1373 -0.0114 -0.1589
  299MOL0     C40251  -0.812   2.434   4.853 -1.2619  0.2785 -0.5256
  299MOL0     C40252  -0.965   2.444   4.825 -0.4701  0.2876 -0.8477
  299MOL0     C40253  -1.018   2.359   4.708  0.5829 -0.1005 -0.3887
  299MOL0     O40254  -0.990   2.224   4.737  0.8164  0.4427 -0.4639
  299MOL0     C40255  -1.022   2.142   4.629  1.5143 -0.5686  0.2054
  299MOL0     C40256  -0.984   2.162   4.493  0.1807 -0.1029  0.1763
  299MOL0     C40257  -1.039   2.088   4.386  0.3836 -0.6807  0.6385
  299MOL0     C40258  -1.001   2.133   4.245 -0.6045 -0.5653 -0.0474
  299MOL0     C40259  -1.122   1.972   4.411  0.9033 -0.6910 -0.9973
  299MOL0     C40260  -1.170   1.876   4.305  0.3146 -0.0128 -0.2094
  299MOL0     O40261  -1.283   1.805   4.343 -0.1743  0.0440 -0.0551
  299MOL0     C40262  -1.360   1.737   4.251  0.1651  0.7788  1.0390
  299MOL0     C40263  -1.371   1.753   4.114  0.0147  1.2607  0.2763
  299MOL0     C40264  -1.446   1.658   4.036 -0.4079 -0.7811 -0.0831
  299MOL0     C40265  -1.513   1.556   4.094  0.6125 -0.1283 -0.2744
  299MOL0     O40266  -1.587   1.475   4.007  0.0280  0.8002 -0.3115
  299MOL0     C40267  -1.661   1.355   4.061  0.5596  0.0176 -0.2572
  299MOL0     C40268  -1.765   1.308   3.948 -0.9169 -0.5925  1.1229
  299MOL0     C40269  -1.690   1.253   3.821  0.0172  0.4728 -0.7558
  299MOL0     C40270  -1.776   1.284   3.697 -0.4623  0.1640 -0.0771
  299MOL0     C40271  -1.698   1.304   3.563 -0.4767 -1.0622  0.2028
  299MOL0     C40272  -1.640   1.180   3.506 -0.3142  0.9999 -0.4038
  299MOL0     C40273  -1.580   1.200   3.370 -0.2963 -0.4220  0.5759
  299MOL0     C40274  -1.681   1.189   3.248  0.0250 -0.1368 -0.3146
  299MOL0    Cl40275  -1.604   1.251   3.105  0.3026  0.4986  0.2312
  299MOL0     C40276  -1.512   1.546   4.233 -0.2769  0.8782 -0.4076
  299MOL0     C40277  -1.437   1.633   4.312 -0.2977  1.0353 -0.5506
  299MOL0     O40278  -1.122   1.870   4.198  0.2888 -0.1067  0.0936
  299MOL0     C40279  -1.145   1.940   4.545  0.1860  0.3621  0.0522
  299MOL0     C40280  -1.099   2.025   4.645 -0.0730  0.9427  0.5319
  299MOL0     N40281  -0.549   2.433   5.048  0.0132 -0.5647 -0.3034
  299MOL0     N40282  -0.422   2.465   5.029  0.0100  0.8419  0.3344
  299MOL0     C40283   0.204   1.703   4.691 -0.5533  0.5370 -0.2152
  299MOL0     C40284   0.192   1.578   4.635 -0.0824  0.4538  0.0706
  299MOL0     C40285   0.103   1.242   4.356  0.5838  0.4112  0.1129
  299MOL0     C40286   0.189   1.142   4.365  0.2267 -0.0368 -0.5223
  299MOL0     C40287   0.165   1.007   4.351 -0.0356 -0.1221 -0.2095
  299MOL0     C40288   0.032   0.968   4.322  0.8558 -0.5276 -0.4631
  299MOL0     O40289  -0.021   0.838   4.301 -0.2504 -0.7708 -0.7604
  299MOL0     C40290   0.062   0.730   4.361  1.1477 -0.4836 -0.2586
  299MOL0     C40291   0.050   0.725   4.509  0.4756 -0.0926 -0.8220
  299MOL0     C40292   0.130   0.605   4.560 -0.1668  0.3925 -0.4661
  299MOL0     C40293   0.052   0.467   4.563  0.3291  0.0875 -0.0063
  299MOL0     C40294  -0.058   0.452   4.653 -0.3113  0.4684  0.2536
  299MOL0     C40295  -0.147   0.443   4.734 -0.2690  1.0703  0.2492
  299MOL0     C40296  -0.060   1.072   4.297 -0.5966  0.3313 -0.3499
  299MOL0     C40297  -0.025   1.206   4.317 -0.2469 -0.6350 -0.0613
  299MOL0     H40298   0.392   1.610   4.376  0.8194 -0.6466  0.8730
  299MOL0     H40299   0.398   1.835   4.441 -0.1099 -1.1632 -2.0503
  299MOL0     H40300   0.135   1.971   4.796 -0.1001  0.6983  1.9217
  299MOL0     H40301   0.266   1.894   4.889 -1.7595  1.1949  1.9602
  299MOL0     H40302   0.295   2.110   4.961 -1.3270  2.7472 -0.0873
  299MOL0     H40303   0.409   2.102   4.823 -0.7318  1.6711 -0.8477
  299MOL0     H40304   0.286   2.300   4.799 -0.9921  0.6655 -1.7318
  299MOL0     H40305   0.195   2.192   4.693 -0.9179 -0.8337  0.6041
  299MOL0     H40306   0.052   2.165   4.929 -0.1467 -0.3307  1.5837
  299MOL0     H40307   0.131   2.316   4.968 -0.4735 -0.1984 -0.0048
  299MOL0     H40308   0.030   2.401   4.739  1.1761 -1.6542  0.4839
  299MOL0     H40309  -0.063   2.248   4.752  0.9324  0.5284 -0.2199
  299MOL0     H40310  -0.175   2.328   4.956  0.2459 -0.4901 -1.0170
  299MOL0     H40311  -0.061   2.465   4.968 -0.8158  0.5772 -0.0404
  299MOL0     H40312  -0.156   2.499   4.716 -1.9333 -1.6994 -0.2255
  299MOL0     H40313  -0.280   2.403   4.760 -0.0824  0.4591 -0.3258
  299MOL0     H40314  -0.309   2.683   4.795 -0.1085  1.3497  1.2033
  299MOL0     H40315  -0.224   2.654   4.942 -0.8986 -0.6256  0.3567
  299MOL0     H40316  -0.578   2.688   4.849  2.1550  2.7190  1.0511
  299MOL0     H40317  -0.817   2.498   5.057 -1.3952  2.9377 -0.0482
  299MOL0     H40318  -0.812   2.623   4.953  0.2023 -0.1924 -3.5922
  299MOL0     H40319  -0.790   2.330   4.879  0.6880 -0.0174 -2.9189
  299MOL0     H40320  -0.759   2.446   4.757 -2.3177 -0.6433 -1.2513
  299MOL0     H40321  -0.991   2.550   4.815  2.9792  1.4317  0.5139
  299MOL0     H40322  -1.013   2.415   4.918  0.2034  0.6000 -0.3927
  299MOL0     H40323  -0.962   2.389   4.618 -0.7173 -0.6267 -1.3942
  299MOL0     H40324  -1.127   2.357   4.701  0.5317 -2.8730  0.1555
  299MOL0     H40325  -0.930   2.253   4.472 -0.3963  0.3622  0.6815
  299MOL0     H40326  -0.938   2.223   4.252 -2.5095  0.7277  1.3920
  299MOL0     H40327  -0.939   2.062   4.190  1.2222  0.8364  0.0771
  299MOL0     H40328  -1.092   2.150   4.188  0.8404  2.0777 -1.7946
  299MOL0     H40329  -1.320   1.822   4.048 -1.1395 -0.5954 -2.8122
  299MOL0     H40330  -1.453   1.686   3.931 -1.2753 -0.4956  0.0438
  299MOL0     H40331  -1.592   1.271   4.070 -2.1020 -2.2151  0.8988
  299MOL0     H40332  -1.715   1.388   4.150 -0.1958 -0.3943 -0.5446
  299MOL0     H40333  -1.831   1.229   3.986 -0.5820 -2.0382 -1.1631
  299MOL0     H40334  -1.826   1.399   3.941  0.5835  0.5716  2.4238
  299MOL0     H40335  -1.672   1.146   3.828 -1.8364  0.1179 -1.0478
  299MOL0     H40336  -1.588   1.291   3.807  0.2235 -0.2928 -1.4501
  299MOL0     H40337  -1.842   1.200   3.672 -2.1047  1.8021 -1.5661
  299MOL0     H40338  -1.844   1.368   3.718 -3.9369 -2.0909 -1.3784
  299MOL0     H40339  -1.615   1.372   3.590 -0.3917 -1.5382  1.1744
  299MOL0     H40340  -1.756   1.365   3.493 -0.2346  1.0543  1.7367
  299MOL0     H40341  -1.559   1.150   3.572  1.1657 -1.7648 -3.2095
  299MOL0     H40342  -1.708   1.095   3.494  0.8932  0.0790 -0.8917
  299MOL0     H40343  -1.508   1.120   3.350  1.0094  1.4984 -3.4900
  299MOL0     H40344  -1.510   1.283   3.360  0.2837 -0.9657  0.0855
  299MOL0     H40345  -1.771   1.247   3.270  1.0321  0.3643  3.2412
  299MOL0     H40346  -1.698   1.084   3.225  3.2591 -1.3854  2.1222
  299MOL0     H40347  -1.560   1.458   4.276  0.6878  1.0984  1.2072
  299MOL0     H40348  -1.441   1.627   4.420  0.8804 -1.5837 -0.5959
  299MOL0     H40349  -1.208   1.861   4.582 -1.4841  0.7082 -1.8827
  299MOL0     H40350  -1.118   1.996   4.748  1.6003 -3.2391 -0.1335
  299MOL0     H40351   0.159   1.732   4.786  1.9706 -0.9643  1.5800
  299MOL0     H40352   0.154   1.496   4.696  0.4857 -2.3560 -3.0767
  299MOL0     H40353   0.289   1.175   4.388  0.8760 -2.0490 -0.2825
  299MOL0     H40354   0.243   0.932   4.367 -2.1811 -2.2613  0.9595
  299MOL0     H40355   0.031   0.628   4.338  2.7962 -1.2976  0.9369
  299MOL0     H40356   0.167   0.750   4.336  1.5787  1.2810  2.4757
  299MOL0     H40357  -0.057   0.713   4.527  0.1832  2.7211 -0.3182
  299MOL0     H40358   0.093   0.810   4.562  4.6228 -1.5174 -1.4322
  299MOL0     H40359   0.173   0.633   4.657  5.4349  2.6836 -3.1351
  299MOL0     H40360   0.221   0.604   4.500 -0.4138 -0.1440 -0.8349
  299MOL0     H40361   0.121   0.382   4.563  2.7338  1.9272  0.6763
  299MOL0     H40362   0.001   0.466   4.466 -0.2161 -0.3968  0.2818
  299MOL0     H40363  -0.230   0.434   4.801  1.1366 -2.2786  1.7813
  299MOL0     H40364  -0.156   1.044   4.253 -0.3158  0.5694 -1.1296
  299MOL0     H40365  -0.093   1.289   4.304 -1.8213 -1.5483  1.8405
  300MOL0     O40366   4.022   2.688  11.232 -0.7939  0.2530  0.6373
  300MOL0     C40367   3.966   2.650  11.333  0.1224 -0.4852  0.5313
  300MOL0     O40368   3.852   2.722  11.387 -0.0294  0.0711  0.0548
  300MOL0     C40369   3.817   2.841  11.321  0.6428  1.6911  1.1937
  300MOL0     C40370   3.899   2.951  11.302  0.5719  0.9510 -0.2864
  300MOL0     C40371   3.864   3.063  11.236 -0.0981  0.1121 -0.0358
  300MOL0     C40372   3.742   3.079  11.186 -0.2287 -0.1841 -0.3471
  300MOL0     O40373   3.727   3.199  11.112  0.5256 -0.2379  0.0188
  300MOL0     C40374   3.587   3.249  11.091 -0.5236  0.2450 -1.0491
  300MOL0     C40375   3.612   3.404  11.051 -0.2547 -0.4525 -0.8533
  300MOL0     C40376   3.489   3.442  10.979  0.2439 -0.5408  0.6251
  300MOL0     C40377   3.475   3.588  10.959  0.6313 -0.1744  0.6400
  300MOL0     C40378   3.387   3.626  10.842  0.0692 -0.0032 -0.5600
  300MOL0     C40379   3.461   3.599  10.703  1.2002  0.1229 -0.3576
  300MOL0     C40380   3.391   3.677  10.597 -0.2177  0.1950 -0.6996
  300MOL0     C40381   3.236   3.659  10.571 -0.3101  0.2014  0.3047
  300MOL0     N40382   3.191   3.752  10.462  0.4329 -0.6536  0.1385
  300MOL0     C40383   3.210   3.734  10.329 -0.1636  0.1844  0.0750
  300MOL0     C40384   3.116   3.819  10.280  0.4847  0.8791  0.4316
  300MOL0     C40385   3.093   3.818  10.129 -0.1942 -0.6798 -0.3621
  300MOL0     C40386   3.067   3.951  10.058  0.2783 -0.3874 -0.1790
  300MOL0     C40387   2.953   3.952   9.959  0.6226 -0.7724 -0.1805
  300MOL0     C40388   2.967   4.075   9.871  0.6696  0.8811  0.9771
  300MOL0     O40389   2.873   4.067   9.761 -0.3298 -0.4290 -0.1564
  300MOL0     C40390   2.799   4.175   9.715  0.1295 -0.1258 -0.5213
  300MOL0     C40391   2.681   4.147   9.651  0.0221 -0.3655  0.3563
  300MOL0     C40392   2.593   4.250   9.608  1.1521  0.4701 -0.9015
  300MOL0     C40393   2.471   4.190   9.543  0.2631  0.1162 -0.6310
  300MOL0     C40394   2.622   4.378   9.631  0.5586  0.5943 -0.8166
  300MOL0     C40395   2.531   4.487   9.596  0.3458 -0.1101  0.3905
  300MOL0     O40396   2.437   4.468   9.505  0.1129 -0.2040  0.0110
  300MOL0     C40397   2.361   4.578   9.460  0.1665 -0.4159 -1.3257
  300MOL0     C40398   2.404   4.673   9.367 -0.0707 -0.6094 -0.5244
  300MOL0     C40399   2.317   4.776   9.321 -0.1965  0.3898 -0.9124
  300MOL0     C40400   2.196   4.801   9.377 -0.4625  0.6161 -1.2592
  300MOL0     O40401   2.112   4.892   9.322 -0.0734  0.5161 -0.0674
  300MOL0     C40402   2.169   5.015   9.277 -0.0586  0.5921  0.3479
  300MOL0     C40403   2.160   5.119   9.391  0.3724 -0.6357  0.0350
  300MOL0     C40404   2.286   5.112   9.490 -0.2586 -0.1865  0.2883
  300MOL0     C40405   2.266   5.022   9.614  0.7427 -0.2511  0.1306
  300MOL0     C40406   2.384   5.034   9.715  0.2399 -0.5794 -0.1854
  300MOL0     C40407   2.517   4.985   9.653  0.4937  1.1324 -0.7006
  300MOL0     C40408   2.639   4.995   9.756  0.2910 -0.3966  0.3490
  300MOL0     C40409   2.761   4.938   9.687  0.3732 -0.1280 -0.0588
  300MOL0    Cl40410   2.835   5.059   9.570  0.2374 -0.0203 -0.0333
  300MOL0     C40411   2.153   4.715   9.481  0.8340 -0.2794  0.8288
  300MOL0     C40412   2.229   4.597   9.520 -0.4189 -0.1664  0.1429
  300MOL0     O40413   2.561   4.595   9.641  1.2175 -0.5385  0.1877
  300MOL0     C40414   2.748   4.413   9.678 -0.7067  0.5050  0.2980
  300MOL0     C40415   2.836   4.315   9.724 -0.1182  0.6622 -1.0068
  300MOL0     N40416   3.032   3.866  10.381 -0.8411 -0.1058 -0.2081
  300MOL0     N40417   3.089   3.832  10.491  0.0858  0.7207  0.0122
  300MOL0     C40418   3.641   2.978  11.211 -0.6421 -0.2261 -0.0974
  300MOL0     C40419   3.684   2.863  11.277 -0.5061 -0.1780 -0.9359
  300MOL0     C40420   4.024   2.540  11.414  0.3298 -0.4884  0.1259
  300MOL0     C40421   4.129   2.465  11.354  0.7423  0.3757 -0.1502
  300MOL0     C40422   4.178   2.356  11.422 -0.2019 -0.1900  0.0887
  300MOL0     C40423   4.122   2.308  11.529  0.0930 -0.5457 -0.3236
  300MOL0     O40424   4.162   2.188  11.593  0.4061 -0.9508  0.8669
  300MOL0     C40425   4.230   2.074  11.528 -0.3109  0.2465 -0.1465
  300MOL0     C40426   4.263   1.959  11.629 -1.0695 -0.3416 -0.2901
  300MOL0     C40427   4.317   1.831  11.549 -0.2094  0.6431  0.2660
  300MOL0     C40428   4.335   1.716  11.647 -0.3531 -0.1754 -1.0728
  300MOL0     C40429   4.369   1.590  11.585  0.4764 -0.6558 -0.3628
  300MOL0     C40430   4.403   1.506  11.508 -0.0644 -0.1851 -0.8626
  300MOL0     C40431   4.006   2.374  11.584  0.5767 -0.5392  0.4533
  300MOL0     C40432   3.966   2.497  11.537  0.1797 -0.5108  0.1334
  300MOL0     H40433   4.003   2.946  11.334  1.1154 -1.9296 -2.0695
  300MOL0     H40434   3.940   3.138  11.219  0.0565 -0.3087 -1.3369
  300MOL0     H40435   3.541   3.197  11.006  3.0253 -2.8583 -1.2986
  300MOL0     H40436   3.517   3.236  11.175 -3.2364 -0.6137 -3.2723
  300MOL0     H40437   3.623   3.467  11.140  0.3104  1.4569 -2.2194
  300MOL0     H40438   3.692   3.420  10.978 -1.6287 -1.5519 -2.6869
  300MOL0     H40439   3.500   3.392  10.882  1.5457 -0.9064  0.9463
  300MOL0     H40440   3.398   3.414  11.033 -0.6053  1.6035  0.4072
  300MOL0     H40441   3.438   3.633  11.051 -1.6051 -2.2805  0.8628
  300MOL0     H40442   3.573   3.630  10.932  1.7756 -3.8884 -1.9164
  300MOL0     H40443   3.290   3.576  10.847 -0.5067  1.1457  0.3608
  300MOL0     H40444   3.364   3.733  10.848 -4.2762 -0.7144 -0.9166
  300MOL0     H40445   3.566   3.629  10.707  0.9335  0.9476  2.0493
  300MOL0     H40446   3.458   3.492  10.685  1.1011 -0.2377  1.6091
  300MOL0     H40447   3.419   3.780  10.619  0.0454  0.1779 -0.9567
  300MOL0     H40448   3.447   3.643  10.510  0.3140 -1.7751  0.3475
  300MOL0     H40449   3.189   3.700  10.661 -0.0303  0.6405  0.2531
  300MOL0     H40450   3.202   3.558  10.544  0.8310 -0.7320  2.1178
  300MOL0     H40451   3.263   3.655  10.277 -2.2345 -1.6885  0.6016
  300MOL0     H40452   3.163   3.749  10.081  1.1592 -0.8050  1.6520
  300MOL0     H40453   2.993   3.773  10.125 -0.2363 -0.8933  1.8383
  300MOL0     H40454   3.161   3.980  10.009 -0.2401  5.4256  1.4998
  300MOL0     H40455   3.040   4.015  10.142 -3.2988 -1.1704 -0.6008
  300MOL0     H40456   2.859   3.967  10.014 -0.2787  1.3776 -2.1089
  300MOL0     H40457   2.940   3.862   9.898 -2.4012  1.3977 -3.1469
  300MOL0     H40458   3.069   4.061   9.833  0.0235 -3.5949  0.2903
  300MOL0     H40459   2.955   4.160   9.938 -0.3000  1.2855  0.2955
  300MOL0     H40460   2.664   4.041   9.637 -0.1729 -0.5070  1.6021
  300MOL0     H40461   2.449   4.090   9.581  0.1386 -1.2238 -3.8754
  300MOL0     H40462   2.382   4.253   9.555 -0.2486 -0.9551  1.8984
  300MOL0     H40463   2.486   4.182   9.435 -0.1950 -0.1847 -0.6779
  300MOL0     H40464   2.501   4.658   9.320  0.7043 -0.4658  0.9791
  300MOL0     H40465   2.360   4.829   9.237 -0.5109  1.8948 -0.1505
  300MOL0     H40466   2.272   5.008   9.242 -0.7755  0.1030 -1.7830
  300MOL0     H40467   2.105   5.050   9.196  0.3868  1.4238  0.3336
  300MOL0     H40468   2.143   5.213   9.337  2.8033 -0.9993 -1.5047
  300MOL0     H40469   2.074   5.096   9.455  0.0806 -0.5782 -0.3341
  300MOL0     H40470   2.304   5.213   9.527 -5.7670  2.0509 -1.9965
  300MOL0     H40471   2.371   5.064   9.441 -1.6404 -3.2184  0.5627
  300MOL0     H40472   2.179   5.047   9.674  2.0503 -0.0969  2.0645
  300MOL0     H40473   2.268   4.917   9.585  0.3897 -0.0997 -0.4568
  300MOL0     H40474   2.364   4.978   9.806 -2.2194  0.7132  0.1432
  300MOL0     H40475   2.394   5.140   9.743  0.7749 -0.7297  0.2123
  300MOL0     H40476   2.512   4.882   9.616  1.2565  0.6131  0.5877
  300MOL0     H40477   2.540   5.044   9.564 -0.7650 -1.3469 -2.8220
  300MOL0     H40478   2.609   4.936   9.843  3.0035  0.9512  2.3262
  300MOL0     H40479   2.652   5.094   9.801 -0.5700  0.0519 -0.3423
  300MOL0     H40480   2.733   4.839   9.649 -0.5000 -0.7853  2.1176
  300MOL0     H40481   2.839   4.923   9.762 -0.8428  3.6365  2.2122
  300MOL0     H40482   2.055   4.731   9.525  0.0904 -0.5486 -0.6765
  300MOL0     H40483   2.187   4.531   9.596 -1.0738 -1.8173 -1.5716
  300MOL0     H40484   2.785   4.513   9.700 -0.3358 -0.2081  3.3483
  300MOL0     H40485   2.935   4.327   9.767 -0.9388 -0.3602  1.3417
  300MOL0     H40486   3.536   2.998  11.194 -1.3293 -1.5837  2.1935
  300MOL0     H40487   3.627   2.771  11.292  0.5286 -1.0936 -2.3608
  300MOL0     H40488   4.167   2.484  11.255 -0.3887 -0.8253 -0.8493
  300MOL0     H40489   4.265   2.308  11.377 -2.3175 -2.8298 -1.4723
  300MOL0     H40490   4.169   2.038  11.445  2.5216 -0.3457 -2.0994
  300MOL0     H40491   4.322   2.105  11.479 -1.3231  1.9139 -1.1012
  300MOL0     H40492   4.170   1.925  11.677 -0.2418 -2.0563  0.1793
  300MOL0     H40493   4.326   1.985  11.714  0.5552 -0.5342 -1.3964
  300MOL0     H40494   4.412   1.860  11.503  0.7614  3.1358  3.4358
  300MOL0     H40495   4.237   1.804  11.480  0.5969 -0.7603 -0.1348
  300MOL0     H40496   4.236   1.697  11.690  0.2647  1.6638  1.3739
  300MOL0     H40497   4.404   1.734  11.730 -0.1839 -1.8310 -0.8124
  300MOL0     H40498   4.437   1.421  11.452 -2.9067 -0.5550 -2.1811
  300MOL0     H40499   3.953   2.326  11.665  0.8847  0.4497  1.2590
  300MOL0     H40500   3.884   2.548  11.585  0.1466  1.2982 -1.7057
  301MOL0     O40501   5.269   6.953   6.505 -0.1082 -0.4512 -0.5171
  301MOL0     C40502   5.195   6.901   6.585 -0.0749 -0.1672  1.0006
  301MOL0     O40503   5.124   6.966   6.687 -0.1314 -0.6985 -0.6334
  301MOL0     C40504   5.148   7.101   6.694  0.3601 -0.1242 -0.3053
  301MOL0     C40505   5.286   7.137   6.714  0.2500  0.3485 -0.6364
  301MOL0     C40506   5.314   7.259   6.781  0.0432  0.4656 -0.2152
  301MOL0     C40507   5.214   7.356   6.803 -0.2920 -0.1366  0.2533
  301MOL0     O40508   5.235   7.488   6.835 -0.0070 -0.4172  0.3934
  301MOL0     C40509   5.345   7.560   6.775  0.5601  0.8363  0.7131
  301MOL0     C40510   5.385   7.685   6.850  0.0269 -0.7613 -0.2161
  301MOL0     C40511   5.366   7.672   7.002 -0.3551 -0.5703 -0.4303
  301MOL0     C40512   5.487   7.606   7.080  1.1694  0.8000 -0.1480
  301MOL0     C40513   5.606   7.693   7.091  0.5515  0.7106 -0.4732
  301MOL0     C40514   5.585   7.847   7.107  0.0687 -0.0425 -0.1097
  301MOL0     C40515   5.721   7.917   7.123 -0.1211  0.7723  0.0241
  301MOL0     C40516   5.700   8.064   7.101 -0.3083  0.7449 -0.1500
  301MOL0     N40517   5.823   8.143   7.096  0.0024 -0.7768  0.1090
  301MOL0     C40518   5.911   8.163   7.201  0.0321 -0.3260  0.2891
  301MOL0     C40519   6.013   8.236   7.145  0.3190  0.0640  0.3025
  301MOL0     C40520   6.137   8.295   7.203 -0.4545  0.3607  0.0118
  301MOL0     C40521   6.264   8.237   7.137  0.2337  0.1816 -0.0711
  301MOL0     C40522   6.378   8.269   7.236  0.0506 -0.0320 -0.0937
  301MOL0     C40523   6.382   8.418   7.263 -0.2321 -0.7999  0.2164
  301MOL0     O40524   6.503   8.456   7.326 -0.2728 -0.2178 -0.1481
  301MOL0     C40525   6.618   8.491   7.257  0.1751  0.0355  0.1135
  301MOL0     C40526   6.634   8.474   7.121 -0.5746 -0.0245  0.6129
  301MOL0     C40527   6.750   8.486   7.046  0.4575  0.1356  0.0824
  301MOL0     C40528   6.745   8.443   6.894 -0.7234 -0.0348 -0.3828
  301MOL0     C40529   6.861   8.522   7.125 -0.2013  0.1899 -0.6422
  301MOL0     C40530   6.988   8.515   7.047 -0.9246 -0.0506  0.4788
  301MOL0     O40531   7.075   8.615   7.076 -0.7611 -0.4311  0.1225
  301MOL0     C40532   7.218   8.606   7.054  0.0775  0.8810  0.3769
  301MOL0     C40533   7.295   8.590   7.166 -0.5636 -1.0425 -0.1235
  301MOL0     C40534   7.431   8.563   7.141 -0.4655 -0.5623  0.3867
  301MOL0     C40535   7.489   8.557   7.005  1.0824  0.0603 -1.0806
  301MOL0     O40536   7.621   8.527   6.996 -0.5599  0.2610  0.0313
  301MOL0     C40537   7.706   8.630   6.943 -0.2385  0.1234  0.3183
  301MOL0     C40538   7.856   8.604   6.977  0.5781  0.4842 -1.0987
  301MOL0     C40539   7.946   8.705   6.914 -0.0070  0.5919  0.3626
  301MOL0     C40540   7.973   8.821   7.017  0.3463  0.2414  1.2203
  301MOL0     C40541   8.039   8.941   6.959 -0.2185  0.0648 -0.0332
  301MOL0     C40542   8.065   9.039   7.082 -0.1095  0.9885  0.6035
  301MOL0     C40543   8.114   9.184   7.053  0.1444 -0.2838 -0.2935
  301MOL0     C40544   8.121   9.256   7.192 -0.3746 -0.5013 -0.0713
  301MOL0    Cl40545   8.235   9.173   7.300  0.1608  0.1792 -0.0611
  301MOL0     C40546   7.408   8.572   6.897  0.4942 -0.2430 -0.1117
  301MOL0     C40547   7.268   8.588   6.925 -0.1036  0.4213  0.3875
  301MOL0     O40548   7.013   8.414   6.978 -0.4230 -0.4690  0.1592
  301MOL0     C40549   6.856   8.558   7.265  0.1339  0.2943 -0.0601
  301MOL0     C40550   6.727   8.538   7.324 -0.3756  0.4998 -0.5345
  301MOL0     N40551   5.988   8.241   7.007 -0.1792 -0.8530 -0.1772
  301MOL0     N40552   5.869   8.197   6.983 -0.5540 -0.0797  0.7074
  301MOL0     C40553   5.089   7.326   6.766  0.0262  0.4929  0.5471
  301MOL0     C40554   5.051   7.200   6.719 -0.3800 -0.3424  0.7510
  301MOL0     C40555   5.216   6.757   6.598 -0.2738  0.5816  0.0991
  301MOL0     C40556   5.330   6.692   6.526  0.3025  0.7644 -0.1514
  301MOL0     C40557   5.359   6.557   6.551 -0.0979  0.4143 -0.2348
  301MOL0     C40558   5.278   6.485   6.640 -0.5263  0.2602  0.7625
  301MOL0     O40559   5.290   6.354   6.685 -0.1234 -0.0863  0.2708
  301MOL0     C40560   5.386   6.275   6.615 -0.7420  0.0388  0.1293
  301MOL0     C40561   5.346   6.125   6.650 -0.4413 -0.4228  0.7556
  301MOL0     C40562   5.343   6.099   6.804 -0.6761 -0.2792 -0.0443
  301MOL0     C40563   5.295   5.959   6.844 -0.4436  0.1609 -0.5030
  301MOL0     C40564   5.384   5.853   6.793  0.8605 -1.2860 -0.2676
  301MOL0     C40565   5.459   5.781   6.738 -0.1809 -0.3195  0.4970
  301MOL0     C40566   5.164   6.547   6.701 -0.3647  0.5308 -0.8321
  301MOL0     C40567   5.137   6.679   6.680  0.4976 -1.0571  0.4841
  301MOL0     H40568   5.370   7.069   6.697 -0.0120 -0.2558  0.3587
  301MOL0     H40569   5.413   7.289   6.816  0.9829 -3.5239  1.0042
  301MOL0     H40570   5.435   7.498   6.765 -0.5641 -0.5973 -1.4025
  301MOL0     H40571   5.308   7.592   6.677 -1.3918 -3.2971 -0.1136
  301MOL0     H40572   5.493   7.700   6.842 -0.0273  0.4637  0.9029
  301MOL0     H40573   5.338   7.777   6.812  0.5244  0.3512  1.7220
  301MOL0     H40574   5.345   7.774   7.037  0.5512 -0.6911  0.5287
  301MOL0     H40575   5.277   7.615   7.028  1.4925 -1.9241  3.7745
  301MOL0     H40576   5.451   7.596   7.183 -1.5061  1.5086 -0.9241
  301MOL0     H40577   5.522   7.511   7.039  0.2335  0.1574  0.5243
  301MOL0     H40578   5.667   7.665   7.178 -1.0178 -0.7380  0.2148
  301MOL0     H40579   5.666   7.687   7.000  1.7001  1.2091  0.2254
  301MOL0     H40580   5.533   7.894   7.024  0.6063  0.3866 -0.2141
  301MOL0     H40581   5.510   7.872   7.182 -2.6643 -0.2413 -2.6245
  301MOL0     H40582   5.766   7.889   7.219  2.8596 -2.5669 -2.0677
  301MOL0     H40583   5.788   7.882   7.043 -2.5089  1.4592 -2.4211
  301MOL0     H40584   5.654   8.104   7.192  1.3952  1.6550  0.3562
  301MOL0     H40585   5.633   8.087   7.018 -1.3118 -1.1653  0.0887
  301MOL0     H40586   5.892   8.152   7.308  0.1508 -1.1718  0.2259
  301MOL0     H40587   6.129   8.404   7.190 -0.7428  0.8786  3.6676
  301MOL0     H40588   6.136   8.271   7.309  0.0263  0.3297  0.0081
  301MOL0     H40589   6.281   8.280   7.038  2.8415 -1.1749 -0.2937
  301MOL0     H40590   6.256   8.128   7.139 -0.2885  0.1969  2.8866
  301MOL0     H40591   6.466   8.238   7.178  1.0661  1.6280  0.4756
  301MOL0     H40592   6.373   8.206   7.325  2.7765 -0.8060 -0.3853
  301MOL0     H40593   6.309   8.457   7.335  1.4124  1.7610  0.6291
  301MOL0     H40594   6.359   8.470   7.169  2.7180 -1.2814 -0.8623
  301MOL0     H40595   6.541   8.451   7.069  0.1314  1.5466 -1.4757
  301MOL0     H40596   6.805   8.510   6.832  1.0290  0.2179  1.4663
  301MOL0     H40597   6.793   8.346   6.879  2.2962  1.4165 -0.7912
  301MOL0     H40598   6.642   8.445   6.858 -1.1397  0.3621  0.7965
  301MOL0     H40599   7.233   8.582   7.254 -3.8363 -1.2366 -2.2677
  301MOL0     H40600   7.497   8.532   7.221  0.2397 -1.7696 -0.6226
  301MOL0     H40601   7.693   8.633   6.834  1.1765  0.9670  0.1557
  301MOL0     H40602   7.686   8.730   6.983  0.5343 -0.2410  1.6630
  301MOL0     H40603   7.860   8.603   7.086  1.5481 -1.5456 -1.0962
  301MOL0     H40604   7.891   8.506   6.942 -0.0943 -0.4053  0.6204
  301MOL0     H40605   7.899   8.754   6.827  0.5294  1.7918  0.7231
  301MOL0     H40606   8.037   8.656   6.880 -0.8166 -1.1049  0.5444
  301MOL0     H40607   7.873   8.843   7.054 -1.9933 -2.8271 -2.5337
  301MOL0     H40608   8.032   8.777   7.098  0.2794  1.1752  1.7866
  301MOL0     H40609   7.987   8.997   6.880 -0.3897  1.4432  1.0106
  301MOL0     H40610   8.134   8.909   6.915 -0.6360 -0.9455 -0.2240
  301MOL0     H40611   7.963   9.048   7.119 -0.8608  1.2767 -1.4249
  301MOL0     H40612   8.140   8.996   7.150  1.8222  0.8853 -1.4752
  301MOL0     H40613   8.044   9.233   6.985  1.9306 -1.7967 -3.3839
  301MOL0     H40614   8.205   9.195   6.994 -0.0818  0.9301 -0.4475
  301MOL0     H40615   8.021   9.260   7.237  0.7758  1.8648  2.6459
  301MOL0     H40616   8.147   9.363   7.188 -0.0302 -0.6133 -0.9538
  301MOL0     H40617   7.447   8.558   6.796  1.3481 -2.4398  0.4537
  301MOL0     H40618   7.205   8.576   6.837  1.4968 -2.3671 -0.5327
  301MOL0     H40619   6.937   8.591   7.329 -0.8514  3.4597 -0.2182
  301MOL0     H40620   6.709   8.568   7.427 -0.1439 -1.5732  0.1463
  301MOL0     H40621   5.014   7.405   6.766 -2.3108 -1.4124 -3.5994
  301MOL0     H40622   4.950   7.176   6.688 -1.0325  1.9670  0.9351
  301MOL0     H40623   5.386   6.751   6.454  2.3073  2.4024  2.5759
  301MOL0     H40624   5.439   6.505   6.500 -0.4299 -0.4864  0.1494
  301MOL0     H40625   5.368   6.284   6.507  0.4929 -1.4602 -0.2390
  301MOL0     H40626   5.492   6.295   6.632 -0.4591 -0.2525 -1.1486
  301MOL0     H40627   5.415   6.061   6.593 -2.0466  2.0686 -4.6443
  301MOL0     H40628   5.250   6.090   6.610 -0.2469 -1.2779  1.0163
  301MOL0     H40629   5.264   6.154   6.855  0.9279 -1.7572  4.4968
  301MOL0     H40630   5.433   6.131   6.857 -2.5424  2.7131  1.6038
  301MOL0     H40631   5.205   5.930   6.789  0.6538  1.1495 -2.9719
  301MOL0     H40632   5.295   5.955   6.953  1.8525  0.9809 -0.4191
  301MOL0     H40633   5.526   5.738   6.666 -1.0974 -1.2082  0.1420
  301MOL0     H40634   5.099   6.487   6.764  0.3884  0.4839 -0.0879
  301MOL0     H40635   5.059   6.719   6.744  0.4307  4.0164 -2.2927
  302MOL0     O40636   1.531   2.574   9.594  0.0236 -0.1212 -0.6248
  302MOL0     C40637   1.561   2.469   9.537  1.1842  0.2630  0.5197
  302MOL0     O40638   1.669   2.388   9.557  0.3288  0.3870 -0.5026
  302MOL0     C40639   1.769   2.442   9.642 -0.2556  0.1099  0.1302
  302MOL0     C40640   1.818   2.573   9.635 -1.2529  0.2677  0.2988
  302MOL0     C40641   1.915   2.616   9.722  0.2195  0.0879  0.0626
  302MOL0     C40642   1.971   2.538   9.821 -0.1384  0.1801  0.2085
  302MOL0     O40643   2.064   2.606   9.892  0.1878  0.4114  0.2060
  302MOL0     C40644   2.072   2.553  10.026 -0.1911 -0.9004 -0.2017
  302MOL0     C40645   2.149   2.663  10.099 -0.1187  0.0725  0.2709
  302MOL0     C40646   2.189   2.636  10.244 -0.3909  0.4891  0.7705
  302MOL0     C40647   2.081   2.614  10.349  0.2346  0.3198  0.2476
  302MOL0     C40648   2.142   2.629  10.488 -0.4004 -1.0381  0.2452
  302MOL0     C40649   2.143   2.777  10.548 -0.4886 -0.0941  0.0053
  302MOL0     C40650   2.148   2.799  10.709  0.2075 -0.2098 -0.7911
  302MOL0     C40651   2.264   2.736  10.777 -0.5637 -0.4199  1.0156
  302MOL0     N40652   2.272   2.766  10.918 -0.5525 -0.2542  0.4835
  302MOL0     C40653   2.387   2.728  10.992  0.9009  0.0965  0.1006
  302MOL0     C40654   2.375   2.788  11.116 -0.1125  0.7778  0.4281
  302MOL0     C40655   2.485   2.777  11.215 -0.0973  0.3236 -0.3453
  302MOL0     C40656   2.591   2.889  11.202  0.0558  0.5945 -0.3403
  302MOL0     C40657   2.673   2.886  11.067  0.0000  0.1272 -1.6930
  302MOL0     C40658   2.612   2.958  10.944  0.1622 -0.2497 -0.5323
  302MOL0     O40659   2.670   2.911  10.824  0.6720 -0.3391  0.0905
  302MOL0     C40660   2.637   2.970  10.708  0.0198 -0.0387 -0.0407
  302MOL0     C40661   2.695   2.911  10.590 -0.9592  0.5597 -0.0077
  302MOL0     C40662   2.670   2.965  10.464 -0.7648  0.7089 -0.6546
  302MOL0     C40663   2.748   2.909  10.351  0.2288  0.1899 -1.1293
  302MOL0     C40664   2.573   3.067  10.450  0.3921 -1.3667 -0.7331
  302MOL0     C40665   2.538   3.127  10.316  0.0763 -0.9647 -0.1451
  302MOL0     O40666   2.407   3.142  10.293  0.1984 -0.4642 -0.5169
  302MOL0     C40667   2.372   3.188  10.172  0.5684 -0.0384  0.5774
  302MOL0     C40668   2.372   3.328  10.144 -0.1923 -0.6482 -0.2963
  302MOL0     C40669   2.337   3.369  10.019 -0.6253 -0.6440 -0.0226
  302MOL0     C40670   2.287   3.277   9.916  0.1840 -1.3786  0.3959
  302MOL0     O40671   2.261   3.314   9.789  0.2013  0.3391  0.4901
  302MOL0     C40672   2.262   3.454   9.751  0.3030  0.4730  0.1027
  302MOL0     C40673   2.204   3.490   9.614 -0.7343 -0.3950 -1.0491
  302MOL0     C40674   2.057   3.465   9.629 -0.3050 -0.3562  0.1442
  302MOL0     C40675   1.986   3.521   9.512  0.4279  0.5319 -0.5509
  302MOL0     C40676   1.852   3.444   9.493  0.4729 -0.0436 -1.0529
  302MOL0     C40677   1.769   3.491   9.376 -0.6901  0.9863 -0.8738
  302MOL0     C40678   1.727   3.632   9.381  0.6818 -0.2791  0.9068
  302MOL0     C40679   1.620   3.658   9.277  0.9734 -0.3622  0.6755
  302MOL0    Cl40680   1.620   3.837   9.250  0.0477 -0.2151  0.0443
  302MOL0     C40681   2.278   3.144   9.947  0.1331  0.0994  0.5009
  302MOL0     C40682   2.328   3.105  10.073  1.0419  0.0102  0.3637
  302MOL0     O40683   2.631   3.145  10.237  0.4155  0.2312 -0.5821
  302MOL0     C40684   2.510   3.121  10.568  0.5151  0.9756 -0.0401
  302MOL0     C40685   2.538   3.063  10.695 -0.5760 -0.7956  0.8620
  302MOL0     N40686   2.257   2.859  11.123  0.1562  0.0804  0.0930
  302MOL0     N40687   2.200   2.842  11.008  0.4041  0.1215  0.5540
  302MOL0     C40688   1.913   2.408   9.841  0.2969 -0.0473 -0.2014
  302MOL0     C40689   1.819   2.363   9.750 -0.4872 -0.2071  0.6189
  302MOL0     C40690   1.454   2.434   9.433  0.0944 -0.0937  0.5391
  302MOL0     C40691   1.440   2.312   9.380  0.4839 -0.3484  0.3056
  302MOL0     C40692   1.336   2.278   9.297 -0.0280  0.2249  0.0074
  302MOL0     C40693   1.252   2.369   9.249  0.3419 -0.8165 -0.2761
  302MOL0     O40694   1.140   2.343   9.164  0.0754 -0.1576  0.3760
  302MOL0     C40695   1.067   2.220   9.163  0.0963  0.1719  1.0713
  302MOL0     C40696   1.002   2.226   9.301  0.3326  0.2765 -0.1139
  302MOL0     C40697   0.905   2.114   9.321  0.2763 -0.4276  0.9264
  302MOL0     C40698   0.849   2.101   9.463 -0.7573 -0.4575  0.5548
  302MOL0     C40699   0.730   2.012   9.470  0.7287  1.2389  0.7201
  302MOL0     C40700   0.626   1.944   9.472 -0.2041 -0.2409 -0.4069
  302MOL0     C40701   1.270   2.499   9.287  0.5367  0.0293  0.3518
  302MOL0     C40702   1.365   2.534   9.383  0.4329 -0.3871 -0.0011
  302MOL0     H40703   1.785   2.646   9.562 -0.6687  0.8471  0.6160
  302MOL0     H40704   1.954   2.716   9.710  0.6456 -0.0027  0.6827
  302MOL0     H40705   1.977   2.547  10.080  0.4636  1.5295  1.3848
  302MOL0     H40706   2.132   2.462  10.033  1.7690  0.4562  3.2333
  302MOL0     H40707   2.239   2.688  10.041 -2.1317  0.7289 -2.7915
  302MOL0     H40708   2.082   2.750  10.097  2.3156  2.0967 -2.4038
  302MOL0     H40709   2.260   2.553  10.246 -0.0334  0.7878  0.7219
  302MOL0     H40710   2.247   2.725  10.271  0.7905 -1.0700  3.8464
  302MOL0     H40711   2.000   2.685  10.328  0.1043 -0.7997 -4.1196
  302MOL0     H40712   2.032   2.516  10.347  0.9380 -0.0427 -1.6408
  302MOL0     H40713   2.086   2.559  10.551 -0.0681 -0.6053  1.0381
  302MOL0     H40714   2.244   2.589  10.494  1.0730  1.9992 -1.7613
  302MOL0     H40715   2.229   2.832  10.508 -0.0418 -1.4644 -1.0131
  302MOL0     H40716   2.050   2.823  10.515 -1.0579 -0.3597  1.2059
  302MOL0     H40717   2.156   2.907  10.719 -2.4835  0.0477 -0.6117
  302MOL0     H40718   2.063   2.763  10.767  0.9530 -1.2496 -0.3131
  302MOL0     H40719   2.360   2.765  10.734 -1.9688 -0.0248 -2.0578
  302MOL0     H40720   2.255   2.627  10.779 -3.0244 -0.3461 -1.1168
  302MOL0     H40721   2.478   2.677  10.961  1.8421  1.9936 -0.3827
  302MOL0     H40722   2.445   2.765  11.316  0.4586  2.5546  0.1950
  302MOL0     H40723   2.535   2.681  11.198 -1.6722 -0.7035  0.6128
  302MOL0     H40724   2.662   2.880  11.285  1.2714  2.7509 -1.0687
  302MOL0     H40725   2.539   2.985  11.207  1.6170  1.8331 -4.1856
  302MOL0     H40726   2.689   2.781  11.040 -1.9694 -0.8236  0.4812
  302MOL0     H40727   2.770   2.927  11.096 -1.3479  1.5620  1.2347
  302MOL0     H40728   2.619   3.066  10.960 -1.6748 -0.4774  2.5838
  302MOL0     H40729   2.503   2.953  10.943 -0.0990  2.5089  1.7109
  302MOL0     H40730   2.771   2.835  10.595 -1.1919  0.3433  0.2345
  302MOL0     H40731   2.836   2.863  10.396 -0.1740  1.8713  1.5707
  302MOL0     H40732   2.689   2.832  10.301 -1.0216  0.1214  0.3901
  302MOL0     H40733   2.790   2.980  10.279  1.4608 -2.2370 -2.9405
  302MOL0     H40734   2.414   3.378  10.231 -2.3506 -0.5408  0.7296
  302MOL0     H40735   2.334   3.474   9.991 -2.6207 -0.7875 -0.5105
  302MOL0     H40736   2.220   3.517   9.830 -2.0672 -1.7805  0.7851
  302MOL0     H40737   2.368   3.482   9.747  0.6504 -0.9372 -1.7051
  302MOL0     H40738   2.217   3.597   9.595  1.0158 -0.5978 -1.1167
  302MOL0     H40739   2.248   3.437   9.529 -0.9749 -0.7162 -0.9776
  302MOL0     H40740   2.003   3.504   9.716  0.9342 -0.3344  0.9366
  302MOL0     H40741   2.048   3.357   9.618  2.1577 -0.4798 -1.5115
  302MOL0     H40742   1.970   3.629   9.524  0.6320  0.7588 -2.1823
  302MOL0     H40743   2.048   3.508   9.423 -0.2700 -0.1826 -0.9366
  302MOL0     H40744   1.797   3.463   9.585 -0.7877  0.0893 -1.8119
  302MOL0     H40745   1.871   3.337   9.480  2.3962 -0.0065  0.8741
  302MOL0     H40746   1.820   3.477   9.280 -2.2203  2.2581 -1.9385
  302MOL0     H40747   1.666   3.457   9.392 -1.2400  1.9982 -2.0558
  302MOL0     H40748   1.816   3.693   9.364  0.9864 -0.7492  0.8120
  302MOL0     H40749   1.684   3.656   9.479  2.4407 -2.6314  2.3485
  302MOL0     H40750   1.521   3.630   9.312 -0.7714  2.4968 -1.5146
  302MOL0     H40751   1.633   3.611   9.179 -0.1973 -2.5924  1.5388
  302MOL0     H40752   2.244   3.075   9.870 -0.8900  0.9644  0.1469
  302MOL0     H40753   2.310   3.002  10.100 -0.7165  1.0410  3.5833
  302MOL0     H40754   2.436   3.201  10.569  0.1020  0.6265  1.7360
  302MOL0     H40755   2.487   3.110  10.779 -3.1584  0.8227 -1.4214
  302MOL0     H40756   1.925   2.338   9.923 -0.8727 -0.9359 -0.7521
  302MOL0     H40757   1.785   2.261   9.759  2.5866 -1.2795  1.3907
  302MOL0     H40758   1.502   2.230   9.415  1.1058  0.5711  1.3772
  302MOL0     H40759   1.329   2.172   9.276 -2.3065 -0.0194  1.5848
  302MOL0     H40760   1.000   2.212   9.078  0.8361 -1.2986  0.5938
  302MOL0     H40761   1.128   2.130   9.149 -1.3734 -0.4647 -1.9241
  302MOL0     H40762   0.947   2.320   9.305  0.1943  0.3165 -2.0442
  302MOL0     H40763   1.067   2.215   9.389 -1.1534 -0.2582  0.9611
  302MOL0     H40764   0.949   2.018   9.292  0.1010 -1.5413  3.9460
  302MOL0     H40765   0.830   2.140   9.246  3.0140  3.3079 -0.8143
  302MOL0     H40766   0.808   2.197   9.495 -0.7126  0.0802 -0.9582
  302MOL0     H40767   0.923   2.058   9.533 -0.2489  0.8715  0.8717
  302MOL0     H40768   0.541   1.879   9.478 -1.3415  1.2988  2.2645
  302MOL0     H40769   1.198   2.578   9.264  0.1071 -0.6161 -0.5796
  302MOL0     H40770   1.381   2.635   9.421 -1.2441 -0.5515  1.2449
  303MOL0     O40771   0.341   0.608  10.868 -0.3187 -0.3483  0.6459
  303MOL0     C40772   0.323   0.728  10.893  0.2523  0.5945 -0.0174
  303MOL0     O40773   0.201   0.792  10.876  0.2558 -0.5582  0.7819
  303MOL0     C40774   0.111   0.716  10.794 -0.4303  0.9326 -1.1313
  303MOL0     C40775   0.134   0.692  10.654 -0.6346 -0.0853 -0.4541
  303MOL0     C40776   0.035   0.637  10.574 -0.3095 -0.3471  0.4633
  303MOL0     C40777  -0.082   0.595  10.625  0.2993  1.0945  0.3842
  303MOL0     O40778  -0.178   0.537  10.548  0.5729  0.3222 -0.0845
  303MOL0     C40779  -0.181   0.392  10.552 -0.6088 -0.4752 -0.4798
  303MOL0     C40780  -0.317   0.351  10.507  0.6070 -0.2003 -0.0059
  303MOL0     C40781  -0.360   0.208  10.549  0.1828  0.7508 -0.2389
  303MOL0     C40782  -0.463   0.156  10.447  0.0546  1.0164  0.3101
  303MOL0     C40783  -0.409   0.114  10.303  1.1459 -0.6961  0.3443
  303MOL0     C40784  -0.522   0.035  10.230 -0.2046 -0.7021  0.2123
  303MOL0     C40785  -0.515   0.019  10.080  0.0240  0.8062  0.6633
  303MOL0     C40786  -0.388  -0.045  10.021 -0.0313 -0.7115 -0.1135
  303MOL0     N40787  -0.408  -0.065   9.872 -0.4871  1.1073 -0.4447
  303MOL0     C40788  -0.316  -0.094   9.780  0.3391 -0.9867  0.4881
  303MOL0     C40789  -0.385  -0.088   9.664 -0.0039  0.3135 -0.7204
  303MOL0     C40790  -0.314  -0.087   9.536 -0.2896 -0.7575 -0.0252
  303MOL0     C40791  -0.254   0.044   9.503 -0.6119  0.1188 -0.8918
  303MOL0     C40792  -0.351   0.170   9.496 -0.0443 -0.3101 -0.4499
  303MOL0     C40793  -0.356   0.245   9.622 -1.1526 -0.1496  0.1190
  303MOL0     O40794  -0.446   0.360   9.615 -0.0008 -0.5520  0.3361
  303MOL0     C40795  -0.581   0.326   9.594  0.1914 -0.3095 -0.0890
  303MOL0     C40796  -0.654   0.377   9.486 -0.0509  1.2080  0.1529
  303MOL0     C40797  -0.784   0.342   9.464  0.1172 -0.7849  0.0658
  303MOL0     C40798  -0.850   0.415   9.347  0.0339 -0.1493  0.5237
  303MOL0     C40799  -0.850   0.249   9.552  0.3506 -0.1981  0.1012
  303MOL0     C40800  -0.992   0.201   9.545 -0.7714  0.1771  0.1561
  303MOL0     O40801  -1.052   0.155   9.670 -0.2808 -0.3080  0.2938
  303MOL0     C40802  -1.188   0.136   9.675 -0.1597 -0.0871  0.2277
  303MOL0     C40803  -1.291   0.220   9.619 -0.6667 -0.3221 -0.1558
  303MOL0     C40804  -1.428   0.192   9.643 -0.0489  0.2103  0.0301
  303MOL0     C40805  -1.462   0.072   9.708 -0.2192  0.6562  0.4786
  303MOL0     O40806  -1.591   0.044   9.704 -0.1618  0.3713  0.3503
  303MOL0     C40807  -1.642  -0.049   9.802 -0.4791 -0.5374  0.3958
  303MOL0     C40808  -1.788  -0.045   9.774  0.3964  0.2878 -0.1331
  303MOL0     C40809  -1.856  -0.151   9.860  1.0787  0.1060  0.3935
  303MOL0     C40810  -1.998  -0.138   9.871 -0.5494 -0.7429 -0.6264
  303MOL0     C40811  -2.081  -0.134   9.739  0.2203  0.5811  0.3221
  303MOL0     C40812  -2.227  -0.133   9.772  1.2191  0.1600  0.0359
  303MOL0     C40813  -2.311  -0.172   9.642 -0.3346 -0.3376  1.0338
  303MOL0     C40814  -2.461  -0.178   9.675 -0.9548  0.0375 -0.5931
  303MOL0    Cl40815  -2.561  -0.235   9.540 -0.0857  0.3819 -0.0935
  303MOL0     C40816  -1.366  -0.020   9.754 -0.9304  0.0570 -0.1564
  303MOL0     C40817  -1.225   0.018   9.744 -0.2578  0.4809  0.4395
  303MOL0     O40818  -1.056   0.206   9.432 -0.0587 -0.2419 -1.2468
  303MOL0     C40819  -0.771   0.195   9.652 -0.4775 -0.2827  0.4264
  303MOL0     C40820  -0.637   0.232   9.680  0.9972 -0.4174 -0.3090
  303MOL0     N40821  -0.516  -0.089   9.680 -0.4536  0.7723 -0.6175
  303MOL0     N40822  -0.533  -0.067   9.804  0.2973  0.2760 -0.6850
  303MOL0     C40823  -0.100   0.614  10.761 -1.2434 -0.2355 -0.2263
  303MOL0     C40824  -0.009   0.685  10.839 -0.1486  0.3348  0.7477
  303MOL0     C40825   0.440   0.799  10.969  0.4373  0.2905  0.3453
  303MOL0     C40826   0.406   0.925  11.019  0.8296  0.8321 -0.4762
  303MOL0     C40827   0.499   0.998  11.091 -0.2069 -0.3835  0.1776
  303MOL0     C40828   0.631   0.954  11.102  1.3496  0.3722 -0.3536
  303MOL0     O40829   0.705   1.038  11.178 -0.2260  0.1773 -0.5839
  303MOL0     C40830   0.818   0.987  11.245 -0.0749  0.8433  1.0412
  303MOL0     C40831   0.853   1.095  11.340 -0.1548 -0.2444 -0.1806
  303MOL0     C40832   0.794   1.072  11.474  0.1096  0.2810 -0.3952
  303MOL0     C40833   0.833   1.190  11.573 -1.5481  0.4195 -0.4135
  303MOL0     C40834   0.982   1.203  11.593  0.6395  0.3663  0.5192
  303MOL0     C40835   1.104   1.197  11.605 -0.9547  0.3256  0.3542
  303MOL0     C40836   0.662   0.828  11.058 -0.4216  0.3954  0.3980
  303MOL0     C40837   0.570   0.744  10.989 -0.6353  0.3931 -0.0773
  303MOL0     H40838   0.222   0.731  10.604 -0.8386  0.7520 -0.1775
  303MOL0     H40839   0.062   0.638  10.469  2.3508  3.2654  0.9455
  303MOL0     H40840  -0.098   0.359  10.489  0.3100 -1.0023  0.9589
  303MOL0     H40841  -0.163   0.358  10.655  1.4423 -4.0022 -1.7903
  303MOL0     H40842  -0.391   0.424  10.542  1.6706 -0.4860  3.1932
  303MOL0     H40843  -0.307   0.368  10.399  3.0898  1.2518  0.3585
  303MOL0     H40844  -0.281   0.134  10.563 -0.1101  0.1252 -1.7005
  303MOL0     H40845  -0.405   0.216  10.649  0.7289  1.1774 -0.0192
  303MOL0     H40846  -0.520   0.074  10.492  0.3254 -1.1170 -2.9587
  303MOL0     H40847  -0.542   0.232  10.437 -0.4838  0.8621  2.6965
  303MOL0     H40848  -0.375   0.206  10.253  2.3060  0.5775  3.2716
  303MOL0     H40849  -0.324   0.048  10.317  1.3667 -0.5466 -0.2383
  303MOL0     H40850  -0.516  -0.065  10.274 -2.5670 -1.0780 -0.2135
  303MOL0     H40851  -0.621   0.073  10.255  1.4549  2.7544  2.3093
  303MOL0     H40852  -0.599  -0.037  10.038 -1.6092  4.2675 -1.1293
  303MOL0     H40853  -0.521   0.117  10.031 -2.2955 -1.7279 -5.1044
  303MOL0     H40854  -0.369  -0.136  10.078  0.9548  0.2375  1.1417
  303MOL0     H40855  -0.303   0.024  10.033 -0.8405  0.4156 -0.6019
  303MOL0     H40856  -0.211  -0.103   9.804  0.6346 -3.1614 -1.2582
  303MOL0     H40857  -0.225  -0.149   9.546  2.0186  2.1848 -0.7327
  303MOL0     H40858  -0.376  -0.114   9.450  1.0387 -0.0235 -1.2696
  303MOL0     H40859  -0.217   0.030   9.401  3.6443  1.0737  0.3467
  303MOL0     H40860  -0.164   0.059   9.562  0.2452 -0.7692 -1.9188
  303MOL0     H40861  -0.452   0.137   9.471  0.4708 -0.9523 -1.7771
  303MOL0     H40862  -0.317   0.238   9.418  0.4064 -0.2870 -0.2363
  303MOL0     H40863  -0.257   0.291   9.630 -1.1034 -0.2320 -0.0016
  303MOL0     H40864  -0.384   0.191   9.713 -0.4693 -0.0648  0.3831
  303MOL0     H40865  -0.607   0.448   9.419  1.0611 -0.2355 -0.6475
  303MOL0     H40866  -0.777   0.446   9.272  0.0832 -0.5162  0.4183
  303MOL0     H40867  -0.929   0.351   9.305 -0.6503  1.3770 -0.6033
  303MOL0     H40868  -0.893   0.513   9.367  0.4073 -0.0841  1.0055
  303MOL0     H40869  -1.258   0.309   9.565 -0.7290  0.0137  0.3518
  303MOL0     H40870  -1.499   0.259   9.596 -1.3454 -3.4168 -3.8077
  303MOL0     H40871  -1.609  -0.152   9.791 -1.5676 -0.7752 -0.8065
  303MOL0     H40872  -1.605  -0.012   9.898  0.7761  2.3823 -1.0750
  303MOL0     H40873  -1.832   0.054   9.790  0.9381  0.6152 -0.5908
  303MOL0     H40874  -1.815  -0.071   9.671 -3.7522 -0.2491  0.9325
  303MOL0     H40875  -1.807  -0.140   9.957 -1.0974  4.2135  1.2273
  303MOL0     H40876  -1.829  -0.252   9.828  0.3665 -0.1160  0.4630
  303MOL0     H40877  -2.031  -0.225   9.929  0.1553  0.1664  1.2049
  303MOL0     H40878  -2.021  -0.056   9.940 -0.6551 -1.4056  0.1418
  303MOL0     H40879  -2.051  -0.219   9.677 -3.5166  0.7767 -2.0959
  303MOL0     H40880  -2.066  -0.043   9.680 -1.0840  0.2186 -0.6226
  303MOL0     H40881  -2.245  -0.213   9.845  1.5469 -0.6388 -0.7469
  303MOL0     H40882  -2.260  -0.039   9.817 -1.6243 -1.0142  0.6775
  303MOL0     H40883  -2.275  -0.270   9.608 -2.3830 -0.6941 -0.3249
  303MOL0     H40884  -2.301  -0.099   9.561 -2.0627 -1.0893  0.0767
  303MOL0     H40885  -2.493  -0.080   9.713  2.8846 -0.1527  3.9621
  303MOL0     H40886  -2.467  -0.242   9.764  1.9332  1.2683  0.6132
  303MOL0     H40887  -1.394  -0.118   9.793 -2.9248  0.6977  0.1574
  303MOL0     H40888  -1.150  -0.052   9.780 -1.7398 -0.3374  2.0432
  303MOL0     H40889  -0.802   0.118   9.722  0.1787 -1.0503 -0.1029
  303MOL0     H40890  -0.599   0.174   9.764 -0.4192  0.4240  0.9631
  303MOL0     H40891  -0.193   0.585  10.808 -0.5921  1.4221  2.3183
  303MOL0     H40892  -0.049   0.700  10.939 -4.2691  1.2262 -0.8330
  303MOL0     H40893   0.312   0.971  10.990 -1.3097 -2.1735  1.0711
  303MOL0     H40894   0.474   1.095  11.133 -0.9481 -0.7188  0.5304
  303MOL0     H40895   0.780   0.897  11.293 -0.4571  0.9950  1.0235
  303MOL0     H40896   0.901   0.967  11.176  1.3761  1.1913  2.6233
  303MOL0     H40897   0.827   1.197  11.312  2.3220  1.0759  1.8357
  303MOL0     H40898   0.961   1.090  11.358 -0.0908  2.5910  0.6901
  303MOL0     H40899   0.828   0.977  11.515  0.2610  1.1941  1.7303
  303MOL0     H40900   0.685   1.078  11.471  0.0380 -0.9293 -0.8969
  303MOL0     H40901   0.777   1.190  11.667 -2.3649 -0.9084 -0.8687
  303MOL0     H40902   0.800   1.282  11.523 -0.7427  1.6875  1.2990
  303MOL0     H40903   1.211   1.195  11.613 -0.8986  3.0972  1.4847
  303MOL0     H40904   0.764   0.800  11.083 -1.3602 -0.5393  3.6797
  303MOL0     H40905   0.594   0.650  10.940  1.0488 -0.1552  1.6840
  304MOL0     O40906   2.801   5.384   2.624 -0.3339 -0.8933  0.5178
  304MOL0     C40907   2.783   5.261   2.622 -0.4933 -0.9395  0.4320
  304MOL0     O40908   2.662   5.200   2.633 -0.2762 -0.4725 -0.3573
  304MOL0     C40909   2.548   5.271   2.658 -0.4569 -0.3381  0.8696
  304MOL0     C40910   2.445   5.255   2.567  0.8962  0.0747 -0.2459
  304MOL0     C40911   2.312   5.304   2.608  0.5930 -0.1258 -0.1087
  304MOL0     C40912   2.297   5.357   2.737 -0.0491  0.7734 -0.0831
  304MOL0     O40913   2.183   5.375   2.806  0.0762  0.5113  0.0726
  304MOL0     C40914   2.078   5.277   2.779  0.4297 -0.6078  0.7501
  304MOL0     C40915   1.981   5.288   2.895  0.4793  0.3140 -0.0660
  304MOL0     C40916   1.856   5.200   2.874 -0.0984  0.5579  1.0213
  304MOL0     C40917   1.734   5.277   2.801 -0.6945  0.7169  0.2525
  304MOL0     C40918   1.603   5.192   2.794 -0.5145 -0.1704  0.2297
  304MOL0     C40919   1.534   5.221   2.664  0.4748  0.6005  1.0276
  304MOL0     C40920   1.397   5.147   2.641 -0.9557  0.3107 -0.3085
  304MOL0     C40921   1.352   5.134   2.494  1.1159 -0.4362 -0.2091
  304MOL0     N40922   1.230   5.048   2.510  0.1450 -0.6392  0.1293
  304MOL0     C40923   1.233   4.917   2.517 -0.9859  0.9156  0.0639
  304MOL0     C40924   1.105   4.879   2.498  0.5502  0.4603 -0.2538
  304MOL0     C40925   1.061   4.730   2.487  0.0763 -0.8560 -0.2048
  304MOL0     C40926   0.973   4.697   2.368 -0.6107  0.0847 -0.3043
  304MOL0     C40927   0.941   4.540   2.357  0.2649 -0.7932  1.0794
  304MOL0     C40928   0.852   4.491   2.464 -0.3088 -0.3588  0.2518
  304MOL0     O40929   0.714   4.538   2.448 -0.0506  0.7966 -0.3064
  304MOL0     C40930   0.626   4.442   2.402 -0.0904  0.0706 -0.0360
  304MOL0     C40931   0.547   4.473   2.291  0.4599  1.1608 -0.1244
  304MOL0     C40932   0.461   4.384   2.232  0.4800 -0.4061 -0.0859
  304MOL0     C40933   0.388   4.431   2.108  0.0933  0.0173  0.3545
  304MOL0     C40934   0.450   4.259   2.296  0.7210 -0.3132 -0.0536
  304MOL0     C40935   0.377   4.147   2.237 -0.9506 -0.1444 -0.5628
  304MOL0     O40936   0.419   4.020   2.278 -0.0522  0.0163  0.6959
  304MOL0     C40937   0.338   3.915   2.230 -0.2534  0.5689 -1.0552
  304MOL0     C40938   0.298   3.815   2.331  0.2400  0.5953  0.3015
  304MOL0     C40939   0.228   3.699   2.287  0.8129 -0.9457  0.1318
  304MOL0     C40940   0.207   3.675   2.144  0.0085 -0.1157 -0.2209
  304MOL0     O40941   0.148   3.551   2.110 -0.0830 -0.7264  0.4996
  304MOL0     C40942   0.059   3.549   1.990  0.1459 -1.2194 -0.4858
  304MOL0     C40943   0.002   3.414   1.957  0.1517  0.0851  0.9431
  304MOL0     C40944   0.066   3.349   1.832  0.1483  0.3317  0.2593
  304MOL0     C40945  -0.025   3.378   1.713 -0.9404  0.1661  0.3082
  304MOL0     C40946   0.018   3.305   1.581  0.0733  0.5700  0.3640
  304MOL0     C40947  -0.033   3.381   1.459 -0.1957 -0.0474 -0.5865
  304MOL0     C40948  -0.100   3.276   1.361 -0.2912  0.2792 -0.6094
  304MOL0     C40949  -0.241   3.236   1.412 -0.1432  0.3312  0.6127
  304MOL0    Cl40950  -0.359   3.351   1.350 -0.5447 -0.0112  0.3214
  304MOL0     C40951   0.252   3.774   2.058  0.6815  1.1065  0.7355
  304MOL0     C40952   0.312   3.890   2.094 -0.5287 -0.5386 -1.0906
  304MOL0     O40953   0.264   4.177   2.194  0.2470  0.1493 -0.1784
  304MOL0     C40954   0.519   4.231   2.413  0.3387 -0.9758 -0.5291
  304MOL0     C40955   0.602   4.323   2.466 -0.0976 -0.8578  0.3432
  304MOL0     N40956   1.024   4.984   2.494  0.7058  0.5175 -0.3298
  304MOL0     N40957   1.099   5.080   2.515 -0.2809  0.0931 -0.2277
  304MOL0     C40958   2.408   5.370   2.819 -0.1485 -0.0633  0.1507
  304MOL0     C40959   2.529   5.333   2.778 -0.5124  0.7457 -0.8973
  304MOL0     C40960   2.900   5.168   2.618  0.5597 -0.8016  0.1832
  304MOL0     C40961   3.030   5.217   2.651 -0.7266 -0.5676  0.8872
  304MOL0     C40962   3.130   5.119   2.679 -0.2246  0.3637 -0.7731
  304MOL0     C40963   3.100   4.977   2.668 -0.9979 -0.0236 -0.0413
  304MOL0     O40964   3.215   4.903   2.703  0.1737 -0.2844  0.6035
  304MOL0     C40965   3.212   4.761   2.669  1.0846  0.1017  0.5852
  304MOL0     C40966   3.129   4.685   2.784  0.4933 -0.2071 -0.4308
  304MOL0     C40967   3.042   4.562   2.753 -0.9036  0.1727  0.1465
  304MOL0     C40968   3.120   4.449   2.677 -0.0755 -0.1812 -0.0602
  304MOL0     C40969   3.049   4.409   2.553  0.0034  0.0857 -0.6914
  304MOL0     C40970   2.997   4.363   2.454 -0.5099 -0.6087  0.7229
  304MOL0     C40971   2.972   4.935   2.629 -0.9686 -0.2875 -0.1353
  304MOL0     C40972   2.874   5.025   2.602 -0.3927  0.0074  0.0399
  304MOL0     H40973   2.442   5.202   2.472 -1.0144 -0.0914 -0.1382
  304MOL0     H40974   2.227   5.287   2.543 -0.7117 -0.8956  1.7007
  304MOL0     H40975   2.027   5.290   2.684 -0.9584 -1.3634  1.3593
  304MOL0     H40976   2.119   5.176   2.772  1.8643 -0.0616  0.8353
  304MOL0     H40977   2.036   5.257   2.984 -1.5279 -1.9958  0.4820
  304MOL0     H40978   1.938   5.388   2.908  1.4093  0.4610  2.5387
  304MOL0     H40979   1.879   5.108   2.820 -0.0167  0.1282  1.7810
  304MOL0     H40980   1.823   5.183   2.977  3.6832 -1.1152  2.1202
  304MOL0     H40981   1.703   5.376   2.835 -1.7894  1.3817 -2.4455
  304MOL0     H40982   1.768   5.304   2.700 -2.8040  4.3343  0.3560
  304MOL0     H40983   1.633   5.087   2.796  2.9655  0.7035 -0.3094
  304MOL0     H40984   1.541   5.216   2.881  0.9767 -0.8891  1.5255
  304MOL0     H40985   1.514   5.328   2.652  2.2678  1.0407  1.6716
  304MOL0     H40986   1.611   5.204   2.589  0.5160 -1.8045  1.5378
  304MOL0     H40987   1.409   5.048   2.686  1.7023 -1.5131 -4.4272
  304MOL0     H40988   1.320   5.198   2.700 -1.0981 -0.8917  0.5926
  304MOL0     H40989   1.431   5.097   2.429  0.7031 -0.3331 -0.7739
  304MOL0     H40990   1.317   5.235   2.472 -0.1027 -0.0337  2.9925
  304MOL0     H40991   1.326   4.860   2.512 -1.2637  0.5195 -0.8117
  304MOL0     H40992   1.149   4.664   2.487  0.8584  0.1626  0.4575
  304MOL0     H40993   1.005   4.708   2.578  1.0257 -0.4122  0.5097
  304MOL0     H40994   1.044   4.726   2.290  1.9962 -2.2774  1.0220
  304MOL0     H40995   0.880   4.755   2.375 -1.2138 -0.2543 -3.6407
  304MOL0     H40996   1.030   4.477   2.351  0.3526 -1.0091  3.5129
  304MOL0     H40997   0.883   4.540   2.265  1.0004 -3.6706  0.5429
  304MOL0     H40998   0.887   4.517   2.564 -0.0106 -0.4819  0.1785
  304MOL0     H40999   0.867   4.383   2.469 -1.5226 -0.5078  3.2020
  304MOL0     H41000   0.557   4.569   2.242  0.4478  1.1003 -0.2440
  304MOL0     H41001   0.415   4.533   2.082 -1.0661  0.1960 -0.1834
  304MOL0     H41002   0.423   4.373   2.022  1.5671  1.1511  0.1557
  304MOL0     H41003   0.279   4.421   2.108 -0.0142  1.0341  0.7773
  304MOL0     H41004   0.328   3.836   2.433  0.3766  0.2509  0.3341
  304MOL0     H41005   0.181   3.627   2.353  1.7566 -1.2159  0.5187
  304MOL0     H41006  -0.028   3.612   2.010  2.8556  2.5106  0.7491
  304MOL0     H41007   0.107   3.595   1.903  2.0563 -3.3082 -0.6536
  304MOL0     H41008   0.020   3.341   2.037  3.6965 -1.6990 -1.2191
  304MOL0     H41009  -0.106   3.428   1.943  0.4794  1.3331 -0.4982
  304MOL0     H41010   0.075   3.240   1.842  1.9364  0.1742 -2.2203
  304MOL0     H41011   0.164   3.392   1.810 -0.0530  0.8638  0.3951
  304MOL0     H41012  -0.124   3.342   1.742 -1.9842  2.2195 -0.4634
  304MOL0     H41013  -0.036   3.487   1.706  0.1113  0.2294 -0.8245
  304MOL0     H41014  -0.019   3.202   1.582  0.1488  0.4955 -1.3850
  304MOL0     H41015   0.127   3.308   1.586  0.0091  1.3428  2.2135
  304MOL0     H41016  -0.105   3.457   1.491 -0.8982  0.0507 -2.2490
  304MOL0     H41017   0.044   3.443   1.411 -2.0470  1.0541 -2.3206
  304MOL0     H41018  -0.030   3.192   1.353  0.1559  0.6232 -0.3911
  304MOL0     H41019  -0.107   3.314   1.259  0.8931  4.4499  0.6362
  304MOL0     H41020  -0.259   3.222   1.519 -1.2558 -0.5806  0.3287
  304MOL0     H41021  -0.251   3.136   1.367  0.2427  0.6937 -0.3144
  304MOL0     H41022   0.232   3.765   1.952  0.3370 -2.9395  0.9906
  304MOL0     H41023   0.354   3.961   2.023  1.3068  1.1973  1.5157
  304MOL0     H41024   0.492   4.146   2.475 -1.6214  0.3319  0.5136
  304MOL0     H41025   0.640   4.307   2.567 -2.7172  3.6876  2.3645
  304MOL0     H41026   2.396   5.416   2.917  0.4166  0.5825 -0.0769
  304MOL0     H41027   2.626   5.342   2.824  1.5695 -4.5429 -3.4407
  304MOL0     H41028   3.060   5.322   2.650 -0.6317 -0.5542 -1.7749
  304MOL0     H41029   3.232   5.142   2.705 -1.5052  3.4837  2.2001
  304MOL0     H41030   3.165   4.748   2.571  1.9729  3.4867 -0.4183
  304MOL0     H41031   3.312   4.718   2.653  0.5293 -1.2555  0.6617
  304MOL0     H41032   3.063   4.759   2.829  0.2946 -0.7874  0.2669
  304MOL0     H41033   3.203   4.650   2.857  1.0377 -0.4653 -1.0966
  304MOL0     H41034   2.952   4.590   2.697  1.2535  2.0193 -2.6361
  304MOL0     H41035   3.007   4.517   2.847  0.1138  1.5239  1.2242
  304MOL0     H41036   3.140   4.361   2.738  1.8445  0.3962  0.2142
  304MOL0     H41037   3.220   4.485   2.651  0.0872 -2.0851 -2.4263
  304MOL0     H41038   2.963   4.330   2.358  0.0797  2.5709 -0.7256
  304MOL0     H41039   2.957   4.832   2.598  0.0608 -0.4180 -0.2331
  304MOL0     H41040   2.776   4.990   2.571 -0.4567  0.4550 -0.2715
  305MOL0     O41041   2.099   3.512   3.733 -0.7005 -0.4409  0.1048
  305MOL0     C41042   2.149   3.512   3.845 -0.7324 -0.1320 -0.3544
  305MOL0     O41043   2.084   3.507   3.966  0.1018  0.2864 -0.5020
  305MOL0     C41044   1.959   3.443   3.981 -1.2046 -1.0698 -0.3157
  305MOL0     C41045   1.874   3.490   4.081  0.1652 -0.0771 -0.2008
  305MOL0     C41046   1.749   3.431   4.091  0.5328  0.5591 -0.1459
  305MOL0     C41047   1.702   3.335   4.007 -0.4212  0.5569 -0.3976
  305MOL0     O41048   1.577   3.285   4.022 -0.6579  0.4507  0.7753
  305MOL0     C41049   1.538   3.154   3.979  0.3188  1.4298  0.4536
  305MOL0     C41050   1.439   3.090   4.075  0.1302 -0.0941 -0.4009
  305MOL0     C41051   1.428   2.940   4.029  0.6608  0.3448 -0.9370
  305MOL0     C41052   1.280   2.888   4.039 -0.3098 -0.0410 -0.2498
  305MOL0     C41053   1.267   2.735   4.038 -0.9051 -0.3865  0.4248
  305MOL0     C41054   1.126   2.679   4.059  0.0269 -0.2373 -0.9129
  305MOL0     C41055   1.110   2.550   4.145 -0.9257  1.4139 -0.0100
  305MOL0     C41056   0.980   2.477   4.120  0.7324 -0.3023  0.0087
  305MOL0     N41057   0.989   2.353   4.193 -0.2785  0.2516 -1.4443
  305MOL0     C41058   1.013   2.345   4.330 -0.4243  0.0110 -0.0457
  305MOL0     C41059   0.998   2.211   4.361  0.5800  0.2992 -0.1052
  305MOL0     C41060   1.016   2.166   4.512  0.0530  0.3610 -0.4635
  305MOL0     C41061   0.898   2.070   4.538  0.6247 -0.4619  0.1983
  305MOL0     C41062   0.916   2.005   4.675  0.0067  0.4854  0.1278
  305MOL0     C41063   0.812   1.897   4.692 -0.2699  0.2221  0.4952
  305MOL0     O41064   0.832   1.816   4.813  0.9626 -0.0552 -0.1753
  305MOL0     C41065   0.735   1.712   4.842  0.2603  0.0020  0.4308
  305MOL0     C41066   0.783   1.617   4.933 -0.8566  0.7182  0.0534
  305MOL0     C41067   0.706   1.507   4.979 -0.1604 -0.4331  0.2051
  305MOL0     C41068   0.765   1.417   5.084  0.4434 -0.5397  0.1058
  305MOL0     C41069   0.583   1.479   4.907  0.0004 -0.8598  1.2961
  305MOL0     C41070   0.496   1.362   4.918  0.4581  0.6798 -0.6928
  305MOL0     O41071   0.370   1.351   4.870  0.7020  0.5050 -0.2752
  305MOL0     C41072   0.302   1.229   4.868  0.7858 -0.3370 -1.0340
  305MOL0     C41073   0.288   1.138   4.981 -0.0109 -0.6115 -0.1756
  305MOL0     C41074   0.203   1.032   4.975  0.8252  0.6976 -0.2499
  305MOL0     C41075   0.129   1.005   4.858  0.2547 -0.3634 -1.1067
  305MOL0     O41076   0.032   0.905   4.853 -0.5671  0.4124  1.0563
  305MOL0     C41077   0.026   0.794   4.942  0.5371  0.2088  0.6343
  305MOL0     C41078  -0.065   0.819   5.067  0.6274  0.6873  0.2354
  305MOL0     C41079  -0.209   0.859   5.046  0.2538 -0.1439 -0.9599
  305MOL0     C41080  -0.278   0.744   4.965 -0.5922 -0.7712 -0.1441
  305MOL0     C41081  -0.399   0.682   5.031 -0.3584  0.0351 -0.4397
  305MOL0     C41082  -0.464   0.565   4.956  0.1127  0.0842  0.2875
  305MOL0     C41083  -0.591   0.530   5.027  0.3793  0.3064  0.0023
  305MOL0     C41084  -0.696   0.455   4.945 -0.5281 -0.1252 -0.0035
  305MOL0    Cl41085  -0.617   0.300   4.923 -0.7499  0.2587  0.1648
  305MOL0     C41086   0.159   1.073   4.747  0.2850 -0.0058 -0.1943
  305MOL0     C41087   0.235   1.188   4.753 -0.5515 -0.4283 -0.0418
  305MOL0     O41088   0.565   1.264   4.940  0.5779 -0.5043  0.2885
  305MOL0     C41089   0.528   1.588   4.827 -0.2672  0.5007  0.0996
  305MOL0     C41090   0.604   1.699   4.797  0.1751  0.6814 -1.2083
  305MOL0     N41091   0.989   2.130   4.246  0.5367  0.5187 -0.5723
  305MOL0     N41092   0.990   2.221   4.147  0.7461 -0.0625  0.1960
  305MOL0     C41093   1.782   3.285   3.907 -0.0359  1.0211  0.5567
  305MOL0     C41094   1.912   3.336   3.897  0.3966 -0.1135  0.3749
  305MOL0     C41095   2.292   3.554   3.850 -0.1277  0.4802  0.2322
  305MOL0     C41096   2.359   3.570   3.726 -1.3892 -0.2636 -0.1771
  305MOL0     C41097   2.498   3.587   3.722  0.5695  0.3182 -0.9255
  305MOL0     C41098   2.573   3.599   3.842  0.7009  0.4809 -0.0115
  305MOL0     O41099   2.704   3.633   3.849 -0.4962 -0.1000  0.4662
  305MOL0     C41100   2.779   3.634   3.724 -0.3014  0.3934 -0.5226
  305MOL0     C41101   2.922   3.685   3.765 -0.2450  0.0516 -0.0133
  305MOL0     C41102   3.008   3.655   3.640  0.3420 -0.0097 -0.3591
  305MOL0     C41103   3.073   3.524   3.667 -0.6923  0.4604  0.6066
  305MOL0     C41104   3.153   3.443   3.570  0.1836 -0.5598  0.3609
  305MOL0     C41105   3.208   3.380   3.491  0.5917  0.4925 -0.2345
  305MOL0     C41106   2.502   3.607   3.958  1.0071  0.2814  0.1188
  305MOL0     C41107   2.366   3.577   3.969  0.1173 -0.0305 -0.4383
  305MOL0     H41108   1.898   3.575   4.144  0.8100 -0.5597  0.2226
  305MOL0     H41109   1.680   3.472   4.164 -0.0087  1.7950 -1.2925
  305MOL0     H41110   1.475   3.161   3.889  0.6129 -3.6695 -0.4798
  305MOL0     H41111   1.621   3.085   3.959 -0.0726  0.7501  1.1028
  305MOL0     H41112   1.475   3.092   4.178  1.5144  0.1646 -0.8728
  305MOL0     H41113   1.337   3.130   4.069  0.3124  0.3738 -0.4157
  305MOL0     H41114   1.444   2.929   3.922  0.0107 -1.5171 -0.8859
  305MOL0     H41115   1.493   2.886   4.098 -3.7644  1.0846  4.5836
  305MOL0     H41116   1.244   2.927   4.135 -0.6077 -2.2286  0.5764
  305MOL0     H41117   1.210   2.931   3.967  0.9269  3.3650  0.3845
  305MOL0     H41118   1.305   2.701   3.942 -1.4801  0.3834 -0.0882
  305MOL0     H41119   1.330   2.691   4.116  0.4849 -3.9857 -2.4515
  305MOL0     H41120   1.072   2.753   4.118  2.9021 -0.2127  1.9998
  305MOL0     H41121   1.069   2.666   3.967 -1.5364 -2.0872  0.2245
  305MOL0     H41122   1.191   2.481   4.120  0.1583  2.1218  1.4439
  305MOL0     H41123   1.129   2.571   4.251  2.3017 -1.2440  0.1018
  305MOL0     H41124   0.961   2.449   4.016 -1.0190  0.2731  0.1400
  305MOL0     H41125   0.913   2.555   4.158 -0.3834 -0.9146 -0.6808
  305MOL0     H41126   1.031   2.429   4.396 -2.4347  1.3596 -1.1012
  305MOL0     H41127   1.109   2.111   4.531 -1.7522 -3.1608 -0.9754
  305MOL0     H41128   1.010   2.252   4.579 -0.1833 -0.2914  0.3622
  305MOL0     H41129   0.914   1.989   4.466  2.6717 -0.9013  1.0633
  305MOL0     H41130   0.798   2.110   4.527  1.4727  1.9551  0.7542
  305MOL0     H41131   0.907   2.073   4.760  0.8808 -1.5049  1.9202
  305MOL0     H41132   1.020   1.972   4.682  0.8044  2.8714  0.3088
  305MOL0     H41133   0.808   1.827   4.608  0.7503 -1.8174  2.0660
  305MOL0     H41134   0.715   1.941   4.717  0.1676 -0.4744  4.0524
  305MOL0     H41135   0.883   1.632   4.972  0.9895  0.5082 -4.0215
  305MOL0     H41136   0.806   1.325   5.042  1.7721  0.6232 -1.2173
  305MOL0     H41137   0.848   1.458   5.142  0.1641  0.4749 -0.1942
  305MOL0     H41138   0.689   1.387   5.157 -2.9112 -0.6497 -3.1081
  305MOL0     H41139   0.347   1.159   5.070  0.9532  1.7686 -1.2864
  305MOL0     H41140   0.180   0.976   5.065 -2.2489  0.6739 -0.9196
  305MOL0     H41141   0.010   0.708   4.877  2.1014  0.1464  0.2816
  305MOL0     H41142   0.127   0.771   4.977 -0.3067 -1.5461  2.0300
  305MOL0     H41143  -0.071   0.718   5.106 -1.7387  0.6869  0.0344
  305MOL0     H41144  -0.008   0.885   5.133  1.6481  1.8592 -1.7261
  305MOL0     H41145  -0.228   0.952   4.992 -2.8536 -1.6235 -2.6762
  305MOL0     H41146  -0.255   0.861   5.146 -1.9895 -0.9298 -1.9101
  305MOL0     H41147  -0.317   0.782   4.870 -2.8675  2.0017  1.7445
  305MOL0     H41148  -0.202   0.668   4.945 -0.4887  0.2288 -4.5814
  305MOL0     H41149  -0.462   0.765   5.064  1.9050  0.3722  3.7357
  305MOL0     H41150  -0.367   0.647   5.130  0.4988  0.6505 -0.4844
  305MOL0     H41151  -0.498   0.592   4.856 -1.4729  1.4792  1.1617
  305MOL0     H41152  -0.404   0.474   4.964 -1.8648 -1.3692 -0.7720
  305MOL0     H41153  -0.628   0.622   5.072  3.0749  2.2042 -1.3645
  305MOL0     H41154  -0.570   0.463   5.110 -1.5954 -1.9270 -1.1750
  305MOL0     H41155  -0.721   0.501   4.850 -0.9104  0.6290  0.4530
  305MOL0     H41156  -0.784   0.434   5.006 -0.3433 -0.9562 -0.0040
  305MOL0     H41157   0.112   1.050   4.652 -0.1524 -0.7693  0.1939
  305MOL0     H41158   0.244   1.253   4.667 -0.3686  0.6344  0.7542
  305MOL0     H41159   0.426   1.583   4.789 -0.1039 -0.3342 -0.2387
  305MOL0     H41160   0.567   1.772   4.725 -0.3658 -0.9269 -2.6302
  305MOL0     H41161   1.744   3.201   3.849 -2.2510  1.2474  1.5569
  305MOL0     H41162   1.971   3.309   3.810 -0.5139 -1.8616  0.2626
  305MOL0     H41163   2.315   3.559   3.628  0.7777 -1.2615 -1.1189
  305MOL0     H41164   2.542   3.602   3.624  0.9001 -2.3133 -1.2552
  305MOL0     H41165   2.760   3.538   3.675 -3.5006  1.0573 -0.7650
  305MOL0     H41166   2.730   3.709   3.662 -2.4539  0.3666  1.0257
  305MOL0     H41167   2.971   3.637   3.850 -0.9423 -0.5461  0.0557
  305MOL0     H41168   2.919   3.792   3.788  2.9089  0.5415 -1.3472
  305MOL0     H41169   3.082   3.735   3.650  0.3311  0.0297 -0.5857
  305MOL0     H41170   2.954   3.656   3.545 -0.9661 -2.2464  0.2846
  305MOL0     H41171   2.989   3.456   3.685  1.0789 -2.3676 -0.9426
  305MOL0     H41172   3.139   3.534   3.753  1.7759  1.0915 -1.2254
  305MOL0     H41173   3.261   3.324   3.416  3.0582  0.6785  1.2358
  305MOL0     H41174   2.564   3.627   4.045  0.2358 -1.1810  1.0601
  305MOL0     H41175   2.325   3.568   4.069  0.2869  1.9081 -0.1577
  306MOL0     O41176   0.315  10.872   2.417  0.0357  1.0237 -0.1314
  306MOL0     C41177   0.291  10.755   2.393 -0.0371  0.2497 -0.2697
  306MOL0     O41178   0.315  10.647   2.483 -0.2308 -0.0074  0.0429
  306MOL0     C41179   0.293  10.665   2.619  0.5439 -0.4022  0.5426
  306MOL0     C41180   0.378  10.600   2.708  0.9108  0.5905  0.8906
  306MOL0     C41181   0.361  10.597   2.843 -0.2794  0.0209 -0.1413
  306MOL0     C41182   0.255  10.668   2.902 -0.0284  0.0646 -0.1607
  306MOL0     O41183   0.232  10.685   3.040 -0.5266 -0.8145  0.3693
  306MOL0     C41184   0.330  10.629   3.128  0.4457  0.6817  0.7383
  306MOL0     C41185   0.455  10.723   3.132  1.0256 -1.1222 -0.7475
  306MOL0     C41186   0.572  10.659   3.206  0.9025 -0.7380 -0.4520
  306MOL0     C41187   0.626  10.764   3.307  0.9138 -0.0377 -0.0605
  306MOL0     C41188   0.747  10.696   3.375  0.6354 -0.7438 -0.6518
  306MOL0     C41189   0.791  10.787   3.501  0.6496  0.4266  0.9633
  306MOL0     C41190   0.892  10.710   3.575  0.6197  0.1362 -1.0107
  306MOL0     C41191   0.968  10.766   3.694  0.1992 -0.4498 -0.9305
  306MOL0     N41192   0.869  10.822   3.782 -0.6046  0.2752  0.1519
  306MOL0     C41193   0.840  10.955   3.800  0.9386 -0.0285 -0.0844
  306MOL0     C41194   0.720  10.970   3.859 -0.5437 -0.0846  0.2315
  306MOL0     C41195   0.653  11.102   3.889  0.3313  0.1667  0.6437
  306MOL0     C41196   0.548  11.160   3.783 -0.4380  0.2147  0.1721
  306MOL0     C41197   0.423  11.072   3.788  0.2305 -0.1605 -0.5417
  306MOL0     C41198   0.347  11.044   3.921 -0.3076 -0.4652  0.3757
  306MOL0     O41199   0.328  11.170   3.981 -0.3333  0.2265 -1.0048
  306MOL0     C41200   0.213  11.240   3.948  0.2737 -0.2895  0.1701
  306MOL0     C41201   0.094  11.190   3.994  0.3926 -0.2138 -0.0537
  306MOL0     C41202  -0.029  11.256   3.968 -0.9539 -0.2204  0.4237
  306MOL0     C41203  -0.144  11.212   4.038 -0.2072  0.8708 -0.2918
  306MOL0     C41204  -0.024  11.382   3.905 -0.6083 -0.4469  0.3409
  306MOL0     C41205  -0.143  11.478   3.893  1.2512 -0.2024 -0.2806
  306MOL0     O41206  -0.142  11.572   3.798 -0.0436 -0.1072  0.6400
  306MOL0     C41207  -0.252  11.655   3.773 -0.3064  0.4229  0.4626
  306MOL0     C41208  -0.379  11.606   3.778 -0.8723  0.6110  0.2012
  306MOL0     C41209  -0.481  11.702   3.769 -0.1707  0.0090  0.7971
  306MOL0     C41210  -0.456  11.837   3.753 -0.2824 -0.5426  0.3329
  306MOL0     O41211  -0.570  11.919   3.761 -0.1037  0.3761  0.4847
  306MOL0     C41212  -0.568  12.049   3.691  0.2766  0.1186 -0.9531
  306MOL0     C41213  -0.661  12.138   3.765 -0.2616  0.0618 -0.2755
  306MOL0     C41214  -0.674  12.274   3.702  0.6941 -0.6501 -0.5545
  306MOL0     C41215  -0.768  12.260   3.583 -0.2132 -1.0905 -0.4376
  306MOL0     C41216  -0.786  12.386   3.509  0.6549 -0.2494 -0.0567
  306MOL0     C41217  -0.917  12.462   3.542  0.6482  0.6811  0.6410
  306MOL0     C41218  -1.047  12.380   3.521  0.3894 -0.1360 -0.2407
  306MOL0     C41219  -1.173  12.447   3.569  0.5446 -0.0025 -0.1183
  306MOL0    Cl41220  -1.248  12.559   3.444 -0.0200 -0.2967 -0.3278
  306MOL0     C41221  -0.326  11.880   3.736 -0.3558  0.3524  0.1621
  306MOL0     C41222  -0.221  11.791   3.742  0.8153  0.0695 -0.3994
  306MOL0     O41223  -0.223  11.478   3.992  0.6049 -0.1353  0.1969
  306MOL0     C41224   0.097  11.423   3.848 -0.3499 -0.7144  0.4859
  306MOL0     C41225   0.217  11.355   3.870  0.0303  0.8420 -0.5404
  306MOL0     N41226   0.665  10.838   3.866 -0.3096  0.2312 -1.0520
  306MOL0     N41227   0.762  10.753   3.832  0.0964 -0.9708  0.2639
  306MOL0     C41228   0.179  10.746   2.814  0.3524 -0.8946 -0.3568
  306MOL0     C41229   0.190  10.740   2.675 -0.0065  0.9976 -0.3673
  306MOL0     C41230   0.269  10.722   2.258 -0.1868 -0.2247 -1.2036
  306MOL0     C41231   0.348  10.767   2.152  0.3795  0.5902  0.0810
  306MOL0     C41232   0.304  10.752   2.018  0.2708  0.3654 -0.3346
  306MOL0     C41233   0.185  10.690   1.990 -0.6252  0.1522 -0.9916
  306MOL0     O41234   0.159  10.680   1.855  0.6985 -0.4018  0.7004
  306MOL0     C41235   0.047  10.611   1.805  0.1683 -0.3655 -0.3299
  306MOL0     C41236   0.080  10.462   1.795  0.1723  1.1334  0.3772
  306MOL0     C41237  -0.011  10.378   1.700  0.1091 -0.1820  1.1926
  306MOL0     C41238  -0.155  10.371   1.751  0.1803  0.5097  0.3667
  306MOL0     C41239  -0.242  10.465   1.682 -0.4579  0.0525 -0.1817
  306MOL0     C41240  -0.304  10.559   1.639 -0.6418  0.1862  0.3074
  306MOL0     C41241   0.113  10.632   2.092 -0.0137  0.0877 -0.7842
  306MOL0     C41242   0.152  10.657   2.226  0.1505 -0.0901 -0.7018
  306MOL0     H41243   0.459  10.542   2.665  0.4883 -2.6403  4.0081
  306MOL0     H41244   0.430  10.546   2.910  1.1877  2.5388  0.3853
  306MOL0     H41245   0.283  10.639   3.227 -1.2555 -1.7549  0.2837
  306MOL0     H41246   0.353  10.524   3.109  3.4895  1.4083 -0.0995
  306MOL0     H41247   0.499  10.745   3.034  2.7785  2.0732  0.6267
  306MOL0     H41248   0.412  10.809   3.183  0.5219 -3.4182  3.0611
  306MOL0     H41249   0.541  10.565   3.253  0.1921 -0.4808 -0.3944
  306MOL0     H41250   0.646  10.632   3.131 -1.1211 -0.0750 -2.8088
  306MOL0     H41251   0.668  10.846   3.249  2.2260 -2.6647 -3.1785
  306MOL0     H41252   0.556  10.794   3.385  0.7824 -1.3351  0.3490
  306MOL0     H41253   0.722  10.597   3.415 -3.9079  0.0976 -0.7854
  306MOL0     H41254   0.820  10.686   3.295  1.6993  0.3322  0.1421
  306MOL0     H41255   0.828  10.878   3.455  0.3938 -0.1450 -0.4330
  306MOL0     H41256   0.702  10.796   3.564  0.0071 -0.8976  0.2811
  306MOL0     H41257   0.847  10.615   3.606  0.3715  0.6256  0.1793
  306MOL0     H41258   0.964  10.670   3.503  1.5787  1.0735 -0.5976
  306MOL0     H41259   1.037  10.847   3.670 -0.0212  0.5254  1.4146
  306MOL0     H41260   1.018  10.685   3.749 -1.6266 -1.7062 -1.0179
  306MOL0     H41261   0.899  11.044   3.780 -0.1539  0.9969  1.1289
  306MOL0     H41262   0.601  11.088   3.984  0.1698  1.9882  0.8617
  306MOL0     H41263   0.733  11.177   3.897  1.9278 -1.0674 -2.1034
  306MOL0     H41264   0.589  11.182   3.684 -1.4854 -0.5127 -0.4449
  306MOL0     H41265   0.518  11.261   3.812  0.9489  0.6857  0.0392
  306MOL0     H41266   0.457  10.980   3.738  0.0382  0.5752 -2.0853
  306MOL0     H41267   0.356  11.114   3.712 -2.6770  0.8392  2.3626
  306MOL0     H41268   0.396  10.972   3.986 -1.4854 -0.6785  1.0414
  306MOL0     H41269   0.251  10.998   3.898  0.5351 -2.0355 -0.1679
  306MOL0     H41270   0.099  11.100   4.055  0.1126 -0.0049  0.2828
  306MOL0     H41271  -0.137  11.279   4.124 -1.1211  0.7738 -0.1223
  306MOL0     H41272  -0.239  11.234   3.988 -1.3703 -2.3106  0.2267
  306MOL0     H41273  -0.141  11.107   4.068 -0.0744  0.7525 -0.7145
  306MOL0     H41274  -0.393  11.499   3.789  1.0747 -0.1425 -3.1205
  306MOL0     H41275  -0.582  11.664   3.781  0.2361 -1.0990  0.8668
  306MOL0     H41276  -0.469  12.095   3.697 -0.8296  2.5318  0.0782
  306MOL0     H41277  -0.593  12.031   3.586 -1.3351 -1.0879 -0.3974
  306MOL0     H41278  -0.757  12.086   3.772  0.8122 -1.8875  0.5648
  306MOL0     H41279  -0.625  12.145   3.868 -0.7163  2.0529 -0.2015
  306MOL0     H41280  -0.577  12.310   3.666 -0.3538  1.9758 -0.9493
  306MOL0     H41281  -0.728  12.346   3.765 -0.7086 -1.4380 -0.8122
  306MOL0     H41282  -0.723  12.190   3.512 -0.9456 -0.7893 -1.2245
  306MOL0     H41283  -0.863  12.216   3.616 -0.3861 -0.3328  0.0950
  306MOL0     H41284  -0.785  12.361   3.403  2.5937  1.8657 -0.6107
  306MOL0     H41285  -0.708  12.459   3.531  0.1904  0.6615 -1.3612
  306MOL0     H41286  -0.919  12.499   3.645 -1.4030 -2.4137  1.8687
  306MOL0     H41287  -0.918  12.546   3.472  2.1055  0.5348  0.4068
  306MOL0     H41288  -1.045  12.299   3.594  1.2112  0.3402  0.2719
  306MOL0     H41289  -1.048  12.328   3.424  0.9626  1.5559 -1.1923
  306MOL0     H41290  -1.167  12.518   3.653  0.2172  0.3691 -0.4080
  306MOL0     H41291  -1.245  12.370   3.595  0.7783 -1.0931 -2.4456
  306MOL0     H41292  -0.307  11.987   3.735 -0.1412  0.3314 -1.7062
  306MOL0     H41293  -0.126  11.842   3.739  0.4667  0.6996 -2.5369
  306MOL0     H41294   0.107  11.510   3.784 -1.3772  0.6647  2.1076
  306MOL0     H41295   0.305  11.387   3.814  0.7220 -1.6047 -0.9438
  306MOL0     H41296   0.098  10.814   2.839  0.5900  0.2276 -2.4583
  306MOL0     H41297   0.114  10.793   2.619 -1.7396  1.0704  1.9066
  306MOL0     H41298   0.441  10.812   2.184  0.2872 -0.4903  2.0366
  306MOL0     H41299   0.369  10.796   1.943  0.8158  1.3196  0.6665
  306MOL0     H41300  -0.042  10.628   1.866 -1.3118  1.4396 -2.8361
  306MOL0     H41301   0.020  10.656   1.709 -2.3960 -0.2351  0.3739
  306MOL0     H41302   0.067  10.411   1.891 -2.5242  0.4015 -0.2857
  306MOL0     H41303   0.188  10.452   1.777  0.2320 -1.2231  1.7097
  306MOL0     H41304   0.024  10.275   1.716 -1.5483 -1.3843 -1.9885
  306MOL0     H41305  -0.012  10.415   1.597 -2.4047  1.7475  1.8255
  306MOL0     H41306  -0.163  10.392   1.859 -1.1080  3.6517 -0.2130
  306MOL0     H41307  -0.196  10.270   1.750  2.0769 -0.2941 -1.1612
  306MOL0     H41308  -0.339  10.638   1.576  1.2605  0.0664 -0.9946
  306MOL0     H41309   0.032  10.564   2.069  1.7425 -1.3316 -3.2032
  306MOL0     H41310   0.103  10.610   2.310  1.4370  1.2018  0.8393
  307MOL0     O41311   9.819   7.109   8.550  0.3232  0.0405  0.0521
  307MOL0     C41312   9.697   7.100   8.567 -0.7129 -0.7201  0.5761
  307MOL0     O41313   9.621   7.162   8.655 -0.2240  0.4372 -0.0679
  307MOL0     C41314   9.671   7.259   8.738 -1.9778  0.1837  0.0845
  307MOL0     C41315   9.772   7.352   8.688  0.0143  0.1784  0.4400
  307MOL0     C41316   9.812   7.450   8.766  0.5040 -0.4332 -0.1571
  307MOL0     C41317   9.771   7.464   8.900 -0.1028 -0.5725  0.3005
  307MOL0     O41318   9.834   7.556   8.979 -0.5013 -0.0716 -0.1839
  307MOL0     C41319   9.769   7.615   9.087 -0.4616 -0.6836 -0.2712
  307MOL0     C41320   9.880   7.692   9.161 -0.1331  0.0145  0.4285
  307MOL0     C41321   9.920   7.819   9.092 -0.3015 -0.8767  0.5083
  307MOL0     C41322   9.820   7.925   9.079 -0.1747 -0.5310  1.3809
  307MOL0     C41323   9.869   8.027   8.974  0.8066  0.3230  0.7847
  307MOL0     C41324   9.783   8.157   8.975  1.3959  0.6601 -0.0790
  307MOL0     C41325   9.774   8.244   8.845 -0.5181  0.1387  1.0702
  307MOL0     C41326   9.680   8.181   8.740  0.2390  0.6759 -0.3415
  307MOL0     N41327   9.535   8.197   8.781 -0.0640  0.0371 -0.1639
  307MOL0     C41328   9.434   8.157   8.704  0.2050  0.2416  0.1162
  307MOL0     C41329   9.317   8.209   8.756  0.0909 -0.8357  0.9432
  307MOL0     C41330   9.177   8.229   8.704 -0.8343  0.6631  0.8013
  307MOL0     C41331   9.078   8.129   8.774  0.8700  0.1015 -0.4223
  307MOL0     C41332   8.929   8.168   8.763  0.4510  1.0842  0.5176
  307MOL0     C41333   8.851   8.062   8.833  0.0225 -0.0281 -0.1758
  307MOL0     O41334   8.856   7.942   8.751 -0.4265 -0.8586 -0.3199
  307MOL0     C41335   8.744   7.862   8.732  0.5692  0.9382 -0.6530
  307MOL0     C41336   8.615   7.889   8.778  0.6716 -0.3436  0.0222
  307MOL0     C41337   8.506   7.801   8.778  0.2311 -0.2631 -0.1304
  307MOL0     C41338   8.375   7.842   8.831  0.6032  0.0224  0.1410
  307MOL0     C41339   8.535   7.674   8.719  0.1045 -0.0720 -0.1632
  307MOL0     C41340   8.429   7.576   8.696 -0.0398 -0.1607  0.3260
  307MOL0     O41341   8.420   7.528   8.566 -0.2019  0.0595 -0.4643
  307MOL0     C41342   8.322   7.434   8.551 -0.5684  0.5134 -1.1788
  307MOL0     C41343   8.197   7.458   8.497  0.2253 -0.0069  0.4648
  307MOL0     C41344   8.099   7.358   8.474  0.2398 -0.1392 -0.3355
  307MOL0     C41345   8.127   7.228   8.509  0.8848 -0.7907 -0.9669
  307MOL0     O41346   8.012   7.148   8.528 -0.0556 -0.5073  0.2488
  307MOL0     C41347   7.984   7.091   8.657  0.0274 -0.2960  0.2679
  307MOL0     C41348   7.891   7.178   8.746 -0.8896  0.2136 -0.4789
  307MOL0     C41349   7.843   7.093   8.870  1.0262  0.0025  0.5627
  307MOL0     C41350   7.720   7.023   8.824 -0.4635 -0.2046  0.1107
  307MOL0     C41351   7.664   6.913   8.910  0.3100 -0.2597  0.6749
  307MOL0     C41352   7.745   6.775   8.895 -0.6227 -0.7151  0.2731
  307MOL0     C41353   7.711   6.671   9.008  0.3745  0.2800  0.4311
  307MOL0     C41354   7.776   6.534   8.985  1.0326  0.2552 -0.1370
  307MOL0    Cl41355   7.769   6.485   8.810  0.1563 -0.3448  0.1549
  307MOL0     C41356   8.252   7.198   8.567 -0.2598  0.4312  0.2677
  307MOL0     C41357   8.343   7.300   8.591  0.2502  0.7283  0.4932
  307MOL0     O41358   8.361   7.543   8.787 -0.8375 -0.4840 -0.0000
  307MOL0     C41359   8.659   7.650   8.668  0.0396 -0.1871  1.0154
  307MOL0     C41360   8.767   7.740   8.672  0.0701  0.2682 -0.4238
  307MOL0     N41361   9.355   8.271   8.873 -0.7782  0.7203  0.5140
  307MOL0     N41362   9.483   8.260   8.888  0.3379 -0.7457 -0.9543
  307MOL0     C41363   9.673   7.370   8.948 -0.3039 -0.3109 -0.0516
  307MOL0     C41364   9.625   7.271   8.864  0.1736  0.6014 -0.3699
  307MOL0     C41365   9.636   7.007   8.478  0.3232 -0.2320 -0.3846
  307MOL0     C41366   9.698   6.926   8.381 -0.0655  1.2754  0.0645
  307MOL0     C41367   9.614   6.843   8.303 -0.3161  0.7746  0.2820
  307MOL0     C41368   9.476   6.833   8.313 -0.0521 -0.3789 -0.3751
  307MOL0     O41369   9.405   6.765   8.216 -0.3224  0.2429  0.1060
  307MOL0     C41370   9.261   6.782   8.210 -0.2123 -0.0466  0.1581
  307MOL0     C41371   9.214   6.906   8.127 -0.6472 -0.5541 -0.5378
  307MOL0     C41372   9.059   6.909   8.123  0.4778  0.0573  0.3564
  307MOL0     C41373   9.002   6.833   8.006  0.0687  0.1048  0.4489
  307MOL0     C41374   9.016   6.681   8.005 -0.7574  0.3968 -0.9945
  307MOL0     C41375   9.022   6.563   7.984 -0.8766  0.4747  0.1488
  307MOL0     C41376   9.416   6.921   8.407  0.1245  0.0871  0.4726
  307MOL0     C41377   9.499   7.002   8.482 -0.1668  0.5344 -0.4498
  307MOL0     H41378   9.821   7.342   8.591 -0.5317  3.9141 -0.3588
  307MOL0     H41379   9.873   7.534   8.735 -0.4350  0.2443 -0.2290
  307MOL0     H41380   9.680   7.679   9.077 -2.0211 -2.5493  1.0210
  307MOL0     H41381   9.746   7.544   9.167 -0.8014 -0.6916 -0.3726
  307MOL0     H41382   9.842   7.712   9.262 -1.3575 -3.1878  0.7324
  307MOL0     H41383   9.967   7.627   9.169  2.5500  2.6734 -3.6476
  307MOL0     H41384  10.017   7.851   9.132 -0.1392 -0.4054 -0.2561
  307MOL0     H41385   9.949   7.801   8.989  1.9288 -0.3339  0.9762
  307MOL0     H41386   9.727   7.884   9.038 -1.4049  4.1540 -1.3800
  307MOL0     H41387   9.803   7.966   9.179  2.6267 -0.2624  1.8138
  307MOL0     H41388   9.968   8.070   8.996  1.0343  1.8517 -2.5779
  307MOL0     H41389   9.883   7.975   8.879  0.5118 -0.5764  1.2245
  307MOL0     H41390   9.680   8.123   8.988  1.3435  0.8215 -0.0784
  307MOL0     H41391   9.816   8.218   9.059  1.8993 -1.4331  1.3345
  307MOL0     H41392   9.732   8.342   8.867 -0.1738  0.2138  1.4106
  307MOL0     H41393   9.876   8.260   8.808 -0.0619 -2.7704  0.7952
  307MOL0     H41394   9.698   8.073   8.743 -1.2263  0.4233 -0.0540
  307MOL0     H41395   9.686   8.232   8.644 -1.8653 -1.1045 -1.5126
  307MOL0     H41396   9.447   8.098   8.614  2.5039 -0.7511  1.0169
  307MOL0     H41397   9.150   8.328   8.741  1.7663  0.2597  4.2657
  307MOL0     H41398   9.194   8.209   8.598  2.7064 -1.4518  1.5784
  307MOL0     H41399   9.092   8.126   8.883 -2.4105  0.0197  0.0907
  307MOL0     H41400   9.093   8.033   8.724  1.1440 -0.7393  1.2154
  307MOL0     H41401   8.900   8.189   8.659 -0.6234  2.1256  1.0013
  307MOL0     H41402   8.914   8.259   8.822  2.6032  1.5239  0.4423
  307MOL0     H41403   8.752   8.109   8.836  0.6273  1.2342  0.3924
  307MOL0     H41404   8.894   8.039   8.931  0.8335  0.1839 -0.4764
  307MOL0     H41405   8.584   7.989   8.806 -3.1460 -1.2099 -0.6030
  307MOL0     H41406   8.383   7.946   8.864  0.6701 -0.5199  1.9411
  307MOL0     H41407   8.295   7.831   8.757  1.3622  0.4455 -0.7605
  307MOL0     H41408   8.358   7.776   8.916  0.2982  0.3084  0.3047
  307MOL0     H41409   8.179   7.561   8.467 -1.7538  0.2323  2.2137
  307MOL0     H41410   8.015   7.399   8.417  1.1073 -0.6842 -2.0778
  307MOL0     H41411   7.932   6.997   8.637 -0.1557  0.0698 -1.0568
  307MOL0     H41412   8.074   7.064   8.714 -0.4860 -1.6205  0.4776
  307MOL0     H41413   7.962   7.254   8.779  0.2144 -1.1145  0.3290
  307MOL0     H41414   7.808   7.228   8.696 -0.8988  1.5340  0.7851
  307MOL0     H41415   7.823   7.159   8.955 -3.7024 -1.0740  0.5693
  307MOL0     H41416   7.920   7.024   8.904 -2.4009 -2.5309  4.0745
  307MOL0     H41417   7.643   7.098   8.806 -0.4100 -0.7380 -2.9490
  307MOL0     H41418   7.742   6.973   8.729 -1.7441 -5.7695  2.3203
  307MOL0     H41419   7.561   6.888   8.883 -0.0477  0.0253  1.7139
  307MOL0     H41420   7.667   6.949   9.013 -2.2011 -0.5359  0.9119
  307MOL0     H41421   7.721   6.738   8.795  1.4476 -1.8591  0.1552
  307MOL0     H41422   7.851   6.799   8.910 -0.9026  0.0264  1.1573
  307MOL0     H41423   7.602   6.668   9.021  0.1726  0.7337 -0.9408
  307MOL0     H41424   7.753   6.699   9.105 -1.6445  2.5657  0.7465
  307MOL0     H41425   7.723   6.456   9.040  4.3574 -1.1329  1.3687
  307MOL0     H41426   7.882   6.537   9.013  0.6770  1.0935  1.2242
  307MOL0     H41427   8.279   7.103   8.612  0.5369  0.6601  0.2831
  307MOL0     H41428   8.443   7.268   8.618  0.9244  0.7253 -1.7677
  307MOL0     H41429   8.666   7.551   8.623  3.5345  0.5114 -0.2855
  307MOL0     H41430   8.865   7.716   8.631  0.3626  3.7003 -2.1063
  307MOL0     H41431   9.635   7.381   9.049  1.9599 -0.6641  0.9048
  307MOL0     H41432   9.561   7.197   8.909  2.0951  0.8084  3.0487
  307MOL0     H41433   9.806   6.917   8.385  0.0111  1.6128 -1.0527
  307MOL0     H41434   9.656   6.771   8.233 -2.0654 -1.7690  1.7169
  307MOL0     H41435   9.227   6.686   8.170  1.5944  0.5850 -3.3075
  307MOL0     H41436   9.219   6.778   8.310 -0.0109  0.6698  0.2762
  307MOL0     H41437   9.273   6.902   8.035  1.6584  2.3840  0.6280
  307MOL0     H41438   9.241   6.996   8.183  0.7437 -1.7564  0.8288
  307MOL0     H41439   9.019   7.011   8.126 -1.0754 -0.4279  5.1563
  307MOL0     H41440   9.024   6.854   8.210  0.7419 -0.9160 -0.1363
  307MOL0     H41441   9.033   6.867   7.907 -1.3554  3.5549  1.0337
  307MOL0     H41442   8.897   6.860   7.994  0.3244 -0.2755 -5.0649
  307MOL0     H41443   9.047   6.461   7.965 -2.2519  0.0937  0.2445
  307MOL0     H41444   9.309   6.936   8.420  0.3909  1.6007  1.0904
  307MOL0     H41445   9.444   7.067   8.549 -0.0484 -1.0008  1.2195
  308MOL0     O41446  10.152   2.657   6.357 -0.1706 -0.0996 -0.3976
  308MOL0     C41447  10.047   2.595   6.345  0.3380 -0.4027  0.1625
  308MOL0     O41448  10.032   2.454   6.352 -0.5197 -0.0687  0.6729
  308MOL0     C41449  10.141   2.386   6.393  0.1048 -0.2189  0.0983
  308MOL0     C41450  10.223   2.426   6.504 -0.0963  0.1298 -0.4284
  308MOL0     C41451  10.345   2.356   6.524  0.2403 -0.7549 -0.2619
  308MOL0     C41452  10.363   2.233   6.467  0.5642  0.5373  0.2422
  308MOL0     O41453  10.471   2.153   6.496  0.1734  0.8184  0.2911
  308MOL0     C41454  10.545   2.183   6.615 -0.0328  0.3338  0.0407
  308MOL0     C41455  10.620   2.061   6.645 -0.9041 -0.3775  0.3321
  308MOL0     C41456  10.728   2.025   6.540  0.1522 -0.4966  0.5211
  308MOL0     C41457  10.783   1.891   6.583 -0.5148  0.6297 -0.1686
  308MOL0     C41458  10.898   1.847   6.491  1.3012  0.6287  0.2430
  308MOL0     C41459  10.949   1.695   6.495  0.0337 -1.6197 -1.1549
  308MOL0     C41460  10.855   1.601   6.411  0.9964 -0.7880 -0.3514
  308MOL0     C41461  10.901   1.461   6.390 -0.3603  0.1521 -0.0511
  308MOL0     N41462  10.827   1.360   6.312  0.8456  0.9126 -0.2406
  308MOL0     C41463  10.782   1.238   6.359  0.5575  0.1533 -0.4591
  308MOL0     C41464  10.706   1.186   6.256  0.5797  1.0472  0.4577
  308MOL0     C41465  10.611   1.065   6.279  0.1066  0.1504  0.2775
  308MOL0     C41466  10.476   1.097   6.333  0.0805 -0.5578  0.3392
  308MOL0     C41467  10.380   0.982   6.284  0.4089 -0.2298 -0.7433
  308MOL0     C41468  10.231   1.013   6.336 -0.0846  0.3780 -0.2504
  308MOL0     O41469  10.136   0.906   6.296 -0.2241  0.1006  0.4789
  308MOL0     C41470  10.012   0.934   6.262 -0.2580 -0.5758  0.7262
  308MOL0     C41471   9.973   0.939   6.128 -0.6376 -0.3699  0.8021
  308MOL0     C41472   9.839   0.987   6.097 -0.1150 -0.1832 -0.2036
  308MOL0     C41473   9.790   0.986   5.946 -0.3362 -0.0737 -0.3460
  308MOL0     C41474   9.755   1.037   6.191  0.2608  0.5319 -0.8841
  308MOL0     C41475   9.612   1.082   6.185 -0.6129  0.9249 -0.3126
  308MOL0     O41476   9.558   1.145   6.302  0.4090  0.0509 -0.0359
  308MOL0     C41477   9.438   1.201   6.307  0.4443  0.6165  1.0146
  308MOL0     C41478   9.377   1.258   6.190  0.5173 -0.0815 -0.4192
  308MOL0     C41479   9.249   1.305   6.197  1.0670 -0.5612 -0.4333
  308MOL0     C41480   9.184   1.316   6.322 -0.4511  0.5064  0.0589
  308MOL0     O41481   9.055   1.372   6.324 -1.0001  0.4304 -0.1957
  308MOL0     C41482   8.976   1.383   6.440 -0.3757 -0.7137  0.6982
  308MOL0     C41483   8.991   1.518   6.498 -0.9556  0.1817 -0.2744
  308MOL0     C41484   8.922   1.625   6.411 -0.8149 -0.4945  1.0954
  308MOL0     C41485   9.012   1.752   6.396  0.2681  0.0851 -0.1075
  308MOL0     C41486   8.948   1.849   6.298 -0.3505  0.1827 -0.3990
  308MOL0     C41487   9.012   1.990   6.343  0.6568 -0.7866 -0.4251
  308MOL0     C41488   9.157   2.008   6.279  1.7527  1.3573 -0.7964
  308MOL0     C41489   9.208   2.155   6.286 -0.2766 -0.4650 -0.5410
  308MOL0    Cl41490   9.274   2.202   6.454  0.3258 -0.0654 -0.6640
  308MOL0     C41491   9.249   1.269   6.440  0.0832  0.3364  0.0204
  308MOL0     C41492   9.378   1.212   6.428 -0.7758 -0.5359 -0.5592
  308MOL0     O41493   9.546   1.036   6.095  0.0123  0.0097 -0.5549
  308MOL0     C41494   9.803   1.021   6.324  0.6855  0.1107  0.3766
  308MOL0     C41495   9.924   0.967   6.359  0.5994 -0.5173 -0.4546
  308MOL0     N41496  10.723   1.266   6.145  0.4215  0.4467 -0.4765
  308MOL0     N41497  10.802   1.365   6.176  0.1440 -0.5692 -0.4501
  308MOL0     C41498  10.266   2.184   6.376  0.1658  1.3548  0.4941
  308MOL0     C41499  10.159   2.258   6.343 -0.4757 -0.6904 -0.5356
  308MOL0     C41500   9.925   2.676   6.321 -0.4763 -0.3338  0.3790
  308MOL0     C41501   9.929   2.809   6.285 -0.6038 -0.4040 -0.9135
  308MOL0     C41502   9.819   2.884   6.261 -0.5273  0.8225  0.3315
  308MOL0     C41503   9.685   2.820   6.253 -0.6028 -0.9831  0.1463
  308MOL0     O41504   9.583   2.902   6.229  0.3731 -0.2469 -0.2236
  308MOL0     C41505   9.452   2.844   6.218 -0.2220  0.0539 -0.8439
  308MOL0     C41506   9.404   2.790   6.083  0.1559  0.1191  0.3241
  308MOL0     C41507   9.276   2.706   6.088  0.1805  0.8735  0.5753
  308MOL0     C41508   9.257   2.631   5.948  0.3691 -0.5832 -0.9213
  308MOL0     C41509   9.123   2.571   5.933 -0.5605 -0.4625 -0.3427
  308MOL0     C41510   9.014   2.517   5.911  0.4028 -0.2327 -0.2069
  308MOL0     C41511   9.685   2.679   6.272 -0.6220 -0.4869  0.3549
  308MOL0     C41512   9.799   2.607   6.309 -0.0865  0.7931 -0.0101
  308MOL0     H41513  10.212   2.517   6.562  0.4960 -0.5424  0.7779
  308MOL0     H41514  10.409   2.404   6.597  1.0221  2.2988 -2.7233
  308MOL0     H41515  10.613   2.264   6.585 -1.7286  2.2402  1.1142
  308MOL0     H41516  10.482   2.214   6.699 -0.3641  2.0185 -0.7781
  308MOL0     H41517  10.668   2.079   6.742 -0.1891 -1.1764  0.1322
  308MOL0     H41518  10.553   1.975   6.638  1.1949 -1.9102 -1.9966
  308MOL0     H41519  10.683   2.024   6.441  1.9184  1.3421 -0.3721
  308MOL0     H41520  10.801   2.107   6.541  2.5135 -2.4860 -0.2166
  308MOL0     H41521  10.835   1.898   6.678 -2.0450  0.4937  0.7127
  308MOL0     H41522  10.709   1.811   6.571 -0.6051  0.9210 -1.7802
  308MOL0     H41523  10.868   1.880   6.392 -3.7897 -0.7873  1.0158
  308MOL0     H41524  10.980   1.910   6.525  1.2685  1.1480 -0.6128
  308MOL0     H41525  11.048   1.696   6.448 -0.2040  0.0148 -1.6922
  308MOL0     H41526  10.959   1.671   6.602 -0.7888 -1.1447 -0.9636
  308MOL0     H41527  10.760   1.592   6.466  2.4762 -0.2443  2.4610
  308MOL0     H41528  10.855   1.646   6.311 -0.2331 -0.6595 -0.3120
  308MOL0     H41529  10.913   1.418   6.490 -1.5542  2.5700  1.2380
  308MOL0     H41530  11.002   1.468   6.347 -0.8233  1.6165 -0.9642
  308MOL0     H41531  10.770   1.203   6.461  1.2187  0.4104 -0.2895
  308MOL0     H41532  10.614   1.003   6.189  1.0552 -1.5015  1.3943
  308MOL0     H41533  10.655   1.006   6.360 -0.0478  3.9437  3.3987
  308MOL0     H41534  10.445   1.192   6.289  2.0849  0.2086  0.4547
  308MOL0     H41535  10.478   1.109   6.442 -3.2177  0.8191  0.3480
  308MOL0     H41536  10.404   0.886   6.331  1.8383  0.5824  0.2518
  308MOL0     H41537  10.371   0.979   6.175 -0.6086 -1.3673 -0.6486
  308MOL0     H41538  10.196   1.114   6.315 -2.1765 -0.7898 -2.9673
  308MOL0     H41539  10.223   1.006   6.445 -0.0651  1.9451 -0.1315
  308MOL0     H41540  10.033   0.898   6.048 -1.1667 -0.9534  0.6964
  308MOL0     H41541   9.861   0.940   5.877  0.1311  2.6174 -1.7753
  308MOL0     H41542   9.692   0.939   5.930 -0.9358 -0.2274  2.8845
  308MOL0     H41543   9.790   1.091   5.918  1.0145  0.8523  2.6834
  308MOL0     H41544   9.412   1.254   6.087 -0.4842  0.5676 -0.7909
  308MOL0     H41545   9.207   1.339   6.103 -0.5081 -0.9613  0.0909
  308MOL0     H41546   8.876   1.348   6.413  0.4742 -1.0732 -2.2897
  308MOL0     H41547   9.017   1.313   6.514  3.2559 -0.7944 -1.1962
  308MOL0     H41548   8.941   1.509   6.594  2.1311 -1.7641  1.3013
  308MOL0     H41549   9.098   1.538   6.514 -0.2714  0.5768 -4.2676
  308MOL0     H41550   8.835   1.652   6.472 -0.9029 -1.5180  1.4420
  308MOL0     H41551   8.903   1.591   6.309  0.4879 -3.8946  1.8707
  308MOL0     H41552   9.034   1.793   6.495  4.3347 -3.6928  0.9052
  308MOL0     H41553   9.113   1.721   6.367  0.4736  0.0364  0.6416
  308MOL0     H41554   8.840   1.857   6.311 -0.3392 -1.8908  1.6935
  308MOL0     H41555   8.976   1.822   6.196  0.7934  1.5154 -0.4586
  308MOL0     H41556   8.940   2.064   6.308  0.7007 -1.2775 -1.5776
  308MOL0     H41557   9.017   1.998   6.452  0.6111  0.0517 -0.4763
  308MOL0     H41558   9.137   1.976   6.176 -1.1544 -0.9338  0.3334
  308MOL0     H41559   9.231   1.945   6.329 -1.4918 -1.2835  1.0326
  308MOL0     H41560   9.134   2.228   6.252 -0.4143 -1.4586 -2.4728
  308MOL0     H41561   9.301   2.167   6.230  1.9485  0.7163  3.0224
  308MOL0     H41562   9.204   1.277   6.538 -0.7016  0.3894 -0.3322
  308MOL0     H41563   9.432   1.171   6.513 -1.8198 -1.5648 -0.3723
  308MOL0     H41564   9.736   1.038   6.408 -2.0198 -1.0968 -1.3984
  308MOL0     H41565   9.936   0.959   6.467  1.1765  1.3196 -0.3461
  308MOL0     H41566  10.281   2.081   6.345  1.1142  1.9277 -1.0629
  308MOL0     H41567  10.080   2.229   6.274 -1.2208  2.4151 -1.1519
  308MOL0     H41568  10.028   2.852   6.293 -0.3831 -0.8244 -1.2697
  308MOL0     H41569   9.833   2.986   6.229  1.3994  0.1346 -1.1475
  308MOL0     H41570   9.432   2.774   6.300 -2.5745  0.9554 -0.5742
  308MOL0     H41571   9.389   2.930   6.241 -2.7476 -2.0466  0.6465
  308MOL0     H41572   9.479   2.727   6.036 -1.0612 -2.7734  1.9857
  308MOL0     H41573   9.370   2.878   6.028  1.0509  0.2303 -0.0603
  308MOL0     H41574   9.186   2.766   6.104 -0.8126  0.0832 -1.6367
  308MOL0     H41575   9.282   2.633   6.169 -0.4796  0.0325 -0.1075
  308MOL0     H41576   9.339   2.560   5.934  1.6903  1.0287 -1.8487
  308MOL0     H41577   9.263   2.705   5.867  2.5288  0.1685 -0.1445
  308MOL0     H41578   8.916   2.478   5.894 -0.4107  0.5424  2.2936
  308MOL0     H41579   9.592   2.625   6.261 -0.8606 -0.1734  0.8168
  308MOL0     H41580   9.792   2.501   6.334  0.4143  0.3874 -1.5177
  309MOL0     O41581  10.508   4.192   3.000  0.3314  0.0407  0.3641
  309MOL0     C41582  10.582   4.278   2.958  0.5750 -0.5622 -0.6150
  309MOL0     O41583  10.574   4.334   2.836 -0.0385 -0.4787  0.4212
  309MOL0     C41584  10.483   4.291   2.743  0.9500 -0.1643 -0.0427
  309MOL0     C41585  10.501   4.344   2.611 -0.6124 -0.2706  1.7471
  309MOL0     C41586  10.402   4.320   2.510  1.4621  0.3780 -0.1363
  309MOL0     C41587  10.301   4.227   2.527  0.0385 -0.4035 -0.6724
  309MOL0     O41588  10.225   4.184   2.415  0.0884  0.2658  0.3883
  309MOL0     C41589  10.132   4.076   2.434 -0.1664  0.3280  0.1434
  309MOL0     C41590  10.028   4.087   2.317  0.4652  0.6541 -1.4107
  309MOL0     C41591   9.900   4.011   2.332  0.5332  0.6946 -1.2386
  309MOL0     C41592   9.831   4.004   2.196 -0.9672  0.5961 -0.1436
  309MOL0     C41593   9.677   3.984   2.225  0.5987  0.2642 -0.2584
  309MOL0     C41594   9.643   3.844   2.286 -0.2046 -0.2731  0.5534
  309MOL0     C41595   9.492   3.828   2.297  0.2109 -0.1143 -0.3478
  309MOL0     C41596   9.426   3.922   2.396 -0.5336  0.1733  0.4254
  309MOL0     N41597   9.282   3.887   2.415 -0.1954  0.0687 -0.2934
  309MOL0     C41598   9.197   3.858   2.312 -0.0164 -1.6222 -0.4694
  309MOL0     C41599   9.086   3.811   2.366 -0.2148 -0.4593 -0.0792
  309MOL0     C41600   8.964   3.783   2.284  0.4384  0.0009  0.2745
  309MOL0     C41601   8.913   3.902   2.211  0.7521 -0.3568  0.0783
  309MOL0     C41602   8.840   3.998   2.310 -0.0175  0.4312 -0.0135
  309MOL0     C41603   8.682   3.982   2.288 -0.4539  0.1827 -1.1223
  309MOL0     O41604   8.624   4.052   2.395 -0.3395 -0.2730  0.0492
  309MOL0     C41605   8.585   4.184   2.399  0.1610 -0.4365  0.1790
  309MOL0     C41606   8.530   4.226   2.517  0.9483  0.1980 -0.1326
  309MOL0     C41607   8.491   4.354   2.530  0.4652  1.0680  0.6324
  309MOL0     C41608   8.434   4.380   2.674 -0.9426 -0.3523  0.5230
  309MOL0     C41609   8.515   4.449   2.427  0.2527  1.1111  0.1839
  309MOL0     C41610   8.466   4.594   2.433  0.9251  0.6552 -0.2262
  309MOL0     O41611   8.472   4.665   2.323 -0.0556 -0.8659  0.0752
  309MOL0     C41612   8.410   4.788   2.327 -0.1891 -0.3066  0.8319
  309MOL0     C41613   8.280   4.808   2.275  0.2977  0.9940 -0.2359
  309MOL0     C41614   8.223   4.934   2.284  1.4299 -0.0319  0.0479
  309MOL0     C41615   8.287   5.041   2.338 -1.1216  0.4074  0.2724
  309MOL0     O41616   8.244   5.169   2.338  0.2904 -0.0777 -0.5639
  309MOL0     C41617   8.104   5.195   2.332  0.5138  0.2125 -0.2508
  309MOL0     C41618   8.068   5.328   2.378  0.2096 -0.4785  0.4549
  309MOL0     C41619   8.129   5.444   2.295  0.2320 -0.6940 -0.2247
  309MOL0     C41620   8.112   5.569   2.386  0.6603  0.5648  0.5331
  309MOL0     C41621   8.131   5.704   2.306 -0.1888 -0.4031  0.3076
  309MOL0     C41622   8.273   5.721   2.252  0.2292 -0.7407 -0.4185
  309MOL0     C41623   8.386   5.722   2.351  0.1017 -0.1094 -0.1342
  309MOL0     C41624   8.509   5.634   2.309  0.1127 -0.8179 -0.2955
  309MOL0    Cl41625   8.585   5.708   2.169  0.1942  0.0494  0.3201
  309MOL0     C41626   8.418   5.022   2.390  0.1179 -0.9417 -0.0137
  309MOL0     C41627   8.468   4.893   2.392 -0.7574 -0.0720  0.5348
  309MOL0     O41628   8.420   4.636   2.542 -0.5063  0.6763  0.3233
  309MOL0     C41629   8.576   4.407   2.311  0.9455 -0.6439 -0.2930
  309MOL0     C41630   8.595   4.269   2.287 -0.5994  0.4317  0.3452
  309MOL0     N41631   9.112   3.806   2.501  0.7299  0.2628  0.2786
  309MOL0     N41632   9.229   3.849   2.534  1.1366 -0.0512  0.1231
  309MOL0     C41633  10.290   4.162   2.656 -0.4284  0.5771 -0.2804
  309MOL0     C41634  10.372   4.202   2.762 -0.2541 -0.0408  0.8685
  309MOL0     C41635  10.672   4.342   3.057  0.3334 -0.1132 -0.2735
  309MOL0     C41636  10.748   4.455   3.018  0.3910 -0.0036 -0.9347
  309MOL0     C41637  10.831   4.513   3.116  0.3266  0.7981  0.1948
  309MOL0     C41638  10.863   4.440   3.237  0.0302  0.4817  0.8795
  309MOL0     O41639  10.960   4.503   3.325  0.3291  0.1519  0.3742
  309MOL0     C41640  11.007   4.419   3.435  0.1089  0.0547  0.0534
  309MOL0     C41641  11.152   4.462   3.466  0.7758 -0.4241 -0.5868
  309MOL0     C41642  11.226   4.490   3.332 -0.1927 -0.8597 -0.3795
  309MOL0     C41643  11.374   4.515   3.347 -0.4193  0.3598 -0.0054
  309MOL0     C41644  11.452   4.506   3.221 -0.9529 -0.2500  0.0478
  309MOL0     C41645  11.522   4.497   3.112 -0.6482  0.3909  0.1782
  309MOL0     C41646  10.789   4.332   3.264  0.4395 -0.0289  0.0650
  309MOL0     C41647  10.696   4.277   3.178  0.0756  0.1965 -0.0042
  309MOL0     H41648  10.586   4.409   2.594 -0.6734 -0.0386  2.3066
  309MOL0     H41649  10.410   4.354   2.407 -4.9388  0.9478 -0.8718
  309MOL0     H41650  10.180   3.978   2.424  1.9346  1.0589  2.1158
  309MOL0     H41651  10.083   4.081   2.531 -0.2358  0.7923  0.0849
  309MOL0     H41652  10.004   4.193   2.304  2.6892  1.2749 -0.9769
  309MOL0     H41653  10.081   4.046   2.230 -2.3914 -3.3328 -1.5822
  309MOL0     H41654   9.917   3.910   2.370  2.3679  1.1028 -0.8913
  309MOL0     H41655   9.843   4.069   2.406  2.4739  0.4892  0.4749
  309MOL0     H41656   9.833   4.089   2.128  2.0802  0.8069  0.0744
  309MOL0     H41657   9.875   3.920   2.141 -0.7732  1.3046 -1.0987
  309MOL0     H41658   9.646   4.068   2.287 -1.5855  0.6933 -1.8173
  309MOL0     H41659   9.618   3.992   2.133  1.9855  1.4014 -1.0823
  309MOL0     H41660   9.683   3.767   2.219 -1.0872 -0.1782 -0.1061
  309MOL0     H41661   9.692   3.831   2.383  1.3153 -0.3954 -0.2036
  309MOL0     H41662   9.445   3.842   2.199 -0.1786  0.1495 -0.1245
  309MOL0     H41663   9.492   3.728   2.341  2.5151  1.4789  3.9482
  309MOL0     H41664   9.440   4.027   2.367  0.9190  0.2010  1.1234
  309MOL0     H41665   9.480   3.912   2.491  0.0321 -3.0180 -0.1287
  309MOL0     H41666   9.201   3.899   2.212  0.9489  0.8645  0.5149
  309MOL0     H41667   8.996   3.713   2.206 -4.2020 -2.0649 -0.1294
  309MOL0     H41668   8.888   3.728   2.341 -0.2349  0.0497 -0.5498
  309MOL0     H41669   8.853   3.868   2.126  0.6336 -1.8464  0.7307
  309MOL0     H41670   8.999   3.958   2.173 -0.9307  1.6199 -1.0367
  309MOL0     H41671   8.869   4.098   2.275  0.5375  0.4120  0.3859
  309MOL0     H41672   8.868   3.979   2.414 -0.5135  0.6724  0.1657
  309MOL0     H41673   8.641   3.882   2.272 -1.7604  0.8438 -2.1160
  309MOL0     H41674   8.647   4.034   2.198  0.5645  3.5492  0.2648
  309MOL0     H41675   8.518   4.153   2.597 -1.4392  0.2513 -0.3531
  309MOL0     H41676   8.410   4.288   2.729  1.6356 -1.8105 -0.5960
  309MOL0     H41677   8.516   4.426   2.728  1.1466 -2.5240 -0.6055
  309MOL0     H41678   8.347   4.446   2.680  1.5214  2.9977  1.8601
  309MOL0     H41679   8.219   4.729   2.233 -0.7320  1.6764 -0.0651
  309MOL0     H41680   8.126   4.942   2.236  0.0112 -0.3252  2.6797
  309MOL0     H41681   8.081   5.181   2.226 -1.8383 -3.3547  0.5687
  309MOL0     H41682   8.058   5.117   2.393  1.4046 -0.3083 -0.2204
  309MOL0     H41683   7.960   5.340   2.371 -0.0120 -2.7607 -1.1640
  309MOL0     H41684   8.097   5.338   2.483 -2.4955 -2.3460  1.4759
  309MOL0     H41685   8.062   5.458   2.209  3.1207  0.8855 -2.3799
  309MOL0     H41686   8.233   5.422   2.270  1.4370  0.6172  3.0748
  309MOL0     H41687   8.011   5.577   2.427 -0.4013 -0.3694 -1.7270
  309MOL0     H41688   8.183   5.553   2.467  1.3845 -2.7802 -0.6132
  309MOL0     H41689   8.118   5.788   2.375  0.8025 -0.7861  0.9888
  309MOL0     H41690   8.061   5.717   2.224 -1.9220  0.3032  1.8243
  309MOL0     H41691   8.281   5.636   2.183  2.5196 -0.9991  0.0864
  309MOL0     H41692   8.290   5.817   2.201  1.6794 -0.3112  0.8146
  309MOL0     H41693   8.342   5.695   2.447  1.6043  0.2644  0.6862
  309MOL0     H41694   8.425   5.822   2.371  1.2649 -0.9812  2.4660
  309MOL0     H41695   8.493   5.530   2.282 -2.1921 -0.7231  0.4255
  309MOL0     H41696   8.587   5.640   2.386  0.8656  1.1918 -1.1308
  309MOL0     H41697   8.479   5.100   2.434  2.5735 -2.1256 -1.0603
  309MOL0     H41698   8.561   4.883   2.446 -0.1126  1.0124 -0.3411
  309MOL0     H41699   8.603   4.475   2.231  0.9213  0.4006  0.5725
  309MOL0     H41700   8.636   4.238   2.192 -0.3987 -0.6142  0.7537
  309MOL0     H41701  10.210   4.092   2.679 -0.3087  0.5374  0.0256
  309MOL0     H41702  10.349   4.154   2.857  0.6053 -3.8802 -0.6837
  309MOL0     H41703  10.743   4.493   2.916  0.1547  1.9166 -0.2492
  309MOL0     H41704  10.891   4.598   3.084 -0.1369  1.3868  0.8466
  309MOL0     H41705  10.941   4.417   3.522  0.2283  0.4899  0.1608
  309MOL0     H41706  11.028   4.318   3.399  3.9335 -0.0959  2.1479
  309MOL0     H41707  11.194   4.382   3.527 -1.6787 -0.7276  0.8136
  309MOL0     H41708  11.146   4.552   3.529 -0.4802  0.4199 -1.8603
  309MOL0     H41709  11.201   4.588   3.292  1.2518  0.7382  2.3442
  309MOL0     H41710  11.203   4.416   3.254 -1.4379 -0.9774  0.0758
  309MOL0     H41711  11.411   4.437   3.413 -1.3272  1.4534  1.9043
  309MOL0     H41712  11.401   4.609   3.397  0.0930 -1.1721  2.7968
  309MOL0     H41713  11.573   4.493   3.018 -0.1495 -2.1204  0.4911
  309MOL0     H41714  10.793   4.287   3.363 -0.1157  0.1018  0.1484
  309MOL0     H41715  10.636   4.194   3.214  0.2522  0.1169  0.1066
  310MOL0     O41716   4.196  10.924   4.286  0.0624 -0.1945  0.6145
  310MOL0     C41717   4.307  10.975   4.297  0.0511  1.2318 -0.1250
  310MOL0     O41718   4.422  10.929   4.247  0.0724  0.3929  0.7780
  310MOL0     C41719   4.427  10.808   4.175  0.4308  0.0308  0.6817
  310MOL0     C41720   4.370  10.809   4.045 -0.6573 -0.8148 -0.7127
  310MOL0     C41721   4.363  10.696   3.965 -0.5560  0.4477  0.0702
  310MOL0     C41722   4.436  10.579   4.007  0.5857  0.3793 -0.3299
  310MOL0     O41723   4.423  10.464   3.928 -0.0403  0.5422 -0.2028
  310MOL0     C41724   4.492  10.344   3.976  0.1324  1.1191  0.3196
  310MOL0     C41725   4.507  10.239   3.864  0.0459 -0.3695 -0.4790
  310MOL0     C41726   4.577  10.111   3.896  0.0476 -0.0653 -0.7688
  310MOL0     C41727   4.725  10.129   3.942  0.0125 -0.2607 -0.6072
  310MOL0     C41728   4.755  10.044   4.068  0.2014 -0.2740  0.0580
  310MOL0     C41729   4.667  10.063   4.198  0.9493 -0.0200  0.6758
  310MOL0     C41730   4.740  10.006   4.314  1.0035 -0.7653  0.1193
  310MOL0     C41731   4.664  10.034   4.444  0.0470  0.2470  0.5039
  310MOL0     N41732   4.737   9.966   4.556 -0.2862 -0.5308 -0.4599
  310MOL0     C41733   4.817  10.020   4.647  0.1492 -0.7926 -0.4185
  310MOL0     C41734   4.857   9.917   4.728 -0.7781 -1.4063  0.5845
  310MOL0     C41735   4.953   9.918   4.832 -1.1048  0.5435 -0.0744
  310MOL0     C41736   4.901   9.987   4.960  0.3316 -0.5629  0.0943
  310MOL0     C41737   4.958  10.126   4.971 -0.4641  0.8662 -0.6931
  310MOL0     C41738   5.097  10.146   5.026 -0.1588  0.0534  0.0131
  310MOL0     O41739   5.204  10.065   4.970  0.3328  0.3923  0.2581
  310MOL0     C41740   5.310  10.037   5.048 -0.9054  0.2741 -0.0969
  310MOL0     C41741   5.439  10.049   4.984  0.6737 -0.4287 -0.7463
  310MOL0     C41742   5.554  10.009   5.051 -0.1198  0.0744 -0.0779
  310MOL0     C41743   5.683  10.023   4.983 -0.4628  0.0233 -0.0578
  310MOL0     C41744   5.548   9.962   5.187  0.0814  0.6776  0.1196
  310MOL0     C41745   5.662   9.909   5.265 -0.1917 -0.3537 -0.4494
  310MOL0     O41746   5.660   9.940   5.401  0.0391 -0.5123  0.2508
  310MOL0     C41747   5.758   9.901   5.492 -0.4438  0.3557  1.4136
  310MOL0     C41748   5.707   9.848   5.614 -0.1204  0.7938 -0.7330
  310MOL0     C41749   5.812   9.807   5.705 -0.7667 -0.9561  0.3246
  310MOL0     C41750   5.946   9.844   5.678  0.1299  0.9225  1.1255
  310MOL0     O41751   6.040   9.785   5.756  0.2024 -0.2079 -0.0615
  310MOL0     C41752   6.116   9.885   5.817 -1.1810  0.8793  0.6498
  310MOL0     C41753   6.250   9.816   5.861  0.0639  0.2286  0.1612
  310MOL0     C41754   6.338   9.921   5.917 -0.1637  0.2713  0.0610
  310MOL0     C41755   6.480   9.860   5.951 -1.2283  0.5973 -0.6016
  310MOL0     C41756   6.583   9.892   5.842 -0.0748 -0.2913  0.3612
  310MOL0     C41757   6.725   9.874   5.889 -0.5614 -0.2125  0.1579
  310MOL0     C41758   6.833   9.921   5.783 -0.5022 -0.3943 -0.7289
  310MOL0     C41759   6.830   9.817   5.665  0.4190 -0.0740  0.2706
  310MOL0    Cl41760   6.945   9.846   5.530  0.1898 -0.2121  0.2874
  310MOL0     C41761   5.988   9.900   5.554  0.1204  0.2579 -0.7231
  310MOL0     C41762   5.895   9.938   5.467  0.7419 -0.0783  1.1015
  310MOL0     O41763   5.758   9.851   5.209 -0.1453 -0.0187  0.4170
  310MOL0     C41764   5.424   9.948   5.253 -0.6587 -0.0884  0.5724
  310MOL0     C41765   5.304   9.983   5.183  0.2723 -0.4262  0.6498
  310MOL0     N41766   4.788   9.799   4.686 -0.3193  0.2021  0.1342
  310MOL0     N41767   4.721   9.836   4.574  1.1785  0.8097 -0.2257
  310MOL0     C41768   4.507  10.586   4.135  0.3440 -0.1976  0.3208
  310MOL0     C41769   4.497  10.694   4.218 -0.1470 -0.4003  0.0216
  310MOL0     C41770   4.320  11.106   4.360  0.3132 -0.4393  0.5952
  310MOL0     C41771   4.252  11.138   4.471 -0.0741  0.6324  0.2433
  310MOL0     C41772   4.260  11.258   4.539 -0.8275 -0.9186 -0.2333
  310MOL0     C41773   4.360  11.347   4.499 -0.1528 -0.8002 -0.7613
  310MOL0     O41774   4.396  11.455   4.575 -0.0950 -0.6894  0.2063
  310MOL0     C41775   4.324  11.482   4.693 -0.6165 -0.2944 -0.1334
  310MOL0     C41776   4.187  11.549   4.688 -0.5165 -0.6088  0.2110
  310MOL0     C41777   4.190  11.688   4.630 -0.4720 -1.0314 -0.6384
  310MOL0     C41778   4.159  11.690   4.485  0.4944  0.5738  0.9281
  310MOL0     C41779   4.127  11.827   4.431 -0.1093  0.1347  0.2292
  310MOL0     C41780   4.080  11.937   4.402  0.1262  0.2678  0.0052
  310MOL0     C41781   4.430  11.313   4.386 -0.5458  0.7685  0.1955
  310MOL0     C41782   4.428  11.189   4.321 -0.6461  0.3084  0.3092
  310MOL0     H41783   4.329  10.904   4.010  1.8267  0.9176  0.8067
  310MOL0     H41784   4.320  10.699   3.866  1.5520  1.2102 -0.8587
  310MOL0     H41785   4.590  10.369   4.017  0.4794  0.3332 -0.0079
  310MOL0     H41786   4.438  10.298   4.060 -0.6531  2.2483  0.4615
  310MOL0     H41787   4.410  10.212   3.822  0.0458 -0.5520 -0.3641
  310MOL0     H41788   4.553  10.298   3.785  2.1023 -0.3625  0.6582
  310MOL0     H41789   4.519  10.077   3.983  1.8134 -2.2486 -0.3358
  310MOL0     H41790   4.579  10.037   3.816  1.1745 -3.3606  2.0129
  310MOL0     H41791   4.784  10.105   3.853  0.1826  0.9689 -0.8473
  310MOL0     H41792   4.758  10.228   3.974  0.6930 -1.0450  1.2325
  310MOL0     H41793   4.729   9.944   4.034 -1.4471  0.0687  0.1950
  310MOL0     H41794   4.858  10.061   4.100 -0.2734  0.6844  1.1783
  310MOL0     H41795   4.636  10.167   4.213  0.0699  0.0551 -1.3357
  310MOL0     H41796   4.572  10.010   4.181  1.5789 -0.1866 -3.2237
  310MOL0     H41797   4.734   9.898   4.300 -0.5743 -0.8350  1.0641
  310MOL0     H41798   4.838  10.054   4.320 -0.3141  2.0870  0.7703
  310MOL0     H41799   4.564   9.993   4.428  1.2205 -2.5854 -0.0804
  310MOL0     H41800   4.660  10.143   4.453  1.7318  0.5015 -1.3514
  310MOL0     H41801   4.848  10.123   4.659  1.4858 -1.3228  0.9654
  310MOL0     H41802   4.965   9.813   4.863  0.7888  1.3333  2.0944
  310MOL0     H41803   5.050   9.949   4.793 -0.2033 -0.3469  1.3525
  310MOL0     H41804   4.921   9.922   5.047  0.9670 -0.9004 -0.2988
  310MOL0     H41805   4.794  10.011   4.954 -0.0988 -2.1199  0.8490
  310MOL0     H41806   4.883  10.180   5.030 -1.2348  2.9481 -3.3998
  310MOL0     H41807   4.951  10.179   4.876 -1.4909  0.6674 -0.7450
  310MOL0     H41808   5.100  10.118   5.132 -0.2038  1.2079  0.3345
  310MOL0     H41809   5.111  10.253   5.008 -1.1246  0.3348  0.8251
  310MOL0     H41810   5.435  10.090   4.884 -0.8498  1.4877  0.0317
  310MOL0     H41811   5.746   9.933   4.983  0.2443  0.4712  1.5530
  310MOL0     H41812   5.676  10.055   4.879  5.1877  0.9753 -0.4827
  310MOL0     H41813   5.750  10.098   5.027  0.9507 -0.6566 -0.9426
  310MOL0     H41814   5.602   9.824   5.620  0.3246 -0.9275  1.1100
  310MOL0     H41815   5.773   9.751   5.789 -0.3002 -0.6478  0.7556
  310MOL0     H41816   6.137   9.972   5.755 -0.4954 -0.6797 -1.4319
  310MOL0     H41817   6.056   9.928   5.899 -2.3739  0.7420 -0.1215
  310MOL0     H41818   6.233   9.737   5.935  0.8450 -1.7142 -1.6446
  310MOL0     H41819   6.311   9.772   5.782  2.4012  0.3667  1.7769
  310MOL0     H41820   6.293   9.951   6.013  0.0185 -1.8566  0.8560
  310MOL0     H41821   6.346  10.012   5.857 -0.3021  2.8976  3.6469
  310MOL0     H41822   6.524   9.912   6.036  1.8483  1.6743 -2.6559
  310MOL0     H41823   6.481   9.751   5.950 -1.1496  0.5771  0.4983
  310MOL0     H41824   6.572   9.997   5.814  0.2929 -0.5469 -0.7923
  310MOL0     H41825   6.565   9.841   5.746  1.5410  2.4768 -1.5452
  310MOL0     H41826   6.746   9.932   5.979 -1.1414 -2.4416  1.8121
  310MOL0     H41827   6.746   9.771   5.922 -0.8260 -0.1697  0.4685
  310MOL0     H41828   6.934   9.928   5.825 -0.0293 -0.9617 -1.7189
  310MOL0     H41829   6.802  10.023   5.757 -0.4085  0.4511  2.1154
  310MOL0     H41830   6.736   9.838   5.614  1.4574  2.2208 -0.8337
  310MOL0     H41831   6.832   9.714   5.702  1.4896 -1.3876 -3.0960
  310MOL0     H41832   6.094   9.909   5.532  0.3266  0.8845  0.4333
  310MOL0     H41833   5.926   9.985   5.375  0.5017 -2.0645 -0.0414
  310MOL0     H41834   5.411   9.901   5.350 -3.3310 -0.7196 -0.0081
  310MOL0     H41835   5.216   9.975   5.246  0.2018  0.6893  0.7183
  310MOL0     H41836   4.553  10.498   4.179  0.3679 -1.4217 -2.0425
  310MOL0     H41837   4.520  10.698   4.324 -0.2811 -1.1143  0.0833
  310MOL0     H41838   4.186  11.061   4.510  0.8390  0.0475  0.6585
  310MOL0     H41839   4.193  11.274   4.622 -0.8191 -0.5898 -0.2900
  310MOL0     H41840   4.311  11.389   4.750 -2.0151 -0.7109 -1.0874
  310MOL0     H41841   4.389  11.543   4.756 -0.7916 -0.5281  0.2764
  310MOL0     H41842   4.139  11.558   4.786 -1.5191 -2.2473 -0.0893
  310MOL0     H41843   4.108  11.495   4.635 -0.5088 -2.1748  1.7291
  310MOL0     H41844   4.287  11.735   4.650  0.7811 -1.8908 -4.0408
  310MOL0     H41845   4.107  11.745   4.674  0.6767  2.8042 -2.9554
  310MOL0     H41846   4.058  11.648   4.482  0.4763  0.6571 -0.3707
  310MOL0     H41847   4.228  11.635   4.421 -0.9629 -0.2829  0.0165
  310MOL0     H41848   4.048  12.032   4.365  3.6155  1.6240  0.0877
  310MOL0     H41849   4.503  11.384   4.348 -0.1590  0.8189  1.0058
  310MOL0     H41850   4.495  11.162   4.241 -2.4519 -0.5625 -0.9844
  311MOL0     O41851   8.277   4.302   1.365  0.3932  0.4524 -0.3956
  311MOL0     C41852   8.254   4.179   1.345  1.2364 -0.5076 -0.6927
  311MOL0     O41853   8.131   4.124   1.371 -0.2267 -0.3753 -0.1547
  311MOL0     C41854   8.037   4.194   1.444 -0.2480  0.1973  0.1225
  311MOL0     C41855   7.909   4.218   1.387 -0.3121  0.7913 -0.0494
  311MOL0     C41856   7.799   4.246   1.473 -0.0908  0.2598  0.2197
  311MOL0     C41857   7.820   4.272   1.599  0.2582 -0.0576 -0.0405
  311MOL0     O41858   7.708   4.326   1.675 -0.5916  0.2629  0.6068
  311MOL0     C41859   7.745   4.426   1.776  0.6220 -0.3741  0.1221
  311MOL0     C41860   7.641   4.532   1.788 -0.0197 -0.2507  0.0549
  311MOL0     C41861   7.522   4.487   1.876  0.6715  0.7463 -0.6264
  311MOL0     C41862   7.411   4.588   1.891  0.3487 -0.1295 -0.2083
  311MOL0     C41863   7.285   4.524   1.933  0.3160 -0.2120 -0.2080
  311MOL0     C41864   7.289   4.451   2.070 -0.3527 -0.4767 -0.3757
  311MOL0     C41865   7.147   4.400   2.100 -1.0475 -0.3721 -0.2374
  311MOL0     C41866   7.103   4.265   2.039  0.4480  0.8212  0.7954
  311MOL0     N41867   6.967   4.229   2.085 -0.3040  0.8190 -0.3754
  311MOL0     C41868   6.916   4.261   2.208  1.0409 -0.2357  0.4183
  311MOL0     C41869   6.793   4.210   2.211 -0.1581  0.9487 -0.1372
  311MOL0     C41870   6.697   4.202   2.330  0.7202 -0.4349  0.1978
  311MOL0     C41871   6.589   4.302   2.319  0.1556  1.0341  0.6999
  311MOL0     C41872   6.478   4.286   2.422 -0.6238 -0.0674  0.8385
  311MOL0     C41873   6.350   4.339   2.354  0.1056  0.7782 -0.8609
  311MOL0     O41874   6.246   4.292   2.451  0.3463  0.6099  0.2585
  311MOL0     C41875   6.117   4.309   2.406  0.1292 -0.0401 -0.1415
  311MOL0     C41876   6.076   4.366   2.287 -0.3768 -0.3983  0.2964
  311MOL0     C41877   5.942   4.384   2.256 -0.5214 -0.6432 -0.5551
  311MOL0     C41878   5.907   4.465   2.138 -0.1260 -0.3097  0.3657
  311MOL0     C41879   5.830   4.342   2.342 -0.7172  0.4194 -0.3969
  311MOL0     C41880   5.686   4.359   2.320  0.8687 -0.0900  0.3589
  311MOL0     O41881   5.608   4.337   2.433 -0.4571  0.1454  1.0190
  311MOL0     C41882   5.481   4.388   2.442  0.8169  0.7036  0.4536
  311MOL0     C41883   5.391   4.323   2.527  0.2608  0.4402  0.2423
  311MOL0     C41884   5.261   4.357   2.548 -0.5844  0.3060  1.1170
  311MOL0     C41885   5.223   4.488   2.497 -0.2852  0.3561  1.5971
  311MOL0     O41886   5.096   4.536   2.498 -0.6224  0.4003  0.3790
  311MOL0     C41887   5.037   4.525   2.624 -0.4998 -0.6094 -0.7071
  311MOL0     C41888   4.918   4.625   2.622  1.0749 -0.3780 -0.0707
  311MOL0     C41889   4.792   4.582   2.710  0.5935  0.1507  0.5000
  311MOL0     C41890   4.673   4.682   2.686 -0.4517 -0.1394  0.1737
  311MOL0     C41891   4.696   4.837   2.694  1.3328  0.1287 -0.5459
  311MOL0     C41892   4.747   4.853   2.838 -0.2117  0.3685  1.1051
  311MOL0     C41893   4.761   5.011   2.851 -0.2765 -0.1238  0.0063
  311MOL0     C41894   4.751   5.075   2.994 -0.1862 -0.5852  0.4782
  311MOL0    Cl41895   4.910   5.079   3.074  0.0328  0.4930 -0.5340
  311MOL0     C41896   5.320   4.547   2.404  1.5350 -0.5233  0.7664
  311MOL0     C41897   5.445   4.501   2.372  0.6439  0.6911 -0.2523
  311MOL0     O41898   5.647   4.359   2.206 -0.3109  0.0393  0.5508
  311MOL0     C41899   5.883   4.267   2.458 -0.1281  0.7049 -0.5624
  311MOL0     C41900   6.023   4.264   2.488 -0.1007 -0.5552 -0.6734
  311MOL0     N41901   6.771   4.142   2.096  0.3040  0.6153 -0.3258
  311MOL0     N41902   6.878   4.147   2.020 -0.7617  0.0241 -0.4304
  311MOL0     C41903   7.942   4.248   1.662 -0.2886 -0.1877 -0.1904
  311MOL0     C41904   8.048   4.195   1.584 -0.5467 -0.7604  0.4428
  311MOL0     C41905   8.343   4.101   1.265 -0.5480  0.6208  0.1571
  311MOL0     C41906   8.455   4.162   1.217 -0.3264  0.0342 -1.5371
  311MOL0     C41907   8.525   4.099   1.121  0.5832  0.5185 -0.1531
  311MOL0     C41908   8.502   3.965   1.090  0.7656 -0.0783  0.4579
  311MOL0     O41909   8.593   3.906   1.007  0.8586  0.1252  0.1867
  311MOL0     C41910   8.592   3.924   0.869  0.4408 -0.1050  0.0963
  311MOL0     C41911   8.716   3.855   0.817  0.9256  0.5611 -0.1137
  311MOL0     C41912   8.856   3.906   0.861  0.3645 -0.7529 -0.3435
  311MOL0     C41913   8.864   4.055   0.884  0.4418 -0.3162  0.1088
  311MOL0     C41914   8.860   4.137   0.759 -0.1585 -0.2309 -0.8507
  311MOL0     C41915   8.864   4.207   0.668  0.1480  0.3743  0.9835
  311MOL0     C41916   8.386   3.898   1.143  0.1410  0.2438  0.7903
  311MOL0     C41917   8.305   3.968   1.238 -0.6525  0.3515  0.0034
  311MOL0     H41918   7.893   4.191   1.283  1.2456 -1.4526  0.2027
  311MOL0     H41919   7.699   4.260   1.432  1.4257  3.0302 -2.9069
  311MOL0     H41920   7.769   4.376   1.871  1.7567 -0.4587 -0.1941
  311MOL0     H41921   7.842   4.476   1.770  1.7014 -1.6780  3.6583
  311MOL0     H41922   7.689   4.624   1.824  0.7343 -0.6114 -0.0156
  311MOL0     H41923   7.596   4.535   1.688  0.3519 -1.9858 -0.1932
  311MOL0     H41924   7.476   4.401   1.826 -2.4058  2.2318 -0.6435
  311MOL0     H41925   7.568   4.460   1.971  0.6331  0.3026 -0.7338
  311MOL0     H41926   7.433   4.663   1.968 -0.9056  0.8218 -0.7438
  311MOL0     H41927   7.400   4.642   1.796  2.0297  2.0331  0.7362
  311MOL0     H41928   7.213   4.606   1.928  0.1455 -0.4190 -1.6054
  311MOL0     H41929   7.247   4.452   1.859 -4.6950  1.1337  0.6659
  311MOL0     H41930   7.359   4.370   2.091 -1.3006 -1.4266 -0.8183
  311MOL0     H41931   7.310   4.526   2.147 -0.3888 -1.1912  0.3353
  311MOL0     H41932   7.139   4.382   2.208 -2.9950  0.7099 -0.1515
  311MOL0     H41933   7.073   4.478   2.083  1.4290  1.8945 -1.3013
  311MOL0     H41934   7.176   4.190   2.069  1.2683  1.9694  1.7550
  311MOL0     H41935   7.096   4.271   1.930 -0.6953  2.3149  0.9037
  311MOL0     H41936   6.947   4.318   2.294  1.5194  0.7418 -0.3778
  311MOL0     H41937   6.647   4.105   2.331 -2.5216  0.9690  4.0508
  311MOL0     H41938   6.752   4.211   2.424 -0.1496 -2.2645  0.9254
  311MOL0     H41939   6.546   4.286   2.219  3.8474 -2.0304 -0.6422
  311MOL0     H41940   6.630   4.404   2.320 -1.6066  1.7731  1.8618
  311MOL0     H41941   6.503   4.327   2.520 -1.3123  0.9816  0.5890
  311MOL0     H41942   6.448   4.182   2.440 -3.0004  0.7562  2.0644
  311MOL0     H41943   6.326   4.302   2.254 -2.0438  0.9052 -0.4348
  311MOL0     H41944   6.337   4.447   2.366  3.0277  0.9025  3.1036
  311MOL0     H41945   6.152   4.393   2.215  2.5620  1.0217  3.6337
  311MOL0     H41946   5.880   4.386   2.068  2.8032 -0.5512 -0.6405
  311MOL0     H41947   5.833   4.544   2.157 -0.8023 -1.4025  2.5216
  311MOL0     H41948   5.997   4.517   2.105 -1.3362  1.5863 -0.0947
  311MOL0     H41949   5.416   4.230   2.577  0.9908  0.8628  0.6694
  311MOL0     H41950   5.212   4.292   2.619  1.2943 -2.3129  0.1608
  311MOL0     H41951   5.014   4.421   2.650  1.8044 -1.4825 -1.9366
  311MOL0     H41952   5.102   4.559   2.705 -2.6162  0.8953  0.4563
  311MOL0     H41953   4.957   4.723   2.650 -1.9827  0.5167  1.5079
  311MOL0     H41954   4.872   4.639   2.524 -0.2931  2.6534  0.8951
  311MOL0     H41955   4.828   4.591   2.813  2.3529  3.8028 -0.2652
  311MOL0     H41956   4.761   4.480   2.688  2.7431 -0.1931 -1.2390
  311MOL0     H41957   4.622   4.665   2.590 -3.7293  0.2099  1.7207
  311MOL0     H41958   4.596   4.648   2.755 -4.2739  1.8569 -2.6682
  311MOL0     H41959   4.595   4.879   2.692  2.2971  3.0447  2.3546
  311MOL0     H41960   4.754   4.869   2.607  0.8557 -0.6407 -1.1621
  311MOL0     H41961   4.684   4.815   2.920 -1.8134 -1.0309 -0.6833
  311MOL0     H41962   4.844   4.805   2.835 -0.9333 -1.2545 -3.4684
  311MOL0     H41963   4.677   5.058   2.798  1.2710  1.2303 -1.3591
  311MOL0     H41964   4.852   5.050   2.804  1.1499 -0.9834  1.9326
  311MOL0     H41965   4.670   5.021   3.044  0.5438 -2.5383 -0.3483
  311MOL0     H41966   4.713   5.177   2.989  1.3748  0.3068  4.0675
  311MOL0     H41967   5.283   4.644   2.372  2.6046  1.6153  5.2864
  311MOL0     H41968   5.509   4.555   2.302  2.4553 -2.3380 -1.1402
  311MOL0     H41969   5.832   4.228   2.546  3.9251 -0.1086  1.6668
  311MOL0     H41970   6.042   4.221   2.586 -4.1023 -0.0696  0.5177
  311MOL0     H41971   7.937   4.264   1.769  3.6884  1.1248 -0.0226
  311MOL0     H41972   8.141   4.163   1.630 -0.4377  2.2890  2.6203
  311MOL0     H41973   8.473   4.269   1.231 -2.0876 -0.0236  2.2981
  311MOL0     H41974   8.604   4.152   1.069  0.4480  1.5264  0.6283
  311MOL0     H41975   8.503   3.872   0.831  0.9982 -0.1232 -1.2486
  311MOL0     H41976   8.585   4.030   0.844 -0.3731 -0.3263 -0.6885
  311MOL0     H41977   8.717   3.843   0.708  4.3605 -0.0065 -0.1206
  311MOL0     H41978   8.715   3.757   0.865  2.9783 -0.0035 -1.1015
  311MOL0     H41979   8.933   3.861   0.797 -1.0889 -2.0052 -1.2760
  311MOL0     H41980   8.882   3.859   0.956 -0.6907 -1.2108 -0.2722
  311MOL0     H41981   8.967   4.069   0.921  0.4702 -0.6883  0.1671
  311MOL0     H41982   8.803   4.088   0.969 -0.2563 -2.8513  0.6495
  311MOL0     H41983   8.866   4.252   0.571  3.0345  0.6099  1.0627
  311MOL0     H41984   8.353   3.804   1.099  0.1589  1.2948 -1.6714
  311MOL0     H41985   8.212   3.922   1.270  0.2737 -0.2055  2.0773
  312MOL0     O41986   9.366  10.408   7.769  0.6900  0.0478 -0.7575
  312MOL0     C41987   9.341  10.414   7.650 -0.9123 -0.3377  0.4592
  312MOL0     O41988   9.293  10.520   7.566  0.2436 -0.0499 -0.4690
  312MOL0     C41989   9.254  10.624   7.637 -0.2168 -0.3522  0.1236
  312MOL0     C41990   9.122  10.682   7.620  1.0020  0.3521 -0.1510
  312MOL0     C41991   9.096  10.810   7.682  0.2665  0.6765  0.1268
  312MOL0     C41992   9.193  10.879   7.751  0.9932 -0.2421  0.1084
  312MOL0     O41993   9.157  11.008   7.791 -0.6070 -0.0379 -0.7465
  312MOL0     C41994   9.257  11.089   7.858 -0.4375  0.2872 -0.0635
  312MOL0     C41995   9.195  11.230   7.872  0.1968 -0.2733 -0.1834
  312MOL0     C41996   9.117  11.258   7.998 -1.4975  0.2486  0.2867
  312MOL0     C41997   9.085  11.405   8.015 -0.8990 -0.0029  0.3398
  312MOL0     C41998   9.021  11.436   8.143 -0.1374  0.2142 -0.7710
  312MOL0     C41999   8.995  11.577   8.171  0.9882  0.3329  0.5293
  312MOL0     C42000   8.970  11.587   8.316  0.1315 -0.2176 -0.4209
  312MOL0     C42001   8.945  11.732   8.361  0.8567 -0.0822  0.1057
  312MOL0     N42002   8.882  11.740   8.491  0.0919  0.3859 -0.1760
  312MOL0     C42003   8.944  11.681   8.601  0.3827 -0.2756 -0.6472
  312MOL0     C42004   8.840  11.654   8.691 -0.5620 -0.6321  0.9723
  312MOL0     C42005   8.851  11.582   8.817  0.0592  0.7839  0.1362
  312MOL0     C42006   8.747  11.616   8.924  0.1537  0.3099 -0.3287
  312MOL0     C42007   8.615  11.544   8.909  0.2398  0.0967  0.2999
  312MOL0     C42008   8.604  11.393   8.913 -0.6189  0.3892 -0.2185
  312MOL0     O42009   8.470  11.348   8.870  0.2545 -0.1949  0.0960
  312MOL0     C42010   8.371  11.330   8.968  0.0228  0.7095 -0.6934
  312MOL0     C42011   8.252  11.286   8.912  0.3600 -0.4545 -0.0112
  312MOL0     C42012   8.141  11.263   8.993 -0.4437  0.0141  0.0807
  312MOL0     C42013   8.020  11.230   8.912  0.7170  0.4119  0.5238
  312MOL0     C42014   8.144  11.262   9.134 -0.8720  0.5567  0.0410
  312MOL0     C42015   8.041  11.224   9.229  1.1818  0.0817 -0.7823
  312MOL0     O42016   8.070  11.226   9.364  0.3974 -0.0748 -1.1212
  312MOL0     C42017   7.972  11.207   9.457  1.3575 -0.5077  0.5230
  312MOL0     C42018   7.910  11.301   9.546 -0.2830  0.1345 -0.6644
  312MOL0     C42019   7.814  11.254   9.644  0.1951 -0.4475  0.9190
  312MOL0     C42020   7.762  11.130   9.650 -0.7158 -0.0979 -0.6917
  312MOL0     O42021   7.672  11.082   9.743 -0.0652 -0.2627  0.3517
  312MOL0     C42022   7.564  11.165   9.789  0.5207 -0.3368  0.3788
  312MOL0     C42023   7.453  11.153   9.676  0.8827 -1.2429  0.3650
  312MOL0     C42024   7.317  11.115   9.724  0.7866  0.2263  0.1661
  312MOL0     C42025   7.251  11.204   9.826  0.4795 -1.0257 -0.1295
  312MOL0     C42026   7.108  11.163   9.862  0.6079 -0.7923 -0.2405
  312MOL0     C42027   7.091  11.085   9.995  1.1004 -0.2072 -0.5953
  312MOL0     C42028   7.139  10.949   9.978  0.0083 -1.1449  0.1894
  312MOL0     C42029   7.126  10.838  10.087  0.6252 -0.4234  0.9755
  312MOL0    Cl42030   7.208  10.886  10.239 -0.0225 -0.1913  0.1497
  312MOL0     C42031   7.817  11.041   9.554 -0.3765  0.7087  0.5358
  312MOL0     C42032   7.925  11.073   9.472 -0.8149 -0.0399 -0.4367
  312MOL0     O42033   7.927  11.209   9.185  0.6839 -0.3165 -0.0072
  312MOL0     C42034   8.266  11.313   9.192 -0.2203 -0.9092  0.1729
  312MOL0     C42035   8.382  11.347   9.104 -0.1873  0.2039  1.3176
  312MOL0     N42036   8.733  11.719   8.632  1.0460  0.2925 -0.8955
  312MOL0     N42037   8.757  11.766   8.515  0.2655 -0.3106 -0.3036
  312MOL0     C42038   9.319  10.822   7.765  0.6597  0.4185 -0.4253
  312MOL0     C42039   9.354  10.696   7.703  0.2489 -0.5943  1.2297
  312MOL0     C42040   9.368  10.292   7.576  0.3354 -0.1766  0.0079
  312MOL0     C42041   9.357  10.287   7.438 -0.1805 -0.7596 -0.6465
  312MOL0     C42042   9.400  10.174   7.363  0.1857 -0.2740 -0.3553
  312MOL0     C42043   9.457  10.063   7.412 -0.1867  0.0176 -0.8610
  312MOL0     O42044   9.497   9.956   7.334 -0.1608 -0.3277 -0.0254
  312MOL0     C42045   9.604   9.867   7.393 -0.2897  0.2695  0.9869
  312MOL0     C42046   9.532   9.740   7.443  0.1747  0.2876  0.0520
  312MOL0     C42047   9.642   9.641   7.476  1.2564  0.4620 -0.7256
  312MOL0     C42048   9.668   9.525   7.376 -0.0603 -0.4519  0.1589
  312MOL0     C42049   9.790   9.548   7.299 -0.1095  0.2800  0.2749
  312MOL0     C42050   9.905   9.581   7.267 -0.1000 -0.0146  0.2434
  312MOL0     C42051   9.471  10.066   7.554  0.4779 -0.7331 -0.6090
  312MOL0     C42052   9.423  10.176   7.632  0.3633  0.0088  0.4835
  312MOL0     H42053   9.040  10.627   7.575  0.4086  0.2206  1.0674
  312MOL0     H42054   9.006  10.868   7.665  0.2271  0.3884 -0.6911
  312MOL0     H42055   9.291  11.051   7.955 -0.2088  1.1957  0.2211
  312MOL0     H42056   9.338  11.106   7.786 -1.4014 -0.1199 -1.2747
  312MOL0     H42057   9.284  11.294   7.862  0.5154  0.3518  4.4157
  312MOL0     H42058   9.133  11.255   7.786  1.7047  1.1167 -0.9305
  312MOL0     H42059   9.026  11.197   7.996 -1.0868 -0.3963  0.8994
  312MOL0     H42060   9.174  11.217   8.082 -3.0551 -3.2457 -0.1995
  312MOL0     H42061   9.164  11.477   7.995 -1.2811 -0.3351 -2.7652
  312MOL0     H42062   9.016  11.434   7.935  0.7233 -2.6084 -2.1997
  312MOL0     H42063   8.930  11.376   8.147  1.4684 -2.3272  0.9190
  312MOL0     H42064   9.089  11.405   8.223 -2.1032  2.1417  1.7954
  312MOL0     H42065   9.088  11.629   8.146 -0.6966  2.8042 -1.0205
  312MOL0     H42066   8.912  11.619   8.113 -0.7544 -2.2907  0.9356
  312MOL0     H42067   8.882  11.528   8.344 -0.5442  1.7438  1.9569
  312MOL0     H42068   9.061  11.558   8.370 -0.7659 -0.9465  0.7524
  312MOL0     H42069   8.867  11.767   8.292 -2.2516 -0.7535  3.0094
  312MOL0     H42070   9.030  11.800   8.364  0.5035  0.3347  0.7058
  312MOL0     H42071   9.051  11.668   8.610  0.3560  0.1632  0.4932
  312MOL0     H42072   8.867  11.474   8.806  0.2462  0.8243  0.0025
  312MOL0     H42073   8.950  11.600   8.859  1.1814 -1.8654 -1.0922
  312MOL0     H42074   8.719  11.722   8.917 -3.8940 -0.7115 -2.5072
  312MOL0     H42075   8.792  11.587   9.019  0.8202  1.7225 -0.1750
  312MOL0     H42076   8.587  11.576   8.808  3.2489  1.6665 -0.1786
  312MOL0     H42077   8.553  11.580   8.991  0.8873  3.2039 -0.4605
  312MOL0     H42078   8.637  11.356   9.011  1.9599  2.4260 -0.1876
  312MOL0     H42079   8.668  11.348   8.838 -1.0602 -0.8385  0.1205
  312MOL0     H42080   8.246  11.266   8.806 -0.7775 -1.8199  0.2722
  312MOL0     H42081   8.030  11.231   8.803  2.3680  2.8972  0.6197
  312MOL0     H42082   7.997  11.126   8.937 -2.0916  0.9732  0.6964
  312MOL0     H42083   7.930  11.284   8.943  0.8812  0.9248  0.1195
  312MOL0     H42084   7.956  11.399   9.542  2.6517 -1.1251  0.1034
  312MOL0     H42085   7.786  11.321   9.724 -0.0633  0.2756  0.2350
  312MOL0     H42086   7.523  11.129   9.884 -1.2258  3.1052  1.1297
  312MOL0     H42087   7.592  11.270   9.805  0.3505 -0.2822  0.3289
  312MOL0     H42088   7.438  11.257   9.646  0.1455 -1.3597  0.3057
  312MOL0     H42089   7.481  11.109   9.580 -0.0742  2.9747 -2.1199
  312MOL0     H42090   7.326  11.013   9.763  2.6295 -0.3077 -1.4920
  312MOL0     H42091   7.249  11.123   9.639  0.0986  1.1906  0.7872
  312MOL0     H42092   7.305  11.194   9.921  1.6071  3.6391 -0.0269
  312MOL0     H42093   7.253  11.307   9.787  3.7346 -0.6051  0.8235
  312MOL0     H42094   7.075  11.108   9.773  1.9462 -3.3784  0.7586
  312MOL0     H42095   7.048  11.253   9.877  1.8228  0.0638 -0.3260
  312MOL0     H42096   7.140  11.128  10.083 -0.5277  2.0801 -0.6913
  312MOL0     H42097   6.982  11.088  10.007  1.2213  2.0364  0.4731
  312MOL0     H42098   7.246  10.962   9.962 -0.5693 -0.4029 -4.0092
  312MOL0     H42099   7.102  10.901   9.887 -1.8025 -1.2085  0.9190
  312MOL0     H42100   7.168  10.747  10.044  2.0932  0.4455  0.5320
  312MOL0     H42101   7.019  10.816  10.100 -0.8995  4.2053 -1.3816
  312MOL0     H42102   7.778  10.940   9.552 -0.4713  0.7535 -0.6941
  312MOL0     H42103   7.977  11.004   9.406 -1.5300  0.3860 -1.4774
  312MOL0     H42104   8.268  11.327   9.300 -0.5405 -1.8502  0.3070
  312MOL0     H42105   8.468  11.395   9.150  0.0119 -1.4297  2.7698
  312MOL0     H42106   9.402  10.881   7.803 -0.9593  1.9605  0.9033
  312MOL0     H42107   9.455  10.659   7.692  0.6573  1.2164 -4.4391
  312MOL0     H42108   9.318  10.362   7.371 -1.0692  0.7884  1.4880
  312MOL0     H42109   9.375  10.167   7.258  3.5261  2.5141 -1.5025
  312MOL0     H42110   9.677   9.835   7.318  0.3582  0.7397  1.4112
  312MOL0     H42111   9.660   9.925   7.467 -1.2570  0.4819  1.5646
  312MOL0     H42112   9.453   9.701   7.378 -0.6790  2.0065 -0.0213
  312MOL0     H42113   9.474   9.760   7.533  0.2846  1.8259 -0.1816
  312MOL0     H42114   9.602   9.588   7.563  1.2356 -2.4244 -2.3568
  312MOL0     H42115   9.738   9.689   7.498  2.6612 -1.0705 -2.9775
  312MOL0     H42116   9.581   9.519   7.309  0.3274  1.0550 -0.5183
  312MOL0     H42117   9.676   9.426   7.422 -1.5238 -0.1777  1.0836
  312MOL0     H42118  10.007   9.607   7.251 -0.2667 -0.0230 -0.9043
  312MOL0     H42119   9.524   9.984   7.602 -0.4598 -1.3091 -0.5251
  312MOL0     H42120   9.428  10.172   7.740  1.9911  3.7608  0.6878
  313MOL0     O42121   6.006  10.724   6.787  0.3397  0.4137  0.1865
  313MOL0     C42122   5.966  10.703   6.666  0.7033  0.8262  0.7355
  313MOL0     O42123   5.845  10.650   6.628 -0.1804  1.0851  0.1809
  313MOL0     C42124   5.741  10.633   6.723  0.1303 -0.6873  1.4992
  313MOL0     C42125   5.629  10.571   6.674  0.4775  0.4257 -0.2100
  313MOL0     C42126   5.515  10.543   6.753  0.7051  0.0959  0.3436
  313MOL0     C42127   5.507  10.598   6.878 -0.0301 -0.5703 -0.1996
  313MOL0     O42128   5.400  10.583   6.969  0.2832  0.9325  0.0307
  313MOL0     C42129   5.271  10.522   6.943 -0.5608 -0.5711  0.1493
  313MOL0     C42130   5.192  10.625   6.858  0.6233 -0.2652  0.5620
  313MOL0     C42131   5.061  10.654   6.933 -0.4851 -0.2620  0.3316
  313MOL0     C42132   4.957  10.544   6.929  0.2367 -0.1489 -0.5066
  313MOL0     C42133   4.812  10.591   6.970  0.1363  0.1262  0.5179
  313MOL0     C42134   4.712  10.566   6.864 -1.1704 -0.1896  0.4086
  313MOL0     C42135   4.576  10.593   6.928  0.7311 -0.2377  0.1097
  313MOL0     C42136   4.459  10.541   6.836 -0.3042 -0.1496 -0.7196
  313MOL0     N42137   4.420  10.636   6.734 -0.3668  0.3431 -0.2164
  313MOL0     C42138   4.319  10.725   6.740  0.6172  0.1390  0.8727
  313MOL0     C42139   4.300  10.770   6.614 -0.2952  0.9146  0.5623
  313MOL0     C42140   4.204  10.871   6.576  1.3590  0.8313  0.4119
  313MOL0     C42141   4.057  10.823   6.593 -0.1962  0.1125  1.1183
  313MOL0     C42142   3.966  10.935   6.575 -0.1227 -0.0071  0.9287
  313MOL0     C42143   3.825  10.890   6.571  0.7843  0.2036  0.8568
  313MOL0     O42144   3.800  10.815   6.449  0.1278  0.2457 -0.0128
  313MOL0     C42145   3.684  10.746   6.427  0.5644  1.2702 -0.6459
  313MOL0     C42146   3.680  10.606   6.406 -1.5769  0.2252  0.1107
  313MOL0     C42147   3.562  10.540   6.387  0.0549 -0.3383  0.2186
  313MOL0     C42148   3.564  10.389   6.363  0.4869  0.2227 -0.1303
  313MOL0     C42149   3.436  10.619   6.388  0.0197  0.3046  0.7994
  313MOL0     C42150   3.295  10.567   6.372 -0.2263 -0.6671 -0.0098
  313MOL0     O42151   3.201  10.665   6.338 -0.6830 -0.2709 -0.3162
  313MOL0     C42152   3.072  10.631   6.348  0.3666 -0.0155 -0.4363
  313MOL0     C42153   3.007  10.579   6.238  0.4995 -0.0198  0.4768
  313MOL0     C42154   2.872  10.540   6.252  0.7763 -1.0589 -1.9051
  313MOL0     C42155   2.800  10.541   6.379 -0.2677 -0.2798  0.2914
  313MOL0     O42156   2.673  10.499   6.399 -0.0945 -0.3826 -0.1491
  313MOL0     C42157   2.576  10.485   6.292  0.3010  0.3325 -0.5216
  313MOL0     C42158   2.514  10.622   6.256  0.0630  0.1517 -0.4890
  313MOL0     C42159   2.405  10.650   6.354 -0.1777  0.2442  1.0517
  313MOL0     C42160   2.302  10.747   6.296  0.5635 -0.6971 -0.3474
  313MOL0     C42161   2.196  10.773   6.409  0.1300  0.6734 -0.3641
  313MOL0     C42162   2.086  10.864   6.353  0.2683 -0.3523 -0.7691
  313MOL0     C42163   1.986  10.895   6.459 -0.4308  0.0449 -0.0594
  313MOL0     C42164   2.016  10.979   6.583  0.5221 -0.5963  0.3841
  313MOL0    Cl42165   2.058  11.146   6.544 -0.1588 -0.3620  0.0098
  313MOL0     C42166   2.874  10.587   6.491  0.1569  0.2453 -0.1639
  313MOL0     C42167   3.007  10.628   6.475 -0.3869 -0.3707 -0.5357
  313MOL0     O42168   3.267  10.455   6.408 -0.1997 -0.1731  0.1380
  313MOL0     C42169   3.444  10.750   6.385  0.4789 -0.5266  0.6183
  313MOL0     C42170   3.563  10.809   6.411 -0.3265 -1.3494 -0.8692
  313MOL0     N42171   4.395  10.707   6.530 -0.3923 -0.5374  0.6216
  313MOL0     N42172   4.444  10.609   6.605 -0.2595  0.4096  1.0270
  313MOL0     C42173   5.619  10.674   6.927  1.3238  0.9795  0.2294
  313MOL0     C42174   5.734  10.688   6.852  0.3968 -0.1210 -1.1633
  313MOL0     C42175   6.062  10.728   6.556 -0.3746  0.2125  0.1790
  313MOL0     C42176   6.030  10.688   6.425 -1.2124  0.0925  0.1100
  313MOL0     C42177   6.109  10.714   6.308 -0.5436 -0.4205  0.3331
  313MOL0     C42178   6.235  10.771   6.326 -0.5576  0.5504  0.1404
  313MOL0     O42179   6.310  10.808   6.214 -0.9464  0.2783 -0.7110
  313MOL0     C42180   6.427  10.901   6.234  0.4878  0.8247  0.3061
  313MOL0     C42181   6.466  10.946   6.091  0.5987 -0.0716  1.0976
  313MOL0     C42182   6.517  10.830   6.000  0.2445  0.2256 -0.1099
  313MOL0     C42183   6.670  10.818   6.038  0.0525 -0.6377  0.6407
  313MOL0     C42184   6.746  10.933   5.990 -0.3220  0.1416 -0.5020
  313MOL0     C42185   6.818  11.029   5.955  0.5831 -0.0817 -0.4983
  313MOL0     C42186   6.282  10.784   6.464  1.0106 -0.0417  0.6502
  313MOL0     C42187   6.193  10.766   6.571  0.7145  0.2838  0.4331
  313MOL0     H42188   5.625  10.550   6.567 -0.2608 -1.2138  0.1134
  313MOL0     H42189   5.430  10.490   6.711  1.0816 -0.0698 -0.2186
  313MOL0     H42190   5.288  10.429   6.888 -1.4817  0.8316 -2.7399
  313MOL0     H42191   5.220  10.493   7.034  0.5560 -2.4391  0.2299
  313MOL0     H42192   5.246  10.720   6.852 -3.2275  2.0452 -2.5090
  313MOL0     H42193   5.186  10.598   6.752 -2.4469  0.2819  0.4920
  313MOL0     H42194   5.095  10.658   7.037  0.8031 -3.8374  0.2031
  313MOL0     H42195   5.009  10.745   6.901 -1.4360 -1.0776 -0.5169
  313MOL0     H42196   4.964  10.496   6.831  2.3338 -2.1607  0.5430
  313MOL0     H42197   4.995  10.465   6.994 -0.1899 -0.2965 -0.4332
  313MOL0     H42198   4.780  10.567   7.072  1.2321 -0.1740  0.7948
  313MOL0     H42199   4.814  10.700   6.975  0.7734  0.0714  3.0066
  313MOL0     H42200   4.725  10.633   6.778 -4.2874 -0.1960 -0.1771
  313MOL0     H42201   4.723  10.470   6.813  1.3352 -0.6699  1.6860
  313MOL0     H42202   4.577  10.543   7.025  0.8129  1.4344  1.0114
  313MOL0     H42203   4.560  10.696   6.963 -1.9719  1.1562 -4.3575
  313MOL0     H42204   4.375  10.529   6.906 -0.7174  1.2050 -0.9604
  313MOL0     H42205   4.489  10.443   6.798 -2.0912 -0.2635 -1.9852
  313MOL0     H42206   4.254  10.741   6.826  2.1007 -0.1484  2.1048
  313MOL0     H42207   4.215  10.966   6.630 -1.5218  1.5733 -0.1371
  313MOL0     H42208   4.222  10.881   6.469  0.4458  2.3643  0.3756
  313MOL0     H42209   4.042  10.790   6.696 -1.8031 -0.4054  0.7546
  313MOL0     H42210   4.036  10.732   6.537 -1.9141  0.8896  0.4170
  313MOL0     H42211   3.996  10.988   6.484  4.4845 -1.6891  1.2023
  313MOL0     H42212   3.972  11.007   6.657 -3.2697  0.0531  1.2350
  313MOL0     H42213   3.767  10.982   6.557  1.7182  0.4949 -1.7161
  313MOL0     H42214   3.791  10.830   6.656 -0.2644  0.8280  0.9055
  313MOL0     H42215   3.781  10.568   6.408 -0.1095  3.6902 -0.0380
  313MOL0     H42216   3.532  10.372   6.260 -0.0884  0.9438 -0.0842
  313MOL0     H42217   3.662  10.348   6.388  0.5701 -1.1197 -2.4207
  313MOL0     H42218   3.490  10.345   6.431  2.2074 -0.0823  1.6573
  313MOL0     H42219   3.060  10.559   6.146  0.3333 -2.9405  0.9075
  313MOL0     H42220   2.820  10.498   6.167  2.1828 -0.8063 -2.9138
  313MOL0     H42221   2.622  10.433   6.208 -1.7030 -1.3829 -0.6425
  313MOL0     H42222   2.502  10.417   6.336 -0.1704  1.2736  0.2058
  313MOL0     H42223   2.596  10.694   6.255  2.0221 -1.9529 -2.1300
  313MOL0     H42224   2.467  10.609   6.158 -0.9403  4.5017 -0.7754
  313MOL0     H42225   2.449  10.692   6.444  3.0078  0.0298 -0.2551
  313MOL0     H42226   2.338  10.566   6.371  0.4869 -0.9878 -1.7013
  313MOL0     H42227   2.347  10.844   6.275  2.7685 -2.0944 -2.6512
  313MOL0     H42228   2.255  10.713   6.203 -0.4040 -1.9649  0.5523
  313MOL0     H42229   2.237  10.836   6.489  3.7023  1.0153 -2.2603
  313MOL0     H42230   2.162  10.679   6.453  2.4627  0.2149  0.6202
  313MOL0     H42231   2.124  10.957   6.310 -0.4848  0.9282  1.1926
  313MOL0     H42232   2.028  10.806   6.279  1.1265 -5.8060  2.2901
  313MOL0     H42233   1.940  10.802   6.494 -2.4467  0.5853 -1.0970
  313MOL0     H42234   1.894  10.935   6.415 -0.3440 -0.0105 -0.2902
  313MOL0     H42235   2.092  10.928   6.643 -0.3933 -1.2804  0.9960
  313MOL0     H42236   1.923  10.984   6.641  0.3257 -0.3997  0.0563
  313MOL0     H42237   2.835  10.585   6.593 -1.6269 -0.4885 -0.8174
  313MOL0     H42238   3.062  10.659   6.563 -0.1884  0.6660 -1.0167
  313MOL0     H42239   3.354  10.810   6.393 -1.1836 -3.0720  6.0646
  313MOL0     H42240   3.556  10.917   6.417 -1.5403 -1.0641 -4.6313
  313MOL0     H42241   5.617  10.721   7.025  0.4723  3.7398 -0.9894
  313MOL0     H42242   5.807  10.749   6.905  0.6049 -0.9716 -0.4494
  313MOL0     H42243   5.933  10.645   6.402 -0.7213 -0.3247 -1.3025
  313MOL0     H42244   6.072  10.704   6.207 -1.8128  2.3378  0.4557
  313MOL0     H42245   6.405  10.983   6.303 -0.3109  0.0840  0.9435
  313MOL0     H42246   6.515  10.859   6.284  1.8160  1.4272 -1.4325
  313MOL0     H42247   6.539  11.026   6.099  0.0481  0.3719  1.7531
  313MOL0     H42248   6.386  10.992   6.034  0.7226 -2.0647 -0.8172
  313MOL0     H42249   6.502  10.835   5.892 -0.1463  2.5198  0.0001
  313MOL0     H42250   6.473  10.732   6.022  1.8664 -0.2411  1.2658
  313MOL0     H42251   6.712  10.724   6.001  0.4735 -0.2407  0.0749
  313MOL0     H42252   6.671  10.803   6.146 -1.4375 -2.4410  0.4578
  313MOL0     H42253   6.875  11.115   5.927 -0.1622  0.5222 -0.2172
  313MOL0     H42254   6.386  10.802   6.488  1.0596  0.4836  0.0571
  313MOL0     H42255   6.229  10.776   6.673  1.5556  1.7814  0.0224
  314MOL0     O42256   1.423  10.468  10.361  0.5113 -0.9186  0.0093
  314MOL0     C42257   1.428  10.360  10.424 -0.2786 -0.9432  0.3679
  314MOL0     O42258   1.543  10.298  10.461 -0.0791  0.2634  0.4526
  314MOL0     C42259   1.660  10.356  10.430 -0.4399  0.1386  0.4801
  314MOL0     C42260   1.723  10.431  10.533 -0.6317 -0.7836 -0.2407
  314MOL0     C42261   1.863  10.450  10.530  0.5740 -0.1696  0.9720
  314MOL0     C42262   1.931  10.427  10.409  0.1318  0.6477 -0.5705
  314MOL0     O42263   2.063  10.463  10.397 -0.1625  0.2510 -0.4887
  314MOL0     C42264   2.148  10.491  10.519 -0.2578  0.0276 -0.6689
  314MOL0     C42265   2.221  10.365  10.575 -0.3952  0.3059 -0.0617
  314MOL0     C42266   2.317  10.305  10.468 -0.5179 -0.1341  1.2035
  314MOL0     C42267   2.363  10.170  10.493  0.1481  0.2488  0.4894
  314MOL0     C42268   2.452  10.154  10.611  0.9859  0.3231  0.3476
  314MOL0     C42269   2.469  10.011  10.656  0.2159 -0.2655 -0.2032
  314MOL0     C42270   2.587   9.999  10.755 -0.6039 -0.4133  0.4401
  314MOL0     C42271   2.605   9.858  10.814  0.6345  0.8516  0.5357
  314MOL0     N42272   2.517   9.829  10.933 -0.2456  0.1577  0.2221
  314MOL0     C42273   2.426   9.732  10.933 -0.0129 -0.7134  0.0018
  314MOL0     C42274   2.363   9.751  11.052 -0.0641  1.3306 -0.1766
  314MOL0     C42275   2.252   9.662  11.122 -0.5013 -0.4461  0.2580
  314MOL0     C42276   2.328   9.568  11.222  0.7917 -0.1320 -0.2313
  314MOL0     C42277   2.450   9.486  11.168  0.4306 -0.8985  0.1325
  314MOL0     C42278   2.432   9.350  11.095 -0.0533  0.0307 -0.1352
  314MOL0     O42279   2.353   9.383  10.986 -0.2648 -0.1018  0.6103
  314MOL0     C42280   2.313   9.291  10.892  0.5738 -0.4099 -0.8436
  314MOL0     C42281   2.300   9.338  10.763  0.5529 -0.0423 -0.1415
  314MOL0     C42282   2.253   9.249  10.665 -0.6013  0.5340  0.2730
  314MOL0     C42283   2.229   9.306  10.528 -0.3958  0.8884  0.1166
  314MOL0     C42284   2.218   9.116  10.701  0.2638  0.2056 -0.2666
  314MOL0     C42285   2.145   9.023  10.596 -0.1651 -0.3599  0.7083
  314MOL0     O42286   2.047   9.068  10.502  0.5039  0.4067  0.4312
  314MOL0     C42287   1.996   8.976  10.410  0.0190 -0.6877 -0.3878
  314MOL0     C42288   1.886   8.889  10.454 -0.9517 -0.7438  0.3799
  314MOL0     C42289   1.826   8.812  10.360  0.1361  0.7073 -0.0015
  314MOL0     C42290   1.870   8.803  10.236 -0.3232 -0.5295 -0.2626
  314MOL0     O42291   1.809   8.725  10.144 -0.2857 -0.2048  0.7168
  314MOL0     C42292   1.658   8.729  10.136 -1.1992 -0.3898  0.2046
  314MOL0     C42293   1.622   8.687   9.991 -1.0621 -0.9888 -0.1085
  314MOL0     C42294   1.469   8.693   9.971  0.4527 -0.0811  0.0045
  314MOL0     C42295   1.450   8.687   9.826 -0.2414 -0.2452  0.8525
  314MOL0     C42296   1.296   8.681   9.787  0.2136 -0.0523 -0.6453
  314MOL0     C42297   1.230   8.821   9.803 -0.1387 -0.4941  0.8275
  314MOL0     C42298   1.080   8.815   9.783 -0.0695 -0.0404 -0.5431
  314MOL0     C42299   1.020   8.934   9.707 -0.2656 -0.0742 -0.1071
  314MOL0    Cl42300   0.846   8.931   9.690 -0.2358 -0.0080  0.0306
  314MOL0     C42301   1.985   8.876  10.198 -0.5465  0.4791 -0.6436
  314MOL0     C42302   2.055   8.959  10.284 -0.4817 -0.5052 -0.4867
  314MOL0     O42303   2.166   8.904  10.615  0.2338 -0.4626  0.1873
  314MOL0     C42304   2.224   9.079  10.839  0.1596  0.5276 -0.4912
  314MOL0     C42305   2.286   9.165  10.937 -0.4841  0.2175  0.9616
  314MOL0     N42306   2.414   9.863  11.119 -0.5597  0.6110  0.8241
  314MOL0     N42307   2.510   9.908  11.046  0.4135  0.1272 -0.1880
  314MOL0     C42308   1.872  10.343  10.315 -0.7949  0.1169  1.2760
  314MOL0     C42309   1.735  10.317  10.323 -0.4281 -1.0290  0.2885
  314MOL0     C42310   1.306  10.278  10.423  1.3437  0.0607 -0.3518
  314MOL0     C42311   1.181  10.334  10.370  0.1374 -0.8246 -0.6364
  314MOL0     C42312   1.073  10.253  10.360 -0.3193  0.7314  0.3312
  314MOL0     C42313   1.079  10.116  10.395  0.2110  0.7114  0.9605
  314MOL0     O42314   0.975  10.029  10.388  0.3382 -0.3282  0.3016
  314MOL0     C42315   0.838  10.065  10.336  0.4483 -0.1644  0.9590
  314MOL0     C42316   0.744   9.939  10.321 -0.6270  0.2084  0.1688
  314MOL0     C42317   0.812   9.854  10.208  0.2408 -1.2051  0.5259
  314MOL0     C42318   0.737   9.721  10.166 -0.2511 -0.2955  0.2762
  314MOL0     C42319   0.836   9.625  10.111  1.0135  0.2059  0.4353
  314MOL0     C42320   0.892   9.530  10.065  0.1381 -0.1213  0.0062
  314MOL0     C42321   1.190  10.068  10.456 -0.9350  0.6715 -0.2132
  314MOL0     C42322   1.305  10.144  10.467  0.1627 -0.0971 -0.9959
  314MOL0     H42323   1.671  10.472  10.619  0.8058  1.2051 -0.2534
  314MOL0     H42324   1.903  10.494  10.620 -1.9301  1.2998  1.4748
  314MOL0     H42325   2.232  10.540  10.470  1.4598 -0.4674  1.6307
  314MOL0     H42326   2.101  10.563  10.586  3.0628  2.8148 -1.0836
  314MOL0     H42327   2.275  10.398  10.664  0.0967  0.4155 -0.3978
  314MOL0     H42328   2.136  10.301  10.601 -0.9176  1.2358  0.5381
  314MOL0     H42329   2.274  10.299  10.368  2.5410 -1.3174 -0.1648
  314MOL0     H42330   2.399  10.373  10.442 -1.5485  2.3038  3.7686
  314MOL0     H42331   2.278  10.102  10.492 -0.5076  1.0464 -1.3594
  314MOL0     H42332   2.431  10.150  10.410 -0.4172  3.5236 -0.9065
  314MOL0     H42333   2.551  10.190  10.579  1.9547 -1.5428  1.0817
  314MOL0     H42334   2.409  10.200  10.700  1.1645 -0.4544  0.8408
  314MOL0     H42335   2.379   9.970  10.701  0.8427 -2.0654 -0.4886
  314MOL0     H42336   2.500   9.949  10.571  0.5098 -1.9529  1.0873
  314MOL0     H42337   2.678  10.050  10.723 -2.2716  2.5940  0.0468
  314MOL0     H42338   2.557  10.066  10.837 -0.3667  2.4519 -1.6665
  314MOL0     H42339   2.709   9.860  10.848 -0.2365  2.2423  3.3856
  314MOL0     H42340   2.570   9.790  10.735 -1.0914  1.2352  0.9295
  314MOL0     H42341   2.400   9.659  10.857 -0.3216  1.7553 -2.3892
  314MOL0     H42342   2.178   9.719  11.179 -0.1787  0.2665 -0.0266
  314MOL0     H42343   2.201   9.611  11.040  1.2263  2.2960 -2.7723
  314MOL0     H42344   2.255   9.503  11.272 -0.7669  2.6679  1.4100
  314MOL0     H42345   2.350   9.638  11.302 -3.3666  0.7453  0.3924
  314MOL0     H42346   2.510   9.456  11.255 -1.6130 -2.6417  1.0495
  314MOL0     H42347   2.515   9.552  11.111 -0.0542 -1.4812 -1.1154
  314MOL0     H42348   2.384   9.277  11.161  0.8480 -0.0787  0.4123
  314MOL0     H42349   2.531   9.318  11.063  0.4169 -0.2934  1.5799
  314MOL0     H42350   2.321   9.441  10.734  3.2278 -0.4949 -0.0296
  314MOL0     H42351   2.120   9.313  10.521 -0.4839  2.5570  2.1161
  314MOL0     H42352   2.277   9.402  10.511 -1.3934  0.9797 -2.6546
  314MOL0     H42353   2.280   9.247  10.451 -2.2573  1.0994 -1.3306
  314MOL0     H42354   1.855   8.888  10.558 -3.2985 -2.3549 -0.2614
  314MOL0     H42355   1.736   8.757  10.388  0.0938 -0.3606 -2.0492
  314MOL0     H42356   1.619   8.661  10.212 -3.7165  1.9092  1.1150
  314MOL0     H42357   1.621   8.830  10.153 -3.6698 -0.8985 -1.6544
  314MOL0     H42358   1.666   8.761   9.923  0.6969  0.9386  2.8727
  314MOL0     H42359   1.667   8.591   9.965 -0.7726 -1.5601  2.2729
  314MOL0     H42360   1.424   8.786  10.007 -3.1456 -1.1723 -1.2473
  314MOL0     H42361   1.413   8.612  10.020 -1.1119  1.0163  0.1034
  314MOL0     H42362   1.477   8.781   9.777  0.9563 -0.7668  0.4853
  314MOL0     H42363   1.506   8.615   9.766  1.4818  1.3018  0.5255
  314MOL0     H42364   1.244   8.612   9.853  1.2909  0.2424  0.5521
  314MOL0     H42365   1.279   8.645   9.685 -4.1378 -2.3522  0.6400
  314MOL0     H42366   1.244   8.857   9.905 -0.1093  0.0425  0.6344
  314MOL0     H42367   1.282   8.881   9.727 -1.3064 -1.2022 -0.5992
  314MOL0     H42368   1.032   8.824   9.880 -0.7087  1.1648 -0.9608
  314MOL0     H42369   1.068   8.719   9.732 -0.7563 -0.5533  0.5531
  314MOL0     H42370   1.049   8.936   9.602 -4.9739  2.5501 -1.6476
  314MOL0     H42371   1.052   9.031   9.747 -3.9229  0.9108  0.7642
  314MOL0     H42372   2.001   8.868  10.091  1.2804 -0.8426 -0.3266
  314MOL0     H42373   2.140   9.007  10.236  2.3955 -3.2055  1.4907
  314MOL0     H42374   2.178   8.990  10.881  0.8131 -0.5761 -2.0151
  314MOL0     H42375   2.284   9.143  11.043 -0.4545  1.3645  1.2067
  314MOL0     H42376   1.925  10.315  10.225 -0.6391  0.1147  1.3680
  314MOL0     H42377   1.699  10.246  10.249  1.2211 -2.0509  0.4149
  314MOL0     H42378   1.177  10.434  10.329  1.7113 -0.3507  0.2597
  314MOL0     H42379   0.984  10.285  10.306 -1.3548 -1.0075  0.9133
  314MOL0     H42380   0.788  10.142  10.396 -0.1110  2.2419 -2.2746
  314MOL0     H42381   0.852  10.105  10.235  0.5120  1.3487  1.5288
  314MOL0     H42382   0.647   9.976  10.288  0.2782  2.8477  0.2466
  314MOL0     H42383   0.732   9.888  10.417  0.5782  0.0762  0.2628
  314MOL0     H42384   0.918   9.839  10.231  0.6305 -0.6899 -0.7935
  314MOL0     H42385   0.810   9.918  10.119  0.1489 -0.3998  1.1018
  314MOL0     H42386   0.659   9.748  10.094  1.5237  1.9354 -0.9580
  314MOL0     H42387   0.693   9.666  10.250  2.4549 -2.8051  0.2079
  314MOL0     H42388   0.944   9.444  10.029  1.4737 -0.3165  2.2403
  314MOL0     H42389   1.174   9.964  10.481  1.0885  0.0543 -1.2798
  314MOL0     H42390   1.389  10.098  10.518  0.3375 -2.1303 -2.9743
  315MOL0     O42391   5.357   9.823  10.502 -0.5337 -0.6240  0.1050
  315MOL0     C42392   5.266   9.755  10.562  0.0002  0.3872  0.4652
  315MOL0     O42393   5.150   9.715  10.508  0.4593 -0.8269 -0.6367
  315MOL0     C42394   5.126   9.707  10.370 -0.5432 -0.0308 -0.5127
  315MOL0     C42395   5.225   9.683  10.270  0.2533  0.1460 -0.4030
  315MOL0     C42396   5.186   9.696  10.137 -0.3044 -0.7227 -0.2629
  315MOL0     C42397   5.060   9.739  10.098  0.1896 -0.5740 -0.5557
  315MOL0     O42398   5.026   9.760   9.965  0.5216  0.4152  0.0191
  315MOL0     C42399   5.061   9.892   9.931  0.5600  0.3631 -0.3611
  315MOL0     C42400   5.032   9.903   9.783  0.4587  0.0941  0.8291
  315MOL0     C42401   5.033  10.041   9.731 -0.2692 -0.2690  0.0876
  315MOL0     C42402   5.019  10.059   9.573 -0.6545  0.5639  0.7962
  315MOL0     C42403   5.026  10.209   9.528 -0.8565  1.3741  0.1685
  315MOL0     C42404   4.984  10.233   9.383  0.0535  0.1838 -0.1455
  315MOL0     C42405   5.070  10.172   9.273  0.3733 -0.4410 -0.5649
  315MOL0     C42406   5.000  10.206   9.138  0.1749  0.1951  0.4849
  315MOL0     N42407   5.045  10.103   9.036 -0.4307  0.4211 -0.6794
  315MOL0     C42408   5.175  10.062   9.020 -0.0780  0.1718  0.0359
  315MOL0     C42409   5.182   9.968   8.926  0.7637 -0.4227 -0.4415
  315MOL0     C42410   5.290   9.883   8.881  0.1774 -0.1253  0.5208
  315MOL0     C42411   5.306   9.903   8.727  0.0086 -1.4402 -0.1511
  315MOL0     C42412   5.434   9.823   8.682  0.0920  0.5889  0.1346
  315MOL0     C42413   5.561   9.902   8.693 -0.8761 -0.7283 -1.2312
  315MOL0     O42414   5.665   9.812   8.678  0.3374  0.9061 -0.0021
  315MOL0     C42415   5.785   9.848   8.727 -0.3963 -1.0067 -0.7565
  315MOL0     C42416   5.844   9.979   8.703 -0.0654 -0.0252 -0.3836
  315MOL0     C42417   5.966  10.024   8.765  1.0351 -0.1045 -0.5018
  315MOL0     C42418   6.010  10.167   8.756  0.3477 -0.5436  1.0063
  315MOL0     C42419   6.044   9.927   8.841 -0.2707  0.1566  0.2489
  315MOL0     C42420   6.172   9.970   8.899 -0.0571  0.0948  0.1745
  315MOL0     O42421   6.218   9.875   9.000 -0.0851 -0.2229 -0.0545
  315MOL0     C42422   6.333   9.907   9.068  1.2007  0.3601  0.7867
  315MOL0     C42423   6.344   9.881   9.210  0.6573 -0.1674 -0.3857
  315MOL0     C42424   6.465   9.913   9.271  0.6404  0.0494 -0.3031
  315MOL0     C42425   6.580   9.931   9.193 -1.1427 -0.2372 -0.2044
  315MOL0     O42426   6.701   9.956   9.261 -0.1882  0.6552  0.3670
  315MOL0     C42427   6.824   9.960   9.188 -0.9521  0.2220  0.3127
  315MOL0     C42428   6.962   9.964   9.270  0.6639 -0.2713 -0.1823
  315MOL0     C42429   6.973  10.096   9.345  0.2529  0.1755 -0.2222
  315MOL0     C42430   6.894  10.075   9.487 -0.1628 -0.2305  0.2015
  315MOL0     C42431   6.941  10.184   9.581 -0.2201  0.7570  0.5139
  315MOL0     C42432   6.859  10.177   9.716  0.1277  0.0971 -0.3863
  315MOL0     C42433   6.874  10.315   9.793 -0.0664 -0.2309 -0.9891
  315MOL0     C42434   6.793  10.322   9.919 -0.0502 -0.0504 -0.7221
  315MOL0    Cl42435   6.839  10.195  10.029 -0.3987  0.0508  0.0153
  315MOL0     C42436   6.570   9.936   9.049  0.2523  0.4342 -0.0957
  315MOL0     C42437   6.440   9.922   8.994 -0.3763  0.1248  0.1141
  315MOL0     O42438   6.224  10.070   8.874  0.6802 -0.2070 -0.5743
  315MOL0     C42439   5.983   9.795   8.857 -0.7450 -1.0698 -0.5625
  315MOL0     C42440   5.866   9.762   8.795 -0.6369  1.3732 -0.2506
  315MOL0     N42441   5.044   9.948   8.889  0.2170  0.1299 -0.3912
  315MOL0     N42442   4.973  10.013   8.969  0.4347 -0.2709 -0.3081
  315MOL0     C42443   4.958   9.738  10.195 -1.0884  0.2042 -0.3833
  315MOL0     C42444   4.997   9.729  10.329  0.0898  0.1194 -0.6971
  315MOL0     C42445   5.287   9.740  10.704 -0.2240  0.2414  0.3980
  315MOL0     C42446   5.176   9.702  10.781  0.3553  0.1315  0.4078
  315MOL0     C42447   5.182   9.675  10.907 -1.0393  0.3141 -0.8753
  315MOL0     C42448   5.300   9.711  10.980  0.5743 -0.2065 -0.6085
  315MOL0     O42449   5.310   9.701  11.120  1.0699  0.6036  0.5091
  315MOL0     C42450   5.268   9.575  11.178  0.7772  0.5845  0.3236
  315MOL0     C42451   5.299   9.573  11.331  0.8861  0.1406 -0.1440
  315MOL0     C42452   5.214   9.678  11.395 -0.9171  0.4630 -0.0724
  315MOL0     C42453   5.262   9.664  11.545  0.2967 -0.3393  0.2378
  315MOL0     C42454   5.168   9.758  11.617 -0.4214 -1.6083  0.1616
  315MOL0     C42455   5.096   9.838  11.677  0.1704 -0.2842 -0.1701
  315MOL0     C42456   5.403   9.773  10.920  0.0157  0.9540 -0.1379
  315MOL0     C42457   5.402   9.788  10.779 -0.4206  0.8734  0.9345
  315MOL0     H42458   5.321   9.635  10.282 -0.0086 -0.9317 -2.2112
  315MOL0     H42459   5.254   9.676  10.055  0.0800  1.2817 -0.4871
  315MOL0     H42460   5.005   9.961   9.995 -0.1520 -0.4479 -0.0924
  315MOL0     H42461   5.165   9.922   9.948  1.1309 -1.7750  0.2082
  315MOL0     H42462   5.115   9.849   9.736  1.4865  2.9812 -0.9323
  315MOL0     H42463   4.937   9.860   9.750  1.8585 -2.2711 -0.4534
  315MOL0     H42464   4.973  10.114   9.785  0.5169 -0.3893  1.1654
  315MOL0     H42465   5.133  10.077   9.757  0.1731  0.7601 -2.6618
  315MOL0     H42466   5.092  10.000   9.515 -2.5616  1.0921 -2.3601
  315MOL0     H42467   4.922  10.015   9.548 -0.5464  0.1615  1.0658
  315MOL0     H42468   4.953  10.272   9.580 -1.2181  3.1438 -2.2812
  315MOL0     H42469   5.122  10.260   9.541  0.3607 -0.8854  0.4901
  315MOL0     H42470   4.881  10.195   9.383  0.3251 -0.5723  0.3384
  315MOL0     H42471   4.966  10.340   9.367 -1.8764  0.1496  1.3973
  315MOL0     H42472   5.164  10.228   9.260 -0.9442  1.2727 -3.8725
  315MOL0     H42473   5.104  10.070   9.293  1.8570  0.0106 -0.6355
  315MOL0     H42474   5.022  10.310   9.113  0.8427  0.0357  0.3983
  315MOL0     H42475   4.890  10.207   9.145  0.2266 -0.4545  1.6319
  315MOL0     H42476   5.248  10.112   9.083 -1.1366  1.0935  0.5853
  315MOL0     H42477   5.382   9.899   8.939 -1.6127 -1.0302  3.8160
  315MOL0     H42478   5.270   9.777   8.899 -0.7382  0.4440  3.2642
  315MOL0     H42479   5.316  10.010   8.704 -1.5642 -1.5723 -1.5571
  315MOL0     H42480   5.215   9.863   8.683  1.1830 -2.3058 -1.9177
  315MOL0     H42481   5.418   9.787   8.580 -0.1485 -1.3116  0.7990
  315MOL0     H42482   5.450   9.737   8.748 -1.0080 -0.1539 -0.5470
  315MOL0     H42483   5.575   9.943   8.794  0.0602 -0.5387 -1.4287
  315MOL0     H42484   5.570   9.988   8.626 -1.8656  1.8906  1.7214
  315MOL0     H42485   5.795  10.043   8.632 -2.7889 -1.4060  0.0962
  315MOL0     H42486   6.109  10.184   8.712 -0.4620 -2.9064 -2.1410
  315MOL0     H42487   5.951  10.223   8.683  1.7375 -1.3526 -0.8049
  315MOL0     H42488   6.003  10.222   8.850 -0.3145  1.6013 -0.2381
  315MOL0     H42489   6.252   9.864   9.265  0.3382  1.3344 -0.3949
  315MOL0     H42490   6.460   9.913   9.379 -0.3821 -3.9608 -0.2037
  315MOL0     H42491   6.817   9.859   9.146 -0.3846  0.1593  0.3649
  315MOL0     H42492   6.807  10.033   9.109 -1.5696 -1.1364 -0.8626
  315MOL0     H42493   6.957   9.884   9.344  3.4015  1.1750  1.7383
  315MOL0     H42494   7.049   9.954   9.205 -0.5051 -0.0379 -1.8420
  315MOL0     H42495   6.929  10.175   9.284  2.0723  2.5767  1.3980
  315MOL0     H42496   7.079  10.110   9.368  0.7233 -1.9972 -0.8319
  315MOL0     H42497   6.787  10.084   9.466 -0.5352 -4.0790 -0.3241
  315MOL0     H42498   6.904   9.972   9.522 -4.0068 -1.3936 -1.5505
  315MOL0     H42499   6.946  10.280   9.528  0.2589  0.9328  0.8704
  315MOL0     H42500   7.044  10.161   9.609  0.2434 -0.1487 -1.7623
  315MOL0     H42501   6.754  10.156   9.697  0.3429 -2.4076  0.8682
  315MOL0     H42502   6.905  10.100   9.779  1.7782 -1.8946 -3.7455
  315MOL0     H42503   6.867  10.400   9.725 -0.0910  0.6345  0.0581
  315MOL0     H42504   6.980  10.312   9.819 -0.9091  2.7469  4.2480
  315MOL0     H42505   6.687  10.311   9.894 -0.0750 -0.3513 -0.4820
  315MOL0     H42506   6.796  10.420   9.967 -0.6420  0.1094 -0.9903
  315MOL0     H42507   6.653   9.947   8.979 -0.0407 -1.6842 -0.8577
  315MOL0     H42508   6.437   9.928   8.885 -1.7815 -1.1305  0.0379
  315MOL0     H42509   6.029   9.726   8.928  0.9778 -1.6586 -2.1618
  315MOL0     H42510   5.823   9.667   8.823 -1.7386  2.1347  0.7483
  315MOL0     H42511   4.862   9.776  10.161 -1.1522  0.1830 -0.2304
  315MOL0     H42512   4.924   9.755  10.405 -0.3016  0.0217 -1.0319
  315MOL0     H42513   5.076   9.692  10.741  0.5425  0.2577 -0.1017
  315MOL0     H42514   5.097   9.625  10.953  0.7901 -2.1831  0.0408
  315MOL0     H42515   5.159   9.580  11.168  0.7655  0.7339  0.5309
  315MOL0     H42516   5.316   9.487  11.134  2.8328  0.9151  1.7702
  315MOL0     H42517   5.406   9.595  11.338  1.3397 -1.2429 -1.9712
  315MOL0     H42518   5.279   9.475  11.376 -1.7731  1.5328  2.0050
  315MOL0     H42519   5.106   9.658  11.389 -0.7654 -0.4819  0.1244
  315MOL0     H42520   5.242   9.779  11.365 -0.9018  0.7953  1.0023
  315MOL0     H42521   5.363   9.700  11.566 -1.0982  3.7064  0.7760
  315MOL0     H42522   5.252   9.563  11.587  2.6335 -0.1609  1.3748
  315MOL0     H42523   5.035   9.913  11.724  1.4146  0.7217 -0.0826
  315MOL0     H42524   5.490   9.779  10.986 -1.2980  0.3738  1.7309
  315MOL0     H42525   5.487   9.820  10.719  0.8894 -0.2673  2.1063
  316MOL0     O42526   1.880   8.180  11.344 -0.6622 -0.1518  0.4750
  316MOL0     C42527   1.812   8.228  11.439  0.3765  0.7833 -0.1467
  316MOL0     O42528   1.739   8.349  11.440  0.0218  0.2214 -0.0088
  316MOL0     C42529   1.741   8.419  11.324  0.7956  1.0242  0.4954
  316MOL0     C42530   1.689   8.351  11.205  0.8004  0.4034 -1.3260
  316MOL0     C42531   1.684   8.427  11.091 -0.4747  0.7987  0.1265
  316MOL0     C42532   1.708   8.561  11.085 -0.5668  1.2312 -0.0402
  316MOL0     O42533   1.724   8.616  10.965  0.0631 -0.1407  0.0871
  316MOL0     C42534   1.766   8.752  10.952  0.6115  0.0306  0.4473
  316MOL0     C42535   1.735   8.780  10.808 -0.6723  0.2587  0.5133
  316MOL0     C42536   1.586   8.792  10.774  0.4625 -0.5894 -0.1334
  316MOL0     C42537   1.544   8.652  10.723 -0.3559 -0.0265  0.7063
  316MOL0     C42538   1.392   8.648  10.705 -1.1602 -0.3888  0.0218
  316MOL0     C42539   1.335   8.756  10.614 -0.0484 -0.3212  1.0577
  316MOL0     C42540   1.387   8.729  10.471 -0.7017 -0.6810 -0.4811
  316MOL0     C42541   1.305   8.776  10.356  0.7345 -0.3098  0.1707
  316MOL0     N42542   1.200   8.672  10.314 -0.8373  0.4903 -0.4691
  316MOL0     C42543   1.228   8.569  10.226 -0.0387 -1.1111 -0.5187
  316MOL0     C42544   1.104   8.515  10.209 -0.6557 -0.1618  0.3167
  316MOL0     C42545   1.086   8.403  10.119  0.1486  0.0514  0.2552
  316MOL0     C42546   0.945   8.365  10.084 -0.2466 -0.2822  0.2682
  316MOL0     C42547   0.925   8.297   9.956  0.6124 -0.1047 -0.3750
  316MOL0     C42548   0.772   8.254   9.930 -0.4627 -1.0229 -0.5845
  316MOL0     O42549   0.726   8.176  10.040 -0.1252 -0.3391  0.2196
  316MOL0     C42550   0.597   8.152  10.056 -0.9085  0.0639 -0.7596
  316MOL0     C42551   0.495   8.178   9.957  0.1436 -0.2431  0.5637
  316MOL0     C42552   0.359   8.183   9.983 -0.6384 -0.2714 -0.5625
  316MOL0     C42553   0.266   8.218   9.874 -0.8064 -0.5553 -0.2958
  316MOL0     C42554   0.319   8.158  10.124  0.3121  0.5308 -0.3934
  316MOL0     C42555   0.173   8.147  10.171  0.5068  0.0464  0.6946
  316MOL0     O42556   0.063   8.169  10.088  0.2652 -0.6223  0.0543
  316MOL0     C42557  -0.056   8.211  10.148 -0.6621 -0.1061 -0.4622
  316MOL0     C42558  -0.162   8.119  10.167  0.2716 -0.7904 -1.2814
  316MOL0     C42559  -0.278   8.169  10.222  0.0519 -0.4485 -0.4820
  316MOL0     C42560  -0.295   8.306  10.245  0.5763  0.0297 -0.1188
  316MOL0     O42561  -0.409   8.337  10.303 -0.4322  0.0995  0.8377
  316MOL0     C42562  -0.455   8.471  10.282 -0.5103 -0.2521  1.0191
  316MOL0     C42563  -0.607   8.483  10.321 -1.4432 -0.6945 -0.2078
  316MOL0     C42564  -0.666   8.622  10.288  0.8329 -0.1114 -0.9909
  316MOL0     C42565  -0.635   8.747  10.379  0.4080 -0.0317 -1.1058
  316MOL0     C42566  -0.714   8.864  10.330  0.3073 -0.8241  0.2214
  316MOL0     C42567  -0.677   8.996  10.407  0.6656 -0.1721 -0.4590
  316MOL0     C42568  -0.727   9.113  10.333  0.5676  0.4676 -0.6825
  316MOL0     C42569  -0.705   9.243  10.416 -0.2258  0.2954 -0.4836
  316MOL0    Cl42570  -0.732   9.375  10.312 -0.3999 -0.2266  0.4107
  316MOL0     C42571  -0.190   8.390  10.206 -0.3938  0.5482  0.8655
  316MOL0     C42572  -0.070   8.341  10.164  0.0954 -0.4361  0.0398
  316MOL0     O42573   0.150   8.142  10.293  0.3570 -0.1952 -0.2859
  316MOL0     C42574   0.415   8.138  10.226  0.0200 -0.1987  0.3841
  316MOL0     C42575   0.552   8.132  10.187 -0.0771  0.3871 -0.6017
  316MOL0     N42576   1.007   8.590  10.259 -0.0467  0.0300  0.1232
  316MOL0     N42577   1.065   8.688  10.327  0.2187 -0.1629 -0.6617
  316MOL0     C42578   1.727   8.630  11.206  0.0596 -0.4808  0.3630
  316MOL0     C42579   1.759   8.557  11.324  0.4599  0.1149 -0.2079
  316MOL0     C42580   1.823   8.152  11.565  0.0155 -0.0053 -0.7445
  316MOL0     C42581   1.895   8.033  11.576  0.4165  0.2208  0.4019
  316MOL0     C42582   1.923   7.975  11.698 -0.4213 -1.1012  0.4054
  316MOL0     C42583   1.874   8.041  11.812  0.4763 -0.2829  0.0188
  316MOL0     O42584   1.904   7.993  11.943  0.2247  0.5599  0.2340
  316MOL0     C42585   2.036   7.965  11.967  0.2798 -0.3372  0.1801
  316MOL0     C42586   2.120   8.093  11.948 -0.3583 -0.3408  0.1236
  316MOL0     C42587   2.247   8.084  12.029 -0.3379 -0.7150 -0.2198
  316MOL0     C42588   2.373   8.100  11.944 -0.0696 -0.2619  1.6462
  316MOL0     C42589   2.502   8.082  12.019 -0.4287  0.3104 -0.1369
  316MOL0     C42590   2.612   8.074  12.065 -0.3128 -0.7052  0.6040
  316MOL0     C42591   1.782   8.151  11.800 -0.1768  0.3800  0.1953
  316MOL0     C42592   1.759   8.205  11.677 -0.8098 -0.1699  0.3543
  316MOL0     H42593   1.642   8.254  11.209  1.6489 -0.0181 -1.3531
  316MOL0     H42594   1.648   8.389  10.996 -0.0114  1.2130 -0.2163
  316MOL0     H42595   1.700   8.817  11.010  0.6803 -0.4753  1.1085
  316MOL0     H42596   1.873   8.765  10.972  0.7966 -1.7855  0.8395
  316MOL0     H42597   1.797   8.867  10.782  1.5298 -1.6097 -0.9449
  316MOL0     H42598   1.788   8.699  10.756  0.6742  0.0083  2.1974
  316MOL0     H42599   1.529   8.810  10.866  2.1001  1.6724  0.5184
  316MOL0     H42600   1.567   8.869  10.699  1.2531 -1.6460 -1.4586
  316MOL0     H42601   1.594   8.644  10.626 -1.8320 -0.2807 -0.0680
  316MOL0     H42602   1.583   8.567  10.779 -2.0965 -1.3822 -0.0695
  316MOL0     H42603   1.383   8.546  10.669  0.8485 -0.3363 -0.7411
  316MOL0     H42604   1.341   8.652  10.802 -1.8539 -0.4317 -0.3346
  316MOL0     H42605   1.227   8.738  10.608  0.2316 -1.7649  0.0130
  316MOL0     H42606   1.362   8.861  10.629 -0.9779  0.3247 -1.4055
  316MOL0     H42607   1.480   8.782  10.451  0.3712 -2.0780  0.6073
  316MOL0     H42608   1.402   8.622  10.457 -0.6568 -0.6797 -0.4459
  316MOL0     H42609   1.369   8.793  10.269  2.3635  0.5006  1.4615
  316MOL0     H42610   1.258   8.872  10.378  0.2032 -0.3766 -0.6571
  316MOL0     H42611   1.324   8.542  10.183  0.1671  1.8881 -2.2280
  316MOL0     H42612   1.143   8.413  10.027  1.7810 -1.1257  1.0895
  316MOL0     H42613   1.128   8.318  10.174  0.2795  1.9127  3.2338
  316MOL0     H42614   0.883   8.455  10.077  0.3030  0.1671  0.9328
  316MOL0     H42615   0.896   8.299  10.157 -1.6552 -0.9765 -1.2552
  316MOL0     H42616   0.995   8.213   9.950 -2.3144 -2.6540 -2.3847
  316MOL0     H42617   0.953   8.371   9.880  1.3091 -1.1430 -1.1519
  316MOL0     H42618   0.763   8.206   9.832 -0.8480 -0.3605 -0.8803
  316MOL0     H42619   0.718   8.349   9.932  1.6488  0.2310 -0.6019
  316MOL0     H42620   0.509   8.197   9.851 -1.3028  3.0831  0.8143
  316MOL0     H42621   0.311   8.211   9.775  0.3958  2.1342 -0.0189
  316MOL0     H42622   0.185   8.145   9.867 -1.6864  0.3910 -0.1965
  316MOL0     H42623   0.228   8.320   9.883 -0.7030 -0.0219 -4.3136
  316MOL0     H42624  -0.144   8.013  10.153  2.7728 -0.8980  1.7899
  316MOL0     H42625  -0.354   8.097  10.252  0.5536 -1.6451 -1.9318
  316MOL0     H42626  -0.402   8.551  10.334  0.1232 -0.2174  0.3396
  316MOL0     H42627  -0.447   8.503  10.178  0.8489 -0.4803  1.0432
  316MOL0     H42628  -0.658   8.404  10.264  1.2368 -2.5869 -0.1426
  316MOL0     H42629  -0.602   8.456  10.427  2.3892 -0.7386 -0.2534
  316MOL0     H42630  -0.776   8.620  10.285  0.5672  3.1622  1.2982
  316MOL0     H42631  -0.638   8.654  10.187  2.3859  0.4047 -0.4239
  316MOL0     H42632  -0.671   8.715  10.478 -0.8088 -0.8028 -1.7691
  316MOL0     H42633  -0.527   8.759  10.384  0.6153 -1.9043  2.3769
  316MOL0     H42634  -0.821   8.844  10.338 -0.0854  1.1115  0.3240
  316MOL0     H42635  -0.695   8.897  10.227  0.9676  0.0093  0.5973
  316MOL0     H42636  -0.701   8.965  10.510  2.3761 -1.9808 -0.5474
  316MOL0     H42637  -0.571   9.019  10.419  0.8375 -1.3582  0.6260
  316MOL0     H42638  -0.834   9.097  10.315  0.8148 -1.3494 -0.7456
  316MOL0     H42639  -0.666   9.122  10.243  3.5022  0.3242  1.1693
  316MOL0     H42640  -0.606   9.254  10.462 -1.3117  0.2324  2.0804
  316MOL0     H42641  -0.779   9.245  10.497  1.0050  0.6394  0.6686
  316MOL0     H42642  -0.197   8.498  10.215  1.0794  0.6447  1.2355
  316MOL0     H42643   0.011   8.411  10.148 -0.1848 -0.1455 -0.1073
  316MOL0     H42644   0.394   8.126  10.332 -1.1762  1.0378  0.3212
  316MOL0     H42645   0.617   8.119  10.273  0.5089 -0.8689 -1.2049
  316MOL0     H42646   1.730   8.739  11.208  2.6212 -0.5049  1.4569
  316MOL0     H42647   1.778   8.625  11.407  0.7366 -0.9033  0.5888
  316MOL0     H42648   1.926   7.990  11.481 -1.0586 -1.8125  0.7886
  316MOL0     H42649   1.966   7.876  11.705  3.2266  0.1217 -1.8771
  316MOL0     H42650   2.044   7.945  12.075  0.6245 -0.5193  0.1229
  316MOL0     H42651   2.075   7.881  11.909 -2.9030 -0.5022 -1.9597
  316MOL0     H42652   2.056   8.172  11.988 -1.1157 -0.0191 -1.6295
  316MOL0     H42653   2.145   8.108  11.843 -2.1662  2.8073  0.0114
  316MOL0     H42654   2.254   7.992  12.088 -0.6128 -1.0851 -0.7559
  316MOL0     H42655   2.257   8.162  12.105 -0.4591 -1.2973  0.4010
  316MOL0     H42656   2.373   8.190  11.881  0.7147 -2.6784 -2.1469
  316MOL0     H42657   2.375   8.012  11.878  2.8672  0.5629  0.4972
  316MOL0     H42658   2.714   8.064  12.096  0.3110 -1.9049 -1.5912
  316MOL0     H42659   1.739   8.192  11.891  1.9213 -0.0578  1.4439
  316MOL0     H42660   1.701   8.296  11.662 -2.4543 -1.4758 -1.9416
  317MOL0     O42661   3.991   1.659  10.410 -0.3407 -0.0686 -0.0258
  317MOL0     C42662   4.016   1.753  10.482  0.9709  0.2918 -0.8132
  317MOL0     O42663   4.126   1.824  10.499  0.9420 -0.2926  0.6543
  317MOL0     C42664   4.236   1.795  10.426  0.4948  0.1254 -0.6433
  317MOL0     C42665   4.241   1.749  10.294 -0.5418  0.0176 -0.3101
  317MOL0     C42666   4.363   1.715  10.229  0.2980 -0.7559  0.5767
  317MOL0     C42667   4.482   1.724  10.299  0.7118 -0.3526 -0.8247
  317MOL0     O42668   4.592   1.679  10.238  0.3078 -0.3037  0.2433
  317MOL0     C42669   4.666   1.573  10.297 -0.1062  0.2292 -0.7833
  317MOL0     C42670   4.794   1.535  10.217 -0.1054 -1.2055 -0.9762
  317MOL0     C42671   4.897   1.465  10.311  0.2878 -0.1614 -0.0591
  317MOL0     C42672   5.028   1.435  10.235  0.2072 -0.1418  0.1591
  317MOL0     C42673   5.150   1.512  10.292 -0.2436  0.4349  0.2190
  317MOL0     C42674   5.158   1.662  10.252  0.1417 -0.4880 -0.1206
  317MOL0     C42675   5.208   1.689  10.110  0.5823 -0.2442  1.1038
  317MOL0     C42676   5.176   1.826  10.048 -0.1519  0.3112  0.5920
  317MOL0     N42677   5.271   1.913  10.103 -0.5961 -0.2513  0.3180
  317MOL0     C42678   5.390   1.937  10.047  0.0060  0.8486  0.4003
  317MOL0     C42679   5.458   2.013  10.140 -0.2319 -0.4064  1.1207
  317MOL0     C42680   5.608   2.062  10.126  0.1267 -0.1945  0.0385
  317MOL0     C42681   5.715   1.998  10.214 -0.0222  0.0687 -1.0926
  317MOL0     C42682   5.848   2.072  10.222  0.6826 -0.3456 -0.3424
  317MOL0     C42683   5.940   2.005  10.330  0.0971  0.0160 -0.1337
  317MOL0     O42684   6.034   1.932  10.257  0.1018  0.0025  0.6300
  317MOL0     C42685   6.159   1.914  10.314 -0.0977  0.0122 -0.4068
  317MOL0     C42686   6.212   1.989  10.420 -0.0374  0.6989  0.7761
  317MOL0     C42687   6.350   1.990  10.450 -0.4481  0.0493  0.5479
  317MOL0     C42688   6.397   2.080  10.559 -0.5187 -0.0260 -0.2249
  317MOL0     C42689   6.441   1.902  10.378 -0.5448 -0.1859  0.5505
  317MOL0     C42690   6.582   1.909  10.385 -0.7632 -0.3998 -0.2041
  317MOL0     O42691   6.641   1.779  10.383 -0.2402 -0.5510 -0.3209
  317MOL0     C42692   6.775   1.773  10.348 -1.6353 -0.1822  0.1813
  317MOL0     C42693   6.868   1.697  10.414 -0.2840  0.3465 -0.1341
  317MOL0     C42694   7.002   1.676  10.373 -1.1461  0.0489 -0.2097
  317MOL0     C42695   7.049   1.748  10.264 -0.1308 -0.9314  0.6264
  317MOL0     O42696   7.179   1.720  10.238 -0.1498 -0.1880  0.1817
  317MOL0     C42697   7.254   1.796  10.148 -0.3621  0.3592  0.6274
  317MOL0     C42698   7.376   1.723  10.116 -0.1439  0.0141 -0.1546
  317MOL0     C42699   7.365   1.573  10.051  0.0889 -0.3377 -1.3809
  317MOL0     C42700   7.358   1.570   9.909  0.5813 -0.8421 -0.5814
  317MOL0     C42701   7.490   1.595   9.831 -0.7947  0.4360 -0.3258
  317MOL0     C42702   7.477   1.595   9.682  0.0474 -0.9805 -0.1077
  317MOL0     C42703   7.418   1.469   9.616 -0.5005 -1.0922 -0.7852
  317MOL0     C42704   7.497   1.434   9.487  0.5829  0.2408 -0.6911
  317MOL0    Cl42705   7.522   1.579   9.390 -0.0583  0.1156  0.2934
  317MOL0     C42706   6.962   1.831  10.188  0.2271 -0.7752 -1.0049
  317MOL0     C42707   6.827   1.840  10.230 -0.0073  0.3464 -0.9904
  317MOL0     O42708   6.639   2.018  10.375 -0.8159 -0.6593 -0.3032
  317MOL0     C42709   6.376   1.806  10.299  0.5532 -0.5758 -0.1901
  317MOL0     C42710   6.241   1.816  10.262 -0.3344  0.3937 -0.0090
  317MOL0     N42711   5.367   2.055  10.236 -0.5162  0.1893 -0.3949
  317MOL0     N42712   5.258   1.988  10.214  0.0979 -0.1494 -0.3395
  317MOL0     C42713   4.481   1.783  10.421 -0.2089  0.3803 -0.8057
  317MOL0     C42714   4.360   1.809  10.490  0.4938 -0.3408 -0.3513
  317MOL0     C42715   3.910   1.804  10.573 -0.4456 -0.2271 -0.3159
  317MOL0     C42716   3.775   1.758  10.557 -0.2915  0.3156 -0.6714
  317MOL0     C42717   3.675   1.800  10.643 -1.6624 -0.2722  0.6660
  317MOL0     C42718   3.701   1.894  10.739  0.3289  0.5932  0.2786
  317MOL0     O42719   3.597   1.937  10.821  0.3028 -0.3971  0.4814
  317MOL0     C42720   3.585   1.849  10.929 -0.7852 -0.3607  0.2038
  317MOL0     C42721   3.457   1.768  10.918  0.3523 -0.0707 -0.3482
  317MOL0     C42722   3.445   1.646  11.027 -0.8493  0.0032 -0.0648
  317MOL0     C42723   3.384   1.690  11.169 -0.8673  0.1454  0.3337
  317MOL0     C42724   3.246   1.718  11.146  1.3434 -0.6836 -0.4818
  317MOL0     C42725   3.134   1.764  11.134 -0.7814 -0.1454  0.8217
  317MOL0     C42726   3.824   1.950  10.750 -0.3346 -0.0715 -0.4054
  317MOL0     C42727   3.931   1.900  10.674 -0.0159 -0.0454 -0.4583
  317MOL0     H42728   4.152   1.741  10.232  0.3218 -0.2359 -1.5708
  317MOL0     H42729   4.368   1.670  10.131  1.2773 -1.3214  0.8748
  317MOL0     H42730   4.700   1.582  10.401  2.5828 -1.0925 -1.4575
  317MOL0     H42731   4.603   1.483  10.300  1.5099 -0.9501 -0.9593
  317MOL0     H42732   4.762   1.466  10.138 -2.5096  2.2889 -3.3478
  317MOL0     H42733   4.848   1.622  10.180  0.4758 -0.0957  2.1277
  317MOL0     H42734   4.917   1.516  10.406  0.5434  0.2833 -0.3425
  317MOL0     H42735   4.849   1.369  10.327 -1.1874  0.6008  0.2580
  317MOL0     H42736   5.047   1.327  10.239  2.4137  0.2268  1.0474
  317MOL0     H42737   5.020   1.460  10.129 -2.2607 -0.1996  0.2944
  317MOL0     H42738   5.148   1.494  10.400 -1.9182 -1.1347 -0.0344
  317MOL0     H42739   5.223   1.451  10.238 -1.4563  0.6577 -1.7889
  317MOL0     H42740   5.060   1.711  10.261  0.2247 -0.6197  1.8170
  317MOL0     H42741   5.233   1.720  10.305  2.5458 -0.2147 -3.4709
  317MOL0     H42742   5.300   1.641  10.077 -0.6198 -0.6029 -2.1056
  317MOL0     H42743   5.143   1.629  10.045  2.8535  0.2843 -1.8543
  317MOL0     H42744   5.075   1.853  10.080 -0.1610  0.6283  0.2906
  317MOL0     H42745   5.184   1.807   9.941 -1.1272 -2.9084  0.9817
  317MOL0     H42746   5.450   1.895   9.967 -1.1985 -1.1509  0.4752
  317MOL0     H42747   5.627   2.044  10.020 -1.3064  1.0022 -0.4584
  317MOL0     H42748   5.608   2.171  10.135  0.5116 -0.1736 -0.1685
  317MOL0     H42749   5.742   1.894  10.192  1.8959 -0.7447  3.8741
  317MOL0     H42750   5.673   1.981  10.313 -0.5007 -2.2052 -1.6350
  317MOL0     H42751   5.824   2.173  10.254  0.4433 -1.3154  2.9451
  317MOL0     H42752   5.907   2.069  10.131  2.4494 -0.8490  0.7778
  317MOL0     H42753   5.881   1.947  10.401 -0.5627  0.6561 -0.1524
  317MOL0     H42754   5.977   2.090  10.387  0.6773  0.6823 -1.4433
  317MOL0     H42755   6.151   2.046  10.490  0.1280  1.9565 -0.0695
  317MOL0     H42756   6.327   2.097  10.642  1.2862 -2.2148  1.8798
  317MOL0     H42757   6.493   2.051  10.603 -0.5470 -0.3111 -0.3487
  317MOL0     H42758   6.406   2.180  10.517 -1.5976  1.3868  2.6284
  317MOL0     H42759   6.833   1.649  10.505 -0.9143  0.8582 -0.0960
  317MOL0     H42760   7.080   1.614  10.416  0.2281  0.4255 -2.0634
  317MOL0     H42761   7.202   1.824  10.056  1.4043  1.4897 -0.1040
  317MOL0     H42762   7.281   1.894  10.190 -0.7048  1.5520 -1.7278
  317MOL0     H42763   7.434   1.790  10.052 -0.6454  0.0919 -0.5358
  317MOL0     H42764   7.446   1.711  10.200  0.7620 -1.5170 -1.0818
  317MOL0     H42765   7.276   1.516  10.080  1.6107 -1.3208  1.8415
  317MOL0     H42766   7.453   1.519  10.089 -0.4605  1.4398  2.9666
  317MOL0     H42767   7.308   1.478   9.877  0.7000 -0.9975 -0.3255
  317MOL0     H42768   7.300   1.657   9.876  3.7303  1.3097 -0.8650
  317MOL0     H42769   7.560   1.516   9.861 -3.5083 -1.5916  1.1459
  317MOL0     H42770   7.538   1.691   9.849 -0.7677  0.5707 -1.0993
  317MOL0     H42771   7.409   1.678   9.660  1.7583  0.7042  0.7204
  317MOL0     H42772   7.574   1.614   9.636  0.4631 -0.1121  1.0953
  317MOL0     H42773   7.317   1.495   9.586 -0.8034  0.7557  1.5358
  317MOL0     H42774   7.409   1.387   9.688 -1.3939  1.2242  1.9141
  317MOL0     H42775   7.439   1.364   9.428  0.1778 -0.1078  0.1117
  317MOL0     H42776   7.584   1.371   9.505 -0.8978 -1.5941  0.3838
  317MOL0     H42777   6.994   1.892  10.104 -0.8400  2.6353  0.8359
  317MOL0     H42778   6.748   1.886  10.172 -2.6539 -3.1947 -0.5091
  317MOL0     H42779   6.433   1.729  10.248  2.4539  0.5891  0.0729
  317MOL0     H42780   6.193   1.749  10.192 -2.1264  0.1603  1.3696
  317MOL0     H42781   4.573   1.795  10.477  0.4266 -2.4007 -1.1031
  317MOL0     H42782   4.370   1.845  10.592 -0.5230 -2.1405  0.4394
  317MOL0     H42783   3.752   1.685  10.481 -1.8247 -2.7471  2.4705
  317MOL0     H42784   3.572   1.777  10.616 -0.5350 -2.0769 -2.6864
  317MOL0     H42785   3.664   1.774  10.937 -0.4780 -0.7063 -4.1016
  317MOL0     H42786   3.578   1.906  11.022 -0.8219  1.2722 -0.7699
  317MOL0     H42787   3.450   1.724  10.818 -0.0600  2.0800 -1.3158
  317MOL0     H42788   3.378   1.842  10.937  2.0205  1.7754 -0.3064
  317MOL0     H42789   3.545   1.604  11.042  0.0638  1.4377 -1.7281
  317MOL0     H42790   3.386   1.562  10.990  0.3319 -1.6391  1.5951
  317MOL0     H42791   3.427   1.783  11.206  2.2623 -0.7610 -0.7287
  317MOL0     H42792   3.389   1.608  11.242  1.0504 -1.5424 -1.5344
  317MOL0     H42793   3.042   1.819  11.129  0.2124  1.4851 -1.6876
  317MOL0     H42794   3.836   2.026  10.827 -0.0061  0.6665 -1.1695
  317MOL0     H42795   4.030   1.938  10.698 -0.7970  0.3927  2.4619
  318MOL0     O42796   1.929   5.324   8.116 -0.0559 -0.3462 -0.4701
  318MOL0     C42797   1.998   5.221   8.110  0.2877 -0.5216  0.4120
  318MOL0     O42798   1.952   5.093   8.132 -0.1557 -0.0265  0.3841
  318MOL0     C42799   1.821   5.081   8.159  0.1481 -0.5926 -0.3771
  318MOL0     C42800   1.709   5.142   8.085 -0.3577  0.3066  0.1479
  318MOL0     C42801   1.583   5.117   8.118  0.8751 -0.2893  0.6547
  318MOL0     C42802   1.552   5.056   8.238  0.6055  0.2290  0.7508
  318MOL0     O42803   1.417   5.048   8.263 -0.3572  0.1773  0.5333
  318MOL0     C42804   1.357   4.980   8.378  0.0717 -0.0854 -0.0539
  318MOL0     C42805   1.316   5.073   8.488  0.1834 -0.4487  0.8944
  318MOL0     C42806   1.201   5.167   8.437  0.2924  0.4103 -0.0266
  318MOL0     C42807   1.115   5.213   8.556 -0.1075  0.9729 -0.0849
  318MOL0     C42808   1.015   5.329   8.528  0.9523 -0.5523 -0.2332
  318MOL0     C42809   0.908   5.333   8.644  1.2661 -0.2132 -0.0603
  318MOL0     C42810   0.953   5.388   8.776 -0.5146  0.0917 -0.0597
  318MOL0     C42811   1.005   5.537   8.786  0.2447 -0.1602  0.4369
  318MOL0     N42812   0.904   5.638   8.752 -1.2313  0.1624  0.1680
  318MOL0     C42813   0.882   5.691   8.629 -0.2245  0.6469  0.4856
  318MOL0     C42814   0.761   5.749   8.640 -0.0527  0.5608 -0.3036
  318MOL0     C42815   0.686   5.823   8.531  0.1460 -0.2560  0.3409
  318MOL0     C42816   0.781   5.907   8.444  0.2394 -0.2128  0.5328
  318MOL0     C42817   0.826   6.038   8.490 -0.0385  1.1557  0.7542
  318MOL0     C42818   0.716   6.137   8.508 -0.3502 -0.9299  0.1654
  318MOL0     O42819   0.787   6.256   8.529  0.8461 -0.4457  0.1618
  318MOL0     C42820   0.719   6.373   8.531  0.4916 -0.7451  0.3021
  318MOL0     C42821   0.575   6.383   8.557  0.7248 -0.2086 -0.0668
  318MOL0     C42822   0.504   6.504   8.566  0.5845  0.9559  0.2124
  318MOL0     C42823   0.360   6.498   8.599 -0.7707 -0.2090 -0.2537
  318MOL0     C42824   0.570   6.628   8.562 -0.5543 -0.2304  0.0694
  318MOL0     C42825   0.516   6.765   8.574  0.5645 -0.3716 -0.9571
  318MOL0     O42826   0.380   6.784   8.572 -0.2596  0.0354  0.5612
  318MOL0     C42827   0.325   6.909   8.556 -0.8214  0.4430  0.0746
  318MOL0     C42828   0.236   6.968   8.640  0.3395  0.6631 -0.4114
  318MOL0     C42829   0.180   7.093   8.617 -0.2280  0.1255  0.5416
  318MOL0     C42830   0.203   7.158   8.495 -0.1697 -0.2532  0.6578
  318MOL0     O42831   0.140   7.279   8.453  0.1460 -0.3134  0.0049
  318MOL0     C42832   0.013   7.313   8.502 -0.4116 -1.1198 -0.3096
  318MOL0     C42833   0.028   7.429   8.607  0.6362  0.1862 -0.2570
  318MOL0     C42834   0.045   7.565   8.538  0.3793  0.0007  0.3699
  318MOL0     C42835   0.193   7.608   8.528 -0.2191  0.2477  0.6071
  318MOL0     C42836   0.200   7.740   8.457  0.1439 -0.0522 -0.1752
  318MOL0     C42837   0.341   7.789   8.438  0.4022  0.6649  0.0658
  318MOL0     C42838   0.396   7.868   8.553 -0.1490 -0.0274  0.1873
  318MOL0     C42839   0.327   8.002   8.594  0.4019 -0.0090  0.3095
  318MOL0    Cl42840   0.425   8.096   8.709 -0.0236  0.2347 -0.0861
  318MOL0     C42841   0.298   7.101   8.412  0.0616  0.2943 -0.2500
  318MOL0     C42842   0.370   6.982   8.438  0.4653  0.7151 -0.0776
  318MOL0     O42843   0.592   6.858   8.588 -0.6729  0.5028 -0.3978
  318MOL0     C42844   0.707   6.613   8.539 -0.0102 -0.4654  0.4689
  318MOL0     C42845   0.775   6.497   8.515  0.6375  0.1336  0.1898
  318MOL0     N42846   0.714   5.739   8.766  0.2046  0.0964  0.4203
  318MOL0     N42847   0.806   5.677   8.830  0.7564  1.1572  0.4168
  318MOL0     C42848   1.655   4.989   8.310 -1.0825  0.2336  0.3357
  318MOL0     C42849   1.790   5.013   8.274 -0.4385 -0.7667 -0.2555
  318MOL0     C42850   2.132   5.243   8.056  0.2676  0.2303  0.4790
  318MOL0     C42851   2.202   5.127   8.022 -0.1443  0.4934 -0.3451
  318MOL0     C42852   2.315   5.137   7.952 -0.2767 -0.0392  1.0672
  318MOL0     C42853   2.372   5.258   7.927 -0.6940 -0.1778 -0.7055
  318MOL0     O42854   2.491   5.278   7.854 -0.1888  0.4831 -0.2103
  318MOL0     C42855   2.487   5.248   7.714 -0.0722  0.7922 -0.7027
  318MOL0     C42856   2.421   5.350   7.630 -0.6061 -0.1235 -0.5729
  318MOL0     C42857   2.514   5.472   7.633  0.2578 -0.5689 -0.5551
  318MOL0     C42858   2.457   5.574   7.533 -0.8622 -0.3488  0.4345
  318MOL0     C42859   2.538   5.694   7.537  0.4798 -0.1748 -0.4139
  318MOL0     C42860   2.609   5.797   7.532  0.2900  0.1405  0.8801
  318MOL0     C42861   2.311   5.382   7.973  0.4909 -0.3245 -1.1969
  318MOL0     C42862   2.189   5.379   8.037  0.9632 -0.0300  0.2830
  318MOL0     H42863   1.743   5.195   7.997  1.1225 -0.3693  0.2696
  318MOL0     H42864   1.503   5.141   8.049  3.0209  3.1342 -0.9146
  318MOL0     H42865   1.270   4.925   8.342 -0.6692 -1.2739  3.2423
  318MOL0     H42866   1.413   4.900   8.428 -1.2411 -1.3117 -0.4758
  318MOL0     H42867   1.277   5.014   8.571 -4.2173 -1.5652 -1.6626
  318MOL0     H42868   1.410   5.120   8.521  1.2525 -2.6893  1.2299
  318MOL0     H42869   1.249   5.251   8.386  1.6215 -0.9098 -1.0344
  318MOL0     H42870   1.132   5.103   8.381  0.1473 -0.6543  1.3341
  318MOL0     H42871   1.064   5.121   8.586  1.0060 -0.5092 -2.4177
  318MOL0     H42872   1.183   5.244   8.636  0.4524  3.1442 -1.3150
  318MOL0     H42873   1.064   5.427   8.527  2.0334 -1.0511  1.1737
  318MOL0     H42874   0.967   5.307   8.432  0.9891  1.6537 -0.8190
  318MOL0     H42875   0.827   5.402   8.620  1.1259  0.9832  3.3258
  318MOL0     H42876   0.862   5.234   8.644 -5.3385  2.2800 -2.6837
  318MOL0     H42877   0.863   5.389   8.838 -0.2952 -2.0675  0.3835
  318MOL0     H42878   1.026   5.316   8.814 -3.2521 -1.6808  2.2815
  318MOL0     H42879   1.089   5.564   8.720  0.6906  2.4436  1.9071
  318MOL0     H42880   1.041   5.550   8.889 -1.1416 -2.9738  1.3708
  318MOL0     H42881   0.934   5.661   8.538 -1.6432 -1.9035  0.4407
  318MOL0     H42882   0.637   5.746   8.471  2.3592 -2.8980  1.7170
  318MOL0     H42883   0.596   5.873   8.569  0.0750  0.6012 -0.8987
  318MOL0     H42884   0.740   5.925   8.344 -0.2161 -0.1163  0.7346
  318MOL0     H42885   0.876   5.856   8.425 -0.8048 -2.0612  0.0116
  318MOL0     H42886   0.879   6.075   8.402 -0.0278 -1.7536 -0.5637
  318MOL0     H42887   0.887   6.041   8.580 -0.0600 -2.1014  0.9973
  318MOL0     H42888   0.662   6.115   8.600  1.0415 -1.5778  0.8615
  318MOL0     H42889   0.646   6.139   8.424  0.6744 -1.7178 -0.7380
  318MOL0     H42890   0.514   6.293   8.563 -2.1157  1.3452 -2.8114
  318MOL0     H42891   0.335   6.405   8.651  0.1936 -0.5689 -0.4228
  318MOL0     H42892   0.330   6.578   8.668 -3.0673 -0.6549 -0.6488
  318MOL0     H42893   0.295   6.508   8.512 -0.8234 -0.2453 -0.2187
  318MOL0     H42894   0.205   6.919   8.731  0.9751  0.6993 -0.1715
  318MOL0     H42895   0.109   7.148   8.678 -2.5025 -0.6872 -1.2151
  318MOL0     H42896  -0.048   7.340   8.416  2.4390  0.2727 -2.0401
  318MOL0     H42897  -0.037   7.228   8.550 -2.8787  0.6047  0.3690
  318MOL0     H42898  -0.067   7.430   8.662  0.0666 -0.4484 -1.1842
  318MOL0     H42899   0.104   7.399   8.679  0.2516  1.1729  0.5752
  318MOL0     H42900  -0.014   7.635   8.598 -2.0969 -1.2464 -0.4852
  318MOL0     H42901  -0.003   7.571   8.441 -0.7044  2.4825  0.9725
  318MOL0     H42902   0.236   7.621   8.627  1.6696 -0.2231 -0.1063
  318MOL0     H42903   0.264   7.543   8.475  1.1789  0.3282  2.2777
  318MOL0     H42904   0.142   7.809   8.519 -1.8475 -1.2738 -0.6075
  318MOL0     H42905   0.157   7.708   8.362 -1.6704  0.4119  0.4573
  318MOL0     H42906   0.414   7.709   8.422 -0.7934 -0.9139  1.9747
  318MOL0     H42907   0.344   7.853   8.349 -0.7307  1.2285  0.4100
  318MOL0     H42908   0.501   7.873   8.521  0.1205 -5.4677 -0.7383
  318MOL0     H42909   0.400   7.794   8.633  2.1415 -1.1232 -0.8354
  318MOL0     H42910   0.231   7.976   8.639  0.5833  0.4079  0.9447
  318MOL0     H42911   0.307   8.062   8.504  2.4133 -2.6561 -2.1121
  318MOL0     H42912   0.318   7.146   8.316  0.3615 -1.1557 -0.8795
  318MOL0     H42913   0.437   6.950   8.359  0.0052 -3.2950  0.9571
  318MOL0     H42914   0.778   6.694   8.533  1.2463 -1.5930 -0.3372
  318MOL0     H42915   0.883   6.498   8.507  0.5548  0.9986 -1.3296
  318MOL0     H42916   1.640   4.940   8.406  3.8671 -1.1629  0.7013
  318MOL0     H42917   1.869   4.963   8.329  0.4258 -0.3691 -1.0985
  318MOL0     H42918   2.155   5.029   8.023 -0.6799  0.7507  0.0339
  318MOL0     H42919   2.356   5.048   7.906 -1.6021 -0.4104  0.5546
  318MOL0     H42920   2.586   5.214   7.683 -1.0069 -3.7157  0.4839
  318MOL0     H42921   2.430   5.154   7.713  0.4822  0.4492 -0.4399
  318MOL0     H42922   2.323   5.375   7.673  0.8486  0.4662  2.6926
  318MOL0     H42923   2.402   5.317   7.528  0.4784  0.7434 -1.0649
  318MOL0     H42924   2.616   5.444   7.605 -0.7424 -2.2947 -2.8139
  318MOL0     H42925   2.521   5.514   7.734 -0.7543 -1.1981 -0.2115
  318MOL0     H42926   2.350   5.593   7.541 -1.0672 -1.6816  1.0990
  318MOL0     H42927   2.463   5.523   7.437  2.1177  0.2105  0.2415
  318MOL0     H42928   2.655   5.893   7.527  3.9838 -1.4841  0.2327
  318MOL0     H42929   2.355   5.478   7.948  1.1797 -0.1231  0.6246
  318MOL0     H42930   2.157   5.478   8.068  0.5113  0.2136 -0.8948
  319MOL0     O42931   5.547   6.006   6.354  0.0610 -0.5345  0.0660
  319MOL0     C42932   5.570   6.054   6.240 -0.0777  0.8549  0.5120
  319MOL0     O42933   5.505   6.017   6.126  0.0451 -0.5148 -0.1325
  319MOL0     C42934   5.382   5.953   6.131 -0.2043 -0.2980  0.6316
  319MOL0     C42935   5.317   5.887   6.240 -0.5087  0.3511  0.5058
  319MOL0     C42936   5.185   5.853   6.237 -0.1224  0.0136  0.0172
  319MOL0     C42937   5.106   5.875   6.128  0.8128  0.4549 -0.5753
  319MOL0     O42938   4.977   5.856   6.152 -0.0633 -0.3545  0.1487
  319MOL0     C42939   4.885   5.909   6.058  0.3511  0.0591  0.5378
  319MOL0     C42940   4.744   5.847   6.078  0.1645  0.0207  0.4168
  319MOL0     C42941   4.737   5.690   6.080  0.3576  0.8753  0.6635
  319MOL0     C42942   4.783   5.632   6.208 -0.2623 -0.6611 -0.7843
  319MOL0     C42943   4.874   5.512   6.203 -0.3092 -0.1347  0.1902
  319MOL0     C42944   4.821   5.389   6.129 -0.2383 -0.0170 -0.3708
  319MOL0     C42945   4.930   5.292   6.082 -0.1757 -1.1526 -0.3223
  319MOL0     C42946   4.873   5.172   6.021 -0.8997 -0.0873 -0.7508
  319MOL0     N42947   4.964   5.095   5.945 -0.2014  0.2550  0.3594
  319MOL0     C42948   5.099   5.116   5.920  0.6422 -1.0198 -0.3767
  319MOL0     C42949   5.133   5.017   5.828 -0.1158 -0.9228 -0.0971
  319MOL0     C42950   5.275   4.999   5.762  1.0692 -0.0036 -0.4078
  319MOL0     C42951   5.353   4.907   5.853 -0.0778  0.9531 -0.4068
  319MOL0     C42952   5.493   4.868   5.795  0.7888  0.0221 -0.0729
  319MOL0     C42953   5.540   4.758   5.887  0.5113  0.6205  0.7521
  319MOL0     O42954   5.468   4.632   5.858 -0.1784  0.0355  1.0984
  319MOL0     C42955   5.497   4.513   5.927 -0.1645 -0.6919 -0.8924
  319MOL0     C42956   5.597   4.503   6.027 -0.2097 -0.2091 -0.0378
  319MOL0     C42957   5.627   4.384   6.095  1.1716  0.8528  0.3072
  319MOL0     C42958   5.736   4.394   6.192  0.0755  0.3404 -0.3051
  319MOL0     C42959   5.552   4.261   6.056 -0.0342  0.0994 -0.1183
  319MOL0     C42960   5.575   4.119   6.108 -0.2121  0.2144 -0.3712
  319MOL0     O42961   5.458   4.050   6.123 -0.2824  0.6299 -0.0276
  319MOL0     C42962   5.460   3.909   6.154 -0.0475  0.5318 -0.1882
  319MOL0     C42963   5.343   3.831   6.134 -0.2105 -0.5614 -0.1793
  319MOL0     C42964   5.341   3.689   6.146  0.5495  0.1220 -0.3649
  319MOL0     C42965   5.450   3.619   6.204 -0.1098 -0.4012  1.2342
  319MOL0     O42966   5.454   3.485   6.236 -0.0113  0.6838  0.0061
  319MOL0     C42967   5.330   3.422   6.248  0.4652 -0.2972  1.0089
  319MOL0     C42968   5.237   3.480   6.362 -0.1185  1.1839 -0.6181
  319MOL0     C42969   5.119   3.391   6.382 -0.2568  0.1003  0.1307
  319MOL0     C42970   4.991   3.460   6.440  0.1628 -1.1280  0.9279
  319MOL0     C42971   4.870   3.366   6.452 -0.4524 -0.7044 -1.4472
  319MOL0     C42972   4.761   3.436   6.534 -0.8706 -0.5404 -0.0491
  319MOL0     C42973   4.634   3.354   6.565  0.5709 -0.4327 -0.4809
  319MOL0     C42974   4.660   3.256   6.670  0.8702  0.0079 -0.0831
  319MOL0    Cl42975   4.517   3.171   6.717  0.1245  0.6213  0.1437
  319MOL0     C42976   5.558   3.697   6.249  1.0400  0.9534 -0.1123
  319MOL0     C42977   5.571   3.832   6.215  0.3875 -0.3030 -0.2958
  319MOL0     O42978   5.698   4.080   6.107 -0.3119 -0.2216  0.0067
  319MOL0     C42979   5.445   4.269   5.958  0.1634 -0.5658  0.4020
  319MOL0     C42980   5.419   4.398   5.897  0.4840 -1.0334 -0.1652
  319MOL0     N42981   5.019   4.940   5.802 -0.5829  0.2457 -0.0898
  319MOL0     N42982   4.924   4.985   5.873  0.1105  0.1514  0.0869
  319MOL0     C42983   5.171   5.917   6.005  0.5235  0.7531  0.2305
  319MOL0     C42984   5.306   5.957   6.008  0.7037  0.4328 -0.9766
  319MOL0     C42985   5.676   6.156   6.227 -0.7161 -1.1924 -0.4084
  319MOL0     C42986   5.687   6.244   6.116  0.5532  0.4366  0.5579
  319MOL0     C42987   5.789   6.333   6.118 -1.3195 -0.6459 -0.9095
  319MOL0     C42988   5.897   6.342   6.209  0.1950  0.4253 -0.4934
  319MOL0     O42989   5.995   6.445   6.193  0.3520 -0.0871 -0.0035
  319MOL0     C42990   6.128   6.418   6.254  0.6430  0.8071  0.0901
  319MOL0     C42991   6.204   6.554   6.213 -0.6107  0.0634 -0.3846
  319MOL0     C42992   6.326   6.581   6.310  0.9550  1.0549  1.0954
  319MOL0     C42993   6.294   6.625   6.454 -0.3379  0.1642 -0.2679
  319MOL0     C42994   6.239   6.760   6.443  0.3935 -0.0515  0.1300
  319MOL0     C42995   6.195   6.877   6.431  0.1788  0.3189  0.8279
  319MOL0     C42996   5.886   6.258   6.320  1.2680 -0.6928  0.1290
  319MOL0     C42997   5.776   6.165   6.330 -0.8002  0.0796  0.6514
  319MOL0     H42998   5.375   5.861   6.328  2.5938  0.5465 -1.3069
  319MOL0     H42999   5.136   5.793   6.314 -2.5121  0.3404 -1.1735
  319MOL0     H43000   4.877   6.017   6.070 -2.0670  0.3503 -2.5141
  319MOL0     H43001   4.923   5.893   5.957  2.8493  1.9001  1.0925
  319MOL0     H43002   4.712   5.890   6.174 -2.4748  2.2390 -1.3020
  319MOL0     H43003   4.681   5.886   5.998  2.7897  1.7093 -0.9742
  319MOL0     H43004   4.632   5.663   6.067  0.5531 -0.0375  0.9167
  319MOL0     H43005   4.801   5.656   5.998  0.3730  2.1570  0.1187
  319MOL0     H43006   4.824   5.702   6.281 -1.1010 -1.6949  0.7514
  319MOL0     H43007   4.697   5.585   6.259  0.4065  0.7579  1.8566
  319MOL0     H43008   4.968   5.544   6.158  0.4206  0.3040  1.9328
  319MOL0     H43009   4.907   5.483   6.303  2.1779 -2.1886 -1.1143
  319MOL0     H43010   4.765   5.329   6.201  0.1762 -2.7360 -2.1721
  319MOL0     H43011   4.750   5.416   6.050 -0.0104  3.6105  0.4998
  319MOL0     H43012   5.002   5.341   6.015 -0.4146 -0.2420  0.0701
  319MOL0     H43013   4.994   5.261   6.165  3.1279 -0.5692 -2.4238
  319MOL0     H43014   4.784   5.188   5.959 -0.0535 -1.7123 -2.5050
  319MOL0     H43015   4.837   5.109   6.103 -0.3609 -0.9237 -1.1440
  319MOL0     H43016   5.162   5.195   5.960 -0.2104  1.4143 -3.4501
  319MOL0     H43017   5.257   4.951   5.665  0.1097  0.4883 -0.4804
  319MOL0     H43018   5.322   5.096   5.748 -0.5682  0.7591 -0.8313
  319MOL0     H43019   5.312   4.806   5.866  2.3471 -0.2129 -1.1261
  319MOL0     H43020   5.367   4.963   5.946  3.0754 -0.9274  0.4217
  319MOL0     H43021   5.562   4.952   5.805  2.6153 -1.5316  1.1650
  319MOL0     H43022   5.495   4.835   5.691  3.0998  0.8821 -0.3523
  319MOL0     H43023   5.531   4.787   5.992  1.0750  0.2565  0.9051
  319MOL0     H43024   5.640   4.719   5.867 -1.3739 -5.7061  1.4595
  319MOL0     H43025   5.645   4.592   6.067  2.5893 -1.9875  0.8215
  319MOL0     H43026   5.782   4.297   6.212 -0.5487  0.2104  0.5357
  319MOL0     H43027   5.824   4.451   6.161  2.5615 -0.1000  4.9080
  319MOL0     H43028   5.704   4.433   6.289 -2.7474 -1.7771 -0.2535
  319MOL0     H43029   5.252   3.875   6.095  1.0839 -0.2996 -3.1517
  319MOL0     H43030   5.242   3.645   6.134 -0.4918  2.6620 -1.9289
  319MOL0     H43031   5.280   3.415   6.151  0.5854  0.2473  0.9048
  319MOL0     H43032   5.346   3.317   6.276 -2.5705 -1.6977 -1.8056
  319MOL0     H43033   5.291   3.495   6.456  0.4568 -2.9973 -0.1017
  319MOL0     H43034   5.194   3.577   6.332  1.9601  1.6590 -2.3238
  319MOL0     H43035   5.149   3.319   6.459  2.5665  0.7495 -0.2590
  319MOL0     H43036   5.101   3.347   6.283  1.3545 -0.3300  0.0026
  319MOL0     H43037   5.020   3.514   6.530 -0.3986 -0.0261  0.4631
  319MOL0     H43038   4.956   3.539   6.373  0.2095 -0.9578  1.1038
  319MOL0     H43039   4.905   3.279   6.509 -0.6686  0.0475 -0.1404
  319MOL0     H43040   4.834   3.343   6.351  0.0597  0.6432 -1.9479
  319MOL0     H43041   4.806   3.466   6.630 -1.4700 -1.7469  0.6306
  319MOL0     H43042   4.742   3.528   6.477  0.2363 -1.2314 -1.5928
  319MOL0     H43043   4.605   3.306   6.470 -0.0127 -2.3603  0.6137
  319MOL0     H43044   4.554   3.423   6.593  0.0391 -1.2709  0.1303
  319MOL0     H43045   4.695   3.307   6.760 -0.5283 -0.2270  0.6259
  319MOL0     H43046   4.735   3.180   6.643 -0.4991 -1.5111  0.1911
  319MOL0     H43047   5.645   3.647   6.291 -0.2846  1.7668  4.0188
  319MOL0     H43048   5.662   3.877   6.252 -0.9345  1.9903  0.4111
  319MOL0     H43049   5.374   4.193   5.928 -0.5449  0.6759 -1.1876
  319MOL0     H43050   5.333   4.408   5.831 -0.4583 -0.4173  1.1291
  319MOL0     H43051   5.115   5.938   5.915 -0.3347  0.5397  0.7046
  319MOL0     H43052   5.351   6.012   5.926 -0.7150  1.1243 -1.3290
  319MOL0     H43053   5.620   6.251   6.031  1.2887  1.3033  0.0423
  319MOL0     H43054   5.803   6.392   6.028  2.3009 -0.1631 -0.2002
  319MOL0     H43055   6.128   6.406   6.363  4.9038 -1.5235  0.0208
  319MOL0     H43056   6.176   6.335   6.201 -2.2069 -0.6051 -0.4990
  319MOL0     H43057   6.140   6.639   6.234 -1.5293 -0.9822  1.2420
  319MOL0     H43058   6.228   6.535   6.108  2.0350  0.6563  0.0396
  319MOL0     H43059   6.387   6.666   6.278  2.4134  0.4993  2.2904
  319MOL0     H43060   6.381   6.487   6.309 -2.1478 -0.9148  1.8506
  319MOL0     H43061   6.392   6.631   6.502  0.3573  0.6887 -1.7042
  319MOL0     H43062   6.239   6.546   6.506  1.3294 -1.7362 -1.2228
  319MOL0     H43063   6.170   6.979   6.409 -0.2639  0.2928  1.1962
  319MOL0     H43064   5.958   6.270   6.401  0.7851 -4.5930  1.3286
  319MOL0     H43065   5.769   6.100   6.416 -0.7943 -1.4597 -0.4682
  320MOL0     O43066  10.963  11.444   8.931  0.4779  0.3215 -0.2962
  320MOL0     C43067  10.994  11.560   8.953  0.4177  0.0180  0.4329
  320MOL0     O43068  10.908  11.663   8.981  0.0117  0.0499  0.2656
  320MOL0     C43069  10.776  11.628   8.994 -0.3592  0.1111 -0.2853
  320MOL0     C43070  10.689  11.609   8.891 -0.6955  0.2871 -0.4449
  320MOL0     C43071  10.554  11.591   8.918 -0.2220  1.0128 -0.3250
  320MOL0     C43072  10.512  11.550   9.052  0.0751  0.0924  0.2315
  320MOL0     O43073  10.389  11.508   9.083 -0.4290  0.0166  0.3018
  320MOL0     C43074  10.286  11.610   9.086 -0.6475  0.3935  0.2342
  320MOL0     C43075  10.170  11.559   9.168 -0.2015  0.3351 -0.2410
  320MOL0     C43076  10.091  11.444   9.096 -0.0725  0.5125  0.0180
  320MOL0     C43077   9.952  11.427   9.151  0.1400  0.1553 -0.0272
  320MOL0     C43078   9.898  11.288   9.113 -0.5859 -0.0931  0.3266
  320MOL0     C43079   9.768  11.257   9.181 -0.0512  0.4677  0.1480
  320MOL0     C43080   9.776  11.270   9.336  0.4729  0.5185 -0.3269
  320MOL0     C43081   9.681  11.173   9.406  0.6151  0.4883 -0.1966
  320MOL0     N43082   9.544  11.197   9.374  0.1779 -0.0992  0.1014
  320MOL0     C43083   9.473  11.143   9.269 -0.0306  1.0343  0.1295
  320MOL0     C43084   9.349  11.195   9.269  0.8153 -0.4408 -0.8868
  320MOL0     C43085   9.239  11.204   9.171 -0.9082  0.7140  0.5896
  320MOL0     C43086   9.101  11.254   9.219  0.2758 -0.4676  0.4277
  320MOL0     C43087   9.005  11.280   9.099  0.7853 -0.0002  0.0698
  320MOL0     C43088   8.966  11.158   9.015  0.5181 -0.0889  0.4149
  320MOL0     O43089   8.852  11.176   8.924  0.2011  0.4133  0.0102
  320MOL0     C43090   8.813  11.068   8.840 -0.1461  0.2200 -0.1790
  320MOL0     C43091   8.887  10.954   8.799 -0.0279  0.0370 -0.4111
  320MOL0     C43092   8.848  10.859   8.706 -0.2029  0.5360 -0.2180
  320MOL0     C43093   8.936  10.740   8.689  0.5811 -0.2894  0.0934
  320MOL0     C43094   8.726  10.871   8.641 -0.5222 -0.2930 -0.7165
  320MOL0     C43095   8.672  10.781   8.531 -0.3915 -0.7554 -0.2924
  320MOL0     O43096   8.534  10.759   8.526  0.3960 -0.5104  0.1876
  320MOL0     C43097   8.498  10.680   8.421 -0.0076 -1.2759  0.5510
  320MOL0     C43098   8.475  10.736   8.294  0.9263  0.7182  0.3025
  320MOL0     C43099   8.440  10.654   8.191 -0.0454 -0.0559  0.4782
  320MOL0     C43100   8.413  10.520   8.214 -0.3246 -0.3511 -0.1634
  320MOL0     O43101   8.387  10.452   8.093 -0.7876 -0.5589 -0.0084
  320MOL0     C43102   8.373  10.315   8.079 -0.1192 -0.0105 -0.4852
  320MOL0     C43103   8.365  10.285   7.932 -0.3026 -1.0835 -0.2753
  320MOL0     C43104   8.344  10.143   7.901  0.7707  0.2405 -0.9605
  320MOL0     C43105   8.340  10.112   7.757  0.2689  0.0291 -0.1259
  320MOL0     C43106   8.489  10.104   7.710  0.0651 -0.5423  0.0483
  320MOL0     C43107   8.554   9.969   7.742 -0.4148  0.1886 -0.2403
  320MOL0     C43108   8.701   9.959   7.679  0.3667  0.7509 -0.5160
  320MOL0     C43109   8.695   9.919   7.525  0.1701 -0.1980 -0.5226
  320MOL0    Cl43110   8.664   9.746   7.523 -0.1500 -0.2273 -0.0412
  320MOL0     C43111   8.431  10.461   8.339 -0.1687 -0.0664 -0.1460
  320MOL0     C43112   8.480  10.541   8.444  0.2166  0.5830  0.3640
  320MOL0     O43113   8.754  10.735   8.456 -0.1207 -0.5540  0.0083
  320MOL0     C43114   8.651  10.978   8.688  1.1144  0.4493  0.9883
  320MOL0     C43115   8.684  11.073   8.783 -0.4128  0.8038  0.2697
  320MOL0     N43116   9.359  11.291   9.377 -0.2977  0.0169 -1.6519
  320MOL0     N43117   9.471  11.289   9.445  0.1501 -0.8222 -0.0162
  320MOL0     C43118  10.612  11.570   9.152  0.4699 -0.2054  0.7654
  320MOL0     C43119  10.735  11.606   9.124 -0.2659 -0.6537  0.2859
  320MOL0     C43120  11.138  11.588   8.962 -0.3214 -0.2425  0.3499
  320MOL0     C43121  11.245  11.508   8.902 -0.5348 -0.3360 -1.0612
  320MOL0     C43122  11.377  11.552   8.915  0.3150 -0.9491 -0.4851
  320MOL0     C43123  11.408  11.670   8.987 -0.7245  0.1677 -0.8170
  320MOL0     O43124  11.536  11.709   9.017  0.4928  0.2357 -0.1242
  320MOL0     C43125  11.639  11.668   8.919 -0.4229 -0.8213 -0.7568
  320MOL0     C43126  11.740  11.785   8.901 -0.1183 -0.6474  1.0453
  320MOL0     C43127  11.883  11.738   8.918  0.2372 -0.0797 -0.2004
  320MOL0     C43128  11.976  11.852   8.947  0.5493  0.2118  0.2856
  320MOL0     C43129  12.109  11.810   8.958  0.1693 -0.6999 -0.2713
  320MOL0     C43130  12.214  11.764   8.981 -0.5693 -0.4868 -0.9560
  320MOL0     C43131  11.305  11.741   9.047  0.7416 -0.0730 -0.0113
  320MOL0     C43132  11.171  11.699   9.035  0.2481 -0.8199 -0.4721
  320MOL0     H43133  10.738  11.620   8.795  0.4571 -0.6513  0.0116
  320MOL0     H43134  10.472  11.577   8.849 -1.3878 -0.6309  1.2948
  320MOL0     H43135  10.330  11.702   9.125  0.5041 -0.3714  0.8029
  320MOL0     H43136  10.240  11.634   8.990 -3.4030 -1.4841  0.9694
  320MOL0     H43137  10.207  11.531   9.267  0.7023 -1.1594 -0.9668
  320MOL0     H43138  10.102  11.645   9.178 -1.8150 -1.0037  1.0632
  320MOL0     H43139  10.091  11.461   8.988  0.3317 -3.2766 -0.7009
  320MOL0     H43140  10.142  11.348   9.104 -1.0913  0.0925  2.2063
  320MOL0     H43141   9.964  11.438   9.259 -2.6340  0.5646  0.2926
  320MOL0     H43142   9.887  11.509   9.118  0.5491 -0.0659 -1.4693
  320MOL0     H43143   9.881  11.285   9.005 -2.1545 -3.4594  0.5178
  320MOL0     H43144   9.972  11.211   9.137  0.7465  1.3800  1.0980
  320MOL0     H43145   9.679  11.304   9.139  0.0928 -0.7870 -1.6813
  320MOL0     H43146   9.748  11.150   9.169  2.9654 -0.0913 -0.7898
  320MOL0     H43147   9.878  11.240   9.362  0.0646 -1.8948 -1.2626
  320MOL0     H43148   9.753  11.376   9.354 -0.3901  0.1972  0.5865
  320MOL0     H43149   9.681  11.194   9.513  0.3666 -0.4801 -0.0031
  320MOL0     H43150   9.698  11.067   9.383  2.0200  0.9988 -1.7191
  320MOL0     H43151   9.506  11.074   9.192 -1.6259  3.4006 -2.9413
  320MOL0     H43152   9.287  11.268   9.097 -0.8810  0.4396  0.3717
  320MOL0     H43153   9.228  11.102   9.136 -0.8366  1.6308 -2.3370
  320MOL0     H43154   9.134  11.350   9.258 -0.5952  1.4609 -3.1404
  320MOL0     H43155   9.053  11.192   9.295 -1.2274  0.4191  0.2410
  320MOL0     H43156   9.049  11.347   9.026 -2.0833  2.1240  0.1316
  320MOL0     H43157   8.912  11.330   9.126  1.8322  1.7750  0.5390
  320MOL0     H43158   8.940  11.085   9.092  2.0378 -1.4387 -0.2890
  320MOL0     H43159   9.051  11.120   8.957  0.1664 -2.2311  1.2119
  320MOL0     H43160   8.983  10.944   8.848  0.7765 -0.1844 -1.9581
  320MOL0     H43161   9.026  10.741   8.752  3.1801  2.4600 -3.2673
  320MOL0     H43162   8.881  10.648   8.709  1.2280 -0.8482 -0.6480
  320MOL0     H43163   8.966  10.718   8.586 -0.8698 -3.1055  0.1806
  320MOL0     H43164   8.501  10.840   8.280  0.7781  0.5079 -1.7825
  320MOL0     H43165   8.445  10.703   8.095  1.8105  1.1072  1.1206
  320MOL0     H43166   8.463  10.268   8.120  0.0627  1.1145  0.4647
  320MOL0     H43167   8.280  10.282   8.127 -0.3181  1.1199 -0.0544
  320MOL0     H43168   8.283  10.353   7.906  1.7029  1.4580 -0.3240
  320MOL0     H43169   8.450  10.328   7.879 -0.6016 -0.4511 -0.2557
  320MOL0     H43170   8.252  10.113   7.952  2.4696 -0.9699  1.5837
  320MOL0     H43171   8.429  10.088   7.943  1.3585 -0.7442 -3.2643
  320MOL0     H43172   8.300  10.014   7.729  2.6207 -0.5715 -1.6709
  320MOL0     H43173   8.289  10.199   7.715 -2.8213 -0.9950  1.1657
  320MOL0     H43174   8.549  10.186   7.752 -0.5551 -0.6905  1.2854
  320MOL0     H43175   8.490  10.121   7.602 -0.2075 -0.4717  0.0562
  320MOL0     H43176   8.581   9.959   7.848  1.7992  2.6848 -0.4558
  320MOL0     H43177   8.489   9.882   7.732 -1.2578  0.2707  3.2108
  320MOL0     H43178   8.775   9.897   7.730  1.3974 -0.4802 -3.3047
  320MOL0     H43179   8.740  10.060   7.686  0.4420  0.8661 -2.1545
  320MOL0     H43180   8.786   9.941   7.468  0.9460 -0.1273  0.7036
  320MOL0     H43181   8.610   9.969   7.479 -1.4903 -2.1221  0.2887
  320MOL0     H43182   8.423  10.352   8.343  2.1974 -0.2563  2.6502
  320MOL0     H43183   8.486  10.507   8.547  0.6400 -0.9132 -0.1205
  320MOL0     H43184   8.557  10.999   8.637  0.9017 -0.2897  1.0603
  320MOL0     H43185   8.617  11.157   8.797 -0.5142  0.5287  1.5446
  320MOL0     H43186  10.587  11.545   9.254 -0.0411 -1.6427  0.3130
  320MOL0     H43187  10.805  11.622   9.206  1.4430 -3.7626 -0.3905
  320MOL0     H43188  11.236  11.409   8.858  5.5446 -1.5353 -0.5069
  320MOL0     H43189  11.454  11.484   8.880 -1.5466 -2.5014 -1.7314
  320MOL0     H43190  11.693  11.581   8.956 -0.1397 -0.4515 -0.2871
  320MOL0     H43191  11.590  11.656   8.822 -2.5724  2.2596 -0.2221
  320MOL0     H43192  11.715  11.867   8.969 -1.7110  0.3767 -0.6751
  320MOL0     H43193  11.724  11.823   8.800 -0.3509  0.7637  1.5829
  320MOL0     H43194  11.917  11.679   8.833  0.3732 -0.7754  0.3203
  320MOL0     H43195  11.899  11.671   9.003  0.7668  1.4138  0.9304
  320MOL0     H43196  11.943  11.895   9.042  3.4392 -1.1755  2.0262
  320MOL0     H43197  11.971  11.931   8.871 -0.7685 -1.8335 -1.9169
  320MOL0     H43198  12.309  11.725   9.013 -1.7926 -2.3453  0.6036
  320MOL0     H43199  11.341  11.814   9.118 -0.8877 -0.9229  1.7677
  320MOL0     H43200  11.096  11.756   9.089 -1.5542 -1.4011 -2.2479
  321MOL0     O43201   9.199  10.014  10.565  0.8516  0.2299 -0.0078
  321MOL0     C43202   9.096   9.967  10.505  0.1043 -0.3271 -0.4599
  321MOL0     O43203   8.962   9.993  10.539 -0.4163 -0.5559  0.5526
  321MOL0     C43204   8.934  10.070  10.650  0.2910 -0.2035 -0.0560
  321MOL0     C43205   8.826  10.162  10.630 -1.1458 -0.1522 -0.2248
  321MOL0     C43206   8.775  10.234  10.741  0.3904 -0.7902 -0.4844
  321MOL0     C43207   8.823  10.198  10.870 -0.8348  0.2938  0.3942
  321MOL0     O43208   8.782  10.256  10.980 -0.1537  0.5205  0.4253
  321MOL0     C43209   8.636  10.256  10.994  0.1854  0.3093 -0.4916
  321MOL0     C43210   8.607  10.292  11.139  0.3781 -0.1832 -0.2252
  321MOL0     C43211   8.594  10.448  11.161  0.1276  0.2499 -0.2854
  321MOL0     C43212   8.449  10.500  11.147 -0.4999  0.1519 -0.6554
  321MOL0     C43213   8.433  10.650  11.182  0.8010 -0.4163 -0.6532
  321MOL0     C43214   8.291  10.707  11.139  0.8899 -0.2333 -0.0960
  321MOL0     C43215   8.161  10.637  11.187  0.3561  0.4291 -0.0698
  321MOL0     C43216   8.035  10.715  11.144 -1.6294  0.6518  0.9094
  321MOL0     N43217   7.909  10.639  11.161  0.0615  0.1795 -0.1532
  321MOL0     C43218   7.859  10.590  11.278 -0.7202  0.1610  0.8416
  321MOL0     C43219   7.741  10.526  11.253 -0.3413  0.2222  0.0138
  321MOL0     C43220   7.656  10.446  11.340  0.5313  0.5576  0.1713
  321MOL0     C43221   7.582  10.330  11.277  0.4428 -0.4007  0.3371
  321MOL0     C43222   7.510  10.243  11.378  0.6760  0.0552 -1.0381
  321MOL0     C43223   7.599  10.179  11.475  0.2987 -0.5296 -0.5144
  321MOL0     O43224   7.607  10.267  11.589 -0.7705  0.6114 -0.2107
  321MOL0     C43225   7.660  10.202  11.703 -0.4894  0.0907 -0.2767
  321MOL0     C43226   7.725  10.074  11.704  0.2261  0.0397 -1.0107
  321MOL0     C43227   7.777  10.012  11.817 -1.1699 -0.9354  0.3112
  321MOL0     C43228   7.874   9.893  11.795  0.2624 -0.5016 -1.0638
  321MOL0     C43229   7.756  10.074  11.948  0.3249  0.6214 -0.2117
  321MOL0     C43230   7.801  10.025  12.075 -0.7910 -0.0296  1.1889
  321MOL0     O43231   7.884  10.092  12.160 -0.0351 -0.0457  0.2943
  321MOL0     C43232   7.972  10.180  12.113  0.6203  0.4037  0.8482
  321MOL0     C43233   7.968  10.313  12.152 -0.8064  1.2632 -0.1769
  321MOL0     C43234   8.065  10.399  12.092 -0.3234 -0.1114 -0.1670
  321MOL0     C43235   8.157  10.352  11.993  0.8041 -0.2558 -0.6846
  321MOL0     O43236   8.243  10.426  11.927 -0.2063  0.3008 -0.5736
  321MOL0     C43237   8.261  10.563  11.973  0.3455 -0.5458  0.1514
  321MOL0     C43238   8.382  10.620  11.911  0.2012 -0.2068 -0.6655
  321MOL0     C43239   8.360  10.688  11.769 -0.0341  0.4271 -0.1676
  321MOL0     C43240   8.267  10.812  11.781 -0.6329  1.4341 -0.1948
  321MOL0     C43241   8.226  10.857  11.641  0.0094 -0.8966 -1.0389
  321MOL0     C43242   8.342  10.932  11.562 -0.1217  0.5725  0.1210
  321MOL0     C43243   8.288  11.049  11.479  0.5901  0.4670  0.6071
  321MOL0     C43244   8.403  11.122  11.408 -0.0450 -0.2142  0.0179
  321MOL0    Cl43245   8.483  11.009  11.298  0.1996 -0.3337  0.0092
  321MOL0     C43246   8.162  10.215  11.963 -0.1245 -0.2996 -0.8428
  321MOL0     C43247   8.076  10.131  12.037  0.0025  0.7738 -0.0627
  321MOL0     O43248   7.765   9.910  12.091 -0.0143  0.9095 -0.1526
  321MOL0     C43249   7.694  10.198  11.948 -0.0723 -0.0949  0.4513
  321MOL0     C43250   7.650  10.267  11.831  0.8232 -0.6014  0.0221
  321MOL0     N43251   7.722  10.541  11.113 -0.7095  0.1730 -0.5594
  321MOL0     N43252   7.822  10.606  11.057 -0.0817 -0.6226 -0.0318
  321MOL0     C43253   8.922  10.102  10.885 -0.1692  0.3765  0.2071
  321MOL0     C43254   8.971  10.038  10.778 -0.4006  0.2778 -0.0627
  321MOL0     C43255   9.126   9.878  10.391 -0.1646  0.9449  0.3076
  321MOL0     C43256   9.038   9.867  10.286 -0.2471  0.6316  0.3108
  321MOL0     C43257   9.061   9.771  10.182 -0.8439 -0.8798 -0.1415
  321MOL0     C43258   9.169   9.690  10.186  0.0046 -0.3546  0.6091
  321MOL0     O43259   9.214   9.605  10.082 -0.7526 -0.4488 -0.7133
  321MOL0     C43260   9.108   9.530  10.009  0.2595 -1.1038  0.3043
  321MOL0     C43261   9.079   9.408  10.080  0.4760  0.7488 -0.4962
  321MOL0     C43262   9.019   9.429  10.227  0.5124 -0.0785  0.7359
  321MOL0     C43263   8.915   9.319  10.265 -0.2739  0.3447  0.6183
  321MOL0     C43264   8.942   9.177  10.230  0.7065  0.5620 -0.1729
  321MOL0     C43265   8.958   9.063  10.214 -0.2641 -0.4997  0.2638
  321MOL0     C43266   9.263   9.708  10.287 -0.5752 -0.3263 -0.6296
  321MOL0     C43267   9.247   9.805  10.391 -0.0541  0.1209  0.1427
  321MOL0     H43268   8.790  10.182  10.529 -1.5431  2.3838  0.3322
  321MOL0     H43269   8.696  10.307  10.729  1.4203  0.0908 -2.1652
  321MOL0     H43270   8.583  10.330  10.934 -1.6036  0.1784  0.8451
  321MOL0     H43271   8.599  10.156  10.972 -1.7115  0.8301  0.1338
  321MOL0     H43272   8.517  10.241  11.173 -0.5649  2.8095  2.2624
  321MOL0     H43273   8.683  10.256  11.209  1.9727  4.2164  0.6060
  321MOL0     H43274   8.635  10.463  11.261  1.4051 -0.6372 -0.6539
  321MOL0     H43275   8.657  10.499  11.087  1.5211  0.8504  1.2465
  321MOL0     H43276   8.428  10.484  11.041 -2.6815 -0.7597 -0.1363
  321MOL0     H43277   8.391  10.439  11.217  3.9726 -4.4051 -0.3230
  321MOL0     H43278   8.446  10.653  11.291 -0.5412  1.5834 -0.4896
  321MOL0     H43279   8.512  10.703  11.128  1.2886 -3.4470 -3.1913
  321MOL0     H43280   8.293  10.815  11.157  1.1596  0.1279 -2.0421
  321MOL0     H43281   8.288  10.686  11.031 -3.1317  1.0862 -0.4233
  321MOL0     H43282   8.154  10.533  11.156  0.2550 -0.1375  1.7232
  321MOL0     H43283   8.162  10.616  11.294 -1.8632 -6.8873 -0.9973
  321MOL0     H43284   8.047  10.758  11.044 -0.2927 -1.0323  0.3115
  321MOL0     H43285   8.027  10.800  11.213 -2.8352 -0.4176  2.1564
  321MOL0     H43286   7.920  10.605  11.366 -0.3233  2.2723  0.2461
  321MOL0     H43287   7.714  10.414  11.427 -0.0675 -0.4610  0.2012
  321MOL0     H43288   7.578  10.510  11.382  0.6031  0.4626  0.4557
  321MOL0     H43289   7.657  10.267  11.227  0.0905 -1.8355  1.5635
  321MOL0     H43290   7.526  10.378  11.196  2.2204 -0.6393 -1.1046
  321MOL0     H43291   7.456  10.164  11.325  0.2619  1.3869 -2.6865
  321MOL0     H43292   7.425  10.302  11.414  0.7266  0.6009 -1.8115
  321MOL0     H43293   7.696  10.173  11.426 -0.1434 -1.3037 -1.3274
  321MOL0     H43294   7.540  10.090  11.499 -0.4889 -0.2118 -1.2136
  321MOL0     H43295   7.726  10.017  11.611  3.8237  2.9600 -3.0391
  321MOL0     H43296   7.858   9.842  11.700 -2.9917  0.0610 -0.9292
  321MOL0     H43297   7.978   9.925  11.794  0.2891 -0.3790  1.2422
  321MOL0     H43298   7.851   9.821  11.874  0.3289  2.1745  1.5651
  321MOL0     H43299   7.889  10.351  12.215 -1.5465  0.2456 -0.4775
  321MOL0     H43300   8.042  10.504  12.098 -2.5516 -0.6221  1.1787
  321MOL0     H43301   8.172  10.624  11.955 -2.1345 -3.5470  1.2902
  321MOL0     H43302   8.279  10.572  12.081  0.4147  0.6516  0.0539
  321MOL0     H43303   8.420  10.702  11.972  3.2008 -0.3291 -2.1792
  321MOL0     H43304   8.465  10.549  11.918  1.8590  1.7764  3.5411
  321MOL0     H43305   8.319  10.608  11.706 -0.8766  0.2430  0.5865
  321MOL0     H43306   8.458  10.704  11.723  1.3051 -2.4632  1.3332
  321MOL0     H43307   8.169  10.794  11.826 -1.0066  0.8438 -1.2249
  321MOL0     H43308   8.319  10.890  11.838 -1.4313  2.8095 -1.2878
  321MOL0     H43309   8.138  10.918  11.664  1.2537 -0.2496  2.6360
  321MOL0     H43310   8.196  10.768  11.584 -1.0077 -0.7572 -0.7423
  321MOL0     H43311   8.414  10.963  11.638  0.0867 -2.0867  1.0851
  321MOL0     H43312   8.391  10.860  11.496 -2.3292  0.0083 -1.0320
  321MOL0     H43313   8.229  11.109  11.549 -0.5476 -0.6686  0.6522
  321MOL0     H43314   8.216  11.007  11.409  0.5803  0.2337  0.7574
  321MOL0     H43315   8.475  11.176  11.471  0.6056 -0.3243 -0.6170
  321MOL0     H43316   8.345  11.192  11.348  0.7948  1.6934  1.3449
  321MOL0     H43317   8.237  10.174  11.897 -3.1314 -2.9024 -2.9696
  321MOL0     H43318   8.082  10.024  12.026  2.9607  0.9895 -1.5579
  321MOL0     H43319   7.683  10.252  12.041  1.8065  0.2907  0.4834
  321MOL0     H43320   7.604  10.365  11.838 -3.0359 -2.2154 -0.3891
  321MOL0     H43321   8.960  10.084  10.985  0.1136  0.7821  0.1725
  321MOL0     H43322   9.043   9.958  10.790 -2.9689 -1.9382  1.6797
  321MOL0     H43323   8.954   9.936  10.279  1.5886  3.1359  1.4391
  321MOL0     H43324   8.997   9.773  10.094 -1.2036 -1.2063  0.1110
  321MOL0     H43325   9.017   9.589   9.995  0.0464 -1.2482  1.0462
  321MOL0     H43326   9.146   9.514   9.907 -1.6389 -4.0654 -0.0608
  321MOL0     H43327   9.161   9.335  10.076  0.6679  0.9133  0.2528
  321MOL0     H43328   9.003   9.354  10.023  0.5171 -1.0006  1.0039
  321MOL0     H43329   8.973   9.528  10.233  2.6607  1.0600 -0.4091
  321MOL0     H43330   9.102   9.417  10.298 -0.7398 -0.2919  2.2247
  321MOL0     H43331   8.818   9.345  10.222 -1.8627 -2.6099  2.1141
  321MOL0     H43332   8.909   9.330  10.373  1.8235  0.0205  0.8071
  321MOL0     H43333   8.974   8.962  10.182  0.8413  0.1234 -1.2704
  321MOL0     H43334   9.355   9.649  10.291 -0.6356 -0.3806  0.0336
  321MOL0     H43335   9.320   9.823  10.469 -1.1299 -1.2518  1.5203
  322MOL0     O43336   3.703  10.324   3.122  0.2248  0.3799  0.1304
  322MOL0     C43337   3.762  10.375   3.213 -0.6082  0.9470 -0.2445
  322MOL0     O43338   3.864  10.329   3.285  0.5225  0.9244 -0.3968
  322MOL0     C43339   3.902  10.192   3.266  0.1433 -0.4028  0.0453
  322MOL0     C43340   3.826  10.085   3.304 -0.6452 -0.7770  0.4955
  322MOL0     C43341   3.871   9.953   3.298  0.5027 -0.3042  0.1734
  322MOL0     C43342   4.005   9.924   3.257  0.3362 -0.2690  0.4810
  322MOL0     O43343   4.050   9.793   3.256  0.1408  0.5073 -0.1099
  322MOL0     C43344   4.171   9.775   3.339 -0.1316 -0.6410 -0.7340
  322MOL0     C43345   4.177   9.631   3.392  0.5643  0.3501  0.6311
  322MOL0     C43346   4.055   9.595   3.474  0.4174  1.0112  0.2593
  322MOL0     C43347   4.104   9.482   3.575  0.7110  0.1393 -0.2915
  322MOL0     C43348   3.991   9.415   3.643  1.0115 -0.2790 -0.3181
  322MOL0     C43349   3.927   9.305   3.552 -0.0945 -0.2856 -0.2901
  322MOL0     C43350   3.824   9.211   3.609 -0.5888 -0.3150  0.3931
  322MOL0     C43351   3.781   9.099   3.513 -0.6667 -0.0629 -0.6346
  322MOL0     N43352   3.863   8.979   3.521  0.1914  0.3519 -0.5145
  322MOL0     C43353   4.000   8.978   3.505 -0.6292 -0.3129 -0.8810
  322MOL0     C43354   4.039   8.862   3.577  0.0749  0.5924 -0.2066
  322MOL0     C43355   4.176   8.826   3.611  0.4581  0.8613 -1.0249
  322MOL0     C43356   4.232   8.885   3.738  0.1469  0.0049  0.2444
  322MOL0     C43357   4.184   8.823   3.867  0.2571 -0.5780 -0.6671
  322MOL0     C43358   4.265   8.876   3.995 -1.1642  0.5849  0.3876
  322MOL0     O43359   4.203   8.829   4.113 -0.0093  0.3794  0.4620
  322MOL0     C43360   4.234   8.899   4.224 -0.9487 -0.2164 -1.1784
  322MOL0     C43361   4.210   8.822   4.341  0.0645  0.7368  0.1282
  322MOL0     C43362   4.235   8.872   4.466  0.0534  0.4960  0.0034
  322MOL0     C43363   4.181   8.786   4.577  0.1548 -0.0564 -0.1138
  322MOL0     C43364   4.301   8.995   4.489  0.0434 -0.6014 -0.1341
  322MOL0     C43365   4.359   9.045   4.620  1.2396  0.0459  0.7261
  322MOL0     O43366   4.445   9.148   4.610 -0.2055 -0.3068  0.2051
  322MOL0     C43367   4.470   9.213   4.731  0.1912 -0.0448  0.7378
  322MOL0     C43368   4.403   9.330   4.750  0.0695 -0.7317  0.0654
  322MOL0     C43369   4.436   9.417   4.859  0.2346  0.2500 -0.8880
  322MOL0     C43370   4.520   9.376   4.955 -0.1139  0.0338 -1.3566
  322MOL0     O43371   4.536   9.459   5.065 -0.0609  0.5578 -0.6322
  322MOL0     C43372   4.614   9.574   5.024  0.3680 -0.0213  0.2981
  322MOL0     C43373   4.672   9.636   5.144  1.2761  0.4012  0.0886
  322MOL0     C43374   4.781   9.555   5.213  0.2024 -0.1605  0.1889
  322MOL0     C43375   4.915   9.549   5.145 -0.0036  0.4066  0.3101
  322MOL0     C43376   5.027   9.453   5.188  0.2720  0.1070 -0.2151
  322MOL0     C43377   5.077   9.502   5.322  0.4975  0.8984  0.9622
  322MOL0     C43378   5.170   9.404   5.406  0.0321 -0.1611 -0.7731
  322MOL0     C43379   5.214   9.490   5.526 -0.3015  0.9314  0.1234
  322MOL0    Cl43380   5.301   9.639   5.496 -0.4381 -0.0221 -0.2183
  322MOL0     C43381   4.594   9.255   4.933  0.2786 -0.2801  0.0302
  322MOL0     C43382   4.566   9.180   4.822  0.0625 -0.3737  1.3595
  322MOL0     O43383   4.313   8.995   4.719  0.1408  0.2720 -0.9214
  322MOL0     C43384   4.320   9.074   4.370 -0.6333  1.3962 -0.3712
  322MOL0     C43385   4.283   9.027   4.242  0.4301 -0.4434  0.4015
  322MOL0     N43386   3.918   8.794   3.613  0.5003  0.1925  0.1339
  322MOL0     N43387   3.817   8.869   3.581  0.8608 -0.0746 -0.8097
  322MOL0     C43388   4.085  10.031   3.217  0.2311  0.1133 -0.3694
  322MOL0     C43389   4.033  10.167   3.221 -0.8173 -0.7964  0.8003
  322MOL0     C43390   3.722  10.523   3.254  0.6631  0.1929  0.3688
  322MOL0     C43391   3.778  10.580   3.369 -0.2802  0.5603  0.0774
  322MOL0     C43392   3.767  10.709   3.397 -0.4462 -0.0446  0.7538
  322MOL0     C43393   3.695  10.795   3.310 -0.4886 -0.0518 -1.0396
  322MOL0     O43394   3.678  10.926   3.331  0.3832  0.0977  0.0730
  322MOL0     C43395   3.775  10.997   3.404  0.3740 -0.2367  0.3464
  322MOL0     C43396   3.755  11.015   3.554 -0.4095  0.8903 -0.1940
  322MOL0     C43397   3.649  11.118   3.591  0.1652 -0.3926 -0.3203
  322MOL0     C43398   3.660  11.187   3.729 -0.9742  1.1765  0.2462
  322MOL0     C43399   3.658  11.096   3.850  0.3292  0.0383 -0.2991
  322MOL0     C43400   3.650  11.035   3.953  0.4554  0.2393 -0.4512
  322MOL0     C43401   3.641  10.739   3.192  0.6939  0.2856 -0.1666
  322MOL0     C43402   3.646  10.599   3.169  0.3209  0.3599 -0.4642
  322MOL0     H43403   3.732  10.102   3.355 -1.5137 -3.3205 -0.1207
  322MOL0     H43404   3.810   9.871   3.335 -2.0828  1.2452 -0.3968
  322MOL0     H43405   4.251   9.806   3.272 -1.0762 -2.3207 -2.7566
  322MOL0     H43406   4.161   9.838   3.429 -0.0832 -1.6710  0.0060
  322MOL0     H43407   4.187   9.558   3.311 -0.2617  2.3375 -1.3687
  322MOL0     H43408   4.264   9.624   3.458  0.9596  0.0402  0.0877
  322MOL0     H43409   4.021   9.674   3.541 -1.1932 -0.7716  1.6906
  322MOL0     H43410   3.969   9.564   3.414  1.4295 -2.2120  0.2438
  322MOL0     H43411   4.158   9.401   3.525 -2.7805 -0.2784 -3.8944
  322MOL0     H43412   4.168   9.525   3.652  0.0571  1.3235 -0.3933
  322MOL0     H43413   4.017   9.377   3.742  0.4528 -0.1289 -0.1076
  322MOL0     H43414   3.910   9.485   3.666  3.0508  1.4748  2.1736
  322MOL0     H43415   3.874   9.346   3.466  1.0162 -2.1143 -1.9061
  322MOL0     H43416   4.013   9.248   3.518  2.8261  4.1245 -1.1152
  322MOL0     H43417   3.877   9.162   3.691  0.7370  2.3244  1.2178
  322MOL0     H43418   3.738   9.270   3.643 -1.3358 -0.7478 -0.6847
  322MOL0     H43419   3.788   9.129   3.408 -2.1483 -0.0419 -0.7482
  322MOL0     H43420   3.677   9.081   3.543 -1.1412 -1.1413 -2.7450
  322MOL0     H43421   4.074   9.042   3.460  2.9399 -2.2316  1.7470
  322MOL0     H43422   4.184   8.717   3.618 -1.3431  0.7964  2.2926
  322MOL0     H43423   4.256   8.853   3.542  3.7605 -2.1995  1.2045
  322MOL0     H43424   4.226   8.994   3.733  0.0189  0.2622  3.8690
  322MOL0     H43425   4.338   8.860   3.733  0.9182  1.9037  3.9806
  322MOL0     H43426   4.197   8.715   3.877 -1.3609 -0.5704  3.5451
  322MOL0     H43427   4.078   8.849   3.879 -0.2606 -2.6465 -0.3154
  322MOL0     H43428   4.276   8.984   3.983 -1.1987  0.4840 -0.6351
  322MOL0     H43429   4.369   8.843   3.989 -1.5819 -0.7787  0.2251
  322MOL0     H43430   4.183   8.718   4.323  0.7758  0.7662 -1.2615
  322MOL0     H43431   4.135   8.693   4.541 -1.2852  0.9057 -0.8453
  322MOL0     H43432   4.264   8.761   4.644 -1.0133 -1.1723  0.9900
  322MOL0     H43433   4.113   8.839   4.644 -0.2834 -0.7938  0.0469
  322MOL0     H43434   4.322   9.361   4.686  0.5120  0.5959  0.1265
  322MOL0     H43435   4.375   9.506   4.871  0.3926  0.4080 -1.2452
  322MOL0     H43436   4.694   9.558   4.951 -1.9234 -3.7865 -1.6890
  322MOL0     H43437   4.540   9.648   4.991 -1.1919 -0.4840  2.5339
  322MOL0     H43438   4.706   9.736   5.118 -0.3417  1.5254  1.9782
  322MOL0     H43439   4.589   9.646   5.215 -0.3928  0.2214 -1.7511
  322MOL0     H43440   4.755   9.451   5.236 -1.9752  0.1726 -0.5705
  322MOL0     H43441   4.803   9.603   5.309 -1.3108 -0.4376  0.7002
  322MOL0     H43442   4.883   9.512   5.046 -4.1531  2.4295  0.6813
  322MOL0     H43443   4.943   9.653   5.131 -2.6928  0.9720 -1.6987
  322MOL0     H43444   5.120   9.460   5.131 -0.8325  0.5524 -2.0423
  322MOL0     H43445   4.996   9.348   5.187  0.1969  0.1290 -0.4197
  322MOL0     H43446   5.124   9.595   5.288  0.3115  0.3961 -0.7814
  322MOL0     H43447   5.001   9.529   5.396 -2.1228  0.5439 -1.4207
  322MOL0     H43448   5.254   9.376   5.342 -0.6969  0.6930 -2.1537
  322MOL0     H43449   5.121   9.313   5.442 -0.5143 -0.2004 -1.5965
  322MOL0     H43450   5.275   9.420   5.583  0.5694  0.2989 -1.5211
  322MOL0     H43451   5.126   9.501   5.591 -1.2697  3.9595 -1.4821
  322MOL0     H43452   4.670   9.212   4.998 -0.7314 -1.8119  0.2438
  322MOL0     H43453   4.620   9.093   4.784  0.8739  2.0035 -3.6582
  322MOL0     H43454   4.353   9.174   4.392  1.1555  1.2735 -2.1776
  322MOL0     H43455   4.281   9.094   4.156  2.9261  1.4871  1.6842
  322MOL0     H43456   4.180  10.005   3.171 -0.3606 -0.8450 -1.0846
  322MOL0     H43457   4.109  10.237   3.187 -3.1458  1.0804 -0.8924
  322MOL0     H43458   3.827  10.510   3.436 -4.7228 -2.9550  0.1865
  322MOL0     H43459   3.813  10.750   3.487  2.0457  1.2958 -1.0206
  322MOL0     H43460   3.873  10.953   3.386  0.0345 -0.6513 -0.5508
  322MOL0     H43461   3.782  11.101   3.369 -3.7774 -0.3748 -1.5146
  322MOL0     H43462   3.850  11.042   3.600  1.6491 -1.8032 -2.5045
  322MOL0     H43463   3.725  10.916   3.589  1.7672  0.8982  1.9198
  322MOL0     H43464   3.548  11.079   3.576 -0.1531  0.7174 -1.2749
  322MOL0     H43465   3.651  11.199   3.518  0.4435 -0.3154 -0.2284
  322MOL0     H43466   3.579  11.261   3.731  0.9084  3.3131  1.3465
  322MOL0     H43467   3.747  11.252   3.739 -1.1167  1.3967  0.0754
  322MOL0     H43468   3.665  10.979   4.043  1.9889 -1.2843 -1.6078
  322MOL0     H43469   3.588  10.810   3.128 -0.5404 -0.3934  0.0615
  322MOL0     H43470   3.597  10.557   3.082 -0.4907  0.9236 -0.2945
  323MOL0     O43471   1.782   0.735   3.738 -0.0651 -0.4628 -0.3882
  323MOL0     C43472   1.860   0.646   3.716  0.6554  0.7411  0.4477
  323MOL0     O43473   1.937   0.634   3.597 -0.2745  0.5613  0.2968
  323MOL0     C43474   1.929   0.735   3.502  0.6615 -0.2933  0.4279
  323MOL0     C43475   1.899   0.682   3.372 -0.4542  0.3153 -0.2080
  323MOL0     C43476   1.880   0.764   3.261  0.0960  0.1954 -1.0097
  323MOL0     C43477   1.895   0.900   3.279  0.1244 -0.4356  0.2087
  323MOL0     O43478   1.898   0.988   3.182 -0.3759  1.1223  0.4059
  323MOL0     C43479   1.822   0.956   3.064  0.6961 -0.0614 -0.1484
  323MOL0     C43480   1.797   1.089   2.988 -0.4413  0.1457 -0.5535
  323MOL0     C43481   1.665   1.147   3.032 -0.5736  0.2030 -0.4740
  323MOL0     C43482   1.677   1.245   3.148  0.2905 -0.0183  0.0643
  323MOL0     C43483   1.547   1.333   3.157  0.4336 -0.2624  0.7501
  323MOL0     C43484   1.516   1.376   3.299 -0.3976  1.2176  0.3299
  323MOL0     C43485   1.368   1.377   3.340  0.1565 -0.5091  0.0835
  323MOL0     C43486   1.341   1.477   3.459  0.4578 -0.3034  0.1261
  323MOL0     N43487   1.323   1.618   3.418  0.5752  0.3764 -0.2243
  323MOL0     C43488   1.205   1.683   3.405 -0.2455 -0.3170  0.0270
  323MOL0     C43489   1.232   1.807   3.369  0.5971  0.0617  0.1648
  323MOL0     C43490   1.135   1.917   3.335  0.0637 -0.3309  0.6370
  323MOL0     C43491   1.081   1.912   3.194  0.7526 -0.4603  0.0191
  323MOL0     C43492   0.999   2.037   3.160  0.0655 -1.0755  0.5234
  323MOL0     C43493   0.945   2.028   3.017  0.0286 -0.8554 -0.9675
  323MOL0     O43494   0.864   2.147   2.961  1.4289  0.2425  0.2434
  323MOL0     C43495   0.945   2.250   2.916  0.1197 -0.4340 -0.2320
  323MOL0     C43496   0.964   2.275   2.780 -0.0700  0.5023 -0.0453
  323MOL0     C43497   1.048   2.381   2.727  0.3737  0.6537 -0.7988
  323MOL0     C43498   1.065   2.397   2.574 -0.3448  0.6075 -0.0227
  323MOL0     C43499   1.112   2.459   2.820  0.1989 -0.9750 -0.5816
  323MOL0     C43500   1.224   2.553   2.786 -1.0595  0.0037  0.2433
  323MOL0     O43501   1.315   2.584   2.884  0.0307 -0.1797  0.5295
  323MOL0     C43502   1.423   2.671   2.864 -0.0429  0.2717  0.0812
  323MOL0     C43503   1.506   2.675   2.748 -0.2716 -0.0780  0.3456
  323MOL0     C43504   1.628   2.750   2.749  0.7690  0.1911 -1.2430
  323MOL0     C43505   1.665   2.824   2.860  0.1572 -0.3014 -0.2012
  323MOL0     O43506   1.788   2.885   2.857 -0.0321  0.1437 -0.5752
  323MOL0     C43507   1.835   2.968   2.744 -0.3796  0.4370 -1.2349
  323MOL0     C43508   1.994   2.981   2.751  0.4443 -0.3414 -0.2547
  323MOL0     C43509   2.062   2.871   2.681 -0.0132  0.5317  0.1324
  323MOL0     C43510   2.206   2.908   2.652 -0.1260  0.3522  0.3726
  323MOL0     C43511   2.292   2.780   2.611  0.2422 -0.6345 -0.1531
  323MOL0     C43512   2.424   2.819   2.553  0.5771  0.2992 -0.7116
  323MOL0     C43513   2.513   2.922   2.631  0.3827 -0.8767  0.1592
  323MOL0     C43514   2.654   2.911   2.566  1.1170 -0.2451 -0.2957
  323MOL0    Cl43515   2.769   3.012   2.667 -0.4391 -0.1665 -0.1875
  323MOL0     C43516   1.584   2.823   2.974  0.3940 -0.3218  1.2027
  323MOL0     C43517   1.472   2.743   2.974  0.2004 -0.3302 -0.1246
  323MOL0     O43518   1.234   2.595   2.671 -0.9591  0.0912  0.4493
  323MOL0     C43519   1.081   2.443   2.959  0.5367  0.0167  0.3737
  323MOL0     C43520   1.002   2.343   3.007  0.4738  0.1222 -0.5517
  323MOL0     N43521   1.360   1.826   3.376 -0.7138  0.2080 -0.1335
  323MOL0     N43522   1.424   1.704   3.387 -0.8760  0.5786  0.1294
  323MOL0     C43523   1.914   0.957   3.407 -0.6296  0.7996  0.2028
  323MOL0     C43524   1.930   0.879   3.518  0.6892  0.1242  0.4754
  323MOL0     C43525   1.897   0.567   3.832 -0.3668  1.2990 -0.2602
  323MOL0     C43526   1.981   0.460   3.807 -0.8356 -0.7516  0.3526
  323MOL0     C43527   2.026   0.366   3.900  0.3070 -0.1379 -0.6594
  323MOL0     C43528   1.992   0.386   4.033 -0.0154 -0.3761  0.1746
  323MOL0     O43529   2.048   0.306   4.135  0.2347  0.3796  0.2480
  323MOL0     C43530   2.012   0.170   4.120 -0.5596 -0.8682  0.2202
  323MOL0     C43531   1.937   0.116   4.244 -0.3474 -0.2507  0.5138
  323MOL0     C43532   2.036   0.074   4.357 -0.3916 -0.8510  0.6765
  323MOL0     C43533   2.088   0.180   4.446 -0.4226  0.4771  0.5756
  323MOL0     C43534   2.139   0.142   4.573 -0.4236 -0.0096 -0.3164
  323MOL0     C43535   2.184   0.129   4.684  0.1689 -0.3148 -1.1023
  323MOL0     C43536   1.905   0.489   4.063  0.0654 -1.1243 -0.0503
  323MOL0     C43537   1.860   0.584   3.970  0.5201  0.2137  0.9829
  323MOL0     H43538   1.889   0.574   3.370  1.3378 -0.2210  4.9893
  323MOL0     H43539   1.853   0.712   3.169  0.4220 -3.0491  0.5607
  323MOL0     H43540   1.881   0.892   2.998 -1.8563 -3.9427  1.0128
  323MOL0     H43541   1.731   0.902   3.091  1.0778  0.1188  1.6029
  323MOL0     H43542   1.878   1.161   3.004 -1.1920  0.8052  0.3241
  323MOL0     H43543   1.781   1.077   2.880  0.1460  0.5908 -0.6973
  323MOL0     H43544   1.624   1.201   2.946 -0.9520  0.7203  0.0227
  323MOL0     H43545   1.596   1.068   3.061 -3.0701  1.7195 -1.8790
  323MOL0     H43546   1.694   1.192   3.242 -0.7312 -0.7996 -0.1775
  323MOL0     H43547   1.759   1.314   3.126  1.3346  0.4828  4.6174
  323MOL0     H43548   1.559   1.422   3.095 -0.3768  1.1896  2.6081
  323MOL0     H43549   1.462   1.277   3.117  2.2148 -0.8624 -2.4960
  323MOL0     H43550   1.574   1.312   3.366 -0.0423  1.0309 -0.1557
  323MOL0     H43551   1.552   1.479   3.305  2.6414  0.2083  1.1686
  323MOL0     H43552   1.308   1.408   3.254  1.9219  0.5996 -0.8040
  323MOL0     H43553   1.334   1.278   3.372  2.7852 -2.1242 -1.7965
  323MOL0     H43554   1.415   1.474   3.540 -0.4283  0.9262  1.0263
  323MOL0     H43555   1.245   1.437   3.494 -0.1417  1.0181  0.0645
  323MOL0     H43556   1.104   1.645   3.421  0.0228 -2.0934 -1.9576
  323MOL0     H43557   1.055   1.914   3.409 -0.3356 -1.3263  0.1905
  323MOL0     H43558   1.190   2.011   3.342 -2.1370  1.2105 -1.0904
  323MOL0     H43559   1.016   1.824   3.181  1.3887 -0.9288 -0.0650
  323MOL0     H43560   1.167   1.909   3.126  1.5958  4.5675  0.4984
  323MOL0     H43561   1.065   2.119   3.190 -1.9836 -0.2734  3.1551
  323MOL0     H43562   0.913   2.048   3.226 -0.9544 -0.1865 -0.9023
  323MOL0     H43563   0.876   1.944   3.021 -1.3095  0.2655  1.1083
  323MOL0     H43564   1.025   2.006   2.946  0.2113  1.8799 -1.7389
  323MOL0     H43565   0.910   2.206   2.715  0.6941  1.6598 -1.9982
  323MOL0     H43566   1.007   2.329   2.512 -3.2006  1.2522  1.7335
  323MOL0     H43567   1.017   2.491   2.544  0.3668  2.0906  2.9524
  323MOL0     H43568   1.169   2.392   2.540 -0.0659 -1.7218  0.9860
  323MOL0     H43569   1.481   2.626   2.654  2.5087  1.3849 -1.2871
  323MOL0     H43570   1.685   2.748   2.656  1.5292 -0.1966 -0.7789
  323MOL0     H43571   1.810   2.935   2.643  3.0999  1.1385 -2.4925
  323MOL0     H43572   1.807   3.073   2.753  1.4301  0.9328 -0.8924
  323MOL0     H43573   2.020   3.073   2.697  1.7301 -0.5260  0.0207
  323MOL0     H43574   2.020   2.993   2.856  0.0160  1.4594 -0.3249
  323MOL0     H43575   2.013   2.843   2.587 -2.3654 -1.0914  1.7006
  323MOL0     H43576   2.051   2.788   2.752  0.6500  2.6832  2.9210
  323MOL0     H43577   2.204   2.980   2.570  0.1990  1.8609  1.6485
  323MOL0     H43578   2.255   2.954   2.738 -0.4088 -3.4266  2.7791
  323MOL0     H43579   2.247   2.716   2.534  0.5447 -2.1616  0.8941
  323MOL0     H43580   2.312   2.713   2.695  0.4235  1.9782  2.0240
  323MOL0     H43581   2.475   2.724   2.533 -0.4070  0.1808 -2.8332
  323MOL0     H43582   2.395   2.867   2.459 -0.6909  0.3919 -0.2966
  323MOL0     H43583   2.524   2.890   2.735  4.1417  1.7551  0.7871
  323MOL0     H43584   2.464   3.019   2.641  0.0049 -1.1138  0.6046
  323MOL0     H43585   2.652   2.937   2.460 -0.1652  0.3534 -0.1463
  323MOL0     H43586   2.674   2.803   2.569 -0.8730 -0.7524 -2.2782
  323MOL0     H43587   1.615   2.879   3.062 -0.9180 -1.8970  2.7591
  323MOL0     H43588   1.423   2.744   3.071  1.4284  3.8502  0.6277
  323MOL0     H43589   1.128   2.505   3.035  0.8280  0.6852 -0.3301
  323MOL0     H43590   0.986   2.318   3.111  0.5748  4.5431  0.7065
  323MOL0     H43591   1.914   1.065   3.418  2.5302  0.8590  0.4962
  323MOL0     H43592   1.926   0.920   3.619 -0.0121  0.1443  0.4377
  323MOL0     H43593   2.012   0.443   3.704  1.0202  0.7381  0.5984
  323MOL0     H43594   2.081   0.280   3.863 -0.5840  0.0821 -2.5728
  323MOL0     H43595   1.950   0.166   4.029 -0.8476  4.0250 -0.0829
  323MOL0     H43596   2.100   0.107   4.109 -0.2087 -0.1636 -1.3948
  323MOL0     H43597   1.879   0.034   4.200  2.9778 -0.1516 -4.9481
  323MOL0     H43598   1.867   0.192   4.279  1.0615  1.5828 -0.4674
  323MOL0     H43599   2.121   0.026   4.309  2.1692  4.4668 -0.8566
  323MOL0     H43600   1.981  -0.001   4.415 -0.3826 -0.9689  0.5353
  323MOL0     H43601   2.007   0.254   4.453  0.0005  1.1659 -1.2620
  323MOL0     H43602   2.168   0.228   4.389 -1.5739 -2.0021 -3.4924
  323MOL0     H43603   2.239   0.112   4.774  0.3733  4.0399 -0.1612
  323MOL0     H43604   1.878   0.507   4.166 -0.0509 -0.4414 -0.1994
  323MOL0     H43605   1.812   0.680   3.983  1.5140  0.9192 -0.2716
  324MOL0     O43606  10.582   4.164   8.985 -0.0218  0.5573  0.3537
  324MOL0     C43607  10.570   4.274   9.027 -0.1914 -1.0123  0.6077
  324MOL0     O43608  10.453   4.337   9.057  0.0867  0.0431 -0.2461
  324MOL0     C43609  10.336   4.277   9.015  0.0725 -0.0370 -0.6419
  324MOL0     C43610  10.225   4.295   9.107  1.1130  0.5068  0.0891
  324MOL0     C43611  10.099   4.251   9.084 -0.1658 -0.2827 -0.3623
  324MOL0     C43612  10.061   4.196   8.957 -0.3946  0.0562 -0.9070
  324MOL0     O43613   9.936   4.156   8.944  0.0426 -0.4777 -0.3572
  324MOL0     C43614   9.900   4.107   8.813  0.1565 -0.2233 -0.2903
  324MOL0     C43615   9.746   4.105   8.813  0.2282 -0.5066  0.9662
  324MOL0     C43616   9.689   4.062   8.946  0.4740  0.3835  0.0792
  324MOL0     C43617   9.724   3.919   8.978  0.0249 -0.0846  0.6014
  324MOL0     C43618   9.659   3.881   9.109  0.0897 -0.2937 -0.0559
  324MOL0     C43619   9.708   3.958   9.227 -0.2720  0.3664  1.6669
  324MOL0     C43620   9.683   3.893   9.367  0.4310  0.6509  0.5898
  324MOL0     C43621   9.756   3.756   9.389 -0.0188 -0.6706 -0.7549
  324MOL0     N43622   9.706   3.684   9.513  0.3265 -1.2721 -0.7093
  324MOL0     C43623   9.728   3.738   9.644  0.2804 -0.0919 -0.3697
  324MOL0     C43624   9.664   3.661   9.731  0.4664 -0.6390  0.5204
  324MOL0     C43625   9.713   3.658   9.877  0.6968 -0.3352 -0.4330
  324MOL0     C43626   9.609   3.615   9.972 -0.0342 -0.5670 -0.7536
  324MOL0     C43627   9.473   3.696   9.965  0.2893 -0.9024  0.3187
  324MOL0     C43628   9.481   3.849  10.000 -0.1181  0.9474  0.2944
  324MOL0     O43629   9.544   3.923   9.893  0.8614 -0.2014  0.5013
  324MOL0     C43630   9.473   3.971   9.783  0.1833  0.4564  0.2823
  324MOL0     C43631   9.546   4.054   9.704  0.1733  0.3509 -0.3993
  324MOL0     C43632   9.494   4.111   9.581  1.0882  0.6683  0.5889
  324MOL0     C43633   9.558   4.223   9.509  1.5193  0.2954 -0.5114
  324MOL0     C43634   9.363   4.082   9.545 -0.5239  0.1536  0.2771
  324MOL0     C43635   9.294   4.117   9.416  0.0694 -0.1142 -0.4887
  324MOL0     O43636   9.174   4.176   9.430 -1.0378 -0.7730 -0.0068
  324MOL0     C43637   9.111   4.218   9.314  0.3539  0.5025 -0.2181
  324MOL0     C43638   9.164   4.260   9.192 -0.5577 -1.1713  0.4136
  324MOL0     C43639   9.079   4.307   9.096 -0.2486  0.2047  0.0701
  324MOL0     C43640   8.941   4.323   9.114  0.8160  0.4257 -0.1376
  324MOL0     O43641   8.864   4.378   9.010  0.3036  0.3768  0.6849
  324MOL0     C43642   8.732   4.323   8.986  0.3317 -0.0750 -0.0935
  324MOL0     C43643   8.661   4.390   8.866 -0.1413 -0.1352 -0.7069
  324MOL0     C43644   8.532   4.327   8.840  0.2067 -0.6910  0.3595
  324MOL0     C43645   8.463   4.389   8.712  0.0514  0.1424 -0.1067
  324MOL0     C43646   8.482   4.288   8.600  0.4218 -0.8725  1.0132
  324MOL0     C43647   8.376   4.319   8.495  0.4993 -0.1411  0.9842
  324MOL0     C43648   8.369   4.211   8.384 -0.7348 -0.0965  0.2103
  324MOL0     C43649   8.237   4.171   8.337  0.3363 -0.3354  0.6585
  324MOL0    Cl43650   8.169   4.314   8.255 -0.1700  0.0503 -0.0383
  324MOL0     C43651   8.881   4.281   9.230 -0.6216 -0.1844 -0.3861
  324MOL0     C43652   8.967   4.230   9.331  0.3844  0.3762  0.3232
  324MOL0     O43653   9.341   4.073   9.312 -0.3843 -0.4226 -0.2412
  324MOL0     C43654   9.291   3.986   9.628  0.4926  0.4730  0.9277
  324MOL0     C43655   9.337   3.945   9.751  0.1128 -0.3784  0.1083
  324MOL0     N43656   9.593   3.564   9.649 -0.1208  0.8190 -0.1344
  324MOL0     N43657   9.615   3.583   9.532  1.2115 -0.3562  0.5394
  324MOL0     C43658  10.168   4.174   8.867 -0.2028 -0.2913  0.0813
  324MOL0     C43659  10.304   4.207   8.898  0.2246 -0.1217  0.0548
  324MOL0     C43660  10.690   4.341   9.068 -0.7074 -0.4773  0.4638
  324MOL0     C43661  10.698   4.480   9.085 -0.2221 -0.5599 -1.1508
  324MOL0     C43662  10.817   4.545   9.120 -0.5926  0.5165 -0.3711
  324MOL0     C43663  10.946   4.474   9.129  0.1061  0.5176 -0.3092
  324MOL0     O43664  11.067   4.528   9.159 -0.1971  0.7815 -0.4509
  324MOL0     C43665  11.068   4.631   9.235 -1.1038 -0.2524 -0.1742
  324MOL0     C43666  11.018   4.587   9.377  0.3363 -0.2336 -0.2371
  324MOL0     C43667  11.098   4.477   9.432  1.0324  0.0020  0.6752
  324MOL0     C43668  11.082   4.448   9.582  0.8141  0.0821  0.7287
  324MOL0     C43669  10.947   4.382   9.597 -0.2889  0.6377 -0.4784
  324MOL0     C43670  10.845   4.324   9.602  0.5299  0.4128  0.2418
  324MOL0     C43671  10.936   4.331   9.120  0.5934  0.3129  0.3718
  324MOL0     C43672  10.815   4.266   9.084 -0.1911 -0.3899 -0.3157
  324MOL0     H43673  10.261   4.345   9.196  1.7969 -0.8887  0.6267
  324MOL0     H43674  10.019   4.258   9.157 -0.1688  1.0911 -0.4622
  324MOL0     H43675   9.931   4.184   8.741  2.0525  2.0159  2.6557
  324MOL0     H43676   9.943   4.007   8.805  2.3323  0.6214  0.3711
  324MOL0     H43677   9.693   4.199   8.797 -2.7303 -2.5736 -3.0702
  324MOL0     H43678   9.706   4.041   8.734  2.3723  1.1476 -1.6248
  324MOL0     H43679   9.707   4.133   9.026 -0.6068  0.1473  0.5500
  324MOL0     H43680   9.582   4.073   8.924  0.4516 -1.0361 -0.6633
  324MOL0     H43681   9.691   3.841   8.910 -0.0348 -0.2764  0.8485
  324MOL0     H43682   9.832   3.913   8.996  0.1146  0.1730  0.1407
  324MOL0     H43683   9.552   3.898   9.091  0.0829 -1.8367 -1.8446
  324MOL0     H43684   9.684   3.775   9.124  2.6203  0.4379  1.4567
  324MOL0     H43685   9.814   3.982   9.213 -0.2922 -0.9796 -1.4988
  324MOL0     H43686   9.645   4.048   9.229 -0.1154  0.4718  2.0924
  324MOL0     H43687   9.723   3.962   9.442  0.5500 -0.2856  1.3992
  324MOL0     H43688   9.575   3.877   9.374  0.3770 -0.6187 -1.9563
  324MOL0     H43689   9.863   3.771   9.407 -0.0855 -2.4786  1.7933
  324MOL0     H43690   9.751   3.689   9.303 -1.4598  0.5235 -1.6459
  324MOL0     H43691   9.796   3.818   9.672 -0.1233  0.4469 -0.9091
  324MOL0     H43692   9.798   3.590   9.890  0.0958 -0.8539  0.9427
  324MOL0     H43693   9.751   3.755   9.909 -1.5710  0.4958 -0.1092
  324MOL0     H43694   9.636   3.641  10.075 -0.8497  1.8964 -1.0779
  324MOL0     H43695   9.585   3.510   9.957 -0.4604 -0.3857 -1.3826
  324MOL0     H43696   9.410   3.661  10.047 -1.8641  1.3196 -0.2512
  324MOL0     H43697   9.424   3.674   9.869 -0.8805 -0.6494  0.8388
  324MOL0     H43698   9.539   3.857  10.092 -0.5926 -3.8863  1.2715
  324MOL0     H43699   9.379   3.879  10.027 -0.8678 -2.7643  2.3495
  324MOL0     H43700   9.643   4.079   9.746 -1.4075  4.6616  1.2808
  324MOL0     H43701   9.666   4.212   9.523  1.6100 -2.7630 -2.6997
  324MOL0     H43702   9.533   4.223   9.403  2.8512  2.4025 -0.8844
  324MOL0     H43703   9.527   4.320   9.549 -1.9999 -0.1244 -1.8211
  324MOL0     H43704   9.268   4.263   9.159 -1.9557 -0.7974 -4.9075
  324MOL0     H43705   9.111   4.349   9.001 -1.5870 -0.9902 -0.9681
  324MOL0     H43706   8.738   4.215   8.965  3.4009 -0.1875  0.8677
  324MOL0     H43707   8.669   4.332   9.074  0.6843 -0.1289  0.1657
  324MOL0     H43708   8.650   4.498   8.883 -2.0686 -0.4853  0.5840
  324MOL0     H43709   8.718   4.385   8.772 -1.0269  2.1048 -1.4351
  324MOL0     H43710   8.468   4.337   8.928 -0.6874 -1.2455 -0.2160
  324MOL0     H43711   8.554   4.220   8.833 -2.8640 -1.7767  3.8752
  324MOL0     H43712   8.359   4.401   8.741  0.2260  1.3307  0.0620
  324MOL0     H43713   8.517   4.482   8.693  0.7345  0.7713  3.9870
  324MOL0     H43714   8.468   4.183   8.629  3.3080 -2.1829 -1.6556
  324MOL0     H43715   8.579   4.302   8.550 -0.8643 -1.7150 -1.9458
  324MOL0     H43716   8.283   4.316   8.553 -0.7976 -2.9215 -1.0396
  324MOL0     H43717   8.399   4.416   8.449  0.0707 -2.0975 -3.9017
  324MOL0     H43718   8.433   4.127   8.413  2.1272  1.6788 -0.5858
  324MOL0     H43719   8.414   4.254   8.294 -3.2092 -0.4202 -1.2569
  324MOL0     H43720   8.165   4.151   8.417 -2.5463  0.9173 -1.4385
  324MOL0     H43721   8.237   4.082   8.273  0.6064  1.1386 -1.5116
  324MOL0     H43722   8.774   4.295   9.238 -0.4171  0.7528  0.9344
  324MOL0     H43723   8.928   4.199   9.428  0.6965 -1.4627 -0.0974
  324MOL0     H43724   9.193   3.951   9.597  1.6886 -2.3249 -0.0540
  324MOL0     H43725   9.276   3.873   9.806  1.0344 -2.8532 -1.8746
  324MOL0     H43726  10.137   4.132   8.772 -0.3350 -0.3206  0.1382
  324MOL0     H43727  10.375   4.186   8.818  0.9258  1.3910  0.2309
  324MOL0     H43728  10.615   4.550   9.081 -0.4316 -0.5250  1.7888
  324MOL0     H43729  10.823   4.653   9.128 -1.2605  0.5594 -0.3971
  324MOL0     H43730  11.174   4.656   9.247 -1.5266  2.3821 -1.1286
  324MOL0     H43731  11.029   4.730   9.208  2.5605  2.9592  4.5022
  324MOL0     H43732  10.912   4.567   9.362 -0.3553  1.6319  1.6933
  324MOL0     H43733  11.023   4.671   9.447  0.3528 -2.2054  2.2856
  324MOL0     H43734  11.204   4.504   9.422  1.1646 -0.3272  1.1362
  324MOL0     H43735  11.082   4.392   9.366 -1.9054  0.6194  0.4704
  324MOL0     H43736  11.094   4.540   9.640 -0.1199  1.2375 -0.8375
  324MOL0     H43737  11.160   4.376   9.608  2.1252  0.6368 -1.4274
  324MOL0     H43738  10.749   4.278   9.593  0.4370  0.9158 -1.8503
  324MOL0     H43739  11.019   4.265   9.141 -1.9767 -2.8985  1.3189
  324MOL0     H43740  10.821   4.158   9.082  0.5427 -0.3480 -1.2910
  325MOL0     O43741   9.644   1.839   5.460 -0.2192  0.3157  0.7821
  325MOL0     C43742   9.654   1.852   5.578  0.1701  0.5619 -0.1526
  325MOL0     O43743   9.766   1.878   5.643  0.2178  0.2660  0.4172
  325MOL0     C43744   9.888   1.875   5.581  0.0408 -0.2129 -0.5801
  325MOL0     C43745   9.951   2.001   5.582  0.5733  0.4599  0.1058
  325MOL0     C43746  10.070   2.024   5.519 -0.4710  0.2547  0.1459
  325MOL0     C43747  10.136   1.923   5.445  0.9064  0.5590  1.1996
  325MOL0     O43748  10.239   1.926   5.358 -0.4849  0.9243 -0.7016
  325MOL0     C43749  10.275   2.056   5.307  0.7678  1.3410  0.5308
  325MOL0     C43750  10.373   2.033   5.199 -0.7822  0.5724  0.9515
  325MOL0     C43751  10.361   1.913   5.106 -0.3104  0.1335  0.2175
  325MOL0     C43752  10.219   1.906   5.044  0.2473  0.4332 -0.2051
  325MOL0     C43753  10.196   1.791   4.937 -0.7836 -0.1626 -0.0433
  325MOL0     C43754  10.058   1.790   4.868  0.3590 -0.4120  0.2953
  325MOL0     C43755  10.021   1.685   4.758 -0.6667 -0.8500  0.0078
  325MOL0     C43756   9.871   1.704   4.726 -0.1223  0.0611 -0.0914
  325MOL0     N43757   9.841   1.818   4.638 -0.2042  0.0088  0.3200
  325MOL0     C43758   9.931   1.897   4.556 -0.1598  0.7491 -0.9217
  325MOL0     C43759   9.857   1.971   4.476  0.4510  1.2289  0.1943
  325MOL0     C43760   9.926   2.055   4.372 -0.1264 -0.0108  0.9980
  325MOL0     C43761   9.906   2.201   4.391 -0.3049 -1.0166 -0.1754
  325MOL0     C43762   9.946   2.290   4.278 -0.2453 -0.0434  0.3524
  325MOL0     C43763   9.922   2.437   4.301 -0.0179 -0.5652 -0.0111
  325MOL0     O43764   9.797   2.473   4.359  0.2598 -0.4640 -0.5195
  325MOL0     C43765   9.788   2.608   4.387 -0.5907  0.2542  0.1086
  325MOL0     C43766   9.675   2.648   4.456  0.0746 -0.3618 -0.2604
  325MOL0     C43767   9.638   2.789   4.471 -0.3025  0.2226  0.0855
  325MOL0     C43768   9.521   2.814   4.563 -0.7411 -0.1363  0.9081
  325MOL0     C43769   9.725   2.886   4.418  0.2527  0.9106  0.3242
  325MOL0     C43770   9.703   3.032   4.419  1.1497 -0.2598 -0.5212
  325MOL0     O43771   9.776   3.111   4.330  0.4035  0.9606 -0.1515
  325MOL0     C43772   9.792   3.243   4.351 -0.2698  0.8525  0.1669
  325MOL0     C43773   9.813   3.299   4.476  0.8398 -1.2918 -0.5312
  325MOL0     C43774   9.808   3.442   4.501 -0.1793  0.7804 -0.0306
  325MOL0     C43775   9.768   3.517   4.385 -0.0693 -1.1920  0.2938
  325MOL0     O43776   9.746   3.653   4.397  0.3675 -0.5834 -0.2413
  325MOL0     C43777   9.608   3.679   4.406 -0.1184 -0.8164  0.4199
  325MOL0     C43778   9.614   3.736   4.546  0.1486  0.6000 -0.8376
  325MOL0     C43779   9.488   3.750   4.622  0.7710 -0.3711 -0.6082
  325MOL0     C43780   9.406   3.860   4.553 -0.4309  0.2249  0.0943
  325MOL0     C43781   9.322   3.947   4.650 -0.2975 -0.5276 -0.6193
  325MOL0     C43782   9.286   4.090   4.609 -0.2470 -0.0059 -0.7338
  325MOL0     C43783   9.186   4.092   4.498  0.2241 -0.0867  0.0346
  325MOL0     C43784   9.113   4.225   4.474 -0.0044  0.8368 -0.5513
  325MOL0    Cl43785   9.046   4.256   4.312  0.2097  0.0276  0.0401
  325MOL0     C43786   9.741   3.456   4.264 -0.7656 -0.2906  0.5011
  325MOL0     C43787   9.758   3.322   4.241  0.0029  0.3692 -0.0321
  325MOL0     O43788   9.604   3.080   4.485  0.2307 -0.4602 -0.5740
  325MOL0     C43789   9.846   2.847   4.357 -0.8528 -0.3546  0.1109
  325MOL0     C43790   9.874   2.710   4.343 -0.7753 -0.6537 -0.7001
  325MOL0     N43791   9.734   1.967   4.534 -0.2154  0.5556  0.1444
  325MOL0     N43792   9.717   1.864   4.606  0.7098  0.6509  0.0727
  325MOL0     C43793  10.075   1.794   5.443  0.2639  0.1726 -0.1279
  325MOL0     C43794   9.952   1.775   5.499  0.7798 -0.0232  0.4989
  325MOL0     C43795   9.539   1.884   5.657 -0.3500  0.6945 -0.0011
  325MOL0     C43796   9.410   1.866   5.603  0.6968  0.3315  0.5884
  325MOL0     C43797   9.296   1.912   5.664  0.4557 -0.1196 -0.1707
  325MOL0     C43798   9.303   1.977   5.787 -0.1146 -0.1190  0.1730
  325MOL0     O43799   9.198   2.009   5.870 -0.0119 -0.0875 -0.4604
  325MOL0     C43800   9.061   1.976   5.844  0.4669 -0.1488 -0.1071
  325MOL0     C43801   8.985   2.105   5.779 -0.7354  0.1586  0.0605
  325MOL0     C43802   9.026   2.133   5.638 -0.4682  0.2478  0.2156
  325MOL0     C43803   8.936   2.248   5.570  0.5639  0.1228 -0.0602
  325MOL0     C43804   8.984   2.257   5.433  0.5636 -1.1624 -0.6940
  325MOL0     C43805   9.023   2.255   5.321 -0.6023 -0.4833  1.3446
  325MOL0     C43806   9.424   2.004   5.836 -0.9755  0.2622 -0.1708
  325MOL0     C43807   9.536   1.970   5.770 -0.2932 -0.6442 -0.0467
  325MOL0     H43808   9.899   2.086   5.625 -1.4664 -0.7495  0.1445
  325MOL0     H43809  10.114   2.122   5.504 -1.6799  1.2664  2.6302
  325MOL0     H43810  10.196   2.112   5.256 -0.1775 -0.2398  0.2018
  325MOL0     H43811  10.329   2.117   5.381  0.4460  0.3970  1.5721
  325MOL0     H43812  10.377   2.124   5.138 -1.8107 -0.6065 -0.9981
  325MOL0     H43813  10.470   2.023   5.248 -0.2177  1.9000  0.1360
  325MOL0     H43814  10.444   1.915   5.034  1.2863  1.6239  1.9915
  325MOL0     H43815  10.372   1.819   5.161 -2.1667 -0.9324 -1.1281
  325MOL0     H43816  10.135   1.893   5.112 -0.5023 -0.4380 -1.2683
  325MOL0     H43817  10.205   2.002   4.993 -0.7888  1.6589  2.2669
  325MOL0     H43818  10.266   1.810   4.855 -0.1245  0.1686  0.5878
  325MOL0     H43819  10.221   1.700   4.992  0.3962  2.1028  3.5982
  325MOL0     H43820   9.988   1.768   4.949  0.3328  0.8351  0.6298
  325MOL0     H43821  10.040   1.890   4.827 -0.6623  0.0954  1.8657
  325MOL0     H43822  10.088   1.689   4.672 -0.0693 -0.0924  0.4904
  325MOL0     H43823  10.031   1.583   4.798 -1.4032  0.1531  3.0500
  325MOL0     H43824   9.826   1.714   4.825  3.4685  1.6169  1.5743
  325MOL0     H43825   9.829   1.612   4.686 -2.5469  0.0427  2.2471
  325MOL0     H43826  10.037   1.877   4.552 -0.3550 -0.8353  0.4581
  325MOL0     H43827  10.032   2.031   4.357 -0.3779 -0.2061 -0.7838
  325MOL0     H43828   9.878   2.024   4.278 -2.4033  0.4295  1.9501
  325MOL0     H43829   9.966   2.227   4.479  1.8917 -0.2476 -1.8083
  325MOL0     H43830   9.799   2.216   4.408 -0.4365 -3.1875  1.1911
  325MOL0     H43831   9.905   2.251   4.184 -0.9934 -0.4664  0.8481
  325MOL0     H43832  10.054   2.288   4.259 -0.2403 -1.4058  0.4207
  325MOL0     H43833   9.915   2.478   4.200 -0.5458  0.3117  0.3698
  325MOL0     H43834   9.997   2.481   4.367  1.5020 -0.5818 -1.6410
  325MOL0     H43835   9.600   2.580   4.493  0.1750  0.4969  1.6391
  325MOL0     H43836   9.444   2.738   4.548  1.5644 -2.3202 -0.5718
  325MOL0     H43837   9.552   2.839   4.665 -2.2102  1.6325  0.9820
  325MOL0     H43838   9.479   2.908   4.526 -1.3598 -0.0209  1.8759
  325MOL0     H43839   9.832   3.231   4.559  0.7236  0.8948  1.3902
  325MOL0     H43840   9.825   3.487   4.598 -0.7105 -0.1783  0.5293
  325MOL0     H43841   9.590   3.760   4.335  4.1773  0.9020  1.0084
  325MOL0     H43842   9.551   3.586   4.399 -1.8079  0.1886  0.0794
  325MOL0     H43843   9.664   3.661   4.607  2.9033  3.0429  0.1269
  325MOL0     H43844   9.680   3.823   4.542  0.2759  0.5608  0.2349
  325MOL0     H43845   9.498   3.769   4.730  1.3932  0.4708 -0.7999
  325MOL0     H43846   9.439   3.653   4.614  0.4540 -0.3349  0.6602
  325MOL0     H43847   9.468   3.924   4.489  0.3361 -1.5850 -1.0610
  325MOL0     H43848   9.339   3.804   4.488 -1.3873  0.9593  0.4164
  325MOL0     H43849   9.366   3.952   4.750 -0.3846  0.6512 -0.6294
  325MOL0     H43850   9.221   3.906   4.658 -0.4528  0.0837  0.9323
  325MOL0     H43851   9.244   4.132   4.701  0.8516 -2.6360  1.0614
  325MOL0     H43852   9.377   4.145   4.582  3.1887 -3.1774  3.0549
  325MOL0     H43853   9.102   4.024   4.511 -1.4513  2.0124  0.8515
  325MOL0     H43854   9.234   4.055   4.407  0.9757 -1.2225  0.8716
  325MOL0     H43855   9.187   4.303   4.494 -1.0348  1.8555 -0.6499
  325MOL0     H43856   9.035   4.236   4.550  1.6555  1.8821  1.0963
  325MOL0     H43857   9.717   3.520   4.180  1.6064  1.9162  1.3880
  325MOL0     H43858   9.743   3.276   4.144  1.5302 -0.6670  0.2002
  325MOL0     H43859   9.914   2.920   4.314 -0.2583 -1.2924 -0.5519
  325MOL0     H43860   9.958   2.685   4.279 -0.3213 -3.0395  0.6811
  325MOL0     H43861  10.125   1.723   5.377 -0.2009  0.2538 -0.5752
  325MOL0     H43862   9.900   1.681   5.485  0.6193  0.2987 -1.3060
  325MOL0     H43863   9.408   1.817   5.506 -1.2547  0.9404  0.2768
  325MOL0     H43864   9.203   1.881   5.618  2.3294 -1.8874 -3.0944
  325MOL0     H43865   9.046   1.890   5.779  0.1788  0.6359 -1.1025
  325MOL0     H43866   9.005   1.948   5.933 -0.8617 -0.4039 -0.9940
  325MOL0     H43867   9.015   2.189   5.843 -0.3494  0.3467 -0.3630
  325MOL0     H43868   8.877   2.093   5.790 -0.8180  0.5057 -0.3418
  325MOL0     H43869   9.021   2.042   5.578  2.7279 -1.0807  1.7668
  325MOL0     H43870   9.131   2.160   5.632 -0.6011  0.5646 -1.0557
  325MOL0     H43871   8.961   2.346   5.611 -2.3955  2.4097 -3.0759
  325MOL0     H43872   8.830   2.225   5.584  0.6076 -0.3761 -0.5025
  325MOL0     H43873   9.069   2.265   5.225 -1.5826  1.0071  0.9945
  325MOL0     H43874   9.430   2.055   5.931  1.3886 -1.1346  0.5119
  325MOL0     H43875   9.632   2.003   5.811  1.2027 -1.1649 -2.8898
  326MOL0     O43876   9.373   2.209   9.075  0.4732 -0.8369  0.4366
  326MOL0     C43877   9.315   2.165   8.979 -0.7293  1.0256 -0.3522
  326MOL0     O43878   9.319   2.214   8.851 -0.3481  0.3385 -0.1753
  326MOL0     C43879   9.381   2.335   8.835  0.1972  0.5162 -1.2116
  326MOL0     C43880   9.292   2.431   8.786  0.1235  0.9520 -0.7583
  326MOL0     C43881   9.352   2.549   8.748  0.4558 -0.0735 -0.6490
  326MOL0     C43882   9.490   2.587   8.769  0.4735  0.6757 -0.7934
  326MOL0     O43883   9.519   2.716   8.739 -0.3936 -0.5898  0.1367
  326MOL0     C43884   9.653   2.753   8.701  0.6652 -0.0495 -0.6432
  326MOL0     C43885   9.668   2.905   8.707 -0.3698 -0.1735  0.3049
  326MOL0     C43886   9.642   2.971   8.841  0.7962 -0.6426  0.4154
  326MOL0     C43887   9.646   3.122   8.832  1.0143  0.0264  0.1585
  326MOL0     C43888   9.628   3.184   8.970  0.2057  0.3407  1.0717
  326MOL0     C43889   9.606   3.342   8.951 -0.0192  0.0535  0.5400
  326MOL0     C43890   9.662   3.430   9.068  0.1708  0.5904 -0.5663
  326MOL0     C43891   9.816   3.403   9.098 -0.3214  0.4978  0.2604
  326MOL0     N43892   9.891   3.523   9.139  0.0068  0.5025  0.7166
  326MOL0     C43893   9.928   3.624   9.046  0.3259  0.1624  0.4622
  326MOL0     C43894  10.006   3.710   9.116  0.3424  0.0038 -0.3394
  326MOL0     C43895  10.091   3.830   9.079  0.3142  0.4908  0.3451
  326MOL0     C43896  10.244   3.781   9.070  0.0682  0.0799  0.1797
  326MOL0     C43897  10.272   3.665   8.984 -1.0785  0.4777 -0.5965
  326MOL0     C43898  10.424   3.663   8.941 -0.9504  0.5117 -0.3156
  326MOL0     O43899  10.498   3.576   9.028 -0.7262 -0.5765  0.3825
  326MOL0     C43900  10.497   3.439   9.010 -0.4914  0.3236  0.0492
  326MOL0     C43901  10.536   3.353   9.111  0.1394 -1.0430 -0.6170
  326MOL0     C43902  10.536   3.218   9.113 -0.0270  0.4522  0.3371
  326MOL0     C43903  10.598   3.159   9.241 -0.0735 -0.3530  0.0898
  326MOL0     C43904  10.484   3.144   9.006 -0.3224  0.4959 -0.0957
  326MOL0     C43905  10.485   2.999   8.980 -0.5019 -0.6206  0.4406
  326MOL0     O43906  10.508   2.921   9.087  0.6762  0.8625  0.4467
  326MOL0     C43907  10.511   2.785   9.067 -0.1044  0.0260 -0.5912
  326MOL0     C43908  10.388   2.718   9.051  0.0632  0.4706 -0.1932
  326MOL0     C43909  10.390   2.575   9.045 -0.3059  0.5664 -0.6691
  326MOL0     C43910  10.500   2.491   9.060  0.2109 -0.9143 -0.2018
  326MOL0     O43911  10.483   2.362   9.050  0.7034 -0.7456 -0.8334
  326MOL0     C43912  10.588   2.272   9.060  0.2021 -0.0734  1.6036
  326MOL0     C43913  10.670   2.254   9.197  0.8346  0.0212  0.2337
  326MOL0     C43914  10.579   2.256   9.321  0.3863  0.0422  0.5435
  326MOL0     C43915  10.649   2.197   9.434 -0.5688 -0.2598  1.0415
  326MOL0     C43916  10.591   2.234   9.569  0.5478  0.5354 -0.6044
  326MOL0     C43917  10.647   2.376   9.631  0.8198  0.1004  0.5663
  326MOL0     C43918  10.534   2.472   9.615  0.8255 -0.1150  0.0766
  326MOL0     C43919  10.589   2.617   9.601 -0.1204 -0.6294 -0.6598
  326MOL0    Cl43920  10.676   2.653   9.456  0.1282 -0.5376  0.3595
  326MOL0     C43921  10.619   2.560   9.078 -0.0599  0.2569  0.3870
  326MOL0     C43922  10.624   2.706   9.080  0.1480  0.4386 -0.7666
  326MOL0     O43923  10.477   2.959   8.866  0.2026 -0.6120 -0.3478
  326MOL0     C43924  10.442   3.224   8.897  0.2552  0.7711 -1.3767
  326MOL0     C43925  10.451   3.361   8.900  0.2105 -0.5677 -0.4137
  326MOL0     N43926  10.042   3.648   9.235 -0.1765 -0.6655 -1.1658
  326MOL0     N43927   9.963   3.543   9.252 -0.5384  0.0350  0.0034
  326MOL0     C43928   9.584   2.480   8.806  0.1911 -0.0361  0.6834
  326MOL0     C43929   9.525   2.357   8.839  0.1716  0.2992  0.4714
  326MOL0     C43930   9.217   2.055   9.007  0.1035  0.0107 -0.2399
  326MOL0     C43931   9.191   2.020   9.140  0.4017 -0.6823  1.1717
  326MOL0     C43932   9.103   1.914   9.161  0.2387 -0.1834 -0.4127
  326MOL0     C43933   9.031   1.849   9.064 -0.3949  0.6542  0.4894
  326MOL0     O43934   8.928   1.768   9.098  0.2736 -0.4638  0.5750
  326MOL0     C43935   8.876   1.672   9.014  0.3024  0.3989 -0.3202
  326MOL0     C43936   8.740   1.639   9.073 -0.1410 -0.0240 -0.5516
  326MOL0     C43937   8.672   1.538   8.982 -0.1280  0.3518  0.1081
  326MOL0     C43938   8.562   1.473   9.062 -1.0930 -0.4095 -0.2413
  326MOL0     C43939   8.611   1.364   9.149  0.6224 -0.6117  0.6476
  326MOL0     C43940   8.634   1.288   9.235  0.2389  0.2633  0.2748
  326MOL0     C43941   9.062   1.887   8.935  0.9115 -0.5293  0.0079
  326MOL0     C43942   9.143   1.996   8.908 -0.1247 -0.1309 -0.0979
  326MOL0     H43943   9.187   2.409   8.771  0.1931 -0.1472  0.2187
  326MOL0     H43944   9.278   2.613   8.701 -0.2880  0.0003  0.5714
  326MOL0     H43945   9.732   2.702   8.757 -0.1026 -2.7171 -1.8189
  326MOL0     H43946   9.669   2.729   8.595  2.9210 -0.1090 -0.3288
  326MOL0     H43947   9.765   2.935   8.664 -0.8447 -1.4347 -1.8340
  326MOL0     H43948   9.592   2.938   8.635 -0.6744  0.1183  0.7538
  326MOL0     H43949   9.549   2.932   8.884  0.3526  0.5160  0.5458
  326MOL0     H43950   9.712   2.941   8.919  1.4396 -0.4224 -0.0730
  326MOL0     H43951   9.744   3.162   8.805  1.1814  1.0665  2.0884
  326MOL0     H43952   9.563   3.160   8.771 -0.9225 -0.0932  2.5621
  326MOL0     H43953   9.548   3.142   9.032  0.9305  1.4349  2.8079
  326MOL0     H43954   9.720   3.171   9.027  0.2461 -1.5011  0.6617
  326MOL0     H43955   9.652   3.374   8.857 -4.4853 -0.6017 -2.1871
  326MOL0     H43956   9.502   3.374   8.940 -0.8991 -2.8997 -0.7476
  326MOL0     H43957   9.644   3.537   9.051  1.7064  0.7953 -1.0626
  326MOL0     H43958   9.610   3.403   9.160  3.0295 -0.5565  0.8333
  326MOL0     H43959   9.866   3.355   9.013  0.6744 -0.6091  1.4309
  326MOL0     H43960   9.816   3.344   9.190  2.1337  0.9388  0.5990
  326MOL0     H43961   9.899   3.646   8.943  1.1805  0.0752  0.1944
  326MOL0     H43962  10.064   3.859   8.977 -1.6643 -0.1667  0.6341
  326MOL0     H43963  10.081   3.913   9.149 -2.4161  0.7938 -0.2960
  326MOL0     H43964  10.276   3.750   9.170  0.0401 -1.2684 -0.2048
  326MOL0     H43965  10.297   3.865   9.025  0.9824 -0.2918  0.5393
  326MOL0     H43966  10.207   3.686   8.899 -2.2639 -2.6583 -0.5822
  326MOL0     H43967  10.245   3.566   9.023  1.4200 -1.1708 -2.6866
  326MOL0     H43968  10.465   3.764   8.946  0.4572 -0.0950  0.7844
  326MOL0     H43969  10.438   3.635   8.836  0.7202 -0.3758  0.1094
  326MOL0     H43970  10.565   3.414   9.196 -0.9511 -2.5401  0.8756
  326MOL0     H43971  10.564   3.196   9.339  0.7649 -0.7434  0.5398
  326MOL0     H43972  10.600   3.050   9.240 -0.3573 -0.4325 -3.6161
  326MOL0     H43973  10.704   3.184   9.242 -0.0075 -0.6397  0.1612
  326MOL0     H43974  10.299   2.779   9.044  0.0560  0.6151  0.9604
  326MOL0     H43975  10.300   2.517   9.027  1.1578 -1.6930 -1.0445
  326MOL0     H43976  10.534   2.177   9.051 -2.8678  1.6554  0.0830
  326MOL0     H43977  10.652   2.294   8.974 -2.3101  3.4933  0.4359
  326MOL0     H43978  10.718   2.156   9.189 -0.5582 -0.6921  0.2352
  326MOL0     H43979  10.745   2.332   9.210  0.0381  0.5407  1.8984
  326MOL0     H43980  10.485   2.204   9.300  1.4229 -0.7052 -2.8805
  326MOL0     H43981  10.551   2.360   9.339 -4.3915 -0.8806 -0.0436
  326MOL0     H43982  10.631   2.090   9.425 -0.2303 -0.1913 -0.9839
  326MOL0     H43983  10.756   2.218   9.427 -0.6007 -0.1461  0.8947
  326MOL0     H43984  10.624   2.159   9.641 -1.1296  0.6260  0.2967
  326MOL0     H43985  10.482   2.231   9.577  0.6478 -0.1075  0.7736
  326MOL0     H43986  10.659   2.362   9.739 -1.7135  1.4834  1.1120
  326MOL0     H43987  10.731   2.403   9.566 -1.5631  1.1638 -2.3224
  326MOL0     H43988  10.459   2.466   9.694 -2.1018 -0.2050 -2.5116
  326MOL0     H43989  10.470   2.455   9.527  0.0310  1.7807  0.2549
  326MOL0     H43990  10.657   2.629   9.685 -1.5573  0.9695  0.3467
  326MOL0     H43991  10.502   2.677   9.630  0.5300 -1.4108  3.5067
  326MOL0     H43992  10.711   2.503   9.080 -0.3330 -0.1826  1.5806
  326MOL0     H43993  10.714   2.756   9.112 -1.6577  2.0953  2.2193
  326MOL0     H43994  10.398   3.178   8.809 -1.8373  0.2033 -0.1218
  326MOL0     H43995  10.418   3.411   8.809 -0.9961 -1.3868 -0.4486
  326MOL0     H43996   9.687   2.509   8.825  0.9797 -2.2988  0.1160
  326MOL0     H43997   9.585   2.275   8.877 -0.0618 -1.6413 -2.9272
  326MOL0     H43998   9.238   2.066   9.227 -2.1563  1.3246  1.6074
  326MOL0     H43999   9.081   1.879   9.261  0.1168  1.8095  0.3082
  326MOL0     H44000   8.878   1.701   8.909  0.8663  1.0374 -0.1371
  326MOL0     H44001   8.933   1.580   9.029 -0.2543 -0.2656 -2.0118
  326MOL0     H44002   8.690   1.735   9.085 -3.1990 -1.4620 -0.6344
  326MOL0     H44003   8.753   1.588   9.169  1.6415  0.2741 -0.6079
  326MOL0     H44004   8.735   1.457   8.947 -1.7611 -1.5455  1.3373
  326MOL0     H44005   8.631   1.585   8.892 -3.1138 -1.9556  0.0801
  326MOL0     H44006   8.485   1.430   8.997 -1.3999 -1.1250  0.5682
  326MOL0     H44007   8.531   1.547   9.137 -1.0916 -1.9873  1.3755
  326MOL0     H44008   8.683   1.232   9.312  0.9868 -1.4383 -1.3278
  326MOL0     H44009   9.021   1.833   8.850  1.0603 -3.6978  1.7921
  326MOL0     H44010   9.161   2.032   8.807  2.1794  1.3808  0.7887
  327MOL0     O44011   3.271   6.439   9.786 -0.0867  0.1499  0.7258
  327MOL0     C44012   3.214   6.335   9.820 -0.4070  0.0387 -0.0702
  327MOL0     O44013   3.084   6.330   9.865 -0.1859  0.6569 -1.2604
  327MOL0     C44014   3.020   6.451   9.891 -0.3883  1.0374  0.6053
  327MOL0     C44015   2.915   6.493   9.809 -0.3601  0.7292  0.1281
  327MOL0     C44016   2.841   6.615   9.836  0.1630  0.1848  0.4290
  327MOL0     C44017   2.863   6.687   9.951 -0.6093 -0.3256 -0.4128
  327MOL0     O44018   2.788   6.790  10.003  0.1244 -0.3781  0.3901
  327MOL0     C44019   2.702   6.866   9.918  0.4071 -0.3422 -0.3735
  327MOL0     C44020   2.613   6.969   9.985 -0.1862  0.2559  0.3143
  327MOL0     C44021   2.660   7.025  10.123 -0.6124  0.7673 -0.8613
  327MOL0     C44022   2.563   7.124  10.190 -0.5101 -0.2314 -0.9749
  327MOL0     C44023   2.610   7.187  10.321 -0.1876 -0.2557  0.4989
  327MOL0     C44024   2.737   7.270  10.315  0.1476 -0.5296  0.3189
  327MOL0     C44025   2.784   7.347  10.447 -0.4449  0.7439  0.1801
  327MOL0     C44026   2.691   7.459  10.492  0.2521  0.9584  0.4281
  327MOL0     N44027   2.687   7.581  10.402 -0.2580  0.6896  0.4770
  327MOL0     C44028   2.782   7.685  10.392  0.5469 -0.0820  0.6054
  327MOL0     C44029   2.721   7.769  10.310  0.5204 -0.0502 -0.0600
  327MOL0     C44030   2.772   7.906  10.255  0.3325  0.8853 -0.4245
  327MOL0     C44031   2.672   8.016  10.298 -1.4640  0.0209 -0.6472
  327MOL0     C44032   2.715   8.163  10.264 -0.1872 -0.3372  0.1839
  327MOL0     C44033   2.833   8.222  10.344 -0.8041  1.1766  0.7155
  327MOL0     O44034   2.862   8.354  10.292 -0.5087 -0.2363  0.4251
  327MOL0     C44035   2.900   8.448  10.384 -0.9532  0.0721  0.8980
  327MOL0     C44036   2.983   8.424  10.488 -0.4477 -0.5180  1.0613
  327MOL0     C44037   3.020   8.519  10.584  0.0559  0.8289 -0.6750
  327MOL0     C44038   3.129   8.487  10.679  0.6300  1.3895 -0.3871
  327MOL0     C44039   2.961   8.651  10.575  0.2177  0.2335 -1.0418
  327MOL0     C44040   2.982   8.765  10.668  0.3536 -0.8532  0.3633
  327MOL0     O44041   3.035   8.746  10.789 -0.4872  0.7460  0.3117
  327MOL0     C44042   3.046   8.840  10.888  0.2058  0.2552  0.0202
  327MOL0     C44043   3.020   8.982  10.886 -0.1776  0.6030  0.2480
  327MOL0     C44044   3.050   9.062  10.995  0.2957  0.2075 -0.7271
  327MOL0     C44045   3.086   8.998  11.113  0.5586  0.1707 -0.6234
  327MOL0     O44046   3.117   9.068  11.231 -0.1539 -0.1989  0.6169
  327MOL0     C44047   3.174   9.194  11.219  0.3294 -0.2557 -0.5903
  327MOL0     C44048   3.247   9.223  11.348 -0.4839  0.6646  0.4558
  327MOL0     C44049   3.221   9.367  11.404 -0.6012  0.3120 -0.4355
  327MOL0     C44050   3.287   9.471  11.302 -0.0872 -0.2719 -0.1781
  327MOL0     C44051   3.262   9.612  11.346  0.1292  0.1118  0.9593
  327MOL0     C44052   3.327   9.641  11.484  0.4571 -0.4769  0.2199
  327MOL0     C44053   3.476   9.616  11.494 -0.5639 -0.0008 -0.9675
  327MOL0     C44054   3.535   9.673  11.623 -0.0793 -0.2071 -0.4991
  327MOL0    Cl44055   3.492   9.841  11.645  0.1791 -0.0617 -0.4249
  327MOL0     C44056   3.116   8.859  11.121 -0.7696  0.2093  0.8517
  327MOL0     C44057   3.098   8.785  11.005  0.1603  0.0386  0.7687
  327MOL0     O44058   2.950   8.874  10.622  0.1511  0.0078 -0.5012
  327MOL0     C44059   2.872   8.671  10.458 -0.3252  0.2340  0.2233
  327MOL0     C44060   2.836   8.569  10.373 -0.1415  0.5004  0.5384
  327MOL0     N44061   2.601   7.720  10.269  0.5509 -0.2781  0.0975
  327MOL0     N44062   2.585   7.602  10.316 -0.4704 -0.2531  0.3206
  327MOL0     C44063   2.972   6.636  10.037 -0.4520  0.0355 -0.1886
  327MOL0     C44064   3.046   6.525   9.999 -0.0279 -0.3641  0.1847
  327MOL0     C44065   3.302   6.213   9.817  1.0744  0.5106  0.3327
  327MOL0     C44066   3.238   6.085   9.795 -0.6600 -0.1918 -0.2004
  327MOL0     C44067   3.317   5.962   9.809  0.2440 -0.4243  0.1337
  327MOL0     C44068   3.467   5.970   9.825 -0.1136 -2.0126 -0.1771
  327MOL0     O44069   3.564   5.870   9.845 -0.4768 -0.8553 -0.5555
  327MOL0     C44070   3.540   5.739   9.792  0.2581 -0.4152  0.6020
  327MOL0     C44071   3.531   5.745   9.641 -0.0173 -0.8140  0.3373
  327MOL0     C44072   3.546   5.610   9.572  0.3321  0.2883 -0.0212
  327MOL0     C44073   3.506   5.626   9.427 -0.0757 -0.1381 -0.4956
  327MOL0     C44074   3.581   5.730   9.352  0.4228 -0.1954  1.0427
  327MOL0     C44075   3.637   5.792   9.271 -1.0122  0.1337 -0.5272
  327MOL0     C44076   3.513   6.101   9.842  0.5734 -0.6746  0.3530
  327MOL0     C44077   3.436   6.214   9.842  0.5361 -0.2199  0.5165
  327MOL0     H44078   2.891   6.431   9.723  3.3501  0.5784 -0.9608
  327MOL0     H44079   2.762   6.657   9.775 -0.6125 -0.1682  1.1704
  327MOL0     H44080   2.761   6.917   9.842  0.7261 -1.5729 -0.9663
  327MOL0     H44081   2.626   6.796   9.883 -1.0744 -0.0797  2.0522
  327MOL0     H44082   2.616   7.053   9.914 -1.8825  0.2832  0.2347
  327MOL0     H44083   2.513   6.925   9.982 -1.7073  3.3895  0.8007
  327MOL0     H44084   2.676   6.948  10.199 -4.8980 -0.0751 -0.5881
  327MOL0     H44085   2.749   7.087  10.106 -0.2597  1.3156  2.4572
  327MOL0     H44086   2.536   7.205  10.123 -0.0618 -0.2912 -1.2311
  327MOL0     H44087   2.473   7.068  10.217 -0.3128 -0.8435 -1.5468
  327MOL0     H44088   2.532   7.248  10.366 -2.2595 -2.0425 -0.4718
  327MOL0     H44089   2.631   7.115  10.401  1.5448 -1.3242 -0.8245
  327MOL0     H44090   2.819   7.205  10.284  1.2944  0.7164  0.6629
  327MOL0     H44091   2.715   7.341  10.235  0.5656  1.8944  2.2596
  327MOL0     H44092   2.790   7.269  10.524 -0.5282  0.7347  0.1770
  327MOL0     H44093   2.889   7.376  10.434  0.8295 -3.7376 -1.4602
  327MOL0     H44094   2.723   7.496  10.590  1.4535  2.0546 -0.3333
  327MOL0     H44095   2.595   7.411  10.514  0.8795  0.5227  2.4453
  327MOL0     H44096   2.883   7.683  10.433  0.2696 -2.3578  1.3459
  327MOL0     H44097   2.876   7.908  10.290  0.1411  0.1447  0.1884
  327MOL0     H44098   2.766   7.913  10.146 -0.0190  0.6485 -0.4188
  327MOL0     H44099   2.651   8.007  10.405 -3.1041 -1.5781 -1.0509
  327MOL0     H44100   2.581   7.990  10.242 -1.5559  0.3576 -0.6535
  327MOL0     H44101   2.628   8.220  10.296  0.5842  0.7505  0.4217
  327MOL0     H44102   2.726   8.168  10.155  1.7837 -2.2160  0.2336
  327MOL0     H44103   2.916   8.150  10.345 -1.8919 -0.1519 -0.5081
  327MOL0     H44104   2.807   8.223  10.450  2.5103  1.3779  1.6325
  327MOL0     H44105   3.031   8.330  10.511 -1.7741 -1.3278  0.6254
  327MOL0     H44106   3.162   8.383  10.680 -2.2450  0.3820  0.0777
  327MOL0     H44107   3.218   8.543  10.650  1.0054  1.2229  0.4420
  327MOL0     H44108   3.108   8.514  10.783  2.5427 -0.5021  0.5614
  327MOL0     H44109   2.979   9.031  10.798 -2.3738  0.0223  0.8882
  327MOL0     H44110   3.028   9.167  11.013  1.8439  0.2963  0.8999
  327MOL0     H44111   3.246   9.214  11.139  3.0422  1.9884  2.1290
  327MOL0     H44112   3.089   9.262  11.206  2.3226  2.2529 -1.3781
  327MOL0     H44113   3.211   9.157  11.427 -2.6071 -0.1143 -1.0747
  327MOL0     H44114   3.353   9.206  11.323 -0.3509 -0.1343  1.4618
  327MOL0     H44115   3.262   9.374  11.505 -0.9486 -0.6666 -0.2164
  327MOL0     H44116   3.114   9.386  11.414 -0.9809 -1.9662  0.4351
  327MOL0     H44117   3.393   9.447  11.296  0.4785  1.7459  0.8063
  327MOL0     H44118   3.254   9.469  11.198 -3.4415  1.4632  0.6758
  327MOL0     H44119   3.157   9.637  11.361 -0.1923 -1.6383  1.9084
  327MOL0     H44120   3.306   9.678  11.271 -2.7559  2.6795  1.3529
  327MOL0     H44121   3.313   9.747  11.505 -0.0373 -0.8084  1.6975
  327MOL0     H44122   3.267   9.583  11.556 -2.4746 -1.5586 -2.8112
  327MOL0     H44123   3.519   9.660  11.404  0.1357  1.5628  0.0736
  327MOL0     H44124   3.492   9.508  11.493 -0.8582 -0.0379 -1.5467
  327MOL0     H44125   3.644   9.670  11.613 -0.1255  0.4777 -1.3420
  327MOL0     H44126   3.500   9.612  11.707  1.1281 -0.0774  0.1262
  327MOL0     H44127   3.162   8.828  11.214  1.9048  1.2257 -0.0597
  327MOL0     H44128   3.113   8.678  10.994 -4.7612 -0.8451  0.1023
  327MOL0     H44129   2.820   8.764  10.438  0.4195  0.2325 -1.9898
  327MOL0     H44130   2.776   8.588  10.284  2.0726 -0.4275 -1.2683
  327MOL0     H44131   3.000   6.689  10.127 -1.0903  0.8286 -0.4390
  327MOL0     H44132   3.131   6.497  10.061  0.1275 -0.9695 -0.2975
  327MOL0     H44133   3.131   6.079   9.779 -0.7269  1.1160 -0.3129
  327MOL0     H44134   3.260   5.872   9.786  3.0971 -1.4914 -3.9951
  327MOL0     H44135   3.621   5.675   9.828  0.0162 -0.8597  0.3678
  327MOL0     H44136   3.443   5.707   9.831  1.0764 -0.3992  2.7685
  327MOL0     H44137   3.597   5.823   9.602 -1.3449  1.6961  2.7447
  327MOL0     H44138   3.436   5.791   9.612  1.1546  1.6288  0.0836
  327MOL0     H44139   3.478   5.546   9.629  2.8420 -0.8033  1.8838
  327MOL0     H44140   3.643   5.560   9.573 -0.9387 -2.3437  1.1339
  327MOL0     H44141   3.399   5.650   9.421  0.0474  1.0483  1.2032
  327MOL0     H44142   3.511   5.531   9.373  2.7136  0.8554 -2.2126
  327MOL0     H44143   3.700   5.829   9.193  1.7634 -2.0349  0.5030
  327MOL0     H44144   3.622   6.108   9.842  0.6943 -0.1168 -3.6833
  327MOL0     H44145   3.471   6.312   9.872 -2.4048  1.1181 -0.0171
  328MOL0     O44146   1.867   6.195   6.024 -0.3832 -0.6234  0.4094
  328MOL0     C44147   1.943   6.192   5.929 -0.4872 -0.1969 -0.0803
  328MOL0     O44148   2.016   6.081   5.890  0.4727  0.1586 -1.1557
  328MOL0     C44149   2.030   5.960   5.971 -0.9990  0.4496 -0.9349
  328MOL0     C44150   1.924   5.898   6.036 -0.0593  0.6311  0.3498
  328MOL0     C44151   1.927   5.760   6.072 -1.0953 -0.7026 -0.0998
  328MOL0     C44152   2.051   5.688   6.051 -0.3981  0.0671  0.0364
  328MOL0     O44153   2.094   5.564   6.093  0.1871 -0.0681 -0.5513
  328MOL0     C44154   1.987   5.473   6.106 -0.2784  0.3341  0.0445
  328MOL0     C44155   1.920   5.433   5.971  0.5016 -1.3539  0.2854
  328MOL0     C44156   1.795   5.349   5.980 -1.1890  0.5801 -0.2395
  328MOL0     C44157   1.818   5.202   6.023  0.4831  0.0686  0.0825
  328MOL0     C44158   1.678   5.135   6.059 -0.6626  0.2044  0.5325
  328MOL0     C44159   1.710   4.995   6.116 -0.1872 -1.2841  0.1089
  328MOL0     C44160   1.754   5.002   6.262  0.4690 -0.6327  0.5681
  328MOL0     C44161   1.849   4.881   6.307 -0.9412  0.4864 -0.3141
  328MOL0     N44162   1.789   4.742   6.301 -1.0282  0.9065 -0.0072
  328MOL0     C44163   1.781   4.650   6.403  0.3579 -1.0018 -1.2099
  328MOL0     C44164   1.758   4.531   6.360  0.0067  0.0948  0.6086
  328MOL0     C44165   1.743   4.413   6.449  0.9226 -1.0913  0.4389
  328MOL0     C44166   1.815   4.286   6.407 -0.0021 -0.0144 -0.6287
  328MOL0     C44167   1.825   4.201   6.535 -0.1711  0.5144 -0.1766
  328MOL0     C44168   1.888   4.059   6.520 -1.0251  0.7519  0.5136
  328MOL0     O44169   2.024   4.079   6.474 -0.0040 -0.0112 -0.3095
  328MOL0     C44170   2.094   3.980   6.407  0.1121  0.9809  0.3202
  328MOL0     C44171   2.053   3.847   6.414 -0.4920  0.2765  0.3019
  328MOL0     C44172   2.112   3.761   6.323 -0.1649  0.3831 -0.5079
  328MOL0     C44173   2.053   3.623   6.327 -0.7580 -0.4938  1.0319
  328MOL0     C44174   2.213   3.794   6.234  0.2503 -0.7429  0.3189
  328MOL0     C44175   2.275   3.699   6.153 -0.3594 -0.2354 -0.5535
  328MOL0     O44176   2.294   3.731   6.020  0.0046 -0.0227 -0.2179
  328MOL0     C44177   2.274   3.626   5.940 -0.6418  0.9149  0.0133
  328MOL0     C44178   2.156   3.630   5.857 -0.4125 -0.2268  0.3039
  328MOL0     C44179   2.128   3.519   5.773 -0.8386 -0.1315  0.4797
  328MOL0     C44180   2.212   3.405   5.764 -0.7889 -1.2345  0.3087
  328MOL0     O44181   2.175   3.311   5.690 -0.2083  0.5802  0.2826
  328MOL0     C44182   2.260   3.239   5.596  0.0189  0.8910 -0.7010
  328MOL0     C44183   2.274   3.095   5.644  0.2413 -0.3165  0.5834
  328MOL0     C44184   2.135   3.027   5.664 -0.2460 -1.0758  0.1072
  328MOL0     C44185   2.151   2.896   5.724  0.3957  0.1501  0.4598
  328MOL0     C44186   2.018   2.819   5.748  0.4322 -0.3148  0.4650
  328MOL0     C44187   2.061   2.684   5.810  0.6955  0.0556  0.3203
  328MOL0     C44188   1.925   2.613   5.860 -0.0211  0.7130  0.2608
  328MOL0     C44189   1.879   2.503   5.772  0.4016  0.7877  0.4204
  328MOL0    Cl44190   1.784   2.577   5.634 -0.4413  0.4029  0.3404
  328MOL0     C44191   2.321   3.406   5.845  0.3352  0.0023  0.4572
  328MOL0     C44192   2.351   3.509   5.930 -0.2173 -0.4825 -0.5037
  328MOL0     O44193   2.308   3.594   6.207 -0.3895 -0.0883 -0.7070
  328MOL0     C44194   2.262   3.928   6.241  0.2082 -0.0074  0.1018
  328MOL0     C44195   2.188   4.023   6.315 -0.7020  0.8402  0.0286
  328MOL0     N44196   1.754   4.552   6.217 -0.4856 -0.6622 -0.6869
  328MOL0     N44197   1.756   4.676   6.191  0.1520 -0.3192  0.5976
  328MOL0     C44198   2.165   5.756   5.996  0.7665  0.0234 -0.3238
  328MOL0     C44199   2.153   5.892   5.960  0.5518  0.2051 -1.2887
  328MOL0     C44200   1.966   6.307   5.851 -0.2043 -0.5021  0.1953
  328MOL0     C44201   1.885   6.419   5.855 -0.4215 -0.4675 -0.2082
  328MOL0     C44202   1.934   6.526   5.773 -0.3651 -0.7898 -0.0404
  328MOL0     C44203   2.055   6.519   5.694 -0.0380 -0.4810 -0.6365
  328MOL0     O44204   2.107   6.632   5.629 -0.4044 -0.2769 -0.2895
  328MOL0     C44205   2.031   6.755   5.618  0.2307 -0.0197 -1.0020
  328MOL0     C44206   2.076   6.844   5.502 -0.1198 -0.8850 -0.8442
  328MOL0     C44207   2.084   6.988   5.545 -0.0103 -1.0424 -0.5328
  328MOL0     C44208   2.169   7.060   5.444  0.5082 -0.0927 -0.1386
  328MOL0     C44209   2.143   7.205   5.427  0.5457 -0.2663 -0.2098
  328MOL0     C44210   2.115   7.320   5.396  0.2061 -0.6872 -0.9621
  328MOL0     C44211   2.123   6.409   5.687  0.0873  0.3480 -0.6853
  328MOL0     C44212   2.085   6.306   5.769 -0.7773 -0.7775  0.7770
  328MOL0     H44213   1.833   5.957   6.037  0.7099  1.9895 -1.8208
  328MOL0     H44214   1.846   5.724   6.134 -1.0631  0.5641  0.7234
  328MOL0     H44215   2.013   5.380   6.157 -1.5483  1.2855  2.6270
  328MOL0     H44216   1.916   5.520   6.174  2.2677  6.5425 -0.9156
  328MOL0     H44217   1.897   5.527   5.919 -0.4697 -0.5451  2.1163
  328MOL0     H44218   1.997   5.375   5.919 -0.8109 -2.7997 -0.1202
  328MOL0     H44219   1.727   5.396   6.052  1.2511  3.0920  0.5860
  328MOL0     H44220   1.756   5.346   5.878 -0.9119  3.2556 -0.4973
  328MOL0     H44221   1.872   5.164   5.935  0.4159 -1.0407  0.5033
  328MOL0     H44222   1.882   5.204   6.112  2.0309  2.0842 -0.9800
  328MOL0     H44223   1.622   5.194   6.132  0.0217 -1.6570  2.6554
  328MOL0     H44224   1.611   5.115   5.975 -1.7456 -2.1932  1.8439
  328MOL0     H44225   1.627   4.926   6.099 -1.4619 -0.2957  1.9229
  328MOL0     H44226   1.799   4.960   6.063 -0.0935  0.3193 -0.8418
  328MOL0     H44227   1.822   5.086   6.282  1.9724 -2.0714  1.7741
  328MOL0     H44228   1.672   5.023   6.331  1.1160 -1.2480  1.5434
  328MOL0     H44229   1.891   4.897   6.407  2.5329  0.8283 -1.6841
  328MOL0     H44230   1.936   4.877   6.241 -1.8097  1.3256 -1.5444
  328MOL0     H44231   1.798   4.670   6.509 -1.2140 -1.7437 -0.7883
  328MOL0     H44232   1.770   4.450   6.548  1.8081  1.2042 -0.5894
  328MOL0     H44233   1.637   4.390   6.439  0.7120  0.7619 -2.6670
  328MOL0     H44234   1.922   4.301   6.388 -0.4823  2.0675 -2.0344
  328MOL0     H44235   1.770   4.246   6.316 -1.4413  3.8346 -1.7668
  328MOL0     H44236   1.724   4.190   6.577  0.7371  0.5591  2.2014
  328MOL0     H44237   1.891   4.254   6.604 -0.2095  1.8925 -1.1578
  328MOL0     H44238   1.824   3.991   6.461 -1.1268  0.3235  1.1045
  328MOL0     H44239   1.879   4.006   6.616 -1.8828 -0.0609  0.0100
  328MOL0     H44240   1.992   3.814   6.497  1.5197 -3.4214  0.5412
  328MOL0     H44241   2.024   3.604   6.223 -0.5929  3.3170  0.1609
  328MOL0     H44242   2.136   3.558   6.357  0.3860  0.2150 -0.4823
  328MOL0     H44243   1.979   3.614   6.408 -0.3548  2.3745  1.8301
  328MOL0     H44244   2.085   3.712   5.867 -1.9726 -1.6559  1.6867
  328MOL0     H44245   2.035   3.504   5.719 -0.1808 -2.8602 -0.0528
  328MOL0     H44246   2.219   3.232   5.495 -0.3210 -4.3043 -0.4712
  328MOL0     H44247   2.357   3.290   5.596 -1.5326  4.2528  1.1897
  328MOL0     H44248   2.325   3.043   5.562 -2.0315  0.7846 -1.6534
  328MOL0     H44249   2.333   3.106   5.735  2.5774  0.2353 -0.8991
  328MOL0     H44250   2.084   3.021   5.567 -1.4469  0.6506  0.5778
  328MOL0     H44251   2.073   3.087   5.731 -0.1139  1.5520 -1.9455
  328MOL0     H44252   2.219   2.847   5.654  1.0755 -0.4437  1.5109
  328MOL0     H44253   2.218   2.910   5.809 -0.1169 -1.1031  1.1109
  328MOL0     H44254   1.953   2.812   5.660 -1.6656  0.8586  1.8319
  328MOL0     H44255   1.954   2.868   5.821  1.3849  0.7404  0.6087
  328MOL0     H44256   2.117   2.618   5.744 -2.0748  0.7844 -3.0828
  328MOL0     H44257   2.121   2.701   5.900 -1.0045  4.0623  0.9099
  328MOL0     H44258   1.841   2.680   5.883  0.1154  1.5813 -1.5592
  328MOL0     H44259   1.939   2.571   5.960 -1.3174  1.2427  0.6971
  328MOL0     H44260   1.809   2.433   5.818 -2.5483  1.4988 -2.5438
  328MOL0     H44261   1.974   2.464   5.735  0.7563  0.7945  1.3183
  328MOL0     H44262   2.388   3.321   5.839  0.3608  0.1027 -1.4860
  328MOL0     H44263   2.448   3.504   5.980  0.1288 -1.9441 -1.2695
  328MOL0     H44264   2.331   3.961   6.164 -1.8200  3.2970 -0.4962
  328MOL0     H44265   2.226   4.125   6.313 -1.0991  0.9865 -1.6286
  328MOL0     H44266   2.263   5.711   5.982  0.5058 -0.7037  0.0838
  328MOL0     H44267   2.245   5.929   5.915  1.3003  1.7381  1.2678
  328MOL0     H44268   1.792   6.410   5.910  0.0770  0.0603  0.7409
  328MOL0     H44269   1.889   6.624   5.759  0.7259 -0.2254  0.3361
  328MOL0     H44270   1.924   6.738   5.605 -0.2246 -0.3799  2.3011
  328MOL0     H44271   2.027   6.805   5.715  2.1733  0.6730 -1.2296
  328MOL0     H44272   2.018   6.826   5.410 -0.6596 -2.1057 -0.2964
  328MOL0     H44273   2.178   6.807   5.491 -0.0180 -2.4611  3.6457
  328MOL0     H44274   2.134   6.995   5.643  0.9012  1.1164 -1.0914
  328MOL0     H44275   1.983   7.030   5.553  0.1724 -0.0717 -2.5984
  328MOL0     H44276   2.145   7.026   5.343 -1.5285 -0.1579  0.3427
  328MOL0     H44277   2.273   7.039   5.472 -0.1600 -0.7040  2.0452
  328MOL0     H44278   2.091   7.420   5.367  3.3484  0.2319 -0.7459
  328MOL0     H44279   2.198   6.386   5.612  0.1382 -0.4340 -0.4074
  328MOL0     H44280   2.157   6.226   5.753 -2.2121 -1.7806 -1.1362
  329MOL0     O44281   5.783   1.584   8.796 -0.6501 -0.5757 -0.2947
  329MOL0     C44282   5.778   1.508   8.893  0.4108 -0.1644  0.4224
  329MOL0     O44283   5.663   1.479   8.963 -0.6256  0.0970  0.3370
  329MOL0     C44284   5.544   1.523   8.920  0.0645  0.4309 -1.6232
  329MOL0     C44285   5.452   1.547   9.020  0.1268 -1.0429 -0.5456
  329MOL0     C44286   5.322   1.581   8.980  0.1128 -0.1778 -0.2845
  329MOL0     C44287   5.284   1.599   8.847 -0.1599 -0.4750  0.1389
  329MOL0     O44288   5.153   1.624   8.803  0.3600  0.0834  0.1707
  329MOL0     C44289   5.070   1.696   8.895 -0.0225  0.1573 -0.6959
  329MOL0     C44290   4.941   1.747   8.829 -0.2604  0.1371  0.3439
  329MOL0     C44291   4.826   1.655   8.807 -0.2224  0.3234 -0.7006
  329MOL0     C44292   4.711   1.728   8.744  0.1438  0.1621 -0.8349
  329MOL0     C44293   4.580   1.638   8.771 -0.8160  0.0751  0.2455
  329MOL0     C44294   4.463   1.675   8.684 -0.1644 -0.0799 -0.5370
  329MOL0     C44295   4.344   1.581   8.714  0.4850  0.3196  0.1854
  329MOL0     C44296   4.267   1.625   8.839  0.7186  0.5928 -0.3109
  329MOL0     N44297   4.141   1.537   8.877 -0.7297 -1.0710 -0.7015
  329MOL0     C44298   4.029   1.524   8.793  0.4368  0.7370 -0.1035
  329MOL0     C44299   3.954   1.435   8.869 -0.4422 -0.2979  0.0647
  329MOL0     C44300   3.827   1.367   8.834  0.5848 -0.6599 -0.7206
  329MOL0     C44301   3.811   1.332   8.687 -0.7328 -0.0022 -0.8202
  329MOL0     C44302   3.925   1.246   8.640 -0.2560 -0.5089 -0.4466
  329MOL0     C44303   3.902   1.181   8.507 -0.0780 -0.4997  0.2721
  329MOL0     O44304   4.027   1.128   8.455 -0.7072  0.2165  0.7069
  329MOL0     C44305   4.053   1.177   8.325  0.2537 -0.9354 -0.5138
  329MOL0     C44306   4.003   1.106   8.215 -1.0915 -0.0523 -0.2607
  329MOL0     C44307   4.041   1.142   8.089 -0.6586  0.1473 -0.0823
  329MOL0     C44308   4.012   1.048   7.971 -0.4381  0.4112 -0.6141
  329MOL0     C44309   4.116   1.262   8.067  1.4318  0.0721  0.7474
  329MOL0     C44310   4.161   1.313   7.933  1.1426  0.7417 -0.2118
  329MOL0     O44311   4.179   1.451   7.931 -0.3459  0.7869  0.0669
  329MOL0     C44312   4.236   1.508   7.823  0.4629  0.4723 -0.1907
  329MOL0     C44313   4.324   1.614   7.843 -0.2455  0.1334 -0.0092
  329MOL0     C44314   4.383   1.684   7.735 -0.8239  0.0223 -0.0023
  329MOL0     C44315   4.327   1.657   7.604  0.1242  0.3259  0.6098
  329MOL0     O44316   4.362   1.725   7.492 -0.0112  0.7496 -0.9206
  329MOL0     C44317   4.496   1.758   7.485  0.6585 -0.5397  1.1732
  329MOL0     C44318   4.548   1.758   7.334  0.0431 -0.0115 -0.2197
  329MOL0     C44319   4.497   1.635   7.253 -0.0609 -0.6028  0.1137
  329MOL0     C44320   4.592   1.510   7.276  0.2692  0.4375 -0.6564
  329MOL0     C44321   4.513   1.381   7.229 -0.4098 -0.3285 -0.0440
  329MOL0     C44322   4.414   1.332   7.339 -0.1592  0.2695 -0.1231
  329MOL0     C44323   4.341   1.205   7.303 -0.2671 -0.3450 -0.2184
  329MOL0     C44324   4.240   1.184   7.416 -0.0977 -0.1882 -0.1960
  329MOL0    Cl44325   4.094   1.291   7.410 -0.0894  0.0915  0.5146
  329MOL0     C44326   4.225   1.567   7.590 -0.2619  0.2032  0.2996
  329MOL0     C44327   4.175   1.496   7.695 -1.3807  0.6418 -0.6542
  329MOL0     O44328   4.179   1.236   7.841 -0.1300 -0.1405  0.4671
  329MOL0     C44329   4.139   1.348   8.177  0.2066  0.1402  0.0525
  329MOL0     C44330   4.110   1.308   8.307 -0.6937 -0.7232  0.5349
  329MOL0     N44331   4.021   1.410   8.992 -0.2639 -0.0734 -0.0282
  329MOL0     N44332   4.143   1.466   8.995 -0.0118  0.4360 -0.3755
  329MOL0     C44333   5.372   1.553   8.759  0.8645 -0.0651 -0.3514
  329MOL0     C44334   5.502   1.509   8.786 -0.1391  0.3340 -0.5783
  329MOL0     C44335   5.897   1.439   8.930 -0.3931 -0.6030  0.5453
  329MOL0     C44336   5.906   1.322   9.007  1.1720 -0.0716 -0.1375
  329MOL0     C44337   6.032   1.261   9.025  0.5145  0.1359  0.5937
  329MOL0     C44338   6.150   1.310   8.971  0.3576  0.0795 -0.2175
  329MOL0     O44339   6.270   1.247   8.992 -0.3643 -0.2027 -0.1713
  329MOL0     C44340   6.388   1.290   8.920 -0.8873  0.5457 -0.4721
  329MOL0     C44341   6.492   1.180   8.932  0.1108  1.4616 -0.8631
  329MOL0     C44342   6.604   1.194   8.827 -0.6007  0.5596 -0.5562
  329MOL0     C44343   6.660   1.336   8.787 -0.3981 -0.4894  0.4086
  329MOL0     C44344   6.746   1.398   8.888  0.3269  0.6346 -0.3674
  329MOL0     C44345   6.812   1.460   8.978 -0.3051  0.7479  0.6687
  329MOL0     C44346   6.145   1.425   8.895  0.2564  0.3853 -0.2427
  329MOL0     C44347   6.019   1.483   8.871  0.3461  0.4393 -0.1460
  329MOL0     H44348   5.478   1.536   9.124 -2.8283 -0.9937  0.2893
  329MOL0     H44349   5.249   1.587   9.060 -0.2926 -1.0437 -0.5830
  329MOL0     H44350   5.046   1.629   8.979 -1.1219  1.2836 -0.0758
  329MOL0     H44351   5.113   1.786   8.941 -0.1348 -0.6611  1.1217
  329MOL0     H44352   4.907   1.837   8.881  2.0399  1.0624  0.3323
  329MOL0     H44353   4.963   1.790   8.731 -1.9242 -0.8220 -0.5014
  329MOL0     H44354   4.854   1.574   8.739  1.2167 -0.3082  0.5747
  329MOL0     H44355   4.799   1.604   8.900 -1.6175 -1.2065 -1.9005
  329MOL0     H44356   4.705   1.828   8.787  0.4010  0.7992 -2.2562
  329MOL0     H44357   4.729   1.739   8.637  2.3781  1.9552 -0.3566
  329MOL0     H44358   4.604   1.531   8.768 -0.3289  0.0480  2.8006
  329MOL0     H44359   4.536   1.643   8.871  0.3041  0.4900  0.7347
  329MOL0     H44360   4.442   1.781   8.698  2.1569  0.5461 -1.4404
  329MOL0     H44361   4.500   1.656   8.583 -2.6043  0.0764 -1.5306
  329MOL0     H44362   4.275   1.589   8.630 -0.6630 -3.0256  0.6532
  329MOL0     H44363   4.382   1.480   8.729 -2.5632 -0.5568  3.4368
  329MOL0     H44364   4.236   1.729   8.822 -0.5069  0.0140 -1.9157
  329MOL0     H44365   4.329   1.619   8.929  0.0539  0.2407  0.1310
  329MOL0     H44366   4.017   1.555   8.690  1.8206 -1.1405 -0.8998
  329MOL0     H44367   3.819   1.282   8.903 -2.5897  1.2707  1.5388
  329MOL0     H44368   3.741   1.429   8.862 -0.6203 -2.7632  0.4935
  329MOL0     H44369   3.812   1.429   8.637  1.1566  1.5515  2.0049
  329MOL0     H44370   3.710   1.288   8.689 -1.5144  1.6808 -1.3982
  329MOL0     H44371   3.958   1.171   8.711  1.8980  1.7987  1.1552
  329MOL0     H44372   4.017   1.304   8.647 -2.0806  2.8064 -1.5678
  329MOL0     H44373   3.861   1.250   8.434  1.3036  2.1671  1.8809
  329MOL0     H44374   3.832   1.098   8.519 -0.3369 -1.1478 -4.2318
  329MOL0     H44375   3.945   1.015   8.227  0.8567 -1.0820  2.7061
  329MOL0     H44376   3.952   0.962   8.002 -1.1217  0.7565 -0.9447
  329MOL0     H44377   3.972   1.096   7.881  0.1355 -0.9771 -1.6511
  329MOL0     H44378   4.108   1.007   7.937 -1.1470 -3.4256  1.4448
  329MOL0     H44379   4.352   1.639   7.945 -1.5631 -0.1231  0.4391
  329MOL0     H44380   4.450   1.768   7.745 -0.2541 -0.3044 -0.8976
  329MOL0     H44381   4.513   1.853   7.538  0.7049  0.3666 -0.3975
  329MOL0     H44382   4.551   1.678   7.536 -0.0499 -3.4342 -2.2272
  329MOL0     H44383   4.502   1.840   7.278 -0.4896  0.1100  0.3774
  329MOL0     H44384   4.657   1.767   7.326  0.0127 -0.2940 -1.0281
  329MOL0     H44385   4.496   1.654   7.146 -3.6472 -0.8620 -0.0072
  329MOL0     H44386   4.394   1.607   7.277  0.5422 -2.1966  1.0480
  329MOL0     H44387   4.683   1.523   7.217  0.7612  0.4571  0.0915
  329MOL0     H44388   4.623   1.518   7.381 -1.3755  0.1144 -0.1238
  329MOL0     H44389   4.587   1.300   7.218 -1.5084 -1.2902 -0.5515
  329MOL0     H44390   4.469   1.401   7.131 -0.6206 -0.3952  0.0374
  329MOL0     H44391   4.469   1.304   7.429 -0.5055 -0.8558 -0.2438
  329MOL0     H44392   4.348   1.412   7.371 -1.0268 -1.0396  1.5094
  329MOL0     H44393   4.412   1.123   7.292 -2.2180 -1.8567 -2.3761
  329MOL0     H44394   4.294   1.215   7.205  1.4445 -0.0406 -1.0555
  329MOL0     H44395   4.284   1.205   7.514 -0.1665  4.8590 -0.9742
  329MOL0     H44396   4.191   1.086   7.416  0.9927 -0.7434 -0.3063
  329MOL0     H44397   4.199   1.544   7.487 -3.4454  1.0807  0.7750
  329MOL0     H44398   4.085   1.437   7.681 -2.1393  2.0461 -2.0631
  329MOL0     H44399   4.189   1.444   8.181 -0.4134  0.4443  2.9438
  329MOL0     H44400   4.137   1.370   8.392 -1.5824  0.3647  0.0517
  329MOL0     H44401   5.341   1.535   8.657 -1.3188 -1.1897  0.4482
  329MOL0     H44402   5.569   1.489   8.703  1.0156 -0.6133  0.5459
  329MOL0     H44403   5.818   1.292   9.063  2.2750 -0.5455  1.3963
  329MOL0     H44404   6.037   1.174   9.090  0.4747 -0.9293 -0.7760
  329MOL0     H44405   6.369   1.303   8.813  2.3401 -1.3195 -1.4120
  329MOL0     H44406   6.427   1.381   8.967  1.9807 -1.2484  0.9327
  329MOL0     H44407   6.443   1.082   8.925  0.2928  1.3101 -0.1087
  329MOL0     H44408   6.531   1.169   9.034  2.6194 -0.0694 -1.9152
  329MOL0     H44409   6.573   1.150   8.732  2.2731 -4.2308  0.3770
  329MOL0     H44410   6.684   1.127   8.861 -0.0511  1.3940 -0.1785
  329MOL0     H44411   6.579   1.403   8.756 -0.5671 -1.7253 -2.0875
  329MOL0     H44412   6.728   1.305   8.707  1.5013  1.7758  1.0321
  329MOL0     H44413   6.854   1.523   9.054 -0.6720  0.0652  1.4550
  329MOL0     H44414   6.231   1.477   8.853  0.0031  0.2865 -0.8997
  329MOL0     H44415   6.029   1.566   8.802 -0.1790  0.8783  0.2990
  330MOL0     O44416  11.103   4.225   2.043  0.4186 -0.2784 -0.3166
  330MOL0     C44417  11.024   4.136   2.078  0.1241  0.3125  0.9950
  330MOL0     O44418  11.020   4.066   2.200  0.8990  1.0515  0.1024
  330MOL0     C44419  11.124   4.087   2.280 -0.3621 -1.0704 -1.3741
  330MOL0     C44420  11.092   4.138   2.409  0.3121 -0.1421  1.1021
  330MOL0     C44421  11.193   4.160   2.500 -0.3661  0.3258 -0.9961
  330MOL0     C44422  11.317   4.126   2.477 -1.1274 -0.3681 -0.0872
  330MOL0     O44423  11.416   4.149   2.577 -0.6912  0.2057  0.1704
  330MOL0     C44424  11.463   4.284   2.574  0.4359 -0.0103 -1.0879
  330MOL0     C44425  11.584   4.306   2.658 -0.0409  0.5515 -0.8441
  330MOL0     C44426  11.640   4.451   2.648 -0.2450 -0.5379  0.2974
  330MOL0     C44427  11.776   4.473   2.720 -0.1950  0.2706 -0.7133
  330MOL0     C44428  11.824   4.614   2.686  0.0732 -0.1673  0.6391
  330MOL0     C44429  11.963   4.630   2.741 -0.4527 -0.6296 -0.1905
  330MOL0     C44430  12.011   4.764   2.681  0.4373 -0.7071  0.7651
  330MOL0     C44431  12.142   4.799   2.735  0.1537  1.1693 -0.8305
  330MOL0     N44432  12.162   4.945   2.707 -0.4251  0.2031 -0.6135
  330MOL0     C44433  12.214   4.986   2.585  0.1460 -0.3415  0.5354
  330MOL0     C44434  12.202   5.127   2.588  0.6256 -0.1378 -0.4479
  330MOL0     C44435  12.247   5.217   2.488  0.2747 -0.8937  0.9016
  330MOL0     C44436  12.148   5.339   2.448  0.8474 -0.0336  0.1703
  330MOL0     C44437  12.211   5.419   2.331 -0.3904 -0.4353  0.4965
  330MOL0     C44438  12.119   5.534   2.291  0.3387  1.5332 -0.2463
  330MOL0     O44439  12.183   5.613   2.199 -0.5934 -0.0598 -0.3403
  330MOL0     C44440  12.287   5.702   2.236  0.5447  0.2988 -0.2054
  330MOL0     C44441  12.320   5.785   2.126  0.4673  0.5294  0.0689
  330MOL0     C44442  12.409   5.885   2.143 -0.1134 -0.9336  0.1494
  330MOL0     C44443  12.454   5.953   2.021  0.8281  0.0153 -0.5145
  330MOL0     C44444  12.459   5.916   2.271 -0.7224  0.2481  0.0422
  330MOL0     C44445  12.576   6.026   2.303 -0.1527 -0.0473  0.3084
  330MOL0     O44446  12.599   6.066   2.423  0.9593  0.4978 -0.5202
  330MOL0     C44447  12.662   6.183   2.453 -0.2075  0.8476  0.3876
  330MOL0     C44448  12.626   6.308   2.398 -0.1821  0.4358  0.6863
  330MOL0     C44449  12.685   6.426   2.437  0.3534 -0.2466 -0.3502
  330MOL0     C44450  12.775   6.430   2.542 -0.1686  0.3369 -0.3862
  330MOL0     O44451  12.844   6.550   2.563  0.3221 -1.0131  0.2377
  330MOL0     C44452  12.979   6.529   2.593  0.8540 -0.1212 -1.2415
  330MOL0     C44453  13.067   6.645   2.566 -0.2046  0.1291 -0.0072
  330MOL0     C44454  13.141   6.642   2.427 -0.2500  1.0088  0.4393
  330MOL0     C44455  13.039   6.643   2.305  0.4940  0.8941  0.4880
  330MOL0     C44456  12.968   6.777   2.301  0.1924 -0.3537  0.6561
  330MOL0     C44457  12.849   6.770   2.203  0.2721 -0.2866  0.3355
  330MOL0     C44458  12.894   6.735   2.056 -0.2619 -0.5795  0.4071
  330MOL0     C44459  12.777   6.777   1.965 -0.3014 -0.3287 -0.9040
  330MOL0    Cl44460  12.817   6.754   1.793 -0.3396  0.2662 -0.0926
  330MOL0     C44461  12.789   6.317   2.622  0.4421  0.2224  0.6159
  330MOL0     C44462  12.742   6.193   2.576  0.6569  0.2329  0.5911
  330MOL0     O44463  12.635   6.068   2.206  0.0800  0.4649  0.4160
  330MOL0     C44464  12.418   5.841   2.377  0.3267  0.2699  0.0642
  330MOL0     C44465  12.327   5.742   2.369  0.6303 -0.0271 -0.5011
  330MOL0     N44466  12.129   5.159   2.702  0.3323  0.2228  0.0801
  330MOL0     N44467  12.112   5.052   2.775 -0.1778 -0.6748  0.5691
  330MOL0     C44468  11.358   4.069   2.352  0.3288  0.2492 -0.3895
  330MOL0     C44469  11.262   4.056   2.248  0.6451  0.7486  0.2121
  330MOL0     C44470  10.933   4.079   1.970 -0.6821 -0.4491 -0.6885
  330MOL0     C44471  10.956   4.104   1.832 -0.6669 -0.2428 -0.4459
  330MOL0     C44472  10.865   4.053   1.742  0.4690 -0.7162 -0.3265
  330MOL0     C44473  10.751   3.982   1.772 -0.3566 -0.8223 -0.5205
  330MOL0     O44474  10.656   3.952   1.680 -0.6278  0.3992  0.2901
  330MOL0     C44475  10.511   3.953   1.721 -0.6460  0.7354  1.0077
  330MOL0     C44476  10.446   3.823   1.704 -0.1630  0.4603  0.5956
  330MOL0     C44477  10.509   3.716   1.805 -0.4119  0.3329  0.2494
  330MOL0     C44478  10.461   3.574   1.776  0.8410  0.1518 -1.1429
  330MOL0     C44479  10.538   3.465   1.840 -0.1762 -0.6405 -0.8135
  330MOL0     C44480  10.592   3.366   1.899  1.0011 -0.4068  0.0419
  330MOL0     C44481  10.733   3.953   1.909  0.7837 -0.2567  0.0160
  330MOL0     C44482  10.814   4.005   2.003 -0.0566  0.5207 -0.2539
  330MOL0     H44483  10.987   4.161   2.422 -0.1056 -0.0621 -1.7638
  330MOL0     H44484  11.166   4.204   2.596 -0.7827  2.7533 -2.1512
  330MOL0     H44485  11.490   4.300   2.469  2.7303  0.5868 -0.4463
  330MOL0     H44486  11.390   4.360   2.603  1.4644  1.0134 -1.1558
  330MOL0     H44487  11.569   4.299   2.766  1.8839  0.5572 -0.5348
  330MOL0     H44488  11.660   4.234   2.628 -0.2564 -0.5883  1.2107
  330MOL0     H44489  11.653   4.477   2.543  0.0104 -2.4929 -0.1970
  330MOL0     H44490  11.555   4.506   2.689  0.5473 -0.4032  1.8550
  330MOL0     H44491  11.770   4.452   2.827 -0.0851  0.6858 -0.6231
  330MOL0     H44492  11.840   4.394   2.681 -2.4593 -2.8634  1.4470
  330MOL0     H44493  11.808   4.634   2.580 -3.3537 -0.0604  1.0637
  330MOL0     H44494  11.761   4.685   2.741  2.2894  0.9361  1.8622
  330MOL0     H44495  11.964   4.639   2.850  0.5259 -0.7582 -0.1768
  330MOL0     H44496  12.038   4.557   2.709  0.6404  0.7097 -0.7724
  330MOL0     H44497  12.024   4.749   2.573  0.7123  2.0083  0.3362
  330MOL0     H44498  11.948   4.853   2.690  2.1411  0.5338  0.8250
  330MOL0     H44499  12.227   4.740   2.700 -1.4475 -1.3434 -0.6765
  330MOL0     H44500  12.139   4.795   2.845 -0.1235 -1.3824 -0.8877
  330MOL0     H44501  12.267   4.941   2.502  0.3674  1.2746 -0.2431
  330MOL0     H44502  12.334   5.268   2.529  0.0698  0.9752 -0.8244
  330MOL0     H44503  12.268   5.165   2.394  1.6893 -1.3523  1.4505
  330MOL0     H44504  12.133   5.400   2.538  0.1457  0.2657 -0.1406
  330MOL0     H44505  12.044   5.310   2.434  0.0707  2.3742  0.5603
  330MOL0     H44506  12.220   5.347   2.249  2.4286  1.4220 -1.0003
  330MOL0     H44507  12.298   5.471   2.372 -2.1687  1.8469  1.6088
  330MOL0     H44508  12.090   5.588   2.382  0.5796  0.5316  0.4421
  330MOL0     H44509  12.033   5.501   2.232 -0.1117  0.4956  0.9499
  330MOL0     H44510  12.270   5.763   2.032  1.3419 -0.1755 -0.2498
  330MOL0     H44511  12.558   5.926   2.002  1.2345  2.1669 -1.6560
  330MOL0     H44512  12.396   5.922   1.934  0.4737 -2.8213  0.6062
  330MOL0     H44513  12.437   6.061   2.024 -0.1981 -0.1035 -1.2682
  330MOL0     H44514  12.556   6.318   2.316  1.0529  3.0901 -0.1606
  330MOL0     H44515  12.659   6.519   2.386  0.5030 -1.1904 -2.2601
  330MOL0     H44516  12.984   6.529   2.703  1.8986  3.5955 -1.1469
  330MOL0     H44517  13.020   6.443   2.540 -1.5122 -0.5416 -2.4955
  330MOL0     H44518  13.010   6.736   2.586  0.5916  0.6137  0.1019
  330MOL0     H44519  13.148   6.649   2.639 -1.7849  0.6176  1.7987
  330MOL0     H44520  13.195   6.547   2.438 -3.4834 -1.1987 -1.1858
  330MOL0     H44521  13.196   6.736   2.435 -0.3642  1.4792 -2.9497
  330MOL0     H44522  13.105   6.620   2.221  0.5775 -0.7472  0.9555
  330MOL0     H44523  12.963   6.563   2.309  0.4300  0.8508 -0.9414
  330MOL0     H44524  13.033   6.854   2.259 -0.0235 -0.1734  0.6503
  330MOL0     H44525  12.928   6.802   2.400  0.7091  0.4302  0.6782
  330MOL0     H44526  12.774   6.696   2.234 -0.8865 -0.9807 -3.4823
  330MOL0     H44527  12.798   6.866   2.211 -0.3579 -0.6122  0.3095
  330MOL0     H44528  12.912   6.627   2.058  0.9116 -0.4516  4.0254
  330MOL0     H44529  12.991   6.782   2.035 -1.7291  1.5454 -2.1718
  330MOL0     H44530  12.772   6.886   1.964 -2.0945 -0.3063  1.6766
  330MOL0     H44531  12.692   6.717   1.998  1.7808 -2.7695  0.4141
  330MOL0     H44532  12.859   6.313   2.705 -0.0908 -0.6257  1.0445
  330MOL0     H44533  12.765   6.104   2.633 -0.9449 -0.6518 -0.0744
  330MOL0     H44534  12.449   5.881   2.473 -0.4529 -0.1198  0.4954
  330MOL0     H44535  12.304   5.694   2.463 -0.5300 -0.3663 -0.9431
  330MOL0     H44536  11.464   4.051   2.337  0.1302 -1.0517 -0.3230
  330MOL0     H44537  11.278   4.021   2.147 -0.4159 -0.6295  0.4804
  330MOL0     H44538  11.049   4.147   1.798  0.3834 -2.8522 -1.0784
  330MOL0     H44539  10.883   4.094   1.643  0.4533  1.1491  0.3973
  330MOL0     H44540  10.488   3.976   1.825 -1.3613  1.1758  0.7549
  330MOL0     H44541  10.461   4.023   1.654  0.7322 -1.3683 -2.5069
  330MOL0     H44542  10.459   3.793   1.600  0.9837 -0.4609  0.9759
  330MOL0     H44543  10.337   3.820   1.711 -0.1378 -0.2200  0.7935
  330MOL0     H44544  10.491   3.749   1.908  1.1776  0.4782  0.5021
  330MOL0     H44545  10.618   3.716   1.793 -0.0303  0.3780  3.0893
  330MOL0     H44546  10.480   3.551   1.670  0.6444 -1.7507 -0.7973
  330MOL0     H44547  10.355   3.575   1.799  1.4327  1.9511  2.1057
  330MOL0     H44548  10.648   3.291   1.952  1.2521  0.1596  0.5932
  330MOL0     H44549  10.640   3.908   1.941  1.2966 -1.5314 -0.2473
  330MOL0     H44550  10.787   4.000   2.108 -1.4958  0.2817 -0.6154
  331MOL0     O44551   7.593   5.434   4.621 -0.3529 -0.0713  0.0456
  331MOL0     C44552   7.643   5.360   4.533 -0.0212  0.0850  0.3005
  331MOL0     O44553   7.614   5.233   4.515  0.7324  0.8726 -0.1413
  331MOL0     C44554   7.511   5.182   4.588  0.8307 -0.2277 -0.2970
  331MOL0     C44555   7.540   5.127   4.709 -0.4278 -0.6241 -0.6487
  331MOL0     C44556   7.434   5.078   4.792 -0.1207 -0.1696  1.2920
  331MOL0     C44557   7.306   5.074   4.741  0.1912  0.3383 -0.4433
  331MOL0     O44558   7.213   5.004   4.815 -0.1007 -0.2207  0.1548
  331MOL0     C44559   7.085   5.049   4.831  0.4487 -0.5213  0.1048
  331MOL0     C44560   7.047   5.016   4.978 -0.6162 -0.2787 -0.5134
  331MOL0     C44561   7.026   4.866   4.996 -0.1732  0.0997 -0.1564
  331MOL0     C44562   7.083   4.808   5.129 -0.6228  0.1867 -0.0753
  331MOL0     C44563   7.016   4.878   5.250  0.4004 -0.6651 -0.8742
  331MOL0     C44564   7.129   4.907   5.350  0.2838 -0.4030  0.1968
  331MOL0     C44565   7.068   4.944   5.493 -0.2299  0.4441  0.2260
  331MOL0     C44566   7.132   5.066   5.568 -0.6796  0.2010  0.3290
  331MOL0     N44567   7.107   5.191   5.497  0.3491  0.6182 -0.4401
  331MOL0     C44568   7.009   5.226   5.397  0.1267  0.9557 -0.7361
  331MOL0     C44569   7.027   5.350   5.374  0.1177 -0.4727  0.1950
  331MOL0     C44570   6.934   5.440   5.286 -0.7451  0.8904 -0.2830
  331MOL0     C44571   6.937   5.385   5.143  0.2495 -0.2787  0.5205
  331MOL0     C44572   6.883   5.504   5.053 -0.2678 -0.1254  0.8294
  331MOL0     C44573   6.911   5.468   4.903 -0.3564  0.1280 -0.7113
  331MOL0     O44574   7.051   5.493   4.869  0.3819 -0.8749 -0.2004
  331MOL0     C44575   7.089   5.534   4.743  0.0002  0.3662 -0.2577
  331MOL0     C44576   6.999   5.580   4.636 -0.6040 -0.4614  0.4393
  331MOL0     C44577   7.047   5.625   4.507 -1.2463 -0.4177 -1.2658
  331MOL0     C44578   6.952   5.708   4.430 -0.5321  0.0225  0.5572
  331MOL0     C44579   7.189   5.615   4.488  0.2914 -0.7710  0.3881
  331MOL0     C44580   7.248   5.659   4.365 -0.2659  0.6657  0.3868
  331MOL0     O44581   7.367   5.724   4.378 -1.1546 -0.1406  0.4130
  331MOL0     C44582   7.444   5.725   4.268 -0.6745  0.2764 -0.0317
  331MOL0     C44583   7.525   5.839   4.235  1.2054  0.3437  0.2532
  331MOL0     C44584   7.627   5.825   4.137  0.8446  0.1857  0.2137
  331MOL0     C44585   7.647   5.710   4.058  0.1069 -0.6896  0.7332
  331MOL0     O44586   7.737   5.716   3.958 -0.1736 -0.5734  0.1619
  331MOL0     C44587   7.780   5.596   3.892  0.2315  0.7800  0.1302
  331MOL0     C44588   7.911   5.623   3.821  0.2111  1.0430  0.6174
  331MOL0     C44589   7.943   5.503   3.740 -0.7750  0.7481  0.7935
  331MOL0     C44590   8.080   5.521   3.696  0.1978  0.2896 -0.1960
  331MOL0     C44591   8.141   5.413   3.604  0.8113  0.7456  0.0831
  331MOL0     C44592   8.128   5.256   3.629  0.6978 -0.1678 -0.0130
  331MOL0     C44593   8.202   5.201   3.750  0.0085 -0.8694  0.1608
  331MOL0     C44594   8.185   5.048   3.757 -0.1142  0.3399  0.0381
  331MOL0    Cl44595   8.314   4.979   3.662 -0.0712  0.2438 -0.0885
  331MOL0     C44596   7.557   5.600   4.084 -0.2258 -0.4193  0.0498
  331MOL0     C44597   7.462   5.601   4.184  0.6001 -0.2706  0.3597
  331MOL0     O44598   7.186   5.626   4.267  0.1874  0.1157  0.2952
  331MOL0     C44599   7.272   5.575   4.595 -0.0672 -0.0465 -0.2094
  331MOL0     C44600   7.220   5.530   4.715  0.3908 -0.2488 -0.2062
  331MOL0     N44601   7.123   5.399   5.457 -0.6584 -0.6638  1.7823
  331MOL0     N44602   7.168   5.303   5.524  0.5120 -0.0889  0.5080
  331MOL0     C44603   7.273   5.143   4.624 -0.9161 -0.3252 -0.8230
  331MOL0     C44604   7.373   5.199   4.542 -0.0790  1.0414  0.3977
  331MOL0     C44605   7.752   5.416   4.445 -0.2111  0.0098  0.4574
  331MOL0     C44606   7.777   5.552   4.435 -0.1127  0.0453  0.0892
  331MOL0     C44607   7.878   5.606   4.349  1.1263  0.3429  0.2915
  331MOL0     C44608   7.948   5.525   4.267 -0.0456 -0.1504  0.3744
  331MOL0     O44609   8.034   5.587   4.175 -0.2671  0.0749 -0.0124
  331MOL0     C44610   8.145   5.507   4.121  1.0175  0.1118  0.3755
  331MOL0     C44611   8.249   5.590   4.040  0.6577  0.6165 -0.3151
  331MOL0     C44612   8.363   5.500   3.970 -0.5029  0.8724 -0.5160
  331MOL0     C44613   8.427   5.572   3.840 -0.4527 -0.3156 -0.1004
  331MOL0     C44614   8.523   5.486   3.768  0.8665 -0.0680 -0.3944
  331MOL0     C44615   8.601   5.428   3.695 -0.3082  0.1672 -0.0417
  331MOL0     C44616   7.936   5.384   4.283 -0.4644  0.2791 -0.5234
  331MOL0     C44617   7.834   5.333   4.367 -1.2635  0.3180  0.0034
  331MOL0     H44618   7.644   5.127   4.740 -0.9768 -0.0071  1.3300
  331MOL0     H44619   7.461   5.033   4.887  0.0734  0.5944  1.6075
  331MOL0     H44620   7.073   5.156   4.810 -1.1253 -0.3263  1.7856
  331MOL0     H44621   7.011   4.991   4.775 -1.5278  1.1907  0.8382
  331MOL0     H44622   7.131   5.046   5.042 -1.4473 -0.3810  0.6533
  331MOL0     H44623   6.952   5.062   5.008 -1.8835  1.6254 -6.2318
  331MOL0     H44624   6.917   4.859   4.999 -0.4906  3.4850  1.4794
  331MOL0     H44625   7.065   4.808   4.912  1.6861 -0.0650  0.7729
  331MOL0     H44626   7.062   4.701   5.136 -0.6747  0.2205  0.2900
  331MOL0     H44627   7.192   4.819   5.129 -0.7527  1.6940  0.1815
  331MOL0     H44628   6.973   4.967   5.203 -0.5614 -2.3422 -3.3649
  331MOL0     H44629   6.935   4.815   5.289  1.0973 -1.1845 -0.2386
  331MOL0     H44630   7.191   4.818   5.362  1.6565  0.5334  0.2847
  331MOL0     H44631   7.190   4.992   5.316  1.7771 -1.5905 -0.2286
  331MOL0     H44632   6.962   4.967   5.478 -0.5990 -0.7357  0.9487
  331MOL0     H44633   7.067   4.858   5.560 -0.9528  2.7908  3.4631
  331MOL0     H44634   7.240   5.054   5.559 -0.4823  0.9281  1.5367
  331MOL0     H44635   7.121   5.081   5.675 -0.4442  4.9210 -0.1060
  331MOL0     H44636   6.926   5.168   5.357  1.0617  0.8162 -2.6202
  331MOL0     H44637   6.831   5.450   5.323 -1.6712 -1.3441 -2.0123
  331MOL0     H44638   6.972   5.543   5.290 -1.1065  1.0571 -1.1249
  331MOL0     H44639   6.876   5.295   5.142 -2.2304  1.3033 -1.7255
  331MOL0     H44640   7.038   5.360   5.107  0.1381 -0.9607  0.6740
  331MOL0     H44641   6.918   5.605   5.076  0.3759 -0.2986  0.6200
  331MOL0     H44642   6.774   5.507   5.066 -0.1472  1.1944  1.7282
  331MOL0     H44643   6.855   5.550   4.856 -0.3417  0.7910  0.3970
  331MOL0     H44644   6.895   5.365   4.870  0.2925  0.0106 -0.6646
  331MOL0     H44645   6.893   5.590   4.656 -1.0483 -0.3432 -1.7287
  331MOL0     H44646   6.947   5.669   4.328 -1.6811 -0.9852  0.9685
  331MOL0     H44647   6.849   5.720   4.464 -1.1104  1.0366 -1.4133
  331MOL0     H44648   6.995   5.807   4.418 -1.9194  0.5131 -0.6360
  331MOL0     H44649   7.531   5.926   4.300 -3.7430  0.4365  0.9511
  331MOL0     H44650   7.672   5.923   4.124  0.5203  0.8145  3.0585
  331MOL0     H44651   7.797   5.518   3.967 -1.6492  2.6055  2.6395
  331MOL0     H44652   7.711   5.567   3.812 -0.9188  3.3193  0.1051
  331MOL0     H44653   7.908   5.713   3.759  1.5145  0.0263 -1.0067
  331MOL0     H44654   7.993   5.631   3.894  1.0063 -2.4204  0.2896
  331MOL0     H44655   7.868   5.500   3.661 -2.0899  0.0085  2.0184
  331MOL0     H44656   7.930   5.410   3.796 -0.1523 -1.5129 -2.5243
  331MOL0     H44657   8.074   5.613   3.636 -1.6212  0.6894  0.5607
  331MOL0     H44658   8.141   5.530   3.787 -2.0978 -1.4752  1.6278
  331MOL0     H44659   8.248   5.435   3.605  0.8081  1.0143  3.0121
  331MOL0     H44660   8.114   5.420   3.498 -0.7883 -3.0170  0.0959
  331MOL0     H44661   8.022   5.228   3.638  0.2949  1.5195  0.9716
  331MOL0     H44662   8.169   5.199   3.545  0.4008 -2.5095  1.3615
  331MOL0     H44663   8.155   5.237   3.842 -1.9163  0.5409 -1.2849
  331MOL0     H44664   8.307   5.230   3.744 -0.9217  2.8912 -1.1251
  331MOL0     H44665   8.089   5.016   3.717 -1.2761  2.2153  1.1723
  331MOL0     H44666   8.213   5.019   3.859 -2.0370  1.6918  1.0174
  331MOL0     H44667   7.571   5.497   4.050  0.0417 -1.7903  3.8520
  331MOL0     H44668   7.402   5.511   4.190  2.2063 -1.5610 -1.7293
  331MOL0     H44669   7.380   5.564   4.583 -0.3823 -1.1572 -2.7851
  331MOL0     H44670   7.291   5.487   4.786  0.7870  1.1492  0.2859
  331MOL0     H44671   7.170   5.145   4.590 -1.2744  3.1799  0.0087
  331MOL0     H44672   7.355   5.244   4.444  0.8272  0.5489 -0.0012
  331MOL0     H44673   7.712   5.617   4.493  0.7329 -1.4193  2.8353
  331MOL0     H44674   7.882   5.714   4.339  1.3085  0.2269 -1.0843
  331MOL0     H44675   8.199   5.463   4.205  1.3002 -0.9363 -0.3401
  331MOL0     H44676   8.113   5.425   4.058  3.0281  0.1546 -0.7930
  331MOL0     H44677   8.298   5.670   4.096  4.6423 -0.8088 -1.4294
  331MOL0     H44678   8.201   5.648   3.960  0.5163 -1.8638 -2.1239
  331MOL0     H44679   8.335   5.400   3.935  1.9400 -0.7251  1.7461
  331MOL0     H44680   8.442   5.481   4.043 -0.6502 -4.1557 -1.2721
  331MOL0     H44681   8.484   5.658   3.877  0.1475  0.8299 -3.3782
  331MOL0     H44682   8.355   5.609   3.766 -3.5756  0.7446  3.1467
  331MOL0     H44683   8.663   5.382   3.620 -0.9971 -1.0049  0.0734
  331MOL0     H44684   8.002   5.316   4.231 -2.8203 -1.3405 -1.6063
  331MOL0     H44685   7.817   5.227   4.387 -1.3922  0.3288 -0.0486
  332MOL0     O44686  10.658  10.971   0.483  0.2386  0.5926  0.5491
  332MOL0     C44687  10.658  11.092   0.473 -0.2933  0.0493 -0.6165
  332MOL0     O44688  10.736  11.174   0.391 -0.5258 -0.4021  0.2804
  332MOL0     C44689  10.830  11.130   0.299 -0.4235  0.0892 -0.7203
  332MOL0     C44690  10.920  11.227   0.258 -0.5074 -0.6996 -0.0403
  332MOL0     C44691  11.014  11.206   0.161  0.6921  0.0308  0.0943
  332MOL0     C44692  11.023  11.084   0.096 -1.4233 -0.2143 -0.2471
  332MOL0     O44693  11.115  11.055  -0.003 -0.0220 -0.2413 -0.4020
  332MOL0     C44694  11.193  11.154  -0.065  0.4275  0.0913 -0.6066
  332MOL0     C44695  11.280  11.089  -0.173  0.8919  0.3923 -0.6018
  332MOL0     C44696  11.196  11.043  -0.291 -0.9413  0.3499 -0.3546
  332MOL0     C44697  11.119  11.150  -0.357 -0.0825  0.3722 -0.5743
  332MOL0     C44698  11.053  11.110  -0.490  0.1674  0.4623 -0.3371
  332MOL0     C44699  11.004  11.220  -0.573 -0.1182  0.1741 -0.4975
  332MOL0     C44700  10.950  11.170  -0.702 -0.2796 -0.7060  0.2170
  332MOL0     C44701  10.929  11.283  -0.800  0.8182 -0.1322  0.5532
  332MOL0     N44702  10.822  11.373  -0.755  0.2951 -0.0857 -0.2713
  332MOL0     C44703  10.697  11.347  -0.753  0.8895 -0.2391 -1.4589
  332MOL0     C44704  10.638  11.457  -0.714  1.1225 -0.0580  0.3517
  332MOL0     C44705  10.487  11.477  -0.687 -0.0040 -0.0707  0.0258
  332MOL0     C44706  10.385  11.464  -0.804  1.0190 -0.0084  0.5519
  332MOL0     C44707  10.260  11.561  -0.791 -0.3555  0.3533  0.8405
  332MOL0     C44708  10.227  11.608  -0.934 -0.7437 -0.0300 -0.4347
  332MOL0     O44709  10.114  11.697  -0.932 -0.0688 -0.8330  1.0062
  332MOL0     C44710  10.022  11.706  -1.030 -0.0307  0.4233  0.5957
  332MOL0     C44711  10.045  11.680  -1.172 -0.1657  0.0907 -0.1084
  332MOL0     C44712   9.947  11.700  -1.272  0.2175  0.7992 -0.2019
  332MOL0     C44713  10.000  11.700  -1.418 -0.3147  0.6950 -0.3457
  332MOL0     C44714   9.809  11.735  -1.235 -0.1192  0.3470 -0.5715
  332MOL0     C44715   9.689  11.750  -1.329 -0.3486 -0.1294 -0.3255
  332MOL0     O44716   9.575  11.790  -1.266 -1.4142  0.4993 -0.2803
  332MOL0     C44717   9.465  11.813  -1.350  0.1716  0.5933 -0.1224
  332MOL0     C44718   9.413  11.713  -1.441 -0.5783 -0.3347 -0.4405
  332MOL0     C44719   9.301  11.747  -1.525  0.2500  0.6088 -0.7693
  332MOL0     C44720   9.234  11.870  -1.509  0.2074 -0.3734  0.3560
  332MOL0     O44721   9.115  11.900  -1.565 -0.8679  0.2790  0.7596
  332MOL0     C44722   9.047  11.803  -1.646  0.6292  0.3182  0.2204
  332MOL0     C44723   9.088  11.762  -1.785 -0.1290  0.0209 -0.4596
  332MOL0     C44724   9.094  11.893  -1.868  0.4669  1.2598  0.3811
  332MOL0     C44725   9.024  11.869  -2.004  0.5488 -1.2061  0.4746
  332MOL0     C44726   9.099  11.778  -2.111 -0.8642 -0.4134 -0.3403
  332MOL0     C44727   9.033  11.785  -2.252  0.1631 -0.4078 -0.1217
  332MOL0     C44728   9.002  11.923  -2.329  0.0278 -1.0353 -0.2394
  332MOL0     C44729   9.012  11.919  -2.481  0.2699  0.2321 -0.6665
  332MOL0    Cl44730   9.018  12.093  -2.526  0.0571 -0.4822  0.3660
  332MOL0     C44731   9.280  11.961  -1.412 -0.0053 -0.1246 -0.4774
  332MOL0     C44732   9.388  11.927  -1.329  0.4558 -0.0511  0.2885
  332MOL0     O44733   9.705  11.724  -1.449  0.5612  0.0751 -0.0520
  332MOL0     C44734   9.791  11.745  -1.093  0.0468 -0.5777 -0.0565
  332MOL0     C44735   9.892  11.738  -1.002 -0.2716  0.0185  0.6067
  332MOL0     N44736  10.726  11.557  -0.692 -0.4947  0.2267 -0.0368
  332MOL0     N44737  10.840  11.501  -0.716 -1.3310  0.5440  1.2956
  332MOL0     C44738  10.950  10.979   0.148  0.2612 -0.1795  0.4275
  332MOL0     C44739  10.849  10.999   0.245 -0.5274  0.6607 -0.7372
  332MOL0     C44740  10.552  11.169   0.548 -0.0617 -0.6425 -0.3498
  332MOL0     C44741  10.530  11.307   0.514 -0.6635  0.4172 -0.2123
  332MOL0     C44742  10.416  11.375   0.574  0.2813  0.2215 -0.4352
  332MOL0     C44743  10.335  11.313   0.669  0.4951 -0.1539  0.1526
  332MOL0     O44744  10.231  11.384   0.728 -0.1920 -0.0908  0.0008
  332MOL0     C44745  10.156  11.327   0.834 -0.0680 -0.7651  1.2225
  332MOL0     C44746  10.051  11.438   0.859  0.7137  0.2524  0.5779
  332MOL0     C44747   9.976  11.393   0.986 -0.2269  0.1496 -0.0323
  332MOL0     C44748   9.858  11.497   1.016 -0.2098  1.0121  0.7934
  332MOL0     C44749   9.885  11.637   0.991  0.2972 -0.1663 -0.6561
  332MOL0     C44750   9.909  11.761   0.970  0.1103  0.4550 -0.6143
  332MOL0     C44751  10.362  11.180   0.705  0.5498 -0.3814 -0.6362
  332MOL0     C44752  10.477  11.113   0.649  0.1822 -0.0933 -0.2523
  332MOL0     H44753  10.900  11.325   0.300 -3.9345 -0.7396 -1.2754
  332MOL0     H44754  11.091  11.278   0.134  0.7072 -0.2199 -0.5352
  332MOL0     H44755  11.139  11.237  -0.109  1.0914  1.0903  0.3904
  332MOL0     H44756  11.265  11.194   0.007 -0.3548 -0.0137  0.2578
  332MOL0     H44757  11.360  11.161  -0.193  1.8706  0.0910  1.8586
  332MOL0     H44758  11.329  11.009  -0.117  1.1366  1.9655  1.5856
  332MOL0     H44759  11.263  11.006  -0.369 -2.0423 -1.1982 -0.6138
  332MOL0     H44760  11.129  10.964  -0.255  0.3894 -0.2816  0.8149
  332MOL0     H44761  11.035  11.182  -0.294 -2.0043 -0.2080 -2.7181
  332MOL0     H44762  11.190  11.232  -0.372 -0.5834  0.8980 -0.1648
  332MOL0     H44763  11.129  11.057  -0.547  0.9798 -0.5107  1.5765
  332MOL0     H44764  10.969  11.042  -0.474 -0.5837  1.0512 -1.6234
  332MOL0     H44765  10.919  11.271  -0.527 -1.5456 -1.7607 -0.8778
  332MOL0     H44766  11.091  11.283  -0.594 -0.9717  0.8160 -2.3125
  332MOL0     H44767  11.018  11.098  -0.749 -1.4878 -0.0295 -2.7839
  332MOL0     H44768  10.856  11.116  -0.686 -1.3866  1.1257  0.1788
  332MOL0     H44769  10.910  11.240  -0.899  0.1334 -1.3747  1.2125
  332MOL0     H44770  11.023  11.340  -0.799  0.2650  1.0616 -2.5358
  332MOL0     H44771  10.638  11.258  -0.769 -1.7144  1.3082 -1.1997
  332MOL0     H44772  10.445  11.412  -0.610 -2.6470  2.0492  0.5101
  332MOL0     H44773  10.488  11.580  -0.649  1.8058 -0.0108 -0.1301
  332MOL0     H44774  10.349  11.362  -0.819  1.7894 -0.1622 -0.3475
  332MOL0     H44775  10.441  11.486  -0.895  3.5589 -0.2941  1.9307
  332MOL0     H44776  10.284  11.654  -0.738 -2.1502  1.8693 -0.8345
  332MOL0     H44777  10.173  11.517  -0.742  1.0189 -1.5300  1.7254
  332MOL0     H44778  10.217  11.515  -0.991  3.1944 -3.0233  3.0962
  332MOL0     H44779  10.318  11.656  -0.969  0.9122 -1.5380  1.5084
  332MOL0     H44780  10.142  11.648  -1.207  0.5652  1.4752  0.5642
  332MOL0     H44781  10.107  11.678  -1.423 -0.3487 -0.0458  1.4642
  332MOL0     H44782   9.943  11.617  -1.462 -1.3742  0.0139  2.1350
  332MOL0     H44783   9.976  11.796  -1.465  2.0858  1.1094 -0.8256
  332MOL0     H44784   9.475  11.625  -1.446  1.0105  0.6545  0.8565
  332MOL0     H44785   9.261  11.666  -1.585  0.1846  1.8741 -2.5417
  332MOL0     H44786   9.054  11.711  -1.587 -2.2792 -1.3963 -1.8446
  332MOL0     H44787   8.944  11.840  -1.650  1.1343  1.6822 -0.9996
  332MOL0     H44788   9.190  11.722  -1.780  0.3801  0.7309 -3.3098
  332MOL0     H44789   9.029  11.680  -1.826 -0.2916  0.2047 -0.5914
  332MOL0     H44790   9.198  11.924  -1.884  0.8235 -0.5199 -1.1600
  332MOL0     H44791   9.042  11.972  -1.813  0.7407 -0.7979  3.8709
  332MOL0     H44792   8.930  11.820  -1.977  1.8322 -2.8564  2.2202
  332MOL0     H44793   9.007  11.962  -2.059  1.1334 -3.4196 -3.9341
  332MOL0     H44794   9.110  11.675  -2.077 -3.1519 -0.7595 -0.4494
  332MOL0     H44795   9.193  11.833  -2.117 -0.3090 -1.4358 -1.1706
  332MOL0     H44796   9.089  11.718  -2.318  1.8375  1.0504 -0.2550
  332MOL0     H44797   8.931  11.747  -2.240 -0.2899 -0.3320 -3.1530
  332MOL0     H44798   9.075  11.994  -2.291 -1.4506 -0.6832  2.1270
  332MOL0     H44799   8.908  11.965  -2.293  0.5544  0.0741 -0.1394
  332MOL0     H44800   8.932  11.862  -2.528  1.2895 -1.1051 -0.8632
  332MOL0     H44801   9.106  11.871  -2.511 -0.4699 -1.8747  0.2192
  332MOL0     H44802   9.239  12.059  -1.390  0.1181  0.4499 -2.5804
  332MOL0     H44803   9.407  12.002  -1.253  4.0457 -0.4430 -0.0856
  332MOL0     H44804   9.690  11.748  -1.054 -0.3578  1.2496 -1.0939
  332MOL0     H44805   9.874  11.755  -0.896  2.6090 -4.9834  2.2328
  332MOL0     H44806  10.980  10.882   0.110  1.3324  0.9832 -1.9137
  332MOL0     H44807  10.790  10.910   0.262  0.6909 -0.7024 -3.0624
  332MOL0     H44808  10.598  11.355   0.445 -0.1848  1.0424  0.6796
  332MOL0     H44809  10.403  11.480   0.551  2.0383  0.5414 -0.1103
  332MOL0     H44810  10.117  11.227   0.811  0.7523 -0.3259 -2.7107
  332MOL0     H44811  10.215  11.308   0.924  0.0565 -1.3261  1.0290
  332MOL0     H44812   9.980  11.456   0.777 -1.7932  1.3464  2.8185
  332MOL0     H44813  10.102  11.533   0.873  2.8516 -0.1997 -2.9294
  332MOL0     H44814  10.041  11.375   1.073 -0.4979 -1.3692 -0.1053
  332MOL0     H44815   9.924  11.298   0.971  3.1134 -1.8130 -0.2552
  332MOL0     H44816   9.824  11.482   1.119  1.2428  0.7060  1.2479
  332MOL0     H44817   9.767  11.482   0.957  2.2658 -0.3684 -3.0448
  332MOL0     H44818   9.937  11.859   0.939  0.2541  0.9611  1.0421
  332MOL0     H44819  10.310  11.121   0.779  0.5452  1.2155  0.6851
  332MOL0     H44820  10.483  11.011   0.685 -0.6423  0.1981  0.7782
  333MOL0     O44821   2.796   7.283   6.664 -0.4269 -0.1800  0.4145
  333MOL0     C44822   2.680   7.237   6.676 -0.8317  0.6456 -0.7619
  333MOL0     O44823   2.641   7.152   6.782 -0.3508  0.1734 -0.3282
  333MOL0     C44824   2.743   7.133   6.877  0.1719 -0.4860  0.5971
  333MOL0     C44825   2.859   7.068   6.843  0.5383  0.6227  0.1158
  333MOL0     C44826   2.962   7.066   6.940  1.3910 -0.4957  0.4656
  333MOL0     C44827   2.948   7.124   7.068 -0.0160 -0.2908  0.0282
  333MOL0     O44828   3.058   7.131   7.151 -0.1720 -0.4676 -0.1738
  333MOL0     C44829   3.061   7.233   7.252  0.4004 -0.5749 -0.2786
  333MOL0     C44830   3.195   7.218   7.326 -1.1571  0.0629  0.1599
  333MOL0     C44831   3.220   7.322   7.442  0.5972  0.4432 -0.5672
  333MOL0     C44832   3.347   7.281   7.515 -0.8515 -0.0487  0.0373
  333MOL0     C44833   3.406   7.409   7.581 -0.0617  0.1721 -0.1361
  333MOL0     C44834   3.325   7.459   7.696 -1.2356  0.6694  0.4843
  333MOL0     C44835   3.376   7.585   7.762  0.2939  0.0459 -0.1938
  333MOL0     C44836   3.435   7.692   7.666  0.3013  1.1544 -1.2326
  333MOL0     N44837   3.480   7.805   7.738 -0.7518 -0.4375 -0.3390
  333MOL0     C44838   3.573   7.812   7.841 -0.6730  0.7588 -0.2569
  333MOL0     C44839   3.564   7.937   7.883 -0.0849 -1.0509  1.1243
  333MOL0     C44840   3.638   8.006   7.993  0.9728 -0.6359  0.2470
  333MOL0     C44841   3.603   7.944   8.127 -0.0868 -0.0967 -0.3681
  333MOL0     C44842   3.665   8.011   8.250  1.0217 -0.2664  0.1928
  333MOL0     C44843   3.781   8.101   8.224 -0.3954 -0.0234  1.0803
  333MOL0     O44844   3.886   8.037   8.155 -0.1023  1.0744  0.4114
  333MOL0     C44845   4.015   8.029   8.205  0.1633 -0.2840 -0.1391
  333MOL0     C44846   4.060   8.018   8.337  0.2946  0.1135  0.0228
  333MOL0     C44847   4.193   8.020   8.372  0.8547  0.7586  0.2923
  333MOL0     C44848   4.228   7.975   8.517  0.2801  0.3060 -0.2405
  333MOL0     C44849   4.292   8.063   8.270  0.0345 -0.2563  0.2901
  333MOL0     C44850   4.425   8.086   8.301 -0.6638 -0.0919 -0.2746
  333MOL0     O44851   4.510   8.096   8.194 -0.8784  0.0588 -0.6337
  333MOL0     C44852   4.637   8.154   8.196  0.0530 -0.3076  0.4527
  333MOL0     C44853   4.728   8.149   8.303 -0.1993  0.0846 -0.3077
  333MOL0     C44854   4.862   8.198   8.291  0.1692 -0.1860 -0.0791
  333MOL0     C44855   4.909   8.266   8.179  0.0742  0.5290  0.2314
  333MOL0     O44856   5.028   8.337   8.184 -0.5769  0.0658  0.6156
  333MOL0     C44857   5.095   8.373   8.058  0.3932  0.1265  0.5401
  333MOL0     C44858   5.043   8.509   8.025  0.8939  0.2179  0.1152
  333MOL0     C44859   5.105   8.576   7.902 -0.0492  0.3474  0.9195
  333MOL0     C44860   5.000   8.670   7.842 -0.5272  0.0975  0.0439
  333MOL0     C44861   5.040   8.716   7.704 -0.2450 -0.0445  0.3029
  333MOL0     C44862   4.912   8.751   7.625  0.0920  0.3826 -0.3277
  333MOL0     C44863   4.860   8.637   7.536  0.9133 -0.3781  0.6114
  333MOL0     C44864   4.753   8.674   7.440  0.8272  0.7890 -0.0801
  333MOL0    Cl44865   4.795   8.793   7.322 -0.0102 -0.3324 -0.0521
  333MOL0     C44866   4.828   8.256   8.065  0.4758 -0.1145 -0.3727
  333MOL0     C44867   4.697   8.198   8.072  0.7136 -0.3228 -0.2864
  333MOL0     O44868   4.456   8.113   8.421  0.0296  0.8030  0.1168
  333MOL0     C44869   4.247   8.087   8.140  1.0369  0.0965 -0.0513
  333MOL0     C44870   4.112   8.060   8.106  0.5232  0.6864 -0.0476
  333MOL0     N44871   3.474   8.009   7.799 -0.0875  0.5552  0.1356
  333MOL0     N44872   3.435   7.925   7.708 -0.2018 -0.7561  0.6549
  333MOL0     C44873   2.830   7.194   7.095  0.9848 -0.0666 -0.1832
  333MOL0     C44874   2.727   7.192   7.003 -0.4929  1.1175 -0.3051
  333MOL0     C44875   2.580   7.280   6.579 -0.1750  0.1705 -0.6808
  333MOL0     C44876   2.474   7.201   6.540  0.0806 -0.7736  0.3075
  333MOL0     C44877   2.378   7.236   6.450  0.0083 -0.4186 -0.0582
  333MOL0     C44878   2.394   7.364   6.389 -0.9661  0.7509 -0.6602
  333MOL0     O44879   2.296   7.405   6.306 -0.2576  0.3790  0.4737
  333MOL0     C44880   2.319   7.509   6.215 -0.0385 -0.5680 -1.1722
  333MOL0     C44881   2.254   7.635   6.253 -0.1732 -0.4906 -0.4458
  333MOL0     C44882   2.262   7.742   6.138  0.1198  0.8633 -0.6231
  333MOL0     C44883   2.175   7.693   6.025 -0.0262 -0.1655  1.2416
  333MOL0     C44884   2.249   7.629   5.911 -0.1594  0.7454  0.3465
  333MOL0     C44885   2.294   7.581   5.809 -0.2213 -0.5637 -0.3367
  333MOL0     C44886   2.511   7.440   6.420 -0.6119 -0.0666 -0.7581
  333MOL0     C44887   2.595   7.407   6.520 -0.1215  1.1885 -0.9360
  333MOL0     H44888   2.886   7.029   6.746  0.4677  1.1571 -0.1257
  333MOL0     H44889   3.059   7.023   6.916  1.9735 -2.5949  5.3678
  333MOL0     H44890   3.040   7.333   7.213  2.3827 -0.1867 -0.4652
  333MOL0     H44891   2.998   7.209   7.338  2.1617 -0.5031  1.0981
  333MOL0     H44892   3.205   7.120   7.374  3.5043  0.8751  1.3385
  333MOL0     H44893   3.277   7.206   7.255 -0.8063 -0.0540  0.5761
  333MOL0     H44894   3.235   7.422   7.402 -1.7265  1.7753  1.6218
  333MOL0     H44895   3.137   7.341   7.510  1.5287 -1.4734  1.2530
  333MOL0     H44896   3.332   7.210   7.597  1.7469  0.9486  1.4991
  333MOL0     H44897   3.423   7.238   7.448  1.6328  1.9587  1.3681
  333MOL0     H44898   3.504   7.387   7.623  0.5624  1.5052 -0.8265
  333MOL0     H44899   3.415   7.484   7.501 -1.0837 -1.6273 -2.0272
  333MOL0     H44900   3.228   7.492   7.657 -1.1187 -0.6353 -1.0141
  333MOL0     H44901   3.308   7.382   7.772  1.0740  0.8082  1.2062
  333MOL0     H44902   3.296   7.631   7.822 -1.1803 -0.4817 -1.6722
  333MOL0     H44903   3.462   7.555   7.823  1.0851  1.0024 -0.8201
  333MOL0     H44904   3.344   7.717   7.610 -0.6807  0.5228  0.0321
  333MOL0     H44905   3.518   7.650   7.607 -0.5951 -0.7246 -1.2496
  333MOL0     H44906   3.638   7.735   7.881 -0.7065  0.8839  0.0417
  333MOL0     H44907   3.741   8.015   7.958  0.4029  0.1086 -1.3178
  333MOL0     H44908   3.612   8.112   7.997 -1.5286 -1.0155 -2.4835
  333MOL0     H44909   3.618   7.836   8.128 -0.9695 -0.2568  1.8686
  333MOL0     H44910   3.495   7.945   8.142  0.2294  0.1368  2.5636
  333MOL0     H44911   3.692   7.941   8.330 -0.5794 -1.1715 -0.0108
  333MOL0     H44912   3.594   8.074   8.304 -2.2729 -2.2361 -1.5194
  333MOL0     H44913   3.816   8.149   8.316  1.6102  3.0301 -1.0831
  333MOL0     H44914   3.754   8.180   8.154  1.0891 -1.0190 -0.6816
  333MOL0     H44915   3.996   8.014   8.425 -1.2002 -0.3814 -1.0579
  333MOL0     H44916   4.147   7.908   8.548  0.9179 -2.1122 -3.2672
  333MOL0     H44917   4.321   7.918   8.509 -0.1582 -0.2433 -1.8645
  333MOL0     H44918   4.250   8.047   8.596 -0.9982 -0.7236  1.1115
  333MOL0     H44919   4.703   8.094   8.393 -0.2934 -3.1024 -2.1354
  333MOL0     H44920   4.934   8.175   8.369 -0.3404  2.4821  1.3084
  333MOL0     H44921   5.204   8.364   8.062  0.4603  1.1491  1.3003
  333MOL0     H44922   5.071   8.305   7.975 -1.0846 -1.4326  2.1523
  333MOL0     H44923   4.937   8.510   7.998  1.3335  0.5026 -1.7339
  333MOL0     H44924   5.060   8.568   8.115 -1.6941 -1.9919  2.2545
  333MOL0     H44925   5.115   8.488   7.838  0.3273  1.2129 -0.2428
  333MOL0     H44926   5.204   8.620   7.916  1.2065 -1.6153 -1.2119
  333MOL0     H44927   4.900   8.626   7.837 -0.1558 -0.9639  1.4456
  333MOL0     H44928   4.994   8.756   7.909 -0.8642 -0.2137  0.4143
  333MOL0     H44929   5.094   8.635   7.654 -0.7402  0.2872 -0.8170
  333MOL0     H44930   5.114   8.796   7.707  2.5175 -2.4721  1.3037
  333MOL0     H44931   4.833   8.790   7.689  0.4368  1.1805 -0.3706
  333MOL0     H44932   4.954   8.832   7.564 -0.5590  1.3056  0.4335
  333MOL0     H44933   4.831   8.555   7.602 -0.0249  0.1697  0.9154
  333MOL0     H44934   4.942   8.602   7.473 -0.7272  0.4047 -2.1732
  333MOL0     H44935   4.660   8.699   7.491  1.9260  2.6103  1.1428
  333MOL0     H44936   4.735   8.593   7.369 -1.2237  2.0491 -1.1031
  333MOL0     H44937   4.851   8.292   7.965 -1.6583 -0.4456 -1.0277
  333MOL0     H44938   4.623   8.190   7.993 -2.5206 -0.4523  2.5062
  333MOL0     H44939   4.309   8.118   8.057 -0.6980 -0.1882 -1.5208
  333MOL0     H44940   4.085   8.076   8.002 -0.8332 -0.9185  0.0229
  333MOL0     H44941   2.813   7.247   7.188  3.0911  1.2560 -0.4797
  333MOL0     H44942   2.627   7.234   7.012  0.5136  3.5138  0.5386
  333MOL0     H44943   2.466   7.105   6.590 -0.2183 -1.5151 -1.0898
  333MOL0     H44944   2.290   7.182   6.416 -0.7485  0.0222  1.1604
  333MOL0     H44945   2.425   7.523   6.193 -0.2222 -0.2989 -1.9156
  333MOL0     H44946   2.273   7.479   6.121  2.0042 -2.2283 -1.7093
  333MOL0     H44947   2.309   7.686   6.333 -0.1287  3.5004 -2.7222
  333MOL0     H44948   2.147   7.627   6.276 -1.3977  1.1251 -4.5297
  333MOL0     H44949   2.366   7.763   6.108  1.0466 -2.0363  0.1731
  333MOL0     H44950   2.223   7.834   6.180 -1.7637 -0.4734  0.7153
  333MOL0     H44951   2.122   7.781   5.987  3.6333  1.4364 -0.7141
  333MOL0     H44952   2.109   7.610   6.053 -0.9352  0.3526  0.6990
  333MOL0     H44953   2.331   7.540   5.717 -1.2685 -1.2919 -0.4431
  333MOL0     H44954   2.527   7.539   6.377 -0.8824  0.7819  0.9872
  333MOL0     H44955   2.673   7.478   6.545 -1.1147  2.7126 -1.9671
  334MOL0     O44956   0.098   3.631   6.660 -0.1180 -0.9055 -0.1412
  334MOL0     C44957   0.159   3.679   6.752  0.6433 -0.0042  0.4640
  334MOL0     O44958   0.292   3.703   6.750 -0.4095  0.1511  0.4220
  334MOL0     C44959   0.386   3.628   6.671  0.1112  1.0215  0.3387
  334MOL0     C44960   0.514   3.679   6.670  0.1858  0.4146 -0.4849
  334MOL0     C44961   0.627   3.607   6.612  1.2503 -0.0732 -0.3718
  334MOL0     C44962   0.604   3.485   6.550  0.5340  0.2244  0.0590
  334MOL0     O44963   0.707   3.405   6.504  0.5823 -0.0507  0.0796
  334MOL0     C44964   0.748   3.298   6.582  0.7214  0.0302  0.3935
  334MOL0     C44965   0.698   3.157   6.535 -0.1636 -1.0345 -0.3211
  334MOL0     C44966   0.751   3.123   6.397 -0.6917  0.3408  0.0320
  334MOL0     C44967   0.907   3.122   6.401  0.1809  0.8419 -0.6390
  334MOL0     C44968   0.952   3.056   6.275  0.4868  0.5901 -0.3226
  334MOL0     C44969   0.938   2.908   6.270 -0.5553  0.8944  0.0541
  334MOL0     C44970   0.978   2.856   6.128  0.6499 -0.6335 -0.0461
  334MOL0     C44971   1.124   2.848   6.112  0.0202  0.7047  0.4700
  334MOL0     N44972   1.198   2.788   6.228  1.0088  0.7037 -0.2685
  334MOL0     C44973   1.192   2.654   6.258 -0.4441  0.2017 -0.5142
  334MOL0     C44974   1.279   2.655   6.364  0.4315  0.7762 -0.1436
  334MOL0     C44975   1.286   2.534   6.458  1.0864  0.1570 -0.5211
  334MOL0     C44976   1.321   2.576   6.598 -0.3544 -0.6701 -0.9352
  334MOL0     C44977   1.312   2.449   6.676 -0.3348  0.2288  0.1766
  334MOL0     C44978   1.326   2.472   6.823 -0.7363 -0.3377 -0.0533
  334MOL0     O44979   1.243   2.584   6.868 -0.2826  0.6651  0.1494
  334MOL0     C44980   1.301   2.691   6.930 -0.5714  0.1496 -0.0130
  334MOL0     C44981   1.229   2.742   7.036  0.0653 -0.1228  0.0060
  334MOL0     C44982   1.269   2.851   7.113 -0.4895 -0.1148  0.6617
  334MOL0     C44983   1.199   2.882   7.238 -1.1408 -0.4804 -0.2525
  334MOL0     C44984   1.394   2.924   7.074 -0.5209  0.6966 -0.3366
  334MOL0     C44985   1.446   3.050   7.146  0.3981  1.2521  0.4710
  334MOL0     O44986   1.579   3.089   7.129 -0.3834 -0.1163  0.2521
  334MOL0     C44987   1.645   3.174   7.216  0.4817  0.3048  0.4203
  334MOL0     C44988   1.774   3.154   7.256 -0.2946 -0.8063  0.6457
  334MOL0     C44989   1.832   3.237   7.350  0.8739 -1.0062 -0.0934
  334MOL0     C44990   1.760   3.343   7.411  0.5681  0.2417  0.1407
  334MOL0     O44991   1.810   3.410   7.516 -0.1200 -0.1169 -0.8056
  334MOL0     C44992   1.897   3.520   7.479  0.1449  0.7940  0.3485
  334MOL0     C44993   1.966   3.568   7.605  0.1816 -0.2599 -0.0160
  334MOL0     C44994   2.112   3.514   7.612  0.4744  0.2580  0.3236
  334MOL0     C44995   2.091   3.363   7.658 -0.8744  0.1140  0.2255
  334MOL0     C44996   2.231   3.321   7.705  0.6407 -0.3252 -0.0753
  334MOL0     C44997   2.225   3.176   7.755  0.2243  0.2035  0.3241
  334MOL0     C44998   2.353   3.092   7.765 -0.9014  0.5017  0.0621
  334MOL0     C44999   2.401   3.032   7.631 -0.0541 -0.7923 -0.2960
  334MOL0    Cl45000   2.566   2.957   7.627  0.2279  0.1078 -0.3074
  334MOL0     C45001   1.638   3.371   7.360  0.8160  1.3586  0.7758
  334MOL0     C45002   1.582   3.287   7.265  0.0850 -0.6134 -0.0731
  334MOL0     O45003   1.364   3.122   7.193  0.2207  0.1769 -0.3919
  334MOL0     C45004   1.463   2.870   6.961  0.2006 -0.6834  0.5159
  334MOL0     C45005   1.421   2.761   6.889 -0.1026 -0.3109 -0.3502
  334MOL0     N45006   1.336   2.779   6.381 -0.5669  0.6618  0.5439
  334MOL0     N45007   1.288   2.865   6.300  0.1969  0.3297 -0.7270
  334MOL0     C45008   0.475   3.437   6.554  0.0139  0.1564  0.2809
  334MOL0     C45009   0.364   3.502   6.607 -0.7212  0.5675 -1.1015
  334MOL0     C45010   0.084   3.737   6.861  0.0677  0.0099  0.3037
  334MOL0     C45011   0.143   3.749   6.987 -0.2754 -0.5065 -0.5232
  334MOL0     C45012   0.074   3.813   7.095 -0.4555  0.4180 -0.3379
  334MOL0     C45013  -0.061   3.841   7.088 -1.0401 -0.2461 -0.1698
  334MOL0     O45014  -0.134   3.905   7.187 -0.2509  0.1880  0.4777
  334MOL0     C45015  -0.076   3.946   7.308 -0.0642 -0.2302 -0.5807
  334MOL0     C45016   0.010   4.074   7.294  0.3139  1.0061  0.5463
  334MOL0     C45017   0.027   4.131   7.440 -0.2413  0.3362  0.2097
  334MOL0     C45018   0.084   4.276   7.447 -1.0224  1.1585 -0.5908
  334MOL0     C45019  -0.003   4.379   7.386 -0.2823  0.9491 -0.5213
  334MOL0     C45020  -0.078   4.453   7.333  0.2548 -0.7951 -0.1961
  334MOL0     C45021  -0.127   3.812   6.966 -1.2667 -0.7831  0.9015
  334MOL0     C45022  -0.058   3.757   6.853  0.6416 -0.8183 -0.3719
  334MOL0     H45023   0.528   3.774   6.719 -0.9122 -0.9197  2.7007
  334MOL0     H45024   0.730   3.642   6.614  1.3838 -0.5061  0.7316
  334MOL0     H45025   0.857   3.293   6.587  0.9190 -2.4507 -2.7514
  334MOL0     H45026   0.719   3.317   6.685 -1.5263 -0.1740 -0.1351
  334MOL0     H45027   0.709   3.089   6.619  1.8668  2.2948  2.3615
  334MOL0     H45028   0.591   3.176   6.527 -0.2230  0.0480  2.2149
  334MOL0     H45029   0.725   3.020   6.371  0.3530  0.6502 -2.5116
  334MOL0     H45030   0.713   3.186   6.316  1.6148  0.3492 -1.1368
  334MOL0     H45031   0.945   3.224   6.411  0.5947  0.6552 -0.2691
  334MOL0     H45032   0.932   3.053   6.483  0.6904  1.5890 -0.1590
  334MOL0     H45033   0.906   3.108   6.191  1.7859  1.6704 -0.4004
  334MOL0     H45034   1.057   3.077   6.255  1.0815 -2.1827 -0.4564
  334MOL0     H45035   1.004   2.866   6.347  0.2153  1.6233 -0.1882
  334MOL0     H45036   0.836   2.878   6.296 -0.2163  0.2900  0.7219
  334MOL0     H45037   0.937   2.756   6.110 -0.4321 -0.1273 -0.4990
  334MOL0     H45038   0.943   2.927   6.052  3.1148  0.1020 -0.5696
  334MOL0     H45039   1.154   2.951   6.092 -4.6793  2.0815 -0.7419
  334MOL0     H45040   1.155   2.784   6.028  2.2798 -2.1913  3.2715
  334MOL0     H45041   1.117   2.583   6.224 -2.2774 -0.2043  3.7433
  334MOL0     H45042   1.193   2.477   6.467  1.6922 -0.5738  2.8852
  334MOL0     H45043   1.364   2.466   6.421  1.6784 -0.3956  1.5869
  334MOL0     H45044   1.253   2.654   6.631  0.6515  1.1242 -2.8503
  334MOL0     H45045   1.423   2.615   6.608 -1.6966  3.0061  0.0574
  334MOL0     H45046   1.386   2.376   6.641 -2.2153 -0.5830 -2.4327
  334MOL0     H45047   1.217   2.398   6.662 -0.1878 -0.0781  0.2864
  334MOL0     H45048   1.433   2.487   6.837 -0.3677 -1.9059 -0.8661
  334MOL0     H45049   1.305   2.379   6.876  2.4286 -1.1730 -0.0723
  334MOL0     H45050   1.142   2.687   7.070 -0.3594  0.6058  0.1201
  334MOL0     H45051   1.147   2.975   7.215  3.8194  2.4340 -1.0874
  334MOL0     H45052   1.136   2.796   7.263 -0.2292 -1.2667 -0.5897
  334MOL0     H45053   1.272   2.896   7.318 -1.8374 -0.9096  0.4817
  334MOL0     H45054   1.824   3.064   7.224  1.5127  0.3772 -0.0256
  334MOL0     H45055   1.925   3.216   7.402 -0.5392  0.8692  3.5685
  334MOL0     H45056   1.967   3.480   7.406 -1.8331 -2.3932 -0.0170
  334MOL0     H45057   1.843   3.608   7.445  0.7779  0.3304 -2.0006
  334MOL0     H45058   1.983   3.675   7.589  1.2008 -0.7358 -2.6284
  334MOL0     H45059   1.908   3.558   7.697 -2.1830  1.0345 -1.2971
  334MOL0     H45060   2.168   3.579   7.681 -1.2564  1.6318  0.4935
  334MOL0     H45061   2.164   3.529   7.517 -2.4486 -0.1652 -1.4393
  334MOL0     H45062   2.014   3.341   7.733 -0.3611 -2.5219  0.0640
  334MOL0     H45063   2.063   3.312   7.565 -0.2255  2.1068 -1.1387
  334MOL0     H45064   2.263   3.384   7.788 -0.0161 -1.8423  1.3847
  334MOL0     H45065   2.297   3.321   7.617  0.7122  2.4209 -0.0988
  334MOL0     H45066   2.195   3.167   7.859  1.9791 -2.6226  0.6911
  334MOL0     H45067   2.154   3.125   7.690 -0.2695  1.6677 -0.3498
  334MOL0     H45068   2.327   3.002   7.822 -3.1888 -0.9193 -2.9739
  334MOL0     H45069   2.436   3.150   7.806 -0.2356 -0.2938 -0.1237
  334MOL0     H45070   2.395   3.097   7.543  1.3525  0.2197  0.3238
  334MOL0     H45071   2.349   2.940   7.600  1.8211 -0.8005 -4.0511
  334MOL0     H45072   1.595   3.466   7.389  2.7043  2.3753  0.3993
  334MOL0     H45073   1.481   3.303   7.230 -0.6632 -0.4928  2.0187
  334MOL0     H45074   1.552   2.924   6.930  1.0474 -1.7571  1.0040
  334MOL0     H45075   1.475   2.721   6.804  0.9898  2.0663 -0.8283
  334MOL0     H45076   0.458   3.344   6.502  0.3848 -0.2099  0.8129
  334MOL0     H45077   0.260   3.471   6.613 -0.9810  1.6703  1.5503
  334MOL0     H45078   0.240   3.704   7.007 -0.2188  0.0631  0.5405
  334MOL0     H45079   0.123   3.814   7.192  0.8603 -1.9451 -0.8868
  334MOL0     H45080  -0.160   3.968   7.375  1.2185 -0.0028  1.0115
  334MOL0     H45081  -0.016   3.864   7.349 -0.2624 -0.0871 -0.0004
  334MOL0     H45082  -0.025   4.150   7.224  0.5128  0.1670 -0.4865
  334MOL0     H45083   0.111   4.045   7.263  0.1729  0.4126  0.6245
  334MOL0     H45084   0.084   4.061   7.502  1.1394  1.1915 -0.0325
  334MOL0     H45085  -0.075   4.135   7.477  0.6010 -1.5650  3.0669
  334MOL0     H45086   0.165   4.271   7.374 -0.8614 -0.3060 -0.3366
  334MOL0     H45087   0.118   4.297   7.549 -3.0448  1.2481  0.1088
  334MOL0     H45088  -0.154   4.520   7.298 -1.2958 -2.1799  0.3930
  334MOL0     H45089  -0.226   3.853   6.953 -0.5811 -0.0293 -3.5281
  334MOL0     H45090  -0.098   3.725   6.758  1.8251 -4.6100  0.2318
  335MOL0     O45091   0.603   5.247   1.828 -0.2585 -0.1199 -0.0028
  335MOL0     C45092   0.538   5.329   1.763  0.3909 -0.3079  0.5435
  335MOL0     O45093   0.565   5.375   1.633  0.1782  0.1227 -0.8345
  335MOL0     C45094   0.664   5.311   1.564 -0.9681 -0.6634  0.7418
  335MOL0     C45095   0.787   5.276   1.620  0.2150 -0.3934 -1.1946
  335MOL0     C45096   0.862   5.180   1.548 -0.0317 -0.7083  0.0247
  335MOL0     C45097   0.835   5.136   1.418  0.5388  0.0721 -0.3909
  335MOL0     O45098   0.932   5.053   1.372  0.2899 -0.4118 -0.2092
  335MOL0     C45099   0.903   5.002   1.244  0.9790 -0.1879  0.4109
  335MOL0     C45100   1.024   4.918   1.188  0.8307 -0.6245 -0.5098
  335MOL0     C45101   0.977   4.796   1.106  0.1283 -0.5762 -0.4319
  335MOL0     C45102   0.881   4.832   0.990 -0.8977  0.5391 -0.5056
  335MOL0     C45103   0.826   4.709   0.914 -0.0854  0.6320  0.1278
  335MOL0     C45104   0.939   4.613   0.859  0.2008 -0.2464  0.5170
  335MOL0     C45105   0.895   4.487   0.770 -0.6740 -0.4102  0.8403
  335MOL0     C45106   0.820   4.527   0.639 -0.6701  0.4029  0.4712
  335MOL0     N45107   0.833   4.414   0.539 -0.1195 -0.0481  0.1755
  335MOL0     C45108   0.901   4.412   0.419 -0.5127  0.1974 -0.4788
  335MOL0     C45109   0.876   4.280   0.374  0.9095 -0.7194 -0.4096
  335MOL0     C45110   0.912   4.233   0.235 -0.9547 -0.1337 -0.5200
  335MOL0     C45111   1.062   4.267   0.203 -0.0498  0.4571 -0.1410
  335MOL0     C45112   1.116   4.212   0.062  0.6483  0.6070 -0.5951
  335MOL0     C45113   1.225   4.302   0.019 -0.2344  0.8860 -0.1283
  335MOL0     O45114   1.256   4.259  -0.113  0.1024 -0.2526 -0.4767
  335MOL0     C45115   1.377   4.298  -0.160 -0.3381 -0.0768 -0.3656
  335MOL0     C45116   1.396   4.425  -0.221 -0.4976  0.7082 -0.3236
  335MOL0     C45117   1.529   4.475  -0.252  0.0729  0.1668 -1.0587
  335MOL0     C45118   1.562   4.611  -0.315 -0.2154 -0.2375  0.0981
  335MOL0     C45119   1.639   4.391  -0.217  0.6845 -0.4576 -0.7223
  335MOL0     C45120   1.779   4.431  -0.228  1.1998 -0.6228  0.1568
  335MOL0     O45121   1.818   4.510  -0.334 -0.0864 -0.0586  0.5347
  335MOL0     C45122   1.955   4.523  -0.353  0.4423 -0.0430 -1.0058
  335MOL0     C45123   2.018   4.506  -0.477 -0.7790  0.3060 -0.1240
  335MOL0     C45124   2.156   4.531  -0.494 -0.5457 -0.2844 -0.3923
  335MOL0     C45125   2.236   4.582  -0.393  0.0168  0.7384 -0.5640
  335MOL0     O45126   2.369   4.609  -0.391  0.5145  0.7290  0.7756
  335MOL0     C45127   2.434   4.541  -0.495 -0.0546 -0.2668  0.1158
  335MOL0     C45128   2.572   4.609  -0.531 -0.3920 -0.1096 -0.6686
  335MOL0     C45129   2.675   4.568  -0.434  0.0059 -0.8672  0.1064
  335MOL0     C45130   2.740   4.434  -0.466 -0.2382  0.4519 -0.7207
  335MOL0     C45131   2.815   4.434  -0.599  0.4577  0.0054  0.3988
  335MOL0     C45132   2.877   4.295  -0.619  0.5361 -0.6977 -0.7770
  335MOL0     C45133   2.997   4.248  -0.550  0.1491  0.0651 -0.6491
  335MOL0     C45134   3.035   4.103  -0.588  0.3819 -0.2444  0.1709
  335MOL0    Cl45135   3.188   4.075  -0.513 -0.0682  0.2999  0.0281
  335MOL0     C45136   2.165   4.620  -0.273 -0.1317  0.4074 -0.2231
  335MOL0     C45137   2.028   4.582  -0.247 -0.2956  0.4122  0.0915
  335MOL0     O45138   1.852   4.381  -0.146 -0.6384  0.2961 -0.6516
  335MOL0     C45139   1.619   4.258  -0.172 -0.3786 -0.2829 -0.4943
  335MOL0     C45140   1.491   4.222  -0.141 -0.5327  0.2916  0.1073
  335MOL0     N45141   0.790   4.221   0.469 -0.4842  0.0539  0.5324
  335MOL0     N45142   0.766   4.301   0.569 -0.5105  0.2761 -0.5416
  335MOL0     C45143   0.707   5.164   1.365 -0.7307 -0.0589  0.1874
  335MOL0     C45144   0.629   5.249   1.437 -0.3122 -0.9889 -0.4303
  335MOL0     C45145   0.421   5.384   1.832  0.3159 -0.0175  0.4853
  335MOL0     C45146   0.400   5.360   1.958  0.4404 -0.3759  0.0370
  335MOL0     C45147   0.315   5.438   2.037  0.6205 -0.2464  0.1016
  335MOL0     C45148   0.225   5.530   1.975  0.6491  0.3451 -0.6625
  335MOL0     O45149   0.116   5.587   2.048 -0.1709  0.4497  0.3026
  335MOL0     C45150   0.026   5.663   1.968 -0.2715  0.1893 -1.0240
  335MOL0     C45151  -0.086   5.729   2.061  0.7551  0.3568  0.2791
  335MOL0     C45152  -0.178   5.821   1.979  0.0771  0.0795 -0.4159
  335MOL0     C45153  -0.245   5.931   2.054 -0.2154  0.2531 -0.4504
  335MOL0     C45154  -0.303   5.878   2.185 -0.1076  0.5199 -0.8336
  335MOL0     C45155  -0.346   5.828   2.290  0.0501  0.0639  0.2802
  335MOL0     C45156   0.245   5.552   1.839 -0.7051  0.3380  0.8739
  335MOL0     C45157   0.341   5.477   1.770 -0.4766 -0.2761 -0.5649
  335MOL0     H45158   0.813   5.311   1.719  1.3205  0.0565 -1.6349
  335MOL0     H45159   0.957   5.156   1.595  0.8964  1.0583 -0.8366
  335MOL0     H45160   0.811   4.943   1.242  1.4796 -1.2435 -4.2396
  335MOL0     H45161   0.882   5.080   1.171 -2.5883  0.5998  2.0841
  335MOL0     H45162   1.085   4.975   1.117 -0.1895 -0.6785 -1.4544
  335MOL0     H45163   1.094   4.874   1.260 -0.0076 -1.3727 -0.1415
  335MOL0     H45164   1.065   4.744   1.067  1.8659  2.9746 -1.7515
  335MOL0     H45165   0.929   4.726   1.175 -0.2850 -2.0661 -2.1506
  335MOL0     H45166   0.789   4.877   1.027 -1.9588  0.0437 -2.4254
  335MOL0     H45167   0.923   4.901   0.916 -0.5587  1.0252  0.1370
  335MOL0     H45168   0.759   4.640   0.968  3.2008 -3.6143 -0.6623
  335MOL0     H45169   0.771   4.740   0.825  3.6425  1.9609 -1.9306
  335MOL0     H45170   1.015   4.660   0.796  1.2033 -2.8607 -0.3419
  335MOL0     H45171   0.990   4.569   0.945  2.6218 -0.2210 -0.8175
  335MOL0     H45172   0.984   4.433   0.737 -0.6530 -0.0788  0.3475
  335MOL0     H45173   0.818   4.425   0.818 -1.3410 -0.3494 -0.1318
  335MOL0     H45174   0.867   4.619   0.603  1.0545  0.0279  1.6559
  335MOL0     H45175   0.715   4.533   0.668 -1.0722 -1.5420 -0.4221
  335MOL0     H45176   0.938   4.497   0.362 -2.3699  2.0490  0.9692
  335MOL0     H45177   0.893   4.125   0.232 -2.9201  0.1752 -0.4816
  335MOL0     H45178   0.848   4.281   0.160 -0.6027  0.7204 -0.2791
  335MOL0     H45179   1.123   4.235   0.288  1.7452 -1.0155 -1.8826
  335MOL0     H45180   1.084   4.374   0.212  1.9468  0.1097 -0.3378
  335MOL0     H45181   1.042   4.214  -0.019  1.2012  2.2072 -1.1008
  335MOL0     H45182   1.147   4.108   0.074 -0.3681  0.2531 -0.9431
  335MOL0     H45183   1.311   4.300   0.087  0.9591 -1.3413 -1.5703
  335MOL0     H45184   1.189   4.405   0.012  0.3543  1.0244 -1.6263
  335MOL0     H45185   1.308   4.488  -0.230 -0.0141  1.2198 -1.7873
  335MOL0     H45186   1.627   4.679  -0.259 -0.6776  1.5567 -1.4631
  335MOL0     H45187   1.597   4.601  -0.419 -2.4451 -1.4524 -0.6077
  335MOL0     H45188   1.458   4.642  -0.327 -1.5765 -4.0371  0.7814
  335MOL0     H45189   1.961   4.470  -0.563  0.8754 -3.3103  0.1318
  335MOL0     H45190   2.184   4.502  -0.595 -0.5197  3.3714 -1.5949
  335MOL0     H45191   2.450   4.440  -0.456 -2.7466 -0.6880  0.2929
  335MOL0     H45192   2.381   4.545  -0.591 -0.3286  1.2224  0.3078
  335MOL0     H45193   2.599   4.589  -0.635  4.9420  1.7186  0.0538
  335MOL0     H45194   2.549   4.716  -0.529  1.1677  0.2464 -0.1434
  335MOL0     H45195   2.638   4.567  -0.331  1.9536  0.4820  0.8827
  335MOL0     H45196   2.756   4.642  -0.430 -0.2005 -0.6112 -0.3469
  335MOL0     H45197   2.806   4.418  -0.381 -1.4124  3.1431  0.8139
  335MOL0     H45198   2.664   4.355  -0.471 -1.0749  1.2988 -3.6548
  335MOL0     H45199   2.894   4.510  -0.597  0.1312  0.5619 -2.9114
  335MOL0     H45200   2.752   4.453  -0.686  1.7485 -0.0394 -0.5856
  335MOL0     H45201   2.795   4.226  -0.595  0.1731  0.2961  1.0485
  335MOL0     H45202   2.895   4.284  -0.726 -0.3448 -3.6427 -0.7290
  335MOL0     H45203   2.986   4.254  -0.441  1.3932 -3.2652 -0.2080
  335MOL0     H45204   3.080   4.314  -0.573 -0.8291  1.4898 -0.1988
  335MOL0     H45205   3.030   4.087  -0.696  0.4785  3.9422 -0.6295
  335MOL0     H45206   2.951   4.050  -0.544  0.7378 -1.6168 -0.7276
  335MOL0     H45207   2.221   4.670  -0.195  1.3050  0.5562 -1.2968
  335MOL0     H45208   1.979   4.607  -0.154  0.4422  0.3043  0.5149
  335MOL0     H45209   1.702   4.190  -0.154 -0.0803 -0.1031 -1.1671
  335MOL0     H45210   1.482   4.125  -0.093 -1.3528 -1.1461 -2.7436
  335MOL0     H45211   0.674   5.125   1.269 -0.3515 -1.3217  0.5610
  335MOL0     H45212   0.527   5.266   1.403 -0.7397 -0.3436  1.1106
  335MOL0     H45213   0.454   5.278   2.005  1.2649 -0.1806 -0.5330
  335MOL0     H45214   0.303   5.414   2.143 -1.1689  0.7342  0.1753
  335MOL0     H45215   0.082   5.741   1.916  0.4855 -1.2365 -2.4204
  335MOL0     H45216  -0.019   5.602   1.890 -0.9254 -0.0049 -0.5036
  335MOL0     H45217  -0.034   5.778   2.144 -0.9856  1.2813  0.8791
  335MOL0     H45218  -0.141   5.643   2.101  4.1121 -1.3798  1.5725
  335MOL0     H45219  -0.249   5.757   1.926  3.1510 -4.2171  0.1175
  335MOL0     H45220  -0.127   5.879   1.902  1.0062 -0.4935 -0.2545
  335MOL0     H45221  -0.329   5.974   1.999  1.1292  1.0041 -2.0236
  335MOL0     H45222  -0.182   6.012   2.090 -1.1698  1.5961 -1.6845
  335MOL0     H45223  -0.384   5.792   2.384  0.4568  1.6435  1.0861
  335MOL0     H45224   0.169   5.613   1.791 -0.7424  1.3100  2.1191
  335MOL0     H45225   0.346   5.499   1.664 -1.0352  0.1368 -0.5110
  336MOL0     O45226   6.627   1.924  11.186 -0.0724 -0.3780 -0.5780
  336MOL0     C45227   6.738   1.907  11.226  0.6006 -0.0141 -0.3439
  336MOL0     O45228   6.781   1.799  11.294  0.8671 -0.7591 -0.7622
  336MOL0     C45229   6.700   1.695  11.329  0.1597  0.1143  0.3118
  336MOL0     C45230   6.759   1.565  11.327  0.4174 -0.2550 -0.6720
  336MOL0     C45231   6.696   1.454  11.379 -0.3555 -1.0257 -0.6135
  336MOL0     C45232   6.565   1.458  11.404  1.0481  0.8938  0.3637
  336MOL0     O45233   6.493   1.353  11.461  0.2226  0.3817  0.4534
  336MOL0     C45234   6.531   1.222  11.402  0.4506 -1.0223 -0.7132
  336MOL0     C45235   6.449   1.115  11.465  0.3870 -0.8144  0.6284
  336MOL0     C45236   6.485   1.094  11.608  0.7134 -0.3590 -0.6557
  336MOL0     C45237   6.426   0.968  11.677  0.7187 -0.0340  0.3601
  336MOL0     C45238   6.462   0.967  11.823 -0.3152 -0.5052 -0.0548
  336MOL0     C45239   6.485   0.821  11.871  1.0482 -0.0505 -0.0561
  336MOL0     C45240   6.625   0.776  11.837 -0.0726  0.0403 -0.2972
  336MOL0     C45241   6.741   0.830  11.925  0.5513 -0.2834  0.2573
  336MOL0     N45242   6.869   0.792  11.880 -0.5903 -0.2038 -0.2787
  336MOL0     C45243   6.939   0.687  11.917  0.0198 -0.1749 -0.2165
  336MOL0     C45244   7.073   0.702  11.889  0.7182 -0.4194 -0.5007
  336MOL0     C45245   7.183   0.607  11.917 -0.1213  0.4083  0.1928
  336MOL0     C45246   7.324   0.659  11.903  0.5903 -0.0743 -0.2014
  336MOL0     C45247   7.376   0.668  11.760 -0.1249 -0.1766  0.3412
  336MOL0     C45248   7.422   0.812  11.727 -0.1417  0.0923 -0.3097
  336MOL0     O45249   7.501   0.830  11.610  1.0001  0.5279 -0.0637
  336MOL0     C45250   7.461   0.911  11.508  0.0243 -0.6161 -0.3293
  336MOL0     C45251   7.485   0.868  11.384  0.3523 -0.2150  1.1843
  336MOL0     C45252   7.451   0.944  11.274 -0.3363 -0.2329  0.4827
  336MOL0     C45253   7.490   0.899  11.146 -0.2757 -0.1966  0.1240
  336MOL0     C45254   7.398   1.072  11.287  0.3427 -0.2561  0.0342
  336MOL0     C45255   7.363   1.156  11.176  0.5264 -0.5629 -0.6038
  336MOL0     O45256   7.231   1.168  11.148  0.0490  0.1200  0.2951
  336MOL0     C45257   7.176   1.242  11.044 -0.7523 -0.1788  0.0740
  336MOL0     C45258   7.236   1.270  10.925 -0.4407 -0.5349  0.0878
  336MOL0     C45259   7.167   1.353  10.829 -0.5480  0.0182 -0.3640
  336MOL0     C45260   7.031   1.387  10.852  0.4027 -0.4622  0.1265
  336MOL0     O45261   6.984   1.461  10.748  0.4019 -0.1006 -0.1594
  336MOL0     C45262   6.878   1.404  10.672  0.3304  0.2865 -0.3466
  336MOL0     C45263   6.903   1.254  10.631  0.4346 -0.1236  0.0477
  336MOL0     C45264   6.798   1.202  10.526 -0.3977 -0.9458 -0.1909
  336MOL0     C45265   6.770   1.061  10.545  0.1911  0.7896  0.0700
  336MOL0     C45266   6.640   1.013  10.463 -0.1340  0.4407 -0.3198
  336MOL0     C45267   6.633   0.859  10.436 -0.0684 -0.6378 -0.3944
  336MOL0     C45268   6.502   0.828  10.356 -0.1548 -0.7022 -0.1775
  336MOL0     C45269   6.450   0.679  10.350 -0.4053  0.8011 -0.1420
  336MOL0    Cl45270   6.598   0.566  10.335 -0.5678 -0.3814 -0.0099
  336MOL0     C45271   6.961   1.349  10.964 -0.0393 -0.4283 -0.0192
  336MOL0     C45272   7.042   1.275  11.056 -0.6844  0.3138  0.1817
  336MOL0     O45273   7.454   1.216  11.121  0.1509 -0.3137 -0.2126
  336MOL0     C45274   7.373   1.122  11.417  0.8755 -0.0790 -0.4735
  336MOL0     C45275   7.411   1.041  11.522  0.1118  0.6790  0.7897
  336MOL0     N45276   7.083   0.817  11.815 -0.7464  0.3751 -0.7244
  336MOL0     N45277   6.961   0.868  11.806  0.6871 -0.1006 -0.7802
  336MOL0     C45278   6.504   1.589  11.397 -0.1649  0.3328 -0.7703
  336MOL0     C45279   6.567   1.699  11.363  0.2526 -0.5062 -0.1111
  336MOL0     C45280   6.842   2.001  11.191 -0.9164  0.0754 -0.4837
  336MOL0     C45281   6.820   2.111  11.099 -0.5918 -0.4070 -1.4368
  336MOL0     C45282   6.936   2.195  11.068 -0.4954 -0.4783  0.0440
  336MOL0     C45283   7.064   2.172  11.134  0.9423  0.7038  0.4983
  336MOL0     O45284   7.166   2.261  11.115  0.6675 -0.5222  0.0378
  336MOL0     C45285   7.263   2.227  11.017  0.6179  0.7731 -0.4798
  336MOL0     C45286   7.236   2.290  10.876 -0.0294 -0.2875 -0.6464
  336MOL0     C45287   7.260   2.441  10.881 -0.2269 -0.1534 -0.1384
  336MOL0     C45288   7.161   2.534  10.954  0.1274 -0.5570 -0.0354
  336MOL0     C45289   7.177   2.674  10.930 -0.1764  0.7850  0.3234
  336MOL0     C45290   7.183   2.795  10.904  0.0960 -0.2153 -0.2523
  336MOL0     C45291   7.075   2.064  11.223 -0.4355  0.3657 -0.4556
  336MOL0     C45292   6.964   1.981  11.252 -0.5248  0.6365 -0.3411
  336MOL0     H45293   6.860   1.555  11.288 -0.3732 -0.0430 -2.8967
  336MOL0     H45294   6.751   1.360  11.373 -1.4336 -1.5780 -2.7985
  336MOL0     H45295   6.506   1.227  11.296 -2.2700  1.3803 -0.0659
  336MOL0     H45296   6.639   1.204  11.408  1.2875  3.1186 -0.7009
  336MOL0     H45297   6.346   1.154  11.461  0.4437 -0.7701 -1.3625
  336MOL0     H45298   6.459   1.023  11.408 -1.9132  0.5548 -2.2664
  336MOL0     H45299   6.594   1.095  11.624  0.7997  0.8418 -1.2037
  336MOL0     H45300   6.439   1.179  11.660 -3.2239 -0.2184 -3.8991
  336MOL0     H45301   6.317   0.969  11.677  0.7009  0.6769 -1.0589
  336MOL0     H45302   6.469   0.883  11.623  1.1538  0.4999 -0.1502
  336MOL0     H45303   6.557   1.019  11.838 -0.1534 -1.0549  0.9749
  336MOL0     H45304   6.395   1.022  11.890 -0.5025 -0.5603 -0.1975
  336MOL0     H45305   6.484   0.817  11.981 -1.1038 -1.1475 -0.0639
  336MOL0     H45306   6.403   0.760  11.832  2.8777 -3.3842  0.9180
  336MOL0     H45307   6.627   0.669  11.863  0.2570  0.1183  0.0020
  336MOL0     H45308   6.646   0.793  11.732 -1.8736  1.3651 -0.4899
  336MOL0     H45309   6.728   0.793  12.027 -0.0874 -2.7433 -0.6556
  336MOL0     H45310   6.724   0.937  11.933  2.1052 -0.0926  1.5164
  336MOL0     H45311   6.888   0.600  11.958  0.4146 -0.0857  0.4871
  336MOL0     H45312   7.181   0.574  12.022 -3.2877 -1.0603 -0.2038
  336MOL0     H45313   7.164   0.512  11.867  0.3381 -0.4119  1.5168
  336MOL0     H45314   7.383   0.579  11.949 -0.6987 -0.3361  1.0554
  336MOL0     H45315   7.349   0.750  11.959 -1.6653 -0.1697  1.0766
  336MOL0     H45316   7.292   0.651  11.691 -1.2629 -1.7436  2.0047
  336MOL0     H45317   7.455   0.593  11.749  0.4514  0.3704  0.7150
  336MOL0     H45318   7.491   0.854  11.800  2.3520 -1.3333 -1.7374
  336MOL0     H45319   7.328   0.869  11.721  0.2039  0.8288  0.9650
  336MOL0     H45320   7.540   0.774  11.385  1.3549  0.3513  0.5819
  336MOL0     H45321   7.506   0.791  11.155  0.0718 -0.0923  0.8363
  336MOL0     H45322   7.405   0.928  11.084 -0.8767  1.1550  1.4990
  336MOL0     H45323   7.585   0.943  11.112  0.3662  1.0517  3.1375
  336MOL0     H45324   7.335   1.235  10.897 -1.5378 -2.2347 -1.9263
  336MOL0     H45325   7.227   1.372  10.742  0.5144  4.6994  1.1249
  336MOL0     H45326   6.786   1.414  10.731 -0.3977 -4.9184 -0.1925
  336MOL0     H45327   6.858   1.467  10.584 -3.6672 -0.3142 -0.0521
  336MOL0     H45328   7.001   1.265  10.583  0.1456  2.4623 -0.0787
  336MOL0     H45329   6.922   1.185  10.714 -2.2339 -2.3128 -1.0002
  336MOL0     H45330   6.836   1.226  10.427  0.2195  1.3556  0.5455
  336MOL0     H45331   6.704   1.254  10.551  0.3877 -0.5076  2.0408
  336MOL0     H45332   6.848   0.997  10.503 -2.8039 -2.7151 -0.6999
  336MOL0     H45333   6.761   1.029  10.649  1.2652 -2.1183 -0.6304
  336MOL0     H45334   6.637   1.082  10.378  1.2518  3.3235  1.7935
  336MOL0     H45335   6.560   1.041  10.532 -0.2394 -1.9032  0.5843
  336MOL0     H45336   6.724   0.828  10.384  0.8053  0.1126  0.6295
  336MOL0     H45337   6.636   0.807  10.532  1.8424 -0.1670 -0.1446
  336MOL0     H45338   6.506   0.876  10.258 -1.0851 -0.4972 -0.1222
  336MOL0     H45339   6.426   0.889  10.404  0.6892  0.3049 -0.0817
  336MOL0     H45340   6.395   0.662  10.257  1.9527  0.0938 -1.4975
  336MOL0     H45341   6.400   0.647  10.442 -3.2250 -0.5747 -2.0146
  336MOL0     H45342   6.863   1.388  10.991  0.3241 -0.4311  1.3760
  336MOL0     H45343   6.986   1.265  11.148  1.2542 -0.9960  1.2773
  336MOL0     H45344   7.330   1.221  11.430  0.0270 -0.6957  2.2037
  336MOL0     H45345   7.399   1.070  11.626  0.1367 -0.2208  1.0502
  336MOL0     H45346   6.403   1.606  11.433 -0.2878  2.6014 -2.0497
  336MOL0     H45347   6.509   1.790  11.374 -0.5715 -0.5648 -3.1161
  336MOL0     H45348   6.722   2.132  11.060 -1.9078  1.3936  2.3380
  336MOL0     H45349   6.926   2.285  11.008  0.2715 -0.0776  0.5053
  336MOL0     H45350   7.367   2.248  11.045  1.3025  0.8542 -2.9035
  336MOL0     H45351   7.271   2.118  11.014 -0.9540  0.4918  1.9647
  336MOL0     H45352   7.135   2.279  10.834  0.4839 -1.1815 -1.6841
  336MOL0     H45353   7.297   2.233  10.806 -0.9798 -1.1192 -0.8314
  336MOL0     H45354   7.278   2.482  10.782  0.0259  1.6599  0.6098
  336MOL0     H45355   7.349   2.458  10.943  0.2494  1.1593 -1.1317
  336MOL0     H45356   7.174   2.524  11.062 -1.7675 -1.3915  0.1516
  336MOL0     H45357   7.060   2.501  10.926  0.1043  0.5526 -1.3874
  336MOL0     H45358   7.186   2.900  10.882 -3.2044 -0.2498 -1.3700
  336MOL0     H45359   7.171   2.036  11.265 -0.6029 -0.4924 -0.6260
  336MOL0     H45360   6.984   1.898  11.318 -3.7866 -0.2913 -0.3275
  337MOL0     O45361   3.004   0.897   9.672 -0.4369 -0.7073 -0.0460
  337MOL0     C45362   3.117   0.852   9.684 -0.7224  0.5515  0.6026
  337MOL0     O45363   3.204   0.907   9.770  0.0986  0.6910 -0.2241
  337MOL0     C45364   3.144   0.948   9.883 -0.3130  0.1111 -0.1365
  337MOL0     C45365   3.107   0.854   9.975 -0.7981  0.4114  0.0736
  337MOL0     C45366   3.046   0.895  10.088  0.6086  0.0332  0.5173
  337MOL0     C45367   3.015   1.029  10.114  0.3961 -0.8031  0.2023
  337MOL0     O45368   2.935   1.062  10.219  0.1854  0.0556 -0.3632
  337MOL0     C45369   2.973   1.177  10.297  0.0776 -0.1149 -0.3693
  337MOL0     C45370   2.876   1.299  10.268  0.4189  0.0663  0.1369
  337MOL0     C45371   2.726   1.249  10.238  0.3855  0.2815 -0.6309
  337MOL0     C45372   2.623   1.363  10.229 -0.7470 -0.2293  0.7420
  337MOL0     C45373   2.476   1.332  10.184 -0.2972 -0.2109  0.4405
  337MOL0     C45374   2.396   1.458  10.195 -0.0947  0.4544  0.0012
  337MOL0     C45375   2.264   1.441  10.136  1.3823  0.0245  0.6291
  337MOL0     C45376   2.195   1.566  10.162 -0.5477 -0.0961 -0.0985
  337MOL0     N45377   2.218   1.668  10.058 -0.4708  0.3387 -0.3374
  337MOL0     C45378   2.162   1.673   9.935  0.0750  0.5000  0.4923
  337MOL0     C45379   2.233   1.765   9.862  0.5769 -0.1959 -0.5472
  337MOL0     C45380   2.192   1.818   9.725 -0.0349  0.1549  0.4696
  337MOL0     C45381   2.118   1.709   9.647  0.2505  0.4804  0.1850
  337MOL0     C45382   2.213   1.588   9.626  0.4064 -0.5542  0.3415
  337MOL0     C45383   2.148   1.466   9.565 -0.4571 -0.4836 -0.0837
  337MOL0     O45384   2.022   1.434   9.623 -0.6708  0.0385 -0.2833
  337MOL0     C45385   2.028   1.360   9.738  0.2792  0.3370 -0.4988
  337MOL0     C45386   1.910   1.361   9.818  0.1554 -0.4212 -0.0751
  337MOL0     C45387   1.904   1.286   9.934 -0.5453 -0.3800  0.2482
  337MOL0     C45388   1.773   1.309  10.013  0.6473 -0.2060  0.0001
  337MOL0     C45389   2.014   1.209   9.983 -0.0140  0.0066 -0.6949
  337MOL0     C45390   2.018   1.151  10.115  0.3900  0.4217  0.7711
  337MOL0     O45391   2.125   1.055  10.126 -0.5958 -0.1124  0.1192
  337MOL0     C45392   2.195   1.040  10.247 -0.5216 -0.4035  0.0081
  337MOL0     C45393   2.323   0.990  10.230  0.2423  0.0817  0.3733
  337MOL0     C45394   2.405   0.960  10.337 -0.4970 -0.9666 -0.6143
  337MOL0     C45395   2.364   0.996  10.470 -0.1833 -0.7733  0.6455
  337MOL0     O45396   2.435   0.975  10.583  0.5132  0.7183 -0.1415
  337MOL0     C45397   2.576   0.990  10.590  0.1010  1.1314  0.6919
  337MOL0     C45398   2.605   1.138  10.609 -0.0702  0.3312 -0.7504
  337MOL0     C45399   2.750   1.164  10.657 -0.1609  0.4198 -0.4126
  337MOL0     C45400   2.779   1.304  10.711  1.9908  0.3773  0.6005
  337MOL0     C45401   2.924   1.335  10.731 -0.5730 -0.1095 -0.6194
  337MOL0     C45402   2.967   1.482  10.709  0.0326  0.4722  0.8986
  337MOL0     C45403   3.117   1.508  10.708  0.0274  0.0740  0.1497
  337MOL0     C45404   3.153   1.609  10.593  0.1620  0.1458  0.0733
  337MOL0    Cl45405   3.333   1.621  10.574  0.2552 -0.4728 -0.3391
  337MOL0     C45406   2.231   1.037  10.487 -1.2637  0.1389 -0.2336
  337MOL0     C45407   2.152   1.077  10.372  1.2230  0.0085 -0.3235
  337MOL0     O45408   1.929   1.162  10.206 -0.1260 -0.4385  0.5899
  337MOL0     C45409   2.124   1.208   9.906 -0.8169 -0.8602  0.8353
  337MOL0     C45410   2.135   1.278   9.792 -0.3528 -0.2693  0.9119
  337MOL0     N45411   2.318   1.834   9.956  0.6481 -0.6235 -0.7995
  337MOL0     N45412   2.308   1.775  10.068  1.0913 -0.6971  0.3914
  337MOL0     C45413   3.050   1.119  10.019  0.2497 -0.6530 -0.8418
  337MOL0     C45414   3.126   1.084   9.904  0.6240 -0.6935 -0.5095
  337MOL0     C45415   3.159   0.739   9.598  0.5907 -0.5080  0.3070
  337MOL0     C45416   3.073   0.639   9.552  0.4310 -0.0188  0.1099
  337MOL0     C45417   3.114   0.527   9.475 -0.0280  0.6316 -0.3929
  337MOL0     C45418   3.250   0.501   9.454  0.3046 -0.0563 -0.0958
  337MOL0     O45419   3.284   0.377   9.412  0.0279  0.9134  0.4197
  337MOL0     C45420   3.415   0.320   9.428  0.3759 -0.6656 -0.6287
  337MOL0     C45421   3.422   0.177   9.368 -0.3444 -0.6709  0.5575
  337MOL0     C45422   3.519   0.166   9.254 -0.0471 -0.5249 -0.0976
  337MOL0     C45423   3.531   0.019   9.199 -0.8979  0.3955 -0.0361
  337MOL0     C45424   3.615  -0.059   9.287  0.3446 -0.2619  0.4526
  337MOL0     C45425   3.692  -0.133   9.351  0.6701  0.1483 -0.0571
  337MOL0     C45426   3.337   0.602   9.499  0.6310  0.3557 -0.1844
  337MOL0     C45427   3.296   0.715   9.569  0.9275 -0.0685  0.9900
  337MOL0     H45428   3.131   0.749   9.961  0.9730  1.1043 -2.8845
  337MOL0     H45429   3.020   0.828  10.170 -1.1636 -1.4319 -1.1406
  337MOL0     H45430   2.966   1.146  10.401  0.5981  0.9162 -0.0220
  337MOL0     H45431   3.079   1.204  10.286  0.1967  0.4747  1.8001
  337MOL0     H45432   2.874   1.359  10.360 -1.2240  1.4334 -0.7301
  337MOL0     H45433   2.924   1.361  10.191  1.0148 -0.8962 -0.2938
  337MOL0     H45434   2.739   1.202  10.140  2.4494 -1.5311  0.4129
  337MOL0     H45435   2.690   1.178  10.313 -1.3718 -0.4566 -2.0998
  337MOL0     H45436   2.620   1.409  10.329  1.6148 -2.0621  1.7495
  337MOL0     H45437   2.673   1.425  10.154  1.0225 -0.8700  1.3560
  337MOL0     H45438   2.468   1.279  10.089 -1.0775 -0.1279  0.4513
  337MOL0     H45439   2.436   1.261  10.258  0.8253 -1.3125  0.0206
  337MOL0     H45440   2.400   1.485  10.302  1.4449  0.1068  0.0587
  337MOL0     H45441   2.456   1.533  10.142 -0.0059  3.3805  3.7839
  337MOL0     H45442   2.264   1.419  10.029  0.2897  1.4422  0.2941
  337MOL0     H45443   2.204   1.369  10.193  1.4052  1.6052  2.7710
  337MOL0     H45444   2.228   1.604  10.259 -2.9394 -0.7573  1.0467
  337MOL0     H45445   2.087   1.554  10.167 -0.5934  0.5207  0.5717
  337MOL0     H45446   2.085   1.603   9.903  2.5933 -1.5503 -1.5064
  337MOL0     H45447   2.126   1.904   9.738 -0.8890 -0.5766  1.0323
  337MOL0     H45448   2.273   1.856   9.662 -0.1656 -1.3794 -0.6919
  337MOL0     H45449   2.090   1.747   9.548 -0.2511 -0.9311 -0.2490
  337MOL0     H45450   2.024   1.684   9.696  0.1224 -1.4023 -0.9087
  337MOL0     H45451   2.266   1.551   9.713  0.3823 -2.3392 -0.3695
  337MOL0     H45452   2.292   1.619   9.557  0.9333  1.2739  1.6705
  337MOL0     H45453   2.225   1.389   9.562  1.0531  0.9902 -0.2060
  337MOL0     H45454   2.134   1.494   9.460  0.2733  0.5832  0.0862
  337MOL0     H45455   1.832   1.419   9.771  1.2651  1.6890  0.5359
  337MOL0     H45456   1.788   1.380  10.095  0.5638  1.5160 -1.3992
  337MOL0     H45457   1.707   1.363   9.944  0.0278 -0.6609  0.2313
  337MOL0     H45458   1.716   1.220  10.040 -3.1226  0.9075 -3.2906
  337MOL0     H45459   2.348   0.962  10.128  0.7981 -1.6058  0.9324
  337MOL0     H45460   2.500   0.909  10.327  0.4739 -0.1330  2.9938
  337MOL0     H45461   2.613   0.933  10.676  1.3178  3.1241  1.5578
  337MOL0     H45462   2.623   0.957  10.497  0.7052 -0.7278  1.5913
  337MOL0     H45463   2.602   1.174  10.506  4.2163  0.9998 -0.7978
  337MOL0     H45464   2.531   1.197  10.665  0.6229  1.7731 -1.3184
  337MOL0     H45465   2.819   1.155  10.573  2.6181  0.5491  1.7438
  337MOL0     H45466   2.782   1.102  10.741 -2.7205 -0.1498  0.2351
  337MOL0     H45467   2.731   1.381  10.650  2.4688 -1.6568 -2.5414
  337MOL0     H45468   2.724   1.312  10.805  2.3294  5.2568  0.6465
  337MOL0     H45469   2.977   1.281  10.652 -0.1330  0.1168 -0.4781
  337MOL0     H45470   2.966   1.285  10.819 -1.7648  1.2248  0.7538
  337MOL0     H45471   2.917   1.527  10.623  0.4931  0.0617  0.4115
  337MOL0     H45472   2.926   1.543  10.790 -0.4196  0.3325  0.7781
  337MOL0     H45473   3.159   1.409  10.685 -0.4517 -0.3942  1.2121
  337MOL0     H45474   3.166   1.542  10.800  0.5154  0.4409 -0.2403
  337MOL0     H45475   3.119   1.711  10.614  1.2268  0.1282  2.1328
  337MOL0     H45476   3.116   1.586  10.493 -3.4908 -0.8249  1.4859
  337MOL0     H45477   2.200   1.040  10.591 -1.1900 -0.2288 -0.1983
  337MOL0     H45478   2.055   1.115  10.401  1.3152 -0.9247  1.2907
  337MOL0     H45479   2.212   1.154   9.939 -1.3923  0.1256  4.3911
  337MOL0     H45480   2.221   1.256   9.730 -1.4633  1.2347 -1.2756
  337MOL0     H45481   3.026   1.223  10.038 -0.6399 -0.7824 -1.2231
  337MOL0     H45482   3.159   1.163   9.837 -1.7205  1.2780  0.5184
  337MOL0     H45483   2.970   0.637   9.585 -0.1964  0.7938 -1.6666
  337MOL0     H45484   3.037   0.451   9.462 -0.4676  1.3777 -2.3928
  337MOL0     H45485   3.491   0.394   9.401  0.2996 -0.6857 -0.9015
  337MOL0     H45486   3.415   0.295   9.535 -0.0266 -0.0554 -0.4762
  337MOL0     H45487   3.322   0.153   9.329  0.6445 -0.2122 -2.5198
  337MOL0     H45488   3.449   0.096   9.436  2.1654 -1.2279 -0.9734
  337MOL0     H45489   3.616   0.203   9.288 -0.1983  0.9114 -1.0797
  337MOL0     H45490   3.487   0.233   9.173  2.6635  1.7893  0.5808
  337MOL0     H45491   3.583   0.014   9.103  1.6256 -2.6324  1.3276
  337MOL0     H45492   3.436  -0.028   9.171  1.6796 -4.0198 -2.5793
  337MOL0     H45493   3.761  -0.193   9.407  1.7340 -0.5608 -2.0321
  337MOL0     H45494   3.441   0.577   9.480  0.2895 -1.5355  0.2230
  337MOL0     H45495   3.377   0.782   9.598  1.2106  0.2038 -0.3661
  338MOL0     O45496   8.378   3.213  10.911 -0.4463  0.4106 -0.6688
  338MOL0     C45497   8.437   3.126  10.841  0.6358  0.1212 -0.0326
  338MOL0     O45498   8.496   3.011  10.892 -0.0886  0.3508  0.0668
  338MOL0     C45499   8.512   3.006  11.025 -0.1672  0.9487  0.3472
  338MOL0     C45500   8.642   3.025  11.064 -1.0063  0.1451  0.0903
  338MOL0     C45501   8.680   3.022  11.198  0.0726  0.9675  0.2133
  338MOL0     C45502   8.587   2.976  11.294 -0.1253  0.3855  0.6525
  338MOL0     O45503   8.616   2.963  11.427 -0.6424 -0.2562  0.2078
  338MOL0     C45504   8.727   3.019  11.492  0.8455  0.7337 -0.4299
  338MOL0     C45505   8.732   2.962  11.638  0.3207 -0.5320 -0.0189
  338MOL0     C45506   8.850   3.019  11.724  0.3392 -0.6007  0.5266
  338MOL0     C45507   8.882   2.904  11.824 -0.1087 -0.4960 -0.7151
  338MOL0     C45508   9.026   2.906  11.869 -0.3947  0.8348  0.4160
  338MOL0     C45509   9.049   3.039  11.945  0.2963  0.9735  0.5580
  338MOL0     C45510   9.188   3.033  12.005 -0.2905 -0.1561  0.4459
  338MOL0     C45511   9.196   3.130  12.128  0.0885  0.5124 -0.1402
  338MOL0     N45512   9.322   3.114  12.199 -0.2838 -0.7793 -0.5030
  338MOL0     C45513   9.453   3.132  12.158  0.0832  0.3447  0.1222
  338MOL0     C45514   9.520   3.064  12.258 -0.0736  0.2880 -0.8323
  338MOL0     C45515   9.674   3.045  12.273 -0.2364 -0.9563  0.0855
  338MOL0     C45516   9.730   3.136  12.391 -0.1310 -0.4123  0.4767
  338MOL0     C45517   9.875   3.117  12.432 -0.3178 -0.0580 -1.4468
  338MOL0     C45518   9.889   3.024  12.557 -0.8738 -0.0900  0.1618
  338MOL0     O45519   9.828   3.089  12.665  0.0330  0.6505 -0.7755
  338MOL0     C45520   9.889   3.191  12.741  0.2166  0.4790 -0.6022
  338MOL0     C45521  10.022   3.213  12.752 -0.3743 -0.1655  0.4314
  338MOL0     C45522  10.087   3.328  12.818  0.0315  0.3208  0.0770
  338MOL0     C45523  10.238   3.332  12.817  0.4453 -0.4350  0.1067
  338MOL0     C45524  10.005   3.419  12.875  0.3347 -0.2616 -0.0873
  338MOL0     C45525  10.053   3.534  12.952  0.8308  0.5520 -0.6582
  338MOL0     O45526   9.970   3.638  12.955  0.0849 -0.2247  0.1005
  338MOL0     C45527  10.006   3.740  13.041 -0.5154 -1.1832 -1.2583
  338MOL0     C45528  10.096   3.839  13.018  0.0415 -0.2740 -0.3326
  338MOL0     C45529  10.110   3.946  13.104 -0.3995 -0.0769  0.8967
  338MOL0     C45530  10.043   3.962  13.216  0.1029  0.0457  0.6219
  338MOL0     O45531  10.081   4.077  13.278  0.4899  0.4639 -0.1844
  338MOL0     C45532   9.988   4.143  13.358 -0.2037 -0.1064 -0.0945
  338MOL0     C45533   9.897   4.231  13.273  0.4700 -0.9687 -0.2334
  338MOL0     C45534   9.791   4.310  13.367  0.0740  0.2792  0.0165
  338MOL0     C45535   9.678   4.351  13.267 -0.4827  0.0884  0.2333
  338MOL0     C45536   9.594   4.455  13.346 -0.5969  0.0907  0.4497
  338MOL0     C45537   9.455   4.480  13.271 -0.4920 -1.0357  0.1427
  338MOL0     C45538   9.367   4.589  13.341 -1.1317  0.8627  0.3549
  338MOL0     C45539   9.262   4.530  13.438  0.0431 -0.9817 -1.0101
  338MOL0    Cl45540   9.200   4.679  13.524  0.2617  0.2546 -0.3287
  338MOL0     C45541   9.953   3.866  13.247  0.6699 -0.1823  0.5466
  338MOL0     C45542   9.928   3.755  13.165 -1.0026 -0.0345 -0.4966
  338MOL0     O45543  10.149   3.520  13.029 -0.2159  0.5602  0.4967
  338MOL0     C45544   9.864   3.394  12.871 -0.8140 -0.6135 -0.3180
  338MOL0     C45545   9.815   3.282  12.802 -0.1431 -0.3405 -0.9749
  338MOL0     N45546   9.425   3.017  12.356 -0.1641 -0.2286  0.4934
  338MOL0     N45547   9.304   3.047  12.308 -0.2953 -0.4097  0.0402
  338MOL0     C45548   8.451   2.945  11.254 -0.4533 -0.9019 -0.9018
  338MOL0     C45549   8.415   2.965  11.118  0.2884 -0.9088 -0.2499
  338MOL0     C45550   8.449   3.151  10.698 -0.2142 -0.4734  0.2682
  338MOL0     C45551   8.412   3.273  10.645  0.6544 -0.8257 -0.1261
  338MOL0     C45552   8.417   3.302  10.506 -0.5743 -0.3896  0.2354
  338MOL0     C45553   8.472   3.205  10.419 -0.4517  0.4477  0.3591
  338MOL0     O45554   8.497   3.223  10.282  0.5236  0.3296 -0.1610
  338MOL0     C45555   8.566   3.118  10.208  0.2263  0.2533 -0.1976
  338MOL0     C45556   8.555   3.163  10.061  0.5147  0.2294 -0.0374
  338MOL0     C45557   8.422   3.127   9.990 -0.2105  0.0971 -0.2893
  338MOL0     C45558   8.450   3.106   9.837 -1.0626  0.6660  0.7443
  338MOL0     C45559   8.506   3.209   9.755 -0.1241 -0.4258 -0.0097
  338MOL0     C45560   8.550   3.299   9.701 -0.6348  0.7090 -0.6416
  338MOL0     C45561   8.500   3.073  10.468  0.7701 -0.8477  0.2293
  338MOL0     C45562   8.497   3.053  10.607  1.0107 -0.1990 -0.4305
  338MOL0     H45563   8.715   3.054  10.990 -1.8374  3.0749  0.2943
  338MOL0     H45564   8.778   3.060  11.225 -0.0441  1.7027 -0.3527
  338MOL0     H45565   8.816   2.991  11.434 -0.6615  0.6321 -2.7910
  338MOL0     H45566   8.717   3.126  11.510 -3.3919  0.0597  2.6265
  338MOL0     H45567   8.635   2.984  11.682 -0.2776 -0.9581 -1.0777
  338MOL0     H45568   8.736   2.855  11.616 -0.3280 -0.1074 -2.5539
  338MOL0     H45569   8.935   3.045  11.661 -0.1203 -0.9624 -0.2679
  338MOL0     H45570   8.811   3.107  11.774 -0.0298  0.4492 -1.4903
  338MOL0     H45571   8.812   2.908  11.908  2.6055 -2.2320  1.7906
  338MOL0     H45572   8.869   2.802  11.787  0.5004 -0.5150 -0.8860
  338MOL0     H45573   9.038   2.821  11.936 -2.5102  1.0134  1.1166
  338MOL0     H45574   9.099   2.905  11.788  0.2570  0.4317  0.9888
  338MOL0     H45575   9.050   3.121  11.872  1.8950 -0.5005 -1.1867
  338MOL0     H45576   8.964   3.053  12.013 -0.8778 -1.2890 -0.3379
  338MOL0     H45577   9.214   2.935  12.046  0.2012 -0.5206 -0.7013
  338MOL0     H45578   9.270   3.060  11.937  1.2092 -0.9641  1.8526
  338MOL0     H45579   9.110   3.117  12.194  0.1623  0.5564 -0.0362
  338MOL0     H45580   9.185   3.229  12.083 -1.7043 -0.1407 -1.2455
  338MOL0     H45581   9.487   3.175  12.065 -2.5667 -1.7523 -1.9608
  338MOL0     H45582   9.690   2.939  12.296  2.3745 -0.8112 -0.7467
  338MOL0     H45583   9.728   3.073  12.183  4.3882  0.5657  3.0017
  338MOL0     H45584   9.672   3.118  12.482  2.7750 -5.4495  1.7447
  338MOL0     H45585   9.720   3.240  12.360 -3.6257 -0.5427  0.7867
  338MOL0     H45586   9.924   3.212  12.456  1.1413 -1.4541  1.6008
  338MOL0     H45587   9.931   3.075  12.347  1.9791  1.4901 -0.7832
  338MOL0     H45588   9.994   3.001  12.573 -0.4493 -1.7891 -3.8582
  338MOL0     H45589   9.846   2.924  12.554 -1.9095  0.3114  0.7884
  338MOL0     H45590  10.074   3.123  12.721 -3.1808 -2.0059  0.7571
  338MOL0     H45591  10.273   3.234  12.783  1.6327  0.2761 -0.7963
  338MOL0     H45592  10.275   3.411  12.750 -2.4094  1.1078  0.2007
  338MOL0     H45593  10.284   3.336  12.916  0.8996 -2.3864  0.0230
  338MOL0     H45594  10.162   3.827  12.933 -1.9763  3.6926 -2.7505
  338MOL0     H45595  10.171   4.029  13.069 -1.9087  0.2621 -1.1007
  338MOL0     H45596   9.925   4.068  13.407  1.7474 -0.5936  1.8577
  338MOL0     H45597  10.031   4.207  13.436 -1.7877  0.4225  0.3812
  338MOL0     H45598   9.959   4.294  13.210  0.0429 -1.7946 -1.5206
  338MOL0     H45599   9.838   4.169  13.205 -0.8804 -0.3409  0.3157
  338MOL0     H45600   9.839   4.395  13.415  2.6522 -1.0698  0.0101
  338MOL0     H45601   9.745   4.253  13.449 -1.4212  0.9054 -0.3430
  338MOL0     H45602   9.728   4.408  13.187 -0.8190  0.2644  0.1440
  338MOL0     H45603   9.620   4.266  13.229 -0.6884 -0.4365  1.6723
  338MOL0     H45604   9.642   4.551  13.367  1.5927 -1.2714  2.2620
  338MOL0     H45605   9.570   4.406  13.441  1.3562 -4.0189 -0.9118
  338MOL0     H45606   9.464   4.512  13.167  0.4048 -1.4686  0.0793
  338MOL0     H45607   9.396   4.387  13.273 -0.8979 -0.8194 -0.9665
  338MOL0     H45608   9.315   4.637  13.257  1.8057  0.4568 -1.8459
  338MOL0     H45609   9.432   4.666  13.383 -1.7925  2.3337 -1.1761
  338MOL0     H45610   9.318   4.470  13.510  3.2612  0.3373 -2.2317
  338MOL0     H45611   9.188   4.470  13.384 -0.0000  0.8814 -3.1621
  338MOL0     H45612   9.893   3.868  13.338 -0.5058 -2.1631 -0.1253
  338MOL0     H45613   9.860   3.676  13.194  0.2264 -1.5002 -1.4148
  338MOL0     H45614   9.787   3.457  12.914  2.8492  1.9334  3.2789
  338MOL0     H45615   9.708   3.262  12.803 -0.2237  0.0856  0.2992
  338MOL0     H45616   8.367   2.919  11.317 -1.1103  2.7407 -0.0376
  338MOL0     H45617   8.314   2.946  11.082 -1.8090  1.6017  3.5610
  338MOL0     H45618   8.375   3.348  10.714 -0.0990 -2.3186  1.1593
  338MOL0     H45619   8.380   3.402  10.482 -1.8203 -1.2102 -1.4737
  338MOL0     H45620   8.669   3.114  10.244 -0.1359  0.6635  0.9208
  338MOL0     H45621   8.522   3.017  10.211 -1.5082  1.0047  2.3659
  338MOL0     H45622   8.632   3.109  10.005  1.1246  2.2433 -1.2160
  338MOL0     H45623   8.567   3.271  10.058 -0.9100  0.3847 -2.1446
  338MOL0     H45624   8.332   3.185  10.011 -0.1296  1.1035 -2.4534
  338MOL0     H45625   8.395   3.032  10.038  0.4473  1.0626  2.1658
  338MOL0     H45626   8.357   3.070   9.790 -0.3479  1.8900 -1.7979
  338MOL0     H45627   8.523   3.025   9.835 -1.1686  0.4855  2.7423
  338MOL0     H45628   8.591   3.381   9.645 -0.4958  0.6644 -0.6081
  338MOL0     H45629   8.533   2.988  10.410  1.3282 -1.6590  1.6694
  338MOL0     H45630   8.524   2.958  10.651  1.0051  0.9736  2.3497
  339MOL0     O45631   4.634   0.780   1.156  0.0974  0.7048 -0.4252
  339MOL0     C45632   4.531   0.736   1.217 -0.0071  0.0262 -0.2493
  339MOL0     O45633   4.507   0.744   1.352  0.6972 -0.3905 -0.0916
  339MOL0     C45634   4.599   0.799   1.437 -0.5117  0.3688 -0.2084
  339MOL0     C45635   4.694   0.716   1.494 -1.3784  0.2556  0.1892
  339MOL0     C45636   4.782   0.768   1.595 -0.3605  0.7769 -0.3802
  339MOL0     C45637   4.765   0.898   1.647  0.5472  0.3216  0.1754
  339MOL0     O45638   4.831   0.929   1.762  0.1162  0.2146  0.1574
  339MOL0     C45639   4.857   1.056   1.801  1.4827 -0.1168  0.0879
  339MOL0     C45640   4.937   1.062   1.927 -0.4868 -0.2571  0.1665
  339MOL0     C45641   4.886   0.991   2.050 -0.5484  0.3158  0.7948
  339MOL0     C45642   4.952   0.842   2.047 -0.3218  0.8315  0.1074
  339MOL0     C45643   4.867   0.749   2.135 -0.1437 -0.9323 -0.3770
  339MOL0     C45644   4.745   0.701   2.058  0.9910  0.4130  0.3335
  339MOL0     C45645   4.661   0.638   2.173 -0.2172  0.3441 -0.1638
  339MOL0     C45646   4.560   0.732   2.234  0.1700  0.1317  0.8939
  339MOL0     N45647   4.483   0.671   2.339  0.3551  0.3945  0.4146
  339MOL0     C45648   4.356   0.628   2.313 -1.1572  0.0425  0.1490
  339MOL0     C45649   4.328   0.553   2.419  0.5177 -0.5952  0.1226
  339MOL0     C45650   4.208   0.458   2.423 -0.0261 -0.1678  0.3083
  339MOL0     C45651   4.105   0.470   2.529  0.1670  0.4234 -0.0811
  339MOL0     C45652   4.013   0.588   2.483 -0.0760 -0.2986  0.0328
  339MOL0     C45653   3.958   0.659   2.608  0.0830  0.9518  0.4657
  339MOL0     O45654   3.879   0.778   2.573  0.3276 -0.0005  0.8791
  339MOL0     C45655   3.938   0.896   2.547 -0.2687 -0.0327  0.0798
  339MOL0     C45656   4.076   0.929   2.576 -0.5290 -0.1133 -0.6103
  339MOL0     C45657   4.133   1.050   2.543 -0.5620  0.8192  0.3314
  339MOL0     C45658   4.277   1.063   2.582  0.6288  0.1121 -0.3087
  339MOL0     C45659   4.045   1.154   2.504 -0.0767  1.2786  0.0711
  339MOL0     C45660   4.097   1.293   2.469 -0.7022 -0.6871 -0.5512
  339MOL0     O45661   4.010   1.392   2.471 -0.3457  0.1296  0.8033
  339MOL0     C45662   4.053   1.514   2.440 -0.0698 -0.2712  0.1921
  339MOL0     C45663   4.055   1.554   2.309 -0.9372  0.2440 -0.0908
  339MOL0     C45664   4.095   1.688   2.272 -0.3067 -0.3239  0.4851
  339MOL0     C45665   4.128   1.782   2.373 -0.6554 -0.1211  0.7538
  339MOL0     O45666   4.171   1.909   2.339 -0.0155  0.2118  0.7873
  339MOL0     C45667   4.280   1.978   2.408  0.1014  0.1371 -0.1211
  339MOL0     C45668   4.411   1.901   2.410  0.6218 -0.3575 -0.4682
  339MOL0     C45669   4.463   1.868   2.275  1.0139  0.2292 -0.4218
  339MOL0     C45670   4.504   1.994   2.189  0.0620  0.4224 -0.2087
  339MOL0     C45671   4.474   1.955   2.039 -0.0562  0.0223  0.2935
  339MOL0     C45672   4.541   2.058   1.942  0.1011 -0.1107  0.1705
  339MOL0     C45673   4.462   2.053   1.811  0.0367 -0.0319  0.2009
  339MOL0     C45674   4.526   2.130   1.697  0.7095  0.3528 -0.5865
  339MOL0    Cl45675   4.442   2.105   1.537  0.1367  0.1053 -0.2951
  339MOL0     C45676   4.118   1.742   2.507  0.5538  0.1570  0.2127
  339MOL0     C45677   4.070   1.615   2.536 -0.6004 -1.1709 -0.4738
  339MOL0     O45678   4.207   1.293   2.409 -0.0091 -0.4991 -0.5915
  339MOL0     C45679   3.908   1.122   2.473 -0.6701 -0.0450 -0.9603
  339MOL0     C45680   3.856   0.998   2.500  0.6194 -0.2711 -0.1137
  339MOL0     N45681   4.432   0.554   2.502 -0.1494  0.7519  0.2210
  339MOL0     N45682   4.531   0.616   2.462  0.0468 -0.0827  0.0217
  339MOL0     C45683   4.666   0.979   1.588  0.6294  0.3655  0.6625
  339MOL0     C45684   4.589   0.928   1.482 -0.2772  0.3386  0.6112
  339MOL0     C45685   4.429   0.659   1.146 -0.1384 -0.2709 -0.6782
  339MOL0     C45686   4.305   0.633   1.201  0.7496  0.0693  0.4161
  339MOL0     C45687   4.206   0.579   1.120  0.3293  0.9716 -0.6188
  339MOL0     C45688   4.236   0.536   1.001  0.2558 -0.4258  1.3397
  339MOL0     O45689   4.140   0.474   0.926  0.1169  0.0858 -0.0491
  339MOL0     C45690   4.015   0.546   0.896 -1.1101 -0.4374 -0.0958
  339MOL0     C45691   4.036   0.669   0.805  0.5717  0.2987  0.6090
  339MOL0     C45692   4.072   0.620   0.660  0.2800 -0.2078  0.1502
  339MOL0     C45693   4.094   0.746   0.571 -0.4846 -0.8600 -0.4447
  339MOL0     C45694   4.155   0.709   0.445 -0.1077  0.0036  0.6296
  339MOL0     C45695   4.208   0.687   0.336  0.3883  0.1821  0.0827
  339MOL0     C45696   4.359   0.575   0.941 -0.0495  0.5476 -0.1915
  339MOL0     C45697   4.457   0.624   1.015 -0.3749  0.8333  0.5023
  339MOL0     H45698   4.695   0.608   1.486  1.9353 -0.1270  3.2199
  339MOL0     H45699   4.857   0.697   1.629  0.2885  3.1000  3.5521
  339MOL0     H45700   4.916   1.113   1.728  2.1733  0.4793  1.0936
  339MOL0     H45701   4.766   1.115   1.820  1.1249 -0.4113 -0.6748
  339MOL0     H45702   5.037   1.024   1.904 -0.2224 -1.0701  2.4570
  339MOL0     H45703   4.945   1.169   1.950  0.8424 -0.3116  0.0533
  339MOL0     H45704   4.912   1.036   2.146  1.3423 -1.3906  1.1549
  339MOL0     H45705   4.778   0.974   2.047 -0.5333 -0.2197  2.2159
  339MOL0     H45706   4.952   0.808   1.943 -1.8116  1.1509 -0.0220
  339MOL0     H45707   5.056   0.836   2.081 -0.9282  0.4437  2.0254
  339MOL0     H45708   4.938   0.670   2.163 -0.3230 -0.9467  0.0521
  339MOL0     H45709   4.827   0.802   2.222 -0.6167 -0.8548 -0.6426
  339MOL0     H45710   4.685   0.776   2.007 -1.0837 -1.9167 -0.8696
  339MOL0     H45711   4.779   0.626   1.985  0.0699 -1.1145  1.4070
  339MOL0     H45712   4.604   0.558   2.125  0.6240  0.5547 -1.5801
  339MOL0     H45713   4.730   0.599   2.248 -0.6779 -0.4021 -0.1199
  339MOL0     H45714   4.502   0.765   2.147  2.2672 -0.1693 -0.7046
  339MOL0     H45715   4.598   0.828   2.269 -0.3670  0.9725 -0.7491
  339MOL0     H45716   4.299   0.649   2.223 -0.6077  0.3008 -0.1454
  339MOL0     H45717   4.164   0.480   2.325  2.3326 -1.0033 -1.0310
  339MOL0     H45718   4.244   0.354   2.419 -1.5290 -0.6803 -0.5155
  339MOL0     H45719   4.158   0.478   2.624  3.5437  0.4942 -1.8155
  339MOL0     H45720   4.043   0.380   2.533 -0.8922  0.9093 -2.9386
  339MOL0     H45721   3.939   0.538   2.420  3.1558 -0.4824 -4.0389
  339MOL0     H45722   4.055   0.665   2.419 -1.8755 -1.3042 -2.5086
  339MOL0     H45723   4.044   0.684   2.670  0.7819  0.3615 -0.2386
  339MOL0     H45724   3.891   0.589   2.660  0.6677  0.3030  0.3551
  339MOL0     H45725   4.147   0.853   2.607 -1.7767 -2.5899 -3.3148
  339MOL0     H45726   4.335   1.140   2.530 -0.0232  0.7309 -0.1309
  339MOL0     H45727   4.282   1.086   2.689 -0.6140  2.0040 -0.6166
  339MOL0     H45728   4.326   0.968   2.559  0.2989 -0.0930 -0.1661
  339MOL0     H45729   4.036   1.468   2.247  2.8450 -1.6720  1.0713
  339MOL0     H45730   4.118   1.706   2.167 -1.7501  0.0290  0.1999
  339MOL0     H45731   4.293   2.058   2.334 -0.8207 -0.7467 -1.2638
  339MOL0     H45732   4.233   2.023   2.496 -0.0844  0.2884 -0.2949
  339MOL0     H45733   4.478   1.954   2.478 -1.9497 -1.0158  2.8596
  339MOL0     H45734   4.397   1.800   2.451  0.8783 -0.0106  0.5045
  339MOL0     H45735   4.385   1.807   2.227  0.9072  1.5991 -2.0851
  339MOL0     H45736   4.555   1.811   2.289  0.2041 -0.6635  1.6895
  339MOL0     H45737   4.452   2.088   2.209  0.1471  1.0544 -2.5778
  339MOL0     H45738   4.610   2.017   2.204  0.1338 -0.4855  0.8471
  339MOL0     H45739   4.366   1.953   2.018 -0.8014  4.8451  2.4354
  339MOL0     H45740   4.503   1.853   2.015 -0.9810  0.1031 -1.4114
  339MOL0     H45741   4.530   2.158   1.985 -3.1827  0.0380 -0.7493
  339MOL0     H45742   4.645   2.039   1.914 -0.6713  1.3504 -4.6996
  339MOL0     H45743   4.359   2.086   1.825  0.0848 -0.5165  1.9293
  339MOL0     H45744   4.464   1.946   1.786  2.1504  0.2102 -0.8665
  339MOL0     H45745   4.633   2.106   1.692  0.5224 -1.1103  1.2346
  339MOL0     H45746   4.516   2.237   1.720 -0.7544  0.0255  0.5084
  339MOL0     H45747   4.126   1.820   2.582 -3.5206 -0.2318  1.2717
  339MOL0     H45748   4.070   1.591   2.642  0.2065 -2.0802 -0.6619
  339MOL0     H45749   3.846   1.205   2.440 -1.6695 -0.4202 -0.1188
  339MOL0     H45750   3.752   0.973   2.482  0.1617  1.1888  0.3910
  339MOL0     H45751   4.656   1.077   1.635  0.4655  1.9579 -2.4698
  339MOL0     H45752   4.511   0.995   1.447 -1.3569 -0.3729  1.5889
  339MOL0     H45753   4.278   0.646   1.305 -0.0281 -0.3230  0.2811
  339MOL0     H45754   4.107   0.554   1.155 -0.2929 -1.5534 -3.7307
  339MOL0     H45755   3.957   0.468   0.847 -1.1081 -0.7600  0.4047
  339MOL0     H45756   3.967   0.583   0.987  1.4624  0.9370  0.8119
  339MOL0     H45757   4.122   0.719   0.849  1.0821  0.6517 -0.7424
  339MOL0     H45758   3.954   0.741   0.809 -1.8553 -2.2027 -0.5512
  339MOL0     H45759   3.983   0.565   0.627 -0.7584  0.2855  1.9842
  339MOL0     H45760   4.158   0.553   0.663 -0.9692 -2.0017 -1.3266
  339MOL0     H45761   4.145   0.831   0.617 -2.2380 -1.1904  2.3037
  339MOL0     H45762   3.995   0.784   0.546  0.5230  0.6842 -2.4624
  339MOL0     H45763   4.219   0.646   0.237 -1.6633  1.7158 -0.8650
  339MOL0     H45764   4.372   0.542   0.838 -1.5174  0.0311 -0.2410
  339MOL0     H45765   4.556   0.633   0.972  0.0603 -0.1176  1.2720
  340MOL0     O45766   8.033   1.237   1.925  0.4228  1.9078 -0.1280
  340MOL0     C45767   8.057   1.217   2.039 -0.1252 -0.2742 -0.4836
  340MOL0     O45768   7.985   1.168   2.141 -0.1547 -0.3331  0.5286
  340MOL0     C45769   7.866   1.105   2.125 -0.6451  0.7689  0.0805
  340MOL0     C45770   7.765   1.157   2.036  0.5236  0.2643 -0.1580
  340MOL0     C45771   7.648   1.082   2.010  0.5909  0.0053 -0.0871
  340MOL0     C45772   7.618   0.964   2.076 -0.6470 -0.5401  0.2585
  340MOL0     O45773   7.506   0.889   2.065 -0.5984  0.0687  0.2654
  340MOL0     C45774   7.386   0.915   1.990  0.8696  0.1060  0.8684
  340MOL0     C45775   7.282   0.961   2.093  0.7892 -0.8621 -0.8653
  340MOL0     C45776   7.211   0.850   2.178  0.6528 -0.0648 -0.2762
  340MOL0     C45777   7.301   0.832   2.309  0.1870  0.2453 -0.0971
  340MOL0     C45778   7.219   0.755   2.417  0.8827  0.7764 -0.0829
  340MOL0     C45779   7.086   0.823   2.470 -0.7815  0.6675 -0.2208
  340MOL0     C45780   7.009   0.734   2.578 -0.3661 -0.8003  0.3701
  340MOL0     C45781   7.087   0.699   2.702  0.2514  0.6759 -0.2986
  340MOL0     N45782   7.007   0.635   2.810  0.0016 -0.2800  0.4922
  340MOL0     C45783   6.902   0.689   2.880  0.0003  0.8181 -0.2738
  340MOL0     C45784   6.847   0.586   2.956 -0.4076 -0.3273 -0.4755
  340MOL0     C45785   6.729   0.601   3.045  0.2244 -0.6946 -0.8717
  340MOL0     C45786   6.757   0.678   3.170  0.2126 -0.4310  0.1483
  340MOL0     C45787   6.625   0.704   3.254 -0.5071 -0.8540 -0.4143
  340MOL0     C45788   6.681   0.792   3.371  1.0051 -0.4509  0.2690
  340MOL0     O45789   6.604   0.790   3.494  0.4356 -0.2319 -0.5216
  340MOL0     C45790   6.612   0.675   3.571  0.4367 -0.2959 -0.3328
  340MOL0     C45791   6.546   0.679   3.694  0.8983 -0.5307  0.2975
  340MOL0     C45792   6.539   0.568   3.786  0.9011  0.0348 -0.6965
  340MOL0     C45793   6.474   0.597   3.928  0.2951  0.3463 -0.5307
  340MOL0     C45794   6.603   0.441   3.748 -0.0380 -0.0564 -0.3660
  340MOL0     C45795   6.588   0.320   3.830 -0.8306  1.0330  0.3062
  340MOL0     O45796   6.643   0.205   3.769  0.1248  0.9517  0.2242
  340MOL0     C45797   6.661   0.084   3.842 -1.4474 -0.1585  0.3461
  340MOL0     C45798   6.748   0.087   3.952 -0.0311 -0.4316  0.6457
  340MOL0     C45799   6.769  -0.028   4.023  0.4219  0.4657 -0.7618
  340MOL0     C45800   6.700  -0.142   3.977 -0.0968  0.6141  0.7603
  340MOL0     O45801   6.736  -0.262   4.044 -0.6332 -0.3721 -0.8204
  340MOL0     C45802   6.814  -0.352   3.954  0.1714  0.0950  0.3747
  340MOL0     C45803   6.872  -0.471   4.026 -0.0963 -0.6584 -0.0870
  340MOL0     C45804   6.777  -0.551   4.108  0.7825  0.7341  0.5045
  340MOL0     C45805   6.837  -0.678   4.163 -0.0711  0.7947  0.2690
  340MOL0     C45806   6.740  -0.781   4.239 -0.3840  0.5666 -0.1977
  340MOL0     C45807   6.669  -0.885   4.149  0.6976 -0.0056  0.2757
  340MOL0     C45808   6.609  -1.003   4.222 -0.0252 -0.3051 -0.5922
  340MOL0     C45809   6.576  -1.120   4.133  0.2190  0.8287  0.8810
  340MOL0    Cl45810   6.415  -1.074   4.061 -0.1237  0.2553  0.0433
  340MOL0     C45811   6.613  -0.146   3.865 -1.2305 -0.0416  0.8294
  340MOL0     C45812   6.589  -0.026   3.813 -0.7015 -0.0998 -1.0568
  340MOL0     O45813   6.529   0.315   3.936  0.1967 -0.6115  1.0762
  340MOL0     C45814   6.672   0.438   3.624 -0.4508 -1.0798 -0.0959
  340MOL0     C45815   6.685   0.553   3.537 -0.1200 -0.1225  0.3592
  340MOL0     N45816   6.927   0.479   2.928  0.1359  0.7028  0.8181
  340MOL0     N45817   7.017   0.500   2.838 -0.3476  0.4327 -0.6558
  340MOL0     C45818   7.713   0.921   2.173 -0.5499  0.3773 -0.1882
  340MOL0     C45819   7.838   0.983   2.185  0.1761  0.4731  0.5591
  340MOL0     C45820   8.195   1.270   2.076 -0.4218  0.0244  0.3896
  340MOL0     C45821   8.243   1.251   2.207  0.7503  0.2233 -0.0419
  340MOL0     C45822   8.370   1.290   2.236  0.0441 -0.2558  0.2621
  340MOL0     C45823   8.455   1.372   2.153  0.6585  0.5298 -0.7954
  340MOL0     O45824   8.574   1.416   2.206  0.3441  0.1656 -0.0399
  340MOL0     C45825   8.681   1.470   2.123 -0.1534  0.1145  0.1314
  340MOL0     C45826   8.808   1.468   2.205  0.2179 -0.8500  1.0036
  340MOL0     C45827   8.922   1.548   2.138 -0.2337  0.7949  0.9701
  340MOL0     C45828   9.053   1.520   2.212  0.6098  0.2658 -0.1321
  340MOL0     C45829   9.056   1.613   2.323  0.0741  0.4225  0.9404
  340MOL0     C45830   9.051   1.711   2.405 -0.5442 -0.9684 -0.3241
  340MOL0     C45831   8.403   1.406   2.029  0.8919 -0.0685  0.0046
  340MOL0     C45832   8.270   1.367   1.991  0.2079  0.6171  0.0386
  340MOL0     H45833   7.770   1.244   1.973 -1.3232  0.5790  0.0513
  340MOL0     H45834   7.579   1.121   1.935 -2.0307  0.0512  2.1803
  340MOL0     H45835   7.402   0.993   1.915 -1.8617 -2.1052 -2.3451
  340MOL0     H45836   7.354   0.826   1.934  0.6094  1.1700 -0.7160
  340MOL0     H45837   7.330   1.027   2.166  0.3402 -1.4026 -0.0702
  340MOL0     H45838   7.205   1.022   2.044 -1.4836  0.0603  3.3996
  340MOL0     H45839   7.112   0.883   2.208  0.3219 -1.3997  0.1526
  340MOL0     H45840   7.200   0.758   2.119  0.4496 -1.6110  2.0545
  340MOL0     H45841   7.397   0.788   2.280  0.3075 -0.3581  1.1324
  340MOL0     H45842   7.325   0.929   2.351  1.6293  0.6469 -1.7542
  340MOL0     H45843   7.202   0.651   2.389 -0.7726  1.9130 -4.0564
  340MOL0     H45844   7.272   0.742   2.512  0.9452 -0.3508 -0.2575
  340MOL0     H45845   7.111   0.921   2.510 -0.1886 -1.1179  4.3097
  340MOL0     H45846   7.009   0.812   2.392 -1.2764 -1.4141  0.5024
  340MOL0     H45847   6.909   0.775   2.594 -0.0816  1.7498 -3.0405
  340MOL0     H45848   7.003   0.637   2.528  1.8030  0.3521 -2.4105
  340MOL0     H45849   7.139   0.784   2.747  2.1228 -0.9965  0.8587
  340MOL0     H45850   7.180   0.646   2.680  1.6320  2.6903  0.4535
  340MOL0     H45851   6.862   0.789   2.874 -1.1994  0.6481  2.7970
  340MOL0     H45852   6.650   0.657   2.993  0.6359  0.6082 -0.1521
  340MOL0     H45853   6.695   0.499   3.064  1.2253 -0.8031  0.4727
  340MOL0     H45854   6.795   0.777   3.142 -2.8244  0.6683 -0.4358
  340MOL0     H45855   6.835   0.625   3.227  0.2483 -3.7601 -2.6921
  340MOL0     H45856   6.584   0.608   3.284  0.7693 -0.9334  1.1758
  340MOL0     H45857   6.544   0.760   3.205 -1.7583 -0.8012  1.5844
  340MOL0     H45858   6.685   0.896   3.338 -0.3706 -0.5354 -0.1944
  340MOL0     H45859   6.787   0.775   3.395  0.9070 -0.7093  0.5220
  340MOL0     H45860   6.488   0.770   3.706 -3.2397 -2.4475 -2.7722
  340MOL0     H45861   6.435   0.699   3.939 -3.2255 -0.8746 -0.6832
  340MOL0     H45862   6.395   0.526   3.952 -0.8358  2.0636  1.0958
  340MOL0     H45863   6.545   0.582   4.010 -1.7934  0.5398  1.3967
  340MOL0     H45864   6.810   0.176   3.962  0.6279 -0.6319 -1.2259
  340MOL0     H45865   6.829  -0.031   4.114 -0.1355 -0.1831 -0.4021
  340MOL0     H45866   6.758  -0.378   3.864  0.8626  0.6166 -0.2243
  340MOL0     H45867   6.896  -0.292   3.914 -3.4329  3.9976 -2.0141
  340MOL0     H45868   6.923  -0.523   3.945  0.1994 -0.3369 -0.1104
  340MOL0     H45869   6.945  -0.435   4.099 -0.3223 -0.3786  0.0064
  340MOL0     H45870   6.684  -0.575   4.055  2.1855  1.6110 -2.5966
  340MOL0     H45871   6.753  -0.493   4.198 -0.3064  0.7927  0.1910
  340MOL0     H45872   6.882  -0.735   4.082  0.2851  1.8851 -0.3252
  340MOL0     H45873   6.924  -0.656   4.227 -0.8484 -0.4394  1.8319
  340MOL0     H45874   6.654  -0.728   4.280 -0.8032 -1.6446  2.0624
  340MOL0     H45875   6.807  -0.827   4.313 -1.1636 -0.0145  0.1629
  340MOL0     H45876   6.593  -0.834   4.090  0.6281  0.3098  0.6396
  340MOL0     H45877   6.734  -0.927   4.071  0.5891  1.3851 -0.5927
  340MOL0     H45878   6.523  -0.970   4.281  1.2306 -1.5007  2.0881
  340MOL0     H45879   6.678  -1.034   4.302  0.7792 -1.3228 -1.6420
  340MOL0     H45880   6.554  -1.207   4.196 -2.1171  0.5163 -0.2413
  340MOL0     H45881   6.656  -1.144   4.063 -0.0517  0.7587  0.5935
  340MOL0     H45882   6.568  -0.238   3.828 -1.3421  1.1049 -2.0848
  340MOL0     H45883   6.519  -0.010   3.732  0.3499 -0.8763 -2.1598
  340MOL0     H45884   6.722   0.346   3.596 -0.5393 -0.0038 -4.6827
  340MOL0     H45885   6.738   0.544   3.443 -0.8591  2.3655 -0.3826
  340MOL0     H45886   7.696   0.825   2.219 -0.1578  0.3108 -0.1766
  340MOL0     H45887   7.923   0.947   2.241  1.8195  2.2394 -0.6657
  340MOL0     H45888   8.184   1.189   2.274 -0.1203  3.3480  2.2773
  340MOL0     H45889   8.420   1.257   2.327  1.2934  0.4399 -0.1371
  340MOL0     H45890   8.678   1.419   2.026  0.5629  1.7983 -0.8180
  340MOL0     H45891   8.652   1.575   2.108  2.4023  1.1830  1.9956
  340MOL0     H45892   8.837   1.363   2.219  0.9291 -0.5793  1.6210
  340MOL0     H45893   8.782   1.511   2.302 -2.8026 -0.7268  0.2367
  340MOL0     H45894   8.908   1.656   2.149  1.8455  1.0521  1.5512
  340MOL0     H45895   8.935   1.527   2.032  0.6308  0.5316  1.1189
  340MOL0     H45896   9.127   1.548   2.137 -2.0449  5.8185 -1.3004
  340MOL0     H45897   9.065   1.417   2.247 -0.5991 -0.6056 -2.1055
  340MOL0     H45898   9.058   1.808   2.451 -2.5744  0.6517 -3.1449
  340MOL0     H45899   8.464   1.452   1.952  1.4932 -3.2375 -1.5636
  340MOL0     H45900   8.239   1.402   1.893 -0.9388 -2.1156 -0.6746
  341MOL0     O45901   7.974   7.906   2.620 -0.0202 -0.2757  0.3322
  341MOL0     C45902   7.923   7.912   2.509 -0.4430 -0.1526  0.2561
  341MOL0     O45903   7.823   7.996   2.472 -0.0286  1.0146  0.6433
  341MOL0     C45904   7.756   8.059   2.576  0.0863 -0.3127  0.6466
  341MOL0     C45905   7.782   8.191   2.610 -0.0333 -0.0833  0.1898
  341MOL0     C45906   7.741   8.254   2.728  0.2017 -0.4667 -0.7944
  341MOL0     C45907   7.671   8.180   2.817  0.5795 -0.5163 -0.4345
  341MOL0     O45908   7.644   8.239   2.939  0.8149 -0.0232  0.4429
  341MOL0     C45909   7.574   8.176   3.048 -0.3248  0.1189  0.5122
  341MOL0     C45910   7.577   8.269   3.173 -0.2167 -0.2316 -0.3713
  341MOL0     C45911   7.710   8.253   3.263 -0.2894  0.7675  0.3003
  341MOL0     C45912   7.698   8.122   3.341  0.7041  0.2018 -0.4023
  341MOL0     C45913   7.807   8.135   3.446 -1.4427  0.1790  0.8236
  341MOL0     C45914   7.955   8.111   3.395  0.2713 -0.0056 -0.0822
  341MOL0     C45915   8.040   8.085   3.516 -0.1175 -0.3136 -0.3941
  341MOL0     C45916   8.076   7.936   3.533  0.2289 -0.4721  0.4748
  341MOL0     N45917   7.958   7.856   3.579 -1.2555  0.5570 -0.5356
  341MOL0     C45918   7.927   7.848   3.709  0.1670 -0.4384 -0.2868
  341MOL0     C45919   7.802   7.799   3.698  0.3602  0.1891  0.6773
  341MOL0     C45920   7.734   7.772   3.833  0.3109 -0.5437 -0.6601
  341MOL0     C45921   7.695   7.907   3.891 -0.7569 -0.7988  0.6014
  341MOL0     C45922   7.592   7.992   3.799 -1.0975 -0.5159 -0.5526
  341MOL0     C45923   7.450   7.928   3.793 -0.5098 -0.1072  0.7783
  341MOL0     O45924   7.369   8.009   3.712  0.6568  0.1899 -0.5402
  341MOL0     C45925   7.379   7.998   3.571 -0.6751 -0.4653 -0.2266
  341MOL0     C45926   7.312   8.111   3.515  0.3130 -0.2278 -0.6173
  341MOL0     C45927   7.290   8.117   3.378  0.3633  0.1806  0.0133
  341MOL0     C45928   7.190   8.225   3.331 -1.0953 -0.5670 -0.4890
  341MOL0     C45929   7.328   8.007   3.301 -0.5763 -0.9838  0.0800
  341MOL0     C45930   7.298   7.992   3.150  0.8905  0.2119 -0.5248
  341MOL0     O45931   7.209   8.072   3.087  0.0801 -0.0979  0.0640
  341MOL0     C45932   7.160   8.050   2.957 -0.6060 -0.6591  0.5239
  341MOL0     C45933   7.215   8.125   2.851 -0.1631 -0.2431 -0.6051
  341MOL0     C45934   7.158   8.114   2.726 -0.1643  0.2693  0.0760
  341MOL0     C45935   7.072   8.015   2.687 -0.3035 -0.1858 -0.5262
  341MOL0     O45936   7.015   7.998   2.563 -0.6940 -0.4421 -0.0941
  341MOL0     C45937   7.023   8.105   2.479  0.2994  0.7311 -0.0084
  341MOL0     C45938   6.914   8.087   2.376  0.8562  0.1597  0.6093
  341MOL0     C45939   6.767   8.094   2.432 -0.1698 -0.3045 -0.4531
  341MOL0     C45940   6.664   8.074   2.312 -0.5167 -0.6967  0.6779
  341MOL0     C45941   6.529   8.086   2.358  0.7825  0.6916 -0.6499
  341MOL0     C45942   6.431   8.098   2.240  0.7481  0.6867 -0.3173
  341MOL0     C45943   6.291   8.098   2.289 -0.2024  0.2000 -0.7213
  341MOL0     C45944   6.196   8.162   2.192 -0.5002  0.3795  0.1917
  341MOL0    Cl45945   6.204   8.070   2.045 -0.2667 -0.2672  0.3444
  341MOL0     C45946   7.039   7.929   2.791  0.2330  0.5318  0.0380
  341MOL0     C45947   7.073   7.950   2.923  0.3554 -0.0121  1.0574
  341MOL0     O45948   7.359   7.903   3.095 -0.8661  0.1797  0.9782
  341MOL0     C45949   7.399   7.899   3.355 -0.6693 -0.3525 -0.7984
  341MOL0     C45950   7.429   7.888   3.489 -0.2480 -1.0207  0.5731
  341MOL0     N45951   7.768   7.770   3.560 -0.2881  0.6456 -1.3491
  341MOL0     N45952   7.866   7.803   3.500 -0.4342  0.4389  0.2895
  341MOL0     C45953   7.632   8.044   2.792 -0.3342 -1.0366 -0.1801
  341MOL0     C45954   7.675   7.989   2.666 -0.4601 -0.5795  1.0187
  341MOL0     C45955   7.978   7.815   2.415  0.5283 -0.3500 -0.6958
  341MOL0     C45956   8.113   7.779   2.419  0.6336  0.1668 -0.0802
  341MOL0     C45957   8.151   7.672   2.332 -0.1004  0.8057 -1.0849
  341MOL0     C45958   8.073   7.611   2.236  0.6356  0.1627 -0.9071
  341MOL0     O45959   8.110   7.503   2.160 -0.1380  0.0458 -0.4157
  341MOL0     C45960   8.238   7.439   2.170 -0.6359 -0.0619  0.5700
  341MOL0     C45961   8.262   7.352   2.296  0.2359  1.0020  0.0363
  341MOL0     C45962   8.384   7.251   2.267  0.5007  0.1151 -0.0392
  341MOL0     C45963   8.386   7.143   2.371  0.6600  0.9900  0.1811
  341MOL0     C45964   8.267   7.055   2.365 -0.6476 -0.4500 -0.0638
  341MOL0     C45965   8.177   6.969   2.365 -0.3195  0.7110  0.1908
  341MOL0     C45966   7.940   7.660   2.234 -0.5164 -0.1253 -0.3003
  341MOL0     C45967   7.898   7.774   2.306 -0.0488 -0.4305 -0.7301
  341MOL0     H45968   7.851   8.246   2.547 -0.4112  1.1957  0.8615
  341MOL0     H45969   7.769   8.356   2.753  0.8327 -0.8414  0.0747
  341MOL0     H45970   7.469   8.164   3.018 -0.0638  1.0301 -0.8315
  341MOL0     H45971   7.621   8.079   3.065 -1.6683 -0.4709  0.9795
  341MOL0     H45972   7.550   8.369   3.138 -0.0656 -0.7879 -2.2022
  341MOL0     H45973   7.497   8.250   3.246  0.5372  3.7478  1.7386
  341MOL0     H45974   7.795   8.233   3.198  2.8506 -2.2143  4.7446
  341MOL0     H45975   7.730   8.337   3.330  1.9490 -0.7806  1.7130
  341MOL0     H45976   7.601   8.097   3.385  0.0838 -4.2946 -3.5367
  341MOL0     H45977   7.723   8.045   3.267  3.7532  1.6678 -1.0384
  341MOL0     H45978   7.804   8.229   3.502  0.5834  0.7425  0.0962
  341MOL0     H45979   7.792   8.056   3.521  2.2918 -1.1527  0.3963
  341MOL0     H45980   7.959   8.022   3.332  0.5552  0.2573 -0.4326
  341MOL0     H45981   7.988   8.197   3.337  0.6754 -0.3623 -0.3833
  341MOL0     H45982   8.135   8.136   3.500  0.8779 -0.5337  3.6628
  341MOL0     H45983   8.003   8.115   3.614 -1.6158  3.0402 -1.8375
  341MOL0     H45984   8.152   7.923   3.610  0.0051  1.3161  1.0529
  341MOL0     H45985   8.102   7.899   3.433  0.2910  1.3004 -0.2070
  341MOL0     H45986   7.980   7.870   3.801 -1.9411 -1.2480  1.2046
  341MOL0     H45987   7.647   7.706   3.821 -1.3243  0.9215  2.1513
  341MOL0     H45988   7.804   7.717   3.896 -0.1233  0.3006  0.5854
  341MOL0     H45989   7.787   7.964   3.900 -0.2816 -1.2336 -1.0476
  341MOL0     H45990   7.660   7.892   3.994 -3.6950 -0.8233 -0.3149
  341MOL0     H45991   7.635   8.027   3.705  2.7929  0.7205  1.4768
  341MOL0     H45992   7.574   8.078   3.864 -1.9714 -1.9831  1.2681
  341MOL0     H45993   7.396   7.921   3.887 -2.3776 -2.0222 -0.3489
  341MOL0     H45994   7.457   7.824   3.758 -0.5385  0.2932 -0.4935
  341MOL0     H45995   7.268   8.181   3.584  3.2464  0.6105  0.5649
  341MOL0     H45996   7.235   8.300   3.265 -2.9150  1.4726  0.4227
  341MOL0     H45997   7.104   8.197   3.269 -1.0554  3.6276 -2.7869
  341MOL0     H45998   7.150   8.281   3.416  1.1182  1.7434 -0.8343
  341MOL0     H45999   7.300   8.190   2.871 -0.5795 -0.4345  2.2593
  341MOL0     H46000   7.196   8.189   2.657 -0.3704 -0.2632 -0.6290
  341MOL0     H46001   7.010   8.206   2.520  0.1565  1.3721 -1.5613
  341MOL0     H46002   7.115   8.112   2.420  0.2811 -1.3827 -0.3667
  341MOL0     H46003   6.938   8.158   2.297  2.2516 -1.3235 -0.3516
  341MOL0     H46004   6.918   7.984   2.340  3.3319  0.0318  1.0849
  341MOL0     H46005   6.756   8.187   2.489  3.8542 -0.6759  1.3061
  341MOL0     H46006   6.763   8.013   2.506  0.4384  0.4689  0.4472
  341MOL0     H46007   6.688   8.156   2.243 -0.9509 -1.6537 -0.6508
  341MOL0     H46008   6.675   7.978   2.263  0.3572  0.6086 -1.8522
  341MOL0     H46009   6.513   8.171   2.425  1.9314 -0.2977  0.9582
  341MOL0     H46010   6.506   7.996   2.416  0.3590  0.7115 -0.7857
  341MOL0     H46011   6.434   8.187   2.177 -2.2946 -2.7291 -6.1418
  341MOL0     H46012   6.447   8.018   2.167  2.1287  0.5324  0.1144
  341MOL0     H46013   6.283   8.140   2.389 -2.3260 -3.0441  0.6455
  341MOL0     H46014   6.272   7.995   2.322  1.7881  0.5244  1.7251
  341MOL0     H46015   6.222   8.264   2.163 -0.3479 -0.7549 -4.4793
  341MOL0     H46016   6.095   8.166   2.235 -1.6646 -1.7773 -2.0257
  341MOL0     H46017   6.972   7.846   2.772 -1.9076  2.2451 -0.3912
  341MOL0     H46018   7.032   7.903   3.011 -5.5966 -0.0603 -1.2939
  341MOL0     H46019   7.427   7.818   3.289 -1.1423 -0.0800 -1.3398
  341MOL0     H46020   7.497   7.811   3.525  1.6242 -1.0351 -2.5948
  341MOL0     H46021   7.569   7.984   2.857 -1.7457  0.6028  0.0453
  341MOL0     H46022   7.652   7.891   2.626 -2.7782  1.1388 -2.4260
  341MOL0     H46023   8.181   7.812   2.497 -2.0650  0.9276  2.1273
  341MOL0     H46024   8.254   7.642   2.345 -1.4209 -4.0263  0.0176
  341MOL0     H46025   8.242   7.383   2.076  1.0637  2.0056 -0.6637
  341MOL0     H46026   8.318   7.513   2.180 -0.3588 -0.3748  0.6731
  341MOL0     H46027   8.167   7.298   2.307  1.2612 -0.7842  0.6150
  341MOL0     H46028   8.287   7.417   2.380 -1.5207  2.4450 -0.5137
  341MOL0     H46029   8.481   7.302   2.267  0.3084  0.5440 -1.4098
  341MOL0     H46030   8.381   7.204   2.168 -3.1040  0.7648 -0.3831
  341MOL0     H46031   8.386   7.175   2.476  1.4562 -1.5287  1.0222
  341MOL0     H46032   8.471   7.082   2.343  1.5834  2.6592 -0.8110
  341MOL0     H46033   8.106   6.890   2.378  0.3868 -0.3050 -1.6420
  341MOL0     H46034   7.871   7.614   2.164 -1.0626 -0.3260  0.3582
  341MOL0     H46035   7.794   7.802   2.293 -0.4298 -2.3911 -2.4020
  342MOL0     O46036  10.246   8.082   4.599 -0.3023  0.5989 -0.4009
  342MOL0     C46037  10.217   8.135   4.489 -0.3154 -0.0655 -0.3069
  342MOL0     O46038  10.171   8.071   4.378  0.1158 -0.1694  0.7231
  342MOL0     C46039  10.160   7.935   4.373 -0.4751  0.5274 -0.5548
  342MOL0     C46040  10.034   7.871   4.386  0.4158 -0.3114  0.2673
  342MOL0     C46041  10.024   7.737   4.403 -0.0431 -0.2123 -0.7369
  342MOL0     C46042  10.143   7.656   4.416  0.1853  0.4770  0.0885
  342MOL0     O46043  10.142   7.517   4.430 -0.2917  0.5395  0.1534
  342MOL0     C46044  10.011   7.450   4.425  0.3071 -0.0800  0.6013
  342MOL0     C46045  10.020   7.297   4.419  0.2796  0.1876  0.0726
  342MOL0     C46046   9.884   7.218   4.413 -0.0080  0.3437 -1.0904
  342MOL0     C46047   9.906   7.073   4.373  0.1524  0.7053 -0.3195
  342MOL0     C46048   9.789   6.977   4.364  0.4242  0.0421  0.1940
  342MOL0     C46049   9.676   7.017   4.268 -0.4698  0.0633  0.3726
  342MOL0     C46050   9.718   7.007   4.122 -0.2686  0.6364  0.5458
  342MOL0     C46051   9.595   7.019   4.023  0.3100 -0.1707  0.5160
  342MOL0     N46052   9.536   7.162   4.031 -0.6526 -0.2615 -0.4054
  342MOL0     C46053   9.489   7.229   3.923 -0.2213  0.1880 -0.6445
  342MOL0     C46054   9.421   7.332   3.980 -0.3137 -0.1886  0.1369
  342MOL0     C46055   9.325   7.439   3.917  0.4522 -0.4540  1.1370
  342MOL0     C46056   9.199   7.373   3.860  0.2988 -0.0889  0.4355
  342MOL0     C46057   9.091   7.470   3.803 -0.0038  0.0281 -0.4293
  342MOL0     C46058   9.116   7.486   3.645  0.2052 -0.0752  0.3701
  342MOL0     O46059   9.227   7.567   3.604 -0.2152  0.4741 -0.5287
  342MOL0     C46060   9.237   7.582   3.464  0.0546 -0.0766  0.6719
  342MOL0     C46061   9.340   7.666   3.411  0.0897 -0.6830  0.0090
  342MOL0     C46062   9.342   7.706   3.276 -0.1517 -0.9305 -0.5257
  342MOL0     C46063   9.453   7.795   3.230  0.9782  0.0347 -0.6368
  342MOL0     C46064   9.252   7.644   3.188 -0.4341 -0.0853 -0.2511
  342MOL0     C46065   9.237   7.665   3.038  1.1647 -0.6794  0.1674
  342MOL0     O46066   9.185   7.564   2.961  0.2841  0.4929 -0.2563
  342MOL0     C46067   9.185   7.592   2.827 -0.6360 -0.1093 -0.3747
  342MOL0     C46068   9.069   7.641   2.771 -0.8486  0.1818  0.0647
  342MOL0     C46069   9.069   7.686   2.636 -0.6305  0.7942  0.4917
  342MOL0     C46070   9.189   7.672   2.562 -0.9264 -0.5180 -0.1618
  342MOL0     O46071   9.206   7.708   2.429 -0.2020 -0.6128 -0.4381
  342MOL0     C46072   9.123   7.819   2.397 -0.0706 -0.8912  0.0838
  342MOL0     C46073   9.169   7.886   2.267  0.2885  0.1899 -0.0916
  342MOL0     C46074   9.073   7.993   2.203 -0.0524 -0.2654 -0.7009
  342MOL0     C46075   9.040   8.107   2.307  0.1369 -0.5001 -0.4390
  342MOL0     C46076   8.981   8.226   2.233  0.0436  0.0014  0.4061
  342MOL0     C46077   8.972   8.344   2.318  0.7925  0.1624 -0.2848
  342MOL0     C46078   8.901   8.462   2.242 -0.0157  0.8367  0.4936
  342MOL0     C46079   8.886   8.570   2.346  1.0223 -0.3259  0.4695
  342MOL0    Cl46080   8.781   8.519   2.476  0.1271 -0.0577 -0.3963
  342MOL0     C46081   9.312   7.630   2.624  0.3980  0.1588 -0.8854
  342MOL0     C46082   9.299   7.591   2.757 -1.0192 -0.4059 -1.1849
  342MOL0     O46083   9.270   7.776   2.997 -0.4805  0.1457  0.2706
  342MOL0     C46084   9.155   7.548   3.234 -0.5232  0.2750  0.0645
  342MOL0     C46085   9.150   7.523   3.373 -0.8333 -0.1507 -0.6184
  342MOL0     N46086   9.426   7.317   4.115  0.3647  0.0591 -0.8003
  342MOL0     N46087   9.495   7.218   4.145  0.1253  0.1209 -0.8234
  342MOL0     C46088  10.262   7.721   4.400  0.2421 -0.4713  0.4740
  342MOL0     C46089  10.274   7.860   4.374 -0.6773 -0.2534  0.1836
  342MOL0     C46090  10.218   8.281   4.476  0.2420  0.6994 -0.3487
  342MOL0     C46091  10.231   8.345   4.351 -1.1002 -0.6682 -0.0999
  342MOL0     C46092  10.229   8.478   4.342  0.0283  0.4380 -0.6766
  342MOL0     C46093  10.216   8.560   4.459 -0.0589 -0.1413  0.4856
  342MOL0     O46094  10.229   8.695   4.433 -0.2929  0.1420 -0.3834
  342MOL0     C46095  10.119   8.773   4.481 -0.3280 -0.1378  0.5937
  342MOL0     C46096  10.020   8.775   4.377  0.1618 -0.2873 -0.1226
  342MOL0     C46097   9.925   8.905   4.401 -0.3595 -0.6126 -0.1097
  342MOL0     C46098   9.807   8.908   4.306  0.4033  0.6016  0.6895
  342MOL0     C46099   9.706   9.020   4.329  0.1936 -0.9744 -0.3730
  342MOL0     C46100   9.631   9.115   4.341  0.3561  0.4327 -0.7550
  342MOL0     C46101  10.210   8.495   4.586  0.2807  0.4957 -0.5096
  342MOL0     C46102  10.213   8.357   4.596  0.2492 -1.0094  0.7099
  342MOL0     H46103   9.945   7.932   4.374  1.5638  0.9493 -3.4208
  342MOL0     H46104   9.920   7.707   4.408 -0.0790  0.0657  3.3808
  342MOL0     H46105   9.944   7.479   4.506 -1.3724  1.2517 -1.1649
  342MOL0     H46106   9.963   7.483   4.333  1.3533 -0.6561 -0.1749
  342MOL0     H46107  10.094   7.281   4.340  0.2170  0.5868 -0.0729
  342MOL0     H46108  10.056   7.273   4.519 -2.4923  0.5294  1.2450
  342MOL0     H46109   9.841   7.234   4.512  0.1311  2.0908 -1.2837
  342MOL0     H46110   9.820   7.259   4.334 -0.3802 -0.1321 -1.0403
  342MOL0     H46111   9.951   7.080   4.273  2.4650 -0.3685  0.5794
  342MOL0     H46112   9.978   7.015   4.430  1.4509  0.0235 -2.5156
  342MOL0     H46113   9.820   6.878   4.330  0.6740  0.4685 -0.8820
  342MOL0     H46114   9.744   6.963   4.463  0.0659  0.0153  0.0295
  342MOL0     H46115   9.588   6.957   4.294  0.2542 -0.0136  2.9584
  342MOL0     H46116   9.653   7.120   4.296  2.7948  1.0503 -0.2547
  342MOL0     H46117   9.794   7.081   4.095  2.1134 -1.0482  2.2028
  342MOL0     H46118   9.773   6.912   4.116  1.1001  1.4756 -1.4614
  342MOL0     H46119   9.521   6.940   4.038 -0.0717 -0.5458 -2.6830
  342MOL0     H46120   9.620   6.998   3.919 -1.9510  3.6455 -1.0044
  342MOL0     H46121   9.497   7.212   3.816  1.2162  2.1820 -0.9147
  342MOL0     H46122   9.292   7.504   3.998 -1.7092 -1.1304  0.8547
  342MOL0     H46123   9.375   7.498   3.839 -0.7337  0.3562  0.9741
  342MOL0     H46124   9.155   7.320   3.945 -0.3620 -0.6544 -0.2579
  342MOL0     H46125   9.219   7.299   3.783  1.3629  1.4505 -0.8484
  342MOL0     H46126   9.107   7.557   3.867  2.1924 -1.9628  1.9460
  342MOL0     H46127   8.988   7.438   3.819 -0.6532  1.6092 -1.2873
  342MOL0     H46128   9.019   7.521   3.609 -0.6451 -1.9954  0.6687
  342MOL0     H46129   9.142   7.387   3.606 -3.0825 -1.8014  2.0828
  342MOL0     H46130   9.407   7.709   3.485  1.1447 -0.1467 -1.2105
  342MOL0     H46131   9.505   7.850   3.310 -1.1087  1.4208 -0.1324
  342MOL0     H46132   9.524   7.741   3.168  1.8397  0.1135  0.2445
  342MOL0     H46133   9.405   7.872   3.169  0.0368 -0.9088 -1.1224
  342MOL0     H46134   8.984   7.655   2.837 -1.2607 -0.9599 -0.2056
  342MOL0     H46135   8.977   7.724   2.594 -1.1871 -0.2700  0.7138
  342MOL0     H46136   9.031   7.765   2.376 -0.0964  0.1638 -2.9162
  342MOL0     H46137   9.118   7.890   2.481  1.2009  0.8534 -1.2346
  342MOL0     H46138   9.260   7.942   2.291  2.2014 -2.0760 -1.6177
  342MOL0     H46139   9.175   7.807   2.192 -2.7934  0.2300 -0.4960
  342MOL0     H46140   8.976   7.947   2.181 -1.3451 -0.3776  4.1295
  342MOL0     H46141   9.122   8.036   2.115 -2.3449 -2.1082 -3.0523
  342MOL0     H46142   8.978   8.071   2.390  2.0778 -0.8181  0.9626
  342MOL0     H46143   9.129   8.146   2.358 -0.2558  0.4693 -0.4817
  342MOL0     H46144   8.880   8.210   2.192 -0.7642  2.8806  0.9882
  342MOL0     H46145   9.037   8.268   2.149 -1.1214  3.5613  1.2134
  342MOL0     H46146   8.908   8.329   2.405 -0.4745  3.7408 -0.4217
  342MOL0     H46147   9.074   8.375   2.346  2.0278 -0.7643 -3.3779
  342MOL0     H46148   8.802   8.427   2.212  1.8789 -3.6121 -1.4558
  342MOL0     H46149   8.956   8.479   2.149 -0.3299 -2.8172 -0.5172
  342MOL0     H46150   8.839   8.652   2.291  1.2411 -0.3152  0.2956
  342MOL0     H46151   8.985   8.598   2.384  2.5315 -2.7705 -1.3116
  342MOL0     H46152   9.402   7.631   2.564  1.0550 -1.3300  0.0273
  342MOL0     H46153   9.388   7.568   2.815 -1.6219  0.5921  0.1999
  342MOL0     H46154   9.101   7.481   3.167  0.4588 -0.6639  0.1880
  342MOL0     H46155   9.061   7.469   3.403 -0.6211  0.5241  1.4152
  342MOL0     H46156  10.352   7.661   4.407 -0.0128 -0.6462  3.9979
  342MOL0     H46157  10.366   7.918   4.375 -2.0046  2.0349  2.5831
  342MOL0     H46158  10.243   8.289   4.259  0.2522 -1.9115  0.7789
  342MOL0     H46159  10.218   8.519   4.242  2.6172 -0.0802 -1.2499
  342MOL0     H46160  10.088   8.737   4.579 -0.2418 -1.9786 -0.0142
  342MOL0     H46161  10.150   8.878   4.478  1.0116 -0.5009 -2.2831
  342MOL0     H46162   9.964   8.681   4.377  1.1125 -0.8664 -0.3366
  342MOL0     H46163  10.067   8.780   4.278  1.8740 -0.0322  0.6766
  342MOL0     H46164   9.992   8.990   4.382  0.3078 -1.3937 -1.4190
  342MOL0     H46165   9.884   8.907   4.502 -1.3499 -0.1128 -0.5058
  342MOL0     H46166   9.756   8.812   4.297 -4.6442  3.1120 -1.1158
  342MOL0     H46167   9.836   8.930   4.203 -1.7020  0.8873  0.1122
  342MOL0     H46168   9.561   9.191   4.367 -0.4111 -1.0964  2.0205
  342MOL0     H46169  10.202   8.552   4.678 -0.3161  0.7635 -0.7199
  342MOL0     H46170  10.209   8.318   4.698  0.4899  0.8457  1.4705
  343MOL0     O46171   4.440   6.455   0.640  0.2316  0.0528 -0.7562
  343MOL0     C46172   4.408   6.356   0.705  1.2274 -0.6070  0.0635
  343MOL0     O46173   4.320   6.258   0.669 -0.2800 -0.5941  0.8252
  343MOL0     C46174   4.274   6.258   0.534  0.6784 -0.2520 -0.1262
  343MOL0     C46175   4.306   6.153   0.450  0.5401  0.0568 -0.0083
  343MOL0     C46176   4.264   6.140   0.312 -0.1338 -0.0734 -0.1610
  343MOL0     C46177   4.156   6.225   0.267 -0.9512  0.4546 -0.9579
  343MOL0     O46178   4.091   6.219   0.151 -0.7443  0.9415 -0.2179
  343MOL0     C46179   4.180   6.185   0.033  0.0868  1.1090  0.4859
  343MOL0     C46180   4.267   6.315  -0.004  0.5771  0.2045  0.2601
  343MOL0     C46181   4.164   6.429  -0.059  0.2565  0.6686 -0.0491
  343MOL0     C46182   4.237   6.563  -0.075 -1.0579  0.7347 -0.1442
  343MOL0     C46183   4.149   6.679  -0.106  0.3914  0.3057  0.4418
  343MOL0     C46184   4.240   6.802  -0.113  0.0939 -0.7489  0.0694
  343MOL0     C46185   4.153   6.930  -0.124 -0.8809 -0.2422 -1.0151
  343MOL0     C46186   4.107   6.960   0.016  0.3418 -0.2111  0.0955
  343MOL0     N46187   3.973   7.015   0.015  0.6024  0.7093 -0.0519
  343MOL0     C46188   3.857   6.943   0.036 -0.1604  0.5311  0.4784
  343MOL0     C46189   3.763   7.034   0.076  0.1582 -0.4113 -0.5544
  343MOL0     C46190   3.613   6.998   0.105  0.1819 -0.6901 -0.2413
  343MOL0     C46191   3.553   7.049   0.231  0.3681  0.4880 -0.7875
  343MOL0     C46192   3.403   7.023   0.253  0.4613 -0.0648  0.4148
  343MOL0     C46193   3.370   6.868   0.243 -0.8796  0.1510  0.4278
  343MOL0     O46194   3.442   6.792   0.342 -0.6675  0.4002  0.3882
  343MOL0     C46195   3.384   6.665   0.370  0.6090 -0.3806 -1.0816
  343MOL0     C46196   3.295   6.595   0.291  0.1232  0.5691 -0.0299
  343MOL0     C46197   3.251   6.465   0.333  0.3607  0.0645  0.0206
  343MOL0     C46198   3.163   6.385   0.236  0.1138  0.6881 -0.3767
  343MOL0     C46199   3.290   6.410   0.459  0.5595  0.5678 -0.4001
  343MOL0     C46200   3.249   6.281   0.514 -0.3412  0.5744 -0.1167
  343MOL0     O46201   3.286   6.249   0.639 -0.3712  0.3033 -0.0608
  343MOL0     C46202   3.242   6.126   0.683  1.0787  0.3983  0.1765
  343MOL0     C46203   3.119   6.123   0.754  1.2139 -0.0623  1.0295
  343MOL0     C46204   3.061   6.003   0.799 -0.0089 -0.0583 -0.2855
  343MOL0     C46205   3.127   5.880   0.771  0.0070 -0.2481 -0.6303
  343MOL0     O46206   3.090   5.753   0.820  0.2404 -0.4557 -0.4806
  343MOL0     C46207   2.948   5.730   0.835  0.4696 -0.0687  0.0463
  343MOL0     C46208   2.933   5.571   0.808 -0.0973 -0.3465  0.5996
  343MOL0     C46209   2.787   5.543   0.812 -0.0163 -0.1936  0.1075
  343MOL0     C46210   2.758   5.395   0.763 -0.3372  0.2703  0.3061
  343MOL0     C46211   2.614   5.370   0.734  0.0877 -0.1209 -0.2869
  343MOL0     C46212   2.526   5.335   0.859 -0.6742 -0.0585  0.0506
  343MOL0     C46213   2.374   5.297   0.831 -0.8506  0.0288 -0.5589
  343MOL0     C46214   2.297   5.430   0.795 -0.0940  0.2342 -0.3235
  343MOL0    Cl46215   2.323   5.498   0.627  0.0666  0.2934 -0.2252
  343MOL0     C46216   3.235   5.884   0.683  0.6570 -0.5558 -0.2277
  343MOL0     C46217   3.296   6.004   0.645 -0.6852 -0.2142 -0.0693
  343MOL0     O46218   3.191   6.203   0.443 -0.4642  0.1037 -0.5258
  343MOL0     C46219   3.381   6.485   0.531 -0.0206 -0.4329 -0.2331
  343MOL0     C46220   3.434   6.601   0.491 -0.4852 -0.0423  0.7262
  343MOL0     N46221   3.827   7.161   0.069  0.3634 -0.8423  0.8035
  343MOL0     N46222   3.954   7.146   0.034  0.2786 -1.0207  0.3650
  343MOL0     C46223   4.123   6.331   0.357  0.9809 -0.8219  0.6257
  343MOL0     C46224   4.169   6.345   0.488 -0.1888  0.3088 -0.5670
  343MOL0     C46225   4.494   6.333   0.827  0.0965 -0.0255  0.0158
  343MOL0     C46226   4.594   6.417   0.864  0.5999 -0.6966 -0.6876
  343MOL0     C46227   4.685   6.380   0.965  0.4559  1.4569 -0.9988
  343MOL0     C46228   4.676   6.253   1.029 -0.7708 -0.3549 -0.1414
  343MOL0     O46229   4.769   6.239   1.132 -0.0179 -0.4149  1.0915
  343MOL0     C46230   4.751   6.154   1.250  0.2959 -0.3856  0.9967
  343MOL0     C46231   4.697   6.234   1.370 -0.4253 -0.4009 -0.5923
  343MOL0     C46232   4.630   6.136   1.471 -0.4880 -0.7487  0.5584
  343MOL0     C46233   4.712   6.026   1.536 -0.2738  0.1152 -0.2377
  343MOL0     C46234   4.846   6.081   1.581 -0.3672  0.0829 -0.2389
  343MOL0     C46235   4.950   6.123   1.624  1.4387  0.1167 -0.4433
  343MOL0     C46236   4.556   6.173   1.002 -0.0025  0.0935 -0.0281
  343MOL0     C46237   4.473   6.211   0.904 -0.2057 -0.8289  1.1681
  343MOL0     H46238   4.382   6.081   0.479  0.0696 -1.8517 -3.1198
  343MOL0     H46239   4.306   6.062   0.249 -3.8820 -2.4375 -0.0898
  343MOL0     H46240   4.254   6.110   0.061 -1.1538 -1.3206 -2.2332
  343MOL0     H46241   4.131   6.143  -0.055 -0.1043 -2.0115  1.9656
  343MOL0     H46242   4.319   6.345   0.087  1.1459 -0.7317  0.2473
  343MOL0     H46243   4.336   6.285  -0.083 -0.4550 -0.6330 -0.3488
  343MOL0     H46244   4.137   6.404  -0.162 -1.5090  1.2027  0.2537
  343MOL0     H46245   4.071   6.433  -0.002 -1.6859 -1.7367 -2.7913
  343MOL0     H46246   4.299   6.583   0.013 -1.6195  0.4772  0.3187
  343MOL0     H46247   4.313   6.552  -0.153 -1.3190 -0.0887 -0.3014
  343MOL0     H46248   4.086   6.663  -0.195  1.5157  2.5671 -0.8613
  343MOL0     H46249   4.084   6.678  -0.019  0.3538 -1.9898  0.4691
  343MOL0     H46250   4.314   6.801  -0.033  0.1221  1.7940  0.1641
  343MOL0     H46251   4.294   6.800  -0.209 -1.6972  2.4107 -1.1536
  343MOL0     H46252   4.217   7.016  -0.145  0.0620 -0.2851  1.4013
  343MOL0     H46253   4.076   6.937  -0.202 -1.7773 -0.3893 -0.1737
  343MOL0     H46254   4.168   7.030   0.073 -0.0480 -0.5730  0.9819
  343MOL0     H46255   4.088   6.871   0.077  0.6001  0.9071  1.8966
  343MOL0     H46256   3.833   6.839   0.015  0.6852  0.4960 -0.3967
  343MOL0     H46257   3.558   7.011   0.011  1.5304 -0.8439 -1.0808
  343MOL0     H46258   3.623   6.889   0.106 -2.0049 -0.9516  0.6896
  343MOL0     H46259   3.560   7.159   0.229 -0.6907  0.5777 -2.9611
  343MOL0     H46260   3.605   7.012   0.320 -0.2880 -5.0691 -2.3887
  343MOL0     H46261   3.347   7.093   0.190  1.1007  1.2449  1.2521
  343MOL0     H46262   3.390   7.059   0.355  0.2354  2.7671 -0.5062
  343MOL0     H46263   3.402   6.830   0.146 -0.3056  1.6244  0.0113
  343MOL0     H46264   3.262   6.866   0.260 -0.4547 -0.9426  3.8729
  343MOL0     H46265   3.256   6.644   0.203  0.7389  0.9226 -0.1143
  343MOL0     H46266   3.205   6.285   0.220  0.2651  0.4693  1.2461
  343MOL0     H46267   3.065   6.375   0.284  0.2435 -0.9652 -0.3904
  343MOL0     H46268   3.156   6.436   0.139 -1.2151  1.0064 -0.1268
  343MOL0     H46269   3.074   6.221   0.769  1.6199  0.2037  0.5232
  343MOL0     H46270   2.971   6.001   0.859  1.2622  2.0154  1.8748
  343MOL0     H46271   2.912   5.759   0.934 -0.6447  0.4758 -0.5031
  343MOL0     H46272   2.897   5.784   0.755 -1.7912 -2.6685 -0.4134
  343MOL0     H46273   2.966   5.542   0.708  0.5401  1.4171  0.2738
  343MOL0     H46274   2.982   5.518   0.890 -1.2042  1.2571  2.3726
  343MOL0     H46275   2.733   5.617   0.751  1.5065  3.3112  2.6417
  343MOL0     H46276   2.758   5.555   0.917  0.6152 -2.2683  0.5511
  343MOL0     H46277   2.807   5.368   0.669 -2.1675 -2.3006  0.0017
  343MOL0     H46278   2.783   5.330   0.847 -2.1229 -1.8852 -0.7421
  343MOL0     H46279   2.603   5.282   0.669  1.2429 -0.2460 -0.3354
  343MOL0     H46280   2.569   5.458   0.687  0.5823  0.4800  0.3509
  343MOL0     H46281   2.580   5.259   0.916  0.0407  2.5218  3.0926
  343MOL0     H46282   2.532   5.419   0.929  3.0753 -1.1880  1.3414
  343MOL0     H46283   2.327   5.246   0.916 -1.9133 -2.3589 -2.4444
  343MOL0     H46284   2.355   5.232   0.745 -1.4337 -2.8102  1.5841
  343MOL0     H46285   2.332   5.510   0.860  1.4383 -0.2099 -0.5525
  343MOL0     H46286   2.192   5.402   0.805  0.8104 -2.7180  2.5768
  343MOL0     H46287   3.268   5.788   0.645 -1.3189 -1.2566 -0.2925
  343MOL0     H46288   3.385   5.990   0.585 -2.0287 -0.8554 -2.0177
  343MOL0     H46289   3.415   6.452   0.629  0.4536 -1.2293 -0.6577
  343MOL0     H46290   3.515   6.654   0.540 -0.6487  2.8927 -1.8840
  343MOL0     H46291   4.049   6.400   0.320  3.3034  1.7012  0.3877
  343MOL0     H46292   4.121   6.418   0.551  1.2015  1.6521 -0.9882
  343MOL0     H46293   4.603   6.513   0.813  3.7704  0.5413  1.7883
  343MOL0     H46294   4.769   6.442   0.995  1.5812 -0.0724 -0.8951
  343MOL0     H46295   4.680   6.075   1.224 -0.1577 -0.2151  1.6692
  343MOL0     H46296   4.841   6.096   1.275 -0.2633 -1.1650  1.2382
  343MOL0     H46297   4.622   6.304   1.332  0.6094  0.3404 -1.3320
  343MOL0     H46298   4.765   6.301   1.424 -0.0658 -2.0723  1.1428
  343MOL0     H46299   4.532   6.110   1.429  0.2323  0.0327 -1.7865
  343MOL0     H46300   4.608   6.205   1.554 -2.6714 -0.3840 -0.2404
  343MOL0     H46301   4.729   5.951   1.458 -2.6050  0.9677 -1.6661
  343MOL0     H46302   4.656   5.979   1.617 -1.0910 -0.0725 -0.8978
  343MOL0     H46303   5.039   6.170   1.659  0.4159  0.4388  1.9737
  343MOL0     H46304   4.547   6.080   1.056  0.4431  0.1306  0.1186
  343MOL0     H46305   4.402   6.139   0.863  1.8076 -1.0069 -2.3895
  344MOL0     O46306   9.284   8.795  10.304 -0.0448 -0.3311 -0.5987
  344MOL0     C46307   9.231   8.814  10.412  0.2988  0.3246 -0.0716
  344MOL0     O46308   9.258   8.921  10.494 -0.1053 -0.4544 -0.5320
  344MOL0     C46309   9.333   9.019  10.452  0.4506  0.1101 -0.3802
  344MOL0     C46310   9.326   9.092  10.336 -0.0112  0.5032  0.0170
  344MOL0     C46311   9.396   9.213  10.319  0.0408 -0.0103  0.2396
  344MOL0     C46312   9.470   9.281  10.419  0.0372 -0.1599  0.6315
  344MOL0     O46313   9.529   9.403  10.401  0.4230  0.2922  0.4423
  344MOL0     C46314   9.546   9.434  10.259  0.0348 -0.2614  0.5589
  344MOL0     C46315   9.653   9.547  10.239 -0.2896 -0.3476 -0.4134
  344MOL0     C46316   9.728   9.507  10.108  1.0327  0.2831  0.7049
  344MOL0     C46317   9.666   9.547   9.967  0.9050 -0.5343 -0.3174
  344MOL0     C46318   9.756   9.483   9.865 -0.6116 -0.4392 -0.4780
  344MOL0     C46319   9.734   9.556   9.732  0.1833  0.4842  0.5296
  344MOL0     C46320   9.808   9.496   9.610  0.3036  0.5124  0.8336
  344MOL0     C46321   9.844   9.605   9.510 -0.3291  0.3490 -0.3036
  344MOL0     N46322   9.727   9.686   9.461 -0.4826  0.3600 -0.0145
  344MOL0     C46323   9.594   9.655   9.446 -0.4637 -0.2148  0.1860
  344MOL0     C46324   9.548   9.781   9.404  0.6676  0.3347  0.0285
  344MOL0     C46325   9.408   9.814   9.364 -0.3335  0.8060 -1.1971
  344MOL0     C46326   9.407   9.866   9.220 -0.8911 -0.0016 -1.1005
  344MOL0     C46327   9.265   9.868   9.168 -0.1774  0.2180  0.0150
  344MOL0     C46328   9.265   9.929   9.024 -0.9803 -0.1268 -0.1573
  344MOL0     O46329   9.133   9.945   8.970  0.0288  0.8535 -0.1331
  344MOL0     C46330   9.085  10.070   8.959 -0.4563  0.0751  0.2006
  344MOL0     C46331   9.145  10.189   8.928 -0.1832  0.1227 -0.0366
  344MOL0     C46332   9.072  10.315   8.922  0.0351 -0.0908 -0.6117
  344MOL0     C46333   9.153  10.439   8.899 -0.3905 -0.7744 -0.7277
  344MOL0     C46334   8.931  10.307   8.964  0.0081 -0.4750  0.7918
  344MOL0     C46335   8.836  10.418   8.969 -0.6492  0.2362 -0.0857
  344MOL0     O46336   8.699  10.390   8.970 -0.1345  0.2642  0.0761
  344MOL0     C46337   8.594  10.482   8.956 -0.1165 -0.2611 -0.4512
  344MOL0     C46338   8.462  10.436   8.976  0.2521  0.6347  0.5899
  344MOL0     C46339   8.353  10.523   8.959 -0.9345 -0.3584  0.2527
  344MOL0     C46340   8.373  10.658   8.922  0.8495  0.2630  0.8982
  344MOL0     O46341   8.261  10.735   8.932 -0.0394 -0.4914 -0.3262
  344MOL0     C46342   8.249  10.857   8.856 -0.8220  0.6306  0.2631
  344MOL0     C46343   8.121  10.863   8.772  0.9155  0.9987 -0.8666
  344MOL0     C46344   8.089  10.736   8.696 -0.5269  0.2988  0.0748
  344MOL0     C46345   8.180  10.718   8.572  0.2069 -0.5450  0.0616
  344MOL0     C46346   8.133  10.615   8.466 -1.0808 -0.1200 -0.0963
  344MOL0     C46347   8.125  10.469   8.526 -0.7251  0.0453 -0.7521
  344MOL0     C46348   8.075  10.359   8.428 -0.3829  0.0266  0.2810
  344MOL0     C46349   8.113  10.218   8.489  0.8792  0.3040 -0.3088
  344MOL0    Cl46350   8.279  10.176   8.470 -0.0617  0.2975 -0.1577
  344MOL0     C46351   8.503  10.708   8.896  0.6824  0.9267 -0.1492
  344MOL0     C46352   8.606  10.613   8.905 -0.6723 -0.3033  0.4466
  344MOL0     O46353   8.879  10.531   8.996  0.6064  0.3034  0.1126
  344MOL0     C46354   8.879  10.188   8.997 -0.8946  0.2192  0.2843
  344MOL0     C46355   8.954  10.068   8.995  0.5873 -0.5937  0.0235
  344MOL0     N46356   9.643   9.877   9.418 -0.6975 -1.0077  0.6814
  344MOL0     N46357   9.750   9.824   9.458  0.3624 -0.3278  0.1134
  344MOL0     C46358   9.466   9.219  10.538 -1.2728  0.3994 -0.7519
  344MOL0     C46359   9.409   9.083  10.551 -0.5179  0.3289 -0.2894
  344MOL0     C46360   9.122   8.729  10.458  0.2436 -0.1562  1.3012
  344MOL0     C46361   9.029   8.665  10.376  0.1062  0.8780  0.4963
  344MOL0     C46362   8.922   8.586  10.431  0.8509  0.3134  0.1149
  344MOL0     C46363   8.908   8.582  10.576 -0.2302  0.3256 -0.3948
  344MOL0     O46364   8.800   8.514  10.618 -0.3896  0.0743  0.7560
  344MOL0     C46365   8.728   8.571  10.722  0.4115 -0.2114  0.4321
  344MOL0     C46366   8.601   8.499  10.742  0.4792  0.9420  0.2024
  344MOL0     C46367   8.500   8.498  10.627  0.0932 -0.4111 -0.2000
  344MOL0     C46368   8.463   8.356  10.569 -0.1836 -0.6405  0.0695
  344MOL0     C46369   8.375   8.289  10.666  0.1281  0.3620  0.6629
  344MOL0     C46370   8.285   8.237  10.723 -0.2521 -0.1315 -0.4245
  344MOL0     C46371   9.001   8.645  10.649 -0.7753 -0.3884 -0.2605
  344MOL0     C46372   9.106   8.711  10.593 -0.3020 -0.9735  0.1487
  344MOL0     H46373   9.272   9.040  10.258  2.1717 -0.9607 -0.6026
  344MOL0     H46374   9.396   9.261  10.222 -0.0486  3.3548  1.7877
  344MOL0     H46375   9.580   9.346  10.203 -2.9115  0.6325 -3.0170
  344MOL0     H46376   9.456   9.466  10.205  2.3581  3.1588 -1.6444
  344MOL0     H46377   9.593   9.638  10.239  0.3430  0.0993  1.4712
  344MOL0     H46378   9.725   9.542  10.321  0.2704 -1.3454 -0.9421
  344MOL0     H46379   9.824   9.560  10.111  0.5114  1.5851 -2.1474
  344MOL0     H46380   9.754   9.400  10.107  0.5710  0.1382  1.9368
  344MOL0     H46381   9.569   9.499   9.953  1.6926 -2.6943  1.1586
  344MOL0     H46382   9.665   9.655   9.951 -1.2370 -0.4590  0.0386
  344MOL0     H46383   9.860   9.501   9.892  0.5527  0.5583 -4.8019
  344MOL0     H46384   9.735   9.376   9.867  1.0088 -0.7618  0.2659
  344MOL0     H46385   9.626   9.564   9.714 -0.2306 -3.5589  0.1815
  344MOL0     H46386   9.771   9.657   9.752 -0.2493  0.3468  2.1723
  344MOL0     H46387   9.906   9.470   9.652  1.7306  1.0178 -1.9726
  344MOL0     H46388   9.752   9.412   9.568  2.4903 -1.1842  1.1311
  344MOL0     H46389   9.897   9.553   9.429 -0.0221  1.8205 -1.0740
  344MOL0     H46390   9.908   9.679   9.560 -1.0673 -0.0019  1.2198
  344MOL0     H46391   9.537   9.563   9.457 -2.3725  0.6803 -1.5438
  344MOL0     H46392   9.348   9.724   9.376  2.6105 -1.4556 -2.1077
  344MOL0     H46393   9.365   9.886   9.434 -1.2983 -2.4422  1.8457
  344MOL0     H46394   9.467   9.790   9.170  0.0279  1.7578 -2.8479
  344MOL0     H46395   9.460   9.962   9.220 -0.0279 -0.4533  0.3081
  344MOL0     H46396   9.213   9.922   9.248  3.3206 -1.8546  4.0706
  344MOL0     H46397   9.222   9.768   9.157 -0.9564  0.4638  0.7512
  344MOL0     H46398   9.321   9.861   8.960 -1.6363  0.0630 -0.9519
  344MOL0     H46399   9.314  10.026   9.037  0.6325 -0.7009 -1.6690
  344MOL0     H46400   9.252  10.194   8.913 -0.2806  0.7124 -0.6248
  344MOL0     H46401   9.103  10.494   8.819 -0.3846  0.6328  0.1984
  344MOL0     H46402   9.157  10.503   8.988  1.6754 -0.2230 -1.1648
  344MOL0     H46403   9.253  10.409   8.865 -1.1735 -2.0486 -2.0089
  344MOL0     H46404   8.453  10.333   9.009  2.7430  0.4347  0.8399
  344MOL0     H46405   8.255  10.490   8.993 -0.3382 -1.5176  0.9261
  344MOL0     H46406   8.245  10.948   8.917 -1.4162  2.2765 -2.0982
  344MOL0     H46407   8.338  10.872   8.794 -0.8336  1.5568  0.4584
  344MOL0     H46408   8.048  10.869   8.853  1.0711 -2.3951 -0.3183
  344MOL0     H46409   8.129  10.944   8.699 -0.4382 -0.0260 -2.2105
  344MOL0     H46410   7.990  10.742   8.651  0.2997 -0.5316 -1.9869
  344MOL0     H46411   8.086  10.641   8.750 -2.1413  0.1930 -0.1669
  344MOL0     H46412   8.189  10.818   8.529  2.6312 -0.3399  0.8516
  344MOL0     H46413   8.277  10.687   8.613 -0.0487 -0.5668  0.6600
  344MOL0     H46414   8.189  10.618   8.372 -0.8915 -0.2947  0.0122
  344MOL0     H46415   8.029  10.636   8.437 -0.5563 -0.1614 -2.1643
  344MOL0     H46416   8.225  10.448   8.564 -0.8347  0.7939 -0.0270
  344MOL0     H46417   8.052  10.467   8.607  1.2875 -0.2768  1.1201
  344MOL0     H46418   8.128  10.359   8.333 -1.0147 -0.6596 -0.0799
  344MOL0     H46419   7.966  10.372   8.418 -0.6741 -0.3131  2.5633
  344MOL0     H46420   8.049  10.150   8.433  0.5107  1.2193 -1.0259
  344MOL0     H46421   8.078  10.211   8.592 -0.1965 -0.4851 -0.7107
  344MOL0     H46422   8.529  10.806   8.856 -2.1585  2.4129  1.3479
  344MOL0     H46423   8.704  10.647   8.874 -0.6898  1.5113  2.0962
  344MOL0     H46424   8.774  10.180   9.024 -0.9489  1.0299  0.3167
  344MOL0     H46425   8.908   9.975   9.026 -0.3915 -0.9822 -2.4055
  344MOL0     H46426   9.523   9.257  10.621 -0.4796  3.6482 -2.5932
  344MOL0     H46427   9.411   9.042  10.651  0.6315  0.9560 -0.0359
  344MOL0     H46428   9.043   8.675  10.269 -2.5871  2.1223  0.1600
  344MOL0     H46429   8.841   8.531  10.384 -0.6473 -0.9068  3.7653
  344MOL0     H46430   8.776   8.554  10.819 -1.8067 -1.9140  1.3258
  344MOL0     H46431   8.713   8.678  10.707  2.7079 -0.0086 -0.8747
  344MOL0     H46432   8.542   8.545  10.822  1.7076  2.1406  0.4516
  344MOL0     H46433   8.623   8.396  10.772  0.8710  0.3820 -1.8530
  344MOL0     H46434   8.533   8.570  10.552 -3.4218  3.9732  1.9573
  344MOL0     H46435   8.408   8.551  10.653  0.7507  2.1782 -2.5981
  344MOL0     H46436   8.559   8.306  10.554  0.2847  0.7530 -2.0203
  344MOL0     H46437   8.407   8.376  10.476 -2.7713  1.2302  1.8641
  344MOL0     H46438   8.212   8.187  10.783 -1.8472  2.7589  0.2266
  344MOL0     H46439   8.990   8.631  10.756  0.7874 -1.8079 -0.2522
  344MOL0     H46440   9.184   8.745  10.661 -1.6247 -1.3599  1.9484
  345MOL0     O46441  10.176   2.801   0.228 -0.1187 -0.1779 -0.8060
  345MOL0     C46442  10.067   2.782   0.269  0.2400  0.6315  0.0791
  345MOL0     O46443  10.024   2.778   0.403  0.1110 -0.1381 -0.2921
  345MOL0     C46444  10.116   2.787   0.503  0.0711 -0.5039 -0.0312
  345MOL0     C46445  10.262   2.774   0.505 -0.0800  0.0969  0.4548
  345MOL0     C46446  10.329   2.783   0.632 -0.1964  0.1407 -0.5524
  345MOL0     C46447  10.264   2.797   0.756  0.6163  0.1825 -0.1180
  345MOL0     O46448  10.336   2.808   0.870  0.4455 -0.4062 -0.5825
  345MOL0     C46449  10.479   2.834   0.870  1.1298  0.0738 -0.0813
  345MOL0     C46450  10.534   2.865   1.013  1.1106 -1.0089  1.1945
  345MOL0     C46451  10.678   2.907   0.993 -0.8738 -0.7456 -0.5530
  345MOL0     C46452  10.729   3.016   1.089  0.4127  0.1080  0.1180
  345MOL0     C46453  10.874   3.033   1.108 -0.8172  0.6111 -0.6268
  345MOL0     C46454  10.939   3.092   0.979  0.6312  0.2706  0.2224
  345MOL0     C46455  11.086   3.108   0.991 -0.2962  0.7372  0.6691
  345MOL0     C46456  11.153   3.148   0.857 -0.0006 -0.5141 -0.6222
  345MOL0     N46457  11.298   3.181   0.876  0.9493  0.0668 -0.3806
  345MOL0     C46458  11.332   3.297   0.938  0.2949 -0.4115  0.2053
  345MOL0     C46459  11.468   3.303   0.934 -0.5680 -0.1556  0.4828
  345MOL0     C46460  11.556   3.422   0.966 -0.0750  0.0879  0.2423
  345MOL0     C46461  11.584   3.462   1.107 -0.5141  0.0069 -0.8593
  345MOL0     C46462  11.678   3.358   1.189 -0.3791  0.3187 -0.3215
  345MOL0     C46463  11.821   3.326   1.131 -0.5487 -0.4781  0.2648
  345MOL0     O46464  11.922   3.430   1.123 -0.0504  0.2659 -0.6076
  345MOL0     C46465  11.952   3.497   1.235 -0.3707  0.1095 -0.4748
  345MOL0     C46466  11.930   3.438   1.363  0.1812 -0.5075 -0.0603
  345MOL0     C46467  11.965   3.516   1.479 -0.1283 -0.6550  0.9727
  345MOL0     C46468  11.947   3.445   1.608 -0.2202 -0.4312 -0.1823
  345MOL0     C46469  12.002   3.654   1.467  0.5599 -0.1230  0.7136
  345MOL0     C46470  12.017   3.744   1.583  1.3869  0.7487  0.6155
  345MOL0     O46471  12.076   3.871   1.558 -0.0288 -0.0474  0.0581
  345MOL0     C46472  12.037   3.984   1.621 -0.8913  0.5383  0.1583
  345MOL0     C46473  12.105   4.105   1.594  0.4424 -0.0538 -0.1553
  345MOL0     C46474  12.041   4.222   1.634  0.5861  0.3278  0.6713
  345MOL0     C46475  11.921   4.234   1.697 -0.5059 -0.1663 -0.8666
  345MOL0     O46476  11.867   4.358   1.728  0.6336 -0.0547  1.2832
  345MOL0     C46477  11.837   4.432   1.612  0.3821 -0.5277 -0.6898
  345MOL0     C46478  11.736   4.539   1.645 -0.2852 -0.0994  0.0866
  345MOL0     C46479  11.782   4.629   1.760  0.3345  0.9955 -0.0567
  345MOL0     C46480  11.682   4.743   1.780 -0.1375  0.7969  0.4846
  345MOL0     C46481  11.705   4.830   1.896  1.0091  0.5845  0.6281
  345MOL0     C46482  11.590   4.937   1.911 -0.2300 -0.0360  0.7813
  345MOL0     C46483  11.620   5.038   2.035 -0.6154  0.8920 -0.1268
  345MOL0     C46484  11.515   5.144   2.032  0.2830  0.4042  0.4324
  345MOL0    Cl46485  11.373   5.084   2.128  0.0101 -0.4035  0.2407
  345MOL0     C46486  11.857   4.115   1.725 -0.1739  0.1964 -1.3609
  345MOL0     C46487  11.914   3.992   1.694 -0.5718 -0.2092  0.7595
  345MOL0     O46488  11.965   3.714   1.691 -0.5266  0.1025  0.6992
  345MOL0     C46489  12.036   3.702   1.336 -0.5682  0.1220 -0.5437
  345MOL0     C46490  12.006   3.623   1.220  0.9566  0.4402 -0.0577
  345MOL0     N46491  11.513   3.190   0.871  1.1869 -0.4527 -0.4977
  345MOL0     N46492  11.408   3.110   0.837  0.5845  0.5033  0.8585
  345MOL0     C46493  10.126   2.799   0.756 -0.5774 -0.2429  0.8983
  345MOL0     C46494  10.063   2.792   0.634  0.7725 -0.5103 -0.0125
  345MOL0     C46495   9.956   2.781   0.165 -0.4337  0.5438 -0.4325
  345MOL0     C46496   9.975   2.825   0.036  0.3205  0.7062 -0.7194
  345MOL0     C46497   9.873   2.838  -0.058 -0.1207 -0.6246 -0.0692
  345MOL0     C46498   9.752   2.773  -0.018  0.1500  0.4202  1.1473
  345MOL0     O46499   9.657   2.745  -0.118 -0.3993 -0.3608  0.5480
  345MOL0     C46500   9.530   2.697  -0.074  0.1735 -0.7793  0.2072
  345MOL0     C46501   9.419   2.694  -0.183  0.1546  0.2813 -0.0131
  345MOL0     C46502   9.465   2.625  -0.314 -0.3600 -0.0944 -0.5812
  345MOL0     C46503   9.475   2.470  -0.301 -0.6742  0.4883 -0.0005
  345MOL0     C46504   9.346   2.412  -0.281  0.6794  0.0653 -0.8662
  345MOL0     C46505   9.233   2.370  -0.263  0.5541 -0.1181 -1.1656
  345MOL0     C46506   9.728   2.733   0.120  0.4581  0.0093 -0.5321
  345MOL0     C46507   9.827   2.742   0.221 -0.2275 -0.2007  1.3126
  345MOL0     H46508  10.313   2.758   0.411  0.8408 -1.3096  1.1614
  345MOL0     H46509  10.435   2.761   0.628 -0.2707 -0.3281 -0.0786
  345MOL0     H46510  10.525   2.744   0.829 -0.2813 -0.5166 -0.3851
  345MOL0     H46511  10.484   2.921   0.804 -1.1239 -0.7037 -1.3548
  345MOL0     H46512  10.487   2.948   1.066  1.6036 -1.3707  2.2204
  345MOL0     H46513  10.522   2.778   1.078 -0.6475 -3.5033 -2.1405
  345MOL0     H46514  10.731   2.814   1.017 -0.7845  0.1225  3.3491
  345MOL0     H46515  10.707   2.928   0.890  0.0008  2.1901  0.2013
  345MOL0     H46516  10.689   3.115   1.063 -2.2764 -0.5122  1.5361
  345MOL0     H46517  10.675   2.990   1.181 -1.2770  2.3970 -0.1090
  345MOL0     H46518  10.911   3.092   1.192  1.4713 -1.1067 -0.3276
  345MOL0     H46519  10.903   2.931   1.135 -1.1819  0.9273  1.0913
  345MOL0     H46520  10.914   3.029   0.894 -1.0089 -0.3728  1.1225
  345MOL0     H46521  10.900   3.194   0.967 -0.4828 -0.1102  0.4279
  345MOL0     H46522  11.126   3.173   1.070  2.6353  2.8551 -2.3153
  345MOL0     H46523  11.134   3.011   1.007  0.7519  0.8476 -1.5599
  345MOL0     H46524  11.115   3.239   0.811 -0.1722 -0.0241  0.4503
  345MOL0     H46525  11.133   3.071   0.782  2.3745 -1.1846 -0.6553
  345MOL0     H46526  11.259   3.367   0.978  0.8742  1.6924 -2.1438
  345MOL0     H46527  11.649   3.396   0.914 -0.4078  0.6103 -0.6411
  345MOL0     H46528  11.507   3.507   0.916  0.2269 -0.8518 -1.7386
  345MOL0     H46529  11.485   3.464   1.154 -0.3334  1.2364 -0.4993
  345MOL0     H46530  11.626   3.563   1.105 -1.9917  0.6431 -1.6927
  345MOL0     H46531  11.613   3.271   1.199 -0.5928  0.5640  0.5200
  345MOL0     H46532  11.696   3.400   1.288  2.7657  0.9178 -1.0311
  345MOL0     H46533  11.798   3.297   1.028 -2.0592 -1.4326  0.8344
  345MOL0     H46534  11.862   3.236   1.178 -0.0451 -0.5638 -0.3205
  345MOL0     H46535  11.910   3.331   1.369  1.6228 -0.7383  1.6663
  345MOL0     H46536  12.025   3.466   1.681  1.7991 -2.9435 -1.4403
  345MOL0     H46537  11.854   3.476   1.657  0.9337 -0.8412  2.3810
  345MOL0     H46538  11.941   3.338   1.590  2.0815 -0.3539 -1.8510
  345MOL0     H46539  12.204   4.104   1.549  0.2363 -0.1513 -0.6111
  345MOL0     H46540  12.102   4.311   1.632  1.9702 -0.4784  3.0455
  345MOL0     H46541  11.924   4.487   1.576  0.2024  0.4449  0.3142
  345MOL0     H46542  11.799   4.370   1.530 -1.5088  0.7063 -0.7855
  345MOL0     H46543  11.728   4.604   1.556 -3.1160  2.4704  2.0151
  345MOL0     H46544  11.639   4.502   1.678  0.5014 -1.3706  1.0076
  345MOL0     H46545  11.881   4.671   1.738  1.4200  0.0225  2.5374
  345MOL0     H46546  11.791   4.567   1.850  0.5383 -2.0627 -2.0164
  345MOL0     H46547  11.684   4.799   1.686  3.2481 -1.5021 -1.0178
  345MOL0     H46548  11.585   4.697   1.801 -0.2603  1.4172  1.3293
  345MOL0     H46549  11.799   4.885   1.883  3.1078 -2.4782  1.6561
  345MOL0     H46550  11.706   4.768   1.987  0.2560  0.5919  0.6485
  345MOL0     H46551  11.582   4.987   1.814 -1.6433  1.0092  1.3989
  345MOL0     H46552  11.493   4.891   1.932  0.4919 -1.6907  0.6389
  345MOL0     H46553  11.720   5.082   2.030 -0.8620  1.8643  2.1712
  345MOL0     H46554  11.612   4.974   2.123  0.1051  0.0367 -0.6647
  345MOL0     H46555  11.485   5.166   1.929  0.6931  3.4809  0.8664
  345MOL0     H46556  11.545   5.240   2.074 -3.0740  0.5319  3.0080
  345MOL0     H46557  11.765   4.105   1.782  1.6876 -0.2372  1.8189
  345MOL0     H46558  11.855   3.902   1.704  1.9102 -2.1638 -0.9120
  345MOL0     H46559  12.080   3.799   1.318  1.2213 -0.7878 -1.2695
  345MOL0     H46560  12.013   3.652   1.116 -1.3394 -1.3430 -0.7733
  345MOL0     H46561  10.085   2.805   0.856  1.1144  3.3507  1.5598
  345MOL0     H46562   9.955   2.797   0.645  0.4837  1.0004 -2.7226
  345MOL0     H46563  10.065   2.881   0.013  0.1976  1.3321  0.2612
  345MOL0     H46564   9.894   2.888  -0.152 -3.7094  3.3432  0.9416
  345MOL0     H46565   9.539   2.597  -0.030 -1.2052 -0.5925  0.9659
  345MOL0     H46566   9.489   2.767  -0.001 -1.2335 -2.1168  0.7649
  345MOL0     H46567   9.390   2.795  -0.214  0.3444  0.2478 -0.3140
  345MOL0     H46568   9.333   2.640  -0.142  2.6861 -3.3981  0.9652
  345MOL0     H46569   9.569   2.653  -0.337  0.0843 -2.0048 -1.1278
  345MOL0     H46570   9.407   2.662  -0.399 -3.6378  0.5304  1.7464
  345MOL0     H46571   9.543   2.441  -0.220 -1.3443  0.7391  0.6616
  345MOL0     H46572   9.509   2.427  -0.395 -0.8513 -0.2362  0.2637
  345MOL0     H46573   9.144   2.314  -0.244  2.8630 -3.2750  1.7632
  345MOL0     H46574   9.630   2.699   0.153  0.5331 -1.3423 -1.6591
  345MOL0     H46575   9.809   2.713   0.324  0.6505 -1.4281  1.1462
  346MOL0     O46576   3.369   6.395   4.719  0.4705 -0.2367  0.7358
  346MOL0     C46577   3.296   6.443   4.638 -0.7046 -0.0424 -0.1666
  346MOL0     O46578   3.154   6.424   4.624  0.4865  0.1221 -0.4647
  346MOL0     C46579   3.088   6.321   4.684 -1.1533 -0.2617 -0.5241
  346MOL0     C46580   3.143   6.190   4.688 -0.4743  0.4346  0.3799
  346MOL0     C46581   3.077   6.081   4.740 -0.3030 -0.3408 -0.4000
  346MOL0     C46582   2.942   6.098   4.778 -0.1089  0.5767 -0.2328
  346MOL0     O46583   2.862   5.991   4.808  0.6426  0.0083 -0.3889
  346MOL0     C46584   2.726   5.978   4.776 -0.0132 -0.4282 -0.1541
  346MOL0     C46585   2.711   5.916   4.646 -0.3387  0.6255 -0.7295
  346MOL0     C46586   2.782   5.778   4.630  0.0088 -0.8030  0.4355
  346MOL0     C46587   2.758   5.697   4.498  0.5457  0.1535  0.9055
  346MOL0     C46588   2.821   5.560   4.486  0.4870  0.0621 -0.2795
  346MOL0     C46589   2.770   5.458   4.594  0.0213  0.8633 -0.2535
  346MOL0     C46590   2.838   5.314   4.595 -0.0816 -0.1175  0.2838
  346MOL0     C46591   2.846   5.240   4.460  0.1176 -0.8512 -0.1472
  346MOL0     N46592   2.906   5.107   4.467  0.8696 -0.3136  0.7535
  346MOL0     C46593   2.851   5.007   4.540  0.1134 -0.2444  0.1736
  346MOL0     C46594   2.940   4.899   4.509 -0.2817 -0.1554  0.5702
  346MOL0     C46595   2.941   4.751   4.557 -0.2691  0.1533  1.1321
  346MOL0     C46596   2.899   4.739   4.702  1.2268 -0.3496 -0.6534
  346MOL0     C46597   2.960   4.839   4.806  0.6727  0.3742  0.5012
  346MOL0     C46598   3.114   4.826   4.826 -0.0367  1.0824 -0.5806
  346MOL0     O46599   3.168   4.912   4.932  0.3705 -0.0039 -0.7344
  346MOL0     C46600   3.195   5.045   4.895  0.6175 -0.3620  0.0714
  346MOL0     C46601   3.272   5.120   4.981  0.6830  0.0457 -0.3029
  346MOL0     C46602   3.315   5.255   4.952 -0.7121  0.0077  0.2971
  346MOL0     C46603   3.411   5.318   5.049 -0.1754 -0.1958  0.0861
  346MOL0     C46604   3.259   5.321   4.837 -0.9634  0.8094 -1.1615
  346MOL0     C46605   3.298   5.466   4.804  0.0631  0.1412 -0.6256
  346MOL0     O46606   3.245   5.529   4.692 -0.7113  0.1893 -0.0631
  346MOL0     C46607   3.308   5.645   4.653  0.4544  0.4976 -0.0819
  346MOL0     C46608   3.451   5.644   4.623  0.1831  0.0079 -0.7539
  346MOL0     C46609   3.518   5.762   4.582 -0.3217  0.1897  0.2020
  346MOL0     C46610   3.454   5.883   4.562 -0.3338  1.1581  0.1316
  346MOL0     O46611   3.505   5.999   4.517 -0.1729  0.1427 -0.4455
  346MOL0     C46612   3.614   6.060   4.597  0.2871  0.2812  0.0700
  346MOL0     C46613   3.557   6.129   4.718 -0.6573  0.1791  0.0054
  346MOL0     C46614   3.540   6.046   4.844 -0.1775  0.5455  0.3018
  346MOL0     C46615   3.476   6.121   4.966 -0.2207 -0.0944  0.3322
  346MOL0     C46616   3.471   6.039   5.086 -0.6827 -0.1686  1.2074
  346MOL0     C46617   3.397   6.109   5.194  0.5668 -0.6715  0.6461
  346MOL0     C46618   3.385   6.030   5.324  0.2178  0.0387  0.3926
  346MOL0     C46619   3.308   6.085   5.439  0.5289 -0.1706 -0.5912
  346MOL0    Cl46620   3.312   5.950   5.568  0.0094  0.0353  0.2221
  346MOL0     C46621   3.319   5.875   4.575  0.5525  0.6605 -0.2338
  346MOL0     C46622   3.246   5.758   4.610  0.1681 -0.0194 -0.4512
  346MOL0     O46623   3.382   5.519   4.879 -0.1827  0.6396  0.1223
  346MOL0     C46624   3.184   5.240   4.761  0.2338 -0.2373  0.5115
  346MOL0     C46625   3.154   5.105   4.778  0.2000  0.5448 -0.7007
  346MOL0     N46626   3.037   4.945   4.425 -0.3609  0.7472  0.3995
  346MOL0     N46627   3.012   5.064   4.397  0.9280 -0.0099  0.1036
  346MOL0     C46628   2.893   6.234   4.773 -0.2659  1.2081 -0.1705
  346MOL0     C46629   2.960   6.339   4.727  0.6333  0.0033  0.0460
  346MOL0     C46630   3.347   6.569   4.582 -0.3897  1.2940 -0.0893
  346MOL0     C46631   3.271   6.645   4.502 -0.2266 -0.2117 -0.4684
  346MOL0     C46632   3.321   6.768   4.455  0.0519 -0.4854 -0.1662
  346MOL0     C46633   3.441   6.823   4.501 -0.2006 -0.4179 -0.0347
  346MOL0     O46634   3.474   6.948   4.461  0.4390 -0.9378 -0.1718
  346MOL0     C46635   3.515   7.040   4.565 -0.7103 -0.5331  0.8341
  346MOL0     C46636   3.521   7.187   4.506  0.4085  0.5043  0.4586
  346MOL0     C46637   3.592   7.293   4.592 -0.2431 -0.0001 -0.5550
  346MOL0     C46638   3.535   7.306   4.746 -0.2955  0.3128  0.1396
  346MOL0     C46639   3.585   7.206   4.841 -0.8635 -0.2387 -0.3296
  346MOL0     C46640   3.624   7.112   4.911  0.0543 -0.0634  0.7192
  346MOL0     C46641   3.514   6.745   4.596  0.4236 -0.1543 -0.1574
  346MOL0     C46642   3.469   6.617   4.625 -0.4234 -0.7981  0.9289
  346MOL0     H46643   3.242   6.168   4.649 -1.1567 -3.3950  0.5182
  346MOL0     H46644   3.116   5.980   4.734  3.3278  0.7665  1.3959
  346MOL0     H46645   2.693   5.909   4.855  1.5337  0.1939  1.0974
  346MOL0     H46646   2.665   6.069   4.773  1.5593  0.7219  1.0545
  346MOL0     H46647   2.605   5.897   4.625 -0.2927  0.9213 -1.2486
  346MOL0     H46648   2.748   5.979   4.564  1.7272  0.2657 -0.1143
  346MOL0     H46649   2.888   5.800   4.643 -0.1784  0.8423 -0.5031
  346MOL0     H46650   2.754   5.711   4.711  0.7284  1.0182  2.2644
  346MOL0     H46651   2.651   5.697   4.478  1.0862 -1.6937 -2.9254
  346MOL0     H46652   2.810   5.745   4.414 -1.5165 -0.1347 -0.6143
  346MOL0     H46653   2.801   5.518   4.386  1.7025 -0.4245 -0.3300
  346MOL0     H46654   2.930   5.570   4.486  0.4826  0.1421 -0.7338
  346MOL0     H46655   2.792   5.495   4.694  0.4033 -1.5066  0.6044
  346MOL0     H46656   2.662   5.448   4.592  0.0239  0.0712  1.9381
  346MOL0     H46657   2.940   5.306   4.634  0.4567  1.2136 -0.7554
  346MOL0     H46658   2.776   5.256   4.664  1.9491 -1.0448  1.4281
  346MOL0     H46659   2.894   5.298   4.380  2.8042 -0.4522  1.6262
  346MOL0     H46660   2.745   5.213   4.429 -0.5107  0.7258  0.4635
  346MOL0     H46661   2.769   5.014   4.610 -2.3071  0.9711 -2.5664
  346MOL0     H46662   2.874   4.683   4.505 -1.2620  0.3434  2.1261
  346MOL0     H46663   3.042   4.711   4.542  1.1210  3.2021  1.5392
  346MOL0     H46664   2.940   4.644   4.739  0.0149  0.0884  2.0547
  346MOL0     H46665   2.790   4.736   4.707  1.2614 -0.2746  0.4433
  346MOL0     H46666   2.915   4.819   4.904 -1.1623 -2.8222 -0.8423
  346MOL0     H46667   2.927   4.942   4.785 -0.4622  0.2307  1.4569
  346MOL0     H46668   3.169   4.854   4.735 -0.2073  0.9888 -0.7120
  346MOL0     H46669   3.133   4.722   4.851 -0.1287  0.9014 -1.2418
  346MOL0     H46670   3.305   5.072   5.073  1.3135 -0.0221 -0.5627
  346MOL0     H46671   3.506   5.354   5.008  2.2115 -3.0246  2.6963
  346MOL0     H46672   3.368   5.407   5.096  0.2054  0.9394 -1.6258
  346MOL0     H46673   3.443   5.238   5.115 -0.4895 -2.1437 -1.9979
  346MOL0     H46674   3.501   5.548   4.630  0.2666  0.1075  0.0876
  346MOL0     H46675   3.622   5.769   4.551  0.2068  0.5512  1.9598
  346MOL0     H46676   3.687   5.984   4.625  0.2642 -0.5713 -2.0060
  346MOL0     H46677   3.659   6.134   4.530 -0.6458 -0.8891 -1.9690
  346MOL0     H46678   3.628   6.206   4.749 -0.7694  1.2498 -2.2613
  346MOL0     H46679   3.471   6.194   4.696 -0.9468 -0.0376  0.4623
  346MOL0     H46680   3.640   6.011   4.875 -1.0076 -0.8510  1.5511
  346MOL0     H46681   3.486   5.953   4.824  1.1757 -0.6382  1.8569
  346MOL0     H46682   3.529   6.215   4.986  0.9984 -0.2445 -1.8399
  346MOL0     H46683   3.375   6.141   4.930 -0.4388  0.0960  1.0452
  346MOL0     H46684   3.572   6.016   5.121 -0.4025  0.1082  0.5977
  346MOL0     H46685   3.426   5.943   5.058  2.0914 -0.7954 -1.7366
  346MOL0     H46686   3.444   6.204   5.222  1.1036 -0.8169  0.2456
  346MOL0     H46687   3.296   6.126   5.154  1.1132  0.7610 -0.2133
  346MOL0     H46688   3.487   6.021   5.364  1.2741  1.5926 -1.7535
  346MOL0     H46689   3.349   5.928   5.310  1.2931 -0.0844 -2.0372
  346MOL0     H46690   3.207   6.108   5.404  1.9640  2.7913 -3.4351
  346MOL0     H46691   3.333   6.183   5.481  0.5589  0.1386 -1.3022
  346MOL0     H46692   3.267   5.967   4.549  0.6222  0.9338  0.5690
  346MOL0     H46693   3.139   5.770   4.625  0.1941 -1.3343  0.9931
  346MOL0     H46694   3.146   5.288   4.671  1.7450  1.2605  0.6226
  346MOL0     H46695   3.112   5.051   4.693  2.9659 -1.1290 -1.1452
  346MOL0     H46696   2.789   6.261   4.784  0.1875  2.3887  1.7687
  346MOL0     H46697   2.905   6.432   4.737 -1.1430 -1.1742  1.7300
  346MOL0     H46698   3.170   6.630   4.465 -0.6478  0.3955  0.3810
  346MOL0     H46699   3.259   6.834   4.394 -0.4997  1.3677  2.2570
  346MOL0     H46700   3.441   7.032   4.645  0.8136 -0.2230  2.3204
  346MOL0     H46701   3.616   7.017   4.600 -1.0339  1.2099  3.1938
  346MOL0     H46702   3.417   7.215   4.484 -0.2337 -0.9691  1.4673
  346MOL0     H46703   3.563   7.174   4.405 -1.0911 -0.7642 -0.0526
  346MOL0     H46704   3.585   7.392   4.546  0.3791 -0.6638 -2.1556
  346MOL0     H46705   3.697   7.262   4.600 -0.7531 -1.4045  1.4525
  346MOL0     H46706   3.426   7.306   4.738 -0.1701 -0.4544 -2.0958
  346MOL0     H46707   3.558   7.408   4.778 -1.4009  0.8539 -0.7280
  346MOL0     H46708   3.675   7.046   4.978  2.5392  1.4521  0.4704
  346MOL0     H46709   3.604   6.792   4.636 -0.9656  0.1108  2.8551
  346MOL0     H46710   3.530   6.554   4.689 -1.4095 -3.2475 -0.4022
  347MOL0     O46711  10.015   4.144   8.528  0.1048  0.9265  0.4728
  347MOL0     C46712  10.010   4.243   8.456  0.2789  0.7059  1.0187
  347MOL0     O46713   9.901   4.286   8.399 -0.4142  0.2682  1.0169
  347MOL0     C46714   9.796   4.207   8.397  0.4026  0.6111 -0.0789
  347MOL0     C46715   9.699   4.215   8.492  0.6281  0.1113  0.5035
  347MOL0     C46716   9.592   4.122   8.476  0.5418 -0.5302 -0.1742
  347MOL0     C46717   9.572   4.045   8.367  0.4417 -0.1516 -0.4811
  347MOL0     O46718   9.450   3.988   8.336 -0.1322  0.1551  0.1762
  347MOL0     C46719   9.338   4.054   8.390  0.3692  0.2865  0.0896
  347MOL0     C46720   9.210   3.972   8.349 -0.3799 -0.7797  0.5758
  347MOL0     C46721   9.195   3.850   8.443 -0.0577  0.1332  0.5534
  347MOL0     C46722   9.091   3.743   8.400  0.3164 -0.2104 -0.9037
  347MOL0     C46723   9.052   3.641   8.512 -0.9591 -0.6599 -0.8562
  347MOL0     C46724   8.930   3.543   8.491  0.2139 -0.2368 -0.5475
  347MOL0     C46725   8.910   3.457   8.613  0.4340  1.1374 -0.2968
  347MOL0     C46726   8.789   3.353   8.600 -0.1647  0.5615 -0.0820
  347MOL0     N46727   8.745   3.272   8.715  0.6581  0.4080  0.5953
  347MOL0     C46728   8.754   3.137   8.749 -1.2210 -0.9581  0.5667
  347MOL0     C46729   8.697   3.115   8.870 -0.3074 -0.6436 -0.0321
  347MOL0     C46730   8.676   2.983   8.942 -0.3668 -0.4246 -0.4377
  347MOL0     C46731   8.779   2.887   8.880 -0.7069  0.1085  0.4459
  347MOL0     C46732   8.792   2.756   8.970 -0.5421  0.0127 -0.5335
  347MOL0     C46733   8.909   2.667   8.915  0.0194  0.6529 -0.4182
  347MOL0     O46734   8.877   2.616   8.785 -0.8742 -0.0035  0.2371
  347MOL0     C46735   8.834   2.486   8.777 -0.1741  0.2604  1.0766
  347MOL0     C46736   8.899   2.394   8.690 -0.0118 -0.3425 -0.3882
  347MOL0     C46737   8.884   2.257   8.696  0.1194 -0.9985  0.6933
  347MOL0     C46738   8.960   2.182   8.595 -0.2299  1.0141  0.4954
  347MOL0     C46739   8.780   2.198   8.782 -0.9184 -0.2578 -0.6907
  347MOL0     C46740   8.743   2.058   8.780 -0.2978  0.4539 -0.9707
  347MOL0     O46741   8.633   2.023   8.854  0.1272 -0.9233  0.7665
  347MOL0     C46742   8.560   1.908   8.824  0.3964  0.1320 -0.4546
  347MOL0     C46743   8.566   1.828   8.706  0.1135 -0.4194 -0.7537
  347MOL0     C46744   8.479   1.718   8.688 -0.6851 -0.1189  0.6252
  347MOL0     C46745   8.383   1.683   8.788  0.2822  1.2412  0.7764
  347MOL0     O46746   8.306   1.567   8.797 -0.0966  0.0225 -0.5604
  347MOL0     C46747   8.282   1.479   8.682  0.6546  0.4047  0.3410
  347MOL0     C46748   8.181   1.369   8.735  0.3324  0.4848  0.0780
  347MOL0     C46749   8.034   1.431   8.749 -0.9861  0.1735  0.7113
  347MOL0     C46750   7.957   1.329   8.832 -0.9784 -0.5134  0.5073
  347MOL0     C46751   7.808   1.373   8.817 -0.6129  0.1407  0.0605
  347MOL0     C46752   7.715   1.294   8.904 -0.0282  0.4143 -0.3410
  347MOL0     C46753   7.584   1.355   8.953  0.7830 -0.4652  0.9721
  347MOL0     C46754   7.463   1.259   8.946 -0.0155  0.6742  0.4956
  347MOL0    Cl46755   7.451   1.204   8.773  0.6419  0.0363  0.4120
  347MOL0     C46756   8.372   1.762   8.900  0.0407 -0.7864 -0.4712
  347MOL0     C46757   8.451   1.878   8.916 -0.3963  0.8607 -0.5225
  347MOL0     O46758   8.828   1.978   8.732  0.3801  0.1128  0.5934
  347MOL0     C46759   8.718   2.292   8.870 -0.9225  0.1102  0.8241
  347MOL0     C46760   8.749   2.426   8.870  0.3071  0.2471 -0.2843
  347MOL0     N46761   8.650   3.240   8.905  1.1630  0.0510 -0.3459
  347MOL0     N46762   8.690   3.333   8.823 -0.5103  0.0546  0.2637
  347MOL0     C46763   9.676   4.052   8.276  1.1160  0.7459  0.2100
  347MOL0     C46764   9.787   4.124   8.284 -0.0147  0.0362  0.1520
  347MOL0     C46765  10.132   4.317   8.426 -0.1067 -0.8003  0.1139
  347MOL0     C46766  10.136   4.419   8.328  0.2278 -0.1663 -0.4578
  347MOL0     C46767  10.258   4.487   8.306  0.4076  0.1574  0.2829
  347MOL0     C46768  10.372   4.466   8.382  0.1972  0.6122 -0.0760
  347MOL0     O46769  10.496   4.531   8.355  0.1383  0.3043  0.4255
  347MOL0     C46770  10.506   4.619   8.240  0.5022  0.0935  0.4459
  347MOL0     C46771  10.643   4.678   8.259 -1.5820 -0.7332 -0.0965
  347MOL0     C46772  10.670   4.781   8.152  0.3953 -0.7099  0.0085
  347MOL0     C46773  10.727   4.706   8.030  0.0213 -0.1804  0.3553
  347MOL0     C46774  10.736   4.792   7.909  0.7390 -0.1022  0.1963
  347MOL0     C46775  10.744   4.864   7.812  0.1571 -0.6558  0.6311
  347MOL0     C46776  10.366   4.368   8.468 -0.8244  0.0948 -0.2200
  347MOL0     C46777  10.251   4.292   8.494  0.1415 -0.7092 -1.0436
  347MOL0     H46778   9.696   4.285   8.575 -0.2218  0.1785  0.4318
  347MOL0     H46779   9.528   4.133   8.562  1.8874 -1.2039  0.9511
  347MOL0     H46780   9.334   4.062   8.500 -2.6712 -1.9175  0.2713
  347MOL0     H46781   9.331   4.154   8.346  0.5225 -0.1510 -0.9442
  347MOL0     H46782   9.113   4.022   8.357 -1.2831 -2.4348  0.2389
  347MOL0     H46783   9.230   3.945   8.245  2.7897  1.3286  0.4653
  347MOL0     H46784   9.289   3.796   8.449  0.6439  0.8672 -2.3834
  347MOL0     H46785   9.166   3.881   8.544 -3.0571 -2.3947  0.6157
  347MOL0     H46786   9.004   3.797   8.361  1.0218  1.2021 -0.5697
  347MOL0     H46787   9.128   3.678   8.320 -1.9183  1.8042 -3.8449
  347MOL0     H46788   9.140   3.575   8.510 -0.4742 -0.0091 -1.1412
  347MOL0     H46789   9.038   3.686   8.611  0.7035 -2.5058  0.3052
  347MOL0     H46790   8.840   3.605   8.477  1.2803  0.8789 -2.9817
  347MOL0     H46791   8.957   3.470   8.415  1.3698 -2.0974  1.5102
  347MOL0     H46792   8.991   3.384   8.620 -1.1581 -0.8027 -1.2438
  347MOL0     H46793   8.894   3.510   8.707 -3.2694  1.7206 -1.1123
  347MOL0     H46794   8.826   3.276   8.532  1.7124  1.0269  0.3435
  347MOL0     H46795   8.704   3.396   8.546 -0.5475 -0.3145 -0.1816
  347MOL0     H46796   8.805   3.058   8.695 -1.2654 -1.3533  1.0987
  347MOL0     H46797   8.704   2.998   9.046  4.0476 -1.5690 -1.2288
  347MOL0     H46798   8.573   2.952   8.925  0.0443 -0.6680 -2.9590
  347MOL0     H46799   8.877   2.931   8.860  0.2208 -1.0527  2.1930
  347MOL0     H46800   8.754   2.846   8.781  0.7052  1.3570 -0.4613
  347MOL0     H46801   8.704   2.692   8.981  1.2257 -2.4771 -0.0114
  347MOL0     H46802   8.819   2.794   9.069  1.0710 -0.2817 -0.8292
  347MOL0     H46803   8.935   2.593   8.992  0.4238  1.0229 -0.1879
  347MOL0     H46804   9.002   2.724   8.908  0.9516 -0.6861  0.4488
  347MOL0     H46805   8.966   2.438   8.617 -0.8019  0.4964 -0.6321
  347MOL0     H46806   8.889   2.139   8.524  0.2399 -1.0574  1.2032
  347MOL0     H46807   9.024   2.246   8.534 -0.6154 -0.5543 -1.6785
  347MOL0     H46808   9.006   2.100   8.652 -1.7608 -1.5778 -1.7266
  347MOL0     H46809   8.649   1.835   8.636  0.1273 -1.8979 -0.9020
  347MOL0     H46810   8.502   1.648   8.609 -1.1916 -1.3813  1.5725
  347MOL0     H46811   8.238   1.532   8.597  2.0119 -1.7164 -1.8197
  347MOL0     H46812   8.376   1.433   8.649  2.5203  3.4550  0.9554
  347MOL0     H46813   8.174   1.284   8.666 -1.2463  0.0716  0.7115
  347MOL0     H46814   8.218   1.328   8.829 -1.4706  1.8952  1.4754
  347MOL0     H46815   7.992   1.449   8.649  0.3769  1.5324  0.3574
  347MOL0     H46816   8.045   1.531   8.790  0.2242  0.1894  0.3929
  347MOL0     H46817   7.968   1.231   8.785  2.2359 -0.6740  1.3284
  347MOL0     H46818   8.002   1.328   8.931 -0.9717 -2.6460  0.5152
  347MOL0     H46819   7.786   1.362   8.710  1.1543 -1.1779 -0.2098
  347MOL0     H46820   7.797   1.479   8.839  2.1572  0.7554 -1.1860
  347MOL0     H46821   7.694   1.193   8.868 -2.3682  0.6776  0.1497
  347MOL0     H46822   7.779   1.280   8.992 -0.6504 -2.1567 -0.2003
  347MOL0     H46823   7.548   1.448   8.905  0.4557 -1.5021 -0.9153
  347MOL0     H46824   7.607   1.384   9.055  2.3070  1.8527  0.0506
  347MOL0     H46825   7.367   1.295   8.986 -1.5722 -1.4927 -1.0621
  347MOL0     H46826   7.486   1.169   9.004  0.4912 -1.4069 -2.6867
  347MOL0     H46827   8.293   1.739   8.971  0.2739 -1.3373 -0.3866
  347MOL0     H46828   8.439   1.926   9.013 -0.9440 -3.1719  1.6331
  347MOL0     H46829   8.639   2.255   8.934 -0.4413  0.5249  1.6737
  347MOL0     H46830   8.709   2.482   8.954 -1.2402  0.8572 -1.3917
  347MOL0     H46831   9.670   3.993   8.185 -1.2032 -1.0722  1.4238
  347MOL0     H46832   9.866   4.115   8.210  0.3771 -0.0322  0.5762
  347MOL0     H46833  10.053   4.442   8.263 -1.3997  1.0548  1.8969
  347MOL0     H46834  10.254   4.544   8.214 -1.0999  0.1784  0.3287
  347MOL0     H46835  10.505   4.565   8.145 -1.0170  1.6285 -0.4791
  347MOL0     H46836  10.427   4.694   8.227  0.3184 -0.2733 -0.5971
  347MOL0     H46837  10.724   4.606   8.274 -0.5043  0.1248 -1.6497
  347MOL0     H46838  10.650   4.731   8.355 -4.1360  0.0943 -0.2852
  347MOL0     H46839  10.736   4.858   8.194 -2.8531  2.3262 -0.0147
  347MOL0     H46840  10.575   4.826   8.123  1.0374 -0.2947 -1.5333
  347MOL0     H46841  10.658   4.629   7.994 -0.0502 -0.1224  0.3670
  347MOL0     H46842  10.824   4.666   8.059  1.4086  2.6445 -0.1071
  347MOL0     H46843  10.763   4.919   7.722  0.9467 -0.8108  0.6933
  347MOL0     H46844  10.456   4.348   8.526 -1.7887  2.4847  2.2744
  347MOL0     H46845  10.249   4.230   8.583 -1.5189  1.4851  0.5681
  348MOL0     O46846   9.286   1.063   3.644 -0.1798 -0.3359 -0.8908
  348MOL0     C46847   9.387   1.000   3.605  0.7696 -0.1156 -0.1508
  348MOL0     O46848   9.427   0.992   3.474  0.1936 -0.4120  0.8706
  348MOL0     C46849   9.373   1.074   3.374 -0.2337  1.0987 -0.0455
  348MOL0     C46850   9.431   1.200   3.363  0.3913  0.0159  0.0909
  348MOL0     C46851   9.374   1.293   3.277  0.7071 -0.3516 -1.0209
  348MOL0     C46852   9.266   1.255   3.182 -0.4430  0.5082 -0.2027
  348MOL0     O46853   9.228   1.333   3.078 -0.7422  0.3688  0.2126
  348MOL0     C46854   9.215   1.476   3.104 -0.3649 -0.4058 -0.1700
  348MOL0     C46855   9.154   1.556   2.986  0.3384  0.2143 -0.2459
  348MOL0     C46856   9.128   1.702   3.010 -0.5368 -0.4172 -0.3494
  348MOL0     C46857   9.071   1.771   2.887 -0.3563  0.1335  0.0351
  348MOL0     C46858   9.020   1.909   2.914  0.1701  0.2141 -0.2414
  348MOL0     C46859   8.948   1.970   2.795 -0.3619  1.0989  0.3920
  348MOL0     C46860   8.926   2.119   2.820  0.5964 -0.0205 -0.9880
  348MOL0     C46861   8.892   2.205   2.702  0.4387  1.1418 -0.7326
  348MOL0     N46862   8.761   2.186   2.643  0.7608 -0.5421 -0.6723
  348MOL0     C46863   8.647   2.136   2.697  0.0044  0.6026 -0.1665
  348MOL0     C46864   8.542   2.138   2.611 -0.4203  0.5064 -0.3368
  348MOL0     C46865   8.408   2.075   2.617  0.5543  0.2925 -0.3287
  348MOL0     C46866   8.316   2.091   2.491  0.1700  0.7601  0.2905
  348MOL0     C46867   8.170   2.049   2.513 -0.1438 -0.1865  0.2937
  348MOL0     C46868   8.161   1.898   2.544 -0.4301 -0.2340  0.3486
  348MOL0     O46869   8.023   1.852   2.572 -0.6676 -0.2293  0.1152
  348MOL0     C46870   7.984   1.725   2.577  0.1616 -0.4694 -0.4213
  348MOL0     C46871   7.936   1.666   2.464  0.4511 -0.9003 -0.3868
  348MOL0     C46872   7.897   1.535   2.446 -0.1052 -0.5323 -0.4079
  348MOL0     C46873   7.843   1.486   2.327  0.5167 -0.1615 -0.1728
  348MOL0     C46874   7.900   1.462   2.572 -0.1484  0.4964 -0.1107
  348MOL0     C46875   7.845   1.320   2.582 -0.0797 -1.1346  0.0452
  348MOL0     O46876   7.757   1.306   2.684  1.0618  0.3010 -0.5610
  348MOL0     C46877   7.704   1.177   2.700 -0.2621 -0.4405  0.0083
  348MOL0     C46878   7.665   1.146   2.835  0.4264  0.4801  0.2636
  348MOL0     C46879   7.588   1.035   2.868  0.2992 -0.6983 -0.4844
  348MOL0     C46880   7.540   0.965   2.758 -1.1634 -0.5502  0.1399
  348MOL0     O46881   7.448   0.856   2.785 -1.4742 -0.2825  0.3741
  348MOL0     C46882   7.488   0.765   2.888  0.1392 -0.4452 -0.6213
  348MOL0     C46883   7.419   0.629   2.880 -0.0060 -0.8466 -0.7921
  348MOL0     C46884   7.475   0.544   2.770  0.2113 -0.0857 -0.1675
  348MOL0     C46885   7.609   0.471   2.818  0.4469 -0.5988 -0.0577
  348MOL0     C46886   7.579   0.313   2.829 -0.2616 -0.6532  0.7871
  348MOL0     C46887   7.472   0.270   2.931 -0.0150  0.0633  0.0707
  348MOL0     C46888   7.518   0.269   3.073 -0.3100  0.6503 -0.8349
  348MOL0     C46889   7.416   0.208   3.155  0.2697  0.1663 -0.4576
  348MOL0    Cl46890   7.461   0.205   3.332 -0.2229 -0.2877 -0.0262
  348MOL0     C46891   7.575   0.996   2.625  0.8220  0.6612  0.7660
  348MOL0     C46892   7.651   1.106   2.593 -0.2621  0.5277  0.0724
  348MOL0     O46893   7.890   1.227   2.508 -0.4908 -1.1252  0.1202
  348MOL0     C46894   7.950   1.523   2.694 -0.1042  0.6767  0.1671
  348MOL0     C46895   8.007   1.646   2.684  0.1155  0.8592  0.0987
  348MOL0     N46896   8.610   2.208   2.506 -0.4710 -1.3828  0.1970
  348MOL0     N46897   8.734   2.244   2.530 -0.0087  0.7043  0.1003
  348MOL0     C46898   9.223   1.118   3.188  0.0938 -0.1746 -0.3741
  348MOL0     C46899   9.275   1.031   3.286 -0.7619  0.1955 -0.1106
  348MOL0     C46900   9.461   0.930   3.720 -0.4053  0.5900  0.5002
  348MOL0     C46901   9.599   0.892   3.709  0.6557 -0.3093 -0.6812
  348MOL0     C46902   9.672   0.828   3.809  0.0432 -0.4564  0.4074
  348MOL0     C46903   9.620   0.801   3.933 -0.0918 -0.7275  0.5219
  348MOL0     O46904   9.697   0.750   4.031  0.3930 -0.1309  0.0694
  348MOL0     C46905   9.651   0.761   4.161 -0.5031 -0.1469 -0.8971
  348MOL0     C46906   9.639   0.892   4.223  0.2790 -0.1869 -0.7964
  348MOL0     C46907   9.649   0.883   4.383  0.1758  0.6622 -0.6078
  348MOL0     C46908   9.632   1.020   4.450  0.7705 -0.1180  0.0056
  348MOL0     C46909   9.737   1.104   4.404  0.1490 -0.2285 -1.2974
  348MOL0     C46910   9.827   1.173   4.375  0.3370  0.2632  0.4532
  348MOL0     C46911   9.485   0.844   3.941  0.5175 -0.1132  0.0367
  348MOL0     C46912   9.398   0.897   3.838 -0.3737  0.8863 -0.4327
  348MOL0     H46913   9.512   1.225   3.431  0.3319 -2.2543  1.1140
  348MOL0     H46914   9.409   1.395   3.275 -3.0039  1.1512  0.9883
  348MOL0     H46915   9.169   1.491   3.202  2.6996  1.4609  1.1538
  348MOL0     H46916   9.316   1.517   3.109  0.9361 -3.1731 -1.3846
  348MOL0     H46917   9.216   1.555   2.895 -1.1043  0.3480 -1.2676
  348MOL0     H46918   9.061   1.512   2.949  1.1869  0.2795 -2.6551
  348MOL0     H46919   9.063   1.714   3.098 -0.0170 -0.4616  0.0423
  348MOL0     H46920   9.222   1.756   3.026 -1.0280 -0.0039  1.3975
  348MOL0     H46921   9.148   1.771   2.809  0.1247 -0.9791  0.4799
  348MOL0     H46922   8.988   1.714   2.845  0.7346  1.1066 -3.8555
  348MOL0     H46923   8.954   1.906   3.001  2.4639 -0.6215  1.5487
  348MOL0     H46924   9.103   1.973   2.946  0.0982 -0.0116  0.3980
  348MOL0     H46925   8.994   1.961   2.696 -1.9108 -1.1896 -0.1922
  348MOL0     H46926   8.852   1.918   2.788 -0.2721  1.1391 -1.5689
  348MOL0     H46927   8.855   2.138   2.901  0.9055 -1.7461 -0.2473
  348MOL0     H46928   9.015   2.165   2.862 -0.6236 -0.5751  2.4993
  348MOL0     H46929   8.966   2.177   2.626  0.0556 -0.8768 -0.4198
  348MOL0     H46930   8.895   2.310   2.730 -0.9052  0.2894  3.3333
  348MOL0     H46931   8.627   2.075   2.785 -4.8482  0.3794 -1.1411
  348MOL0     H46932   8.431   1.969   2.630  2.1375  0.7172  0.5858
  348MOL0     H46933   8.355   2.106   2.707 -0.1361 -2.8522  0.4526
  348MOL0     H46934   8.371   2.032   2.418  5.3095  1.4518  3.1271
  348MOL0     H46935   8.325   2.192   2.452  2.7707  0.1386 -0.9563
  348MOL0     H46936   8.096   2.066   2.433 -1.4280 -1.3954  1.1770
  348MOL0     H46937   8.138   2.111   2.597 -1.3514  0.0115 -0.2918
  348MOL0     H46938   8.224   1.872   2.629 -0.8902 -3.1145 -0.1047
  348MOL0     H46939   8.196   1.853   2.451 -1.5046  1.8486 -1.1562
  348MOL0     H46940   7.939   1.735   2.379  0.5161 -0.3550  0.0532
  348MOL0     H46941   7.922   1.424   2.283 -0.5315 -3.4967  2.1673
  348MOL0     H46942   7.754   1.423   2.338  1.5870 -1.6870  0.1541
  348MOL0     H46943   7.815   1.563   2.255  0.5352  1.2751  1.3001
  348MOL0     H46944   7.691   1.219   2.911 -0.7138  0.8643  0.3041
  348MOL0     H46945   7.548   1.027   2.969  1.4996  0.0891  0.0835
  348MOL0     H46946   7.597   0.757   2.888  0.0951 -1.1030 -0.1865
  348MOL0     H46947   7.465   0.799   2.990 -0.3652 -0.5398 -0.6982
  348MOL0     H46948   7.424   0.576   2.976 -1.1074 -2.5300 -1.6172
  348MOL0     H46949   7.312   0.639   2.861  0.4285 -0.0810 -3.0970
  348MOL0     H46950   7.501   0.607   2.685 -1.4458 -1.6284 -1.9103
  348MOL0     H46951   7.401   0.469   2.742 -0.6864  1.5742 -2.5132
  348MOL0     H46952   7.686   0.492   2.743 -1.0671 -1.5693 -1.9631
  348MOL0     H46953   7.644   0.501   2.918  1.9541 -0.8432 -0.4831
  348MOL0     H46954   7.676   0.268   2.852  1.1050  0.5657 -2.0826
  348MOL0     H46955   7.532   0.287   2.734 -4.7586  2.2959  1.9150
  348MOL0     H46956   7.384   0.335   2.926  0.3535  0.7173  1.5295
  348MOL0     H46957   7.441   0.170   2.899  0.7591 -0.3135  0.4681
  348MOL0     H46958   7.534   0.372   3.108  1.5109 -0.2142  1.2083
  348MOL0     H46959   7.615   0.218   3.081 -0.7141 -0.1732 -1.0944
  348MOL0     H46960   7.406   0.104   3.123 -0.2522 -0.5637  1.8941
  348MOL0     H46961   7.320   0.260   3.145  1.6032  3.1103  0.6615
  348MOL0     H46962   7.530   0.948   2.538  1.1733  1.8410 -0.1030
  348MOL0     H46963   7.662   1.132   2.489 -2.0664  0.7090 -0.0963
  348MOL0     H46964   7.955   1.463   2.784  0.1703 -0.0643 -0.3335
  348MOL0     H46965   8.056   1.692   2.769 -0.0243 -0.9297  1.2138
  348MOL0     H46966   9.141   1.096   3.121 -1.5426  1.4878  0.9597
  348MOL0     H46967   9.236   0.930   3.276 -0.9936  0.3411 -0.7316
  348MOL0     H46968   9.651   0.907   3.615  2.1865  1.1749  0.3479
  348MOL0     H46969   9.773   0.797   3.788  0.5113  1.3352 -0.1906
  348MOL0     H46970   9.562   0.698   4.168 -0.5197 -0.6322 -3.9299
  348MOL0     H46971   9.735   0.717   4.216  1.9302  0.7886 -3.5995
  348MOL0     H46972   9.537   0.920   4.196 -1.3298 -2.6214  2.1254
  348MOL0     H46973   9.715   0.961   4.185 -0.5614  1.2139 -0.0380
  348MOL0     H46974   9.747   0.845   4.414  1.5199  3.3583 -1.3118
  348MOL0     H46975   9.569   0.822   4.427 -0.3059  1.3255 -0.5433
  348MOL0     H46976   9.652   0.994   4.555 -0.6019 -0.4512  0.2144
  348MOL0     H46977   9.533   1.067   4.453  1.7800  2.1121  0.4602
  348MOL0     H46978   9.912   1.238   4.363 -1.9182  3.6211  1.4165
  348MOL0     H46979   9.427   0.818   4.029 -1.8475  0.0485 -1.3791
  348MOL0     H46980   9.292   0.909   3.856 -0.5011 -0.5497 -0.1579
  349MOL0     O46981   9.903   4.539   5.411 -0.2372  1.5355  1.1998
  349MOL0     C46982  10.012   4.538   5.462  0.8489  1.0600  0.2770
  349MOL0     O46983  10.042   4.445   5.556 -0.1736  0.2334  0.4813
  349MOL0     C46984   9.954   4.348   5.600 -0.3746 -0.4796  0.0309
  349MOL0     C46985   9.821   4.372   5.624 -0.5508 -0.2647 -0.8241
  349MOL0     C46986   9.740   4.277   5.682 -0.5724  0.3540 -0.8408
  349MOL0     C46987   9.794   4.149   5.721  0.6948 -0.6772 -0.3652
  349MOL0     O46988   9.688   4.058   5.761 -0.1030 -0.2569 -0.0367
  349MOL0     C46989   9.717   3.920   5.786 -0.4685  0.0542  0.2793
  349MOL0     C46990   9.584   3.861   5.834 -0.6013  0.1279 -1.0074
  349MOL0     C46991   9.468   3.856   5.726  0.2027  0.2742 -0.4714
  349MOL0     C46992   9.350   3.786   5.786  0.3982 -0.7193  0.2593
  349MOL0     C46993   9.245   3.756   5.672  0.3436  0.4240  0.5557
  349MOL0     C46994   9.162   3.630   5.698 -1.1481  0.2091  0.8047
  349MOL0     C46995   9.102   3.585   5.566  0.3734 -0.6725 -0.1807
  349MOL0     C46996   9.017   3.466   5.591  0.0600  0.5205  0.3785
  349MOL0     N46997   8.938   3.438   5.468 -0.1050 -0.2007 -0.5479
  349MOL0     C46998   8.968   3.474   5.337 -0.0443 -0.5917 -0.3608
  349MOL0     C46999   8.863   3.425   5.264 -1.0730  0.7760 -0.4906
  349MOL0     C47000   8.834   3.443   5.118  0.2059 -0.1297 -0.3384
  349MOL0     C47001   8.731   3.554   5.094 -0.4576  0.1924  1.3380
  349MOL0     C47002   8.731   3.581   4.939  0.1070 -0.1698 -0.9946
  349MOL0     C47003   8.636   3.696   4.895 -0.3583  0.4848  0.1005
  349MOL0     O47004   8.496   3.671   4.895 -0.4991  0.6225  0.1211
  349MOL0     C47005   8.424   3.736   4.799  0.3516  0.1975  0.0325
  349MOL0     C47006   8.294   3.680   4.788 -0.0297 -0.3207 -0.0574
  349MOL0     C47007   8.194   3.744   4.708 -0.3383 -0.6594 -0.1920
  349MOL0     C47008   8.050   3.686   4.697  0.3759 -0.1485  0.4665
  349MOL0     C47009   8.235   3.861   4.626 -0.6081  0.5472 -0.3254
  349MOL0     C47010   8.145   3.928   4.533 -0.5844 -0.1571  1.0787
  349MOL0     O47011   8.170   4.059   4.506  0.2063  0.1609  0.9767
  349MOL0     C47012   8.097   4.108   4.400 -0.9961 -0.1651  0.1746
  349MOL0     C47013   8.151   4.104   4.267 -0.5022 -0.5850  0.0389
  349MOL0     C47014   8.087   4.177   4.170 -0.0419 -0.3358 -0.3820
  349MOL0     C47015   7.967   4.233   4.194  0.4787  0.3336  0.1847
  349MOL0     O47016   7.906   4.274   4.084 -0.4200  0.1219 -0.0999
  349MOL0     C47017   7.777   4.330   4.091 -1.2752 -0.3273 -0.7383
  349MOL0     C47018   7.740   4.370   3.949 -0.2597  1.0273  0.3356
  349MOL0     C47019   7.599   4.438   3.957  0.1048 -0.8768  0.7059
  349MOL0     C47020   7.496   4.326   3.961 -0.4727 -0.3857  0.2790
  349MOL0     C47021   7.374   4.380   3.893  0.3339 -0.1446  0.9547
  349MOL0     C47022   7.243   4.301   3.927 -0.4729 -0.2299 -0.0632
  349MOL0     C47023   7.169   4.341   4.049 -0.7279  0.4650  0.3356
  349MOL0     C47024   7.036   4.262   4.069 -1.0673 -0.5241 -0.6058
  349MOL0    Cl47025   7.061   4.088   4.075  0.6260  0.3392 -0.3520
  349MOL0     C47026   7.911   4.223   4.311 -0.0716 -0.2255 -0.3699
  349MOL0     C47027   7.972   4.163   4.418  0.4907  0.4623  0.0036
  349MOL0     O47028   8.068   3.857   4.481  0.0391 -0.2691  1.0753
  349MOL0     C47029   8.372   3.905   4.641 -0.1611 -0.8900  0.8914
  349MOL0     C47030   8.461   3.841   4.723 -0.6297  0.1670  1.2412
  349MOL0     N47031   8.762   3.377   5.342 -0.8976  0.7262 -0.8821
  349MOL0     N47032   8.813   3.386   5.467  0.9244 -0.1287  0.3550
  349MOL0     C47033   9.930   4.130   5.697 -0.6168 -0.1259 -0.4848
  349MOL0     C47034  10.012   4.222   5.631  0.7255  0.5516  0.6451
  349MOL0     C47035  10.104   4.646   5.435  0.9215 -0.1618  0.1308
  349MOL0     C47036  10.228   4.663   5.502  0.2953  0.4418  0.8443
  349MOL0     C47037  10.307   4.784   5.485  0.8241  0.2036 -0.4171
  349MOL0     C47038  10.265   4.892   5.412 -0.0370 -0.0118 -0.1141
  349MOL0     O47039  10.324   5.019   5.394 -0.9345 -0.1029 -0.4085
  349MOL0     C47040  10.449   5.055   5.470  0.4180 -0.0608 -0.2928
  349MOL0     C47041  10.562   4.969   5.425 -0.8516  0.3911 -0.4837
  349MOL0     C47042  10.690   5.010   5.510 -0.9126  0.1685  0.2360
  349MOL0     C47043  10.823   4.965   5.444 -0.5187  0.2109 -1.0415
  349MOL0     C47044  10.823   4.823   5.399 -0.4347  0.3347  0.3624
  349MOL0     C47045  10.808   4.704   5.376 -1.0020  0.1946 -0.7811
  349MOL0     C47046  10.133   4.886   5.352  0.2340  0.0195 -0.0864
  349MOL0     C47047  10.059   4.767   5.363  0.6467 -0.1881 -1.5840
  349MOL0     H47048   9.789   4.475   5.605  1.2543  0.2898 -1.0499
  349MOL0     H47049   9.637   4.299   5.706 -0.7325 -0.4682 -0.7321
  349MOL0     H47050   9.765   3.874   5.699  0.5251  0.2443  0.7123
  349MOL0     H47051   9.781   3.905   5.874  1.3293  0.1673 -0.9608
  349MOL0     H47052   9.616   3.765   5.876 -0.8792  1.0086  1.3924
  349MOL0     H47053   9.556   3.925   5.918  2.1523 -1.9902  1.7626
  349MOL0     H47054   9.443   3.961   5.713  2.0710  0.5902 -1.9370
  349MOL0     H47055   9.517   3.819   5.635  0.0640 -2.4705  0.4635
  349MOL0     H47056   9.394   3.689   5.810 -0.2238 -1.0135  0.2048
  349MOL0     H47057   9.321   3.844   5.874  2.2507 -0.7687  0.9539
  349MOL0     H47058   9.182   3.845   5.660 -2.5673 -1.3481  1.6672
  349MOL0     H47059   9.295   3.738   5.576  0.4548 -0.3921  0.7604
  349MOL0     H47060   9.223   3.548   5.736 -0.9164  0.5872  1.2522
  349MOL0     H47061   9.076   3.653   5.761 -0.0951  0.8122  2.0602
  349MOL0     H47062   9.052   3.670   5.519  0.6362 -0.8493 -0.7815
  349MOL0     H47063   9.184   3.559   5.499  1.5774 -0.2014  1.0684
  349MOL0     H47064   8.943   3.488   5.669  1.2082 -0.3343  1.7693
  349MOL0     H47065   9.069   3.377   5.627 -0.6792 -0.0391  0.0783
  349MOL0     H47066   9.056   3.525   5.298 -0.0503  0.3671  0.7980
  349MOL0     H47067   8.933   3.462   5.076  2.2990  1.5315  4.5459
  349MOL0     H47068   8.788   3.352   5.081 -1.2425 -0.6771  2.4959
  349MOL0     H47069   8.760   3.641   5.154 -2.0177 -0.0447  2.5090
  349MOL0     H47070   8.633   3.525   5.133 -1.5874  1.0644 -0.6605
  349MOL0     H47071   8.684   3.501   4.881 -2.4953  1.2522 -1.0455
  349MOL0     H47072   8.835   3.603   4.912  0.4867 -0.4445  0.1964
  349MOL0     H47073   8.675   3.707   4.794  0.1622 -1.4049  0.0573
  349MOL0     H47074   8.647   3.793   4.945 -0.3833  0.4877  0.1010
  349MOL0     H47075   8.275   3.586   4.838  0.3544 -1.2071 -1.5310
  349MOL0     H47076   8.052   3.620   4.610  0.5698 -1.0132  1.1147
  349MOL0     H47077   8.020   3.630   4.786  0.5177  1.6617  1.7072
  349MOL0     H47078   7.972   3.763   4.693  0.2026 -0.1391  2.6794
  349MOL0     H47079   8.246   4.052   4.264  0.0168  0.2169  1.7740
  349MOL0     H47080   8.130   4.171   4.070  1.7374  1.4758  0.1985
  349MOL0     H47081   7.708   4.253   4.127 -0.6405  0.1594  1.6712
  349MOL0     H47082   7.770   4.421   4.151 -0.5823  0.3733 -1.6915
  349MOL0     H47083   7.806   4.454   3.921  0.2105  1.4768  2.5684
  349MOL0     H47084   7.752   4.289   3.877 -0.5921 -1.9362  3.4031
  349MOL0     H47085   7.586   4.501   3.869 -0.8273 -1.8576  0.1208
  349MOL0     H47086   7.594   4.509   4.040  0.6511 -1.5360  1.3208
  349MOL0     H47087   7.528   4.234   3.911  0.7861 -0.3938  1.0437
  349MOL0     H47088   7.476   4.294   4.064 -1.5505  0.6771  0.4107
  349MOL0     H47089   7.395   4.357   3.789 -0.6839  1.7242  0.2921
  349MOL0     H47090   7.365   4.489   3.896  0.9438 -0.0101 -1.1964
  349MOL0     H47091   7.175   4.305   3.840 -0.5572  1.0947  0.0394
  349MOL0     H47092   7.288   4.204   3.948  2.8491  1.4740  1.2871
  349MOL0     H47093   7.141   4.446   4.044  1.4788  1.1040  0.6233
  349MOL0     H47094   7.232   4.314   4.134 -2.0758 -3.3310  0.3296
  349MOL0     H47095   6.968   4.279   3.985  0.4414  0.4326 -1.6779
  349MOL0     H47096   6.991   4.296   4.163  2.9623  0.3375  1.2169
  349MOL0     H47097   7.820   4.274   4.339 -0.8357 -1.3088 -0.8066
  349MOL0     H47098   7.929   4.191   4.514 -1.4531  2.1834 -1.2662
  349MOL0     H47099   8.401   3.991   4.581  0.8853 -2.6365 -1.2399
  349MOL0     H47100   8.561   3.884   4.728 -0.7296  0.8277 -1.1183
  349MOL0     H47101   9.964   4.032   5.731 -0.9965  0.4262  1.5899
  349MOL0     H47102  10.117   4.197   5.623  0.4163 -0.7527  0.4902
  349MOL0     H47103  10.264   4.583   5.567 -0.3670  0.6517  1.4753
  349MOL0     H47104  10.401   4.769   5.536  0.2881 -0.8666  0.2731
  349MOL0     H47105  10.462   5.163   5.456 -1.3899  0.1092 -0.9684
  349MOL0     H47106  10.428   5.049   5.577 -0.8783  3.1925 -0.2581
  349MOL0     H47107  10.581   4.978   5.318  2.6559  1.9239  0.1123
  349MOL0     H47108  10.535   4.867   5.453 -1.4698  1.0868  1.6537
  349MOL0     H47109  10.674   4.983   5.615  2.8929 -2.2281  0.3769
  349MOL0     H47110  10.705   5.118   5.512  2.3936 -0.0775 -2.6005
  349MOL0     H47111  10.900   4.973   5.521  1.2227  0.8370 -2.7760
  349MOL0     H47112  10.862   5.029   5.365  0.1709  0.3812 -0.5724
  349MOL0     H47113  10.790   4.603   5.347 -1.9763 -0.3341  1.4338
  349MOL0     H47114  10.089   4.971   5.300 -1.4395 -1.1975 -0.7157
  349MOL0     H47115   9.960   4.754   5.319 -0.2072 -2.5216  0.7496
  350MOL0     O47116  11.264   7.874   9.339 -0.8780 -0.2191 -0.2990
  350MOL0     C47117  11.341   7.780   9.367  0.9341 -0.7776  0.2350
  350MOL0     O47118  11.355   7.670   9.290  0.1869 -0.4219 -0.4536
  350MOL0     C47119  11.285   7.667   9.167  0.4890  0.6649  0.1382
  350MOL0     C47120  11.349   7.613   9.054 -0.8253 -0.0065 -0.8190
  350MOL0     C47121  11.288   7.592   8.931 -0.7398 -0.4195 -0.3278
  350MOL0     C47122  11.158   7.634   8.914  0.1864  0.6734 -0.0283
  350MOL0     O47123  11.096   7.613   8.793 -0.3492  0.1459 -0.7064
  350MOL0     C47124  10.966   7.559   8.790  1.5836  0.2464  0.8685
  350MOL0     C47125  10.960   7.469   8.664 -0.4067  0.0418  1.0457
  350MOL0     C47126  10.835   7.388   8.651  0.0463  0.1676  0.6205
  350MOL0     C47127  10.841   7.308   8.518  0.2943  0.4660  1.0453
  350MOL0     C47128  10.703   7.254   8.480 -0.0299 -0.7998  1.0198
  350MOL0     C47129  10.693   7.157   8.356  0.6200 -0.3196 -0.2651
  350MOL0     C47130  10.550   7.126   8.315 -0.1039 -0.4270  0.0695
  350MOL0     C47131  10.483   7.242   8.245 -0.0422  0.2156 -0.5412
  350MOL0     N47132  10.347   7.207   8.191  0.1212 -0.0740  0.0813
  350MOL0     C47133  10.232   7.188   8.259  0.5242 -0.1753 -0.5963
  350MOL0     C47134  10.138   7.187   8.167 -0.2563  0.4984 -0.4422
  350MOL0     C47135   9.991   7.156   8.171  0.1566 -0.0562 -0.2170
  350MOL0     C47136   9.960   7.032   8.092  0.4478  0.7578 -0.4851
  350MOL0     C47137   9.821   7.044   8.022  0.6443  0.0530 -1.2257
  350MOL0     C47138   9.800   6.922   7.925  0.1089  0.2007  1.2006
  350MOL0     O47139   9.821   6.788   7.989  0.0189 -0.4558 -0.3984
  350MOL0     C47140   9.796   6.670   7.915 -0.2119 -0.0398  0.6048
  350MOL0     C47141   9.778   6.670   7.772  0.0620 -0.4759 -0.4680
  350MOL0     C47142   9.775   6.547   7.692 -0.3820 -0.2714 -0.5980
  350MOL0     C47143   9.777   6.555   7.536  0.1536 -0.8124 -0.7020
  350MOL0     C47144   9.798   6.421   7.765  0.2731 -0.4829  0.5567
  350MOL0     C47145   9.802   6.285   7.708  0.2803  0.1921  1.2859
  350MOL0     O47146   9.781   6.183   7.798 -0.4822 -0.1436 -0.1612
  350MOL0     C47147   9.825   6.056   7.778  0.3122  0.0507 -0.0562
  350MOL0     C47148   9.756   5.946   7.822  0.0130  1.0751  0.3805
  350MOL0     C47149   9.804   5.815   7.800 -1.2317 -0.9537  0.7398
  350MOL0     C47150   9.927   5.796   7.726 -0.6510  0.9175 -0.0228
  350MOL0     O47151   9.967   5.668   7.698  0.0751  0.2072 -0.6434
  350MOL0     C47152  10.032   5.646   7.577 -0.2919 -0.0121  1.2452
  350MOL0     C47153   9.961   5.530   7.503 -0.1792 -0.9595  0.6546
  350MOL0     C47154  10.021   5.510   7.363  0.2917 -0.4314  0.6738
  350MOL0     C47155  10.176   5.486   7.370  0.6913  0.8254 -0.2243
  350MOL0     C47156  10.233   5.463   7.240  0.3314 -0.6432 -0.2414
  350MOL0     C47157  10.385   5.433   7.233  0.5633  1.1609 -0.6013
  350MOL0     C47158  10.470   5.555   7.272 -0.0245  1.0124 -0.1661
  350MOL0     C47159  10.612   5.547   7.233  0.2042 -0.5302  0.4368
  350MOL0    Cl47160  10.622   5.560   7.049 -0.5706  0.2719 -0.0665
  350MOL0     C47161   9.995   5.913   7.693 -0.3584  0.0544 -0.1197
  350MOL0     C47162   9.951   6.034   7.727  0.5969 -0.7971  0.1236
  350MOL0     O47163   9.829   6.266   7.588 -0.2974 -0.0788  0.9875
  350MOL0     C47164   9.816   6.426   7.910 -0.6398 -0.4527 -0.2557
  350MOL0     C47165   9.797   6.549   7.973  0.3345  0.1936 -0.3294
  350MOL0     N47166  10.198   7.213   8.046 -0.3228 -0.8884  0.2290
  350MOL0     N47167  10.318   7.220   8.061 -0.5963  0.2837  0.1354
  350MOL0     C47168  11.088   7.686   9.019 -0.0167 -0.3651  0.4241
  350MOL0     C47169  11.148   7.698   9.143 -1.0132 -0.8915 -1.4197
  350MOL0     C47170  11.416   7.784   9.489  0.0551  0.2106 -0.2963
  350MOL0     C47171  11.548   7.734   9.502 -0.5442 -0.1535 -0.4863
  350MOL0     C47172  11.630   7.765   9.614  0.7839  0.1216  0.3471
  350MOL0     C47173  11.575   7.837   9.722  1.0058 -0.1564 -0.8841
  350MOL0     O47174  11.624   7.850   9.849 -0.1725  0.1358  0.2200
  350MOL0     C47175  11.737   7.772   9.884 -0.5067  0.3086 -0.1581
  350MOL0     C47176  11.769   7.797  10.028 -0.6167 -0.2792 -0.1466
  350MOL0     C47177  11.682   7.726  10.132 -0.2447  0.7770  0.5251
  350MOL0     C47178  11.706   7.766  10.285 -0.0517 -0.6301 -0.5630
  350MOL0     C47179  11.802   7.673  10.362  0.0476 -0.2816 -0.6913
  350MOL0     C47180  11.860   7.598  10.435  0.5292 -0.1081 -0.0859
  350MOL0     C47181  11.445   7.873   9.713 -0.5324  0.0448 -0.0105
  350MOL0     C47182  11.369   7.858   9.597  0.1431  0.1016 -0.2598
  350MOL0     H47183  11.453   7.587   9.073 -0.5568  0.8849 -1.0174
  350MOL0     H47184  11.345   7.554   8.847 -0.1395 -3.0105  1.1319
  350MOL0     H47185  10.943   7.503   8.881 -3.4817 -1.2367 -0.9588
  350MOL0     H47186  10.882   7.630   8.787  0.4174 -1.0824  1.1523
  350MOL0     H47187  10.966   7.533   8.576 -0.3111 -1.7008 -0.2638
  350MOL0     H47188  11.051   7.408   8.673  0.9147  2.1169  2.9610
  350MOL0     H47189  10.835   7.320   8.738  0.2751  1.2238  1.4625
  350MOL0     H47190  10.752   7.458   8.644  0.5855  0.6513 -1.5584
  350MOL0     H47191  10.891   7.369   8.441  0.3144  0.4402  1.0373
  350MOL0     H47192  10.907   7.222   8.528 -0.9430 -0.7151 -0.3942
  350MOL0     H47193  10.665   7.189   8.558 -1.3044  1.7212  2.6306
  350MOL0     H47194  10.635   7.338   8.462  0.6506 -0.9357 -3.5697
  350MOL0     H47195  10.760   7.180   8.273 -2.7310  1.6097 -2.6964
  350MOL0     H47196  10.721   7.059   8.395  0.4529 -0.8145 -1.3554
  350MOL0     H47197  10.558   7.042   8.245 -1.2044 -0.0923 -0.4758
  350MOL0     H47198  10.493   7.096   8.404 -1.1193  1.1090 -0.0297
  350MOL0     H47199  10.557   7.276   8.173  0.7967  0.6941  0.5156
  350MOL0     H47200  10.458   7.326   8.311 -0.0048 -1.0319  1.1309
  350MOL0     H47201  10.224   7.184   8.368  0.1753 -2.8561 -0.6493
  350MOL0     H47202   9.972   7.132   8.276  2.6971 -1.9739 -0.0814
  350MOL0     H47203   9.944   7.246   8.131 -1.0695 -1.3548 -1.8411
  350MOL0     H47204   9.965   6.944   8.156 -0.2228 -1.2391 -3.0494
  350MOL0     H47205  10.025   7.018   8.006 -1.1204  3.0162 -2.1431
  350MOL0     H47206   9.809   7.134   7.961  2.1181  0.2522 -1.2643
  350MOL0     H47207   9.742   7.036   8.097 -2.5006 -0.9078 -4.4061
  350MOL0     H47208   9.863   6.927   7.835  0.5849 -1.1860  1.4181
  350MOL0     H47209   9.700   6.923   7.882 -0.4394  1.9791  2.4297
  350MOL0     H47210   9.768   6.762   7.715  2.5338  0.4758  0.4822
  350MOL0     H47211   9.873   6.534   7.489  0.6314 -1.1453  0.3754
  350MOL0     H47212   9.703   6.487   7.493 -0.6142 -1.2478  1.1847
  350MOL0     H47213   9.764   6.659   7.505  1.5121  0.1911  1.7843
  350MOL0     H47214   9.669   5.972   7.882 -0.0994 -0.8161  1.0927
  350MOL0     H47215   9.742   5.729   7.823  0.2311 -1.9369  1.1519
  350MOL0     H47216  10.033   5.739   7.519  0.0300  1.9007  4.1447
  350MOL0     H47217  10.136   5.624   7.604 -0.4946 -1.8505  0.6768
  350MOL0     H47218   9.988   5.445   7.567  1.5760  0.2710  1.6322
  350MOL0     H47219   9.853   5.545   7.508 -0.3095 -2.0813  2.4749
  350MOL0     H47220  10.004   5.602   7.307 -2.6954 -1.9355 -1.0935
  350MOL0     H47221   9.975   5.417   7.327  1.1672 -1.0973  1.2232
  350MOL0     H47222  10.219   5.572   7.424 -2.5875  0.9823  2.4543
  350MOL0     H47223  10.187   5.391   7.422 -2.5409  0.2244 -0.4595
  350MOL0     H47224  10.212   5.557   7.188 -2.2024 -0.0049  1.7311
  350MOL0     H47225  10.186   5.384   7.180  0.6131 -1.5050  0.6406
  350MOL0     H47226  10.395   5.358   7.313  0.7238  0.4520 -1.2735
  350MOL0     H47227  10.411   5.389   7.137 -0.2512 -2.4366  0.6418
  350MOL0     H47228  10.468   5.558   7.381 -0.8715 -3.2640  0.1245
  350MOL0     H47229  10.428   5.647   7.232 -0.5880  0.2991 -1.2682
  350MOL0     H47230  10.657   5.450   7.257 -2.5699 -2.0219 -0.0089
  350MOL0     H47231  10.668   5.628   7.281  1.0913 -1.4646  1.0386
  350MOL0     H47232  10.089   5.904   7.639 -0.1632  1.3337 -0.0188
  350MOL0     H47233  10.009   6.122   7.700 -0.5010  0.0915  0.5809
  350MOL0     H47234   9.839   6.336   7.966 -0.1008 -0.1977 -0.0665
  350MOL0     H47235   9.811   6.551   8.080 -0.4723 -1.3397 -0.1832
  350MOL0     H47236  10.985   7.720   9.010  1.2451  4.5568  1.6830
  350MOL0     H47237  11.103   7.727   9.238  1.4765  0.8508 -0.6592
  350MOL0     H47238  11.582   7.675   9.418 -0.9236 -0.9866 -0.0662
  350MOL0     H47239  11.730   7.723   9.615  0.6726 -0.1649 -0.2332
  350MOL0     H47240  11.718   7.666   9.867  1.5697 -0.1813  0.3700
  350MOL0     H47241  11.817   7.819   9.826  2.2921 -1.1520  2.2523
  350MOL0     H47242  11.776   7.905  10.040  0.9999 -0.4026  0.4041
  350MOL0     H47243  11.873   7.767  10.044 -0.0138  0.3044 -2.5680
  350MOL0     H47244  11.698   7.619  10.117  2.5637  0.9839  1.4400
  350MOL0     H47245  11.580   7.754  10.103 -0.6515 -1.2566 -0.1597
  350MOL0     H47246  11.611   7.755  10.338  1.0741 -0.2402  1.6807
  350MOL0     H47247  11.730   7.872  10.287  0.0567 -0.6609  0.2879
  350MOL0     H47248  11.898   7.518  10.495  0.4821 -1.9754 -2.3806
  350MOL0     H47249  11.401   7.917   9.802  2.1743  0.8908  1.0173
  350MOL0     H47250  11.262   7.875   9.599 -0.2674 -1.8036 -1.9752
  351MOL0     O47251   1.363   5.789   6.880  0.9141 -0.3206  0.1462
  351MOL0     C47252   1.485   5.818   6.870  1.5692 -0.3285  0.8021
  351MOL0     O47253   1.531   5.942   6.843  0.0460  0.4359 -0.0187
  351MOL0     C47254   1.449   6.042   6.778 -0.2099 -0.1689  0.1192
  351MOL0     C47255   1.481   6.103   6.654 -1.0250 -0.0529 -0.6973
  351MOL0     C47256   1.408   6.200   6.584  0.7159 -0.1359  0.5551
  351MOL0     C47257   1.296   6.257   6.647 -0.6477  0.8290  0.2178
  351MOL0     O47258   1.207   6.345   6.585  0.5501  0.0496  0.2230
  351MOL0     C47259   1.155   6.455   6.655  0.1360 -0.2813  0.0245
  351MOL0     C47260   1.245   6.566   6.639 -0.0204 -0.9536 -1.4131
  351MOL0     C47261   1.221   6.640   6.497 -0.0774 -0.4798 -0.5079
  351MOL0     C47262   1.318   6.762   6.475  0.5085 -0.1629  0.3475
  351MOL0     C47263   1.269   6.810   6.337 -0.0871  0.2846  0.1464
  351MOL0     C47264   1.349   6.933   6.288  0.4711  0.2045  0.3710
  351MOL0     C47265   1.306   7.061   6.354 -0.6825  1.2185  0.5251
  351MOL0     C47266   1.362   7.193   6.287 -1.0270  0.6830  1.2095
  351MOL0     N47267   1.500   7.241   6.329 -0.3729  0.4090  0.4110
  351MOL0     C47268   1.586   7.179   6.413  0.1377  0.7951 -0.2939
  351MOL0     C47269   1.710   7.233   6.407  0.5895 -0.0919  1.0197
  351MOL0     C47270   1.840   7.168   6.451  0.3038  0.3434  0.4650
  351MOL0     C47271   1.868   7.042   6.372  0.5023  0.0291  0.2050
  351MOL0     C47272   1.827   6.923   6.468  0.2690  0.6957 -0.1432
  351MOL0     C47273   1.850   6.785   6.415  0.5482 -0.0615 -0.6872
  351MOL0     O47274   1.790   6.709   6.529  0.1427 -0.4679  0.3459
  351MOL0     C47275   1.808   6.568   6.526 -0.1067 -0.3790 -0.0886
  351MOL0     C47276   1.871   6.489   6.424  0.1532 -0.0377 -0.3123
  351MOL0     C47277   1.885   6.349   6.435 -0.5258  0.6870 -0.7332
  351MOL0     C47278   1.972   6.279   6.332 -0.1340 -0.0972  0.8481
  351MOL0     C47279   1.831   6.281   6.551  0.1750 -0.5892 -0.7471
  351MOL0     C47280   1.843   6.141   6.576 -0.1927 -0.3794  0.2088
  351MOL0     O47281   1.841   6.063   6.469  0.2981  0.0057  1.2082
  351MOL0     C47282   1.865   5.922   6.482  0.6159 -0.8578 -0.0645
  351MOL0     C47283   1.985   5.874   6.515 -0.3478  0.7507  0.0470
  351MOL0     C47284   2.011   5.735   6.496 -0.1297 -0.3918  0.2871
  351MOL0     C47285   1.916   5.648   6.441  0.0689  0.4136 -0.9721
  351MOL0     O47286   1.943   5.509   6.435  0.4273 -0.3328 -0.0977
  351MOL0     C47287   1.968   5.448   6.563  0.4014 -0.0462 -0.2604
  351MOL0     C47288   1.999   5.294   6.541  0.0563  0.3056 -0.1829
  351MOL0     C47289   2.130   5.268   6.464  0.6748  0.1982 -0.1723
  351MOL0     C47290   2.135   5.118   6.439 -0.5684  0.8988  0.1731
  351MOL0     C47291   2.275   5.089   6.404  0.4171  0.2349 -0.5123
  351MOL0     C47292   2.275   5.064   6.254  0.0668 -0.0824  1.0136
  351MOL0     C47293   2.414   5.087   6.202 -0.4910 -0.1685  0.6623
  351MOL0     C47294   2.428   5.089   6.050 -0.0024 -0.5884  0.0055
  351MOL0    Cl47295   2.338   5.217   5.976 -0.2291 -0.0265  0.1777
  351MOL0     C47296   1.792   5.706   6.399  0.4742 -0.9881  0.1941
  351MOL0     C47297   1.766   5.839   6.434 -0.4942 -1.1784 -0.1349
  351MOL0     O47298   1.836   6.100   6.692 -0.3423 -0.0602  0.0590
  351MOL0     C47299   1.775   6.366   6.658  0.2319  0.9344 -0.2246
  351MOL0     C47300   1.766   6.505   6.642  0.7978 -0.1704  0.2467
  351MOL0     N47301   1.702   7.342   6.327  0.7360 -1.0285  0.6695
  351MOL0     N47302   1.569   7.344   6.276 -0.2507  0.0318 -0.1280
  351MOL0     C47303   1.263   6.196   6.776  0.1253 -0.0436  0.3484
  351MOL0     C47304   1.334   6.091   6.845  0.2935  0.1199 -0.3590
  351MOL0     C47305   1.596   5.719   6.875  0.7133  0.8873  0.3653
  351MOL0     C47306   1.724   5.760   6.837 -0.3236  0.2136 -0.3617
  351MOL0     C47307   1.835   5.672   6.869  0.1383  1.2747  0.3817
  351MOL0     C47308   1.814   5.543   6.917 -0.2800  0.5019  0.6711
  351MOL0     O47309   1.925   5.456   6.949 -0.4564 -0.5230  0.2299
  351MOL0     C47310   2.053   5.510   6.982  0.3597  0.0904  0.0656
  351MOL0     C47311   2.114   5.445   7.102  0.1206 -0.2790  0.1601
  351MOL0     C47312   2.027   5.424   7.234  0.3190 -0.6460  0.5284
  351MOL0     C47313   2.112   5.389   7.352  0.4836  0.7026 -0.7988
  351MOL0     C47314   2.186   5.266   7.334  0.2781  0.4475  0.2865
  351MOL0     C47315   2.264   5.170   7.317 -0.5036  0.3715  0.4423
  351MOL0     C47316   1.689   5.505   6.933 -1.1982  0.8130  0.2831
  351MOL0     C47317   1.579   5.586   6.922  1.0510 -0.4567  0.0861
  351MOL0     H47318   1.570   6.059   6.609  1.1172  0.2156  2.9217
  351MOL0     H47319   1.442   6.212   6.481 -2.0121 -0.3255 -0.4396
  351MOL0     H47320   1.055   6.475   6.618 -0.1314 -4.0193 -1.7109
  351MOL0     H47321   1.148   6.445   6.764 -0.7292  0.1944  0.0169
  351MOL0     H47322   1.234   6.636   6.722  0.6301 -0.8158 -1.4322
  351MOL0     H47323   1.349   6.534   6.653  0.2271  0.7824  1.7290
  351MOL0     H47324   1.242   6.563   6.423  2.0683  0.9285 -1.4586
  351MOL0     H47325   1.118   6.663   6.469 -0.0215 -0.5578 -0.7848
  351MOL0     H47326   1.307   6.838   6.553  0.3329  0.5857 -0.3988
  351MOL0     H47327   1.423   6.732   6.473  0.0098 -2.0779  0.3151
  351MOL0     H47328   1.290   6.725   6.272  1.6040 -0.6320  1.7991
  351MOL0     H47329   1.161   6.828   6.338 -0.8426 -2.9108 -3.3652
  351MOL0     H47330   1.457   6.916   6.295  0.6401 -1.4904 -3.7103
  351MOL0     H47331   1.344   6.942   6.179 -1.1421 -3.9224 -0.0687
  351MOL0     H47332   1.199   7.079   6.364 -1.1255 -1.2546  0.9412
  351MOL0     H47333   1.335   7.055   6.460 -4.2891  0.9945  1.6410
  351MOL0     H47334   1.297   7.281   6.293 -1.1707  0.9548 -2.4653
  351MOL0     H47335   1.372   7.167   6.181 -1.2080 -0.7496  1.5229
  351MOL0     H47336   1.558   7.090   6.468 -1.0215  0.7370 -0.9452
  351MOL0     H47337   1.927   7.234   6.443  0.7165 -0.2193  0.2431
  351MOL0     H47338   1.824   7.156   6.558  0.2861  1.6704  0.6283
  351MOL0     H47339   1.977   7.031   6.371  0.3765 -1.6517  1.0080
  351MOL0     H47340   1.823   7.043   6.272  1.7169  2.3383 -0.3868
  351MOL0     H47341   1.720   6.926   6.493 -0.2520 -0.1082 -2.0728
  351MOL0     H47342   1.874   6.937   6.566 -3.2069  4.1679  1.3418
  351MOL0     H47343   1.956   6.772   6.393  0.5159 -4.4411  0.7672
  351MOL0     H47344   1.797   6.776   6.320  1.8117 -3.1757 -1.2167
  351MOL0     H47345   1.911   6.540   6.337  1.3037 -0.6974 -0.2039
  351MOL0     H47346   2.058   6.223   6.369  0.5045 -0.4455 -1.0381
  351MOL0     H47347   1.904   6.206   6.286  1.4845 -1.1390 -0.0108
  351MOL0     H47348   2.012   6.351   6.259  2.7001  1.0643  3.3204
  351MOL0     H47349   2.061   5.944   6.550  1.4978 -0.3457 -1.5627
  351MOL0     H47350   2.105   5.698   6.537  1.2547  1.7994 -0.6980
  351MOL0     H47351   2.059   5.497   6.600 -0.4872  3.1413 -1.9264
  351MOL0     H47352   1.886   5.449   6.635  0.5703  0.5359 -0.0726
  351MOL0     H47353   2.016   5.250   6.640  0.6112  0.8321 -0.0404
  351MOL0     H47354   1.913   5.237   6.505  0.0921 -0.8029  1.3991
  351MOL0     H47355   2.214   5.298   6.528  0.3961  0.4260  0.0890
  351MOL0     H47356   2.129   5.323   6.370 -2.7072 -1.7512 -1.4692
  351MOL0     H47357   2.115   5.071   6.536 -0.4151  2.3810  0.9536
  351MOL0     H47358   2.055   5.082   6.373 -2.6109 -1.1379  3.4310
  351MOL0     H47359   2.298   4.996   6.457  1.3860  1.0559  0.5557
  351MOL0     H47360   2.341   5.172   6.433 -1.4891  1.8303 -0.5587
  351MOL0     H47361   2.233   4.965   6.232  2.3956 -0.8082 -0.6507
  351MOL0     H47362   2.222   5.144   6.202  1.8660  2.0178  2.2625
  351MOL0     H47363   2.475   5.003   6.239  0.2503  0.2688  0.4548
  351MOL0     H47364   2.456   5.182   6.235 -3.0250  0.7764  1.4003
  351MOL0     H47365   2.415   4.993   5.999 -2.6834  0.3777 -1.3234
  351MOL0     H47366   2.532   5.118   6.036  0.2333 -1.2025  0.4493
  351MOL0     H47367   1.708   5.655   6.353  0.1835 -3.0713  2.8371
  351MOL0     H47368   1.673   5.886   6.404  1.1829  3.2324  0.7847
  351MOL0     H47369   1.731   6.312   6.741 -0.9788  0.0209 -1.4186
  351MOL0     H47370   1.726   6.566   6.722 -2.1865  1.2235 -2.1112
  351MOL0     H47371   1.177   6.225   6.836 -0.1520 -1.2870  0.5810
  351MOL0     H47372   1.299   6.061   6.943 -2.0615  2.6472 -0.2819
  351MOL0     H47373   1.746   5.850   6.781  2.5913  0.7711  1.4753
  351MOL0     H47374   1.936   5.703   6.842  2.4823 -3.4598  2.5388
  351MOL0     H47375   2.133   5.496   6.908 -0.1257  1.5470 -0.7737
  351MOL0     H47376   2.057   5.618   6.999  1.4746  0.1766 -0.6347
  351MOL0     H47377   2.198   5.504   7.141 -0.0069 -1.2247  1.9921
  351MOL0     H47378   2.147   5.342   7.085 -0.5426 -0.8819  2.2491
  351MOL0     H47379   1.953   5.351   7.201 -1.4751  3.1256 -5.1979
  351MOL0     H47380   1.975   5.519   7.246 -2.1138 -1.5278 -2.0679
  351MOL0     H47381   2.045   5.374   7.438 -0.5965 -0.7630 -1.8220
  351MOL0     H47382   2.177   5.472   7.379  0.2727  0.1751  1.5334
  351MOL0     H47383   2.328   5.093   7.279  0.6830  0.7924  1.5237
  351MOL0     H47384   1.674   5.403   6.968 -0.0995 -0.5321 -2.8045
  351MOL0     H47385   1.478   5.553   6.946  0.4236  1.4729  0.2255
  352MOL0     O47386   9.468   0.125   6.336 -0.0755  0.0610 -0.2457
  352MOL0     C47387   9.447   0.242   6.370 -0.2012 -0.9205 -0.4255
  352MOL0     O47388   9.534   0.332   6.433  0.0369  0.0121 -0.2105
  352MOL0     C47389   9.635   0.287   6.514 -1.4207  0.5458  1.5056
  352MOL0     C47390   9.636   0.160   6.575 -0.5112 -0.4053 -1.2393
  352MOL0     C47391   9.748   0.116   6.648  0.7082 -0.1337  0.0479
  352MOL0     C47392   9.856   0.207   6.676  0.5366  0.7481  0.3976
  352MOL0     O47393   9.959   0.166   6.763  0.4125 -0.6680 -0.1642
  352MOL0     C47394  10.064   0.254   6.783 -1.1447 -1.1556  0.1575
  352MOL0     C47395  10.131   0.235   6.921  0.4874 -0.1412 -0.3457
  352MOL0     C47396  10.255   0.319   6.940 -0.2632  0.4373  0.6807
  352MOL0     C47397  10.318   0.301   7.075 -0.2875 -0.4718 -0.5351
  352MOL0     C47398  10.429   0.402   7.095  0.1637 -1.0795 -0.0927
  352MOL0     C47399  10.529   0.442   6.974  0.1519  0.8429  0.5306
  352MOL0     C47400  10.665   0.499   7.026 -0.0425  0.5906 -0.5719
  352MOL0     C47401  10.753   0.507   6.903  0.0956  0.1001  0.2406
  352MOL0     N47402  10.737   0.635   6.827  0.8949  0.8843  0.7931
  352MOL0     C47403  10.642   0.732   6.840 -0.6408 -0.5264 -0.5097
  352MOL0     C47404  10.691   0.826   6.754 -0.0071  0.5573  0.2442
  352MOL0     C47405  10.641   0.971   6.748  1.3503  0.2357 -0.5819
  352MOL0     C47406  10.496   0.992   6.791 -0.6150 -0.2831 -0.0910
  352MOL0     C47407  10.461   1.143   6.761 -0.7827  0.1282  0.6104
  352MOL0     C47408  10.313   1.179   6.786  0.8359  1.0738 -0.5365
  352MOL0     O47409  10.229   1.095   6.706  0.3240  0.1580  0.0733
  352MOL0     C47410  10.095   1.118   6.722  0.8733  0.4950  0.1206
  352MOL0     C47411  10.014   1.194   6.635  0.0296 -0.0400 -0.4999
  352MOL0     C47412   9.877   1.216   6.646  0.6325 -1.1827  0.1238
  352MOL0     C47413   9.810   1.299   6.552  0.0378 -0.8017  0.1940
  352MOL0     C47414   9.813   1.152   6.761 -0.1298  0.4031  0.0643
  352MOL0     C47415   9.668   1.155   6.803  0.0371 -0.5503  0.3923
  352MOL0     O47416   9.623   1.058   6.888  0.0804  0.4723 -0.1811
  352MOL0     C47417   9.491   1.045   6.916 -0.6114  0.7563  0.0444
  352MOL0     C47418   9.442   1.037   7.053 -0.8972 -0.1192 -0.8337
  352MOL0     C47419   9.308   1.011   7.075 -0.4564 -0.4687  0.2453
  352MOL0     C47420   9.215   1.015   6.972  0.3219 -0.2147 -0.7006
  352MOL0     O47421   9.075   0.990   6.983 -0.7270  0.0946  0.7505
  352MOL0     C47422   9.021   0.945   7.104 -0.7131  0.9922 -0.1041
  352MOL0     C47423   8.866   0.954   7.107  0.3277  0.3677  0.0185
  352MOL0     C47424   8.814   0.858   6.992  0.3606 -0.5551  0.1164
  352MOL0     C47425   8.662   0.827   7.030  0.1004  0.1006 -0.5121
  352MOL0     C47426   8.551   0.938   6.986 -0.4817 -0.1140  0.0577
  352MOL0     C47427   8.410   0.889   7.010 -0.0207  0.0746 -0.2525
  352MOL0     C47428   8.296   0.973   6.978  0.7764 -0.2573  0.1026
  352MOL0     C47429   8.221   1.024   7.107 -0.0763  0.5502 -0.5739
  352MOL0    Cl47430   8.153   0.876   7.189 -0.0799 -0.3718  0.0129
  352MOL0     C47431   9.263   1.038   6.846  0.1132  0.4351 -0.0668
  352MOL0     C47432   9.398   1.034   6.814  0.2496  0.0528 -0.6383
  352MOL0     O47433   9.600   1.242   6.751 -0.3774 -0.0057  0.4546
  352MOL0     C47434   9.892   1.061   6.838  0.5727 -1.0553  0.5742
  352MOL0     C47435  10.032   1.059   6.829  0.2883  0.3682 -1.0313
  352MOL0     N47436  10.784   0.762   6.669  0.3408  0.6836  0.7607
  352MOL0     N47437  10.804   0.641   6.712 -0.2336  0.1912 -0.8924
  352MOL0     C47438   9.859   0.326   6.604 -0.2832  0.6957  0.2711
  352MOL0     C47439   9.751   0.366   6.525  0.0341  0.2212  0.3231
  352MOL0     C47440   9.307   0.289   6.348  0.1742 -0.5763 -0.7409
  352MOL0     C47441   9.272   0.426   6.347 -0.1168  0.3401 -0.1360
  352MOL0     C47442   9.131   0.458   6.327  0.4161  0.4769  0.0285
  352MOL0     C47443   9.038   0.358   6.316 -0.1405 -0.2796  0.0639
  352MOL0     O47444   8.901   0.364   6.299 -1.0396 -0.2497  0.4373
  352MOL0     C47445   8.853   0.496   6.264 -1.2738  0.7241  0.7173
  352MOL0     C47446   8.704   0.496   6.280 -0.5807  0.0476  0.8527
  352MOL0     C47447   8.640   0.640   6.290  0.0323  0.9291  0.8070
  352MOL0     C47448   8.491   0.632   6.343  0.7468 -0.5758 -0.5020
  352MOL0     C47449   8.434   0.771   6.336  0.3307  0.0866  0.0439
  352MOL0     C47450   8.396   0.889   6.320 -0.0088  0.6382 -0.2252
  352MOL0     C47451   9.074   0.228   6.317  0.4723  0.8715 -0.3546
  352MOL0     C47452   9.202   0.192   6.332 -0.0034  0.3879 -0.0338
  352MOL0     H47453   9.544   0.102   6.569 -2.1510  2.1998 -2.9363
  352MOL0     H47454   9.754   0.016   6.691 -1.1997 -0.7950 -1.0638
  352MOL0     H47455  10.144   0.250   6.708 -0.6890  3.7820  0.0249
  352MOL0     H47456  10.036   0.359   6.772  4.3144  0.5757 -0.5078
  352MOL0     H47457  10.055   0.267   6.993  0.6011 -0.2780 -0.1624
  352MOL0     H47458  10.150   0.128   6.932 -0.5619 -0.5129 -1.9231
  352MOL0     H47459  10.318   0.311   6.851  3.0828 -0.9006  2.9733
  352MOL0     H47460  10.228   0.424   6.926  5.7399  2.0938 -1.2944
  352MOL0     H47461  10.235   0.310   7.146 -1.2339  1.1273 -1.7738
  352MOL0     H47462  10.364   0.204   7.094  1.2086  0.4675  0.8998
  352MOL0     H47463  10.393   0.501   7.126  0.6641 -1.1590  0.7816
  352MOL0     H47464  10.476   0.367   7.187 -0.0657 -1.2980 -0.0590
  352MOL0     H47465  10.546   0.355   6.909 -0.1534  1.8971 -1.0174
  352MOL0     H47466  10.470   0.506   6.909  0.4762  1.0215  0.4125
  352MOL0     H47467  10.656   0.599   7.070  3.0857  1.4335 -1.6023
  352MOL0     H47468  10.720   0.438   7.099  2.3950  1.2637 -1.7529
  352MOL0     H47469  10.731   0.420   6.840  0.1959 -0.5387  1.0630
  352MOL0     H47470  10.859   0.513   6.932  0.3220 -0.7087 -0.3740
  352MOL0     H47471  10.550   0.737   6.898 -2.7549 -1.4194 -3.5017
  352MOL0     H47472  10.699   1.029   6.820 -2.1490  1.5293  1.4406
  352MOL0     H47473  10.667   1.019   6.654  1.8711  2.1157  0.4615
  352MOL0     H47474  10.485   0.964   6.896  2.2188 -1.6887 -0.0782
  352MOL0     H47475  10.436   0.924   6.730  2.3099  0.4539 -4.2291
  352MOL0     H47476  10.478   1.169   6.656  3.2914  0.7943  1.2642
  352MOL0     H47477  10.522   1.207   6.826  1.7175 -3.3705  2.0104
  352MOL0     H47478  10.302   1.284   6.759  1.3870  0.4353 -3.7183
  352MOL0     H47479  10.277   1.168   6.888 -0.7251  0.0734 -1.1587
  352MOL0     H47480  10.069   1.232   6.549  1.0554  0.3989  0.3252
  352MOL0     H47481   9.802   1.403   6.585 -0.5024 -0.1154 -1.9613
  352MOL0     H47482   9.864   1.296   6.457  1.1465 -1.4804  0.8185
  352MOL0     H47483   9.713   1.254   6.528 -0.6481 -0.1022  1.5117
  352MOL0     H47484   9.511   1.038   7.137 -1.2448  0.3866 -0.5498
  352MOL0     H47485   9.294   0.991   7.181 -4.3554  2.1489  0.4267
  352MOL0     H47486   9.049   0.840   7.112 -2.0085  0.6973  0.7539
  352MOL0     H47487   9.070   1.002   7.184  1.1302  1.2710 -1.3821
  352MOL0     H47488   8.822   0.948   7.207 -0.6258  1.6471 -0.2969
  352MOL0     H47489   8.844   1.058   7.078  0.1206  0.5316  0.7464
  352MOL0     H47490   8.874   0.766   6.986 -0.2786 -0.9471 -0.4760
  352MOL0     H47491   8.822   0.911   6.896 -3.6814  0.0064 -0.0992
  352MOL0     H47492   8.642   0.733   6.978 -0.2733 -0.8732  1.2890
  352MOL0     H47493   8.645   0.814   7.138 -0.9717 -2.5703 -0.9292
  352MOL0     H47494   8.557   0.955   6.878 -2.9374 -2.1952 -0.4994
  352MOL0     H47495   8.577   1.033   7.034  1.5070  0.7425 -2.4746
  352MOL0     H47496   8.400   0.792   6.960 -2.3608 -0.1064  0.4516
  352MOL0     H47497   8.411   0.874   7.119  0.7597  0.0651 -0.2549
  352MOL0     H47498   8.227   0.916   6.915 -0.5479  0.5008  0.8445
  352MOL0     H47499   8.325   1.054   6.910 -3.8441 -0.5693 -2.6445
  352MOL0     H47500   8.140   1.096   7.095  1.0073  1.9835  0.3726
  352MOL0     H47501   8.296   1.071   7.171  0.4296  2.1792 -2.2870
  352MOL0     H47502   9.197   1.057   6.762  0.2584 -0.4332 -0.3809
  352MOL0     H47503   9.443   1.033   6.715 -0.3667 -0.6371 -0.9161
  352MOL0     H47504   9.851   0.994   6.912  0.2258 -2.1168 -0.5450
  352MOL0     H47505  10.102   1.005   6.892  0.1457  0.7055 -0.5721
  352MOL0     H47506   9.953   0.379   6.602  1.1326 -1.6384  0.4055
  352MOL0     H47507   9.749   0.460   6.469 -4.4223  0.1819  0.0632
  352MOL0     H47508   9.334   0.514   6.364 -2.4803  2.1863 -0.6259
  352MOL0     H47509   9.108   0.564   6.336 -0.3450  0.1164  5.4828
  352MOL0     H47510   8.899   0.576   6.322 -1.8843 -1.0062  3.8219
  352MOL0     H47511   8.889   0.522   6.164  0.4178 -1.2983  0.7293
  352MOL0     H47512   8.678   0.446   6.374 -0.7317 -1.8169 -0.1391
  352MOL0     H47513   8.654   0.440   6.201 -0.6163  1.0150  0.1840
  352MOL0     H47514   8.626   0.683   6.190  2.7087 -1.9568 -0.9830
  352MOL0     H47515   8.709   0.705   6.345  1.6370 -0.0054 -0.0553
  352MOL0     H47516   8.495   0.592   6.445  0.2738 -0.9369 -0.6243
  352MOL0     H47517   8.426   0.565   6.286  1.2237 -0.5613 -1.0731
  352MOL0     H47518   8.356   0.984   6.291 -1.0344 -0.6782 -3.5925
  352MOL0     H47519   8.999   0.149   6.316  2.3015 -1.1456 -4.6232
  352MOL0     H47520   9.213   0.084   6.329 -2.0835  0.1420 -2.6524
  353MOL0     O47521  10.904   5.052   3.125 -0.1630 -0.0055 -0.0917
  353MOL0     C47522  10.890   4.943   3.061  0.2661  0.7934 -0.1524
  353MOL0     O47523  10.990   4.851   3.041  0.7688 -0.5736  0.8519
  353MOL0     C47524  11.112   4.879   3.113 -0.6981 -0.6171 -0.0367
  353MOL0     C47525  11.110   4.890   3.249 -0.3347  0.2017  0.0087
  353MOL0     C47526  11.219   4.913   3.326 -0.6838 -0.0227  0.2449
  353MOL0     C47527  11.346   4.899   3.266  0.0859 -0.0322  0.1406
  353MOL0     O47528  11.450   4.899   3.356  0.4585 -0.5930 -0.0226
  353MOL0     C47529  11.589   4.895   3.315 -0.7938 -0.0990  0.3617
  353MOL0     C47530  11.682   4.888   3.441 -0.4251 -0.3151  0.0917
  353MOL0     C47531  11.671   4.761   3.525  0.3403 -0.9304 -0.3087
  353MOL0     C47532  11.742   4.632   3.474  0.2443 -0.6482  0.6263
  353MOL0     C47533  11.892   4.640   3.476 -0.3152 -0.2976 -0.2681
  353MOL0     C47534  11.964   4.516   3.413 -0.5430  0.8697 -0.1926
  353MOL0     C47535  11.961   4.397   3.510 -0.8307 -0.1085  0.1249
  353MOL0     C47536  12.046   4.277   3.457 -0.3894 -0.0263 -0.8158
  353MOL0     N47537  12.183   4.315   3.447 -0.5227  0.1786  0.1269
  353MOL0     C47538  12.252   4.343   3.561  0.0248 -0.1520 -0.1279
  353MOL0     C47539  12.372   4.394   3.511  0.3629  0.5254  0.0704
  353MOL0     C47540  12.465   4.472   3.598 -0.5630  0.3108  0.7769
  353MOL0     C47541  12.608   4.476   3.552 -0.2275  0.2775  0.4191
  353MOL0     C47542  12.702   4.566   3.634 -0.1768 -0.3023 -0.2595
  353MOL0     C47543  12.721   4.519   3.778  0.0525  0.0542 -1.3931
  353MOL0     O47544  12.811   4.410   3.769  0.4896 -0.2235  0.3084
  353MOL0     C47545  12.824   4.335   3.883 -0.2212 -0.5906  0.6171
  353MOL0     C47546  12.884   4.211   3.871 -0.3409  0.9542  0.3071
  353MOL0     C47547  12.882   4.111   3.964  0.9427  0.5497  0.5552
  353MOL0     C47548  12.942   3.972   3.919 -0.3763  0.3165  0.4410
  353MOL0     C47549  12.845   4.147   4.096  0.1738 -0.6360 -0.3563
  353MOL0     C47550  12.856   4.053   4.214  0.6123  0.0952 -0.2681
  353MOL0     O47551  12.963   3.965   4.214 -0.3385  0.3241 -0.9194
  353MOL0     C47552  13.013   3.904   4.331  0.4823 -0.1644  0.2313
  353MOL0     C47553  13.065   3.777   4.319  0.1799 -0.6352  0.2958
  353MOL0     C47554  13.138   3.721   4.427 -0.5660 -0.1696 -0.0097
  353MOL0     C47555  13.147   3.793   4.550  0.5397  0.0651  0.5813
  353MOL0     O47556  13.194   3.722   4.646  0.1271  0.3397  0.7227
  353MOL0     C47557  13.304   3.770   4.722 -0.4008 -0.3510 -0.2959
  353MOL0     C47558  13.265   3.806   4.867 -0.9210 -0.9112  0.7508
  353MOL0     C47559  13.366   3.902   4.927  0.5216  0.4522 -0.3739
  353MOL0     C47560  13.318   3.923   5.071 -0.0661  0.1772 -1.0071
  353MOL0     C47561  13.417   4.012   5.154  0.4783  0.6556 -0.0935
  353MOL0     C47562  13.341   4.037   5.283  0.7545  0.0408 -0.4371
  353MOL0     C47563  13.421   4.139   5.380  0.1330 -0.2723 -0.2832
  353MOL0     C47564  13.335   4.261   5.424 -1.3025 -0.1992  0.0364
  353MOL0    Cl47565  13.166   4.212   5.465  0.4522  0.0676  0.5322
  353MOL0     C47566  13.107   3.921   4.558 -0.3044 -0.0560 -0.0803
  353MOL0     C47567  13.046   3.981   4.444  0.8072  1.1088 -0.3812
  353MOL0     O47568  12.783   4.078   4.310  0.6705 -0.8691 -0.7016
  353MOL0     C47569  12.795   4.276   4.116  0.3856  0.2074 -0.1150
  353MOL0     C47570  12.773   4.366   4.013  0.3123 -0.6398  0.8182
  353MOL0     N47571  12.377   4.381   3.374 -1.1000  1.0882  0.5533
  353MOL0     N47572  12.261   4.329   3.335 -0.5665 -0.0627 -0.1607
  353MOL0     C47573  11.357   4.875   3.127 -0.6901  0.3388 -0.1005
  353MOL0     C47574  11.240   4.867   3.044  0.6254  0.0698  0.5495
  353MOL0     C47575  10.758   4.910   3.008 -0.2909  0.2771 -0.5433
  353MOL0     C47576  10.640   4.975   3.054 -0.1624  0.9767 -0.0638
  353MOL0     C47577  10.524   4.928   2.996 -0.5323 -0.3957 -0.3662
  353MOL0     C47578  10.510   4.831   2.899 -0.0943  0.3656 -0.6887
  353MOL0     O47579  10.379   4.789   2.879 -0.1708 -0.3210  0.4231
  353MOL0     C47580  10.354   4.684   2.783  0.0056 -0.0949  0.0995
  353MOL0     C47581  10.361   4.729   2.640  0.4836 -0.6473  0.4329
  353MOL0     C47582  10.286   4.857   2.624  1.1549 -0.4628  0.0659
  353MOL0     C47583  10.134   4.845   2.652 -0.5672  0.2695  0.0336
  353MOL0     C47584  10.058   4.751   2.564  0.4885  0.5503 -0.8890
  353MOL0     C47585   9.995   4.678   2.481 -0.6675 -0.7681  0.0125
  353MOL0     C47586  10.621   4.786   2.840  0.2077  0.7054  0.3361
  353MOL0     C47587  10.751   4.816   2.906 -0.0515 -0.4326  0.3766
  353MOL0     H47588  11.020   4.885   3.308  1.1039  2.8688  2.7252
  353MOL0     H47589  11.215   4.922   3.435 -1.8457 -1.1818  0.3082
  353MOL0     H47590  11.603   4.807   3.253  0.9082 -0.3256  1.0059
  353MOL0     H47591  11.613   4.983   3.255 -1.1422  0.5102  1.0923
  353MOL0     H47592  11.786   4.892   3.407 -0.6087  0.2589 -0.4318
  353MOL0     H47593  11.670   4.984   3.493  1.9582  0.4315 -0.5859
  353MOL0     H47594  11.697   4.768   3.631  1.9800 -1.9508 -0.6147
  353MOL0     H47595  11.562   4.753   3.518 -0.1517  3.5488 -1.2820
  353MOL0     H47596  11.701   4.544   3.524  1.6675 -0.0495  3.0112
  353MOL0     H47597  11.718   4.630   3.368 -0.4795  1.0359  0.7204
  353MOL0     H47598  11.928   4.724   3.416 -1.6445  1.6640  1.5380
  353MOL0     H47599  11.922   4.661   3.579 -0.0585  2.2912 -0.8089
  353MOL0     H47600  11.917   4.495   3.317  0.3627  1.3398 -0.7552
  353MOL0     H47601  12.068   4.545   3.391  0.1588 -0.1332  1.5716
  353MOL0     H47602  11.994   4.431   3.608 -2.7621  0.1671  0.7151
  353MOL0     H47603  11.858   4.361   3.521 -1.5888  2.3467  1.9363
  353MOL0     H47604  12.014   4.238   3.360  0.1832  2.2901 -1.9999
  353MOL0     H47605  12.033   4.199   3.533 -2.0479  2.3639  1.4989
  353MOL0     H47606  12.220   4.354   3.664 -2.0379  2.9107 -0.9560
  353MOL0     H47607  12.445   4.578   3.580  1.2839  0.3577 -1.6014
  353MOL0     H47608  12.455   4.444   3.703 -0.3817  1.0752  0.9984
  353MOL0     H47609  12.606   4.534   3.459  0.5217  1.9788  1.4381
  353MOL0     H47610  12.651   4.376   3.537 -2.8595 -0.5260 -3.7149
  353MOL0     H47611  12.677   4.673   3.639  0.0228 -0.3118  1.2171
  353MOL0     H47612  12.800   4.568   3.587  0.5133  0.7951  1.1694
  353MOL0     H47613  12.620   4.498   3.814  0.4485 -1.9818 -1.3686
  353MOL0     H47614  12.782   4.582   3.843 -1.3654  0.3320 -0.2691
  353MOL0     H47615  12.929   4.196   3.774 -2.0470  2.4476 -0.7883
  353MOL0     H47616  12.875   3.891   3.950  0.4455  0.6082  3.2177
  353MOL0     H47617  12.964   3.970   3.812  3.2638  1.0124  1.0513
  353MOL0     H47618  13.039   3.959   3.968 -0.5895  0.4438  0.9021
  353MOL0     H47619  13.061   3.714   4.230 -2.2519 -1.3823  0.8833
  353MOL0     H47620  13.185   3.623   4.421  3.1340  1.4585  0.0689
  353MOL0     H47621  13.378   3.689   4.729  0.2872 -0.3705 -4.9073
  353MOL0     H47622  13.356   3.853   4.675 -0.5737 -0.5301 -0.8110
  353MOL0     H47623  13.162   3.842   4.860 -0.9744 -1.4030 -2.6814
  353MOL0     H47624  13.252   3.720   4.933 -2.9215 -0.2092  1.3643
  353MOL0     H47625  13.379   3.994   4.869  1.0060  0.1006 -0.8283
  353MOL0     H47626  13.461   3.849   4.938 -0.8882 -2.2886 -0.5374
  353MOL0     H47627  13.222   3.975   5.065  0.2151  0.7180 -0.8971
  353MOL0     H47628  13.318   3.825   5.120  1.0354  0.7625  0.2520
  353MOL0     H47629  13.437   4.110   5.110 -1.0852  1.6147  1.2214
  353MOL0     H47630  13.512   3.964   5.178  0.4745  1.4174  1.6054
  353MOL0     H47631  13.253   4.090   5.245  1.0873 -0.6550 -2.2972
  353MOL0     H47632  13.320   3.945   5.337 -0.0771  0.2652 -0.3604
  353MOL0     H47633  13.505   4.187   5.329 -1.4101  1.0910 -1.6550
  353MOL0     H47634  13.447   4.089   5.474  0.1166  2.4263  1.2574
  353MOL0     H47635  13.346   4.334   5.343  0.5608 -0.3558  0.0920
  353MOL0     H47636  13.381   4.292   5.518  2.6048 -2.5343 -0.8481
  353MOL0     H47637  13.136   3.980   4.645  0.9055  0.2459 -0.6764
  353MOL0     H47638  13.012   4.083   4.460 -1.3260  0.2228  1.1888
  353MOL0     H47639  12.759   4.305   4.214  0.4880  0.6261 -0.2021
  353MOL0     H47640  12.726   4.463   4.024  0.0191 -0.8428  1.4553
  353MOL0     H47641  11.450   4.843   3.082 -1.4208  1.0655 -2.2259
  353MOL0     H47642  11.245   4.862   2.936  2.1616  1.7552  0.4780
  353MOL0     H47643  10.632   5.028   3.149 -2.6835  0.0288  0.3286
  353MOL0     H47644  10.433   4.981   3.023 -1.0257 -1.3089 -0.1853
  353MOL0     H47645  10.437   4.614   2.792  1.1375  1.1944  0.0077
  353MOL0     H47646  10.266   4.635   2.826 -0.2642  1.3112  1.2386
  353MOL0     H47647  10.318   4.652   2.574  2.5077 -1.7989  0.3774
  353MOL0     H47648  10.465   4.750   2.613  1.1850 -1.4165  2.3005
  353MOL0     H47649  10.308   4.908   2.530  1.9263 -2.3716 -0.8427
  353MOL0     H47650  10.333   4.936   2.683 -1.1703 -0.4415  2.0626
  353MOL0     H47651  10.091   4.946   2.654 -0.4614  0.3261  2.5234
  353MOL0     H47652  10.126   4.814   2.757  2.9765  0.1663  0.4041
  353MOL0     H47653   9.943   4.618   2.410  0.1363 -4.4631  2.2605
  353MOL0     H47654  10.632   4.715   2.759  2.0357  2.5300 -1.1310
  353MOL0     H47655  10.845   4.769   2.880  1.8433  2.0499  2.3133
  354MOL0     O47656  10.408   0.313   3.488 -0.1406  0.5628 -0.1798
  354MOL0     C47657  10.502   0.377   3.451 -1.1405 -0.4078 -0.5469
  354MOL0     O47658  10.632   0.352   3.494  0.7830 -0.0378  0.0449
  354MOL0     C47659  10.631   0.253   3.590  0.7272  0.4561  0.1989
  354MOL0     C47660  10.605   0.280   3.722 -1.1172  0.2644  0.7721
  354MOL0     C47661  10.605   0.169   3.815  0.2807 -0.2188  0.8690
  354MOL0     C47662  10.628   0.042   3.782  0.1998 -0.1671 -0.6628
  354MOL0     O47663  10.620  -0.058   3.876 -0.6096 -0.1590  0.1640
  354MOL0     C47664  10.491  -0.058   3.932  0.3500 -0.3845  0.4698
  354MOL0     C47665  10.436  -0.201   3.945  0.5863  1.1775  0.1595
  354MOL0     C47666  10.300  -0.228   4.011 -0.2561  1.4175 -0.1118
  354MOL0     C47667  10.304  -0.217   4.166  0.3462  0.1883 -0.1132
  354MOL0     C47668  10.175  -0.218   4.231  0.3860  0.0677 -0.3238
  354MOL0     C47669  10.066  -0.311   4.182  0.1247  0.1143  0.0299
  354MOL0     C47670   9.936  -0.298   4.272 -1.0801  0.5436  0.1191
  354MOL0     C47671   9.844  -0.419   4.253 -0.3868  0.8838 -0.3269
  354MOL0     N47672   9.729  -0.397   4.343  0.6349  0.0761  0.5018
  354MOL0     C47673   9.727  -0.458   4.463 -0.0089  0.2345 -0.2597
  354MOL0     C47674   9.598  -0.461   4.513 -0.3756 -0.9927  1.6662
  354MOL0     C47675   9.563  -0.487   4.657 -0.1852  0.7623  0.1249
  354MOL0     C47676   9.500  -0.368   4.723  0.7922  0.0322 -0.3605
  354MOL0     C47677   9.622  -0.284   4.760  0.6359 -0.4878  0.9333
  354MOL0     C47678   9.573  -0.142   4.801 -0.5221  0.0735 -0.0802
  354MOL0     O47679   9.677  -0.054   4.785 -0.4287  0.0890  0.2200
  354MOL0     C47680   9.676   0.047   4.873  0.2174  0.4685  1.0397
  354MOL0     C47681   9.558   0.095   4.929 -0.2311 -0.5688 -0.0876
  354MOL0     C47682   9.571   0.205   5.020  0.2105 -0.0095  0.1563
  354MOL0     C47683   9.442   0.251   5.079  0.2135  0.5197  0.2066
  354MOL0     C47684   9.692   0.259   5.051 -0.5492 -0.7004  0.4061
  354MOL0     C47685   9.711   0.373   5.144 -1.3542  0.1045  0.0375
  354MOL0     O47686   9.636   0.489   5.117 -0.0644 -0.5416 -0.0019
  354MOL0     C47687   9.656   0.586   5.219 -0.4016  0.4047  0.4601
  354MOL0     C47688   9.560   0.584   5.324  0.6749 -0.4057  0.0969
  354MOL0     C47689   9.576   0.693   5.418 -0.3972  0.1882  0.1866
  354MOL0     C47690   9.674   0.794   5.396 -0.5367 -0.8041  0.2566
  354MOL0     O47691   9.688   0.918   5.468  0.2424 -0.5439  0.4081
  354MOL0     C47692   9.643   0.916   5.603  0.0394 -0.0638 -1.0180
  354MOL0     C47693   9.601   1.062   5.642 -1.0958 -0.1882  0.3952
  354MOL0     C47694   9.696   1.171   5.583  1.0948  0.7969 -0.8986
  354MOL0     C47695   9.842   1.151   5.636  0.0087  0.1313  0.4189
  354MOL0     C47696   9.930   1.234   5.548  0.5472  0.6514  0.2873
  354MOL0     C47697  10.072   1.225   5.590 -1.4262  0.3925 -0.2291
  354MOL0     C47698  10.158   1.286   5.480  0.3130  1.1304  0.3711
  354MOL0     C47699  10.230   1.172   5.398  0.0761 -0.3224  0.6721
  354MOL0    Cl47700  10.111   1.057   5.342  0.1428  0.1685  0.8166
  354MOL0     C47701   9.756   0.790   5.288 -0.0971  1.0461 -0.7114
  354MOL0     C47702   9.743   0.690   5.194  0.5152 -0.3757 -0.6289
  354MOL0     O47703   9.792   0.348   5.237  0.3040 -0.8370 -0.5012
  354MOL0     C47704   9.806   0.197   5.003  0.9386 -1.2141  0.2865
  354MOL0     C47705   9.800   0.101   4.907  0.2259  1.0971  0.6981
  354MOL0     N47706   9.523  -0.396   4.410  0.0112 -0.4004 -1.0175
  354MOL0     N47707   9.596  -0.378   4.309  0.8249  0.5971  0.7086
  354MOL0     C47708  10.655   0.020   3.652  1.1300  0.5358 -0.3865
  354MOL0     C47709  10.662   0.125   3.549  0.4383  0.7122 -0.9230
  354MOL0     C47710  10.481   0.477   3.351  0.3569 -0.0928 -0.5106
  354MOL0     C47711  10.584   0.563   3.321 -0.0144 -0.1590  0.1148
  354MOL0     C47712  10.564   0.673   3.232  0.4166  0.7531 -0.6561
  354MOL0     C47713  10.431   0.695   3.179 -0.9036  0.3176 -0.9768
  354MOL0     O47714  10.422   0.817   3.119  0.4781  0.3174 -0.2950
  354MOL0     C47715  10.292   0.856   3.082 -0.2168 -0.2085  0.4031
  354MOL0     C47716  10.291   0.998   3.015  0.5775  0.5437 -0.1135
  354MOL0     C47717  10.156   1.023   2.947 -0.2493  0.2093  0.6948
  354MOL0     C47718  10.162   1.158   2.858  0.1778  0.7023 -0.9584
  354MOL0     C47719  10.236   1.142   2.737  0.0558  0.4332  0.9462
  354MOL0     C47720  10.311   1.129   2.645  0.1685 -0.9094  0.1887
  354MOL0     C47721  10.335   0.595   3.194  0.3514 -0.9825  0.2337
  354MOL0     C47722  10.359   0.490   3.277  0.2904 -0.5121 -0.6509
  354MOL0     H47723  10.590   0.381   3.760 -2.6561 -0.7593  3.0675
  354MOL0     H47724  10.591   0.190   3.921  1.2706  1.7888  0.6465
  354MOL0     H47725  10.497  -0.005   4.028 -0.0749  0.8344 -0.1590
  354MOL0     H47726  10.409  -0.003   3.886 -0.5275 -0.6595  1.6377
  354MOL0     H47727  10.429  -0.242   3.844  1.2254  2.3039 -0.3609
  354MOL0     H47728  10.520  -0.254   3.991 -0.4072  0.5658  1.3353
  354MOL0     H47729  10.236  -0.144   3.984 -1.1862  0.3969 -1.2198
  354MOL0     H47730  10.267  -0.330   3.986 -0.9127  0.9462  2.4584
  354MOL0     H47731  10.374  -0.290   4.208  0.8385  0.1916 -0.9100
  354MOL0     H47732  10.342  -0.119   4.197  0.4573  0.2378 -0.3943
  354MOL0     H47733  10.199  -0.242   4.335  1.1770  0.4260 -0.4148
  354MOL0     H47734  10.150  -0.111   4.226  6.0876  1.7091 -0.9770
  354MOL0     H47735  10.042  -0.283   4.079 -1.5316  2.4191  0.9626
  354MOL0     H47736  10.099  -0.415   4.189 -4.3928 -1.5154  1.3081
  354MOL0     H47737   9.977  -0.301   4.374 -0.6688 -0.8531 -0.0690
  354MOL0     H47738   9.888  -0.201   4.255 -0.7130  0.3938 -1.9991
  354MOL0     H47739   9.900  -0.509   4.282  0.1621  1.6002  0.9045
  354MOL0     H47740   9.796  -0.425   4.155 -1.9859  0.6223  0.4344
  354MOL0     H47741   9.818  -0.494   4.510 -0.6544 -1.1780 -0.0120
  354MOL0     H47742   9.489  -0.567   4.662  1.8081 -1.1708  0.2557
  354MOL0     H47743   9.662  -0.507   4.698 -0.3761  1.4830  0.9768
  354MOL0     H47744   9.451  -0.403   4.814  1.7992 -2.0982 -0.5939
  354MOL0     H47745   9.429  -0.324   4.651 -1.9425 -0.1087  2.0721
  354MOL0     H47746   9.683  -0.278   4.669 -1.7382 -2.2437 -0.8880
  354MOL0     H47747   9.678  -0.323   4.846  0.5251  2.5876  2.5395
  354MOL0     H47748   9.549  -0.148   4.908  1.0174  0.4794  0.3060
  354MOL0     H47749   9.483  -0.112   4.745 -1.3033  0.9273  1.5563
  354MOL0     H47750   9.465   0.047   4.901 -0.6917  0.5335 -0.4982
  354MOL0     H47751   9.404   0.335   5.020  1.2246  3.1573  3.0369
  354MOL0     H47752   9.376   0.164   5.078  0.2295  0.4896 -1.4021
  354MOL0     H47753   9.469   0.283   5.180  0.2791 -1.2980  0.8025
  354MOL0     H47754   9.467   0.530   5.336 -1.2191  2.6962  0.4836
  354MOL0     H47755   9.507   0.690   5.503 -1.6457 -0.9540 -0.8285
  354MOL0     H47756   9.553   0.853   5.610  1.8899 -2.7107  0.9194
  354MOL0     H47757   9.725   0.885   5.668  0.0958 -0.0342 -1.0740
  354MOL0     H47758   9.507   1.082   5.590 -0.9770  1.3403  0.7172
  354MOL0     H47759   9.578   1.072   5.748 -0.4364  0.9343  0.4512
  354MOL0     H47760   9.662   1.274   5.592  2.1876  1.1941 -1.2052
  354MOL0     H47761   9.681   1.150   5.477  1.9374 -4.3907 -0.2770
  354MOL0     H47762   9.852   1.188   5.739 -2.5289 -1.0507  1.1576
  354MOL0     H47763   9.873   1.047   5.629 -0.3127  0.0762 -0.2461
  354MOL0     H47764   9.886   1.335   5.547  1.0498  0.8727  0.3868
  354MOL0     H47765   9.908   1.200   5.447 -1.2498  1.2986  0.4281
  354MOL0     H47766  10.090   1.273   5.687  0.3908  1.6737 -1.1354
  354MOL0     H47767  10.096   1.118   5.597 -0.7956  0.4213 -1.6036
  354MOL0     H47768  10.234   1.349   5.528 -0.2411  1.9493  0.1878
  354MOL0     H47769  10.094   1.350   5.420 -2.1372 -1.2635  0.2566
  354MOL0     H47770  10.295   1.121   5.470  1.3062 -1.0110 -0.8699
  354MOL0     H47771  10.287   1.223   5.320  0.5349 -1.6378  0.1124
  354MOL0     H47772   9.841   0.857   5.289  1.5577 -0.9010  2.3041
  354MOL0     H47773   9.818   0.672   5.118  0.4407 -1.4205 -0.4752
  354MOL0     H47774   9.905   0.215   5.043  2.3908 -3.3017 -2.0938
  354MOL0     H47775   9.892   0.049   4.881 -0.3880 -2.0998  4.0471
  354MOL0     H47776  10.675  -0.081   3.618 -1.1457 -0.9789  2.3550
  354MOL0     H47777  10.693   0.094   3.450 -0.3418  1.1824 -1.3227
  354MOL0     H47778  10.677   0.550   3.375  0.6195 -1.0826 -1.1466
  354MOL0     H47779  10.641   0.749   3.225  0.7006  0.4007 -1.4693
  354MOL0     H47780  10.264   0.787   3.002 -2.1138  0.2348  0.6193
  354MOL0     H47781  10.222   0.864   3.166 -0.2670  2.5546  0.1782
  354MOL0     H47782  10.373   1.010   2.944 -0.0065 -0.3721 -0.9698
  354MOL0     H47783  10.298   1.074   3.093  1.2813 -0.6796  1.0732
  354MOL0     H47784  10.070   1.027   3.015  0.7882 -1.4426  2.2018
  354MOL0     H47785  10.149   0.939   2.877 -2.9909  1.2175 -0.3889
  354MOL0     H47786  10.210   1.240   2.912 -2.9989 -0.4582  4.2775
  354MOL0     H47787  10.060   1.193   2.840  0.1373  1.0017 -0.1876
  354MOL0     H47788  10.385   1.139   2.569  0.3247  2.1363  0.5971
  354MOL0     H47789  10.234   0.611   3.159 -0.6341  2.8629  3.9298
  354MOL0     H47790  10.271   0.427   3.276  1.3416 -2.1388 -3.7837
  355MOL0     O47791   4.344   5.589  10.615 -0.1489 -0.0419  0.3525
  355MOL0     C47792   4.403   5.665  10.535  0.5559  0.4986 -0.9350
  355MOL0     O47793   4.511   5.633  10.456  0.5668  0.5068  0.3409
  355MOL0     C47794   4.522   5.506  10.404  0.4337 -0.6727 -0.1715
  355MOL0     C47795   4.623   5.476  10.301  0.2817  0.2309 -1.0566
  355MOL0     C47796   4.641   5.360  10.230  0.4552  0.0615  0.5575
  355MOL0     C47797   4.556   5.255  10.258  1.0260 -0.2561  1.2134
  355MOL0     O47798   4.575   5.150  10.173  0.3767 -0.4497  0.7818
  355MOL0     C47799   4.476   5.044  10.169  0.7652 -0.7392 -0.8472
  355MOL0     C47800   4.498   4.932  10.069 -0.2642  0.3560  0.0873
  355MOL0     C47801   4.495   4.978   9.924  0.1903  0.9682  0.6298
  355MOL0     C47802   4.554   4.890   9.812 -1.3723 -0.8063  0.1224
  355MOL0     C47803   4.569   4.965   9.675 -0.3350  0.1233  0.0835
  355MOL0     C47804   4.649   4.887   9.567  0.4837 -0.3685 -0.3555
  355MOL0     C47805   4.569   4.755   9.539 -0.1539 -0.3492  0.4209
  355MOL0     C47806   4.651   4.662   9.447  0.1852 -0.3676 -0.3227
  355MOL0     N47807   4.671   4.739   9.322  0.8369  0.0321 -0.0593
  355MOL0     C47808   4.792   4.806   9.303  0.1432 -0.0878 -0.1930
  355MOL0     C47809   4.770   4.857   9.177  0.2781  0.0640 -0.3435
  355MOL0     C47810   4.870   4.929   9.089 -0.6296  1.1458 -0.1354
  355MOL0     C47811   4.848   5.071   9.102  0.9103 -0.9776  0.1040
  355MOL0     C47812   4.851   5.115   9.244 -1.0174  0.3469  0.8797
  355MOL0     C47813   4.930   5.255   9.248  0.7580 -0.0363  0.5733
  355MOL0     O47814   4.914   5.312   9.374 -0.1036 -0.3517  0.0173
  355MOL0     C47815   4.803   5.392   9.399  0.8050  0.6022 -0.1028
  355MOL0     C47816   4.684   5.421   9.328  0.9529  0.3944 -1.0989
  355MOL0     C47817   4.579   5.498   9.377  0.1726 -0.0282  0.6419
  355MOL0     C47818   4.462   5.511   9.282  0.5331  0.2265 -0.5673
  355MOL0     C47819   4.582   5.559   9.504  0.1587  0.8308 -0.5746
  355MOL0     C47820   4.476   5.639   9.577 -0.1587 -0.8501  0.1920
  355MOL0     O47821   4.358   5.654   9.513 -0.1295  0.8342  0.1543
  355MOL0     C47822   4.264   5.744   9.563 -0.1093 -0.6038  0.0838
  355MOL0     C47823   4.195   5.730   9.683 -0.1809  0.0478  0.0372
  355MOL0     C47824   4.113   5.822   9.733 -0.6305 -0.4819 -0.3529
  355MOL0     C47825   4.105   5.942   9.669  0.2025  0.4520 -0.2188
  355MOL0     O47826   4.020   6.042   9.714  0.5743  0.2866 -0.6636
  355MOL0     C47827   3.887   6.007   9.677  0.4740 -0.0843 -0.4423
  355MOL0     C47828   3.865   6.032   9.526  0.5605  0.3339 -0.0100
  355MOL0     C47829   3.856   6.184   9.484  0.4064  0.0812  0.0206
  355MOL0     C47830   3.723   6.247   9.550 -0.0306 -1.0127 -0.6925
  355MOL0     C47831   3.728   6.395   9.574  0.7577 -0.4316  0.4047
  355MOL0     C47832   3.754   6.441   9.721  0.6707  0.1768  0.0695
  355MOL0     C47833   3.903   6.408   9.760 -0.3789  0.0645  0.0495
  355MOL0     C47834   3.951   6.486   9.886 -0.5145 -0.6552 -0.9488
  355MOL0    Cl47835   4.112   6.432   9.958  0.5740  0.1027  0.1780
  355MOL0     C47836   4.173   5.965   9.551  0.9658  0.5766  0.6926
  355MOL0     C47837   4.241   5.861   9.488 -0.2776  0.1878 -0.1533
  355MOL0     O47838   4.504   5.682   9.693 -0.1899 -0.3424  0.0428
  355MOL0     C47839   4.698   5.534   9.574  0.1448 -0.7325  0.2881
  355MOL0     C47840   4.801   5.452   9.523 -0.3340  0.5426 -0.9162
  355MOL0     N47841   4.635   4.849   9.136 -0.4978  0.2439  0.7606
  355MOL0     N47842   4.578   4.765   9.226 -0.7987  0.3175  0.3340
  355MOL0     C47843   4.453   5.284  10.351  0.5412  0.3811  1.3442
  355MOL0     C47844   4.445   5.392  10.427 -0.1676 -0.3425  0.8230
  355MOL0     C47845   4.357   5.798  10.546  1.6712  0.9506 -0.3884
  355MOL0     C47846   4.419   5.889  10.456  0.0308 -0.4827 -0.8476
  355MOL0     C47847   4.376   6.021  10.454 -0.1547 -0.1990  0.1009
  355MOL0     C47848   4.267   6.066  10.535  0.1731  1.0101 -0.0067
  355MOL0     O47849   4.214   6.187  10.549  1.1951 -0.2590 -0.2961
  355MOL0     C47850   4.252   6.294  10.469 -0.4142 -0.2010 -0.6113
  355MOL0     C47851   4.150   6.400  10.496 -0.3861 -0.4599  0.1326
  355MOL0     C47852   4.192   6.515  10.407  0.7673 -0.2508 -0.3319
  355MOL0     C47853   4.070   6.610  10.385  0.7918 -0.5962  0.4582
  355MOL0     C47854   4.021   6.678  10.510 -0.1172 -0.7841 -0.0988
  355MOL0     C47855   3.988   6.734  10.609  0.3894 -0.0903  0.5492
  355MOL0     C47856   4.205   5.972  10.617  0.5983  0.2529 -0.4688
  355MOL0     C47857   4.239   5.841  10.620 -1.8281  0.7458  0.3211
  355MOL0     H47858   4.685   5.562  10.278  0.0705  0.8014  0.4205
  355MOL0     H47859   4.727   5.355  10.164  1.1127  3.4437  0.9906
  355MOL0     H47860   4.487   4.998  10.268  2.5820 -0.4765 -0.8755
  355MOL0     H47861   4.376   5.083  10.153  1.0691  0.1007 -0.7807
  355MOL0     H47862   4.586   4.874  10.098  1.0270  1.9205 -0.5989
  355MOL0     H47863   4.407   4.873  10.087  1.2897 -1.3504  3.1296
  355MOL0     H47864   4.387   4.979   9.907  0.3382  1.7594 -0.3442
  355MOL0     H47865   4.547   5.073   9.915 -0.0742  0.9722 -1.3149
  355MOL0     H47866   4.647   4.842   9.844 -0.2929 -0.3327 -2.1074
  355MOL0     H47867   4.500   4.796   9.798  1.4323 -2.8371  1.9542
  355MOL0     H47868   4.470   4.974   9.630  0.0533 -2.8192 -1.6063
  355MOL0     H47869   4.612   5.065   9.684 -0.1869 -0.0257  1.1944
  355MOL0     H47870   4.653   4.953   9.479  1.9635  1.2667  0.8723
  355MOL0     H47871   4.744   4.877   9.619 -0.1482  0.7553  1.0999
  355MOL0     H47872   4.549   4.689   9.625 -1.2490 -1.0748 -0.3615
  355MOL0     H47873   4.475   4.773   9.487 -0.6405 -0.8879  1.0818
  355MOL0     H47874   4.588   4.572   9.441 -0.3193 -0.2838  2.4731
  355MOL0     H47875   4.743   4.632   9.498  1.7541  1.0167 -2.1845
  355MOL0     H47876   4.881   4.826   9.362 -2.2947  3.0024  2.8468
  355MOL0     H47877   4.974   4.906   9.112  0.0191 -0.2992 -3.8422
  355MOL0     H47878   4.858   4.902   8.984  2.3821  0.7117 -0.4549
  355MOL0     H47879   4.753   5.105   9.059  1.9231 -3.2281 -4.5684
  355MOL0     H47880   4.924   5.118   9.039 -0.6789 -1.5154 -2.3732
  355MOL0     H47881   4.896   5.045   9.315  2.2151  1.0059 -0.3210
  355MOL0     H47882   4.746   5.137   9.264 -1.2407  0.9910 -0.7899
  355MOL0     H47883   4.904   5.314   9.159  1.9975 -0.1834  0.0935
  355MOL0     H47884   5.037   5.234   9.240  0.7038  0.3231 -2.7962
  355MOL0     H47885   4.681   5.363   9.237  2.7759  0.0241 -0.9639
  355MOL0     H47886   4.444   5.619   9.289  2.2464  0.4437  2.0559
  355MOL0     H47887   4.479   5.478   9.180 -0.5199  0.9795 -1.0009
  355MOL0     H47888   4.368   5.471   9.322 -0.8736  1.7699 -2.1888
  355MOL0     H47889   4.201   5.634   9.732  0.1184  1.5981  3.3303
  355MOL0     H47890   4.047   5.789   9.813 -1.7322 -1.2919 -1.5461
  355MOL0     H47891   3.862   5.904   9.705 -1.9058  0.6962  0.5346
  355MOL0     H47892   3.815   6.055   9.744  1.4038  0.0111  0.5214
  355MOL0     H47893   3.937   5.979   9.464  2.0503 -0.0220  1.9138
  355MOL0     H47894   3.776   5.974   9.502  1.7867 -1.5571 -0.1230
  355MOL0     H47895   3.862   6.205   9.377  1.4658 -0.0984  0.0402
  355MOL0     H47896   3.942   6.238   9.523  1.1982 -1.9994  1.3086
  355MOL0     H47897   3.639   6.219   9.486 -0.1989 -0.6273 -0.6426
  355MOL0     H47898   3.711   6.196   9.646  0.7081  0.0729 -0.0091
  355MOL0     H47899   3.628   6.423   9.541  0.2006 -3.2085 -0.5052
  355MOL0     H47900   3.802   6.445   9.510  2.9496 -2.7070  1.0041
  355MOL0     H47901   3.744   6.550   9.723  2.0682  0.3187  0.9729
  355MOL0     H47902   3.693   6.401   9.803 -0.5108 -2.1038 -1.8009
  355MOL0     H47903   3.978   6.418   9.681  1.0045  0.8725  1.4228
  355MOL0     H47904   3.887   6.301   9.776 -5.2231  0.3722 -1.2434
  355MOL0     H47905   3.874   6.480   9.963 -0.0057 -1.4006 -0.4890
  355MOL0     H47906   3.972   6.584   9.842 -2.6061 -0.2840 -1.2258
  355MOL0     H47907   4.157   6.060   9.501 -3.1281 -0.7286 -0.8936
  355MOL0     H47908   4.288   5.876   9.391 -0.3347 -0.6851 -0.3227
  355MOL0     H47909   4.723   5.589   9.664  1.0083 -1.2914  0.3932
  355MOL0     H47910   4.891   5.436   9.582  0.7555  0.4247 -2.5731
  355MOL0     H47911   4.377   5.208  10.368  0.5263  0.9631  4.2968
  355MOL0     H47912   4.375   5.387  10.509 -0.3062 -1.3083  0.6589
  355MOL0     H47913   4.500   5.860  10.390 -0.2637  1.0810 -1.9391
  355MOL0     H47914   4.439   6.076  10.386  0.3751 -2.2651 -1.1877
  355MOL0     H47915   4.344   6.325  10.519  0.5612 -2.7950 -0.6484
  355MOL0     H47916   4.273   6.264  10.365  2.4337  0.0364 -0.1959
  355MOL0     H47917   4.151   6.419  10.603  0.9208  0.6784 -0.0584
  355MOL0     H47918   4.053   6.365  10.460 -0.0491  0.2010 -1.5368
  355MOL0     H47919   4.235   6.484  10.311  2.2548 -0.5181  0.3885
  355MOL0     H47920   4.269   6.570  10.461  1.0414  1.9499 -2.7570
  355MOL0     H47921   3.982   6.563  10.339  0.2176 -0.0333  0.9554
  355MOL0     H47922   4.105   6.688  10.316  1.0924 -0.0072  1.2699
  355MOL0     H47923   3.954   6.776  10.702 -2.2280 -0.7554 -0.0423
  355MOL0     H47924   4.118   5.992  10.679  1.3623 -3.0522  1.9905
  355MOL0     H47925   4.195   5.766  10.685 -0.6410 -0.3518 -0.0783
  356MOL0     O47926  11.388   8.974   6.219  0.2985 -0.5397  0.6310
  356MOL0     C47927  11.506   8.971   6.181  0.9081  0.7697 -0.3817
  356MOL0     O47928  11.555   8.885   6.091  0.3039  0.3464  1.0043
  356MOL0     C47929  11.489   8.775   6.038 -1.1408  0.3467 -1.0666
  356MOL0     C47930  11.351   8.733   6.050 -0.2428 -0.1499 -0.1273
  356MOL0     C47931  11.313   8.607   5.991 -0.2845 -0.0555  0.6910
  356MOL0     C47932  11.397   8.533   5.912  0.6120 -1.0924  0.9904
  356MOL0     O47933  11.371   8.401   5.865 -0.3660 -0.9111 -0.9460
  356MOL0     C47934  11.252   8.338   5.911  0.7886  0.4623  0.7051
  356MOL0     C47935  11.139   8.376   5.818 -0.0534  0.2655  0.1538
  356MOL0     C47936  11.009   8.309   5.855 -0.2764 -0.2063  0.1834
  356MOL0     C47937  10.957   8.213   5.750 -0.0975 -0.2912  0.1689
  356MOL0     C47938  10.840   8.127   5.794  0.1374 -0.2341  0.1308
  356MOL0     C47939  10.795   8.044   5.679 -0.1424  0.6168 -0.2425
  356MOL0     C47940  10.665   7.958   5.709 -0.2503 -0.3925  0.1013
  356MOL0     C47941  10.604   7.915   5.575  1.1586 -0.2218  0.1997
  356MOL0     N47942  10.654   7.778   5.540 -0.0817  0.4381  0.4783
  356MOL0     C47943  10.578   7.683   5.467 -0.0717 -0.3351  0.6308
  356MOL0     C47944  10.669   7.608   5.401 -0.2964  0.0355 -0.5589
  356MOL0     C47945  10.632   7.489   5.329  0.8681  0.3928  0.6340
  356MOL0     C47946  10.738   7.388   5.320  0.0461 -0.0298  0.5418
  356MOL0     C47947  10.835   7.415   5.193  0.2065 -0.2324 -0.0648
  356MOL0     C47948  10.799   7.327   5.076 -0.2313  0.1777 -0.2208
  356MOL0     O47949  10.656   7.337   5.040 -0.5158  0.0916  1.0724
  356MOL0     C47950  10.635   7.282   4.912 -0.3021  0.3835  0.7242
  356MOL0     C47951  10.529   7.347   4.845 -0.2431  0.0515 -0.3784
  356MOL0     C47952  10.502   7.328   4.708 -0.4174 -0.4225 -0.7319
  356MOL0     C47953  10.403   7.415   4.634  0.9104 -0.3432  0.3129
  356MOL0     C47954  10.588   7.232   4.643  0.6620 -0.4441  0.0136
  356MOL0     C47955  10.597   7.214   4.493  0.0392  0.5993  0.5399
  356MOL0     O47956  10.685   7.121   4.439 -0.4448  0.0126  0.0870
  356MOL0     C47957  10.739   7.124   4.308 -0.1313  0.5853 -0.3334
  356MOL0     C47958  10.769   7.248   4.248 -0.5155 -0.1449 -0.1431
  356MOL0     C47959  10.832   7.249   4.121  0.1281  0.1604 -0.7399
  356MOL0     C47960  10.872   7.131   4.060 -0.5043 -0.7570  0.2766
  356MOL0     O47961  10.947   7.118   3.940 -0.1023  0.2873 -0.6895
  356MOL0     C47962  10.956   7.240   3.861  0.2288  0.3230 -0.7281
  356MOL0     C47963  11.033   7.216   3.735  0.1477  0.5211 -1.3212
  356MOL0     C47964  10.982   7.095   3.645  0.1129  0.2554 -0.3010
  356MOL0     C47965  11.060   7.108   3.506  0.4354 -0.1418 -0.4588
  356MOL0     C47966  11.024   6.988   3.414  0.8358 -0.0949  0.1916
  356MOL0     C47967  11.083   7.022   3.271 -0.3601 -0.1755 -0.2190
  356MOL0     C47968  11.039   6.925   3.153 -0.9116  1.0496 -0.7365
  356MOL0     C47969  11.131   6.804   3.149  0.5794  0.1782 -0.0399
  356MOL0    Cl47970  11.302   6.851   3.135 -0.0283 -0.2965 -0.1011
  356MOL0     C47971  10.841   7.011   4.122  0.1782  0.0831  0.1085
  356MOL0     C47972  10.770   7.005   4.246 -0.1715  0.2793  0.3449
  356MOL0     O47973  10.529   7.281   4.421  0.4561 -0.4766  0.5383
  356MOL0     C47974  10.691   7.177   4.708 -0.3715  0.1259  0.2895
  356MOL0     C47975  10.722   7.199   4.836  0.3300  0.1379  0.0668
  356MOL0     N47976  10.797   7.646   5.442  0.1699  0.2003 -0.5702
  356MOL0     N47977  10.783   7.745   5.520  0.9469 -1.0594 -0.2608
  356MOL0     C47978  11.529   8.577   5.898 -0.3963  0.3761  1.1193
  356MOL0     C47979  11.576   8.693   5.962  0.3937  0.5734 -0.1688
  356MOL0     C47980  11.584   9.094   6.203  0.4392  0.6817  0.5859
  356MOL0     C47981  11.711   9.115   6.138  0.1788  0.0448 -0.2054
  356MOL0     C47982  11.776   9.237   6.143  0.3494 -0.1586 -0.7750
  356MOL0     C47983  11.725   9.331   6.232 -0.1151 -0.7296 -0.2826
  356MOL0     O47984  11.794   9.449   6.241 -0.1244  0.0445 -0.7739
  356MOL0     C47985  11.941   9.474   6.211  0.5106 -0.8355  0.6667
  356MOL0     C47986  12.033   9.411   6.311  0.0727 -0.7827  0.0068
  356MOL0     C47987  11.990   9.453   6.450  0.3831  0.4233 -0.8754
  356MOL0     C47988  12.083   9.430   6.567  0.0184 -0.6431  0.1467
  356MOL0     C47989  12.201   9.502   6.539  0.7358 -0.6318 -0.4738
  356MOL0     C47990  12.311   9.555   6.526 -0.1461 -0.6804 -0.3124
  356MOL0     C47991  11.612   9.311   6.310  0.5705 -0.0113 -0.1996
  356MOL0     C47992  11.532   9.189   6.294 -0.2789 -0.1095 -0.0456
  356MOL0     H47993  11.294   8.792   6.122  2.2787  1.7852  0.4664
  356MOL0     H47994  11.208   8.581   6.002 -1.5467  4.5145  1.6508
  356MOL0     H47995  11.264   8.229   5.906  3.3362  0.7444 -1.0921
  356MOL0     H47996  11.222   8.359   6.014  1.1643 -1.9897  1.3801
  356MOL0     H47997  11.126   8.483   5.805 -3.3289  0.4941  3.5921
  356MOL0     H47998  11.180   8.331   5.727  1.0865 -3.2099  2.1669
  356MOL0     H47999  11.022   8.262   5.953  0.8445  2.2958  1.3082
  356MOL0     H48000  10.928   8.380   5.878  0.0429  0.4216 -0.6148
  356MOL0     H48001  10.928   8.283   5.672  1.2676  0.8520  0.6315
  356MOL0     H48002  11.041   8.159   5.705  0.7645  2.1275 -1.3553
  356MOL0     H48003  10.870   8.060   5.874 -0.7955 -0.2723  0.4620
  356MOL0     H48004  10.755   8.183   5.833 -0.4326  0.4192 -1.9206
  356MOL0     H48005  10.766   8.103   5.591 -0.4745 -1.1105 -1.3452
  356MOL0     H48006  10.876   7.977   5.651  1.5471  2.0699  0.9409
  356MOL0     H48007  10.680   7.875   5.778 -0.0569  0.3535  0.9749
  356MOL0     H48008  10.587   8.024   5.749 -0.6843 -1.9598  1.9821
  356MOL0     H48009  10.620   7.995   5.502 -0.4397 -0.4415 -0.4151
  356MOL0     H48010  10.497   7.904   5.595  0.6775  2.0503 -0.7829
  356MOL0     H48011  10.472   7.666   5.456 -0.2873 -0.5703  2.6820
  356MOL0     H48012  10.549   7.449   5.387  1.5339 -1.8415  0.1512
  356MOL0     H48013  10.599   7.508   5.227  1.3648  3.0175  0.8997
  356MOL0     H48014  10.694   7.289   5.305 -4.1936  1.8712 -0.9656
  356MOL0     H48015  10.792   7.399   5.415 -1.1076 -3.2446  1.6993
  356MOL0     H48016  10.939   7.398   5.222 -0.4647 -3.9257  0.7402
  356MOL0     H48017  10.826   7.519   5.160  1.0761 -0.9059 -2.6366
  356MOL0     H48018  10.815   7.224   5.109 -3.1937  0.2678  1.8597
  356MOL0     H48019  10.866   7.339   4.990  0.4177 -0.3880  0.1944
  356MOL0     H48020  10.485   7.423   4.908 -0.8548 -0.9149  0.3927
  356MOL0     H48021  10.336   7.353   4.574 -1.7826  1.9543  0.7644
  356MOL0     H48022  10.336   7.471   4.700  1.7877 -1.7077  2.4860
  356MOL0     H48023  10.459   7.490   4.577 -1.9440  1.6867 -0.0314
  356MOL0     H48024  10.741   7.341   4.298 -0.3754  0.8916 -1.8984
  356MOL0     H48025  10.869   7.348   4.097  0.3948  1.7515  4.7973
  356MOL0     H48026  10.854   7.276   3.843  0.4765  1.3525 -0.1219
  356MOL0     H48027  11.005   7.311   3.928 -2.1829 -0.3780  1.9939
  356MOL0     H48028  11.016   7.304   3.672  0.9625  2.0332  0.4455
  356MOL0     H48029  11.137   7.199   3.762 -0.1553 -3.1627 -1.9019
  356MOL0     H48030  10.874   7.089   3.627 -0.6796  0.1652  3.4819
  356MOL0     H48031  11.001   7.001   3.696 -2.5734  1.5202  3.5258
  356MOL0     H48032  11.037   7.209   3.473 -1.2927  0.2597  1.7028
  356MOL0     H48033  11.167   7.096   3.521  0.4301  1.0441  0.6753
  356MOL0     H48034  10.915   6.992   3.403  0.9350 -0.5794 -1.0988
  356MOL0     H48035  11.066   6.895   3.453  2.0419  0.7979  1.1054
  356MOL0     H48036  11.049   7.122   3.245  4.0325  1.3411 -0.8898
  356MOL0     H48037  11.192   7.031   3.272 -0.5319  2.5380  0.7247
  356MOL0     H48038  11.044   6.984   3.061 -1.8183  3.0166  0.4105
  356MOL0     H48039  10.931   6.905   3.160 -0.9085  0.4137 -2.2323
  356MOL0     H48040  11.108   6.730   3.071  3.8202 -1.3852  0.3421
  356MOL0     H48041  11.113   6.758   3.247 -1.7441  2.1220  0.5537
  356MOL0     H48042  10.865   6.917   4.074  1.2114  0.4037 -0.0304
  356MOL0     H48043  10.746   6.911   4.296 -0.6258 -1.0965 -2.2827
  356MOL0     H48044  10.756   7.110   4.651 -1.3843  1.0563 -2.1223
  356MOL0     H48045  10.817   7.156   4.866  0.2717 -1.3935 -1.7266
  356MOL0     H48046  11.601   8.511   5.851 -0.0224 -0.1746  2.4290
  356MOL0     H48047  11.680   8.723   5.956  0.5899 -0.0416  0.0826
  356MOL0     H48048  11.753   9.035   6.079  0.2625 -0.1341  0.0929
  356MOL0     H48049  11.873   9.249   6.096  0.4949 -0.9943 -0.6978
  356MOL0     H48050  11.969   9.434   6.113 -2.2382 -0.8986 -0.1630
  356MOL0     H48051  11.951   9.583   6.202  1.2157 -0.9618 -0.3687
  356MOL0     H48052  12.127   9.460   6.282 -0.2688  0.1002  0.3419
  356MOL0     H48053  12.053   9.304   6.302  2.5543 -0.3595 -0.0658
  356MOL0     H48054  11.900   9.396   6.473  2.0818 -2.2940 -0.3890
  356MOL0     H48055  11.971   9.560   6.453  1.4782  0.7212 -2.9997
  356MOL0     H48056  12.115   9.326   6.579 -0.4011 -0.5472  2.4956
  356MOL0     H48057  12.032   9.461   6.658  1.7926 -0.4824  1.1294
  356MOL0     H48058  12.409   9.597   6.525 -0.7130  0.7966  0.8216
  356MOL0     H48059  11.556   9.392   6.357  0.8371  0.1843 -0.2182
  356MOL0     H48060  11.429   9.182   6.327 -0.9913  0.2416 -2.0694
  357MOL0     O48061   0.849   2.997   5.481  0.0866 -0.9462  0.3851
  357MOL0     C48062   0.769   3.060   5.542  0.5197 -0.3978 -0.0012
  357MOL0     O48063   0.783   3.095   5.667 -0.0293  0.2027 -0.9530
  357MOL0     C48064   0.900   3.109   5.742 -0.3733  0.7365  0.3251
  357MOL0     C48065   0.899   3.184   5.863  0.4502  1.3057 -0.3008
  357MOL0     C48066   1.019   3.194   5.941  0.1585 -0.4634 -0.3771
  357MOL0     C48067   1.136   3.139   5.908 -0.0606  0.7495  0.3726
  357MOL0     O48068   1.250   3.168   5.982  0.1005  0.9867  0.5865
  357MOL0     C48069   1.370   3.103   5.951  0.0689  0.3899 -0.5736
  357MOL0     C48070   1.468   3.094   6.065  0.5711  0.6958  0.8319
  357MOL0     C48071   1.477   3.230   6.132 -0.4059  0.2658  0.5040
  357MOL0     C48072   1.418   3.210   6.275 -0.3510 -0.0510  0.1727
  357MOL0     C48073   1.398   3.344   6.346 -0.1177 -0.1771 -0.7473
  357MOL0     C48074   1.518   3.421   6.370  0.9074 -0.1355  0.2440
  357MOL0     C48075   1.495   3.553   6.462  0.8342  0.0229 -0.5689
  357MOL0     C48076   1.616   3.639   6.463  0.3374  0.7149  0.1804
  357MOL0     N48077   1.590   3.761   6.547 -0.2335  0.0076 -0.8607
  357MOL0     C48078   1.550   3.769   6.679 -0.4767 -0.3844 -0.2737
  357MOL0     C48079   1.515   3.899   6.691  0.2931 -0.3067 -0.0260
  357MOL0     C48080   1.451   3.952   6.816 -0.1684  0.4445 -0.4263
  357MOL0     C48081   1.412   4.098   6.812 -0.1755 -0.2465 -0.8663
  357MOL0     C48082   1.309   4.145   6.918  0.7158  0.8180  1.4643
  357MOL0     C48083   1.279   4.301   6.901 -0.4733  0.0881  0.3951
  357MOL0     O48084   1.229   4.340   6.767  0.2771  0.2765 -0.1703
  357MOL0     C48085   1.181   4.475   6.753  0.4690 -0.4581  0.2792
  357MOL0     C48086   1.195   4.575   6.844 -1.0611 -0.6848  0.0058
  357MOL0     C48087   1.142   4.700   6.825  0.6834  0.2621 -0.1314
  357MOL0     C48088   1.125   4.809   6.931  0.2931  0.8046 -0.3484
  357MOL0     C48089   1.080   4.718   6.699 -0.0889  0.0661 -0.1397
  357MOL0     C48090   1.044   4.855   6.641  0.4979  0.0877 -0.0604
  357MOL0     O48091   0.998   4.872   6.515  0.5225  0.5865  0.3066
  357MOL0     C48092   1.001   4.996   6.455  0.0292 -0.4516 -0.7563
  357MOL0     C48093   1.120   5.051   6.401  0.1107  0.0714 -0.1823
  357MOL0     C48094   1.125   5.178   6.337 -0.0806 -0.3166  1.0121
  357MOL0     C48095   1.001   5.244   6.337 -0.0717 -0.3387 -0.3928
  357MOL0     O48096   0.978   5.376   6.295 -0.0965  0.1823 -0.0262
  357MOL0     C48097   1.004   5.470   6.406 -0.2649 -0.9868 -0.6863
  357MOL0     C48098   0.989   5.615   6.382  0.5106 -0.3895 -0.0360
  357MOL0     C48099   0.863   5.660   6.316  0.0114  0.5423 -0.8347
  357MOL0     C48100   0.845   5.805   6.344 -1.0699 -0.5774  0.0163
  357MOL0     C48101   0.756   5.864   6.238  0.6531  0.2934 -0.6224
  357MOL0     C48102   0.656   5.970   6.283  0.4757  0.0293 -0.0393
  357MOL0     C48103   0.556   5.936   6.407 -0.5950 -0.2400 -0.3108
  357MOL0     C48104   0.420   5.999   6.377 -0.7497  0.9648 -0.1421
  357MOL0    Cl48105   0.421   6.177   6.398  0.0189  0.5174  0.3778
  357MOL0     C48106   0.887   5.185   6.395  0.1072  0.1974  0.1951
  357MOL0     C48107   0.880   5.058   6.447 -0.6345 -0.3277  0.1506
  357MOL0     O48108   1.053   4.951   6.721 -0.4517  0.4598  0.3205
  357MOL0     C48109   1.049   4.618   6.610  0.4154 -1.1031 -0.1343
  357MOL0     C48110   1.099   4.492   6.642 -0.6220  0.2013  0.9380
  357MOL0     N48111   1.536   3.970   6.577  0.0190  0.4332  0.2346
  357MOL0     N48112   1.581   3.882   6.490  0.2417 -0.2317 -0.4700
  357MOL0     C48113   1.137   3.065   5.789  0.4123  0.2211 -0.1574
  357MOL0     C48114   1.025   3.049   5.703  0.6047  0.0542 -0.1958
  357MOL0     C48115   0.641   3.089   5.477  0.5810  1.4216  0.7430
  357MOL0     C48116   0.526   3.131   5.550 -0.7870  0.3985  0.1333
  357MOL0     C48117   0.411   3.185   5.486 -0.2320 -0.5910  0.2736
  357MOL0     C48118   0.400   3.191   5.349  0.4263 -0.5405  0.1839
  357MOL0     O48119   0.284   3.243   5.295 -0.0990  0.6570  0.8433
  357MOL0     C48120   0.273   3.283   5.157  0.2934 -0.9130 -0.2425
  357MOL0     C48121   0.236   3.175   5.056  0.5348  0.6806  0.9606
  357MOL0     C48122   0.108   3.108   5.095 -0.3052  0.9075 -0.5802
  357MOL0     C48123   0.118   2.994   5.199  0.0085 -0.3082 -0.1598
  357MOL0     C48124  -0.008   2.925   5.195  1.1780  0.7495  0.2784
  357MOL0     C48125  -0.122   2.875   5.189 -0.0412  0.8727 -0.1822
  357MOL0     C48126   0.507   3.140   5.274  0.6936 -0.8161  0.0399
  357MOL0     C48127   0.626   3.090   5.332  0.7690  0.0029 -0.3242
  357MOL0     H48128   0.813   3.239   5.901 -1.6801 -1.6902 -0.4000
  357MOL0     H48129   1.027   3.250   6.034  2.0843 -3.2452  1.2762
  357MOL0     H48130   1.338   3.003   5.920  0.5914  0.9442 -3.1991
  357MOL0     H48131   1.426   3.141   5.865 -1.0923  1.2925 -0.9653
  357MOL0     H48132   1.424   3.018   6.131  0.1819 -1.7876 -2.0400
  357MOL0     H48133   1.558   3.049   6.020 -1.5612 -2.0423 -1.0290
  357MOL0     H48134   1.581   3.258   6.154  0.0840 -0.5837 -0.6707
  357MOL0     H48135   1.429   3.306   6.070  0.7616 -0.1883 -1.0234
  357MOL0     H48136   1.324   3.155   6.261 -0.6103  0.4439 -0.0637
  357MOL0     H48137   1.473   3.138   6.336 -1.6179  0.0042  1.4620
  357MOL0     H48138   1.322   3.405   6.297 -1.8289  0.6792  2.6655
  357MOL0     H48139   1.340   3.320   6.435 -0.0823 -2.3308 -1.2503
  357MOL0     H48140   1.596   3.363   6.420  0.0730 -0.8246  0.7572
  357MOL0     H48141   1.546   3.457   6.270 -0.8849 -2.2586 -1.1180
  357MOL0     H48142   1.416   3.614   6.417  1.8388  2.6205  0.9582
  357MOL0     H48143   1.470   3.518   6.563 -1.4869  1.0225 -0.7303
  357MOL0     H48144   1.636   3.658   6.357  0.9299  1.6419  0.4426
  357MOL0     H48145   1.710   3.597   6.501  0.8992  2.1443  0.4445
  357MOL0     H48146   1.543   3.686   6.748 -1.2283 -0.1463 -0.0530
  357MOL0     H48147   1.355   3.903   6.836 -1.6976  4.3720  3.1817
  357MOL0     H48148   1.515   3.929   6.901 -0.7256  0.6695  0.0592
  357MOL0     H48149   1.356   4.111   6.719 -0.0803  1.1368 -0.7485
  357MOL0     H48150   1.494   4.170   6.814  0.2724 -0.6052 -3.5202
  357MOL0     H48151   1.355   4.132   7.017 -1.5567 -2.2328  2.2640
  357MOL0     H48152   1.225   4.078   6.899  1.2909  0.0559  1.5515
  357MOL0     H48153   1.378   4.347   6.905 -0.1622 -0.1798 -2.2630
  357MOL0     H48154   1.220   4.341   6.984  2.5185  0.6631  2.4098
  357MOL0     H48155   1.256   4.557   6.933  0.0240 -1.9408 -0.9476
  357MOL0     H48156   1.022   4.843   6.940 -0.5794 -1.7982  0.3447
  357MOL0     H48157   1.164   4.777   7.028  0.5873  1.1354 -0.3540
  357MOL0     H48158   1.183   4.896   6.898  0.1009  1.4470  0.9374
  357MOL0     H48159   1.209   4.989   6.413  0.2684  0.5965  1.6867
  357MOL0     H48160   1.206   5.224   6.282 -2.4409  6.3182  2.0819
  357MOL0     H48161   0.939   5.449   6.491 -0.9449 -0.8092 -1.1518
  357MOL0     H48162   1.106   5.453   6.439 -0.6126 -0.9556  0.4461
  357MOL0     H48163   0.995   5.668   6.477 -3.0693  2.3820 -1.1089
  357MOL0     H48164   1.060   5.643   6.304 -4.3132  0.3453 -4.7716
  357MOL0     H48165   0.777   5.608   6.359 -0.5949  0.7675 -1.7480
  357MOL0     H48166   0.868   5.649   6.207  2.5989  0.2077 -0.7619
  357MOL0     H48167   0.795   5.794   6.441 -3.1029 -3.3766 -1.2135
  357MOL0     H48168   0.940   5.859   6.350 -1.3088 -0.3172  2.5256
  357MOL0     H48169   0.692   5.787   6.194 -2.5373  0.4227  3.2268
  357MOL0     H48170   0.821   5.911   6.163  0.6656  4.3080  1.6226
  357MOL0     H48171   0.711   6.061   6.309  2.2513 -0.8019 -0.7273
  357MOL0     H48172   0.592   6.000   6.200  0.2037  2.1496  0.8775
  357MOL0     H48173   0.596   5.977   6.500 -2.7041  0.2203  0.4517
  357MOL0     H48174   0.531   5.832   6.431 -3.6351  0.9393  2.4240
  357MOL0     H48175   0.335   5.965   6.437 -2.8676  2.0466 -2.3631
  357MOL0     H48176   0.384   5.980   6.276 -0.3171  0.6541 -0.2404
  357MOL0     H48177   0.801   5.252   6.393 -1.3668 -1.4964  2.0824
  357MOL0     H48178   0.786   5.010   6.473 -0.6038 -0.0017  0.8800
  357MOL0     H48179   0.992   4.645   6.521  0.7591 -0.9591 -0.3157
  357MOL0     H48180   1.078   4.421   6.563 -1.0599 -0.1226  1.3395
  357MOL0     H48181   1.230   3.030   5.745  1.4572  2.0978  0.4357
  357MOL0     H48182   1.038   2.992   5.611 -0.7247 -0.3032 -0.1808
  357MOL0     H48183   0.546   3.137   5.656 -1.9835  0.3877  0.3753
  357MOL0     H48184   0.332   3.243   5.533 -0.6510 -1.1015  0.2057
  357MOL0     H48185   0.199   3.363   5.147  1.0853 -0.3638 -2.0613
  357MOL0     H48186   0.368   3.326   5.123 -1.1866  0.8524 -2.4361
  357MOL0     H48187   0.309   3.093   5.051 -5.4429 -5.4455 -1.7556
  357MOL0     H48188   0.219   3.221   4.959 -0.7529  4.6573  2.8465
  357MOL0     H48189   0.064   3.061   5.007 -1.2888 -1.2972  0.9852
  357MOL0     H48190   0.025   3.173   5.125 -0.3301  0.9825 -0.8102
  357MOL0     H48191   0.131   3.036   5.300  3.1748 -0.7285 -0.2701
  357MOL0     H48192   0.205   2.931   5.179 -0.2984 -0.2182 -1.9004
  357MOL0     H48193  -0.225   2.850   5.195 -0.0506  0.7953 -0.6812
  357MOL0     H48194   0.488   3.135   5.167 -0.8437 -1.9208  0.3351
  357MOL0     H48195   0.712   3.075   5.267 -0.3174 -0.0321 -1.7909
  358MOL0     O48196   6.226   5.722   7.077  0.3977  0.7058  0.0852
  358MOL0     C48197   6.127   5.747   7.016  0.2561  0.4567  0.0946
  358MOL0     O48198   6.092   5.863   6.954 -0.4957  0.1069 -0.0829
  358MOL0     C48199   6.171   5.972   6.962 -0.6245  0.0378 -0.3755
  358MOL0     C48200   6.306   5.968   6.955  0.2215 -0.7358  0.9715
  358MOL0     C48201   6.382   6.092   6.950  0.1940  1.1597 -0.2897
  358MOL0     C48202   6.314   6.214   6.963 -0.6856  0.0282  0.4362
  358MOL0     O48203   6.388   6.329   6.978 -0.4107  0.5519  0.0741
  358MOL0     C48204   6.343   6.428   6.880  0.3296  0.4774  0.1441
  358MOL0     C48205   6.454   6.454   6.778  0.2655  0.0734 -0.0133
  358MOL0     C48206   6.554   6.563   6.813 -0.0657 -0.4725 -1.4340
  358MOL0     C48207   6.482   6.694   6.844 -0.6972 -0.1590 -0.1139
  358MOL0     C48208   6.558   6.830   6.844  0.6894 -0.9560  0.0666
  358MOL0     C48209   6.616   6.867   6.704 -1.3544  0.3812  0.3484
  358MOL0     C48210   6.694   6.997   6.704 -0.4110 -0.2141  0.0332
  358MOL0     C48211   6.749   7.038   6.560 -1.3387  0.3385 -0.7128
  358MOL0     N48212   6.647   7.065   6.456 -0.3768  0.1788 -1.4049
  358MOL0     C48213   6.594   6.977   6.358  0.2917  0.0202 -0.1185
  358MOL0     C48214   6.499   7.055   6.298  0.2029 -0.1334  0.4494
  358MOL0     C48215   6.425   7.020   6.179 -0.1608 -0.1804 -0.1953
  358MOL0     C48216   6.479   7.085   6.053 -0.4356 -1.3441  0.7676
  358MOL0     C48217   6.460   7.235   6.050  0.0470  0.9700  0.6422
  358MOL0     C48218   6.433   7.305   5.915  0.0105  0.4386 -0.8500
  358MOL0     O48219   6.547   7.285   5.834 -0.0062  0.3816 -0.0576
  358MOL0     C48220   6.608   7.400   5.771 -0.1901 -0.6418  0.9686
  358MOL0     C48221   6.749   7.399   5.762  0.3943 -0.9483 -0.4745
  358MOL0     C48222   6.815   7.520   5.719  0.2454  0.2904  0.2641
  358MOL0     C48223   6.964   7.515   5.729  0.6714  0.4222  1.2254
  358MOL0     C48224   6.751   7.628   5.665 -0.0192  0.0197  0.3772
  358MOL0     C48225   6.803   7.752   5.585 -0.4948  0.8822 -0.0900
  358MOL0     O48226   6.714   7.862   5.570  0.0827  0.2067 -0.0338
  358MOL0     C48227   6.764   7.968   5.496  0.8818  0.3835 -0.3054
  358MOL0     C48228   6.850   8.069   5.547  0.2730  0.2910  0.0997
  358MOL0     C48229   6.891   8.178   5.467  0.1346  0.7941  0.7378
  358MOL0     C48230   6.851   8.183   5.335  0.3221 -0.3636  0.6969
  358MOL0     O48231   6.904   8.282   5.250 -0.0911  0.1221 -0.2224
  358MOL0     C48232   6.831   8.314   5.136 -0.3743 -0.9418 -0.3047
  358MOL0     C48233   6.924   8.411   5.072 -0.0013 -0.0665 -0.2911
  358MOL0     C48234   6.913   8.546   5.152 -0.2649 -0.2336 -0.4591
  358MOL0     C48235   6.810   8.648   5.100  0.8039 -0.1889 -0.5469
  358MOL0     C48236   6.801   8.764   5.193 -0.3598  0.0550  0.6993
  358MOL0     C48237   6.823   8.899   5.130  0.2300  0.2214  0.0908
  358MOL0     C48238   6.967   8.929   5.101  0.2302 -0.5759 -0.1547
  358MOL0     C48239   6.996   9.069   5.052 -0.6133 -0.2297  0.2742
  358MOL0    Cl48240   7.170   9.105   5.022 -0.2163 -0.1812 -0.0381
  358MOL0     C48241   6.772   8.081   5.287 -0.7226 -0.4334  0.1466
  358MOL0     C48242   6.728   7.977   5.366  0.6162  0.0770 -0.4771
  358MOL0     O48243   6.919   7.738   5.549 -1.0253  0.2372 -0.7187
  358MOL0     C48244   6.610   7.626   5.671 -0.4156 -0.3936  1.1383
  358MOL0     C48245   6.549   7.511   5.716 -0.3396  0.2070  0.4119
  358MOL0     N48246   6.485   7.174   6.363  0.1326  0.1305 -0.8891
  358MOL0     N48247   6.583   7.181   6.449 -0.2306 -0.3994 -0.4955
  358MOL0     C48248   6.173   6.215   6.960  0.0143 -0.0852 -0.1371
  358MOL0     C48249   6.104   6.099   6.962 -0.4337  0.7989 -0.3672
  358MOL0     C48250   6.021   5.640   6.997 -0.0853  0.2716  0.0934
  358MOL0     C48251   6.063   5.509   7.008 -1.0408  0.5723 -0.5333
  358MOL0     C48252   5.971   5.401   6.985 -0.3178 -0.5417  0.4003
  358MOL0     C48253   5.840   5.423   6.960  0.0505  0.1603 -0.4534
  358MOL0     O48254   5.752   5.312   6.946  0.3881 -0.7362 -1.1048
  358MOL0     C48255   5.782   5.167   6.969  0.2950 -0.3552 -0.5077
  358MOL0     C48256   5.753   5.118   7.115  0.1999 -0.1961 -0.2353
  358MOL0     C48257   5.619   5.159   7.163  1.5745 -0.1591 -0.2751
  358MOL0     C48258   5.579   5.071   7.285  0.4807 -0.8098  1.0085
  358MOL0     C48259   5.462   5.138   7.354  0.5578  0.5375  0.3310
  358MOL0     C48260   5.367   5.199   7.394 -0.7348 -0.5552  0.2376
  358MOL0     C48261   5.802   5.552   6.933  0.5309 -1.3306 -0.4999
  358MOL0     C48262   5.890   5.658   6.953 -0.9314 -0.3181  0.4198
  358MOL0     H48263   6.368   5.881   6.939  1.6916  0.1934  1.4390
  358MOL0     H48264   6.488   6.098   6.932  0.1641  1.1079 -0.4777
  358MOL0     H48265   6.264   6.391   6.814  0.8211  1.2329 -0.9052
  358MOL0     H48266   6.302   6.524   6.914 -1.4635 -0.0013 -0.5650
  358MOL0     H48267   6.510   6.364   6.753 -0.7353 -0.0845 -1.8478
  358MOL0     H48268   6.412   6.473   6.678  2.6951 -0.6523 -1.2515
  358MOL0     H48269   6.623   6.538   6.894 -0.0640  1.7638 -0.6525
  358MOL0     H48270   6.623   6.579   6.729 -1.1226  2.7961 -1.8435
  358MOL0     H48271   6.398   6.702   6.774  1.6812 -1.3153 -3.3282
  358MOL0     H48272   6.435   6.672   6.941  0.0948 -1.4799 -0.0021
  358MOL0     H48273   6.491   6.915   6.861 -1.0534 -1.6865 -2.5229
  358MOL0     H48274   6.648   6.819   6.905 -0.3708 -2.8715  1.3531
  358MOL0     H48275   6.680   6.792   6.656 -1.8903 -1.6424  2.6282
  358MOL0     H48276   6.528   6.879   6.641 -1.9748  0.8706  1.2940
  358MOL0     H48277   6.635   7.083   6.736 -1.1709 -1.6284  2.7503
  358MOL0     H48278   6.767   6.983   6.785 -1.7955 -0.2861  1.3079
  358MOL0     H48279   6.804   6.966   6.500 -1.4549  0.6879 -1.2455
  358MOL0     H48280   6.805   7.131   6.573 -0.8529  0.0375 -0.6471
  358MOL0     H48281   6.621   6.875   6.332 -0.9728 -0.5959  0.8868
  358MOL0     H48282   6.430   6.911   6.178  1.9300 -0.1835  2.1046
  358MOL0     H48283   6.322   7.056   6.188 -0.1093 -0.0846  0.0044
  358MOL0     H48284   6.412   7.047   5.975 -0.6575  0.6373 -0.0687
  358MOL0     H48285   6.584   7.058   6.042  0.2995  0.9867  1.4106
  358MOL0     H48286   6.548   7.276   6.101 -0.1765 -0.2206  2.0499
  358MOL0     H48287   6.385   7.255   6.127  0.4032  1.7107  0.7997
  358MOL0     H48288   6.415   7.412   5.926  3.2694  0.8087  4.2697
  358MOL0     H48289   6.345   7.253   5.876  0.8182 -2.9243  1.3578
  358MOL0     H48290   6.799   7.309   5.794 -0.2684 -2.1785 -2.6755
  358MOL0     H48291   7.012   7.520   5.631 -1.8247  0.9363 -0.0597
  358MOL0     H48292   6.992   7.612   5.772  2.4616  1.4699 -2.0402
  358MOL0     H48293   6.994   7.432   5.794 -2.7691 -3.4600 -1.6145
  358MOL0     H48294   6.891   8.059   5.647 -0.0056 -2.4048  0.0286
  358MOL0     H48295   6.950   8.261   5.506  3.1901  0.3644 -2.4452
  358MOL0     H48296   6.811   8.233   5.065  1.4376 -1.3178 -0.4225
  358MOL0     H48297   6.744   8.368   5.175 -1.5130 -0.9363 -2.7123
  358MOL0     H48298   7.031   8.390   5.063  0.2058  0.9737 -0.3717
  358MOL0     H48299   6.883   8.414   4.971 -0.8624 -2.7285 -0.1001
  358MOL0     H48300   7.014   8.587   5.155 -0.7595  0.9484  1.0660
  358MOL0     H48301   6.877   8.523   5.252  2.1590 -4.1391 -0.2440
  358MOL0     H48302   6.845   8.671   4.999  0.6552 -2.2500 -1.1244
  358MOL0     H48303   6.718   8.595   5.072  2.3425 -1.2320 -4.2977
  358MOL0     H48304   6.869   8.745   5.277  2.3787 -1.8395 -1.7173
  358MOL0     H48305   6.702   8.761   5.240 -0.2945  1.4601  0.9683
  358MOL0     H48306   6.777   8.920   5.033  0.3578 -0.0888 -0.0366
  358MOL0     H48307   6.802   8.988   5.190 -1.7698  0.2993 -0.6672
  358MOL0     H48308   7.004   8.852   5.032  1.2747  0.3677 -0.6791
  358MOL0     H48309   7.027   8.926   5.192 -0.1297 -0.4213  0.0864
  358MOL0     H48310   6.976   9.144   5.129  3.2412 -1.6665  2.9947
  358MOL0     H48311   6.942   9.089   4.960 -1.1479 -0.1913  0.5916
  358MOL0     H48312   6.747   8.075   5.182  2.7865 -1.5436 -0.7454
  358MOL0     H48313   6.671   7.895   5.325  2.8753 -2.1245  0.5152
  358MOL0     H48314   6.551   7.710   5.634  0.7194 -1.1396 -2.8477
  358MOL0     H48315   6.440   7.509   5.722 -0.3002  0.4390  1.4517
  358MOL0     H48316   6.126   6.312   6.975  0.0995 -0.2055  1.0389
  358MOL0     H48317   5.997   6.093   6.949 -0.2200  0.5905 -2.3363
  358MOL0     H48318   6.169   5.486   7.012 -1.2163 -0.4167 -1.0761
  358MOL0     H48319   6.010   5.300   6.989  0.6234 -0.2950 -1.3233
  358MOL0     H48320   5.719   5.113   6.899 -0.8656  2.4568 -1.8118
  358MOL0     H48321   5.887   5.152   6.942  0.4685  1.3003 -0.8596
  358MOL0     H48322   5.825   5.166   7.181 -1.9529  0.0793  2.0621
  358MOL0     H48323   5.759   5.009   7.113  3.0432 -0.1975  1.9075
  358MOL0     H48324   5.534   5.158   7.094  0.0043 -2.6517  1.5259
  358MOL0     H48325   5.630   5.262   7.198  3.3405 -1.1748  2.4735
  358MOL0     H48326   5.656   5.056   7.360  1.7010  1.6671  0.3625
  358MOL0     H48327   5.560   4.970   7.247 -2.3250  0.4188 -1.2706
  358MOL0     H48328   5.278   5.253   7.419 -1.0620 -1.2205  0.5317
  358MOL0     H48329   5.706   5.556   6.881  0.3469 -1.4783 -0.1768
  358MOL0     H48330   5.847   5.758   6.946 -1.6828 -0.5321  1.7342
  359MOL0     O48331   6.741   5.944  10.391 -0.9314  0.2265  0.0647
  359MOL0     C48332   6.733   6.021  10.298  0.2579 -0.0860 -0.8345
  359MOL0     O48333   6.835   6.101  10.255 -0.1748  0.0952  0.1033
  359MOL0     C48334   6.930   6.125  10.347 -0.1468  0.3042  0.4916
  359MOL0     C48335   6.912   6.221  10.437  0.6520  0.9711  0.3793
  359MOL0     C48336   7.002   6.240  10.539 -0.0686 -0.2545  0.4520
  359MOL0     C48337   7.117   6.171  10.550  0.1064 -0.2607  0.7314
  359MOL0     O48338   7.210   6.212  10.647 -0.4065 -0.3778 -0.1544
  359MOL0     C48339   7.353   6.181  10.635  0.3266 -0.5982  0.2457
  359MOL0     C48340   7.405   6.086  10.744 -0.0136  0.6087  0.1412
  359MOL0     C48341   7.443   6.156  10.876 -1.2071 -0.7925 -0.8308
  359MOL0     C48342   7.585   6.233  10.872 -0.7199 -0.1912 -0.3081
  359MOL0     C48343   7.600   6.299  11.018 -0.7324  0.0526  0.0992
  359MOL0     C48344   7.739   6.367  11.035  0.9257 -0.8105 -0.1516
  359MOL0     C48345   7.724   6.474  11.145  0.3762  0.7512 -0.2537
  359MOL0     C48346   7.858   6.539  11.190  0.9096 -1.4389 -0.5855
  359MOL0     N48347   7.918   6.614  11.085 -0.7703  0.3544  0.8128
  359MOL0     C48348   7.841   6.664  10.978 -0.0450 -0.0224 -0.1527
  359MOL0     C48349   7.919   6.658  10.870 -0.8072 -0.1332 -0.3443
  359MOL0     C48350   7.892   6.710  10.728  0.3089 -0.1809 -0.0893
  359MOL0     C48351   7.805   6.605  10.647 -0.4497 -0.0047 -0.9305
  359MOL0     C48352   7.654   6.586  10.694  0.8143 -0.3674 -0.8067
  359MOL0     C48353   7.560   6.520  10.590  0.7698  0.3606 -0.0986
  359MOL0     O48354   7.615   6.399  10.528 -0.1159  0.6088  0.6181
  359MOL0     C48355   7.533   6.366  10.419 -0.3743 -0.3147 -0.4987
  359MOL0     C48356   7.415   6.433  10.376 -0.4231  0.5969 -0.2062
  359MOL0     C48357   7.344   6.378  10.273  0.4098  0.3919 -0.4304
  359MOL0     C48358   7.230   6.464  10.213  0.2922  0.3468  1.3456
  359MOL0     C48359   7.379   6.255  10.211 -0.8653 -0.0771 -0.6784
  359MOL0     C48360   7.315   6.187  10.094  0.3035  0.7473  1.0558
  359MOL0     O48361   7.189   6.230  10.061  0.1609  0.7210 -0.1447
  359MOL0     C48362   7.107   6.189   9.956 -0.0755 -0.1148 -0.5472
  359MOL0     C48363   6.985   6.250   9.950 -0.2691 -1.4857 -0.2788
  359MOL0     C48364   6.878   6.223   9.866  0.3464 -0.0346  0.4636
  359MOL0     C48365   6.907   6.125   9.762 -0.1275 -0.2942 -0.0452
  359MOL0     O48366   6.805   6.095   9.674 -0.6581 -0.0755  0.4829
  359MOL0     C48367   6.808   5.964   9.622 -0.4759 -0.4061 -0.4845
  359MOL0     C48368   6.703   5.944   9.518 -0.1814 -0.7131 -0.0757
  359MOL0     C48369   6.731   6.040   9.393  0.2302 -0.5133  0.3869
  359MOL0     C48370   6.657   6.007   9.268 -0.3051 -0.5814  0.1969
  359MOL0     C48371   6.700   6.067   9.133 -0.3182 -0.4783  0.6875
  359MOL0     C48372   6.590   6.027   9.041  0.2709  0.5381  0.3725
  359MOL0     C48373   6.630   6.080   8.901  0.0619 -0.3462 -0.3315
  359MOL0     C48374   6.532   6.080   8.785  0.5938 -0.4221 -0.1476
  359MOL0    Cl48375   6.474   5.912   8.775 -0.1742  0.2768 -0.2132
  359MOL0     C48376   7.033   6.066   9.761  0.5292  0.3497 -0.7981
  359MOL0     C48377   7.131   6.088   9.857  1.3688  0.0179 -0.3786
  359MOL0     O48378   7.372   6.089  10.036  0.2414  0.2102  0.4631
  359MOL0     C48379   7.505   6.195  10.245 -0.0868  0.0249 -0.0973
  359MOL0     C48380   7.570   6.252  10.352 -0.3937  0.2402  0.0649
  359MOL0     N48381   8.052   6.614  10.916 -0.0717  0.1269  0.5988
  359MOL0     N48382   8.048   6.584  11.043  0.0784  0.7261 -0.2154
  359MOL0     C48383   7.144   6.074  10.455 -0.4302  0.5922 -0.1867
  359MOL0     C48384   7.054   6.046  10.355 -0.4030 -0.3990 -0.9216
  359MOL0     C48385   6.603   6.022  10.226  0.0532  0.0974 -0.3283
  359MOL0     C48386   6.594   6.101  10.111  0.5771  0.8340 -0.2495
  359MOL0     C48387   6.481   6.127  10.041 -0.2895 -0.2496 -0.0358
  359MOL0     C48388   6.360   6.079  10.079 -0.0746  0.4411 -0.1613
  359MOL0     O48389   6.245   6.100  10.000  0.0076  0.2368 -0.4374
  359MOL0     C48390   6.129   6.018  10.026 -0.0372 -0.4413 -0.6462
  359MOL0     C48391   6.022   6.068   9.916  1.5711 -0.5902 -0.3719
  359MOL0     C48392   5.889   5.988   9.932  0.0152  0.4729 -0.0997
  359MOL0     C48393   5.822   5.967  10.066 -0.7041 -0.4570 -0.3070
  359MOL0     C48394   5.687   5.919  10.059  0.4623 -0.1733  0.9478
  359MOL0     C48395   5.575   5.893  10.047  0.0980  0.2123  0.8695
  359MOL0     C48396   6.358   5.986  10.195 -0.4069 -0.6068 -0.2602
  359MOL0     C48397   6.477   5.966  10.273 -0.2369  0.1675  0.0330
  359MOL0     H48398   6.827   6.288  10.428 -1.1371 -1.1921  0.3808
  359MOL0     H48399   6.967   6.306  10.618  0.7935  1.8102 -0.8188
  359MOL0     H48400   7.376   6.140  10.536  0.0397  1.7997 -0.8793
  359MOL0     H48401   7.407   6.276  10.641  1.1927 -1.0285 -0.3978
  359MOL0     H48402   7.334   6.009  10.773  0.4352  0.2932  0.4192
  359MOL0     H48403   7.494   6.034  10.705  0.0765  1.9892 -1.6308
  359MOL0     H48404   7.355   6.211  10.911 -1.5552 -2.0786  0.4101
  359MOL0     H48405   7.462   6.075  10.947  0.5329 -0.0110 -0.3610
  359MOL0     H48406   7.663   6.159  10.854 -1.0576 -0.9163  1.0910
  359MOL0     H48407   7.587   6.305  10.790  1.1013 -0.3696 -0.4525
  359MOL0     H48408   7.521   6.372  11.038 -1.3275 -0.7293  0.6109
  359MOL0     H48409   7.600   6.224  11.097 -2.3151  1.2726  1.3114
  359MOL0     H48410   7.804   6.289  11.074  2.3483  0.2940 -0.2495
  359MOL0     H48411   7.769   6.420  10.944 -4.0555 -0.4476 -1.9411
  359MOL0     H48412   7.648   6.545  11.112 -0.3182  0.4631  0.7052
  359MOL0     H48413   7.685   6.426  11.235  0.7382  0.1663 -0.3976
  359MOL0     H48414   7.930   6.468  11.231  2.0430 -0.3250 -0.6180
  359MOL0     H48415   7.841   6.605  11.275  0.9699 -0.5215 -1.2683
  359MOL0     H48416   7.737   6.693  10.974 -0.7697 -2.3392  0.0682
  359MOL0     H48417   7.830   6.800  10.729  0.1060 -0.2686 -1.7153
  359MOL0     H48418   7.987   6.745  10.686 -1.1074 -0.1180 -3.5543
  359MOL0     H48419   7.862   6.512  10.641  3.1781  1.8465  1.1723
  359MOL0     H48420   7.806   6.654  10.549  1.5989  0.5332 -0.6866
  359MOL0     H48421   7.613   6.683  10.726  4.1882  1.1062 -0.5120
  359MOL0     H48422   7.653   6.529  10.788 -0.4768  0.3034 -0.3862
  359MOL0     H48423   7.546   6.598  10.515  1.7629  1.5004  0.8449
  359MOL0     H48424   7.463   6.495  10.634  1.6454  0.6370  2.1401
  359MOL0     H48425   7.392   6.531  10.418  3.7304  1.4519  0.5375
  359MOL0     H48426   7.142   6.400  10.226 -0.0813 -0.0286 -2.0219
  359MOL0     H48427   7.219   6.563  10.257 -1.1822  0.8628 -0.0730
  359MOL0     H48428   7.244   6.476  10.105 -1.2197 -2.2665  0.7622
  359MOL0     H48429   6.970   6.324  10.028 -0.9174 -3.0582  1.1530
  359MOL0     H48430   6.781   6.270   9.868 -1.5202 -3.4866 -0.2961
  359MOL0     H48431   6.901   5.944   9.566  1.4238  1.0808  1.9308
  359MOL0     H48432   6.788   5.892   9.702  0.3745 -1.9384 -1.5950
  359MOL0     H48433   6.692   5.840   9.488 -2.5479 -0.4543 -0.3181
  359MOL0     H48434   6.606   5.963   9.565 -0.1786 -1.4306  0.2270
  359MOL0     H48435   6.838   6.036   9.370 -0.0185 -0.7017 -0.7552
  359MOL0     H48436   6.697   6.138   9.426 -1.0807 -0.6863 -0.3824
  359MOL0     H48437   6.668   5.900   9.248 -1.7687 -0.4880 -1.2829
  359MOL0     H48438   6.553   6.036   9.286 -0.7293 -0.7897 -1.7555
  359MOL0     H48439   6.791   6.013   9.106 -1.0406 -2.3124  1.7196
  359MOL0     H48440   6.701   6.176   9.142  0.9173 -0.4215  0.0153
  359MOL0     H48441   6.584   5.919   9.028  0.0709  0.2564  2.4950
  359MOL0     H48442   6.492   6.052   9.082 -1.1057 -2.6259 -0.6451
  359MOL0     H48443   6.714   6.030   8.851 -0.6909 -1.5161 -0.4764
  359MOL0     H48444   6.656   6.184   8.919 -0.5932 -0.1697 -0.3852
  359MOL0     H48445   6.594   6.103   8.699  1.0496  1.7302  0.6925
  359MOL0     H48446   6.451   6.152   8.800 -1.2211 -1.6962 -2.9367
  359MOL0     H48447   7.059   5.989   9.690  3.4187 -1.0835  1.6192
  359MOL0     H48448   7.225   6.035   9.854  1.0800 -0.4672 -1.4524
  359MOL0     H48449   7.529   6.099  10.202 -1.7839  0.5801 -2.4786
  359MOL0     H48450   7.651   6.193  10.394 -1.9516 -1.2471  1.0835
  359MOL0     H48451   7.235   6.016  10.464 -0.8917  0.1617  5.5469
  359MOL0     H48452   7.087   5.972  10.283 -1.0877 -1.3198 -0.3172
  359MOL0     H48453   6.688   6.137  10.070  1.2806  1.3704  1.7322
  359MOL0     H48454   6.490   6.178   9.946  3.5238 -2.2499 -0.9204
  359MOL0     H48455   6.150   5.912  10.009 -1.2833 -0.9812  0.9451
  359MOL0     H48456   6.096   6.041  10.128  0.8099  0.6576 -0.6026
  359MOL0     H48457   6.062   6.065   9.814  2.0032  1.2330 -0.2825
  359MOL0     H48458   5.992   6.172   9.931  0.3917 -0.5186 -2.7044
  359MOL0     H48459   5.894   5.887   9.889  0.6616  0.9439 -1.1912
  359MOL0     H48460   5.823   6.038   9.861 -0.5271 -4.0779 -3.2338
  359MOL0     H48461   5.831   6.057  10.129  1.8859 -2.0873  1.9035
  359MOL0     H48462   5.887   5.893  10.114 -2.4823 -1.4397  0.6971
  359MOL0     H48463   5.472   5.872  10.022 -0.4966  1.7864  1.8379
  359MOL0     H48464   6.265   5.935  10.214 -1.9023  1.9668 -0.1411
  359MOL0     H48465   6.479   5.894  10.354 -1.7627 -0.1263 -0.1569
  360MOL0     O48466   2.485   9.795   1.664 -0.5504  1.2860 -0.3735
  360MOL0     C48467   2.419   9.757   1.575 -0.8420 -0.1682 -0.2167
  360MOL0     O48468   2.381   9.625   1.562 -0.5753 -0.2952  0.1239
  360MOL0     C48469   2.450   9.520   1.621 -0.0267 -0.3270 -0.4318
  360MOL0     C48470   2.377   9.398   1.641 -0.3981 -0.2882 -0.0770
  360MOL0     C48471   2.438   9.278   1.684 -0.4046 -0.3637 -0.6802
  360MOL0     C48472   2.577   9.283   1.715 -0.4030  0.3913  0.0976
  360MOL0     O48473   2.642   9.167   1.744  0.5486 -0.1334 -0.2511
  360MOL0     C48474   2.762   9.160   1.810 -0.5939 -0.2183 -0.1006
  360MOL0     C48475   2.802   9.012   1.822 -0.1189  0.0256 -1.0377
  360MOL0     C48476   2.926   8.978   1.908  0.1777 -0.4944  0.0097
  360MOL0     C48477   3.047   9.070   1.882 -0.1236  0.0484 -0.7216
  360MOL0     C48478   3.173   9.022   1.955  0.7080 -0.4835 -0.3526
  360MOL0     C48479   3.149   8.980   2.110  0.9442  0.4232 -0.9467
  360MOL0     C48480   3.104   9.105   2.189 -0.0023 -0.0406  0.9628
  360MOL0     C48481   3.114   9.114   2.340  0.0728  0.7744 -1.3857
  360MOL0     N48482   3.082   9.255   2.385  0.0188  0.2959  0.6577
  360MOL0     C48483   2.966   9.332   2.377  0.4518  0.9448  0.7081
  360MOL0     C48484   3.009   9.459   2.390  0.6631  0.0916 -0.1111
  360MOL0     C48485   2.905   9.574   2.381  0.0887 -0.3609 -0.2675
  360MOL0     C48486   2.909   9.650   2.247  0.2448 -0.2068 -0.8816
  360MOL0     C48487   2.796   9.756   2.228 -0.4254 -0.1737 -0.0822
  360MOL0     C48488   2.800   9.797   2.080  0.4323  0.4374 -0.6199
  360MOL0     O48489   2.932   9.851   2.037 -0.4006  0.4728 -0.9414
  360MOL0     C48490   2.958   9.852   1.904  0.0275  0.1585  0.1145
  360MOL0     C48491   3.085   9.895   1.867  0.2903 -0.7102 -0.4235
  360MOL0     C48492   3.126   9.890   1.732 -0.5071  0.2269  0.6024
  360MOL0     C48493   3.262   9.956   1.712  0.6098  0.6370  0.2624
  360MOL0     C48494   3.036   9.844   1.632 -0.0361 -1.0146  0.7806
  360MOL0     C48495   3.079   9.857   1.494 -1.0825 -0.5593  0.1013
  360MOL0     O48496   3.088   9.988   1.451 -0.1317  0.3609 -0.3702
  360MOL0     C48497   3.186  10.015   1.362 -0.0942 -0.5587  0.3667
  360MOL0     C48498   3.191  10.145   1.308 -0.0518  1.4358 -0.3843
  360MOL0     C48499   3.292  10.201   1.234  0.0321  1.1122 -1.2503
  360MOL0     C48500   3.397  10.118   1.197  0.5736 -0.0090  0.5800
  360MOL0     O48501   3.497  10.158   1.120 -0.8592 -0.0629  0.0055
  360MOL0     C48502   3.603  10.175   1.208 -0.6157 -0.3233  0.2554
  360MOL0     C48503   3.677  10.305   1.167  0.4783  0.1306  0.2065
  360MOL0     C48504   3.724  10.301   1.016  0.6700  0.3163  0.0686
  360MOL0     C48505   3.681  10.433   0.945 -0.0942  0.7681 -1.0202
  360MOL0     C48506   3.751  10.455   0.809  0.4362  1.1806  0.9277
  360MOL0     C48507   3.876  10.546   0.837  0.0690  0.4781  0.1676
  360MOL0     C48508   3.981  10.542   0.721  0.6059  0.5871 -0.0908
  360MOL0     C48509   4.036  10.406   0.687 -1.1476  0.6133  0.2803
  360MOL0    Cl48510   4.106  10.333   0.828 -0.7769  0.3417 -0.2019
  360MOL0     C48511   3.392   9.986   1.239 -0.2818 -0.3043 -0.0323
  360MOL0     C48512   3.293   9.934   1.319  0.5037 -0.6490 -0.7364
  360MOL0     O48513   3.092   9.750   1.427  0.1826 -0.2472  0.2102
  360MOL0     C48514   2.910   9.802   1.664 -0.0335  0.1594  0.9290
  360MOL0     C48515   2.872   9.805   1.800  0.6159 -0.4153 -0.0081
  360MOL0     N48516   3.142   9.464   2.412 -1.3213  0.0740 -0.0431
  360MOL0     N48517   3.188   9.341   2.415  0.6541  0.3163 -0.1480
  360MOL0     C48518   2.650   9.402   1.708  0.1706  0.0535 -0.1080
  360MOL0     C48519   2.583   9.517   1.657 -0.3824 -0.1476  0.3356
  360MOL0     C48520   2.362   9.866   1.484 -0.1221 -0.1964  0.0707
  360MOL0     C48521   2.314   9.812   1.362  1.3421 -0.1155 -0.7519
  360MOL0     C48522   2.282   9.891   1.254  0.0238 -0.2085  0.3979
  360MOL0     C48523   2.300  10.028   1.267  0.5961  0.5689 -0.1100
  360MOL0     O48524   2.262  10.106   1.155 -0.2251 -0.2298 -0.7074
  360MOL0     C48525   2.246  10.244   1.151 -0.0915 -0.6020 -0.2107
  360MOL0     C48526   2.379  10.304   1.090 -0.0339  0.1781 -0.3142
  360MOL0     C48527   2.397  10.276   0.933  0.2313 -1.1723  0.8887
  360MOL0     C48528   2.531  10.221   0.895 -0.4607 -0.1422 -0.6524
  360MOL0     C48529   2.631  10.324   0.939 -0.5524 -0.1742  1.6292
  360MOL0     C48530   2.721  10.401   0.968 -0.9910  1.0976 -0.1524
  360MOL0     C48531   2.342  10.088   1.383  0.6490  0.6695 -0.7355
  360MOL0     C48532   2.359  10.005   1.505 -0.5781  0.4681  0.7930
  360MOL0     H48533   2.270   9.409   1.623  0.0530  0.4847 -2.8293
  360MOL0     H48534   2.384   9.184   1.685  0.4255 -0.8361 -0.3254
  360MOL0     H48535   2.834   9.208   1.743 -0.1277  0.6336  0.9803
  360MOL0     H48536   2.777   9.213   1.905  2.1444 -0.2318 -0.4489
  360MOL0     H48537   2.722   8.958   1.874  2.5637 -1.4451  1.9236
  360MOL0     H48538   2.814   8.961   1.726 -0.4343 -1.3440 -0.3775
  360MOL0     H48539   2.896   8.968   2.013  0.4511 -2.6814 -0.0752
  360MOL0     H48540   2.961   8.876   1.886  1.7448  0.6131 -3.3162
  360MOL0     H48541   3.070   9.078   1.776  0.9995 -5.0088 -1.0927
  360MOL0     H48542   3.034   9.173   1.918  1.9225 -0.5444  2.0427
  360MOL0     H48543   3.213   8.930   1.912 -1.6820 -1.3791 -0.8551
  360MOL0     H48544   3.250   9.098   1.937  0.5179 -0.9738 -4.0594
  360MOL0     H48545   3.076   8.899   2.120  1.8806 -0.1162  3.7025
  360MOL0     H48546   3.248   8.949   2.145  1.8662 -1.0460 -4.4241
  360MOL0     H48547   3.153   9.192   2.144 -1.1762  1.2324  2.0695
  360MOL0     H48548   2.997   9.112   2.166 -0.4354 -1.6887  2.3176
  360MOL0     H48549   3.220   9.095   2.361 -0.8888 -0.8225  3.1839
  360MOL0     H48550   3.052   9.048   2.402  0.7087  1.9751  0.6243
  360MOL0     H48551   2.867   9.300   2.345 -0.0157  0.3500  2.6378
  360MOL0     H48552   2.804   9.540   2.408  0.1789  1.6399  3.1630
  360MOL0     H48553   2.919   9.650   2.459 -1.6470  1.1696 -1.3586
  360MOL0     H48554   2.924   9.587   2.159 -2.6198  1.1963 -2.5147
  360MOL0     H48555   3.007   9.699   2.254  0.9929 -1.0123 -4.0263
  360MOL0     H48556   2.820   9.836   2.299  2.2802 -1.9616  1.1667
  360MOL0     H48557   2.696   9.716   2.250 -1.0247  1.9663  1.5308
  360MOL0     H48558   2.725   9.874   2.059 -0.5612 -0.1787  0.5592
  360MOL0     H48559   2.762   9.714   2.020  2.9188 -0.6026 -0.8721
  360MOL0     H48560   3.160   9.934   1.935  1.0397  1.8532 -2.5437
  360MOL0     H48561   3.268  10.027   1.629 -0.3426 -0.1568 -0.4999
  360MOL0     H48562   3.301  10.001   1.804 -0.0045 -0.4654  1.0906
  360MOL0     H48563   3.327   9.871   1.690 -1.5693 -0.4317 -2.6118
  360MOL0     H48564   3.113  10.217   1.330  1.2840  3.5565 -2.1805
  360MOL0     H48565   3.286  10.307   1.210  0.9400  2.5163  3.5313
  360MOL0     H48566   3.575  10.210   1.308  1.2514  1.6833  0.1407
  360MOL0     H48567   3.674  10.093   1.214 -0.6099 -0.3551 -0.2146
  360MOL0     H48568   3.602  10.385   1.171 -0.3206 -0.5589 -0.5415
  360MOL0     H48569   3.754  10.319   1.243  1.4159 -0.6414 -0.5819
  360MOL0     H48570   3.678  10.218   0.963  2.1573 -0.5642  0.0979
  360MOL0     H48571   3.833  10.294   1.009  0.7285  0.4280  0.7768
  360MOL0     H48572   3.573  10.425   0.929 -0.5782 -0.3514  2.1290
  360MOL0     H48573   3.692  10.517   1.014 -1.3866  0.0821  0.0807
  360MOL0     H48574   3.677  10.491   0.736 -0.5397 -1.2242  0.6317
  360MOL0     H48575   3.801  10.368   0.765  1.0538  1.8957  0.1873
  360MOL0     H48576   3.840  10.649   0.838 -1.8769 -0.1525 -0.5116
  360MOL0     H48577   3.919  10.521   0.935 -1.7999 -0.9475  0.6830
  360MOL0     H48578   4.058  10.617   0.740  1.5895 -0.9479  2.5706
  360MOL0     H48579   3.942  10.582   0.628  0.8923 -3.6306 -2.2501
  360MOL0     H48580   4.106  10.426   0.605 -0.1597  0.5392  1.0882
  360MOL0     H48581   3.964  10.336   0.643  1.2153 -0.6790 -1.7967
  360MOL0     H48582   3.476   9.928   1.203  1.3318  2.0775 -0.3696
  360MOL0     H48583   3.298   9.836   1.366  0.4309 -0.1809  0.2646
  360MOL0     H48584   2.852   9.761   1.582 -2.0921  1.8446  1.4551
  360MOL0     H48585   2.766   9.785   1.800 -0.0940  2.8324  0.8585
  360MOL0     H48586   2.757   9.409   1.727  0.6306  0.2290 -2.4029
  360MOL0     H48587   2.645   9.605   1.670 -0.1961 -0.5633  2.8121
  360MOL0     H48588   2.315   9.705   1.344 -1.5668 -1.3772  4.4814
  360MOL0     H48589   2.250   9.844   1.161  2.1326 -1.5178  0.2724
  360MOL0     H48590   2.152  10.268   1.100  0.5626  0.7770 -0.8306
  360MOL0     H48591   2.234  10.287   1.251 -1.6977  0.3463 -0.7729
  360MOL0     H48592   2.473  10.277   1.139 -0.2154 -0.2021 -0.1690
  360MOL0     H48593   2.374  10.411   1.111  1.5072  0.0567  0.8568
  360MOL0     H48594   2.385  10.366   0.872 -0.3711 -1.8885 -0.0861
  360MOL0     H48595   2.323  10.207   0.892 -0.7336 -0.6663  1.7301
  360MOL0     H48596   2.545  10.199   0.789 -1.8851 -0.5389 -0.7700
  360MOL0     H48597   2.551  10.123   0.940 -3.7168 -0.1560  1.0867
  360MOL0     H48598   2.800  10.470   0.990  0.6536 -1.1991  1.8175
  360MOL0     H48599   2.357  10.195   1.386 -2.2645  1.1757 -1.4423
  360MOL0     H48600   2.408  10.046   1.594  0.4560  0.1941  0.3660
  361MOL0     O48601   3.981   6.189   4.163 -0.4216  0.2934  0.0164
  361MOL0     C48602   3.994   6.161   4.045  0.0316  2.1998 -1.1382
  361MOL0     O48603   4.066   6.054   3.996 -0.2925 -0.3715 -0.5091
  361MOL0     C48604   4.105   5.954   4.083 -0.5055  0.6374  0.6561
  361MOL0     C48605   4.218   5.891   4.046  0.9920 -1.2911  0.8271
  361MOL0     C48606   4.262   5.790   4.126  0.6073  0.2859  0.4770
  361MOL0     C48607   4.193   5.747   4.241  0.2378  1.0450 -0.5473
  361MOL0     O48608   4.249   5.652   4.322  0.5834  0.0565 -0.4573
  361MOL0     C48609   4.293   5.699   4.450  0.0302 -0.0917 -0.0225
  361MOL0     C48610   4.419   5.611   4.494  0.8959 -0.6310  0.6102
  361MOL0     C48611   4.533   5.626   4.391  0.5733  0.3270 -1.9603
  361MOL0     C48612   4.671   5.588   4.448 -0.5414  0.9596  0.2413
  361MOL0     C48613   4.765   5.571   4.332 -0.8205  0.5454  0.3099
  361MOL0     C48614   4.898   5.517   4.385 -0.4501  0.9904 -0.0600
  361MOL0     C48615   5.007   5.541   4.279 -0.0416  0.6004 -0.0992
  361MOL0     C48616   5.141   5.556   4.343 -0.3427  0.9622  0.1656
  361MOL0     N48617   5.232   5.630   4.253  0.7091  0.0327 -0.1933
  361MOL0     C48618   5.296   5.583   4.145 -0.6398 -0.3234  0.7286
  361MOL0     C48619   5.350   5.697   4.089 -0.3488  0.1540 -0.2320
  361MOL0     C48620   5.398   5.712   3.950 -0.3014 -0.0313 -0.0977
  361MOL0     C48621   5.305   5.646   3.845 -1.5878  0.2149  0.1806
  361MOL0     C48622   5.206   5.737   3.773 -0.4333  0.5216 -1.4260
  361MOL0     C48623   5.108   5.807   3.861  0.2866 -0.1625 -1.0162
  361MOL0     O48624   5.010   5.718   3.899 -0.3013  0.8400 -0.4466
  361MOL0     C48625   4.888   5.707   3.834 -0.1154 -0.8934 -0.5641
  361MOL0     C48626   4.783   5.638   3.909  0.6508 -0.7467  0.4576
  361MOL0     C48627   4.652   5.630   3.851 -0.3927 -0.9310 -0.6236
  361MOL0     C48628   4.549   5.563   3.934 -0.2410  0.5217 -0.1550
  361MOL0     C48629   4.621   5.696   3.725 -0.1178 -0.2452 -0.2537
  361MOL0     C48630   4.489   5.703   3.657  0.9422 -0.6495  0.6010
  361MOL0     O48631   4.469   5.822   3.596  0.6419  0.7274  0.6013
  361MOL0     C48632   4.338   5.870   3.561  0.0012 -0.4110  0.3343
  361MOL0     C48633   4.231   5.874   3.642 -0.2237  1.4749 -0.9529
  361MOL0     C48634   4.106   5.926   3.605 -0.4002 -0.2215 -0.3375
  361MOL0     C48635   4.086   5.981   3.482 -1.0803 -0.4836  0.3544
  361MOL0     O48636   3.964   6.025   3.442  0.4489  0.1376  0.9440
  361MOL0     C48637   3.929   6.105   3.324  0.3775  0.9649 -0.0872
  361MOL0     C48638   3.786   6.141   3.358  0.8200 -0.9812  0.6025
  361MOL0     C48639   3.698   6.011   3.338  0.2672  0.0365 -1.0288
  361MOL0     C48640   3.548   6.037   3.377  1.1507  0.6219 -0.3734
  361MOL0     C48641   3.456   6.048   3.266  0.1923  0.6910 -0.6571
  361MOL0     C48642   3.481   6.177   3.191  0.1153  0.5434 -0.4729
  361MOL0     C48643   3.582   6.162   3.078  0.8869 -0.4759 -0.5986
  361MOL0     C48644   3.592   6.287   2.995  0.9025  0.1670 -0.1740
  361MOL0    Cl48645   3.668   6.421   3.077 -0.1379 -0.5581  0.3928
  361MOL0     C48646   4.195   5.981   3.392  0.1642  0.1070  0.4118
  361MOL0     C48647   4.318   5.924   3.433 -0.7380  0.8101 -0.0691
  361MOL0     O48648   4.408   5.608   3.659 -0.0257  0.0603  0.3278
  361MOL0     C48649   4.726   5.767   3.663 -0.7744 -0.2772  0.1295
  361MOL0     C48650   4.855   5.768   3.715  0.4032  1.1977 -1.0123
  361MOL0     N48651   5.333   5.808   4.175  0.4607 -0.9908  0.3619
  361MOL0     N48652   5.257   5.761   4.266  0.5271  0.7989 -0.5848
  361MOL0     C48653   4.075   5.814   4.269 -0.4569  0.7192 -0.4605
  361MOL0     C48654   4.024   5.910   4.190  1.2700  0.2472 -0.7250
  361MOL0     C48655   3.950   6.265   3.957  0.6216  0.4162  0.9716
  361MOL0     C48656   3.838   6.341   3.998  0.0074 -0.6281  0.3034
  361MOL0     C48657   3.786   6.433   3.912  0.2608 -0.3541  0.6859
  361MOL0     C48658   3.833   6.449   3.782 -0.7242  0.3389  0.4669
  361MOL0     O48659   3.801   6.557   3.704 -0.1973 -0.5076 -0.1221
  361MOL0     C48660   3.677   6.624   3.733  0.3966  0.6294 -0.4194
  361MOL0     C48661   3.601   6.661   3.605 -0.8669  0.6714  0.6964
  361MOL0     C48662   3.565   6.544   3.506 -0.0876  0.5132  0.1105
  361MOL0     C48663   3.485   6.592   3.391 -0.0266 -0.1185  0.0048
  361MOL0     C48664   3.556   6.704   3.313  0.8071 -0.0556 -0.2051
  361MOL0     C48665   3.614   6.796   3.258 -1.1390  0.0479 -0.5597
  361MOL0     C48666   3.948   6.371   3.738  0.0495 -0.5779  0.0120
  361MOL0     C48667   4.010   6.282   3.831 -0.5018  0.3915  0.9887
  361MOL0     H48668   4.286   5.944   3.980 -1.0259  1.4373  0.7787
  361MOL0     H48669   4.357   5.742   4.107  1.5241  1.8292  0.9600
  361MOL0     H48670   4.319   5.805   4.457  3.3850 -0.5189 -3.0115
  361MOL0     H48671   4.209   5.692   4.520  0.8964 -0.5457  1.0178
  361MOL0     H48672   4.451   5.634   4.596  1.1244  0.6954  0.2603
  361MOL0     H48673   4.389   5.506   4.494 -1.3725 -0.0754  2.5226
  361MOL0     H48674   4.504   5.575   4.299  2.6311  1.5355 -3.3666
  361MOL0     H48675   4.539   5.730   4.360  1.0817  2.3180  3.6080
  361MOL0     H48676   4.709   5.669   4.510 -0.2034  0.4602  0.6926
  361MOL0     H48677   4.648   5.490   4.491 -4.0442  1.6902  0.3670
  361MOL0     H48678   4.728   5.493   4.265  1.1945 -2.4549  2.4216
  361MOL0     H48679   4.784   5.658   4.268  1.8911  0.2439  0.5913
  361MOL0     H48680   4.915   5.571   4.478 -1.6168 -1.1136  1.4587
  361MOL0     H48681   4.891   5.410   4.405 -0.9662  1.0328  0.0113
  361MOL0     H48682   5.015   5.450   4.219  0.4697  0.0278  0.8174
  361MOL0     H48683   4.985   5.630   4.219 -0.7823  1.0774  0.8528
  361MOL0     H48684   5.184   5.457   4.360  0.7505  1.1154 -1.4581
  361MOL0     H48685   5.138   5.616   4.435  1.8010  0.4289  0.6408
  361MOL0     H48686   5.276   5.483   4.108 -0.0649 -1.5912  3.5828
  361MOL0     H48687   5.393   5.819   3.930  0.3992  0.3873  1.7046
  361MOL0     H48688   5.502   5.684   3.936 -0.1475  1.4356 -2.2028
  361MOL0     H48689   5.254   5.558   3.884  2.1099 -1.5874  1.3927
  361MOL0     H48690   5.368   5.608   3.764  0.7237  0.4620  1.7709
  361MOL0     H48691   5.146   5.685   3.698 -3.2908 -1.6183  1.9988
  361MOL0     H48692   5.257   5.815   3.716  0.8517  0.5133 -0.3521
  361MOL0     H48693   5.055   5.889   3.812 -1.3323  0.0558  0.9705
  361MOL0     H48694   5.158   5.848   3.949  1.2105 -1.7471 -0.7537
  361MOL0     H48695   4.818   5.601   4.005  2.5397  1.2469  0.6048
  361MOL0     H48696   4.468   5.631   3.962 -0.7123  0.9550 -2.3580
  361MOL0     H48697   4.499   5.490   3.870 -0.9392  0.0106  0.9420
  361MOL0     H48698   4.597   5.532   4.027  2.7559  1.3347 -1.2955
  361MOL0     H48699   4.250   5.827   3.738 -0.6243  1.4717 -0.8722
  361MOL0     H48700   4.025   5.916   3.677  0.9614 -0.9982  1.1514
  361MOL0     H48701   3.988   6.197   3.329  1.1051  0.4848  5.1362
  361MOL0     H48702   3.947   6.052   3.230 -2.1241 -0.8639  0.3539
  361MOL0     H48703   3.774   6.161   3.464  1.1224  0.1766  0.4263
  361MOL0     H48704   3.757   6.226   3.296 -0.8065 -1.9955 -0.0936
  361MOL0     H48705   3.733   5.940   3.413 -0.4882 -0.7737 -1.4344
  361MOL0     H48706   3.707   5.970   3.237 -1.1491 -1.0546 -0.7378
  361MOL0     H48707   3.518   5.961   3.450 -0.7107 -2.1202 -3.7052
  361MOL0     H48708   3.554   6.125   3.441 -2.5968  0.7915 -0.0878
  361MOL0     H48709   3.361   6.058   3.319  2.7670 -0.5354  4.9511
  361MOL0     H48710   3.466   5.951   3.216 -0.7707  0.8982 -1.2863
  361MOL0     H48711   3.384   6.187   3.141 -1.4556 -0.4081  2.1358
  361MOL0     H48712   3.486   6.266   3.253  0.9569 -0.4426  0.9396
  361MOL0     H48713   3.560   6.076   3.015  1.7013 -2.7302  2.0064
  361MOL0     H48714   3.679   6.128   3.115  0.1811 -0.0472  1.8598
  361MOL0     H48715   3.493   6.326   2.967  1.1383  1.5129  0.7396
  361MOL0     H48716   3.639   6.260   2.900 -0.8741 -3.8552 -0.1145
  361MOL0     H48717   4.182   6.013   3.289  1.2979  0.6076  0.4086
  361MOL0     H48718   4.399   5.905   3.364 -1.4635 -2.0801 -0.2681
  361MOL0     H48719   4.705   5.816   3.568 -0.2467 -1.7584 -0.7731
  361MOL0     H48720   4.934   5.818   3.660  0.3851  3.7208  1.0549
  361MOL0     H48721   4.023   5.785   4.360 -3.4510 -3.3964 -3.1840
  361MOL0     H48722   3.925   5.953   4.201  0.9950 -0.5076 -0.1892
  361MOL0     H48723   3.811   6.316   4.100  0.3211 -2.2120  0.0181
  361MOL0     H48724   3.714   6.500   3.958  1.2133  0.4516  1.0406
  361MOL0     H48725   3.615   6.573   3.807  2.0192  0.2283  0.7199
  361MOL0     H48726   3.698   6.725   3.768  1.6633 -0.2482  1.5529
  361MOL0     H48727   3.658   6.733   3.545 -1.4532  0.3700 -0.2413
  361MOL0     H48728   3.511   6.718   3.625 -1.0861  0.4742  0.2822
  361MOL0     H48729   3.503   6.471   3.559  2.1127 -0.2758  1.7183
  361MOL0     H48730   3.656   6.494   3.470  1.6039  3.9636 -0.8432
  361MOL0     H48731   3.386   6.615   3.431 -0.5283 -1.7981 -0.1610
  361MOL0     H48732   3.468   6.508   3.323 -1.2837 -0.3652  0.5797
  361MOL0     H48733   3.669   6.874   3.209 -2.3259  1.3856  0.1493
  361MOL0     H48734   3.976   6.382   3.634  1.2290  1.2432  0.4829
  361MOL0     H48735   4.096   6.221   3.808 -0.3629  0.7365  0.5730
  362MOL0     O48736   9.390   4.134   2.147 -0.9173  0.1184 -0.7395
  362MOL0     C48737   9.289   4.130   2.080  0.6319 -0.4124 -0.0489
  362MOL0     O48738   9.262   4.032   1.995 -0.8881 -0.4296 -0.5163
  362MOL0     C48739   9.350   3.944   1.946  0.9198  0.2988  0.3478
  362MOL0     C48740   9.490   3.973   1.925  0.3822  0.3440  0.7933
  362MOL0     C48741   9.570   3.870   1.863  0.8558  0.2425 -0.9234
  362MOL0     C48742   9.516   3.757   1.815 -0.2953  0.7236  0.9066
  362MOL0     O48743   9.603   3.671   1.756 -0.9440  0.2092  0.1580
  362MOL0     C48744   9.571   3.526   1.749 -0.0411  0.3481 -0.0865
  362MOL0     C48745   9.537   3.462   1.880 -0.9466 -0.1860 -1.0220
  362MOL0     C48746   9.668   3.443   1.968 -0.1871 -0.3021  0.3668
  362MOL0     C48747   9.635   3.386   2.106  0.1489  0.2754  0.7821
  362MOL0     C48748   9.601   3.236   2.097  0.2583  0.2685  0.2535
  362MOL0     C48749   9.722   3.149   2.138 -0.1730 -0.2925  0.2985
  362MOL0     C48750   9.721   3.009   2.089 -0.1670 -0.2342  0.4078
  362MOL0     C48751   9.860   2.952   2.120 -0.1175 -0.3256 -0.4299
  362MOL0     N48752   9.887   2.931   2.267  0.1715 -0.6778 -0.3421
  362MOL0     C48753   9.998   2.987   2.334  0.2116  0.1072  0.3222
  362MOL0     C48754   9.987   2.935   2.464  0.3216 -0.5702 -0.0496
  362MOL0     C48755  10.081   2.935   2.578  0.2329  0.3616  0.6316
  362MOL0     C48756  10.211   2.860   2.529 -0.2305 -0.0301 -1.9564
  362MOL0     C48757  10.310   2.808   2.633 -0.2397  0.5455  0.1977
  362MOL0     C48758  10.388   2.925   2.697 -0.0836  0.1806 -0.1459
  362MOL0     O48759  10.322   2.956   2.816 -0.4055  0.0837 -0.4272
  362MOL0     C48760  10.364   3.060   2.898  0.7059  0.2756  0.5964
  362MOL0     C48761  10.297   3.077   3.017 -0.8984 -0.7414  0.2473
  362MOL0     C48762  10.312   3.192   3.088  0.1314 -0.1773 -0.8042
  362MOL0     C48763  10.224   3.202   3.212  0.0221  1.2001 -0.2719
  362MOL0     C48764  10.420   3.285   3.054  0.7895  0.7617  0.5595
  362MOL0     C48765  10.454   3.406   3.130 -0.4650  0.2256 -0.3711
  362MOL0     O48766  10.499   3.506   3.055 -1.2273 -0.4842  0.0176
  362MOL0     C48767  10.553   3.616   3.113 -0.3640 -0.1342  0.1296
  362MOL0     C48768  10.633   3.621   3.233 -0.2289  0.9906 -0.3389
  362MOL0     C48769  10.697   3.735   3.283  0.2019 -0.2510  0.8345
  362MOL0     C48770  10.685   3.852   3.202 -0.1894  0.6165 -0.4722
  362MOL0     O48771  10.754   3.965   3.242  0.3624 -0.4366 -0.0674
  362MOL0     C48772  10.893   3.955   3.237 -0.8729  0.0819 -0.1994
  362MOL0     C48773  10.943   3.987   3.374 -1.2208  0.0499 -0.2166
  362MOL0     C48774  11.099   4.015   3.372  0.4170 -0.5824 -1.4925
  362MOL0     C48775  11.154   4.042   3.520  0.3717  0.4364 -1.0665
  362MOL0     C48776  11.299   4.095   3.509 -0.2254 -0.3228 -0.3006
  362MOL0     C48777  11.404   3.978   3.465  0.8282 -0.4349 -1.3266
  362MOL0     C48778  11.544   4.025   3.492 -0.1881  0.4042 -1.2807
  362MOL0     C48779  11.650   3.933   3.434 -0.3048 -0.5784  0.4191
  362MOL0    Cl48780  11.801   4.022   3.413  0.2947 -0.5114 -0.4229
  362MOL0     C48781  10.604   3.849   3.091 -0.7779 -0.4523 -0.1704
  362MOL0     C48782  10.552   3.734   3.034 -0.5826  0.9083 -0.5115
  362MOL0     O48783  10.414   3.414   3.242  0.2310 -0.3169  0.0791
  362MOL0     C48784  10.493   3.255   2.931  1.1175 -0.3164 -0.6439
  362MOL0     C48785  10.457   3.152   2.849 -0.0989  0.1965 -0.3515
  362MOL0     N48786   9.879   2.857   2.463  0.5030 -0.2196 -0.3749
  362MOL0     N48787   9.829   2.840   2.345  0.7639 -1.2580 -0.7892
  362MOL0     C48788   9.376   3.739   1.836 -0.1868 -0.3681 -0.3217
  362MOL0     C48789   9.299   3.828   1.906  0.8903 -0.1329 -0.0359
  362MOL0     C48790   9.187   4.233   2.114  0.3229  0.5538  0.2416
  362MOL0     C48791   9.067   4.238   2.036 -0.4828  0.0182  0.4663
  362MOL0     C48792   8.958   4.326   2.073 -0.1635 -0.4357 -0.1855
  362MOL0     C48793   8.958   4.398   2.195  1.0037 -0.2494 -0.1391
  362MOL0     O48794   8.858   4.484   2.234  0.4473  0.2896  0.3676
  362MOL0     C48795   8.872   4.611   2.180 -0.2416 -0.4820 -0.0764
  362MOL0     C48796   8.931   4.693   2.296 -0.4514 -0.4485  0.7025
  362MOL0     C48797   8.825   4.739   2.402  0.6339 -0.1037 -0.2004
  362MOL0     C48798   8.884   4.842   2.505  0.1364  1.0776  0.2871
  362MOL0     C48799   9.004   4.781   2.569  0.3223 -0.6381  0.1944
  362MOL0     C48800   9.087   4.699   2.598  0.3522  0.8975 -0.2089
  362MOL0     C48801   9.066   4.381   2.273 -1.1651 -0.3682 -0.6728
  362MOL0     C48802   9.174   4.301   2.241 -0.6462  0.0982  0.0623
  362MOL0     H48803   9.518   4.076   1.942  1.9987  0.0122  0.3313
  362MOL0     H48804   9.670   3.893   1.829  0.1258 -0.5338 -3.9355
  362MOL0     H48805   9.496   3.516   1.669  0.6599 -2.0344 -0.5127
  362MOL0     H48806   9.656   3.477   1.700  1.0081  1.1076  0.9307
  362MOL0     H48807   9.474   3.528   1.941 -0.0525 -0.1091 -0.1447
  362MOL0     H48808   9.474   3.373   1.872 -4.6772  1.7354  2.5872
  362MOL0     H48809   9.740   3.382   1.912  1.1738  3.3431 -2.2915
  362MOL0     H48810   9.705   3.545   1.974 -2.6050  0.7545 -1.1527
  362MOL0     H48811   9.718   3.410   2.172 -2.2692 -1.0400  4.6300
  362MOL0     H48812   9.544   3.432   2.146 -1.9158 -1.6461 -1.3165
  362MOL0     H48813   9.513   3.211   2.157 -1.2722  3.0615 -0.6459
  362MOL0     H48814   9.579   3.217   1.992  1.1561  3.4700 -0.6154
  362MOL0     H48815   9.805   3.203   2.092  1.8860 -1.0553  2.8501
  362MOL0     H48816   9.736   3.154   2.247 -1.3381 -0.4154  0.4703
  362MOL0     H48817   9.651   2.950   2.148  1.1219  1.2979  3.7280
  362MOL0     H48818   9.703   2.995   1.982  1.2506 -0.7802  0.2182
  362MOL0     H48819   9.937   3.027   2.097 -0.7489  1.3003  2.3568
  362MOL0     H48820   9.881   2.867   2.055 -1.2240 -0.2068 -0.9696
  362MOL0     H48821  10.068   3.054   2.287 -0.5096 -0.0838 -1.0710
  362MOL0     H48822  10.095   3.039   2.609 -0.4294  0.2307  1.3979
  362MOL0     H48823  10.038   2.892   2.668  3.2020  2.4608  3.2683
  362MOL0     H48824  10.262   2.904   2.443  1.7119  0.2888 -0.6837
  362MOL0     H48825  10.167   2.768   2.488 -1.0610 -1.4664  1.7478
  362MOL0     H48826  10.377   2.759   2.563  1.8746  1.4735  1.4661
  362MOL0     H48827  10.277   2.735   2.707  0.9921 -0.3040 -0.0658
  362MOL0     H48828  10.380   3.004   2.621 -2.8341  0.0445 -0.1005
  362MOL0     H48829  10.493   2.907   2.722  0.2596  0.7864 -1.0800
  362MOL0     H48830  10.224   3.000   3.042  1.8085 -2.8991  2.1016
  362MOL0     H48831  10.139   3.270   3.200 -0.4333  0.4755 -1.2611
  362MOL0     H48832  10.174   3.107   3.236  0.5719  1.3066  1.4017
  362MOL0     H48833  10.286   3.233   3.296  0.5681 -1.9255  0.6238
  362MOL0     H48834  10.630   3.530   3.292 -2.1242 -0.6547 -2.7451
  362MOL0     H48835  10.750   3.735   3.378  0.5354  0.5493  0.6576
  362MOL0     H48836  10.940   3.860   3.208 -0.7133 -0.4870  1.7893
  362MOL0     H48837  10.940   4.035   3.178  0.0627 -0.7653 -0.6411
  362MOL0     H48838  10.885   4.077   3.398 -2.3759 -0.2555 -1.7031
  362MOL0     H48839  10.914   3.908   3.444  2.2038  0.8041  2.3491
  362MOL0     H48840  11.107   4.108   3.314  1.7107 -0.7245 -1.5544
  362MOL0     H48841  11.159   3.946   3.311  2.0685  0.7450 -1.4479
  362MOL0     H48842  11.105   4.123   3.575  1.7157 -0.9104  2.3322
  362MOL0     H48843  11.143   3.953   3.582 -1.5611  0.9687 -0.5605
  362MOL0     H48844  11.331   4.132   3.607  1.9490 -0.9793 -0.7114
  362MOL0     H48845  11.294   4.176   3.436  0.3908 -1.0249 -1.1532
  362MOL0     H48846  11.388   3.883   3.517 -0.0040 -0.1185 -0.9845
  362MOL0     H48847  11.387   3.964   3.358  4.8101 -2.0073 -1.9363
  362MOL0     H48848  11.551   4.043   3.600  1.8049 -4.0532 -0.4705
  362MOL0     H48849  11.556   4.122   3.442  1.1792  1.4967  1.0032
  362MOL0     H48850  11.618   3.908   3.332  0.7735  2.6173 -0.8147
  362MOL0     H48851  11.670   3.851   3.504  0.5501 -1.9594 -1.3683
  362MOL0     H48852  10.605   3.937   3.028  1.4167 -1.4647 -1.6490
  362MOL0     H48853  10.510   3.721   2.934 -0.2088 -2.1288 -0.3726
  362MOL0     H48854  10.560   3.334   2.897  0.0216  1.1048  0.3929
  362MOL0     H48855  10.499   3.129   2.752  0.0136  0.1196 -0.2858
  362MOL0     H48856   9.318   3.650   1.816 -1.6483  0.8320 -1.6838
  362MOL0     H48857   9.195   3.803   1.923  1.7108 -2.4435  2.2880
  362MOL0     H48858   9.063   4.176   1.947  2.1788 -0.6918  0.7660
  362MOL0     H48859   8.877   4.324   2.001  0.2145  0.1408 -0.6392
  362MOL0     H48860   8.933   4.613   2.089 -2.1674 -0.3317 -1.4277
  362MOL0     H48861   8.773   4.649   2.153 -0.1037  0.3773  0.5788
  362MOL0     H48862   8.971   4.784   2.252 -0.3251 -1.1511 -0.6910
  362MOL0     H48863   9.021   4.643   2.334  1.3741  0.6661 -1.9288
  362MOL0     H48864   8.785   4.649   2.451 -0.6394 -0.2057 -1.3699
  362MOL0     H48865   8.741   4.787   2.352 -0.1330 -0.6816  0.5068
  362MOL0     H48866   8.811   4.857   2.586  0.0330  0.4905  0.3077
  362MOL0     H48867   8.905   4.943   2.470 -1.6167  1.9268  1.4918
  362MOL0     H48868   9.163   4.626   2.616 -1.3467 -1.1878 -1.0576
  362MOL0     H48869   9.063   4.421   2.374  1.8039 -0.9175 -0.2637
  362MOL0     H48870   9.256   4.282   2.310 -0.8930 -0.8947  0.0979
  363MOL0     O48871   3.668   9.386   0.133  0.0238  0.2889  0.1958
  363MOL0     C48872   3.668   9.300   0.225  0.3844 -1.0584 -0.3237
  363MOL0     O48873   3.685   9.327   0.359  0.4739 -0.6837  0.0595
  363MOL0     C48874   3.731   9.449   0.401 -0.5294  0.4005 -0.1383
  363MOL0     C48875   3.646   9.538   0.458  0.2780  0.3159 -0.1671
  363MOL0     C48876   3.692   9.663   0.514  0.2804  0.4236 -0.3149
  363MOL0     C48877   3.826   9.698   0.492  1.0639  0.2426  0.4219
  363MOL0     O48878   3.879   9.816   0.529 -0.1963 -0.5021  0.8378
  363MOL0     C48879   3.813   9.937   0.495 -0.2040  0.1067 -0.2218
  363MOL0     C48880   3.828  10.003   0.357  0.1256  0.2012  0.4915
  363MOL0     C48881   3.731  10.125   0.342  0.4078 -0.0793  0.0614
  363MOL0     C48882   3.797  10.247   0.405 -0.3251 -0.1997 -0.0585
  363MOL0     C48883   3.730  10.371   0.345 -1.4704 -0.6636 -0.1419
  363MOL0     C48884   3.768  10.508   0.401 -0.2296  0.1817 -0.1545
  363MOL0     C48885   3.668  10.608   0.334  0.1377 -0.5590  0.0884
  363MOL0     C48886   3.700  10.752   0.388  0.1393 -0.2631 -0.8488
  363MOL0     N48887   3.838  10.791   0.369  0.0898  0.4382  0.7283
  363MOL0     C48888   3.885  10.804   0.241  0.0600 -0.8644 -0.7236
  363MOL0     C48889   4.021  10.807   0.253 -0.2496  0.2602  1.3264
  363MOL0     C48890   4.128  10.829   0.150 -0.1610 -0.6382  0.9408
  363MOL0     C48891   4.151  10.978   0.112 -0.4276  1.2513  0.0787
  363MOL0     C48892   4.272  10.997   0.021 -0.4151 -0.2362  0.6308
  363MOL0     C48893   4.369  11.105   0.073  0.5102  0.0007  0.0601
  363MOL0     O48894   4.449  11.058   0.173 -0.2122  0.0754 -0.3678
  363MOL0     C48895   4.562  10.986   0.152  0.2061 -0.5763  0.5336
  363MOL0     C48896   4.637  10.951   0.260 -0.1583 -0.1422 -0.2502
  363MOL0     C48897   4.759  10.881   0.259 -0.4030 -0.7379  0.3024
  363MOL0     C48898   4.792  10.815   0.387  0.2763 -0.2875 -0.5158
  363MOL0     C48899   4.812  10.844   0.131 -0.8810  0.2629  0.4501
  363MOL0     C48900   4.932  10.757   0.108  0.2870 -0.9521  0.7275
  363MOL0     O48901   4.964  10.725  -0.021 -0.4757  0.2478 -0.5425
  363MOL0     C48902   5.001  10.598  -0.042 -0.0403  0.5078 -0.5893
  363MOL0     C48903   5.073  10.572  -0.156 -0.1102 -0.1073 -0.4654
  363MOL0     C48904   5.105  10.441  -0.198  0.9698  0.0002 -0.7255
  363MOL0     C48905   5.063  10.330  -0.115  0.7452  0.1772 -0.4022
  363MOL0     O48906   5.110  10.206  -0.164 -0.0643  0.1199  0.6763
  363MOL0     C48907   5.141  10.108  -0.070  0.2564  0.0507  0.1964
  363MOL0     C48908   5.232  10.169   0.038 -0.4422  0.5375 -0.0447
  363MOL0     C48909   5.350  10.074   0.084  0.8296 -0.5640  0.1833
  363MOL0     C48910   5.439  10.126   0.207  0.4634 -0.3327 -1.1636
  363MOL0     C48911   5.509  10.262   0.175  0.3861 -0.5125  0.1167
  363MOL0     C48912   5.572  10.312   0.302  0.1356 -0.2003 -0.6207
  363MOL0     C48913   5.631  10.451   0.276  0.5343 -0.2442 -0.5769
  363MOL0     C48914   5.672  10.507   0.412 -0.1631 -0.0226 -1.5500
  363MOL0    Cl48915   5.792  10.627   0.396  0.3870 -0.0056 -0.1775
  363MOL0     C48916   4.983  10.359   0.001  0.3461  0.7021  0.4386
  363MOL0     C48917   4.957  10.494   0.036  0.3230 -0.2377 -0.6241
  363MOL0     O48918   5.012  10.744   0.196  0.1963 -0.2316 -0.2097
  363MOL0     C48919   4.742  10.879   0.023  0.9078  0.0850 -0.0451
  363MOL0     C48920   4.621  10.954   0.027  0.3495  0.8073  1.4228
  363MOL0     N48921   4.053  10.797   0.390 -0.1709  0.4028 -0.0678
  363MOL0     N48922   3.941  10.785   0.456 -0.9250 -0.2935  0.1674
  363MOL0     C48923   3.912   9.607   0.446  0.0087  0.2733  0.5690
  363MOL0     C48924   3.868   9.485   0.395  0.0021 -0.5825 -0.0898
  363MOL0     C48925   3.635   9.167   0.178 -0.7184  1.0388 -0.0684
  363MOL0     C48926   3.625   9.060   0.276 -0.1450  0.0471  0.0287
  363MOL0     C48927   3.598   8.928   0.234 -0.0269  0.3167 -0.4532
  363MOL0     C48928   3.574   8.899   0.097  0.7258  0.5432 -0.2494
  363MOL0     O48929   3.551   8.762   0.066 -0.0289 -0.5829 -0.4514
  363MOL0     C48930   3.536   8.708  -0.065 -0.2677  0.0872  0.9250
  363MOL0     C48931   3.594   8.568  -0.086 -0.3538 -0.6669 -1.0057
  363MOL0     C48932   3.737   8.581  -0.059  1.3772 -0.6014  0.7401
  363MOL0     C48933   3.794   8.441  -0.025  0.3817  0.4005  0.1043
  363MOL0     C48934   3.773   8.342  -0.133 -0.6031 -0.1314  0.3185
  363MOL0     C48935   3.780   8.270  -0.236  0.0882 -0.9553  0.1242
  363MOL0     C48936   3.566   9.007   0.007  0.0852 -0.5773 -0.1642
  363MOL0     C48937   3.598   9.137   0.049 -0.0196 -0.5700 -0.1532
  363MOL0     H48938   3.541   9.516   0.437  0.6612  0.3159 -2.3402
  363MOL0     H48939   3.613   9.726   0.554 -1.4199 -1.3627 -0.7147
  363MOL0     H48940   3.706   9.932   0.516 -0.0433  1.2260  0.9999
  363MOL0     H48941   3.843  10.005   0.575 -4.0041 -0.2296  1.7620
  363MOL0     H48942   3.930  10.036   0.333 -1.3506  2.5197 -3.4848
  363MOL0     H48943   3.798   9.925   0.287 -0.2318  0.1222  0.7301
  363MOL0     H48944   3.704  10.157   0.241  0.8294 -2.3230 -0.8228
  363MOL0     H48945   3.631  10.118   0.386 -0.7074  2.7549 -1.7026
  363MOL0     H48946   3.788  10.232   0.513 -2.4900 -1.3432 -0.3449
  363MOL0     H48947   3.903  10.238   0.382 -0.5273 -3.8740 -0.0287
  363MOL0     H48948   3.744  10.373   0.237 -1.9197  0.4871 -0.1914
  363MOL0     H48949   3.625  10.365   0.374 -0.9540  3.1604  3.5057
  363MOL0     H48950   3.749  10.501   0.508 -0.1843 -2.7754 -0.2677
  363MOL0     H48951   3.874  10.529   0.389  0.1669 -0.5228  1.8055
  363MOL0     H48952   3.689  10.600   0.227  0.5157 -3.5353  0.2998
  363MOL0     H48953   3.566  10.585   0.365 -0.7626 -1.0260 -2.8674
  363MOL0     H48954   3.685  10.761   0.496  0.6252  4.9288 -0.9697
  363MOL0     H48955   3.626  10.825   0.353 -1.0766 -0.6779  0.7622
  363MOL0     H48956   3.834  10.824   0.147  0.1822  1.1256 -0.4130
  363MOL0     H48957   4.217  10.773   0.180  0.7539  0.0011 -0.4630
  363MOL0     H48958   4.110  10.788   0.050  1.6142 -1.2552  0.8324
  363MOL0     H48959   4.163  11.031   0.207 -1.8951  0.9139  0.4645
  363MOL0     H48960   4.056  11.018   0.077 -2.2717 -1.4766  1.6108
  363MOL0     H48961   4.230  11.018  -0.078 -0.3129  4.4221  1.3376
  363MOL0     H48962   4.326  10.903   0.010 -0.3637 -0.0501 -0.8249
  363MOL0     H48963   4.312  11.194   0.101  1.9073  0.6454  0.9240
  363MOL0     H48964   4.430  11.147  -0.008  2.1828  0.3051  1.4328
  363MOL0     H48965   4.593  10.983   0.353 -3.3961 -2.3002 -0.8887
  363MOL0     H48966   4.739  10.719   0.395 -0.3378  0.1763  1.4412
  363MOL0     H48967   4.898  10.787   0.392  0.4061 -0.9521 -4.0645
  363MOL0     H48968   4.741  10.864   0.470 -0.5637 -0.9937 -0.5995
  363MOL0     H48969   5.100  10.658  -0.216 -0.5619 -0.2834 -0.9257
  363MOL0     H48970   5.157  10.415  -0.290  4.8005 -0.9874  1.4994
  363MOL0     H48971   5.060  10.052  -0.022  2.3704 -3.9295 -0.4743
  363MOL0     H48972   5.196  10.030  -0.123 -1.4586 -1.1805  0.1445
  363MOL0     H48973   5.265  10.271   0.016 -4.8334  1.9089 -1.3606
  363MOL0     H48974   5.172  10.177   0.129  1.2793  2.0874  1.0154
  363MOL0     H48975   5.417  10.064  -0.002 -0.7143 -2.9440 -0.8359
  363MOL0     H48976   5.317   9.972   0.107  1.0175 -1.1693 -2.0468
  363MOL0     H48977   5.371  10.146   0.290  1.2582  1.6284 -0.9250
  363MOL0     H48978   5.519  10.062   0.243  1.1093  1.1509  0.1504
  363MOL0     H48979   5.443  10.333   0.123  1.6485 -2.1643 -4.1522
  363MOL0     H48980   5.591  10.243   0.106 -0.0967  2.8243 -1.5944
  363MOL0     H48981   5.506  10.306   0.390  1.5104 -0.7682  0.4144
  363MOL0     H48982   5.656  10.243   0.314  1.1215  0.6509 -2.2382
  363MOL0     H48983   5.564  10.529   0.239 -0.2665 -0.2119  0.8564
  363MOL0     H48984   5.713  10.435   0.205  0.5688  0.5887 -0.7327
  363MOL0     H48985   5.721  10.429   0.471 -0.7269  1.3567  0.8861
  363MOL0     H48986   5.591  10.544   0.476 -0.5698  1.1539 -2.7114
  363MOL0     H48987   4.954  10.272   0.060  2.7993  1.0147  2.2671
  363MOL0     H48988   4.910  10.513   0.132  0.4019  0.7917 -0.7777
  363MOL0     H48989   4.782  10.879  -0.077 -0.7379 -0.9884 -0.7451
  363MOL0     H48990   4.587  10.996  -0.067  0.1195  0.1375  1.2065
  363MOL0     H48991   4.016   9.634   0.432 -0.5222  2.1380 -0.0651
  363MOL0     H48992   3.939   9.422   0.343  0.7672  1.3301 -1.4784
  363MOL0     H48993   3.627   9.075   0.383 -3.3365  0.6856  0.1102
  363MOL0     H48994   3.604   8.860   0.318  0.7612  0.1794 -0.6152
  363MOL0     H48995   3.430   8.697  -0.088  0.3298 -1.5596 -1.4015
  363MOL0     H48996   3.582   8.774  -0.138  0.9755 -3.5092 -1.8211
  363MOL0     H48997   3.574   8.547  -0.192 -0.3424 -1.2182 -0.9014
  363MOL0     H48998   3.547   8.495  -0.020  0.4292  2.2342  3.1488
  363MOL0     H48999   3.754   8.644   0.029  0.7876  0.3460  0.1735
  363MOL0     H49000   3.783   8.620  -0.150 -1.9131  1.3828 -0.2258
  363MOL0     H49001   3.740   8.413   0.066  0.1867 -1.7486 -0.6160
  363MOL0     H49002   3.899   8.451   0.004 -0.1411  0.5561  2.1089
  363MOL0     H49003   3.791   8.224  -0.332  1.3589  0.8057 -0.6433
  363MOL0     H49004   3.549   9.004  -0.100  1.5364  0.8149 -0.4748
  363MOL0     H49005   3.601   9.217  -0.024  2.5805  2.0382  2.5479
  364MOL0     O49006   4.609   8.234  10.226 -0.4247 -0.0069  0.5934
  364MOL0     C49007   4.702   8.181  10.165 -0.9332 -0.2252  0.4333
  364MOL0     O49008   4.692   8.129  10.042  0.2294 -0.8088  0.0967
  364MOL0     C49009   4.802   8.085   9.979 -0.2582 -0.2709  0.0248
  364MOL0     C49010   4.876   8.181   9.906  0.2704 -0.1511 -0.1783
  364MOL0     C49011   4.999   8.165   9.863  0.2280  0.2459  0.1751
  364MOL0     C49012   5.056   8.041   9.891  1.3600 -0.6288  0.9247
  364MOL0     O49013   5.179   8.008   9.836 -0.3873  0.2930 -0.0150
  364MOL0     C49014   5.288   8.056   9.913  0.2709 -0.6250 -0.3160
  364MOL0     C49015   5.307   8.208   9.910  0.5159 -0.2979 -0.6573
  364MOL0     C49016   5.349   8.257   9.767  0.1500  0.0126  0.6668
  364MOL0     C49017   5.309   8.406   9.735 -0.4505 -0.3337  0.1822
  364MOL0     C49018   5.327   8.440   9.581  0.0234  0.7740  0.9808
  364MOL0     C49019   5.303   8.590   9.549 -0.6805  0.4947  1.0170
  364MOL0     C49020   5.367   8.629   9.409 -0.2514  0.7216 -0.3542
  364MOL0     C49021   5.299   8.757   9.352 -0.3379  1.0726  0.0269
  364MOL0     N49022   5.158   8.723   9.300  0.6786 -0.5976 -0.1654
  364MOL0     C49023   5.125   8.628   9.204  0.6938  0.1805  0.4811
  364MOL0     C49024   4.986   8.645   9.198  0.1402 -0.0047 -1.6735
  364MOL0     C49025   4.879   8.559   9.137 -0.5527  0.0063  0.0636
  364MOL0     C49026   4.744   8.545   9.200 -0.3884 -0.8462  0.9564
  364MOL0     C49027   4.728   8.466   9.321  0.0341  0.3111  0.2861
  364MOL0     C49028   4.820   8.490   9.433 -0.1303  0.1520 -0.4768
  364MOL0     O49029   4.742   8.440   9.551  0.3755 -0.5858  0.3660
  364MOL0     C49030   4.755   8.306   9.568  0.2463  0.1994  0.6933
  364MOL0     C49031   4.647   8.251   9.633 -0.3648 -0.9557  0.0298
  364MOL0     C49032   4.650   8.117   9.668  1.1065  0.3393 -0.1190
  364MOL0     C49033   4.518   8.073   9.717 -0.1227  1.1262  0.5919
  364MOL0     C49034   4.760   8.033   9.640 -0.6334 -0.3504  0.7181
  364MOL0     C49035   4.777   7.890   9.660 -0.3982 -0.2840  0.0655
  364MOL0     O49036   4.897   7.849   9.619  0.8589  0.2137  0.0426
  364MOL0     C49037   4.937   7.723   9.659  0.3856 -0.1179  0.6309
  364MOL0     C49038   4.916   7.662   9.783 -0.0348 -0.4401 -0.0384
  364MOL0     C49039   4.955   7.531   9.812 -0.6238 -0.9358  1.3598
  364MOL0     C49040   5.046   7.461   9.724  0.7895  1.0661  0.6811
  364MOL0     O49041   5.096   7.337   9.735 -0.2037  0.5998  0.7660
  364MOL0     C49042   5.060   7.256   9.848  0.3149  0.1888  0.3113
  364MOL0     C49043   4.911   7.209   9.845  0.3859 -1.0389 -0.1412
  364MOL0     C49044   4.889   7.080   9.919  0.8803  0.0631 -0.2717
  364MOL0     C49045   4.743   7.024   9.889  0.4405  0.6815 -0.6538
  364MOL0     C49046   4.728   6.890   9.966 -1.8240  0.3832  0.4822
  364MOL0     C49047   4.726   6.883  10.131 -0.6640 -0.2588  0.1542
  364MOL0     C49048   4.669   7.008  10.207 -0.0077 -0.8977 -0.1021
  364MOL0     C49049   4.704   7.003  10.354  0.1659 -0.3623  0.9331
  364MOL0    Cl49050   4.679   6.852  10.433  0.4444  0.4408  0.0208
  364MOL0     C49051   5.073   7.521   9.602 -0.2132  0.3692  0.7907
  364MOL0     C49052   5.025   7.653   9.573 -0.5422  0.3331 -0.8137
  364MOL0     O49053   4.680   7.822   9.678  0.7187 -0.2649 -0.4149
  364MOL0     C49054   4.870   8.089   9.578  0.5488 -0.7487  0.9380
  364MOL0     C49055   4.872   8.230   9.554  0.5167  0.3869  0.3623
  364MOL0     N49056   4.955   8.749   9.275 -0.6358  0.0447  0.4075
  364MOL0     N49057   5.052   8.789   9.342 -0.1511 -0.4874  0.7863
  364MOL0     C49058   4.988   7.941   9.960 -0.0796  1.1339 -0.2239
  364MOL0     C49059   4.853   7.958   9.996  0.1236  0.0902 -0.2325
  364MOL0     C49060   4.834   8.182  10.233 -0.1455 -0.2710  0.2222
  364MOL0     C49061   4.896   8.067  10.278  0.0600  0.6447  0.8075
  364MOL0     C49062   5.025   8.068  10.330 -0.2156  0.0234 -0.6451
  364MOL0     C49063   5.085   8.189  10.351 -0.5127 -0.5932 -0.3437
  364MOL0     O49064   5.199   8.196  10.419 -0.4724  0.3259  0.8481
  364MOL0     C49065   5.316   8.114  10.384 -0.0065  0.2404  0.9781
  364MOL0     C49066   5.366   8.039  10.509  0.1457 -0.3191 -0.3425
  364MOL0     C49067   5.409   8.128  10.625  0.2166  0.6081  0.8373
  364MOL0     C49068   5.449   8.053  10.750 -1.2692 -0.6950 -0.1367
  364MOL0     C49069   5.334   8.008  10.829 -0.2955  0.5529 -0.7445
  364MOL0     C49070   5.240   7.974  10.894  0.2120 -0.8482  0.2856
  364MOL0     C49071   5.024   8.313  10.314  0.2700 -0.1463  0.3781
  364MOL0     C49072   4.891   8.302  10.255 -1.2034 -0.2287 -0.1396
  364MOL0     H49073   4.824   8.274   9.887  1.5674  0.3774 -1.3667
  364MOL0     H49074   5.053   8.238   9.804 -1.0916  0.6932 -0.5304
  364MOL0     H49075   5.267   8.024  10.016  0.1992  0.2304 -0.0598
  364MOL0     H49076   5.378   7.998   9.888  0.1956 -1.7214  1.7615
  364MOL0     H49077   5.224   8.269   9.947  0.9979  0.1775 -0.3344
  364MOL0     H49078   5.392   8.232   9.975  0.7279  2.4109 -1.7950
  364MOL0     H49079   5.457   8.243   9.757  0.1174 -0.7229  1.2717
  364MOL0     H49080   5.293   8.192   9.701 -2.1184  0.7687  1.7451
  364MOL0     H49081   5.201   8.412   9.749 -0.1626  1.6111  2.0522
  364MOL0     H49082   5.364   8.478   9.796 -1.7735  1.0638 -0.2229
  364MOL0     H49083   5.430   8.418   9.550 -0.3898 -0.0272  0.1164
  364MOL0     H49084   5.270   8.369   9.521  0.1033  2.1090 -0.8007
  364MOL0     H49085   5.196   8.603   9.532 -0.5013  1.9894  0.9192
  364MOL0     H49086   5.343   8.660   9.623 -0.6858  0.7711  0.7608
  364MOL0     H49087   5.476   8.637   9.404 -0.1485 -0.2939  0.0285
  364MOL0     H49088   5.345   8.544   9.344  0.5109  0.5259 -0.3705
  364MOL0     H49089   5.356   8.789   9.265 -0.5968  0.1278 -0.5079
  364MOL0     H49090   5.296   8.838   9.426  1.1778  0.6043  0.6423
  364MOL0     H49091   5.186   8.555   9.153 -1.0556 -0.2824 -1.0597
  364MOL0     H49092   4.868   8.606   9.039 -0.4966 -0.7759 -0.3260
  364MOL0     H49093   4.921   8.458   9.131 -0.9941 -0.2006  0.3900
  364MOL0     H49094   4.671   8.516   9.123 -0.1125  1.8482 -0.4654
  364MOL0     H49095   4.722   8.647   9.232  1.9805 -0.5611  1.8826
  364MOL0     H49096   4.736   8.364   9.284  1.8228  0.1376  1.0492
  364MOL0     H49097   4.626   8.475   9.360  0.2545  1.2557  0.6781
  364MOL0     H49098   4.828   8.599   9.446  1.1363  0.2840 -2.1636
  364MOL0     H49099   4.920   8.447   9.427 -0.7728 -1.7405  1.1453
  364MOL0     H49100   4.560   8.311   9.653  0.1156 -0.0278 -0.6131
  364MOL0     H49101   4.442   8.074   9.639 -1.7213  0.7100  2.0721
  364MOL0     H49102   4.525   7.979   9.772  2.6478 -0.5826 -2.3404
  364MOL0     H49103   4.484   8.146   9.792  0.9034  1.1656  1.0293
  364MOL0     H49104   4.846   7.719   9.843  0.4357 -0.6589  0.7334
  364MOL0     H49105   4.917   7.489   9.905  0.4889 -2.0426  1.3483
  364MOL0     H49106   5.117   7.162   9.850 -0.2019 -0.1279  2.9739
  364MOL0     H49107   5.080   7.294   9.948  1.7782  0.3810 -0.0289
  364MOL0     H49108   4.854   7.289   9.892  0.2779 -0.6723 -0.8753
  364MOL0     H49109   4.871   7.206   9.743 -0.5903  1.1287  0.1232
  364MOL0     H49110   4.895   7.104  10.026  2.7190 -1.6269  0.0769
  364MOL0     H49111   4.963   7.005   9.891 -0.2052 -0.5464 -1.5838
  364MOL0     H49112   4.678   7.104   9.926  1.7636  1.8616 -0.8034
  364MOL0     H49113   4.735   7.011   9.781 -3.3570 -1.2139 -0.3382
  364MOL0     H49114   4.807   6.825   9.928  0.0020  4.0873 -2.8287
  364MOL0     H49115   4.638   6.837   9.933 -0.0163 -2.9798  0.5183
  364MOL0     H49116   4.670   6.794  10.161 -1.1976  0.3904  1.1116
  364MOL0     H49117   4.829   6.881  10.167  0.4713 -1.1978 -2.8316
  364MOL0     H49118   4.559   7.005  10.199 -0.1921  0.6408  1.3876
  364MOL0     H49119   4.708   7.101  10.164 -1.4984 -1.2274 -2.4016
  364MOL0     H49120   4.653   7.087  10.400  0.4899  2.4183 -3.2513
  364MOL0     H49121   4.808   7.032  10.370 -0.2363  1.9279 -0.1977
  364MOL0     H49122   5.131   7.461   9.533 -0.0020 -2.7804  3.4540
  364MOL0     H49123   5.046   7.690   9.473  0.6132  0.8272 -0.4127
  364MOL0     H49124   4.965   8.047   9.547  1.2495  0.7473  0.9706
  364MOL0     H49125   4.957   8.294   9.533 -0.5536  1.1742 -2.0108
  364MOL0     H49126   5.036   7.845   9.973 -0.2398  1.0265 -0.4056
  364MOL0     H49127   4.807   7.872  10.042  0.1076 -1.3354 -2.7597
  364MOL0     H49128   4.851   7.968  10.270  1.4825 -0.3897  3.9329
  364MOL0     H49129   5.056   7.971  10.367 -1.8022 -0.7553 -1.2421
  364MOL0     H49130   5.291   8.051  10.299 -0.6873  0.6989  0.8274
  364MOL0     H49131   5.381   8.195  10.347 -0.4012 -0.3499 -1.1349
  364MOL0     H49132   5.437   7.958  10.489  0.5173 -0.1020  0.0653
  364MOL0     H49133   5.275   7.989  10.543  0.6308 -0.6831  0.4586
  364MOL0     H49134   5.332   8.199  10.658  1.5458  1.4259  2.3686
  364MOL0     H49135   5.491   8.189  10.586  1.1578 -0.8697  0.4400
  364MOL0     H49136   5.516   8.116  10.809  1.7978 -2.5139 -1.4750
  364MOL0     H49137   5.504   7.965  10.716 -2.6841 -1.5534 -0.2964
  364MOL0     H49138   5.169   7.944  10.968  0.6817 -4.7859 -0.6097
  364MOL0     H49139   5.068   8.412  10.319 -2.1276  1.2131 -2.4721
  364MOL0     H49140   4.849   8.399  10.230 -0.7818  1.3042  4.1608
  365MOL0     O49141   1.247   0.687   6.173 -0.3512 -0.8053  0.1647
  365MOL0     C49142   1.171   0.601   6.212  0.4831  0.7299 -0.0853
  365MOL0     O49143   1.066   0.620   6.300  0.3963  0.5525  0.7996
  365MOL0     C49144   1.059   0.749   6.341 -0.1664  0.0891 -0.3119
  365MOL0     C49145   1.091   0.786   6.465 -0.3933  0.1027 -0.0122
  365MOL0     C49146   1.093   0.929   6.495 -0.1260 -0.0450 -0.1383
  365MOL0     C49147   1.030   1.021   6.411  0.2907 -0.0795  0.0430
  365MOL0     O49148   1.006   1.144   6.456 -0.0846 -0.8757  0.2036
  365MOL0     C49149   1.129   1.230   6.440  0.2365  1.2835  1.3681
  365MOL0     C49150   1.093   1.368   6.497 -0.0771 -0.1631 -0.6327
  365MOL0     C49151   1.013   1.463   6.410 -0.7223  0.0398  0.4334
  365MOL0     C49152   1.000   1.599   6.475 -1.2110 -0.2582  0.4730
  365MOL0     C49153   0.923   1.714   6.414 -0.3689  0.4073 -0.8996
  365MOL0     C49154   0.775   1.675   6.381  0.6108 -0.7454 -1.0552
  365MOL0     C49155   0.684   1.654   6.507  0.1865  0.4580  0.5797
  365MOL0     C49156   0.552   1.592   6.472  0.1861  0.1090 -0.1455
  365MOL0     N49157   0.572   1.461   6.403 -0.5446  0.3883  0.5283
  365MOL0     C49158   0.498   1.420   6.291 -0.0644 -0.8710  0.1611
  365MOL0     C49159   0.536   1.292   6.276 -0.1011  0.0328  0.2424
  365MOL0     C49160   0.475   1.192   6.175  0.7139 -0.5604 -0.4360
  365MOL0     C49161   0.570   1.169   6.052 -0.3131  0.3269 -0.7601
  365MOL0     C49162   0.693   1.081   6.081  0.0143  0.0641  0.1841
  365MOL0     C49163   0.761   1.031   5.960 -0.4495 -0.2564 -0.1716
  365MOL0     O49164   0.902   1.018   5.979 -0.4909 -0.4507  0.3961
  365MOL0     C49165   0.994   0.971   5.883 -0.7645  0.3988  0.6216
  365MOL0     C49166   1.122   0.969   5.935  0.3391  0.3712  1.2777
  365MOL0     C49167   1.227   0.913   5.859  0.4843  0.1371 -0.3730
  365MOL0     C49168   1.370   0.916   5.906  0.4025 -1.6075 -0.7657
  365MOL0     C49169   1.187   0.852   5.740 -0.1224  0.0123 -0.1817
  365MOL0     C49170   1.275   0.781   5.656 -0.1224 -1.3348 -0.1414
  365MOL0     O49171   1.310   0.660   5.710 -0.5822 -1.1744  0.0873
  365MOL0     C49172   1.428   0.615   5.655  1.0732  1.2734  0.1405
  365MOL0     C49173   1.418   0.485   5.606 -0.6475 -0.8601 -0.3296
  365MOL0     C49174   1.527   0.415   5.555  0.0212 -0.4533 -0.2776
  365MOL0     C49175   1.651   0.481   5.547 -0.6530  0.1971  0.8358
  365MOL0     O49176   1.765   0.445   5.483  0.1655  0.0769 -0.0982
  365MOL0     C49177   1.782   0.305   5.443 -0.8343 -0.1227  0.5709
  365MOL0     C49178   1.932   0.298   5.425 -0.1859 -0.0868 -0.3395
  365MOL0     C49179   2.008   0.261   5.558  1.0689 -0.1541  0.2392
  365MOL0     C49180   2.153   0.227   5.541 -0.6140  0.5004 -0.4606
  365MOL0     C49181   2.214   0.164   5.668  1.8331  0.5011 -1.0764
  365MOL0     C49182   2.375   0.176   5.660 -0.2999  0.3580 -0.4805
  365MOL0     C49183   2.442   0.081   5.566 -0.0980  0.2182  0.3766
  365MOL0     C49184   2.590   0.118   5.565  0.1394  0.1737  0.0173
  365MOL0    Cl49185   2.660   0.046   5.414  0.1463 -0.0278  0.2447
  365MOL0     C49186   1.664   0.605   5.609  0.2518  0.2801  0.1768
  365MOL0     C49187   1.553   0.671   5.660  0.4633 -0.2725 -0.1093
  365MOL0     O49188   1.300   0.820   5.548  0.4867 -0.0428  0.2121
  365MOL0     C49189   1.063   0.857   5.693  0.0104 -0.0191 -0.5108
  365MOL0     C49190   0.964   0.923   5.758  0.0053  0.5232  0.0226
  365MOL0     N49191   0.628   1.258   6.363  0.1179 -0.1759  0.1225
  365MOL0     N49192   0.649   1.354   6.441  0.9933 -0.5946 -0.7167
  365MOL0     C49193   0.969   0.970   6.291  0.8495  0.3114  0.4219
  365MOL0     C49194   0.994   0.840   6.256 -0.6216  1.0374 -0.5082
  365MOL0     C49195   1.192   0.468   6.142  0.3658  0.3404 -1.0484
  365MOL0     C49196   1.287   0.460   6.040  0.3678 -0.2981  0.1664
  365MOL0     C49197   1.331   0.332   6.008  1.2120  0.5906  0.5575
  365MOL0     C49198   1.287   0.218   6.064  0.7866 -0.0432  0.8503
  365MOL0     O49199   1.362   0.107   6.021 -0.1469  0.8206  0.2786
  365MOL0     C49200   1.321  -0.020   6.077 -0.5093 -0.1581  0.2295
  365MOL0     C49201   1.415  -0.125   6.008  0.4082 -1.2560  0.6167
  365MOL0     C49202   1.381  -0.262   6.030  0.7749 -0.7803 -0.3529
  365MOL0     C49203   1.436  -0.337   6.148 -0.2529 -0.1818 -0.1087
  365MOL0     C49204   1.581  -0.362   6.130  0.4441 -0.3876 -0.3341
  365MOL0     C49205   1.702  -0.375   6.125 -0.2412 -0.8078 -0.0755
  365MOL0     C49206   1.177   0.234   6.152 -0.7478 -0.4783  0.3489
  365MOL0     C49207   1.131   0.358   6.195 -0.0440  0.9575  0.0991
  365MOL0     H49208   1.128   0.710   6.533  0.6929  2.0835  1.7456
  365MOL0     H49209   1.123   0.967   6.592 -0.2765 -0.3437  0.0288
  365MOL0     H49210   1.201   1.186   6.510 -1.4811 -1.7511  1.3945
  365MOL0     H49211   1.171   1.230   6.339 -1.0086 -1.6671  0.7588
  365MOL0     H49212   1.050   1.353   6.596 -1.6238 -0.4561 -1.3141
  365MOL0     H49213   1.187   1.423   6.509  1.7223 -2.4975 -3.0344
  365MOL0     H49214   1.074   1.475   6.320  0.3909  1.3686  1.3178
  365MOL0     H49215   0.916   1.415   6.392  0.1298 -1.2418 -0.9984
  365MOL0     H49216   0.966   1.599   6.579 -1.6138  1.8269  0.3941
  365MOL0     H49217   1.099   1.645   6.479 -1.7963  1.0286  0.7757
  365MOL0     H49218   0.934   1.804   6.475 -0.9934 -2.0295  3.2405
  365MOL0     H49219   0.970   1.730   6.317  1.5301 -2.3296 -0.5346
  365MOL0     H49220   0.733   1.755   6.318  0.7665 -0.9158 -1.3777
  365MOL0     H49221   0.777   1.580   6.327  0.3140 -0.2030 -2.0621
  365MOL0     H49222   0.735   1.602   6.588  3.0315 -1.6417 -2.2993
  365MOL0     H49223   0.657   1.750   6.551  1.4785  2.9227 -3.4587
  365MOL0     H49224   0.498   1.660   6.406 -3.2427 -1.5843  0.7026
  365MOL0     H49225   0.483   1.592   6.557  0.0852 -1.1839 -0.2076
  365MOL0     H49226   0.431   1.472   6.222 -0.6346 -1.7437  0.0463
  365MOL0     H49227   0.443   1.099   6.224 -0.4783  0.2818  0.4254
  365MOL0     H49228   0.381   1.243   6.150 -0.9924 -3.7482 -1.1055
  365MOL0     H49229   0.599   1.270   6.023 -0.6060  0.2919 -1.1820
  365MOL0     H49230   0.506   1.118   5.980 -2.2431  0.4703  0.7533
  365MOL0     H49231   0.668   0.994   6.142 -1.4868 -1.0996 -1.9568
  365MOL0     H49232   0.771   1.146   6.123  0.3507  0.4137 -0.9402
  365MOL0     H49233   0.751   1.097   5.874  0.8784  1.6454  1.0766
  365MOL0     H49234   0.722   0.939   5.915 -2.5513  0.3019  0.3785
  365MOL0     H49235   1.131   1.006   6.037  0.1512 -0.6061  1.6647
  365MOL0     H49236   1.374   0.964   6.005  3.0613 -2.0662 -0.5821
  365MOL0     H49237   1.404   0.813   5.918 -1.7682 -2.3260 -0.2752
  365MOL0     H49238   1.441   0.972   5.845  0.7830  2.8392  3.1510
  365MOL0     H49239   1.318   0.443   5.594 -0.2963 -1.8676  0.1540
  365MOL0     H49240   1.510   0.317   5.512  1.4610  0.8059 -4.2053
  365MOL0     H49241   1.760   0.238   5.527  0.7108  0.1255  1.2198
  365MOL0     H49242   1.723   0.267   5.358  0.0579  0.5162 -0.3613
  365MOL0     H49243   1.946   0.222   5.348 -2.6235  1.2145 -2.2142
  365MOL0     H49244   1.962   0.396   5.388 -4.1036  0.7711 -1.7727
  365MOL0     H49245   1.967   0.168   5.598  2.4388 -0.7556  0.3367
  365MOL0     H49246   1.995   0.343   5.629  1.0869  1.5967 -1.6916
  365MOL0     H49247   2.161   0.162   5.454 -0.0908  0.8257 -0.6552
  365MOL0     H49248   2.202   0.321   5.516  3.4499 -0.5979  2.3596
  365MOL0     H49249   2.172   0.066   5.692  0.7847  1.3234  0.6281
  365MOL0     H49250   2.186   0.230   5.750  1.6564  1.3545 -1.8105
  365MOL0     H49251   2.402   0.275   5.624 -2.1738 -0.1976 -3.8273
  365MOL0     H49252   2.410   0.156   5.762 -2.2147  1.9412  0.5685
  365MOL0     H49253   2.409   0.095   5.463  1.6525 -0.3181 -0.2944
  365MOL0     H49254   2.423  -0.024   5.590  0.4467  0.6009  2.7833
  365MOL0     H49255   2.649   0.085   5.652  0.5057 -2.7338 -1.2252
  365MOL0     H49256   2.597   0.226   5.551  2.7087 -0.1825 -2.1936
  365MOL0     H49257   1.765   0.642   5.620  1.0101 -1.6945  0.1152
  365MOL0     H49258   1.558   0.770   5.705 -1.5994  0.3580 -1.1455
  365MOL0     H49259   1.037   0.802   5.604 -1.3029  0.6373 -0.5433
  365MOL0     H49260   0.864   0.946   5.721  0.5294  1.1419 -1.0516
  365MOL0     H49261   0.919   1.042   6.227 -1.2902 -2.2099 -0.9595
  365MOL0     H49262   0.958   0.824   6.155 -1.4450  2.2477 -0.4218
  365MOL0     H49263   1.327   0.549   5.993  1.3568 -0.0410  1.4132
  365MOL0     H49264   1.406   0.337   5.930 -0.5336  0.4921 -1.1915
  365MOL0     H49265   1.346  -0.029   6.183  1.9288  0.6544 -0.2156
  365MOL0     H49266   1.215  -0.044   6.064 -0.3973  0.3962 -1.9918
  365MOL0     H49267   1.517  -0.099   6.038 -0.5490  2.3954  1.3212
  365MOL0     H49268   1.402  -0.104   5.902 -1.0404 -0.4527  0.9136
  365MOL0     H49269   1.411  -0.319   5.942  4.1320 -1.2499  0.9475
  365MOL0     H49270   1.273  -0.277   6.036  0.8040 -0.4838  3.8474
  365MOL0     H49271   1.383  -0.433   6.155  0.5015 -0.8847 -2.7793
  365MOL0     H49272   1.427  -0.283   6.242  0.0241 -1.1668  0.5044
  365MOL0     H49273   1.808  -0.388   6.135 -0.3971 -3.0697 -0.7374
  365MOL0     H49274   1.140   0.159   6.221 -1.0041 -1.8308 -1.2136
  365MOL0     H49275   1.046   0.361   6.263  1.2279 -3.5111  2.2918
  366MOL0     O49276   7.142   2.052   1.294  0.0072  0.0462  0.5904
  366MOL0     C49277   7.120   2.147   1.221  0.9646  0.4293 -0.8717
  366MOL0     O49278   6.997   2.203   1.204  0.6420 -0.1573 -0.3059
  366MOL0     C49279   6.895   2.158   1.283 -0.3771 -0.6217  0.3721
  366MOL0     C49280   6.773   2.130   1.218 -0.4268  0.3562  0.1089
  366MOL0     C49281   6.670   2.083   1.289  0.0114  0.8528  0.1818
  366MOL0     C49282   6.689   2.059   1.426  0.3611  0.4890  0.1878
  366MOL0     O49283   6.583   1.996   1.486 -0.6497  0.2678  0.3679
  366MOL0     C49284   6.604   1.908   1.595  0.3155  0.1280 -0.2459
  366MOL0     C49285   6.563   1.975   1.725  0.9013 -0.3915  0.2936
  366MOL0     C49286   6.443   2.073   1.729 -0.4586  0.9896  1.1355
  366MOL0     C49287   6.426   2.131   1.863 -0.2984 -0.3615  0.5050
  366MOL0     C49288   6.368   2.042   1.974  0.6874 -0.1323  0.0339
  366MOL0     C49289   6.467   2.025   2.085  1.2396 -1.0336  0.7038
  366MOL0     C49290   6.385   1.943   2.193 -0.1665 -0.6061  0.4747
  366MOL0     C49291   6.462   1.938   2.329 -0.4870  0.0540  0.0325
  366MOL0     N49292   6.528   2.065   2.366 -0.0532  0.5821 -0.2941
  366MOL0     C49293   6.468   2.158   2.443 -0.3754 -0.0564  0.5783
  366MOL0     C49294   6.557   2.261   2.458 -0.0811  0.2085 -0.4995
  366MOL0     C49295   6.515   2.392   2.515  0.3517  0.2298 -1.3903
  366MOL0     C49296   6.608   2.448   2.622 -0.8064  1.0736  0.8313
  366MOL0     C49297   6.553   2.567   2.694 -1.0602  0.3025  0.4102
  366MOL0     C49298   6.637   2.589   2.815  0.4286  0.6105  0.6915
  366MOL0     O49299   6.558   2.625   2.936 -1.0412  0.0648  0.1195
  366MOL0     C49300   6.544   2.760   2.967 -0.3459  0.0241  0.4126
  366MOL0     C49301   6.419   2.817   3.002 -0.5947 -0.4646 -0.3194
  366MOL0     C49302   6.409   2.957   3.025  0.3438 -0.7003 -0.7167
  366MOL0     C49303   6.272   3.001   3.069  0.2161 -0.2501  0.6449
  366MOL0     C49304   6.530   3.037   3.022  0.3157 -0.1958 -0.2456
  366MOL0     C49305   6.523   3.179   3.068  0.5314 -0.2771  0.3722
  366MOL0     O49306   6.638   3.246   3.081 -0.0125 -0.3278 -0.2026
  366MOL0     C49307   6.647   3.388   3.096 -0.0694  0.8146 -0.1307
  366MOL0     C49308   6.761   3.423   3.169  0.1657 -0.2052  0.2224
  366MOL0     C49309   6.808   3.555   3.172  0.3193 -1.0087  0.2851
  366MOL0     C49310   6.716   3.654   3.124 -0.3911  0.7914  0.7338
  366MOL0     O49311   6.736   3.783   3.154  0.6338  0.4901 -0.0457
  366MOL0     C49312   6.679   3.884   3.061 -0.3020  0.5024  0.7326
  366MOL0     C49313   6.718   4.029   3.105  0.3466 -0.1480 -0.3903
  366MOL0     C49314   6.656   4.047   3.246  0.5567 -0.0424  0.5185
  366MOL0     C49315   6.651   4.202   3.283 -0.1196 -0.0197 -0.3076
  366MOL0     C49316   6.634   4.208   3.430  0.2169 -0.3038  0.5003
  366MOL0     C49317   6.591   4.344   3.474  0.7702  0.6084 -0.0702
  366MOL0     C49318   6.600   4.359   3.621  0.6952  0.0594 -0.5569
  366MOL0     C49319   6.563   4.494   3.683  0.6307  0.9811 -0.8149
  366MOL0    Cl49320   6.533   4.480   3.857  0.1395  0.1376  0.1735
  366MOL0     C49321   6.592   3.622   3.071 -0.3594 -0.0726 -0.5009
  366MOL0     C49322   6.556   3.489   3.054 -0.1174 -0.4335  0.2991
  366MOL0     O49323   6.416   3.237   3.076 -0.5704  0.2619 -0.3688
  366MOL0     C49324   6.652   2.975   2.995 -0.7793 -0.0707  0.7381
  366MOL0     C49325   6.658   2.840   2.966 -0.9348 -0.6474  0.1781
  366MOL0     N49326   6.676   2.229   2.405  0.4779  0.0140  0.1123
  366MOL0     N49327   6.655   2.111   2.357  0.7557 -0.9648  0.5206
  366MOL0     C49328   6.806   2.093   1.494  0.9389 -0.3907 -0.0694
  366MOL0     C49329   6.913   2.147   1.423 -0.5454 -0.9219  0.2089
  366MOL0     C49330   7.224   2.204   1.142 -0.6624  0.1050 -0.4098
  366MOL0     C49331   7.217   2.330   1.087 -0.9739 -0.7700 -0.0868
  366MOL0     C49332   7.328   2.390   1.025  0.2068 -0.3295  0.1324
  366MOL0     C49333   7.446   2.316   1.015  0.1911 -0.0801 -0.8153
  366MOL0     O49334   7.549   2.386   0.943 -0.0112  0.1002 -0.9510
  366MOL0     C49335   7.655   2.306   0.895 -0.6387 -0.0687 -0.5316
  366MOL0     C49336   7.722   2.394   0.796 -0.1171  0.1262 -0.4018
  366MOL0     C49337   7.827   2.309   0.727  0.2618  0.1788 -0.0221
  366MOL0     C49338   7.919   2.392   0.642 -0.0396  0.1044  0.8587
  366MOL0     C49339   7.964   2.315   0.521 -0.1671  0.6907  0.2928
  366MOL0     C49340   8.023   2.257   0.430 -0.6849 -0.7061  0.2421
  366MOL0     C49341   7.454   2.189   1.070  0.0561 -0.4917 -0.3143
  366MOL0     C49342   7.349   2.139   1.141 -0.7356  0.3425  0.2338
  366MOL0     H49343   6.762   2.156   1.113 -2.1673 -1.0790 -0.1197
  366MOL0     H49344   6.574   2.070   1.239  0.8558  1.6261 -1.7683
  366MOL0     H49345   6.545   1.817   1.585 -4.8658  2.8613  1.5966
  366MOL0     H49346   6.709   1.877   1.603  0.7403  1.8297  1.8313
  366MOL0     H49347   6.530   1.893   1.790 -1.4964 -1.5301 -2.1687
  366MOL0     H49348   6.651   2.031   1.756 -0.1180  2.0504 -0.9883
  366MOL0     H49349   6.450   2.152   1.653 -1.6614  0.1781  0.1345
  366MOL0     H49350   6.353   2.016   1.705  0.7622 -1.1494  1.3525
  366MOL0     H49351   6.514   2.181   1.904  0.4393 -2.2921  1.4189
  366MOL0     H49352   6.360   2.217   1.845  0.1517 -0.1602 -0.2346
  366MOL0     H49353   6.283   2.095   2.018 -0.9218 -2.3786 -0.2120
  366MOL0     H49354   6.332   1.956   1.917 -2.3637  3.0875 -3.4983
  366MOL0     H49355   6.558   1.972   2.056  0.3467 -1.1004 -2.2862
  366MOL0     H49356   6.485   2.125   2.126 -1.3825 -0.8498  1.6044
  366MOL0     H49357   6.282   1.970   2.219 -1.7005 -2.6027 -2.9226
  366MOL0     H49358   6.361   1.848   2.145 -0.1360 -0.8653  0.9612
  366MOL0     H49359   6.538   1.859   2.330  0.6781  1.0927  2.5722
  366MOL0     H49360   6.398   1.917   2.415  1.1624 -0.7917  1.1125
  366MOL0     H49361   6.360   2.168   2.448 -0.6070 -1.3410 -0.8728
  366MOL0     H49362   6.512   2.471   2.439 -2.0047  1.5080 -0.0868
  366MOL0     H49363   6.411   2.385   2.548  1.1814  1.6076  1.8945
  366MOL0     H49364   6.705   2.459   2.573 -1.4342  0.6436 -0.5695
  366MOL0     H49365   6.631   2.368   2.693 -0.4256 -3.1139 -3.5036
  366MOL0     H49366   6.451   2.550   2.730 -1.5930 -0.1511 -1.2324
  366MOL0     H49367   6.553   2.663   2.642 -1.7721 -0.7560 -1.6674
  366MOL0     H49368   6.717   2.659   2.785  1.6580 -1.7525 -2.1006
  366MOL0     H49369   6.694   2.506   2.856  1.4309  0.4723 -0.8703
  366MOL0     H49370   6.324   2.766   3.003 -2.5051  2.7325  2.2370
  366MOL0     H49371   6.197   2.930   3.032 -0.4884  0.5234  0.5641
  366MOL0     H49372   6.269   3.011   3.178  1.4080  4.2830  0.4554
  366MOL0     H49373   6.237   3.096   3.028 -3.6706 -1.8606 -0.2575
  366MOL0     H49374   6.809   3.345   3.226  0.8767 -0.7380 -1.0554
  366MOL0     H49375   6.904   3.589   3.207  1.1382  0.1819 -2.7987
  366MOL0     H49376   6.714   3.867   2.959  1.3974  1.3312  1.1428
  366MOL0     H49377   6.570   3.876   3.065 -0.3599 -2.0323 -2.0951
  366MOL0     H49378   6.827   4.042   3.109  0.6869 -1.8686 -2.2175
  366MOL0     H49379   6.673   4.099   3.034 -0.0063 -1.0910 -1.1245
  366MOL0     H49380   6.706   3.995   3.329 -0.6198  1.0952  2.0071
  366MOL0     H49381   6.552   4.011   3.244  0.5153  0.0208  1.1981
  366MOL0     H49382   6.747   4.247   3.254  1.1924 -0.7269  2.6119
  366MOL0     H49383   6.573   4.261   3.234  0.6299 -0.1942 -1.7657
  366MOL0     H49384   6.730   4.190   3.479  1.2322  2.5020 -0.2398
  366MOL0     H49385   6.559   4.135   3.462 -0.2486 -0.0634 -0.0127
  366MOL0     H49386   6.655   4.414   3.420 -0.3975  1.4944 -0.3501
  366MOL0     H49387   6.485   4.365   3.457 -0.1307 -1.8679  1.7857
  366MOL0     H49388   6.704   4.342   3.652  0.5773  0.0352 -0.1723
  366MOL0     H49389   6.538   4.286   3.674  2.0642  1.4998  3.4356
  366MOL0     H49390   6.466   4.531   3.650  0.4041  2.0078  0.8972
  366MOL0     H49391   6.628   4.580   3.665  1.5947  0.5815  0.5897
  366MOL0     H49392   6.510   3.683   3.036  0.0788  0.0899 -1.2713
  366MOL0     H49393   6.480   3.452   2.987 -0.5682  1.5321 -0.3316
  366MOL0     H49394   6.749   3.019   3.014 -0.2170 -2.1000  3.0404
  366MOL0     H49395   6.752   2.791   2.942  1.5050  3.8306 -0.5288
  366MOL0     H49396   6.816   2.088   1.602  3.7668  0.0986 -0.2175
  366MOL0     H49397   7.004   2.178   1.474 -0.4067  0.7115 -0.9844
  366MOL0     H49398   7.126   2.388   1.099 -2.0649 -2.3502 -0.3459
  366MOL0     H49399   7.315   2.489   0.984  1.2519  0.3740  1.4062
  366MOL0     H49400   7.716   2.266   0.976 -1.2859 -0.0156 -0.0079
  366MOL0     H49401   7.622   2.217   0.841  0.2896 -0.6273 -0.2022
  366MOL0     H49402   7.770   2.483   0.839  2.4696  0.2716 -3.2461
  366MOL0     H49403   7.656   2.425   0.714 -1.5877  0.1675  0.7443
  366MOL0     H49404   7.779   2.229   0.670 -1.1682  0.9594  0.0380
  366MOL0     H49405   7.888   2.267   0.808  1.5444  1.7639 -0.1172
  366MOL0     H49406   8.004   2.428   0.701  1.3093 -2.3281  0.5473
  366MOL0     H49407   7.862   2.477   0.606  0.6402  1.0245  1.8982
  366MOL0     H49408   8.073   2.236   0.337 -1.3170  0.6101 -0.4350
  366MOL0     H49409   7.545   2.133   1.049  2.2731  2.6997  0.0993
  366MOL0     H49410   7.352   2.042   1.189 -3.1545  0.3857  0.6154
  367MOL0     O49411   9.412   0.048   6.820  0.4927 -0.2391 -0.0689
  367MOL0     C49412   9.327   0.085   6.900  0.3974  0.4832 -0.0292
  367MOL0     O49413   9.348   0.113   7.029  0.2351  0.2861  0.1537
  367MOL0     C49414   9.469   0.095   7.096 -1.5086 -0.7019  0.2726
  367MOL0     C49415   9.579   0.169   7.052 -0.0951 -0.2703  0.4099
  367MOL0     C49416   9.697   0.168   7.124 -0.2191 -0.3389  0.8253
  367MOL0     C49417   9.706   0.101   7.245  0.4111  0.9434  0.0285
  367MOL0     O49418   9.817   0.068   7.319 -0.2354  0.4664 -0.5655
  367MOL0     C49419   9.931   0.140   7.276  0.3257 -0.2754  0.3283
  367MOL0     C49420  10.054   0.116   7.354  0.9901 -0.6693 -0.2993
  367MOL0     C49421  10.057   0.172   7.498  0.7591 -0.6098  1.1389
  367MOL0     C49422  10.182   0.117   7.575  0.9166 -0.0625 -0.5533
  367MOL0     C49423  10.170   0.169   7.721 -1.1466  0.9318  0.2706
  367MOL0     C49424  10.184   0.317   7.741  0.7401  0.1356  0.0623
  367MOL0     C49425  10.183   0.345   7.889 -0.5390 -0.5915  0.2761
  367MOL0     C49426  10.047   0.332   7.954 -0.0264  0.7650 -0.8575
  367MOL0     N49427  10.071   0.388   8.088 -0.0489 -0.5397  0.4402
  367MOL0     C49428  10.016   0.508   8.119 -0.9192 -0.0412 -0.1807
  367MOL0     C49429  10.037   0.520   8.247 -0.3860  1.1591  0.4362
  367MOL0     C49430   9.997   0.640   8.329 -0.0878 -0.5981 -0.6371
  367MOL0     C49431  10.061   0.783   8.307  0.1260  1.3336 -0.7772
  367MOL0     C49432  10.116   0.842   8.448 -0.0269  1.0781  0.4955
  367MOL0     C49433  10.009   0.883   8.547 -0.2092  0.2458 -0.2513
  367MOL0     O49434   9.988   0.765   8.637  0.5196  0.0362  0.4518
  367MOL0     C49435  10.072   0.731   8.745  0.9526  0.2866 -0.1263
  367MOL0     C49436  10.100   0.601   8.774  0.3316  0.0226 -0.5036
  367MOL0     C49437  10.175   0.563   8.887  0.7720  0.6551 -0.1318
  367MOL0     C49438  10.212   0.414   8.903 -0.3738 -0.2880  0.6236
  367MOL0     C49439  10.207   0.663   8.982  1.8110  0.1749  0.3898
  367MOL0     C49440  10.288   0.647   9.105  0.5627  0.1669 -0.4744
  367MOL0     O49441  10.282   0.739   9.207  0.3381  0.2367  0.1272
  367MOL0     C49442  10.339   0.703   9.328  0.9873  0.0584 -0.2798
  367MOL0     C49443  10.452   0.783   9.362  0.8246  0.1999 -0.4761
  367MOL0     C49444  10.504   0.770   9.491  0.1855 -1.1253  0.8504
  367MOL0     C49445  10.440   0.692   9.589  1.1154  0.3305  0.6524
  367MOL0     O49446  10.493   0.668   9.716  1.0564 -0.2230  0.2939
  367MOL0     C49447  10.578   0.768   9.769 -0.2671 -0.2612 -0.8655
  367MOL0     C49448  10.647   0.709   9.895 -0.9768 -0.8066 -0.6550
  367MOL0     C49449  10.752   0.598   9.872  0.9330  0.1720  0.3262
  367MOL0     C49450  10.851   0.577   9.978 -0.0753 -0.1281  0.5554
  367MOL0     C49451  10.992   0.511   9.918 -0.2819 -0.0640 -0.3332
  367MOL0     C49452  11.084   0.469  10.036  0.2956  0.5621  0.3952
  367MOL0     C49453  11.235   0.492  10.001 -0.2793 -0.6387  0.2299
  367MOL0     C49454  11.280   0.418   9.880  0.6151  0.5157 -0.0995
  367MOL0    Cl49455  11.304   0.239   9.928 -0.2191  0.3486 -0.1758
  367MOL0     C49456  10.331   0.615   9.557  0.2433  0.6636  0.6175
  367MOL0     C49457  10.276   0.629   9.429  0.4477 -0.5754  0.5294
  367MOL0     O49458  10.364   0.550   9.104  0.3853  0.7415 -0.9134
  367MOL0     C49459  10.192   0.798   8.948 -0.0967  0.1428 -0.4618
  367MOL0     C49460  10.124   0.827   8.829  0.0711  0.2926 -0.3751
  367MOL0     N49461  10.114   0.426   8.292 -0.0425 -0.2608 -0.1335
  367MOL0     N49462  10.130   0.334   8.200 -0.1400 -1.0414  0.1412
  367MOL0     C49463   9.587   0.045   7.297 -0.3027 -0.9207 -0.2059
  367MOL0     C49464   9.470   0.043   7.221 -0.0781  0.3013 -0.6303
  367MOL0     C49465   9.185   0.088   6.858 -0.2276 -0.2452 -1.0067
  367MOL0     C49466   9.141   0.073   6.726 -0.4582 -0.3843  1.3226
  367MOL0     C49467   9.003   0.093   6.691 -0.8736  0.3985 -1.2583
  367MOL0     C49468   8.909   0.130   6.796 -0.4393 -0.5183 -0.1553
  367MOL0     O49469   8.768   0.144   6.787  0.1616  0.2166 -0.0388
  367MOL0     C49470   8.703   0.151   6.662  0.0162  0.0308 -0.7184
  367MOL0     C49471   8.637   0.020   6.629  0.5612 -0.5860  0.1446
  367MOL0     C49472   8.561   0.028   6.484  1.0019  0.2648 -0.5269
  367MOL0     C49473   8.434   0.124   6.472  0.2365  0.1480  0.6111
  367MOL0     C49474   8.380   0.113   6.336  0.6626 -0.4979 -0.1328
  367MOL0     C49475   8.346   0.115   6.218  1.6784 -0.4050  0.9568
  367MOL0     C49476   8.950   0.135   6.929 -0.7851 -1.2367  0.5584
  367MOL0     C49477   9.082   0.124   6.956  0.6472  1.0639  0.0208
  367MOL0     H49478   9.575   0.228   6.961 -2.0518 -2.2340 -0.8556
  367MOL0     H49479   9.782   0.218   7.079 -1.3258  0.0764 -0.8849
  367MOL0     H49480   9.965   0.098   7.181 -2.3132 -0.6372 -0.5251
  367MOL0     H49481   9.913   0.247   7.260  1.7610 -0.2874 -1.6004
  367MOL0     H49482  10.076   0.009   7.360  1.9732 -0.3944  1.4463
  367MOL0     H49483  10.138   0.164   7.303 -0.1694  1.2072 -0.5204
  367MOL0     H49484  10.058   0.280   7.484  3.9893 -0.8944 -2.8832
  367MOL0     H49485   9.966   0.148   7.555  0.6227  1.6980  1.9904
  367MOL0     H49486  10.177   0.008   7.575 -1.3200 -0.0175  0.0008
  367MOL0     H49487  10.273   0.144   7.521  1.2612  1.5246  0.7415
  367MOL0     H49488  10.071   0.139   7.756 -0.7195 -1.1265 -0.1391
  367MOL0     H49489  10.250   0.123   7.780 -2.6487  1.9647  3.2980
  367MOL0     H49490  10.273   0.349   7.684  2.1238  0.4874  2.3015
  367MOL0     H49491  10.100   0.371   7.697  0.4057 -0.4417 -0.0132
  367MOL0     H49492  10.244   0.274   7.945 -2.9324 -3.4224 -0.4629
  367MOL0     H49493  10.216   0.448   7.909 -3.3874  0.3674  0.4758
  367MOL0     H49494  10.012   0.229   7.965  1.0675  0.6252  2.3436
  367MOL0     H49495   9.964   0.391   7.914 -0.4933  0.1265 -0.8557
  367MOL0     H49496   9.962   0.564   8.043  0.6364  1.0610 -0.5149
  367MOL0     H49497   9.887   0.637   8.330 -0.1441  1.0406  0.1327
  367MOL0     H49498  10.015   0.615   8.434 -0.5912  0.5903 -0.2458
  367MOL0     H49499   9.997   0.848   8.246 -0.0171  0.6285 -1.3875
  367MOL0     H49500  10.152   0.764   8.250 -0.0444  1.3955 -1.0671
  367MOL0     H49501  10.161   0.934   8.411 -0.9792  0.9035 -1.2009
  367MOL0     H49502  10.196   0.781   8.490  0.0083  0.7641 -0.0099
  367MOL0     H49503   9.925   0.917   8.485 -0.1221  1.9044  0.4815
  367MOL0     H49504  10.052   0.967   8.603 -1.6364  0.5763  0.4041
  367MOL0     H49505  10.060   0.534   8.699 -1.5184  1.0504 -0.4736
  367MOL0     H49506  10.196   0.359   8.809 -1.0582  1.3582 -0.2597
  367MOL0     H49507  10.318   0.406   8.929  0.9257  2.6078 -2.9472
  367MOL0     H49508  10.149   0.364   8.977  0.4192 -0.3399  1.2807
  367MOL0     H49509  10.495   0.839   9.280  3.2180 -1.4590 -0.4751
  367MOL0     H49510  10.589   0.834   9.513  0.3302 -1.3954  1.0856
  367MOL0     H49511  10.668   0.798   9.715  2.5237 -1.1363  2.8874
  367MOL0     H49512  10.518   0.857   9.790  0.2618 -0.4401  1.7218
  367MOL0     H49513  10.708   0.788   9.941  1.8853 -3.2033  0.0343
  367MOL0     H49514  10.563   0.675   9.955  0.0579 -2.5299 -0.1061
  367MOL0     H49515  10.799   0.633   9.780  2.0048 -2.0962 -0.0444
  367MOL0     H49516  10.701   0.504   9.849  0.5717 -0.8217  4.4149
  367MOL0     H49517  10.874   0.674  10.024  1.7623 -1.2857  2.2064
  367MOL0     H49518  10.805   0.499  10.038 -2.9887 -0.9801 -2.4806
  367MOL0     H49519  11.044   0.587   9.859  0.8456 -1.5759 -1.3747
  367MOL0     H49520  10.972   0.427   9.851  2.0516 -0.4268 -0.6487
  367MOL0     H49521  11.055   0.527  10.125 -0.0452  1.4977 -0.2991
  367MOL0     H49522  11.058   0.367  10.063 -2.5587  0.4246 -2.2794
  367MOL0     H49523  11.290   0.469  10.093 -0.3271  0.7082  0.6135
  367MOL0     H49524  11.254   0.596   9.974 -0.7721 -1.1233 -2.1456
  367MOL0     H49525  11.382   0.451   9.858  1.7985 -1.2308  2.4124
  367MOL0     H49526  11.212   0.445   9.798 -1.0734  2.0478  1.6889
  367MOL0     H49527  10.281   0.560   9.637  1.3760 -1.0855  0.1821
  367MOL0     H49528  10.184   0.575   9.406  0.1896  0.2622 -0.4744
  367MOL0     H49529  10.224   0.880   9.011  0.4684 -0.1520 -0.3558
  367MOL0     H49530  10.093   0.930   8.814  1.9801  0.8459 -0.7995
  367MOL0     H49531   9.587  -0.003   7.394 -3.2562  1.6213  1.2205
  367MOL0     H49532   9.381  -0.001   7.263 -1.1337  4.5607  2.2758
  367MOL0     H49533   9.208   0.061   6.641 -2.4587 -0.7227 -0.2678
  367MOL0     H49534   8.966   0.088   6.589  2.1504 -3.5532 -2.4374
  367MOL0     H49535   8.635   0.235   6.682  3.4193  3.0140 -0.6500
  367MOL0     H49536   8.771   0.186   6.584  1.3166  0.2870  0.5037
  367MOL0     H49537   8.565   0.006   6.710 -0.5389 -1.1900 -0.8962
  367MOL0     H49538   8.723  -0.048   6.639  0.9182 -0.0425  0.8854
  367MOL0     H49539   8.534  -0.070   6.444  2.7228 -1.8266  2.9404
  367MOL0     H49540   8.642   0.052   6.415 -0.6816 -0.5765 -2.9124
  367MOL0     H49541   8.469   0.227   6.481  2.8526 -0.5074 -1.0683
  367MOL0     H49542   8.356   0.097   6.544  1.0237  1.1967  1.8940
  367MOL0     H49543   8.304   0.116   6.119 -2.3325  0.5166  2.5180
  367MOL0     H49544   8.884   0.159   7.011 -1.8645  1.3022 -0.8979
  367MOL0     H49545   9.122   0.142   7.055  3.4056 -2.0366 -0.3817
  368MOL0     O49546  11.387   2.575  10.390  0.4376  0.5215 -0.1908
  368MOL0     C49547  11.345   2.488  10.473  0.1471 -0.5541  0.8331
  368MOL0     O49548  11.422   2.410  10.548  0.5217  0.1839 -0.3831
  368MOL0     C49549  11.559   2.414  10.528 -0.8930 -0.2605 -0.9802
  368MOL0     C49550  11.631   2.532  10.537  0.1791  0.5225  0.2790
  368MOL0     C49551  11.768   2.533  10.523 -0.5534 -0.1797 -0.7004
  368MOL0     C49552  11.844   2.414  10.509  0.5080 -0.2254 -0.8301
  368MOL0     O49553  11.975   2.401  10.516  0.0841  0.0814  0.5986
  368MOL0     C49554  12.041   2.454  10.396  0.1602 -0.3984 -0.2207
  368MOL0     C49555  12.183   2.398  10.400 -0.3964 -0.4410 -0.4775
  368MOL0     C49556  12.264   2.432  10.277  0.2807 -0.7412 -0.0660
  368MOL0     C49557  12.287   2.580  10.275  0.9884 -0.7492 -0.2574
  368MOL0     C49558  12.378   2.622  10.162 -0.1222 -0.3897  0.3489
  368MOL0     C49559  12.387   2.774  10.136 -0.2108 -0.2967 -0.4953
  368MOL0     C49560  12.254   2.841  10.109  0.6589  0.4664 -0.5148
  368MOL0     C49561  12.182   2.789   9.980 -0.9950 -0.5627  0.4744
  368MOL0     N49562  12.034   2.789   9.985 -0.0122 -0.3095 -0.2526
  368MOL0     C49563  11.952   2.725  10.085 -0.4564 -0.6947 -0.1807
  368MOL0     C49564  11.834   2.694  10.024  0.2295 -0.1737 -0.2906
  368MOL0     C49565  11.705   2.651  10.097 -0.3038 -0.4764 -0.6502
  368MOL0     C49566  11.695   2.496  10.097 -0.2316 -0.2374 -0.2347
  368MOL0     C49567  11.623   2.436   9.972  0.1689  0.2453  0.2904
  368MOL0     C49568  11.484   2.459   9.948  0.4744 -0.8286 -0.3756
  368MOL0     O49569  11.402   2.402  10.056  0.4502 -0.4813 -0.2847
  368MOL0     C49570  11.266   2.400  10.056 -0.2955 -0.3782  0.3790
  368MOL0     C49571  11.193   2.441   9.945 -1.1709  0.0056 -0.2421
  368MOL0     C49572  11.053   2.427   9.926 -0.1308  0.5438 -0.7537
  368MOL0     C49573  10.988   2.463   9.802  0.8258 -1.4413 -0.3160
  368MOL0     C49574  10.983   2.371  10.038  0.3862 -0.3252  0.3427
  368MOL0     C49575  10.831   2.363  10.049  0.8356 -1.0498 -0.6443
  368MOL0     O49576  10.781   2.268  10.139  0.0049  0.5175  0.6744
  368MOL0     C49577  10.651   2.223  10.141  0.1668 -0.1361 -0.6207
  368MOL0     C49578  10.619   2.140  10.251 -0.2373 -0.0958 -0.1062
  368MOL0     C49579  10.493   2.075  10.261  0.1049 -0.8210 -1.0669
  368MOL0     C49580  10.400   2.085  10.161  0.6049 -0.8910  0.7205
  368MOL0     O49581  10.288   2.008  10.167 -0.5631  0.9908 -0.3913
  368MOL0     C49582  10.221   1.951  10.047  0.1704  0.3186 -0.0497
  368MOL0     C49583  10.156   1.818  10.095 -0.4029 -0.2031 -0.4769
  368MOL0     C49584  10.105   1.735   9.971  0.0978  0.2692 -0.4769
  368MOL0     C49585  10.045   1.599  10.014  0.5823  0.5724 -0.3773
  368MOL0     C49586   9.982   1.516   9.897 -0.3629  0.1723 -0.4770
  368MOL0     C49587   9.943   1.367   9.923 -0.2064 -1.1024 -0.1901
  368MOL0     C49588   9.814   1.346  10.006 -0.2769  0.8431 -0.4262
  368MOL0     C49589   9.780   1.194   9.994 -0.9272 -0.1968 -0.0069
  368MOL0    Cl49590   9.607   1.166  10.044 -0.3207  0.1364  0.1010
  368MOL0     C49591  10.424   2.177  10.058 -0.0691  0.7719  0.3007
  368MOL0     C49592  10.550   2.243  10.045  0.1646  0.7023  0.0383
  368MOL0     O49593  10.758   2.457  10.008 -0.3364 -0.3223 -1.3172
  368MOL0     C49594  11.064   2.328  10.156  0.5490 -0.9978 -0.2424
  368MOL0     C49595  11.202   2.356  10.168 -0.9013 -0.5083 -0.0463
  368MOL0     N49596  11.841   2.739   9.888  0.0845  0.1205  0.2427
  368MOL0     N49597  11.957   2.802   9.872 -0.5300 -0.5858 -0.1702
  368MOL0     C49598  11.764   2.295  10.492 -0.5496  0.8445 -0.3536
  368MOL0     C49599  11.632   2.291  10.509  0.2353  0.4732 -0.2903
  368MOL0     C49600  11.195   2.475  10.490  0.0904 -0.3265  0.0304
  368MOL0     C49601  11.140   2.360  10.562  0.0224 -0.0691 -0.3899
  368MOL0     C49602  11.003   2.338  10.575 -0.1100 -0.2396  0.4986
  368MOL0     C49603  10.916   2.427  10.510 -0.8674 -0.4415  0.0278
  368MOL0     O49604  10.783   2.385  10.508  0.4572 -0.1057  0.5234
  368MOL0     C49605  10.699   2.442  10.400  0.5393  0.5295 -0.0082
  368MOL0     C49606  10.637   2.581  10.442  0.3598  0.0452  0.4292
  368MOL0     C49607  10.510   2.571  10.538  0.3690 -0.7340  0.7952
  368MOL0     C49608  10.515   2.651  10.668  0.2728  0.5879  0.0995
  368MOL0     C49609  10.640   2.651  10.741  0.2747 -0.1321  0.2755
  368MOL0     C49610  10.745   2.645  10.796 -0.9243  0.4575 -1.0977
  368MOL0     C49611  10.965   2.536  10.438 -0.7459 -0.5022 -0.4347
  368MOL0     C49612  11.102   2.558  10.424  0.1615 -0.6989 -0.1182
  368MOL0     H49613  11.595   2.635  10.534  0.3229  0.5774  0.4522
  368MOL0     H49614  11.822   2.627  10.529  0.2301 -0.5973 -1.0667
  368MOL0     H49615  11.983   2.429  10.307 -0.6829  1.1821 -0.1506
  368MOL0     H49616  12.042   2.563  10.403 -3.7483 -0.1642 -1.0856
  368MOL0     H49617  12.230   2.452  10.482 -1.5792  1.3818 -0.9434
  368MOL0     H49618  12.176   2.291  10.421  0.0155 -0.4312 -0.2851
  368MOL0     H49619  12.365   2.390  10.284  0.3476 -0.3755  1.9257
  368MOL0     H49620  12.215   2.394  10.187  0.5514  1.1233 -1.0429
  368MOL0     H49621  12.186   2.616  10.255  1.4346 -0.0203 -1.2719
  368MOL0     H49622  12.312   2.617  10.376 -1.7374 -0.2808  0.3198
  368MOL0     H49623  12.472   2.581  10.199 -0.5827 -0.7639  1.1384
  368MOL0     H49624  12.359   2.570  10.068  1.2006  2.6207 -1.7435
  368MOL0     H49625  12.436   2.818  10.224  2.6716 -0.1599 -2.0484
  368MOL0     H49626  12.447   2.784  10.045  0.9890 -0.8832  0.2057
  368MOL0     H49627  12.196   2.829  10.201  2.6103 -2.9817  0.4481
  368MOL0     H49628  12.279   2.947  10.095  2.4991 -0.0145 -1.2450
  368MOL0     H49629  12.201   2.684   9.954 -2.9348 -0.7184 -0.4431
  368MOL0     H49630  12.223   2.839   9.892  0.3685  0.4724  1.6359
  368MOL0     H49631  11.982   2.715  10.189 -0.6964 -2.5906 -0.2418
  368MOL0     H49632  11.717   2.681  10.202  0.4567 -2.2376 -0.2044
  368MOL0     H49633  11.616   2.701  10.057 -0.9413 -3.0154 -2.6329
  368MOL0     H49634  11.623   2.464  10.172 -0.0604  0.3606  0.1822
  368MOL0     H49635  11.792   2.446  10.102 -0.2304 -0.7073 -3.1246
  368MOL0     H49636  11.627   2.327   9.966 -2.5066  0.0653  0.3181
  368MOL0     H49637  11.677   2.486   9.891  1.3871  0.6136  1.2954
  368MOL0     H49638  11.450   2.416   9.853  0.5414  0.8971 -1.2167
  368MOL0     H49639  11.464   2.566   9.947  0.2831 -0.8619 -0.9899
  368MOL0     H49640  11.240   2.488   9.860 -1.3851  0.5609 -0.0583
  368MOL0     H49641  10.976   2.571   9.787  3.3248 -0.6892  2.1606
  368MOL0     H49642  11.050   2.431   9.717  3.1669  1.9542 -0.0699
  368MOL0     H49643  10.890   2.417   9.791 -0.9195  1.2584  2.5511
  368MOL0     H49644  10.692   2.122  10.329 -0.0125  0.2843 -0.2269
  368MOL0     H49645  10.487   2.004  10.343  2.4415 -0.3404 -0.3722
  368MOL0     H49646  10.136   2.017  10.026  0.8327  0.7283 -1.5541
  368MOL0     H49647  10.282   1.940   9.957  0.2886 -0.5936  0.1319
  368MOL0     H49648  10.227   1.757  10.151 -3.1716 -2.7053  0.5703
  368MOL0     H49649  10.082   1.836  10.174 -0.8282  0.2510 -0.9747
  368MOL0     H49650  10.187   1.702   9.907  0.4852 -5.4029  2.2503
  368MOL0     H49651  10.030   1.790   9.914  0.3414  1.5434  0.4108
  368MOL0     H49652  10.120   1.541  10.067  0.1904 -2.0392 -2.5034
  368MOL0     H49653   9.965   1.626  10.085 -0.4984 -0.0693 -1.3194
  368MOL0     H49654  10.038   1.520   9.803 -3.1414  0.6666 -2.2288
  368MOL0     H49655   9.886   1.563   9.870  0.7831  1.8783 -1.7927
  368MOL0     H49656   9.924   1.335   9.820 -0.3579  0.8136 -0.8113
  368MOL0     H49657  10.035   1.324   9.962  1.5285  2.5764  0.2211
  368MOL0     H49658   9.726   1.402   9.974 -1.2758  1.3352  2.8719
  368MOL0     H49659   9.813   1.381  10.109 -1.2270 -0.4770  0.0530
  368MOL0     H49660   9.849   1.136  10.056 -0.9294 -1.4845 -1.1621
  368MOL0     H49661   9.786   1.159   9.891 -0.9659 -1.2934  0.3451
  368MOL0     H49662  10.358   2.172   9.972  1.8615  0.1906 -1.2464
  368MOL0     H49663  10.563   2.288   9.948  3.8989 -0.2479 -0.0440
  368MOL0     H49664  11.016   2.290  10.245 -0.8373  0.7353 -0.2065
  368MOL0     H49665  11.268   2.328  10.250 -0.1622  2.6640  0.5776
  368MOL0     H49666  11.829   2.211  10.469 -0.8843  0.6440 -0.5789
  368MOL0     H49667  11.581   2.198  10.489 -0.5090  1.1300 -1.5849
  368MOL0     H49668  11.216   2.303  10.614  0.5138  0.5179 -0.4550
  368MOL0     H49669  10.966   2.256  10.637  1.7732 -1.9919 -0.5670
  368MOL0     H49670  10.750   2.441  10.304 -0.5173 -1.5590 -0.6185
  368MOL0     H49671  10.616   2.374  10.381  1.4093 -1.0025  1.3809
  368MOL0     H49672  10.610   2.632  10.349 -2.1051 -3.6996 -1.1855
  368MOL0     H49673  10.705   2.648  10.495 -1.8789  1.6191  1.4292
  368MOL0     H49674  10.492   2.466  10.562 -0.3280 -0.5227  1.2295
  368MOL0     H49675  10.424   2.615  10.487  0.4936 -3.2958 -1.8939
  368MOL0     H49676  10.431   2.617  10.730  3.2384 -0.1744  4.1104
  368MOL0     H49677  10.490   2.753  10.639 -0.6998  0.0089 -1.2084
  368MOL0     H49678  10.840   2.634  10.846 -1.8790  0.1968  0.7575
  368MOL0     H49679  10.910   2.616  10.388 -0.7083  0.0362  0.3668
  368MOL0     H49680  11.141   2.637  10.362 -0.1576 -1.5071 -1.3741
  369MOL0     O49681   8.396   7.691   4.256 -0.2435  0.1352 -0.0376
  369MOL0     C49682   8.290   7.753   4.248  0.1864 -0.6333  0.4009
  369MOL0     O49683   8.277   7.884   4.260  0.3530 -0.0711 -0.2965
  369MOL0     C49684   8.388   7.960   4.254 -0.4482 -0.7224 -0.5379
  369MOL0     C49685   8.473   7.973   4.134  0.1144  0.2330  0.5101
  369MOL0     C49686   8.577   8.065   4.137 -0.5911 -0.0849  0.0923
  369MOL0     C49687   8.587   8.147   4.250  0.1002  0.4924  0.3805
  369MOL0     O49688   8.672   8.253   4.234  0.0506 -0.3859  0.5424
  369MOL0     C49689   8.690   8.346   4.343  0.9007  0.8191  0.3233
  369MOL0     C49690   8.804   8.446   4.322  0.1732 -0.1172  0.1152
  369MOL0     C49691   8.810   8.539   4.440  0.1221  0.2287  0.4577
  369MOL0     C49692   8.852   8.467   4.564  0.1037 -0.2015 -0.2721
  369MOL0     C49693   8.918   8.567   4.657  0.3826 -0.4626  0.5260
  369MOL0     C49694   9.059   8.607   4.626  0.7248 -0.3666  0.3318
  369MOL0     C49695   9.120   8.708   4.731  0.4052 -0.2728 -0.0268
  369MOL0     C49696   9.106   8.675   4.879  0.2358 -0.8184  0.3869
  369MOL0     N49697   9.184   8.780   4.959 -0.3742 -0.1437  0.3313
  369MOL0     C49698   9.323   8.783   4.948  0.0487  0.7826 -0.5403
  369MOL0     C49699   9.363   8.852   5.064 -0.0299  0.1307 -0.0391
  369MOL0     C49700   9.512   8.883   5.107  0.3512  1.4858  1.0581
  369MOL0     C49701   9.574   8.763   5.180 -0.3358 -0.5177  0.5732
  369MOL0     C49702   9.722   8.780   5.220 -1.0678 -0.6020 -0.0056
  369MOL0     C49703   9.748   8.864   5.335 -0.1257 -0.6359 -1.0065
  369MOL0     O49704   9.710   8.783   5.455 -0.1374 -0.3534  0.5753
  369MOL0     C49705   9.706   8.844   5.579 -0.3085 -0.2377 -0.2662
  369MOL0     C49706   9.802   8.940   5.623  0.1626  0.0220  0.2802
  369MOL0     C49707   9.806   9.002   5.759  0.4545  0.5378 -1.0599
  369MOL0     C49708   9.897   9.120   5.785  0.5098  0.0131  0.2570
  369MOL0     C49709   9.721   8.947   5.864 -0.9150 -0.7641 -0.9840
  369MOL0     C49710   9.712   8.989   6.005 -0.0796 -0.0894 -0.0644
  369MOL0     O49711   9.651   8.906   6.091 -0.0613 -0.1090  0.6387
  369MOL0     C49712   9.647   8.945   6.214  0.8557  0.0185  0.2850
  369MOL0     C49713   9.709   8.866   6.308 -0.1474 -0.0021 -0.2245
  369MOL0     C49714   9.700   8.901   6.453 -0.4475  0.5220  0.0277
  369MOL0     C49715   9.629   9.014   6.490 -0.1783 -0.3881 -0.5106
  369MOL0     O49716   9.625   9.052   6.621  0.2827 -0.1195  0.1232
  369MOL0     C49717   9.758   9.088   6.677  0.7598 -0.4879  0.6460
  369MOL0     C49718   9.725   9.097   6.826  0.0940  0.5149  0.3296
  369MOL0     C49719   9.862   9.118   6.898 -0.1439  0.7850 -0.0193
  369MOL0     C49720   9.919   8.985   6.946 -0.5733  0.2444 -0.1447
  369MOL0     C49721  10.058   8.939   6.891  0.0717 -0.2475 -0.2145
  369MOL0     C49722  10.081   8.815   6.965 -0.1376 -0.5397  0.3908
  369MOL0     C49723  10.191   8.730   6.901 -0.4423  0.8499 -1.2984
  369MOL0     C49724  10.329   8.784   6.869  0.7645 -0.7008 -0.2720
  369MOL0    Cl49725  10.404   8.860   7.012  0.1278  0.0334 -0.7035
  369MOL0     C49726   9.552   9.087   6.397  0.0260  0.1508  0.3913
  369MOL0     C49727   9.568   9.057   6.261  0.0045 -0.2985 -0.4158
  369MOL0     O49728   9.757   9.095   6.033  0.3494 -0.6689 -0.4778
  369MOL0     C49729   9.645   8.830   5.819 -0.1982 -0.7244 -0.4151
  369MOL0     C49730   9.624   8.791   5.680  0.2203 -0.7099 -0.1349
  369MOL0     N49731   9.242   8.904   5.125  0.2350  0.0613 -0.1504
  369MOL0     N49732   9.138   8.854   5.061 -0.9097 -0.8337  0.3477
  369MOL0     C49733   8.515   8.120   4.370 -0.3573  0.0770  0.4258
  369MOL0     C49734   8.421   8.021   4.378 -0.2756 -0.2461  0.4236
  369MOL0     C49735   8.168   7.665   4.220 -0.1359  0.6198 -0.0529
  369MOL0     C49736   8.035   7.716   4.201  0.0447  0.3206  0.2396
  369MOL0     C49737   7.922   7.639   4.179  0.4163 -0.2310  0.3986
  369MOL0     C49738   7.936   7.502   4.176  0.3524 -0.4502 -0.4447
  369MOL0     O49739   7.837   7.403   4.138  0.8525  0.2014  0.1856
  369MOL0     C49740   7.697   7.438   4.142 -0.3322  0.4257  0.1203
  369MOL0     C49741   7.665   7.445   4.299  0.2337 -0.0602  0.4109
  369MOL0     C49742   7.513   7.449   4.317  0.5631 -1.1186 -0.6832
  369MOL0     C49743   7.465   7.315   4.328 -0.0412  0.6713  0.7668
  369MOL0     C49744   7.431   7.250   4.204 -1.0165  0.1819 -0.6524
  369MOL0     C49745   7.416   7.185   4.105 -1.2022  0.4906  0.6170
  369MOL0     C49746   8.070   7.454   4.175 -0.0310  0.9986  1.6432
  369MOL0     C49747   8.180   7.531   4.195 -0.4050  0.1662 -0.6093
  369MOL0     H49748   8.457   7.908   4.049  1.7381 -4.2161  3.2566
  369MOL0     H49749   8.631   8.083   4.044 -4.1947  2.2211 -1.8176
  369MOL0     H49750   8.595   8.399   4.352 -0.0329 -1.1203  3.1076
  369MOL0     H49751   8.696   8.296   4.440 -0.6893 -0.7419 -0.3186
  369MOL0     H49752   8.902   8.399   4.312  0.9384  1.2443  1.0048
  369MOL0     H49753   8.783   8.503   4.231 -0.6652  2.9637  2.0995
  369MOL0     H49754   8.885   8.614   4.412  2.3523 -2.4484 -1.2874
  369MOL0     H49755   8.726   8.604   4.463  0.4127  0.6839  0.2622
  369MOL0     H49756   8.773   8.423   4.625  3.2640 -0.8124  3.7786
  369MOL0     H49757   8.919   8.384   4.542 -0.8737 -0.9556 -0.4789
  369MOL0     H49758   8.860   8.660   4.647  0.9764  0.0967  1.9786
  369MOL0     H49759   8.917   8.530   4.760 -0.7061  1.7270  1.3713
  369MOL0     H49760   9.114   8.513   4.615  0.3772 -0.6179  0.7317
  369MOL0     H49761   9.055   8.652   4.526 -1.7759  1.5423  1.1686
  369MOL0     H49762   9.223   8.717   4.696  0.0056  1.5857 -0.8190
  369MOL0     H49763   9.068   8.804   4.731  3.3963  1.4748  0.0369
  369MOL0     H49764   9.145   8.576   4.905  1.8066 -0.2974  0.0965
  369MOL0     H49765   9.001   8.687   4.908 -0.2725  0.3950 -1.7492
  369MOL0     H49766   9.408   8.750   4.890  3.1490  3.0664  2.3374
  369MOL0     H49767   9.577   8.908   5.023 -0.6769 -0.3458 -0.3517
  369MOL0     H49768   9.513   8.969   5.176  0.6210  0.9313  1.7573
  369MOL0     H49769   9.559   8.671   5.122 -0.6929  0.0110 -0.1871
  369MOL0     H49770   9.510   8.741   5.266 -0.4583  0.0965  0.6455
  369MOL0     H49771   9.772   8.834   5.140  4.6505 -2.2553  1.9760
  369MOL0     H49772   9.783   8.689   5.226  0.0816 -0.1848 -3.3896
  369MOL0     H49773   9.690   8.956   5.320 -1.2276 -1.3161 -1.0516
  369MOL0     H49774   9.851   8.899   5.338 -1.0315  2.2833 -0.8197
  369MOL0     H49775   9.869   8.981   5.548 -0.4397 -0.9119 -0.7867
  369MOL0     H49776   9.982   9.131   5.717  0.0522  0.3612 -0.2759
  369MOL0     H49777   9.834   9.208   5.772  2.7640  1.4521 -1.7746
  369MOL0     H49778   9.941   9.116   5.885  1.9581 -0.6535 -0.3829
  369MOL0     H49779   9.770   8.783   6.275 -1.3812 -0.7094 -0.8175
  369MOL0     H49780   9.757   8.851   6.530  2.9442  5.6507  1.3179
  369MOL0     H49781   9.830   9.008   6.658 -0.2866 -1.1961 -0.4937
  369MOL0     H49782   9.793   9.189   6.654 -0.1379  0.4068  2.8698
  369MOL0     H49783   9.648   9.173   6.842 -0.8872 -0.6706  1.4204
  369MOL0     H49784   9.686   8.998   6.853  1.0263 -0.0643 -0.3654
  369MOL0     H49785   9.834   9.180   6.984 -1.6195 -1.0144  0.8735
  369MOL0     H49786   9.937   9.180   6.847  0.5928 -0.1194 -0.0716
  369MOL0     H49787   9.920   8.989   7.055 -2.0377 -1.0320 -0.0546
  369MOL0     H49788   9.848   8.906   6.919  0.9041 -1.8380  1.6868
  369MOL0     H49789  10.131   9.018   6.908  0.3094 -0.2263 -1.2318
  369MOL0     H49790  10.050   8.915   6.784  0.5043  0.8715 -0.5141
  369MOL0     H49791  10.095   8.828   7.072 -3.7193  3.5938  0.6465
  369MOL0     H49792   9.991   8.752   6.962 -0.3603 -0.2066 -1.6226
  369MOL0     H49793  10.162   8.679   6.809 -1.3461 -0.9250 -0.0802
  369MOL0     H49794  10.212   8.644   6.965  0.5277  2.9435  1.4472
  369MOL0     H49795  10.324   8.863   6.793 -1.1824 -1.3566 -0.8881
  369MOL0     H49796  10.382   8.701   6.823  1.6848 -0.2372 -0.0694
  369MOL0     H49797   9.499   9.175   6.432 -0.8964  0.2029 -1.0680
  369MOL0     H49798   9.512   9.111   6.186  0.0428 -0.4495 -0.5525
  369MOL0     H49799   9.581   8.779   5.890 -0.6485  0.5238  0.1013
  369MOL0     H49800   9.545   8.726   5.645  0.4182 -0.6750 -0.6568
  369MOL0     H49801   8.538   8.192   4.449  1.1633  0.8933 -0.7134
  369MOL0     H49802   8.371   8.013   4.474  1.6514 -0.5904  1.4636
  369MOL0     H49803   8.018   7.823   4.210  0.1554  0.5368 -1.5618
  369MOL0     H49804   7.823   7.682   4.170 -0.4594 -2.0232  0.9739
  369MOL0     H49805   7.675   7.535   4.096 -1.5147  0.7495  1.2908
  369MOL0     H49806   7.643   7.362   4.084  1.3366  1.0699 -2.4351
  369MOL0     H49807   7.697   7.539   4.345  0.1861  0.1945 -0.0677
  369MOL0     H49808   7.717   7.366   4.352 -0.2431  0.5450  1.8382
  369MOL0     H49809   7.468   7.507   4.235 -0.4171 -2.3975 -1.0803
  369MOL0     H49810   7.502   7.501   4.413 -2.7355  1.6258 -2.3221
  369MOL0     H49811   7.389   7.305   4.405 -0.0420  0.3755  0.7320
  369MOL0     H49812   7.549   7.253   4.361  1.5031  1.5987 -1.1615
  369MOL0     H49813   7.421   7.126   4.016 -1.3523 -0.7268  1.3885
  369MOL0     H49814   8.075   7.347   4.155  0.2524  1.1181  1.0607
  369MOL0     H49815   8.276   7.481   4.199 -0.5405 -0.0067  2.2854
  370MOL0     O49816   7.295   4.529   9.757  0.2525  0.7771  0.2973
  370MOL0     C49817   7.416   4.559   9.747 -0.5406  0.3943  0.3832
  370MOL0     O49818   7.494   4.550   9.639  0.0978  0.1996  0.2265
  370MOL0     C49819   7.453   4.499   9.518 -0.6485  0.0464  1.0540
  370MOL0     C49820   7.511   4.560   9.402  0.8890 -0.7212 -0.5666
  370MOL0     C49821   7.477   4.516   9.275 -0.3141  0.4515 -0.7580
  370MOL0     C49822   7.404   4.400   9.261  0.3455  0.4689 -1.1711
  370MOL0     O49823   7.370   4.346   9.140  0.3327  0.2064  0.4326
  370MOL0     C49824   7.414   4.401   9.017 -0.5568  0.2681  0.2063
  370MOL0     C49825   7.372   4.338   8.883  0.5457  0.4751 -0.5970
  370MOL0     C49826   7.234   4.351   8.869  0.9621  0.7306  0.1190
  370MOL0     C49827   7.188   4.279   8.741 -0.1206 -0.1352  0.0138
  370MOL0     C49828   7.053   4.330   8.696 -0.0738  1.3150 -0.4225
  370MOL0     C49829   6.940   4.357   8.793  0.8669 -0.4602 -0.7027
  370MOL0     C49830   6.812   4.369   8.712  0.0051  0.4987 -0.7021
  370MOL0     C49831   6.697   4.433   8.801 -0.3361 -0.0738  0.9824
  370MOL0     N49832   6.566   4.433   8.732  0.2063  0.1946 -0.3768
  370MOL0     C49833   6.450   4.416   8.800 -0.0351  0.0822  0.5564
  370MOL0     C49834   6.351   4.471   8.711  0.1682  1.2085 -0.0013
  370MOL0     C49835   6.198   4.424   8.704 -0.0786  1.1562 -0.1125
  370MOL0     C49836   6.137   4.448   8.836  1.1534  0.7365 -0.5475
  370MOL0     C49837   6.164   4.591   8.895  0.1928 -0.2671 -0.1484
  370MOL0     C49838   6.170   4.712   8.806 -0.0145  0.6468  0.4093
  370MOL0     O49839   6.048   4.723   8.732 -0.5040  0.7383  0.4422
  370MOL0     C49840   6.020   4.840   8.661  0.2817  0.2376 -0.1325
  370MOL0     C49841   5.886   4.859   8.646 -0.0524 -0.1456  0.5376
  370MOL0     C49842   5.838   4.959   8.566 -0.2767 -0.3326 -1.2446
  370MOL0     C49843   5.681   4.964   8.554  0.0383  0.7677  0.6056
  370MOL0     C49844   5.930   5.054   8.515  0.0261 -0.8413 -0.0154
  370MOL0     C49845   5.881   5.158   8.429  0.2658  0.2743 -0.8491
  370MOL0     O49846   5.897   5.133   8.294 -0.2834 -0.0864  0.6257
  370MOL0     C49847   5.828   5.228   8.212  0.3627 -0.1346 -0.6101
  370MOL0     C49848   5.898   5.333   8.145 -0.4530  0.1251  0.0345
  370MOL0     C49849   5.831   5.432   8.070  0.0446  0.1557  0.3254
  370MOL0     C49850   5.689   5.408   8.044  0.1274  0.2891 -0.8334
  370MOL0     O49851   5.613   5.471   7.954 -0.0652 -0.1029 -0.0322
  370MOL0     C49852   5.684   5.530   7.849 -0.3607 -0.2521  0.1660
  370MOL0     C49853   5.590   5.542   7.726  0.5753 -0.6315  0.2966
  370MOL0     C49854   5.666   5.564   7.597 -0.2190  0.1962  0.6282
  370MOL0     C49855   5.726   5.434   7.536  0.4051  0.3576  0.5179
  370MOL0     C49856   5.828   5.448   7.424 -0.3288  0.0025 -0.3857
  370MOL0     C49857   5.940   5.551   7.452  0.0441 -1.1166  0.9661
  370MOL0     C49858   6.054   5.478   7.511  0.4871 -0.7457  0.6302
  370MOL0     C49859   6.161   5.580   7.559 -0.9965  0.2228  0.5205
  370MOL0    Cl49860   6.322   5.538   7.504 -0.3383  0.2037 -0.2252
  370MOL0     C49861   5.619   5.315   8.127  0.8957  1.1007  0.0345
  370MOL0     C49862   5.688   5.228   8.204  0.2726  0.5723 -0.5933
  370MOL0     O49863   5.812   5.247   8.474  0.3823 -0.4190  0.0340
  370MOL0     C49864   6.066   5.039   8.536  0.9910 -1.4816 -0.6244
  370MOL0     C49865   6.115   4.930   8.607  0.1955  0.9267 -0.2401
  370MOL0     N49866   6.414   4.513   8.604  0.2005 -0.2479  0.8211
  370MOL0     N49867   6.541   4.509   8.621 -1.0942  0.0994 -0.3708
  370MOL0     C49868   7.338   4.338   9.371  0.1187  0.0527  0.6868
  370MOL0     C49869   7.374   4.383   9.493  0.2149 -0.1419 -0.8031
  370MOL0     C49870   7.485   4.614   9.863 -0.5060  0.4566 -0.0585
  370MOL0     C49871   7.623   4.645   9.863  0.4013  0.4654 -0.0830
  370MOL0     C49872   7.681   4.713   9.969  1.1357 -0.7550 -0.1899
  370MOL0     C49873   7.610   4.740  10.086 -0.6261  0.0858  0.4490
  370MOL0     O49874   7.671   4.791  10.203  0.1348  0.4601  0.2016
  370MOL0     C49875   7.669   4.930  10.227 -0.2569  0.8089 -0.7704
  370MOL0     C49876   7.773   4.960  10.336 -0.1479  0.1374  0.1023
  370MOL0     C49877   7.712   4.933  10.476  0.7622 -0.1554  0.7054
  370MOL0     C49878   7.812   4.941  10.595 -0.1240 -0.2091 -1.0117
  370MOL0     C49879   7.854   5.080  10.620 -0.2977  0.0048  0.8003
  370MOL0     C49880   7.892   5.191  10.630 -0.1990 -0.0638 -0.7188
  370MOL0     C49881   7.474   4.693  10.086 -1.2939 -0.3828 -0.3592
  370MOL0     C49882   7.412   4.633   9.976 -0.6405 -0.6941 -0.3836
  370MOL0     H49883   7.571   4.650   9.414 -0.4695  0.4894 -2.3179
  370MOL0     H49884   7.523   4.568   9.192  2.2170  0.4523  0.5546
  370MOL0     H49885   7.358   4.495   9.023 -3.0298 -1.1325  0.6828
  370MOL0     H49886   7.521   4.421   9.013 -0.1519 -1.3277 -4.9667
  370MOL0     H49887   7.426   4.403   8.814  2.6304  2.5786  2.6993
  370MOL0     H49888   7.413   4.237   8.879 -0.2444  0.0394  1.1138
  370MOL0     H49889   7.172   4.310   8.949 -1.2495 -1.0614 -2.3717
  370MOL0     H49890   7.205   4.456   8.856 -1.5684  0.0738  0.1161
  370MOL0     H49891   7.251   4.283   8.652 -1.0649  1.1994 -0.6209
  370MOL0     H49892   7.185   4.171   8.761  2.3225 -0.2765 -0.1189
  370MOL0     H49893   7.076   4.425   8.647 -1.6220  2.0281  0.1762
  370MOL0     H49894   7.010   4.261   8.623 -1.0477 -0.6083  1.8301
  370MOL0     H49895   6.930   4.264   8.850  0.4357 -1.9286 -3.0176
  370MOL0     H49896   6.964   4.445   8.853  1.3580 -0.5149 -0.8115
  370MOL0     H49897   6.817   4.444   8.633  1.9737  2.2671  0.9756
  370MOL0     H49898   6.771   4.272   8.682 -1.3346  1.1606 -1.1280
  370MOL0     H49899   6.727   4.529   8.845  2.0783  0.0056 -0.6316
  370MOL0     H49900   6.692   4.369   8.890 -0.3521 -0.0267  1.0160
  370MOL0     H49901   6.439   4.349   8.885 -3.5263  1.2982  1.2513
  370MOL0     H49902   6.148   4.490   8.633 -1.0889 -2.2103 -2.7921
  370MOL0     H49903   6.178   4.319   8.679  0.3657  1.0583 -0.0674
  370MOL0     H49904   6.180   4.368   8.896 -1.2052  1.0126  1.7011
  370MOL0     H49905   6.028   4.437   8.843  1.0677  1.8003  0.0048
  370MOL0     H49906   6.266   4.592   8.936  0.1642  1.6532 -0.0246
  370MOL0     H49907   6.102   4.604   8.984  2.2097  2.1460  1.0327
  370MOL0     H49908   6.256   4.701   8.739  0.4864  2.4989  0.6991
  370MOL0     H49909   6.189   4.805   8.860  1.4341  2.6635 -3.2147
  370MOL0     H49910   5.806   4.801   8.692 -0.1418 -1.8902 -1.6499
  370MOL0     H49911   5.632   4.874   8.592 -1.0045  1.1591  0.2122
  370MOL0     H49912   5.640   5.047   8.613 -0.5008  0.3900  0.7695
  370MOL0     H49913   5.652   4.954   8.449  1.7318  0.5184  0.1273
  370MOL0     H49914   6.001   5.356   8.171  0.7410 -3.0061 -1.4179
  370MOL0     H49915   5.889   5.499   8.008 -1.8456 -1.4406 -3.5285
  370MOL0     H49916   5.719   5.629   7.879 -2.0975  0.0432  1.3282
  370MOL0     H49917   5.771   5.469   7.822 -0.9607 -1.2202  0.3463
  370MOL0     H49918   5.528   5.453   7.714  1.3527 -1.0834 -0.4910
  370MOL0     H49919   5.535   5.636   7.737  1.7551  0.1900 -0.5307
  370MOL0     H49920   5.747   5.635   7.617 -1.4836  1.0865  3.0857
  370MOL0     H49921   5.601   5.609   7.521  0.3390 -1.2041 -0.7351
  370MOL0     H49922   5.760   5.375   7.622 -3.9960 -0.4687  1.9593
  370MOL0     H49923   5.639   5.389   7.489  2.6666 -2.5289 -1.2356
  370MOL0     H49924   5.784   5.474   7.328 -0.7955 -2.6276 -0.9598
  370MOL0     H49925   5.869   5.347   7.415  0.5487  0.1528  1.3807
  370MOL0     H49926   5.965   5.610   7.363 -1.4468 -0.3018  1.0669
  370MOL0     H49927   5.926   5.638   7.517  3.1783  0.3207 -0.0572
  370MOL0     H49928   6.096   5.410   7.436  2.0233  2.4673 -1.6371
  370MOL0     H49929   6.032   5.421   7.602  2.0393  0.0014  1.5319
  370MOL0     H49930   6.172   5.600   7.666  1.3311  2.2259  0.0035
  370MOL0     H49931   6.139   5.677   7.512  0.6189  0.1466 -0.4482
  370MOL0     H49932   5.513   5.303   8.107  1.2293 -1.2147 -0.6538
  370MOL0     H49933   5.628   5.165   8.267  0.1307 -3.1971 -4.1009
  370MOL0     H49934   6.133   5.104   8.482  1.3548  0.0491  1.5298
  370MOL0     H49935   6.223   4.921   8.605  0.2472  1.5840 -1.1935
  370MOL0     H49936   7.262   4.263   9.351  0.2095  0.1156  0.0696
  370MOL0     H49937   7.335   4.331   9.580 -0.0773 -0.6061 -1.2031
  370MOL0     H49938   7.683   4.625   9.775 -0.6089 -1.5917 -0.3660
  370MOL0     H49939   7.785   4.737   9.949  1.3907 -1.3906  0.3409
  370MOL0     H49940   7.701   4.968  10.129 -0.9295  0.9545 -0.9366
  370MOL0     H49941   7.581   4.987  10.257  0.4345  0.2024  2.8263
  370MOL0     H49942   7.809   5.063  10.334  2.7165 -0.7457  0.9446
  370MOL0     H49943   7.866   4.906  10.317  1.1830  1.6998  1.9004
  370MOL0     H49944   7.668   4.833  10.470  0.5819  0.0187 -2.8632
  370MOL0     H49945   7.624   4.996  10.491 -0.9485 -1.5120 -2.5032
  370MOL0     H49946   7.883   4.858  10.589 -0.4415 -0.5599 -0.0627
  370MOL0     H49947   7.767   4.897  10.684  1.2173 -1.4551 -0.9103
  370MOL0     H49948   7.923   5.293  10.638 -0.1706 -0.1823  1.2462
  370MOL0     H49949   7.398   4.695  10.163 -2.7455 -1.7436 -1.6868
  370MOL0     H49950   7.307   4.605   9.982 -0.1315 -2.6645 -0.0648
  371MOL0     O49951   2.117   2.342   0.834 -0.8033  0.3836  0.2255
  371MOL0     C49952   2.005   2.305   0.829  0.4875  0.2785 -0.2092
  371MOL0     O49953   1.963   2.178   0.803  0.5317  0.2245 -0.0858
  371MOL0     C49954   2.051   2.075   0.805 -0.1800 -0.4531  0.7866
  371MOL0     C49955   2.108   2.026   0.925 -0.4427  0.5944 -0.1092
  371MOL0     C49956   2.202   1.930   0.923 -0.6427 -0.3271 -1.1323
  371MOL0     C49957   2.233   1.852   0.803 -0.0506  0.3782  0.0183
  371MOL0     O49958   2.320   1.748   0.807  0.6472  0.8250 -0.7997
  371MOL0     C49959   2.463   1.776   0.802 -0.3366 -0.0031 -0.3693
  371MOL0     C49960   2.518   1.693   0.682  0.2840  0.7438  0.7886
  371MOL0     C49961   2.523   1.536   0.689 -0.1518  0.1736 -0.1225
  371MOL0     C49962   2.587   1.478   0.823  0.1434 -0.6694 -0.0362
  371MOL0     C49963   2.625   1.329   0.809  0.3153  0.3007 -0.2095
  371MOL0     C49964   2.506   1.249   0.783 -0.4606 -0.2363 -0.2052
  371MOL0     C49965   2.516   1.099   0.809 -0.9936  0.9373  0.0056
  371MOL0     C49966   2.388   1.022   0.774 -0.0261  0.7065 -1.0633
  371MOL0     N49967   2.382   1.018   0.631 -0.1384  0.9896 -0.0957
  371MOL0     C49968   2.475   0.943   0.564 -0.3625  0.0823  0.1275
  371MOL0     C49969   2.422   0.929   0.438 -0.4230 -0.7987  0.4379
  371MOL0     C49970   2.493   0.856   0.332 -0.8112 -0.4926  0.0589
  371MOL0     C49971   2.470   0.920   0.195  0.0799 -0.0208  0.9619
  371MOL0     C49972   2.543   0.833   0.089 -0.3534 -0.6086 -0.9550
  371MOL0     C49973   2.607   0.921  -0.023 -0.6204  0.0253  0.4327
  371MOL0     O49974   2.502   1.004  -0.073  0.3106 -0.6494  0.1705
  371MOL0     C49975   2.427   0.952  -0.175  0.3146  0.8003 -1.0492
  371MOL0     C49976   2.457   0.990  -0.306 -0.5576 -0.3933  0.1398
  371MOL0     C49977   2.388   0.931  -0.417 -1.1396 -0.6982  0.2969
  371MOL0     C49978   2.441   0.975  -0.549 -0.2475 -0.4837  0.0413
  371MOL0     C49979   2.284   0.846  -0.388  0.4402 -0.1598  0.5925
  371MOL0     C49980   2.229   0.755  -0.485  0.1786  0.0298  0.4650
  371MOL0     O49981   2.207   0.624  -0.451 -0.1906  0.1920  0.9937
  371MOL0     C49982   2.120   0.544  -0.529  0.6061  0.9024 -0.2313
  371MOL0     C49983   2.141   0.409  -0.506 -0.1941  0.3461  0.4772
  371MOL0     C49984   2.073   0.303  -0.576 -0.0734 -0.6340  0.1086
  371MOL0     C49985   1.982   0.340  -0.672 -0.9256 -0.0358 -0.7554
  371MOL0     O49986   1.926   0.234  -0.725  0.4092  0.1520  0.4075
  371MOL0     C49987   1.833   0.240  -0.834  0.3267  0.1771  0.5598
  371MOL0     C49988   1.901   0.259  -0.966 -0.1465 -0.1680 -0.8439
  371MOL0     C49989   1.933   0.123  -1.037 -0.0034 -0.3073  0.8697
  371MOL0     C49990   1.954   0.147  -1.185  0.0792 -0.5235  0.0410
  371MOL0     C49991   1.964   0.011  -1.257  0.7932  0.4955  1.1418
  371MOL0     C49992   1.999   0.036  -1.407  0.1120 -0.0767 -0.7076
  371MOL0     C49993   1.887   0.016  -1.496  0.3017 -0.0559  0.3307
  371MOL0     C49994   1.906   0.085  -1.632  0.1251  0.0213 -0.5551
  371MOL0    Cl49995   2.016   0.003  -1.735  0.0464 -0.2469  0.2839
  371MOL0     C49996   1.958   0.478  -0.697  0.2322  0.5245  0.5753
  371MOL0     C49997   2.033   0.574  -0.629  0.7859 -0.9113  0.1436
  371MOL0     O49998   2.187   0.810  -0.589 -0.6648 -0.2741  0.2450
  371MOL0     C49999   2.241   0.834  -0.256 -0.0675 -0.1012  1.0818
  371MOL0     C50000   2.316   0.875  -0.147  0.2333 -0.4863  0.9712
  371MOL0     N50001   2.311   1.014   0.434  0.0273  0.4495 -0.2044
  371MOL0     N50002   2.296   1.081   0.545 -0.2082  0.2615 -0.1554
  371MOL0     C50003   2.179   1.896   0.683 -0.7569 -0.0619 -0.5464
  371MOL0     C50004   2.094   2.008   0.683  0.7920  0.1545 -0.9654
  371MOL0     C50005   1.897   2.419   0.830 -0.9731  1.0893  0.3445
  371MOL0     C50006   1.927   2.538   0.889  0.0488  0.0962 -0.0233
  371MOL0     C50007   1.836   2.635   0.887 -0.2549  0.2566 -0.5204
  371MOL0     C50008   1.710   2.618   0.828  0.7582 -0.0116  0.0692
  371MOL0     O50009   1.620   2.714   0.795  0.6915 -0.0995  1.0124
  371MOL0     C50010   1.641   2.846   0.848 -0.2986  0.0405  0.9179
  371MOL0     C50011   1.518   2.936   0.804 -0.1723  0.1956 -1.4757
  371MOL0     C50012   1.539   3.047   0.685  0.1592  0.3014  0.0237
  371MOL0     C50013   1.631   2.996   0.573 -0.5240 -0.3281  0.4607
  371MOL0     C50014   1.724   3.101   0.523  0.2416  0.7560 -0.5466
  371MOL0     C50015   1.798   3.186   0.472 -0.4776  0.3267 -0.7650
  371MOL0     C50016   1.676   2.495   0.767  0.5122 -0.4343 -0.7207
  371MOL0     C50017   1.776   2.397   0.760  0.2362  0.2428  0.2210
  371MOL0     H50018   2.088   2.067   1.023 -0.4560 -1.9666  1.0288
  371MOL0     H50019   2.250   1.901   1.015  1.2352 -2.1001 -2.5884
  371MOL0     H50020   2.476   1.883   0.786  0.4964  0.1484  1.1507
  371MOL0     H50021   2.522   1.754   0.892 -0.2018  1.7678  0.0178
  371MOL0     H50022   2.461   1.717   0.591  0.9315 -2.1767 -0.4903
  371MOL0     H50023   2.618   1.736   0.670 -0.6427  2.6757 -0.7526
  371MOL0     H50024   2.426   1.493   0.664  0.5033  0.3548 -3.4167
  371MOL0     H50025   2.591   1.508   0.608  0.4079 -2.2302  1.0882
  371MOL0     H50026   2.682   1.532   0.833  0.9201 -1.9302 -0.3999
  371MOL0     H50027   2.517   1.504   0.903  2.8473  1.6305  1.7873
  371MOL0     H50028   2.690   1.308   0.724  0.7566 -2.7092  0.7558
  371MOL0     H50029   2.667   1.298   0.904  0.4775  1.1297  0.0027
  371MOL0     H50030   2.425   1.294   0.841 -2.9753  0.1592 -3.7318
  371MOL0     H50031   2.477   1.261   0.678  0.3659 -1.1518 -0.5503
  371MOL0     H50032   2.604   1.064   0.753 -1.6988 -1.9413  0.5222
  371MOL0     H50033   2.546   1.080   0.912  0.3226  3.4902  0.1790
  371MOL0     H50034   2.303   1.066   0.827 -0.1841  1.8200 -2.1893
  371MOL0     H50035   2.400   0.920   0.812  2.6781  0.7118 -1.6990
  371MOL0     H50036   2.553   0.878   0.603 -1.2875 -0.4071  1.2263
  371MOL0     H50037   2.602   0.847   0.338 -0.7831 -2.1696 -1.8930
  371MOL0     H50038   2.447   0.757   0.344 -0.4523 -0.6040  0.5713
  371MOL0     H50039   2.500   1.024   0.180 -1.8980  0.5924  0.9381
  371MOL0     H50040   2.370   0.898   0.155  2.2638 -1.5243 -4.5925
  371MOL0     H50041   2.487   0.750   0.044  2.7313 -3.8505  0.6924
  371MOL0     H50042   2.615   0.771   0.143  0.3369  0.8975 -0.0803
  371MOL0     H50043   2.653   0.850  -0.092  0.9287 -0.1553  1.5885
  371MOL0     H50044   2.681   0.994   0.010 -1.6988  2.3969 -1.9530
  371MOL0     H50045   2.539   1.061  -0.314 -0.0044 -0.7759  1.9824
  371MOL0     H50046   2.412   0.895  -0.618  0.3844 -1.1668  0.5508
  371MOL0     H50047   2.394   1.064  -0.592 -3.4477 -3.1917 -2.5943
  371MOL0     H50048   2.550   0.982  -0.547 -0.1771  1.3741 -3.2661
  371MOL0     H50049   2.220   0.382  -0.438 -0.1895 -1.1091 -0.0784
  371MOL0     H50050   2.091   0.199  -0.548  0.1498 -0.2846  1.3012
  371MOL0     H50051   1.770   0.151  -0.840 -0.8397  0.9477  1.0460
  371MOL0     H50052   1.768   0.327  -0.823  1.3346  1.3047 -1.7460
  371MOL0     H50053   1.829   0.311  -1.031 -2.3410 -3.0531 -0.8846
  371MOL0     H50054   1.991   0.321  -0.956 -0.6133  0.4646 -0.4711
  371MOL0     H50055   1.859   0.047  -1.008  0.2427  0.2860  3.3096
  371MOL0     H50056   2.031   0.088  -1.003  1.3187  1.7350 -0.6433
  371MOL0     H50057   1.869   0.195  -1.234 -0.4064 -1.1650  0.2430
  371MOL0     H50058   2.047   0.204  -1.192 -0.5735  0.4379 -1.2239
  371MOL0     H50059   1.871  -0.047  -1.248  0.6974  0.7072  1.5211
  371MOL0     H50060   2.037  -0.050  -1.204 -0.0958 -0.2868  1.5001
  371MOL0     H50061   2.048   0.134  -1.405 -0.9165  0.7377  5.4162
  371MOL0     H50062   2.085  -0.027  -1.429  0.8196  0.4604  0.3770
  371MOL0     H50063   1.814   0.069  -1.432  2.4305  1.1573  1.8858
  371MOL0     H50064   1.854  -0.087  -1.508 -1.3500  0.4863 -0.0641
  371MOL0     H50065   1.957   0.180  -1.615  1.0857 -0.2136 -2.0070
  371MOL0     H50066   1.813   0.108  -1.684  0.0078  2.6059  0.6521
  371MOL0     H50067   1.889   0.515  -0.772  1.2063  2.9537  0.7966
  371MOL0     H50068   2.015   0.677  -0.659  0.3907 -1.7010 -2.5932
  371MOL0     H50069   2.158   0.766  -0.237  1.1081 -1.6696  0.8115
  371MOL0     H50070   2.277   0.855  -0.048  2.0181  3.8018  2.7533
  371MOL0     H50071   2.207   1.844   0.592  1.0853  0.1391 -0.1412
  371MOL0     H50072   2.052   2.038   0.587 -0.8679  0.2089 -0.2449
  371MOL0     H50073   2.017   2.561   0.944  0.3886 -2.1499  0.4459
  371MOL0     H50074   1.867   2.722   0.944  4.3033 -2.4514  1.7272
  371MOL0     H50075   1.648   2.836   0.957 -2.0720  3.2597  1.4270
  371MOL0     H50076   1.734   2.895   0.817 -1.1104  1.1392  0.1416
  371MOL0     H50077   1.490   2.997   0.891 -0.3811 -3.9190  1.7088
  371MOL0     H50078   1.432   2.869   0.791 -1.5585  1.0005  2.0772
  371MOL0     H50079   1.574   3.142   0.727  2.7386  0.2218 -1.7235
  371MOL0     H50080   1.438   3.057   0.645 -0.4225  2.4926  1.8397
  371MOL0     H50081   1.565   2.980   0.487  0.8003 -2.4286 -0.2452
  371MOL0     H50082   1.684   2.902   0.591 -0.1700 -0.6138 -1.7983
  371MOL0     H50083   1.868   3.244   0.415  2.0207  0.0767  1.8201
  371MOL0     H50084   1.577   2.463   0.736 -1.8847  3.7300  1.6845
  371MOL0     H50085   1.754   2.299   0.719  2.4749 -0.3851  0.3693
  372MOL0     O50086  10.794   8.981   0.245  0.1799 -0.0075  0.2141
  372MOL0     C50087  10.678   8.941   0.239 -0.9228 -0.3247 -0.7337
  372MOL0     O50088  10.638   8.839   0.168  0.4823  0.2635  0.5043
  372MOL0     C50089  10.728   8.790   0.078  0.0657 -0.1612 -0.6834
  372MOL0     C50090  10.793   8.670   0.110  0.2960 -0.7087  0.4034
  372MOL0     C50091  10.886   8.624   0.013 -0.5209 -0.5839 -0.7181
  372MOL0     C50092  10.913   8.693  -0.111  0.6430  1.1064 -0.3100
  372MOL0     O50093  11.014   8.654  -0.198 -0.1689  0.1127  0.2327
  372MOL0     C50094  11.106   8.555  -0.157 -0.8737  0.4475 -0.7093
  372MOL0     C50095  11.193   8.519  -0.279 -0.2499 -0.3810 -0.5994
  372MOL0     C50096  11.305   8.620  -0.322 -0.9380 -0.4112 -0.1102
  372MOL0     C50097  11.374   8.569  -0.452 -0.4741  0.9164  1.1060
  372MOL0     C50098  11.488   8.662  -0.501  0.0002 -0.2054 -1.1068
  372MOL0     C50099  11.546   8.639  -0.634 -0.1143  0.7853  0.3073
  372MOL0     C50100  11.456   8.652  -0.756  0.0418  0.1983 -0.9704
  372MOL0     C50101  11.402   8.798  -0.751 -0.4154 -0.0452  0.3563
  372MOL0     N50102  11.343   8.831  -0.879  0.5918  0.6179 -0.6586
  372MOL0     C50103  11.411   8.869  -0.992  0.0827 -0.3746 -0.3537
  372MOL0     C50104  11.319   8.897  -1.086 -0.1909 -0.6983  0.4159
  372MOL0     C50105  11.344   8.953  -1.218 -0.4452 -0.0217  0.0688
  372MOL0     C50106  11.375   8.838  -1.311  0.3351 -0.5660  0.1911
  372MOL0     C50107  11.417   8.870  -1.452  1.2955  0.6692 -0.2638
  372MOL0     C50108  11.458   8.751  -1.535  0.3170  0.7293  0.5756
  372MOL0     O50109  11.346   8.719  -1.624  0.3731 -0.4166  0.6534
  372MOL0     C50110  11.286   8.600  -1.615 -0.5459  0.5391 -0.5662
  372MOL0     C50111  11.347   8.478  -1.640 -1.1011 -0.3484 -0.0048
  372MOL0     C50112  11.286   8.353  -1.631  0.9088  0.1807  0.4816
  372MOL0     C50113  11.363   8.225  -1.678  0.5324  0.0271 -0.0425
  372MOL0     C50114  11.145   8.348  -1.596  0.0509 -0.0933 -0.3368
  372MOL0     C50115  11.058   8.220  -1.592 -0.9769  0.3099 -0.5701
  372MOL0     O50116  11.123   8.096  -1.580 -0.5961  0.2364 -0.1840
  372MOL0     C50117  11.059   7.982  -1.615  0.2436 -0.3988 -0.0930
  372MOL0     C50118  11.087   7.877  -1.540 -0.3374  0.0082 -0.9910
  372MOL0     C50119  11.021   7.754  -1.556 -1.3630 -0.4699  0.0792
  372MOL0     C50120  10.926   7.741  -1.664 -0.6418 -0.0986  0.1994
  372MOL0     O50121  10.856   7.634  -1.706 -0.0780 -0.7631 -0.0711
  372MOL0     C50122  10.809   7.544  -1.608 -0.0271 -0.9853 -0.0296
  372MOL0     C50123  10.716   7.443  -1.663 -0.3297 -0.1546  0.4985
  372MOL0     C50124  10.787   7.353  -1.768 -0.1685 -0.2575  0.5713
  372MOL0     C50125  10.684   7.328  -1.886  0.1847 -0.0329  0.0679
  372MOL0     C50126  10.703   7.202  -1.970 -0.5724 -0.5707  0.0262
  372MOL0     C50127  10.614   7.186  -2.105 -0.5988  0.1054  0.0739
  372MOL0     C50128  10.466   7.177  -2.055 -0.9920  0.2340  1.1766
  372MOL0     C50129  10.413   7.035  -2.074 -0.6673 -0.8916  0.1510
  372MOL0    Cl50130  10.247   7.019  -2.061 -0.2245 -0.2822  0.4524
  372MOL0     C50131  10.899   7.853  -1.737  0.6433 -0.4469  0.0683
  372MOL0     C50132  10.951   7.977  -1.711 -0.1041 -1.2414 -0.2513
  372MOL0     O50133  10.938   8.236  -1.582 -0.1234 -0.0295 -0.2307
  372MOL0     C50134  11.087   8.478  -1.570  0.1578 -0.4120  1.2933
  372MOL0     C50135  11.157   8.599  -1.588  0.7211 -0.3363 -0.0400
  372MOL0     N50136  11.199   8.875  -1.028  0.2267  0.4442  0.3228
  372MOL0     N50137  11.211   8.821  -0.911 -0.4933 -0.2839  0.3746
  372MOL0     C50138  10.836   8.811  -0.138  0.2084 -0.1736 -0.8417
  372MOL0     C50139  10.743   8.852  -0.043 -0.1438 -0.6573  0.1153
  372MOL0     C50140  10.585   9.013   0.328 -0.0178 -1.1406 -0.9999
  372MOL0     C50141  10.456   8.969   0.350  0.0136 -0.0587  0.1168
  372MOL0     C50142  10.368   9.033   0.439  0.7996  0.1132 -0.4266
  372MOL0     C50143  10.413   9.139   0.516 -0.6930  1.1664  0.1372
  372MOL0     O50144  10.325   9.172   0.619  0.2281 -0.9077 -0.5802
  372MOL0     C50145  10.368   9.259   0.729  0.2358 -0.3455  0.0422
  372MOL0     C50146  10.455   9.183   0.832  0.0026  0.5637 -0.2724
  372MOL0     C50147  10.377   9.073   0.897 -0.5224 -0.2084 -1.3290
  372MOL0     C50148  10.466   8.981   0.982 -0.9393  0.4317 -0.4189
  372MOL0     C50149  10.407   8.867   1.039  0.2340 -0.8985 -0.3562
  372MOL0     C50150  10.348   8.767   1.066 -0.6486  0.7604 -0.3460
  372MOL0     C50151  10.543   9.185   0.500  0.2172  1.1371  1.3613
  372MOL0     C50152  10.621   9.134   0.403 -0.5831  0.3702  1.2428
  372MOL0     H50153  10.766   8.607   0.194 -2.0078 -0.4745 -0.0941
  372MOL0     H50154  10.933   8.527   0.031  0.4742 -0.3348 -1.8153
  372MOL0     H50155  11.170   8.577  -0.071 -1.1946 -2.9252  0.5411
  372MOL0     H50156  11.054   8.463  -0.129  0.4271 -0.0271  0.2567
  372MOL0     H50157  11.247   8.430  -0.244  0.5366 -0.5918 -2.2731
  372MOL0     H50158  11.129   8.483  -0.360 -2.6204 -2.3334  1.9548
  372MOL0     H50159  11.248   8.710  -0.351 -1.8159  0.5914  4.1470
  372MOL0     H50160  11.374   8.651  -0.243 -0.9633  2.8402 -1.1697
  372MOL0     H50161  11.419   8.470  -0.444 -3.6120 -0.5046  3.3138
  372MOL0     H50162  11.299   8.554  -0.531  1.4513 -0.1198 -0.6391
  372MOL0     H50163  11.446   8.763  -0.503 -0.9573 -0.5984 -1.9522
  372MOL0     H50164  11.570   8.659  -0.430 -1.2947  3.1871  0.7311
  372MOL0     H50165  11.637   8.699  -0.636  0.6552 -0.3440 -1.8225
  372MOL0     H50166  11.586   8.537  -0.642 -1.0991  0.1559  2.4629
  372MOL0     H50167  11.519   8.636  -0.843  1.9669 -3.4896  0.8776
  372MOL0     H50168  11.373   8.580  -0.754  1.0144 -1.0947  2.8086
  372MOL0     H50169  11.476   8.869  -0.713 -1.7162 -0.1636  3.4888
  372MOL0     H50170  11.319   8.807  -0.679 -2.2562 -0.0011 -1.6695
  372MOL0     H50171  11.519   8.873  -1.002  0.2164  0.0771  1.1107
  372MOL0     H50172  11.261   9.021  -1.237  1.0720  1.9555  0.1992
  372MOL0     H50173  11.434   9.013  -1.200  0.5774 -0.7927 -2.0616
  372MOL0     H50174  11.286   8.775  -1.312  1.1552 -1.7877  0.7620
  372MOL0     H50175  11.439   8.767  -1.257  1.5283  0.0963 -0.3165
  372MOL0     H50176  11.502   8.939  -1.456  1.2996  0.8219  1.6709
  372MOL0     H50177  11.331   8.917  -1.502  1.1373 -1.7012 -2.4370
  372MOL0     H50178  11.487   8.664  -1.477  0.4215 -0.6644 -1.4534
  372MOL0     H50179  11.538   8.783  -1.603  1.7291 -1.5734  1.0454
  372MOL0     H50180  11.454   8.483  -1.659 -0.7004 -2.0146  1.5672
  372MOL0     H50181  11.371   8.153  -1.596  2.2568 -0.8147 -0.9210
  372MOL0     H50182  11.291   8.180  -1.747 -1.5082 -1.3239  2.7284
  372MOL0     H50183  11.461   8.250  -1.720 -0.6069  2.3130 -1.5671
  372MOL0     H50184  11.164   7.886  -1.464 -0.5925  3.5062 -1.0064
  372MOL0     H50185  11.064   7.674  -1.498  3.3153 -2.8629 -5.5984
  372MOL0     H50186  10.894   7.500  -1.556  0.8415 -0.3861 -0.9149
  372MOL0     H50187  10.751   7.608  -1.540  2.3539  1.0949  0.1820
  372MOL0     H50188  10.693   7.389  -1.571  1.8397 -0.1850  1.0776
  372MOL0     H50189  10.633   7.499  -1.707 -0.7664 -0.0124  1.4784
  372MOL0     H50190  10.813   7.252  -1.736  1.1967 -0.6368 -1.5681
  372MOL0     H50191  10.880   7.398  -1.804 -0.6196  0.8599  0.7353
  372MOL0     H50192  10.583   7.332  -1.844 -0.3456  0.2107 -1.1807
  372MOL0     H50193  10.683   7.409  -1.959  4.0404  0.7259  0.6418
  372MOL0     H50194  10.677   7.118  -1.905  0.5727  0.9978  2.6988
  372MOL0     H50195  10.808   7.194  -2.000 -0.2586 -0.1590  0.9957
  372MOL0     H50196  10.614   7.284  -2.154 -1.4253  0.1740  0.1947
  372MOL0     H50197  10.645   7.108  -2.174 -2.5156 -1.7932  1.2136
  372MOL0     H50198  10.414   7.240  -2.127 -0.6040  0.8154  1.3944
  372MOL0     H50199  10.437   7.210  -1.955 -2.0723 -0.1254  0.9921
  372MOL0     H50200  10.462   6.966  -2.005 -0.1672 -1.2585 -0.5664
  372MOL0     H50201  10.440   6.994  -2.172  0.5730 -1.3426  0.6561
  372MOL0     H50202  10.822   7.859  -1.813 -0.1773  0.1246  0.9213
  372MOL0     H50203  10.917   8.064  -1.765 -0.2692  1.1252  3.3095
  372MOL0     H50204  10.987   8.487  -1.528 -0.5328  1.6826 -0.6395
  372MOL0     H50205  11.108   8.688  -1.550  1.0965 -0.9837  2.0560
  372MOL0     H50206  10.865   8.885  -0.211  1.6640  2.0567  1.8194
  372MOL0     H50207  10.702   8.951  -0.063  1.0737 -0.8841 -4.7614
  372MOL0     H50208  10.433   8.876   0.298  4.7225 -1.0259 -0.7719
  372MOL0     H50209  10.273   8.986   0.462  1.1327 -0.4700 -0.2151
  372MOL0     H50210  10.433   9.336   0.686  0.8737 -1.0063 -0.2033
  372MOL0     H50211  10.283   9.284   0.793  0.0068 -2.7961  0.8034
  372MOL0     H50212  10.513   9.249   0.896  0.9587 -0.6310  0.1352
  372MOL0     H50213  10.530   9.128   0.774  1.0741 -0.9436  2.3580
  372MOL0     H50214  10.328   9.016   0.817 -4.0988  2.1238 -1.0312
  372MOL0     H50215  10.303   9.117   0.965  0.5751 -0.3499 -0.0071
  372MOL0     H50216  10.508   9.042   1.063  0.9188 -1.1582 -0.0933
  372MOL0     H50217  10.546   8.945   0.917 -0.5182  1.4139 -0.4690
  372MOL0     H50218  10.318   8.668   1.092 -0.7741 -0.1756 -3.6023
  372MOL0     H50219  10.598   9.262   0.552  4.5244 -0.2389 -0.7367
  372MOL0     H50220  10.725   9.159   0.388 -0.8028 -0.1675 -1.5726
  373MOL0     O50221   2.615   2.016   1.202  0.0629 -0.1493  0.1578
  373MOL0     C50222   2.606   2.053   1.320  0.4913 -0.1134 -0.4226
  373MOL0     O50223   2.579   2.182   1.366 -0.8468 -0.1766 -0.7522
  373MOL0     C50224   2.539   2.280   1.275 -0.1230  0.0030 -0.4746
  373MOL0     C50225   2.440   2.262   1.182  0.5513 -0.5334  0.1427
  373MOL0     C50226   2.411   2.355   1.078 -1.2688  0.3637 -0.6139
  373MOL0     C50227   2.481   2.479   1.075  0.1649 -0.1053  0.7825
  373MOL0     O50228   2.470   2.583   0.981  0.2634  1.3075  1.3517
  373MOL0     C50229   2.426   2.540   0.847 -0.0543  0.5533 -0.4069
  373MOL0     C50230   2.540   2.554   0.748 -0.2053 -0.1078 -0.4068
  373MOL0     C50231   2.681   2.501   0.793  0.1135 -0.2920  0.2541
  373MOL0     C50232   2.780   2.498   0.674  0.8937 -0.0412 -0.0398
  373MOL0     C50233   2.844   2.645   0.656 -0.1512 -0.6445 -0.6789
  373MOL0     C50234   2.956   2.658   0.552 -0.1022 -0.2937  1.2342
  373MOL0     C50235   3.077   2.563   0.569 -0.0144  0.8261 -0.3283
  373MOL0     C50236   3.210   2.593   0.501 -0.1855  0.3478  0.1604
  373MOL0     N50237   3.193   2.561   0.359  0.3572 -0.3670 -0.6643
  373MOL0     C50238   3.279   2.481   0.289  0.7679 -0.1162 -0.3813
  373MOL0     C50239   3.224   2.490   0.163  0.6094  0.5972  0.4894
  373MOL0     C50240   3.264   2.421   0.037 -0.2666 -0.5115  0.4455
  373MOL0     C50241   3.381   2.509  -0.028 -0.6178 -0.1492  0.2991
  373MOL0     C50242   3.461   2.427  -0.138  0.4527  0.5205 -0.0745
  373MOL0     C50243   3.414   2.433  -0.280 -0.1623 -0.9670 -0.0322
  373MOL0     O50244   3.423   2.570  -0.329 -0.0030 -0.3922 -0.7303
  373MOL0     C50245   3.439   2.596  -0.467 -0.6364  1.0217  0.1953
  373MOL0     C50246   3.486   2.720  -0.498 -1.5233 -0.5436 -0.2991
  373MOL0     C50247   3.489   2.768  -0.623 -0.4112  0.1963  0.4314
  373MOL0     C50248   3.559   2.909  -0.629 -0.3080  0.6663  1.0637
  373MOL0     C50249   3.451   2.687  -0.735  0.3626 -0.2357 -0.3900
  373MOL0     C50250   3.482   2.732  -0.873 -0.1343 -0.8408  0.7045
  373MOL0     O50251   3.451   2.628  -0.961 -0.3348  0.9312 -0.6181
  373MOL0     C50252   3.494   2.632  -1.089  0.5069 -0.4684  0.3898
  373MOL0     C50253   3.402   2.560  -1.167 -0.1252  1.1957  0.9438
  373MOL0     C50254   3.429   2.559  -1.312 -0.0435  0.5954 -0.9208
  373MOL0     C50255   3.546   2.624  -1.371  0.0876 -0.5045 -0.0966
  373MOL0     O50256   3.585   2.618  -1.511 -0.0192  0.0814  0.0266
  373MOL0     C50257   3.472   2.614  -1.599 -0.4022  0.5453  0.5801
  373MOL0     C50258   3.510   2.643  -1.741  0.9208  0.4223 -0.7559
  373MOL0     C50259   3.378   2.676  -1.819 -0.1823  0.0362 -1.0633
  373MOL0     C50260   3.414   2.730  -1.955 -0.0848  0.0718 -0.5373
  373MOL0     C50261   3.286   2.770  -2.041 -0.4020 -0.1609  0.1076
  373MOL0     C50262   3.330   2.793  -2.189 -0.2776  0.3547  0.4593
  373MOL0     C50263   3.226   2.861  -2.285 -0.7289  0.4174 -0.5880
  373MOL0     C50264   3.289   2.874  -2.428  0.1643  0.8082  0.0002
  373MOL0    Cl50265   3.175   2.989  -2.495 -0.0087  0.0017  0.4538
  373MOL0     C50266   3.632   2.684  -1.283 -0.2115 -1.4336  0.5005
  373MOL0     C50267   3.612   2.695  -1.150 -0.1204 -0.2206  0.4166
  373MOL0     O50268   3.536   2.842  -0.901  0.0719 -0.7416  0.1991
  373MOL0     C50269   3.391   2.565  -0.700  0.5257 -0.1108 -0.6383
  373MOL0     C50270   3.399   2.512  -0.568 -0.1542 -0.3140 -0.1240
  373MOL0     N50271   3.124   2.586   0.164 -0.2906 -0.3543  0.0077
  373MOL0     N50272   3.107   2.632   0.285 -0.0991 -0.3844 -0.4113
  373MOL0     C50273   2.574   2.500   1.176 -0.2365  0.3231 -1.0583
  373MOL0     C50274   2.605   2.406   1.277  0.3685 -1.1150  0.1078
  373MOL0     C50275   2.621   1.946   1.423  0.3054  0.0926 -0.9939
  373MOL0     C50276   2.622   1.803   1.392  0.1152  0.0666 -0.2275
  373MOL0     C50277   2.637   1.702   1.487 -0.6593  0.7044  0.5433
  373MOL0     C50278   2.654   1.741   1.622  0.1222 -0.2947 -1.2396
  373MOL0     O50279   2.657   1.656   1.732  0.4738 -0.1350  0.0164
  373MOL0     C50280   2.740   1.542   1.710 -0.1761 -0.5224  0.8353
  373MOL0     C50281   2.677   1.418   1.775  0.1678  0.2301 -0.0829
  373MOL0     C50282   2.537   1.397   1.706  0.5740 -0.6113 -0.9072
  373MOL0     C50283   2.447   1.288   1.769  0.1879  1.0787  0.8063
  373MOL0     C50284   2.478   1.246   1.905 -0.0308  0.4971 -0.0493
  373MOL0     C50285   2.508   1.219   2.018 -0.2284 -0.4639 -0.2043
  373MOL0     C50286   2.657   1.879   1.658 -0.0174  0.5107  0.8516
  373MOL0     C50287   2.641   1.980   1.555  0.1404  0.6924 -0.2492
  373MOL0     H50288   2.386   2.169   1.193 -1.1339  0.5483  1.3799
  373MOL0     H50289   2.333   2.346   1.004 -2.0888  1.8257  0.0194
  373MOL0     H50290   2.382   2.441   0.834  0.9084  0.2396 -1.4357
  373MOL0     H50291   2.344   2.606   0.815 -1.9367  0.9442  4.4152
  373MOL0     H50292   2.517   2.491   0.662  2.7370 -0.6641 -0.9138
  373MOL0     H50293   2.558   2.654   0.707  2.5193 -0.9507 -1.4939
  373MOL0     H50294   2.722   2.567   0.870  5.1465 -0.5817 -1.7911
  373MOL0     H50295   2.678   2.398   0.829  2.4978 -0.5109 -0.0167
  373MOL0     H50296   2.866   2.437   0.705  2.3842  1.7963 -0.4014
  373MOL0     H50297   2.733   2.452   0.587  2.4182  1.8850 -1.9822
  373MOL0     H50298   2.760   2.711   0.634  0.2881  0.5902  1.1106
  373MOL0     H50299   2.878   2.685   0.752 -0.9557 -0.1145 -0.6051
  373MOL0     H50300   2.913   2.647   0.452 -1.0257 -0.6132  1.6532
  373MOL0     H50301   2.991   2.762   0.562 -2.6949  1.0207 -1.7454
  373MOL0     H50302   3.086   2.550   0.677 -1.4693  0.8918 -0.1765
  373MOL0     H50303   3.043   2.463   0.541 -0.0420 -0.6323  4.0653
  373MOL0     H50304   3.278   2.521   0.547 -0.7318  0.8368  1.7928
  373MOL0     H50305   3.239   2.696   0.523 -0.1973  1.0950 -2.7728
  373MOL0     H50306   3.363   2.416   0.309  2.1003  1.4880 -0.5366
  373MOL0     H50307   3.296   2.319   0.062  0.0142 -0.4271  0.4337
  373MOL0     H50308   3.175   2.409  -0.026  0.6457 -2.7268 -0.5375
  373MOL0     H50309   3.453   2.533   0.051 -1.0016 -1.3555  1.0266
  373MOL0     H50310   3.344   2.600  -0.077 -1.1494 -1.1459 -1.2345
  373MOL0     H50311   3.469   2.323  -0.103  1.8455  1.1147  1.5000
  373MOL0     H50312   3.565   2.461  -0.135  0.7063 -0.2502  0.1026
  373MOL0     H50313   3.309   2.403  -0.279  0.9808 -5.7865 -0.7311
  373MOL0     H50314   3.481   2.372  -0.342  4.0642  3.0934 -0.0465
  373MOL0     H50315   3.516   2.785  -0.416 -1.0440  0.5638 -1.3123
  373MOL0     H50316   3.487   2.974  -0.679 -0.3133 -1.4352 -1.8988
  373MOL0     H50317   3.593   2.946  -0.532 -0.0904  2.3774  0.3682
  373MOL0     H50318   3.652   2.903  -0.686 -0.3145 -1.0320  1.1862
  373MOL0     H50319   3.312   2.516  -1.127 -0.1160  2.2994  2.2551
  373MOL0     H50320   3.351   2.502  -1.362 -0.0280 -0.4677  0.2095
  373MOL0     H50321   3.422   2.518  -1.612 -0.6566  0.8835 -1.3652
  373MOL0     H50322   3.393   2.685  -1.575 -2.1467  0.0800 -3.0714
  373MOL0     H50323   3.588   2.720  -1.743 -0.8047  2.2654 -1.2885
  373MOL0     H50324   3.554   2.552  -1.783  2.1320  0.8194 -0.4040
  373MOL0     H50325   3.327   2.757  -1.765  0.7335  0.2503 -0.4887
  373MOL0     H50326   3.306   2.595  -1.833 -2.2352  1.8061 -1.3512
  373MOL0     H50327   3.474   2.822  -1.950  0.1364  0.0267 -1.9551
  373MOL0     H50328   3.474   2.657  -2.009  2.2673  2.0731 -0.7978
  373MOL0     H50329   3.228   2.859  -2.016  0.5161  0.8091 -1.0723
  373MOL0     H50330   3.216   2.687  -2.045  0.2715 -0.8462  1.8092
  373MOL0     H50331   3.415   2.862  -2.188  1.2389 -1.4071  1.4632
  373MOL0     H50332   3.367   2.701  -2.234 -2.8741 -0.7888  0.4675
  373MOL0     H50333   3.220   2.967  -2.262  0.5389  0.2371  0.7631
  373MOL0     H50334   3.127   2.815  -2.290 -0.6000  0.2605 -2.3342
  373MOL0     H50335   3.289   2.773  -2.470 -1.0209  0.4883  0.7298
  373MOL0     H50336   3.392   2.912  -2.432 -0.4768  2.6102 -3.6236
  373MOL0     H50337   3.726   2.732  -1.307 -1.3337 -0.4612 -2.2875
  373MOL0     H50338   3.675   2.739  -1.072 -2.7835  1.7323  1.6254
  373MOL0     H50339   3.354   2.509  -0.786  0.8871  1.1392 -1.6463
  373MOL0     H50340   3.347   2.418  -0.554  0.6240 -0.7286  0.0196
  373MOL0     H50341   2.620   2.598   1.171 -0.0486  0.3776  0.8748
  373MOL0     H50342   2.674   2.416   1.361 -0.5935 -1.6950  1.0028
  373MOL0     H50343   2.615   1.771   1.288  0.1706  1.4938 -0.7047
  373MOL0     H50344   2.632   1.598   1.456 -0.1696 -0.1210  3.0137
  373MOL0     H50345   2.764   1.514   1.607  1.4346  1.0649  0.7223
  373MOL0     H50346   2.831   1.570   1.764 -2.4272  1.3872  3.9381
  373MOL0     H50347   2.682   1.437   1.882 -0.9362 -0.8709  0.1825
  373MOL0     H50348   2.746   1.336   1.754 -0.7798 -1.9837  4.3611
  373MOL0     H50349   2.551   1.368   1.601  0.4509  0.7235 -1.3062
  373MOL0     H50350   2.474   1.485   1.716  1.1537 -0.3226  0.3236
  373MOL0     H50351   2.441   1.195   1.711  0.3139 -0.0976  2.5907
  373MOL0     H50352   2.341   1.311   1.751  0.8116  3.1901 -0.4411
  373MOL0     H50353   2.545   1.196   2.116  0.1410  0.3962 -0.1398
  373MOL0     H50354   2.682   1.918   1.756  2.9709  1.5084 -0.2080
  373MOL0     H50355   2.648   2.081   1.594 -0.2017  0.0044  1.7167
  374MOL0     O50356   8.862   1.519   8.023 -0.1632  0.1240  0.0782
  374MOL0     C50357   8.832   1.515   7.903  0.2494 -0.0669 -0.8322
  374MOL0     O50358   8.912   1.502   7.794  0.1338 -0.0564  0.0176
  374MOL0     C50359   9.045   1.485   7.806 -0.0046 -0.1969 -0.6638
  374MOL0     C50360   9.115   1.424   7.713 -0.5631  0.4928  0.5802
  374MOL0     C50361   9.255   1.419   7.719  0.4796 -0.7579 -0.4596
  374MOL0     C50362   9.332   1.480   7.826  0.5877  0.3065  0.0603
  374MOL0     O50363   9.472   1.477   7.828  0.0361 -0.5883 -0.8342
  374MOL0     C50364   9.544   1.359   7.779  0.7588 -0.3529  0.2961
  374MOL0     C50365   9.701   1.370   7.775  1.4350  0.4358  0.0862
  374MOL0     C50366   9.751   1.503   7.717 -0.1586  0.4668  0.3824
  374MOL0     C50367   9.898   1.499   7.683 -0.0806  0.0900 -0.2480
  374MOL0     C50368   9.960   1.639   7.691  0.4535  0.6560 -0.5882
  374MOL0     C50369  10.099   1.624   7.639  0.3316 -0.6778  0.7570
  374MOL0     C50370  10.156   1.762   7.614 -0.4082 -0.9034 -0.1793
  374MOL0     C50371  10.297   1.765   7.554  0.3661  0.1528  0.2153
  374MOL0     N50372  10.345   1.898   7.552  0.2613 -0.1381 -0.1098
  374MOL0     C50373  10.347   1.984   7.447  0.5172  0.5931 -0.9180
  374MOL0     C50374  10.421   2.089   7.504  0.1603 -0.6858 -0.3136
  374MOL0     C50375  10.456   2.226   7.436 -0.0690 -0.0483  0.0550
  374MOL0     C50376  10.604   2.240   7.384  0.7305 -0.1539 -0.3001
  374MOL0     C50377  10.638   2.381   7.347  0.1989  0.1758  0.0066
  374MOL0     C50378  10.790   2.387   7.317 -0.2624  0.6411 -0.2321
  374MOL0     O50379  10.873   2.371   7.436  0.4644 -0.1242  0.2197
  374MOL0     C50380  10.999   2.317   7.424 -0.0670 -1.6197 -0.4930
  374MOL0     C50381  11.061   2.302   7.545  0.1770  0.8768 -0.4536
  374MOL0     C50382  11.198   2.266   7.552  0.4180 -0.5033 -0.0427
  374MOL0     C50383  11.258   2.269   7.685  0.3896 -0.3349  0.3925
  374MOL0     C50384  11.264   2.230   7.434 -0.5061 -0.2439 -0.1675
  374MOL0     C50385  11.412   2.176   7.440  0.2943 -0.8767  0.6181
  374MOL0     O50386  11.438   2.109   7.316  0.1120 -1.0784 -0.8195
  374MOL0     C50387  11.549   2.050   7.273  0.1372 -0.1894  0.3295
  374MOL0     C50388  11.678   2.098   7.285  0.8335 -0.2946  0.5519
  374MOL0     C50389  11.786   2.033   7.222 -0.0967  1.2424  1.0501
  374MOL0     C50390  11.775   1.917   7.160  0.2254  0.4591  0.2023
  374MOL0     O50391  11.881   1.843   7.117 -0.0472  0.1774  0.1996
  374MOL0     C50392  11.944   1.863   6.992 -1.0165  0.1020  0.7646
  374MOL0     C50393  12.006   1.730   6.948 -0.3567 -0.2525  0.4602
  374MOL0     C50394  11.896   1.633   6.913 -0.7385  0.2855 -0.4815
  374MOL0     C50395  11.958   1.507   6.849 -0.3386 -0.6164  0.6963
  374MOL0     C50396  11.866   1.388   6.816  0.1785 -0.4345 -1.3243
  374MOL0     C50397  11.811   1.320   6.942  0.9289 -0.5590  0.0684
  374MOL0     C50398  11.759   1.179   6.916  0.1399 -0.0338 -0.3552
  374MOL0     C50399  11.857   1.067   6.892  1.4729  0.4769 -0.3289
  374MOL0    Cl50400  11.785   0.902   6.890 -0.1829  0.5793  0.2264
  374MOL0     C50401  11.644   1.870   7.147 -0.3580  0.3501 -0.2535
  374MOL0     C50402  11.529   1.937   7.192  0.1351 -0.3903  0.1707
  374MOL0     O50403  11.499   2.207   7.518 -0.1473 -0.8979 -0.6453
  374MOL0     C50404  11.199   2.253   7.308  0.2915  0.2900 -0.7232
  374MOL0     C50405  11.068   2.298   7.306 -0.2810 -1.3615 -0.6446
  374MOL0     N50406  10.450   2.064   7.637 -0.2476  0.3681 -0.1255
  374MOL0     N50407  10.398   1.953   7.672 -0.3077 -0.7702  0.1547
  374MOL0     C50408   9.263   1.549   7.921  0.3605  0.8973 -0.6237
  374MOL0     C50409   9.127   1.555   7.905  0.2741 -0.2756 -1.3167
  374MOL0     C50410   8.683   1.502   7.872  0.5326  0.4487 -0.1232
  374MOL0     C50411   8.632   1.537   7.743 -0.5699 -0.3146 -0.2853
  374MOL0     C50412   8.503   1.500   7.701  0.2700  0.2885  0.1715
  374MOL0     C50413   8.416   1.434   7.788  0.1862 -0.5233  0.6695
  374MOL0     O50414   8.291   1.407   7.745  0.3105 -0.4659  0.0752
  374MOL0     C50415   8.203   1.349   7.838  0.1138 -0.3471 -0.9080
  374MOL0     C50416   8.049   1.353   7.796  0.4530  1.1301 -0.7123
  374MOL0     C50417   8.010   1.244   7.710  0.5431 -0.2878 -0.3871
  374MOL0     C50418   8.090   1.110   7.718 -0.0760 -0.9023 -0.4277
  374MOL0     C50419   8.020   1.011   7.643 -0.2652 -0.1592 -0.3709
  374MOL0     C50420   7.964   0.922   7.596  0.0509  0.8579  0.2885
  374MOL0     C50421   8.459   1.430   7.922 -0.3897  0.3294 -0.8977
  374MOL0     C50422   8.591   1.452   7.968  0.8439 -0.1459  0.3954
  374MOL0     H50423   9.063   1.390   7.625  1.6675  0.8875 -0.9724
  374MOL0     H50424   9.307   1.369   7.637  0.8664  1.1660 -1.4415
  374MOL0     H50425   9.510   1.283   7.850 -1.7315 -0.2162 -0.6289
  374MOL0     H50426   9.511   1.338   7.676 -1.1806  0.3537  0.7235
  374MOL0     H50427   9.759   1.362   7.868  2.3498  1.3176 -0.3894
  374MOL0     H50428   9.734   1.291   7.707 -0.6391  1.0458 -1.7316
  374MOL0     H50429   9.698   1.525   7.624  0.0239  2.5207  0.7273
  374MOL0     H50430   9.727   1.592   7.775  1.2946  2.3322 -1.7437
  374MOL0     H50431   9.958   1.434   7.748  2.7387  3.6367  1.0473
  374MOL0     H50432   9.909   1.446   7.588  1.3874 -1.3614  0.6754
  374MOL0     H50433   9.906   1.708   7.625 -1.7374  0.4703  0.9369
  374MOL0     H50434   9.949   1.675   7.793  0.6212  2.6398 -1.2246
  374MOL0     H50435  10.163   1.560   7.701 -0.2501 -3.3861 -1.2442
  374MOL0     H50436  10.087   1.575   7.542  1.2347 -0.8350  0.7122
  374MOL0     H50437  10.089   1.827   7.556 -0.3598  1.3833  2.1150
  374MOL0     H50438  10.169   1.810   7.711  0.3326  2.6377 -1.8618
  374MOL0     H50439  10.294   1.725   7.452 -0.7439  1.2132 -0.1900
  374MOL0     H50440  10.361   1.694   7.608 -0.6755 -1.5325 -0.7022
  374MOL0     H50441  10.297   1.976   7.351 -1.1869  0.3656 -0.0594
  374MOL0     H50442  10.388   2.239   7.351 -2.0402  1.8641  1.7979
  374MOL0     H50443  10.429   2.300   7.512  2.0238  0.3201  0.5037
  374MOL0     H50444  10.612   2.177   7.295 -0.6472  0.0449 -0.5909
  374MOL0     H50445  10.669   2.205   7.464 -0.9611  3.1834  2.8974
  374MOL0     H50446  10.617   2.462   7.417 -2.4796  0.1784 -0.6675
  374MOL0     H50447  10.585   2.403   7.254  1.5972 -0.2580 -0.9300
  374MOL0     H50448  10.811   2.480   7.265 -0.6248 -0.1137 -1.7926
  374MOL0     H50449  10.809   2.302   7.251 -3.0964 -0.9009  0.7121
  374MOL0     H50450  11.009   2.328   7.636  0.3828 -2.0169  0.6039
  374MOL0     H50451  11.252   2.170   7.732 -0.0729  0.0030  1.0675
  374MOL0     H50452  11.360   2.308   7.679  0.5914 -0.4577  2.3092
  374MOL0     H50453  11.201   2.343   7.742 -0.2310  0.3682 -1.1045
  374MOL0     H50454  11.710   2.181   7.348  0.9095  0.3794 -0.3480
  374MOL0     H50455  11.881   2.079   7.248  1.3433 -0.7425 -0.4319
  374MOL0     H50456  11.883   1.908   6.913  0.3756  3.3611  1.4262
  374MOL0     H50457  12.026   1.931   7.012 -1.3048  0.1551  1.8746
  374MOL0     H50458  12.068   1.755   6.862  1.9697 -0.2882  2.0288
  374MOL0     H50459  12.078   1.688   7.019  1.7415 -0.3904 -1.6370
  374MOL0     H50460  11.817   1.674   6.849 -0.3813 -1.1542 -1.9021
  374MOL0     H50461  11.855   1.605   7.010  0.3917  0.4216  0.0538
  374MOL0     H50462  11.984   1.532   6.746 -2.2434  0.8100  0.5094
  374MOL0     H50463  12.048   1.489   6.909  2.1291  3.7079 -1.2167
  374MOL0     H50464  11.916   1.318   6.748 -2.6629 -1.5483 -2.4374
  374MOL0     H50465  11.778   1.416   6.758 -0.3901 -0.9008 -0.7091
  374MOL0     H50466  11.889   1.317   7.019  0.0051  0.9127  1.1164
  374MOL0     H50467  11.726   1.374   6.984  1.5933 -0.2738  1.0959
  374MOL0     H50468  11.699   1.175   6.825  0.2229 -0.3536 -0.3963
  374MOL0     H50469  11.695   1.158   7.003  0.5466  1.8851  0.4627
  374MOL0     H50470  11.943   1.077   6.959 -0.6386  2.0498  2.3609
  374MOL0     H50471  11.882   1.090   6.788 -3.0703 -0.4742 -1.8496
  374MOL0     H50472  11.648   1.769   7.107  2.1051  0.7091 -1.0211
  374MOL0     H50473  11.435   1.894   7.160  1.4799 -2.0064 -1.8677
  374MOL0     H50474  11.244   2.227   7.212 -1.3982  0.1146 -1.4916
  374MOL0     H50475  11.012   2.313   7.214 -1.7773 -2.2379  0.0897
  374MOL0     H50476   9.317   1.612   7.991  0.5571 -1.8502  1.8715
  374MOL0     H50477   9.079   1.607   7.986 -0.7974 -2.9831 -0.1103
  374MOL0     H50478   8.694   1.590   7.671 -1.4238  0.2934 -0.5850
  374MOL0     H50479   8.479   1.522   7.597 -2.0647  0.3471  0.6787
  374MOL0     H50480   8.249   1.252   7.862  2.3633 -0.1106 -3.8236
  374MOL0     H50481   8.195   1.413   7.927 -2.4698  2.8662 -3.2403
  374MOL0     H50482   8.017   1.448   7.753  0.7898  1.0914 -1.0501
  374MOL0     H50483   7.986   1.351   7.886 -0.1987 -0.8889 -1.1591
  374MOL0     H50484   8.031   1.291   7.613  2.4638 -0.7297 -0.2305
  374MOL0     H50485   7.902   1.228   7.718  0.5790 -1.4650 -1.9076
  374MOL0     H50486   8.105   1.076   7.821  2.1892  0.0184 -0.4026
  374MOL0     H50487   8.184   1.117   7.662  0.4574 -0.9833  0.4422
  374MOL0     H50488   7.936   0.833   7.543  0.6293  1.8031 -1.6657
  374MOL0     H50489   8.401   1.376   7.996  1.3880  1.6303  1.5928
  374MOL0     H50490   8.624   1.423   8.067  3.9475  2.9732  0.4423
  375MOL0     O50491   0.460   7.238   7.422 -0.2029  0.4079  0.6117
  375MOL0     C50492   0.421   7.323   7.339 -1.4197 -0.6035  0.1012
  375MOL0     O50493   0.490   7.356   7.226 -0.2497 -0.2906 -0.4459
  375MOL0     C50494   0.594   7.284   7.187 -1.2322  0.8131 -0.2904
  375MOL0     C50495   0.598   7.144   7.157 -0.4270  0.1934 -0.7109
  375MOL0     C50496   0.714   7.088   7.103  0.6951  1.1371 -1.4824
  375MOL0     C50497   0.828   7.150   7.087  0.0250  1.0580  0.4031
  375MOL0     O50498   0.936   7.075   7.039 -0.0040 -0.1172  0.4363
  375MOL0     C50499   1.063   7.115   7.080  0.5545  0.7919 -0.0193
  375MOL0     C50500   1.163   7.006   7.127  0.3043  0.2446 -0.0995
  375MOL0     C50501   1.108   6.954   7.266 -0.1235  0.3189 -0.2544
  375MOL0     C50502   1.070   6.808   7.242 -0.1382  0.8812  0.3543
  375MOL0     C50503   0.984   6.750   7.357 -0.6097  0.9384 -0.4997
  375MOL0     C50504   0.847   6.802   7.334 -0.7248 -0.4366 -0.2774
  375MOL0     C50505   0.740   6.779   7.441 -0.5090 -0.3322 -0.2432
  375MOL0     C50506   0.679   6.636   7.405 -0.6805  0.4383  0.3509
  375MOL0     N50507   0.596   6.597   7.526  0.0415 -0.7483  0.1878
  375MOL0     C50508   0.599   6.470   7.578  0.7700  0.1883 -0.1416
  375MOL0     C50509   0.515   6.486   7.692  0.1102  0.0104  0.4418
  375MOL0     C50510   0.495   6.369   7.795 -0.0255 -0.3525 -0.4236
  375MOL0     C50511   0.352   6.320   7.797 -1.2739 -0.4444  0.1863
  375MOL0     C50512   0.329   6.198   7.895  1.0596 -0.5705 -0.0756
  375MOL0     C50513   0.203   6.127   7.866  0.8408 -0.2283 -0.7469
  375MOL0     O50514   0.197   6.015   7.960  0.3080 -0.0324 -0.3893
  375MOL0     C50515   0.250   5.896   7.917 -0.0000 -0.3443 -0.0120
  375MOL0     C50516   0.340   5.883   7.814 -0.1743 -0.0892 -0.4732
  375MOL0     C50517   0.384   5.760   7.765  0.7682 -0.3864 -0.1582
  375MOL0     C50518   0.472   5.768   7.643  0.2737  0.6045  0.5930
  375MOL0     C50519   0.348   5.641   7.825 -0.4672 -0.1704 -0.5431
  375MOL0     C50520   0.375   5.500   7.787 -0.7659 -0.8521  0.6346
  375MOL0     O50521   0.434   5.475   7.663  0.5815 -0.0413  0.4932
  375MOL0     C50522   0.523   5.377   7.647  0.1522 -0.3772  0.5842
  375MOL0     C50523   0.626   5.352   7.745 -0.1370 -0.2822 -0.1607
  375MOL0     C50524   0.716   5.250   7.718 -0.0365  0.8484  0.4135
  375MOL0     C50525   0.704   5.173   7.600  0.7871 -0.1521 -0.0347
  375MOL0     O50526   0.798   5.074   7.576  0.3305 -0.0370 -0.0622
  375MOL0     C50527   0.767   4.980   7.474 -0.9848 -0.3711 -0.1800
  375MOL0     C50528   0.876   4.872   7.480 -0.3266 -0.0608 -0.7257
  375MOL0     C50529   0.880   4.777   7.361 -0.0471  0.2653  1.0646
  375MOL0     C50530   0.929   4.634   7.397  0.0123  0.7327 -0.7216
  375MOL0     C50531   0.872   4.517   7.300 -0.0042 -0.3841 -0.0582
  375MOL0     C50532   0.937   4.377   7.321  0.1693 -0.2760 -0.6792
  375MOL0     C50533   0.908   4.294   7.201  0.7328  0.2525  1.4550
  375MOL0     C50534   0.992   4.166   7.207 -0.3377 -0.0484 -0.5613
  375MOL0    Cl50535   0.980   4.076   7.062 -0.1270 -0.3105  0.1867
  375MOL0     C50536   0.589   5.195   7.508  0.2821  0.0449  0.9572
  375MOL0     C50537   0.501   5.302   7.533 -0.0098 -0.0575 -0.4132
  375MOL0     O50538   0.351   5.414   7.866  0.2648  0.1288 -0.3339
  375MOL0     C50539   0.254   5.652   7.939  0.3670  0.4456  0.5675
  375MOL0     C50540   0.208   5.777   7.981  0.1083 -0.2531  0.7411
  375MOL0     N50541   0.465   6.613   7.705  0.3819  1.0861 -0.6101
  375MOL0     N50542   0.513   6.674   7.599 -0.4672 -0.4431 -0.4313
  375MOL0     C50543   0.831   7.290   7.104 -1.2241 -0.1517 -0.7750
  375MOL0     C50544   0.714   7.356   7.154 -0.1920 -0.7056  0.1985
  375MOL0     C50545   0.300   7.403   7.362 -0.0724 -0.2967  0.2376
  375MOL0     C50546   0.226   7.451   7.261  0.7527  0.3237 -0.0879
  375MOL0     C50547   0.097   7.501   7.299 -0.0383 -0.3382 -0.3386
  375MOL0     C50548   0.066   7.529   7.434 -0.6921  0.0835 -0.2373
  375MOL0     O50549  -0.042   7.605   7.469 -0.5243 -0.6098 -0.3903
  375MOL0     C50550  -0.171   7.556   7.425 -1.2102 -1.1518  1.0734
  375MOL0     C50551  -0.237   7.446   7.501  0.9330 -0.9230  0.9241
  375MOL0     C50552  -0.384   7.438   7.466 -0.0329 -0.6754 -0.2864
  375MOL0     C50553  -0.411   7.366   7.340 -0.6256 -0.5892  0.0074
  375MOL0     C50554  -0.347   7.238   7.324 -0.0452  0.3183 -0.5733
  375MOL0     C50555  -0.307   7.122   7.296 -0.5188  0.2003  0.2323
  375MOL0     C50556   0.157   7.489   7.532 -0.2027  0.0458  0.2728
  375MOL0     C50557   0.269   7.417   7.500  0.2478  0.2875  0.0682
  375MOL0     H50558   0.511   7.083   7.179 -0.8054  1.1534  0.5389
  375MOL0     H50559   0.715   6.980   7.094 -1.3376  0.7930  1.1595
  375MOL0     H50560   1.111   7.160   6.992 -0.4062  1.2537 -0.3198
  375MOL0     H50561   1.073   7.186   7.162 -0.7008  2.5484 -1.3240
  375MOL0     H50562   1.174   6.923   7.057  0.0058 -0.0558  0.2105
  375MOL0     H50563   1.259   7.057   7.143  1.2063 -2.0508  2.7733
  375MOL0     H50564   1.187   6.963   7.340  0.2237  1.7687 -0.7717
  375MOL0     H50565   1.024   7.020   7.292  0.8029  1.5551 -0.2853
  375MOL0     H50566   1.010   6.787   7.153 -3.7841  1.5717  2.4502
  375MOL0     H50567   1.167   6.758   7.233  0.1406  1.6094 -1.0168
  375MOL0     H50568   0.984   6.641   7.367  0.3305  0.8813 -0.9336
  375MOL0     H50569   1.025   6.801   7.444 -0.6046  0.5621 -0.2813
  375MOL0     H50570   0.841   6.910   7.317 -2.1540 -0.2834  1.0037
  375MOL0     H50571   0.800   6.768   7.241  0.2259  3.0947 -2.2535
  375MOL0     H50572   0.773   6.787   7.545  1.1228 -0.8849 -0.6818
  375MOL0     H50573   0.668   6.859   7.421 -1.7749 -2.1934 -4.1599
  375MOL0     H50574   0.760   6.563   7.397 -0.9190  0.0794  1.1964
  375MOL0     H50575   0.621   6.624   7.313  0.1165 -0.5827 -0.0386
  375MOL0     H50576   0.662   6.386   7.550 -1.6885 -1.6067 -0.6550
  375MOL0     H50577   0.569   6.293   7.769  0.0967 -0.5620  0.5002
  375MOL0     H50578   0.515   6.396   7.899 -0.9599 -1.8344  0.1608
  375MOL0     H50579   0.322   6.293   7.695  0.2454 -1.1368 -0.1023
  375MOL0     H50580   0.291   6.403   7.834  0.2757  1.0379 -0.4456
  375MOL0     H50581   0.323   6.231   7.999  1.4411 -0.6404 -0.0280
  375MOL0     H50582   0.417   6.133   7.891  1.0315 -0.6301  0.2163
  375MOL0     H50583   0.202   6.099   7.760  0.3637  2.0488 -1.4120
  375MOL0     H50584   0.117   6.186   7.899  0.2252 -2.0839  1.2137
  375MOL0     H50585   0.375   5.977   7.771 -1.3262 -0.0255 -1.3147
  375MOL0     H50586   0.440   5.856   7.587  2.2703  1.5064  0.8245
  375MOL0     H50587   0.580   5.771   7.655  0.2870 -0.3634  0.8484
  375MOL0     H50588   0.454   5.680   7.579  2.5920  1.9974 -2.1944
  375MOL0     H50589   0.631   5.413   7.834 -2.3369  0.9332 -0.7896
  375MOL0     H50590   0.802   5.234   7.781  2.3913 -1.8705 -3.2088
  375MOL0     H50591   0.669   4.932   7.473 -0.6910 -0.9680 -0.4060
  375MOL0     H50592   0.762   5.044   7.385  0.6465 -0.7733 -0.5943
  375MOL0     H50593   0.973   4.922   7.487 -0.0834  0.1779 -4.1739
  375MOL0     H50594   0.858   4.811   7.569 -1.0078 -1.0935 -1.5470
  375MOL0     H50595   0.935   4.822   7.278  0.2203  1.0928  1.6755
  375MOL0     H50596   0.777   4.775   7.326 -0.6410  2.1178  2.5690
  375MOL0     H50597   1.037   4.647   7.390  0.1276  1.0224  1.1367
  375MOL0     H50598   0.905   4.594   7.496  1.1671 -0.1480 -0.7743
  375MOL0     H50599   0.892   4.546   7.197 -0.1892  0.5798  0.1703
  375MOL0     H50600   0.763   4.514   7.310 -0.1036  1.5071 -0.3454
  375MOL0     H50601   1.043   4.399   7.332  0.0982  0.5436 -1.4889
  375MOL0     H50602   0.888   4.337   7.411 -0.9600  3.5762  0.6498
  375MOL0     H50603   0.912   4.344   7.103  0.6196 -2.2260  0.0926
  375MOL0     H50604   0.806   4.255   7.203  0.1478  1.3052 -1.9927
  375MOL0     H50605   0.959   4.109   7.295 -0.5089  0.2404 -0.4347
  375MOL0     H50606   1.094   4.196   7.228 -1.7240  2.9697  2.9051
  375MOL0     H50607   0.573   5.142   7.415 -1.2314  2.2852 -0.1646
  375MOL0     H50608   0.417   5.339   7.475  0.0280  0.7446  0.0285
  375MOL0     H50609   0.217   5.565   7.993 -1.9962 -0.3546 -2.0759
  375MOL0     H50610   0.141   5.796   8.064  1.1924 -0.6589  1.7289
  375MOL0     H50611   0.912   7.345   7.058 -0.2496 -1.7893 -1.1112
  375MOL0     H50612   0.706   7.464   7.160  1.9627 -0.5431  1.2059
  375MOL0     H50613   0.264   7.448   7.159  1.3108 -3.9237  0.0352
  375MOL0     H50614   0.055   7.559   7.218 -0.1114  0.7552  0.4480
  375MOL0     H50615  -0.238   7.642   7.428  1.4632  1.2114 -1.4945
  375MOL0     H50616  -0.158   7.532   7.319 -0.0642  2.8550  0.1425
  375MOL0     H50617  -0.220   7.469   7.606  2.6340 -0.1319  0.5203
  375MOL0     H50618  -0.178   7.355   7.484  2.4085 -0.1118  1.4500
  375MOL0     H50619  -0.427   7.538   7.472 -0.1306 -0.7830  1.8078
  375MOL0     H50620  -0.437   7.378   7.541  0.9884  0.1642  1.1670
  375MOL0     H50621  -0.382   7.427   7.253 -1.4955 -0.9237 -0.5286
  375MOL0     H50622  -0.517   7.344   7.328 -0.6180  0.0396 -1.5899
  375MOL0     H50623  -0.289   7.020   7.268  1.5439 -0.4056  3.2341
  375MOL0     H50624   0.135   7.509   7.636 -2.4578 -0.3193 -0.0637
  375MOL0     H50625   0.328   7.374   7.580  4.0554  2.4671 -1.2986
  376MOL0     O50626   1.638   9.413   0.035 -0.0524 -0.1441 -0.7733
  376MOL0     C50627   1.549   9.355  -0.033 -0.4117 -0.3905 -0.5097
  376MOL0     O50628   1.519   9.380  -0.163  0.1872  0.0616 -0.0326
  376MOL0     C50629   1.609   9.449  -0.246  0.0635 -0.2179  0.0901
  376MOL0     C50630   1.748   9.445  -0.233  0.4110 -0.4082  0.5315
  376MOL0     C50631   1.839   9.501  -0.325 -0.0076  0.1087  0.7906
  376MOL0     C50632   1.779   9.590  -0.415  0.4061 -0.3070 -0.7644
  376MOL0     O50633   1.861   9.659  -0.500  0.4002 -0.1788  0.1405
  376MOL0     C50634   1.873   9.610  -0.635 -0.2496  0.3044 -1.1743
  376MOL0     C50635   2.025   9.591  -0.657  0.6565  1.4271 -0.0066
  376MOL0     C50636   2.097   9.698  -0.722  0.3614 -0.8982  0.0038
  376MOL0     C50637   2.055   9.719  -0.871  0.1820 -0.4522  0.6354
  376MOL0     C50638   2.133   9.828  -0.940  0.3578 -0.4117 -0.1436
  376MOL0     C50639   2.078   9.836  -1.082  0.7772  0.1579 -0.1938
  376MOL0     C50640   2.124   9.957  -1.147  0.4192 -0.5967 -0.8885
  376MOL0     C50641   2.066   9.953  -1.288 -0.5318  0.5577 -0.5019
  376MOL0     N50642   2.124  10.054  -1.376  0.9344 -0.4138 -0.3301
  376MOL0     C50643   2.255  10.062  -1.427 -0.1031  0.5958 -0.4146
  376MOL0     C50644   2.269  10.180  -1.488 -1.3561  0.4691 -0.4393
  376MOL0     C50645   2.390  10.217  -1.576  0.5767  0.8931  0.5105
  376MOL0     C50646   2.338  10.197  -1.723 -0.3702  0.0543 -0.1545
  376MOL0     C50647   2.432  10.238  -1.829 -0.4072  0.2197  0.8071
  376MOL0     C50648   2.446  10.388  -1.837 -0.3613  1.5840  0.1642
  376MOL0     O50649   2.547  10.431  -1.937  0.6280  0.4530 -0.2641
  376MOL0     C50650   2.489  10.471  -2.055 -0.7382 -0.5103  0.6485
  376MOL0     C50651   2.483  10.377  -2.165 -0.2392 -0.4509  0.1714
  376MOL0     C50652   2.413  10.409  -2.282 -0.5221  0.1445 -0.3051
  376MOL0     C50653   2.397  10.312  -2.401  0.5992  0.4084  0.0199
  376MOL0     C50654   2.332  10.521  -2.288 -0.4000  0.0696  0.0423
  376MOL0     C50655   2.230  10.557  -2.397  0.0688 -0.5689 -0.2770
  376MOL0     O50656   2.271  10.649  -2.479  0.0482  0.6913  0.9642
  376MOL0     C50657   2.184  10.702  -2.564 -0.4719 -0.2820  0.4778
  376MOL0     C50658   2.100  10.629  -2.656  0.0305  0.1761  0.5676
  376MOL0     C50659   2.005  10.701  -2.737 -0.1501  0.2720 -0.5776
  376MOL0     C50660   1.988  10.835  -2.718 -0.6165 -0.0222 -0.6920
  376MOL0     O50661   1.903  10.906  -2.798  0.8752 -0.0741 -0.1628
  376MOL0     C50662   1.769  10.947  -2.740 -0.5476 -0.0287 -0.2075
  376MOL0     C50663   1.656  10.855  -2.792 -0.4716 -0.2287  0.4508
  376MOL0     C50664   1.511  10.883  -2.740 -0.4393  0.0141 -0.0857
  376MOL0     C50665   1.442  11.010  -2.788  0.1360  0.3197  0.6561
  376MOL0     C50666   1.302  11.027  -2.716  0.7394  0.1577  0.0326
  376MOL0     C50667   1.238  11.168  -2.731 -0.5707 -1.1106 -0.1075
  376MOL0     C50668   1.170  11.199  -2.862 -0.0374 -0.0437 -0.7592
  376MOL0     C50669   1.239  11.287  -2.960  0.3239 -0.6935 -0.5260
  376MOL0    Cl50670   1.134  11.287  -3.108 -0.1966 -0.2596  0.2592
  376MOL0     C50671   2.078  10.908  -2.633  1.2860 -0.2863 -0.3498
  376MOL0     C50672   2.174  10.840  -2.555 -0.3427 -0.0092  0.5918
  376MOL0     O50673   2.118  10.509  -2.389 -0.4478  0.2103 -0.8788
  376MOL0     C50674   2.350  10.619  -2.188  0.3360 -0.1893  0.0003
  376MOL0     C50675   2.422  10.590  -2.074  0.3345  0.8297 -0.2660
  376MOL0     N50676   2.160  10.257  -1.461  0.1558 -0.7050 -0.5835
  376MOL0     N50677   2.076  10.186  -1.396  0.5809  0.6858 -0.0797
  376MOL0     C50678   1.638   9.602  -0.439 -0.6848 -0.1523 -0.7029
  376MOL0     C50679   1.552   9.536  -0.346  0.4519  0.8585 -0.9598
  376MOL0     C50680   1.461   9.250   0.032  0.3248 -0.5286  0.1763
  376MOL0     C50681   1.339   9.200  -0.037 -0.4613 -0.9390 -0.9083
  376MOL0     C50682   1.254   9.106   0.024 -0.3287 -0.5136 -0.5522
  376MOL0     C50683   1.292   9.054   0.150  0.0388 -0.5251 -0.0931
  376MOL0     O50684   1.220   8.969   0.227  0.2039 -0.1515 -0.3040
  376MOL0     C50685   1.137   8.867   0.163 -1.0980  0.5456  0.3501
  376MOL0     C50686   1.038   8.824   0.263 -0.6439 -0.6953  0.5006
  376MOL0     C50687   1.119   8.734   0.352 -0.1991 -1.2084  0.2828
  376MOL0     C50688   1.162   8.593   0.300  0.6511  0.0893  0.4680
  376MOL0     C50689   1.226   8.522   0.407 -0.0934 -0.0931 -0.6319
  376MOL0     C50690   1.313   8.462   0.479  1.0831 -0.3539 -0.2295
  376MOL0     C50691   1.405   9.104   0.209  0.0187  0.5016  0.2512
  376MOL0     C50692   1.498   9.187   0.149 -0.4438  0.2832  0.3394
  376MOL0     H50693   1.794   9.378  -0.160 -0.2327 -1.7744 -0.2888
  376MOL0     H50694   1.947   9.489  -0.320  0.3475  1.4323 -1.9180
  376MOL0     H50695   1.812   9.524  -0.663  0.8057 -0.4635 -1.1554
  376MOL0     H50696   1.837   9.692  -0.698 -0.8564  1.9305  1.1390
  376MOL0     H50697   2.069   9.558  -0.562  1.1074  1.6794 -0.1240
  376MOL0     H50698   2.038   9.497  -0.710 -0.1591  0.4473  1.4691
  376MOL0     H50699   2.068   9.791  -0.672  1.1820 -0.8818  0.4718
  376MOL0     H50700   2.205   9.682  -0.710  0.2534  0.0974  3.7810
  376MOL0     H50701   2.079   9.626  -0.923 -1.8457 -1.7524  1.9074
  376MOL0     H50702   1.948   9.744  -0.876  0.8986  3.1419  0.3421
  376MOL0     H50703   2.120   9.921  -0.884 -0.9376  1.1716 -2.8598
  376MOL0     H50704   2.237   9.797  -0.950  1.1640  1.6225  1.4296
  376MOL0     H50705   2.103   9.747  -1.141 -0.7313 -0.4631  0.0501
  376MOL0     H50706   1.970   9.854  -1.079  0.4321 -1.4789 -1.5534
  376MOL0     H50707   2.079  10.045  -1.100 -0.0554 -0.0311 -2.3134
  376MOL0     H50708   2.233   9.969  -1.151  0.7788 -2.3031  1.7294
  376MOL0     H50709   1.958   9.966  -1.293 -0.3029  2.5143 -0.9140
  376MOL0     H50710   2.098   9.852  -1.318  3.2308  0.1986  3.6092
  376MOL0     H50711   2.323   9.978  -1.437  1.2729  1.6967 -0.5855
  376MOL0     H50712   2.424  10.318  -1.550 -1.0294  1.5441  0.1809
  376MOL0     H50713   2.463  10.137  -1.560 -0.1837 -0.5188 -2.3994
  376MOL0     H50714   2.238  10.242  -1.727 -0.2131  0.5964  1.1899
  376MOL0     H50715   2.316  10.090  -1.724 -1.3239  0.2097  1.0060
  376MOL0     H50716   2.408  10.201  -1.929  1.9593 -0.2447  0.3285
  376MOL0     H50717   2.526  10.188  -1.805  1.0470  2.7368  0.7420
  376MOL0     H50718   2.477  10.418  -1.736 -0.0160  1.3781  0.1216
  376MOL0     H50719   2.351  10.436  -1.863 -0.0697  2.1655  0.1607
  376MOL0     H50720   2.531  10.280  -2.153 -0.9367 -0.6178  1.8006
  376MOL0     H50721   2.444  10.356  -2.489  2.8636  0.0141  0.9785
  376MOL0     H50722   2.459  10.224  -2.382  0.9858  0.8814  1.0303
  376MOL0     H50723   2.293  10.282  -2.418  0.8097 -0.7410  0.6878
  376MOL0     H50724   2.114  10.524  -2.675 -0.5983  0.5777 -2.6989
  376MOL0     H50725   1.948  10.642  -2.808 -0.7163 -1.2242  1.0613
  376MOL0     H50726   1.769  10.948  -2.631  1.4044  1.3976 -0.1621
  376MOL0     H50727   1.746  11.052  -2.760  2.5830  0.5607 -1.2392
  376MOL0     H50728   1.647  10.874  -2.900 -4.0408 -0.2538  0.6530
  376MOL0     H50729   1.686  10.751  -2.775  2.5626 -0.0625 -2.6820
  376MOL0     H50730   1.508  10.892  -2.631 -1.5841  2.4965 -0.2651
  376MOL0     H50731   1.446  10.798  -2.763  1.5380 -1.9831  1.2665
  376MOL0     H50732   1.500  11.103  -2.779 -1.4377  1.2948  1.1732
  376MOL0     H50733   1.420  10.999  -2.895  1.2595  1.4201  0.2897
  376MOL0     H50734   1.305  11.008  -2.609 -0.6616  2.4597  0.5592
  376MOL0     H50735   1.226  10.955  -2.748 -1.6525  1.8651  1.5261
  376MOL0     H50736   1.154  11.163  -2.662 -0.0997  0.7428  0.6387
  376MOL0     H50737   1.314  11.244  -2.713 -2.2396  0.5248  0.3552
  376MOL0     H50738   1.074  11.243  -2.832 -0.1389 -2.0445  2.2672
  376MOL0     H50739   1.142  11.105  -2.910 -2.5362 -1.2234  2.6519
  376MOL0     H50740   1.339  11.246  -2.981  0.4082 -0.0471 -1.4202
  376MOL0     H50741   1.242  11.390  -2.924 -0.0446 -0.5178 -0.9891
  376MOL0     H50742   2.055  11.012  -2.609  1.0408 -0.5188  0.4416
  376MOL0     H50743   2.251  10.890  -2.497 -1.9041 -0.1882  2.9545
  376MOL0     H50744   2.300  10.715  -2.201  0.4115  0.0003  1.0218
  376MOL0     H50745   2.421  10.656  -1.987  2.3313  2.5847 -1.4627
  376MOL0     H50746   1.608   9.675  -0.514  1.0498  0.0702 -1.2154
  376MOL0     H50747   1.445   9.540  -0.364 -0.2333 -0.4735  2.1359
  376MOL0     H50748   1.311   9.248  -0.130 -1.4546  0.8771  0.2732
  376MOL0     H50749   1.155   9.086  -0.015  0.3433 -1.6471 -1.7959
  376MOL0     H50750   1.084   8.893   0.071  0.8802 -3.1492 -2.1148
  376MOL0     H50751   1.183   8.780   0.115 -0.4261  0.5724  0.9294
  376MOL0     H50752   0.961   8.770   0.208  1.8173 -0.0843 -4.1202
  376MOL0     H50753   0.990   8.915   0.302  3.5116  2.0094 -0.0367
  376MOL0     H50754   1.060   8.723   0.443  1.3438  0.3254  1.5439
  376MOL0     H50755   1.205   8.789   0.391  0.1771 -1.5615 -0.0277
  376MOL0     H50756   1.232   8.596   0.216  1.0451 -1.5801  0.7158
  376MOL0     H50757   1.077   8.529   0.274  1.5905 -1.0681  0.1694
  376MOL0     H50758   1.392   8.415   0.535 -0.6513 -2.0631  0.8998
  376MOL0     H50759   1.436   9.058   0.303  0.1796  0.4331  0.1656
  376MOL0     H50760   1.594   9.210   0.194  0.3286 -1.4397 -0.3590
  377MOL0     O50761   4.203   2.878   4.749 -0.2911 -0.0449 -0.5530
  377MOL0     C50762   4.179   2.835   4.866 -0.4974  0.0251 -0.7767
  377MOL0     O50763   4.122   2.727   4.907 -0.5399  0.1843 -0.4312
  377MOL0     C50764   4.071   2.626   4.833 -0.2419 -0.7405  0.6807
  377MOL0     C50765   4.012   2.524   4.897  0.5098 -0.1024 -1.0473
  377MOL0     C50766   3.971   2.406   4.838  0.5051 -1.0150  0.6282
  377MOL0     C50767   3.980   2.393   4.700  0.4098  0.0443  1.0139
  377MOL0     O50768   3.915   2.298   4.622  0.4268 -0.0829  0.0560
  377MOL0     C50769   3.927   2.155   4.653  0.0681  0.0082 -0.7478
  377MOL0     C50770   3.801   2.081   4.599 -0.1135  0.1584  0.6966
  377MOL0     C50771   3.816   1.932   4.621  0.5280  0.4671  0.4066
  377MOL0     C50772   3.808   1.882   4.762 -0.4974  0.3241 -0.1040
  377MOL0     C50773   3.863   1.743   4.759 -0.7253 -0.2806  0.0565
  377MOL0     C50774   3.850   1.655   4.885  0.3839 -0.8422 -1.1956
  377MOL0     C50775   3.706   1.599   4.898  0.8261 -0.2809 -0.0791
  377MOL0     C50776   3.691   1.460   4.940  0.6146  0.5711 -1.2582
  377MOL0     N50777   3.705   1.445   5.087 -0.2877  0.5071 -0.4242
  377MOL0     C50778   3.601   1.459   5.183  1.2868 -1.1330  0.1550
  377MOL0     C50779   3.662   1.421   5.297 -0.6195 -0.1465  0.2448
  377MOL0     C50780   3.594   1.420   5.431  0.7561 -0.1956 -0.1065
  377MOL0     C50781   3.455   1.350   5.420 -0.0970 -0.1420 -0.3082
  377MOL0     C50782   3.411   1.308   5.559 -0.4688 -0.7483 -0.4636
  377MOL0     C50783   3.271   1.256   5.538  0.2095  0.1438  0.7248
  377MOL0     O50784   3.261   1.131   5.461  0.4423  0.1742 -0.0396
  377MOL0     C50785   3.175   1.043   5.501 -0.0562 -0.1751  0.1618
  377MOL0     C50786   3.040   1.057   5.471 -0.4926  0.1022 -0.4797
  377MOL0     C50787   2.937   0.962   5.512 -0.1788  0.8123  0.0657
  377MOL0     C50788   2.792   0.999   5.454 -0.4879 -0.8658 -0.1651
  377MOL0     C50789   2.977   0.846   5.586 -0.6662 -0.1317 -0.1536
  377MOL0     C50790   2.888   0.738   5.636  0.3146  0.4592 -0.2598
  377MOL0     O50791   2.964   0.624   5.686  0.1785  0.1706  0.0709
  377MOL0     C50792   2.897   0.521   5.748  0.0721 -0.4179  0.8773
  377MOL0     C50793   2.761   0.474   5.720 -0.0886 -0.4252 -0.0263
  377MOL0     C50794   2.718   0.354   5.786 -0.5834 -0.1872  0.0038
  377MOL0     C50795   2.806   0.281   5.870 -0.1210 -0.7581 -0.9534
  377MOL0     O50796   2.751   0.163   5.916 -0.6335  0.3302 -0.2664
  377MOL0     C50797   2.795   0.122   6.038  0.0453  0.2728 -0.3136
  377MOL0     C50798   2.713   0.017   6.101  0.0805  0.1804 -0.4328
  377MOL0     C50799   2.692  -0.111   6.008 -0.4327 -0.2097  0.2941
  377MOL0     C50800   2.565  -0.126   5.936  0.5521  0.8685  0.2585
  377MOL0     C50801   2.544  -0.270   5.899  0.6643  0.5965 -0.2189
  377MOL0     C50802   2.402  -0.302   5.859  0.4170  0.4168 -0.3633
  377MOL0     C50803   2.318  -0.364   5.974  0.3579  0.1172  0.2613
  377MOL0     C50804   2.174  -0.378   5.924 -0.8322 -0.1441 -0.4590
  377MOL0    Cl50805   2.078  -0.455   6.049 -0.3620  0.0518 -0.5263
  377MOL0     C50806   2.933   0.341   5.903 -0.3738  0.3937  0.8045
  377MOL0     C50807   2.980   0.458   5.840 -0.8869 -0.2307  0.2218
  377MOL0     O50808   2.764   0.744   5.615  0.2601  1.0806  0.5408
  377MOL0     C50809   3.118   0.833   5.617 -0.1947 -0.2504  0.6250
  377MOL0     C50810   3.212   0.925   5.577 -0.0210  1.1284 -1.3496
  377MOL0     N50811   3.796   1.387   5.267  1.2067 -0.4844  0.1028
  377MOL0     N50812   3.814   1.398   5.139  0.0040  0.6266 -0.6922
  377MOL0     C50813   4.043   2.499   4.630  0.5638  0.4192 -0.1479
  377MOL0     C50814   4.093   2.615   4.690 -0.8510  0.2007  0.1362
  377MOL0     C50815   4.217   2.924   4.981  0.3076 -0.0217 -0.2087
  377MOL0     C50816   4.233   3.057   4.965  0.0094  0.0899 -0.3522
  377MOL0     C50817   4.262   3.144   5.074 -0.4697  0.6813 -0.8383
  377MOL0     C50818   4.278   3.098   5.201 -0.9186 -0.2766  0.7851
  377MOL0     O50819   4.270   3.193   5.303  0.1172  1.0394 -0.1356
  377MOL0     C50820   4.278   3.156   5.444  0.3001 -0.2637 -0.4627
  377MOL0     C50821   4.247   3.293   5.503  0.5400 -0.3513  0.1731
  377MOL0     C50822   4.261   3.288   5.655  0.5833  0.3379  0.6322
  377MOL0     C50823   4.242   3.427   5.707  0.3643  0.1655 -0.8558
  377MOL0     C50824   4.357   3.515   5.682 -0.5056  0.1829 -0.5346
  377MOL0     C50825   4.448   3.597   5.660  0.4362  0.5670 -0.3264
  377MOL0     C50826   4.256   2.958   5.221  0.0743 -0.8192 -0.7906
  377MOL0     C50827   4.233   2.875   5.109 -0.9605  0.6776 -0.0413
  377MOL0     H50828   4.008   2.535   5.005 -3.7514  0.0253 -1.0763
  377MOL0     H50829   3.930   2.331   4.906  1.0251 -0.1465  1.9447
  377MOL0     H50830   4.012   2.103   4.608  3.0213  2.4372  1.6272
  377MOL0     H50831   3.932   2.139   4.762  2.2554 -0.3377 -0.8633
  377MOL0     H50832   3.703   2.103   4.645 -1.4747 -1.6141 -1.1796
  377MOL0     H50833   3.789   2.114   4.496  2.0744 -0.1590  0.3040
  377MOL0     H50834   3.729   1.881   4.578 -1.5626  3.5406  0.7038
  377MOL0     H50835   3.905   1.899   4.567 -0.1805  1.2515 -1.2917
  377MOL0     H50836   3.890   1.924   4.821 -0.4166 -0.8231  0.6432
  377MOL0     H50837   3.716   1.898   4.819 -0.0723 -0.0671  0.7145
  377MOL0     H50838   3.800   1.705   4.678 -1.2417  1.9042 -0.6212
  377MOL0     H50839   3.969   1.738   4.732 -0.5085 -4.2847  0.9491
  377MOL0     H50840   3.916   1.568   4.893  0.7667 -0.3739  2.1454
  377MOL0     H50841   3.884   1.704   4.977  3.4347 -1.0902 -2.0864
  377MOL0     H50842   3.654   1.658   4.974 -2.0104 -1.0463 -1.2758
  377MOL0     H50843   3.651   1.611   4.804  1.7447  1.6953 -0.4205
  377MOL0     H50844   3.750   1.383   4.888  0.9010  0.4006 -0.6848
  377MOL0     H50845   3.588   1.431   4.913  0.8717 -1.2236 -0.4282
  377MOL0     H50846   3.496   1.484   5.169  1.8098 -0.5213 -3.6577
  377MOL0     H50847   3.659   1.367   5.501 -0.2600 -1.3652 -0.0156
  377MOL0     H50848   3.580   1.522   5.468  0.3162  0.0033 -0.8100
  377MOL0     H50849   3.471   1.271   5.346  3.1014 -0.8546  0.9443
  377MOL0     H50850   3.386   1.426   5.382 -0.0862 -0.1494 -0.3422
  377MOL0     H50851   3.414   1.400   5.618 -1.0634  0.4262 -2.1559
  377MOL0     H50852   3.473   1.227   5.600  0.1811  0.0349  0.1259
  377MOL0     H50853   3.217   1.338   5.489 -0.5724 -0.9595 -0.3200
  377MOL0     H50854   3.222   1.225   5.631  1.0648 -4.7338 -0.1433
  377MOL0     H50855   3.001   1.139   5.412 -2.5849 -0.3313  0.2227
  377MOL0     H50856   2.751   0.926   5.384  0.8803 -2.9768  1.1116
  377MOL0     H50857   2.727   1.006   5.541  3.3303 -1.8824  3.0266
  377MOL0     H50858   2.795   1.100   5.411  2.8083 -1.6822 -2.2503
  377MOL0     H50859   2.691   0.516   5.649  2.2874  0.5617 -1.8950
  377MOL0     H50860   2.619   0.314   5.768 -0.5763  0.6551 -2.2596
  377MOL0     H50861   2.894   0.077   6.032 -0.4903 -0.7724 -2.3937
  377MOL0     H50862   2.792   0.211   6.101 -2.1801  0.1565 -0.1707
  377MOL0     H50863   2.762  -0.008   6.196 -1.6534 -1.0867  0.1700
  377MOL0     H50864   2.625   0.075   6.129 -0.5068 -0.5249 -0.7978
  377MOL0     H50865   2.709  -0.188   6.084  2.2134  3.7240  4.1504
  377MOL0     H50866   2.765  -0.126   5.928 -0.7489  0.8744 -0.2118
  377MOL0     H50867   2.481  -0.103   6.002  1.6645 -0.1647  2.0919
  377MOL0     H50868   2.553  -0.066   5.845  3.4411  2.4507  0.8085
  377MOL0     H50869   2.587  -0.333   5.978  4.9042  3.1230 -0.2223
  377MOL0     H50870   2.611  -0.281   5.812  2.3391  1.7740  0.8520
  377MOL0     H50871   2.349  -0.213   5.823 -2.0069 -1.3527 -1.4470
  377MOL0     H50872   2.415  -0.375   5.778 -0.4688  1.1754 -1.2095
  377MOL0     H50873   2.324  -0.316   6.072 -0.8219  0.4518  0.1840
  377MOL0     H50874   2.363  -0.462   5.994 -0.7433 -0.3103  0.7205
  377MOL0     H50875   2.167  -0.440   5.834  0.2497  0.9494 -1.3363
  377MOL0     H50876   2.125  -0.286   5.889  3.6461  2.2057 -1.2477
  377MOL0     H50877   3.009   0.287   5.957  0.6623  2.4750  1.5152
  377MOL0     H50878   3.069   0.513   5.868 -2.0008  2.1526 -0.6701
  377MOL0     H50879   3.167   0.751   5.669  3.4328  0.0303 -2.0206
  377MOL0     H50880   3.319   0.913   5.597 -0.4384 -0.4749  0.2167
  377MOL0     H50881   4.057   2.501   4.522  1.0499  3.4914 -0.1167
  377MOL0     H50882   4.168   2.675   4.638 -3.1787  0.3792 -3.3465
  377MOL0     H50883   4.231   3.109   4.870  1.0735 -0.0668 -0.4806
  377MOL0     H50884   4.266   3.251   5.056 -2.8828  1.3433  1.7850
  377MOL0     H50885   4.203   3.082   5.475  1.7914  0.0952  5.2259
  377MOL0     H50886   4.380   3.127   5.474  0.3812  1.8587  1.6447
  377MOL0     H50887   4.150   3.329   5.469  1.6853  1.8629 -0.9287
  377MOL0     H50888   4.311   3.366   5.453 -2.5635  2.1343 -0.4892
  377MOL0     H50889   4.360   3.244   5.670  0.5931  0.1559  0.0720
  377MOL0     H50890   4.184   3.224   5.699 -0.8953  2.3262  1.0871
  377MOL0     H50891   4.224   3.410   5.814 -2.6977  1.4238 -1.0629
  377MOL0     H50892   4.153   3.476   5.666  0.2828  1.7885  1.0839
  377MOL0     H50893   4.538   3.654   5.662  0.0593  1.1984 -0.9464
  377MOL0     H50894   4.267   2.920   5.323 -2.5230  0.3320  0.0079
  377MOL0     H50895   4.222   2.767   5.122 -1.0990  0.2434 -3.1383
  378MOL0     O50896   1.498   9.421   8.037 -0.6941 -0.3864  0.6727
  378MOL0     C50897   1.574   9.492   7.973  0.2626 -0.2441  1.1550
  378MOL0     O50898   1.599   9.487   7.837 -0.1948 -0.1265  0.2723
  378MOL0     C50899   1.551   9.387   7.757  0.0258  0.8480  0.4776
  378MOL0     C50900   1.637   9.334   7.659  0.3232  0.1569  0.4258
  378MOL0     C50901   1.598   9.238   7.565 -0.0839  0.2553 -0.1413
  378MOL0     C50902   1.465   9.192   7.570 -0.2134  0.3824 -0.0012
  378MOL0     O50903   1.408   9.101   7.485  0.3172  0.4760 -0.2692
  378MOL0     C50904   1.477   9.058   7.376 -0.2720  0.3652  0.4901
  378MOL0     C50905   1.372   8.992   7.272  0.2637  0.0141 -0.1300
  378MOL0     C50906   1.402   8.837   7.249 -0.4928 -0.0222  0.5294
  378MOL0     C50907   1.282   8.775   7.194  0.6220  0.0946 -0.1245
  378MOL0     C50908   1.262   8.634   7.224 -0.8517  0.9443  1.5661
  378MOL0     C50909   1.268   8.545   7.102  0.3510  0.4322  0.5212
  378MOL0     C50910   1.135   8.533   7.025  0.6311 -0.2428 -0.6807
  378MOL0     C50911   1.155   8.493   6.879  0.6909  0.2485 -0.4863
  378MOL0     N50912   1.037   8.440   6.814  0.1316  0.5552 -0.1820
  378MOL0     C50913   0.920   8.507   6.793  0.2258 -1.1461  0.4217
  378MOL0     C50914   0.827   8.414   6.773  0.7882  0.1730 -1.0584
  378MOL0     C50915   0.683   8.445   6.766 -0.9085  0.5892  0.7394
  378MOL0     C50916   0.601   8.339   6.695  0.2875  0.1389  0.1596
  378MOL0     C50917   0.641   8.322   6.547 -0.8391 -0.3253  0.5980
  378MOL0     C50918   0.533   8.250   6.455 -0.9832 -0.0861 -0.2029
  378MOL0     O50919   0.489   8.133   6.530  0.4186 -0.7830 -0.1150
  378MOL0     C50920   0.353   8.134   6.570 -0.1498 -0.0930 -0.2279
  378MOL0     C50921   0.264   8.242   6.596 -0.1099  0.8502  0.0885
  378MOL0     C50922   0.127   8.219   6.630  0.3193 -0.0784 -0.5739
  378MOL0     C50923   0.038   8.345   6.651 -0.3271 -0.3934  1.5962
  378MOL0     C50924   0.068   8.084   6.631 -1.1276 -0.5766  0.2246
  378MOL0     C50925  -0.077   8.057   6.646 -0.4148 -1.2861  1.2061
  378MOL0     O50926  -0.148   7.969   6.571 -0.6171  0.2874  0.4306
  378MOL0     C50927  -0.111   7.917   6.445  0.5014 -0.0905 -0.2307
  378MOL0     C50928  -0.097   7.781   6.421 -0.6658 -0.2666  0.7632
  378MOL0     C50929  -0.066   7.737   6.290  0.4248 -0.1970  0.2942
  378MOL0     C50930  -0.048   7.834   6.184  0.4988  0.1431 -0.1587
  378MOL0     O50931  -0.019   7.815   6.047 -0.5455  0.3906 -0.8436
  378MOL0     C50932   0.019   7.689   6.003  0.0700 -1.1517 -0.1185
  378MOL0     C50933  -0.058   7.631   5.881  0.9777  0.3665  0.3220
  378MOL0     C50934  -0.031   7.698   5.744  0.7913  0.0157  0.2530
  378MOL0     C50935  -0.105   7.837   5.735 -0.4675  0.3892 -0.5250
  378MOL0     C50936  -0.101   7.859   5.580 -0.9656  0.0327  0.1959
  378MOL0     C50937  -0.200   7.974   5.544 -0.1731  0.3088 -0.2042
  378MOL0     C50938  -0.204   8.015   5.394 -0.1964  0.5433  0.2904
  378MOL0     C50939  -0.341   8.008   5.316 -0.3432 -0.4039  0.3797
  378MOL0    Cl50940  -0.459   8.109   5.390  0.0651  0.3184 -0.0337
  378MOL0     C50941  -0.071   7.965   6.214 -0.0329 -0.5581 -0.5875
  378MOL0     C50942  -0.105   8.012   6.341 -0.2444 -0.4161  0.2465
  378MOL0     O50943  -0.124   8.112   6.743 -0.2016 -0.9627  0.2304
  378MOL0     C50944   0.157   7.979   6.597  0.6089  0.0841 -0.4977
  378MOL0     C50945   0.293   8.006   6.570  0.3789 -0.1452  0.0739
  378MOL0     N50946   0.891   8.291   6.780  0.5874 -0.8362 -0.1696
  378MOL0     N50947   1.017   8.305   6.800  0.6472 -0.3473  0.1550
  378MOL0     C50948   1.389   9.230   7.682 -0.5850 -0.4032  0.9110
  378MOL0     C50949   1.427   9.323   7.778 -0.6985 -0.2296  0.2038
  378MOL0     C50950   1.649   9.589   8.041  0.3018 -0.6965  0.2668
  378MOL0     C50951   1.724   9.683   7.970 -0.8096 -0.0133  0.4380
  378MOL0     C50952   1.809   9.767   8.036  0.0508  0.0606 -0.0734
  378MOL0     C50953   1.810   9.784   8.176 -0.1975  0.7603  0.5465
  378MOL0     O50954   1.898   9.873   8.230 -0.3186 -0.4778  0.1019
  378MOL0     C50955   1.895   9.901   8.363 -0.1226  0.5813  0.0470
  378MOL0     C50956   1.994  10.009   8.390  0.8517  0.4124  0.1522
  378MOL0     C50957   1.972  10.092   8.518 -0.0500  0.5709 -0.4508
  378MOL0     C50958   1.827  10.155   8.532  0.4195 -0.3986  0.5945
  378MOL0     C50959   1.820  10.258   8.638  0.1363  0.5035 -0.1674
  378MOL0     C50960   1.809  10.341   8.726  0.2613 -0.1629  0.2748
  378MOL0     C50961   1.722   9.698   8.244 -0.1175  0.2690  0.6188
  378MOL0     C50962   1.648   9.600   8.183 -0.4761  0.0808  0.3815
  378MOL0     H50963   1.736   9.379   7.667 -0.6747  2.3802  1.2518
  378MOL0     H50964   1.677   9.189   7.509 -0.9576  0.2091 -1.3784
  378MOL0     H50965   1.520   9.147   7.327  3.7163 -1.1021  0.8937
  378MOL0     H50966   1.568   8.999   7.392  3.7240  5.3110 -1.1454
  378MOL0     H50967   1.275   9.004   7.321  0.0952 -0.3196 -0.3778
  378MOL0     H50968   1.375   9.046   7.177  0.2643 -1.3993 -0.9487
  378MOL0     H50969   1.499   8.834   7.199 -0.0881  2.4332  1.0684
  378MOL0     H50970   1.428   8.792   7.346  2.8657 -0.6653 -0.5490
  378MOL0     H50971   1.206   8.831   7.251 -1.2895 -4.0179  1.7921
  378MOL0     H50972   1.261   8.805   7.091 -1.5005  1.7787  0.6992
  378MOL0     H50973   1.340   8.593   7.288  0.5384  0.8631 -0.1033
  378MOL0     H50974   1.170   8.612   7.280 -3.0417  0.8229 -1.7983
  378MOL0     H50975   1.341   8.586   7.031 -0.0656 -1.7179 -1.2858
  378MOL0     H50976   1.302   8.445   7.133 -3.1182 -0.7449  0.9336
  378MOL0     H50977   1.068   8.467   7.081  1.6386 -0.0828  0.7650
  378MOL0     H50978   1.086   8.631   7.024  3.2478  1.1990  1.3144
  378MOL0     H50979   1.235   8.419   6.883 -0.1414 -0.9014 -3.0087
  378MOL0     H50980   1.185   8.578   6.817 -2.6898  1.6677 -0.3994
  378MOL0     H50981   0.906   8.614   6.804 -2.0940 -1.3727  0.1403
  378MOL0     H50982   0.654   8.463   6.870  0.5722  2.4320  0.8771
  378MOL0     H50983   0.675   8.537   6.707  0.6655  0.5026  0.3281
  378MOL0     H50984   0.496   8.361   6.715  0.3744  0.2159  0.5454
  378MOL0     H50985   0.626   8.239   6.731  1.0363 -0.4237 -1.8284
  378MOL0     H50986   0.737   8.272   6.535 -0.2441  1.2369 -1.9168
  378MOL0     H50987   0.664   8.422   6.509  0.8685 -0.1311  2.0102
  378MOL0     H50988   0.580   8.221   6.360 -0.4828 -0.6511  0.2107
  378MOL0     H50989   0.451   8.320   6.434 -0.1869  1.4667  1.5905
  378MOL0     H50990   0.301   8.344   6.591 -0.2169  0.8761 -0.1895
  378MOL0     H50991   0.020   8.365   6.757 -1.4945  2.4849  0.9485
  378MOL0     H50992   0.079   8.433   6.599  0.7302 -2.2983 -1.0737
  378MOL0     H50993  -0.064   8.319   6.621 -0.3723 -2.3202  3.2072
  378MOL0     H50994  -0.094   7.711   6.503 -1.4033 -0.4053  0.6820
  378MOL0     H50995  -0.055   7.630   6.274  1.5706 -0.1502  0.7275
  378MOL0     H50996   0.126   7.677   5.987  0.7189  2.0787  1.0197
  378MOL0     H50997  -0.009   7.617   6.081  1.0941 -1.0618  0.3355
  378MOL0     H50998  -0.018   7.529   5.881  2.8846  0.9605 -3.3964
  378MOL0     H50999  -0.164   7.629   5.908  1.1490  1.6327  1.1714
  378MOL0     H51000  -0.067   7.639   5.658  3.5855  0.9020 -1.6514
  378MOL0     H51001   0.076   7.712   5.725  0.9970 -2.1855 -0.6046
  378MOL0     H51002  -0.208   7.839   5.770 -0.9040 -2.0684 -1.4647
  378MOL0     H51003  -0.053   7.922   5.779 -0.1355 -0.5022  0.8687
  378MOL0     H51004  -0.135   7.772   5.524  0.1342  0.4293 -1.1450
  378MOL0     H51005  -0.001   7.887   5.547 -0.6687  0.3748  1.3241
  378MOL0     H51006  -0.303   7.946   5.568 -0.3289 -1.4036 -2.5293
  378MOL0     H51007  -0.165   8.065   5.594 -0.1331  0.7305 -0.9706
  378MOL0     H51008  -0.132   7.967   5.327 -0.9882  1.7534 -1.4933
  378MOL0     H51009  -0.182   8.122   5.391  0.3236  0.4213 -0.7310
  378MOL0     H51010  -0.382   7.907   5.308 -0.2256 -0.3215 -2.6767
  378MOL0     H51011  -0.322   8.029   5.210  1.8771 -0.7043  0.6738
  378MOL0     H51012  -0.064   8.035   6.131  1.1084 -1.1450 -1.0033
  378MOL0     H51013  -0.115   8.119   6.357  2.4678  0.6701 -3.7901
  378MOL0     H51014   0.124   7.876   6.595  0.5578 -0.0488  2.4803
  378MOL0     H51015   0.372   7.932   6.560  1.4759  0.8945  0.7667
  378MOL0     H51016   1.285   9.199   7.669 -0.9087  1.2268 -0.9685
  378MOL0     H51017   1.359   9.341   7.861 -1.5295 -1.3863 -0.2091
  378MOL0     H51018   1.730   9.681   7.862  0.8260 -2.5727  0.5050
  378MOL0     H51019   1.882   9.823   7.979  0.2146 -1.1636 -1.1039
  378MOL0     H51020   1.791   9.920   8.391 -0.5475 -0.4403 -0.7430
  378MOL0     H51021   1.919   9.808   8.417 -3.5990 -1.3531 -1.4113
  378MOL0     H51022   1.990  10.079   8.306 -0.5593 -0.1696 -0.2884
  378MOL0     H51023   2.092   9.961   8.391  1.4603  1.6242  0.1950
  378MOL0     H51024   2.056  10.163   8.511  0.5535 -0.2483 -2.3547
  378MOL0     H51025   1.990  10.023   8.601 -1.0902  2.8467  1.7967
  378MOL0     H51026   1.757  10.073   8.547 -1.1481  0.8686  0.4193
  378MOL0     H51027   1.807  10.213   8.441  4.1555  0.7118  0.2890
  378MOL0     H51028   1.784  10.406   8.807  1.0034  0.7202 -0.1936
  378MOL0     H51029   1.720   9.711   8.352  2.2868  0.8867  0.6592
  378MOL0     H51030   1.594   9.534   8.250  2.5594  0.9024  4.0041
  379MOL0     O51031   5.151   2.378   8.525  1.0255 -0.7807 -0.5204
  379MOL0     C51032   5.206   2.475   8.473 -0.5926 -0.3283  0.4298
  379MOL0     O51033   5.331   2.513   8.498  0.0730 -0.3317  0.3871
  379MOL0     C51034   5.406   2.427   8.575  1.0554  0.6944  0.6728
  379MOL0     C51035   5.467   2.316   8.526  1.4282  0.5833  0.6305
  379MOL0     C51036   5.548   2.235   8.598  0.7269  0.4590  0.4590
  379MOL0     C51037   5.568   2.264   8.735 -0.5870  0.6593 -0.4102
  379MOL0     O51038   5.646   2.193   8.826  0.2149  0.8083  0.1205
  379MOL0     C51039   5.691   2.067   8.784  0.0604  0.3385  0.3115
  379MOL0     C51040   5.800   2.006   8.878  0.4518 -0.7913 -0.0814
  379MOL0     C51041   5.895   2.106   8.926 -0.1282  0.8638 -0.1588
  379MOL0     C51042   5.986   2.173   8.820  0.9777 -0.1286 -0.6443
  379MOL0     C51043   6.109   2.242   8.886 -0.4323  1.2346 -0.4329
  379MOL0     C51044   6.074   2.366   8.965 -0.9857 -1.2700 -0.6997
  379MOL0     C51045   5.993   2.481   8.905  0.2454 -0.3888  0.5793
  379MOL0     C51046   6.057   2.533   8.773 -0.6293  0.0384 -0.6764
  379MOL0     N51047   6.153   2.640   8.801  0.8630  0.0853  0.1211
  379MOL0     C51048   6.289   2.623   8.810 -0.2040  0.3915  0.7884
  379MOL0     C51049   6.346   2.753   8.821 -0.3933  0.8065  0.5871
  379MOL0     C51050   6.492   2.798   8.826 -0.3695  0.5144  0.1437
  379MOL0     C51051   6.544   2.822   8.688 -1.0970  0.6351  0.4545
  379MOL0     C51052   6.496   2.948   8.614  0.5076  0.9734 -0.7677
  379MOL0     C51053   6.594   3.018   8.515 -0.2865 -0.2643 -0.3356
  379MOL0     O51054   6.620   2.927   8.409 -1.0519 -0.1578  0.2256
  379MOL0     C51055   6.717   2.967   8.318 -0.2139 -0.0467  0.3192
  379MOL0     C51056   6.731   3.103   8.276 -0.2594 -0.3503  0.7013
  379MOL0     C51057   6.829   3.147   8.190 -0.7923  0.4988 -0.0714
  379MOL0     C51058   6.831   3.293   8.140 -0.1702 -0.1561  0.5074
  379MOL0     C51059   6.938   3.048   8.164 -0.2244  0.3076 -0.2552
  379MOL0     C51060   7.070   3.089   8.106  0.5338  0.5235  1.1474
  379MOL0     O51061   7.162   2.985   8.109 -0.1082  0.1106 -0.1229
  379MOL0     C51062   7.293   3.012   8.073  0.1167 -0.6255  0.8778
  379MOL0     C51063   7.333   3.033   7.939  0.8597  0.7334  0.3585
  379MOL0     C51064   7.473   3.049   7.915 -0.5256 -0.4866  0.4796
  379MOL0     C51065   7.567   3.044   8.016  0.2573  0.1152  0.0484
  379MOL0     O51066   7.699   3.057   7.981  0.4186  0.2874  0.0541
  379MOL0     C51067   7.796   3.060   8.093  0.2877 -0.0782 -0.6692
  379MOL0     C51068   7.808   3.198   8.171  0.7912  0.6971 -0.0233
  379MOL0     C51069   7.834   3.308   8.075  0.6593  0.9365  0.8404
  379MOL0     C51070   7.961   3.294   7.995 -0.4312  1.3440  0.1349
  379MOL0     C51071   8.007   3.422   7.920  0.3448  0.2179 -0.6076
  379MOL0     C51072   7.912   3.487   7.816 -0.0337  0.4930  0.1672
  379MOL0     C51073   7.999   3.582   7.740  0.2324 -0.4645 -0.3462
  379MOL0     C51074   7.935   3.643   7.618  0.6895  0.8864  0.6616
  379MOL0    Cl51075   7.780   3.724   7.664 -0.1512 -0.2001 -0.2790
  379MOL0     C51076   7.514   3.028   8.144  0.0305  0.0366 -0.8545
  379MOL0     C51077   7.380   2.997   8.170  0.1091 -0.5820  0.0245
  379MOL0     O51078   7.080   3.201   8.051  0.5308 -0.3708  0.0568
  379MOL0     C51079   6.922   2.914   8.200  0.7609 -0.3835  0.0350
  379MOL0     C51080   6.815   2.881   8.279 -0.7651  0.6115 -0.1122
  379MOL0     N51081   6.242   2.839   8.803 -0.4106 -0.4895 -0.0966
  379MOL0     N51082   6.128   2.773   8.801 -0.9756  0.2810 -0.3626
  379MOL0     C51083   5.514   2.383   8.792  0.2595 -0.1098  0.0713
  379MOL0     C51084   5.430   2.463   8.714  0.3656  0.3027 -0.1502
  379MOL0     C51085   5.136   2.579   8.406 -0.2476 -0.3924  0.6639
  379MOL0     C51086   5.064   2.540   8.300  1.2738 -0.4357  1.0097
  379MOL0     C51087   4.995   2.631   8.226 -0.0431  0.3365 -0.0926
  379MOL0     C51088   5.020   2.775   8.246 -0.3605  0.4008 -0.6831
  379MOL0     O51089   4.979   2.884   8.172 -0.0276  0.1887 -0.5094
  379MOL0     C51090   4.907   2.850   8.053 -0.7397  0.6339  0.7335
  379MOL0     C51091   4.905   2.973   7.956 -0.1820  0.4082  0.5823
  379MOL0     C51092   4.849   2.932   7.817  0.4388  0.6263 -0.1185
  379MOL0     C51093   4.963   2.877   7.720  0.5930 -0.1777  0.6160
  379MOL0     C51094   5.011   2.973   7.627  0.2945  0.1608  0.4937
  379MOL0     C51095   5.046   3.071   7.566 -0.2102  0.6544  0.9752
  379MOL0     C51096   5.105   2.812   8.351 -0.7778 -1.0202 -0.3452
  379MOL0     C51097   5.169   2.715   8.426  0.5634 -0.2147  0.1098
  379MOL0     H51098   5.430   2.275   8.432  0.5374 -3.6887  2.6142
  379MOL0     H51099   5.598   2.156   8.544  2.0557  1.6584 -0.1355
  379MOL0     H51100   5.612   1.994   8.766 -1.5716  1.3537  2.8449
  379MOL0     H51101   5.748   2.083   8.691  4.5691  3.9829  3.2333
  379MOL0     H51102   5.740   1.974   8.963 -0.5856 -2.2622 -1.3003
  379MOL0     H51103   5.851   1.923   8.827  3.3876 -0.1802  1.6489
  379MOL0     H51104   5.848   2.186   8.984  0.7919  2.1206 -1.0989
  379MOL0     H51105   5.945   2.058   9.011 -1.5330 -0.3012  0.0526
  379MOL0     H51106   6.031   2.090   8.764  0.3731 -0.2617 -0.9443
  379MOL0     H51107   5.933   2.248   8.761  0.4203  3.4294  3.8874
  379MOL0     H51108   6.140   2.173   8.965 -4.8137  0.5957  0.9919
  379MOL0     H51109   6.192   2.254   8.816  0.8387 -0.1313  0.7704
  379MOL0     H51110   6.025   2.328   9.055  0.9973 -0.9348  0.6059
  379MOL0     H51111   6.170   2.405   9.002 -1.7400  0.2055 -0.2266
  379MOL0     H51112   5.892   2.448   8.879 -0.3034  0.6420  1.3131
  379MOL0     H51113   5.985   2.567   8.972  3.4050 -0.0694  0.6884
  379MOL0     H51114   5.976   2.564   8.707  1.0183  0.3831 -2.6088
  379MOL0     H51115   6.108   2.454   8.718 -1.7310  0.5938 -2.5893
  379MOL0     H51116   6.342   2.528   8.812 -3.4378 -1.5820  2.6399
  379MOL0     H51117   6.512   2.885   8.889  2.1155 -0.9755  1.5964
  379MOL0     H51118   6.545   2.716   8.876 -4.2197 -2.5161 -0.2435
  379MOL0     H51119   6.529   2.729   8.632  2.2594 -1.2447  2.3011
  379MOL0     H51120   6.653   2.830   8.692 -0.8796 -1.1118 -0.4782
  379MOL0     H51121   6.467   3.024   8.687  1.0527 -0.1490  0.6566
  379MOL0     H51122   6.399   2.929   8.566  0.0207 -0.6127  0.7431
  379MOL0     H51123   6.686   3.047   8.567  0.5270 -0.9021 -1.3833
  379MOL0     H51124   6.553   3.110   8.472  1.4988  0.3342 -0.8808
  379MOL0     H51125   6.660   3.182   8.301 -0.3322 -0.1345 -0.1610
  379MOL0     H51126   6.915   3.341   8.192 -0.0809 -0.3816  0.5697
  379MOL0     H51127   6.842   3.296   8.031 -3.5049 -1.8838 -0.0036
  379MOL0     H51128   6.740   3.348   8.167 -0.2465  0.1846 -0.4036
  379MOL0     H51129   7.267   3.021   7.854 -0.0715 -2.0318  1.3674
  379MOL0     H51130   7.507   3.037   7.813 -0.0590  1.8755  0.3030
  379MOL0     H51131   7.773   2.976   8.159 -0.6094  0.8547  0.2316
  379MOL0     H51132   7.899   3.043   8.059 -0.2597  0.3500 -2.6783
  379MOL0     H51133   7.708   3.195   8.215  0.0653 -3.2091 -1.4973
  379MOL0     H51134   7.886   3.191   8.247  1.4198 -2.0322 -0.7976
  379MOL0     H51135   7.847   3.405   8.124  0.1524  2.7715 -2.3821
  379MOL0     H51136   7.751   3.324   8.006  1.2236  1.6082  0.2974
  379MOL0     H51137   8.043   3.261   8.060 -1.0768  0.7644  0.6647
  379MOL0     H51138   7.949   3.210   7.925  2.6517  0.6304  0.3192
  379MOL0     H51139   8.100   3.395   7.867  0.6801  1.8129 -0.8904
  379MOL0     H51140   8.057   3.496   7.983  0.1598  0.3926 -0.6657
  379MOL0     H51141   7.864   3.419   7.745 -0.1853  2.2975 -1.5132
  379MOL0     H51142   7.832   3.540   7.868 -0.0301  0.0469  0.6405
  379MOL0     H51143   8.091   3.538   7.700  1.0413 -0.0467  0.9963
  379MOL0     H51144   8.021   3.662   7.811  2.1408 -2.0977  1.0210
  379MOL0     H51145   7.922   3.559   7.550 -0.0512  2.6506 -1.5294
  379MOL0     H51146   8.003   3.718   7.575 -0.5782  0.2463 -2.8121
  379MOL0     H51147   7.578   3.036   8.231 -0.3144 -1.9888 -0.3842
  379MOL0     H51148   7.342   2.970   8.268  0.9051 -2.3439 -0.1086
  379MOL0     H51149   6.990   2.848   8.147  1.8339  0.4527  0.3317
  379MOL0     H51150   6.795   2.779   8.312 -0.7940  1.5208  2.9797
  379MOL0     H51151   5.514   2.403   8.899 -1.9982  0.1805  0.0798
  379MOL0     H51152   5.379   2.553   8.747 -1.4695 -0.0662 -1.7709
  379MOL0     H51153   5.076   2.436   8.269  1.8741  0.5832 -2.6729
  379MOL0     H51154   4.928   2.593   8.150  3.1641  0.7225 -3.4237
  379MOL0     H51155   4.951   2.764   8.001 -0.2248 -2.0209  4.9957
  379MOL0     H51156   4.808   2.812   8.081 -0.0992 -2.4429 -0.7015
  379MOL0     H51157   5.005   3.017   7.949 -0.9736  2.4428  1.3765
  379MOL0     H51158   4.846   3.054   7.999 -1.2829 -0.5061  0.8699
  379MOL0     H51159   4.802   3.018   7.768  1.7993  1.1295 -0.5914
  379MOL0     H51160   4.771   2.855   7.812  2.9080 -2.0280 -0.6014
  379MOL0     H51161   4.917   2.797   7.661  0.9894 -0.6005  0.8753
  379MOL0     H51162   5.054   2.849   7.774  1.2330 -0.9857 -0.8402
  379MOL0     H51163   5.074   3.167   7.527  1.3676 -0.2858 -0.3466
  379MOL0     H51164   5.147   2.911   8.369  0.6382 -2.0154  2.3704
  379MOL0     H51165   5.246   2.753   8.491  2.0156 -1.4161 -0.8481
  380MOL0     O51166   5.497   8.412  10.481 -0.9964  0.7553  0.0179
  380MOL0     C51167   5.412   8.496  10.496  0.2213 -0.3051  0.3372
  380MOL0     O51168   5.384   8.557  10.614  0.6122 -0.7470  0.5884
  380MOL0     C51169   5.448   8.513  10.728  0.2679  0.8046  0.6238
  380MOL0     C51170   5.365   8.473  10.833 -0.4135 -0.2458  0.7710
  380MOL0     C51171   5.413   8.418  10.945 -0.2011 -0.0812 -0.3166
  380MOL0     C51172   5.551   8.400  10.964 -0.5296 -0.8302  0.2132
  380MOL0     O51173   5.598   8.339  11.079 -0.8085 -1.0771  0.1966
  380MOL0     C51174   5.516   8.247  11.140 -0.0138 -0.6116  0.1858
  380MOL0     C51175   5.603   8.181  11.247  0.4042  0.2714 -1.1613
  380MOL0     C51176   5.605   8.265  11.381  0.6288 -0.5745  0.3585
  380MOL0     C51177   5.740   8.279  11.447 -0.6620  0.3461  0.0918
  380MOL0     C51178   5.793   8.150  11.511  0.6650  0.4999  0.3589
  380MOL0     C51179   5.942   8.152  11.533 -0.3164  0.6130 -0.1054
  380MOL0     C51180   5.985   8.223  11.661  0.3765  0.2377  0.8699
  380MOL0     C51181   5.970   8.126  11.778  0.6668 -0.0704 -0.5009
  380MOL0     N51182   6.104   8.068  11.795  0.3233 -1.1157 -0.3333
  380MOL0     C51183   6.193   8.077  11.906 -0.4319 -0.1985  0.5415
  380MOL0     C51184   6.280   7.976  11.891 -0.2735  0.8059  0.7356
  380MOL0     C51185   6.375   7.927  12.002 -1.1459  0.8980  0.0013
  380MOL0     C51186   6.495   7.859  11.926  0.4232 -0.1886 -0.1906
  380MOL0     C51187   6.624   7.852  12.009 -0.1375 -0.1613  0.7262
  380MOL0     C51188   6.755   7.855  11.926 -0.2194 -0.1741 -0.2422
  380MOL0     O51189   6.747   7.739  11.843  0.3188 -0.3151 -0.4612
  380MOL0     C51190   6.863   7.701  11.770  1.5126 -1.3049 -0.1793
  380MOL0     C51191   6.864   7.587  11.698 -0.6046 -0.0655  0.1863
  380MOL0     C51192   6.970   7.552  11.617 -0.0891 -0.4514  0.1413
  380MOL0     C51193   6.945   7.409  11.557  0.6405 -0.0136  0.6744
  380MOL0     C51194   7.084   7.630  11.623 -0.8081 -0.3949 -0.4541
  380MOL0     C51195   7.210   7.594  11.553  0.1497  1.0222 -0.6575
  380MOL0     O51196   7.317   7.672  11.583 -0.0138 -0.5909 -0.1730
  380MOL0     C51197   7.430   7.638  11.519  0.3464 -0.1929 -0.5198
  380MOL0     C51198   7.471   7.685  11.396  0.2701 -0.2963  0.2499
  380MOL0     C51199   7.604   7.666  11.352  0.8656  0.6636  0.1861
  380MOL0     C51200   7.698   7.600  11.442 -0.2641 -0.2062 -0.4833
  380MOL0     O51201   7.833   7.584  11.420 -0.8755 -0.2389 -0.1405
  380MOL0     C51202   7.884   7.595  11.286 -0.1933 -0.2800 -0.4989
  380MOL0     C51203   7.868   7.462  11.221 -0.5073 -0.7319  0.7879
  380MOL0     C51204   7.939   7.452  11.081  0.2452 -0.5694 -0.3536
  380MOL0     C51205   8.094   7.458  11.083  0.6268  0.3231 -0.7224
  380MOL0     C51206   8.146   7.466  10.947 -0.1291  0.1194  0.3104
  380MOL0     C51207   8.302   7.459  10.937  0.5161 -0.6609 -0.6149
  380MOL0     C51208   8.360   7.587  11.012 -0.1230 -0.2549 -0.7953
  380MOL0     C51209   8.518   7.579  11.030  0.4017 -0.2658  0.1224
  380MOL0    Cl51210   8.578   7.639  10.877 -0.4212 -0.7301 -0.1531
  380MOL0     C51211   7.644   7.550  11.561 -0.3158 -0.2197 -0.0078
  380MOL0     C51212   7.520   7.582  11.605 -0.3582  1.0795  0.1771
  380MOL0     O51213   7.213   7.489  11.491 -1.0700  0.3595  0.1754
  380MOL0     C51214   7.085   7.747  11.703 -0.4940  0.1825 -0.3472
  380MOL0     C51215   6.970   7.780  11.773 -0.1014 -0.3091 -0.0473
  380MOL0     N51216   6.263   7.930  11.765 -0.5340  0.4203 -0.6048
  380MOL0     N51217   6.161   7.986  11.712 -0.6927 -0.2667  0.3932
  380MOL0     C51218   5.634   8.461  10.862 -0.5179  0.1498  0.4657
  380MOL0     C51219   5.586   8.509  10.738 -0.2588  1.1899 -0.2007
  380MOL0     C51220   5.327   8.537  10.384  0.0131 -0.4096  0.3133
  380MOL0     C51221   5.215   8.620  10.413 -0.1612  0.1976 -0.0455
  380MOL0     C51222   5.131   8.655  10.305 -0.0680  0.0041  0.1502
  380MOL0     C51223   5.156   8.618  10.170 -0.0182 -0.3497 -0.0911
  380MOL0     O51224   5.080   8.635  10.051  0.3025 -0.7325 -0.0369
  380MOL0     C51225   4.941   8.675  10.064  0.6326  0.6255  0.3230
  380MOL0     C51226   4.856   8.619   9.946  0.3927 -0.0248  0.2900
  380MOL0     C51227   4.719   8.586  10.004  0.2825  0.6966  0.7864
  380MOL0     C51228   4.612   8.542   9.904 -0.0404  0.5111  0.3088
  380MOL0     C51229   4.488   8.520   9.979  0.2558  0.7218 -0.2748
  380MOL0     C51230   4.375   8.480  10.003  0.2947 -0.6276 -0.9414
  380MOL0     C51231   5.275   8.538  10.151  0.1817 -0.5532 -0.0642
  380MOL0     C51232   5.357   8.503  10.256  0.2083  1.4259  0.5141
  380MOL0     H51233   5.259   8.462  10.816 -0.2342 -3.6545  1.1359
  380MOL0     H51234   5.332   8.396  11.012 -3.7654 -0.1389 -4.2374
  380MOL0     H51235   5.434   8.303  11.186  2.5602  2.7260  1.1561
  380MOL0     H51236   5.481   8.180  11.061  0.5112  0.4767 -0.9939
  380MOL0     H51237   5.560   8.082  11.263  0.2453  0.5880  0.5214
  380MOL0     H51238   5.709   8.164  11.231  1.1024  0.3985  2.4561
  380MOL0     H51239   5.568   8.367  11.362  0.6281 -0.7613 -0.7259
  380MOL0     H51240   5.541   8.210  11.450 -0.5481 -1.2064 -1.1539
  380MOL0     H51241   5.813   8.299  11.368 -0.4050  1.6812  0.6500
  380MOL0     H51242   5.730   8.358  11.522 -1.7041  0.8871 -0.5870
  380MOL0     H51243   5.742   8.137  11.607  1.1011  2.4574  0.8900
  380MOL0     H51244   5.762   8.066  11.448  0.4101 -2.2388  3.7597
  380MOL0     H51245   5.974   8.048  11.532 -0.1393  0.6103 -3.2975
  380MOL0     H51246   5.976   8.205  11.443 -1.8643 -0.4881 -1.4042
  380MOL0     H51247   6.090   8.252  11.646  0.9808 -2.9097 -2.6700
  380MOL0     H51248   5.921   8.311  11.665  1.1341  1.0570 -2.3613
  380MOL0     H51249   5.904   8.040  11.762  0.5737  0.0337 -0.6864
  380MOL0     H51250   5.946   8.169  11.876  0.7629 -2.5918  0.6867
  380MOL0     H51251   6.188   8.141  11.994  0.2104 -0.7133  0.9629
  380MOL0     H51252   6.409   8.014  12.059  0.7426  0.8258 -0.9148
  380MOL0     H51253   6.325   7.852  12.063  1.2403  1.2173  2.5243
  380MOL0     H51254   6.520   7.911  11.833  1.8230 -1.7131 -0.7117
  380MOL0     H51255   6.464   7.755  11.918 -0.4570 -0.0960  1.6399
  380MOL0     H51256   6.623   7.762  12.071 -3.6981 -1.4816 -0.9427
  380MOL0     H51257   6.631   7.936  12.078 -1.2040  0.7411 -0.2121
  380MOL0     H51258   6.839   7.852  11.995 -1.3154  1.0405  1.2374
  380MOL0     H51259   6.758   7.950  11.870  1.2468 -0.7723 -1.2380
  380MOL0     H51260   6.783   7.519  11.721  2.1979 -3.0446  2.0672
  380MOL0     H51261   6.846   7.361  11.563  0.7907 -0.5905 -0.9915
  380MOL0     H51262   6.964   7.413  11.450 -2.0910 -2.0744 -0.0246
  380MOL0     H51263   7.012   7.331  11.595  1.2957  0.3303  0.2338
  380MOL0     H51264   7.400   7.741  11.336 -0.0516  0.6316  1.4330
  380MOL0     H51265   7.626   7.692  11.249  0.4060 -0.5180 -0.2265
  380MOL0     H51266   7.843   7.675  11.225 -0.2609 -1.3444 -1.8960
  380MOL0     H51267   7.992   7.600  11.307 -0.7347 -1.0374  3.3651
  380MOL0     H51268   7.910   7.380  11.280  0.2561 -0.7163  0.2710
  380MOL0     H51269   7.760   7.457  11.207 -0.1744 -1.3557 -2.1816
  380MOL0     H51270   7.893   7.533  11.026 -0.6539  0.5566  1.9340
  380MOL0     H51271   7.908   7.360  11.031  0.3006  0.2879 -2.0029
  380MOL0     H51272   8.124   7.545  11.143 -1.3657 -0.6605  1.8839
  380MOL0     H51273   8.124   7.362  11.125  0.5522 -0.2235 -1.8881
  380MOL0     H51274   8.110   7.566  10.923  1.3921  0.2673 -1.7063
  380MOL0     H51275   8.100   7.390  10.883  1.9987  0.2970 -1.5779
  380MOL0     H51276   8.333   7.375  10.998  2.2007  0.9809  0.9185
  380MOL0     H51277   8.350   7.438  10.840  3.3983 -1.2199  0.8291
  380MOL0     H51278   8.323   7.601  11.114 -0.4327 -1.6410 -0.6964
  380MOL0     H51279   8.339   7.675  10.949  0.7313  1.0450  0.6564
  380MOL0     H51280   8.536   7.471  11.040  0.0282 -0.3856 -0.4123
  380MOL0     H51281   8.558   7.637  11.113  1.5965  2.2121 -2.0521
  380MOL0     H51282   7.703   7.489  11.629 -2.7915  0.6273  3.1053
  380MOL0     H51283   7.488   7.553  11.705  0.8945 -1.3850 -0.0508
  380MOL0     H51284   7.175   7.808  11.693 -0.0219 -0.6939 -1.7721
  380MOL0     H51285   6.982   7.864  11.841 -0.7457  0.0333 -0.3485
  380MOL0     H51286   5.741   8.446  10.875 -0.7435 -2.1037 -0.0005
  380MOL0     H51287   5.655   8.528  10.657 -0.2386 -1.0466 -0.7783
  380MOL0     H51288   5.192   8.647  10.516  2.3833 -0.4791  0.7804
  380MOL0     H51289   5.038   8.710  10.315  0.0199  1.2270 -3.9297
  380MOL0     H51290   4.907   8.631  10.158  0.1883  1.6056  0.6417
  380MOL0     H51291   4.937   8.784  10.054 -1.7183  0.4314 -1.9750
  380MOL0     H51292   4.896   8.526   9.904 -0.6577  0.2542 -1.4213
  380MOL0     H51293   4.863   8.694   9.866  1.6418  0.5737  0.9188
  380MOL0     H51294   4.682   8.660  10.075 -2.9552 -2.9123  3.2857
  380MOL0     H51295   4.739   8.504  10.074  1.0216  1.6142  1.6882
  380MOL0     H51296   4.652   8.454   9.852 -0.7596  1.8147 -2.6320
  380MOL0     H51297   4.587   8.613   9.825 -1.5555 -2.2035 -1.8010
  380MOL0     H51298   4.276   8.443  10.021  0.4251 -0.7032 -0.3279
  380MOL0     H51299   5.292   8.522  10.045 -2.5530  1.3836 -0.8990
  380MOL0     H51300   5.442   8.441  10.231 -1.8887 -0.9500 -1.1694
  381MOL0     O51301   4.650  10.138   0.343 -0.2025  0.2573 -0.2938
  381MOL0     C51302   4.655  10.199   0.234 -0.8899 -0.0230  0.9772
  381MOL0     O51303   4.613  10.323   0.213  0.3035 -0.5818  0.0235
  381MOL0     C51304   4.566  10.409   0.314 -0.5654  0.4590 -0.9548
  381MOL0     C51305   4.482  10.517   0.275  0.1759  0.0615 -0.2257
  381MOL0     C51306   4.437  10.607   0.374 -0.1555 -0.4080  0.6729
  381MOL0     C51307   4.473  10.589   0.507 -0.6536  0.4263 -0.5725
  381MOL0     O51308   4.436  10.675   0.602 -0.1683 -0.4627  0.1211
  381MOL0     C51309   4.365  10.806   0.576 -0.1338  0.2188  0.2275
  381MOL0     C51310   4.356  10.894   0.701 -0.6909  0.8597  0.3747
  381MOL0     C51311   4.247  10.869   0.809 -0.4124  0.9481  1.0948
  381MOL0     C51312   4.226  10.996   0.899 -0.1400  0.2170 -0.9328
  381MOL0     C51313   4.341  11.049   0.972  0.2737 -0.3884  0.2039
  381MOL0     C51314   4.392  10.952   1.065 -0.8881  0.3628  0.0911
  381MOL0     C51315   4.514  10.994   1.141 -0.6487 -0.7019 -0.9917
  381MOL0     C51316   4.486  11.108   1.249 -0.2395  0.3615  0.6941
  381MOL0     N51317   4.580  11.217   1.234 -0.1152  0.4377  0.2178
  381MOL0     C51318   4.722  11.202   1.247 -0.6043 -0.3756 -0.9419
  381MOL0     C51319   4.761  11.334   1.239  0.5119  0.8407  0.0918
  381MOL0     C51320   4.903  11.392   1.238  0.0351  0.7527 -0.4713
  381MOL0     C51321   4.971  11.383   1.376  0.5611 -0.0027 -0.4170
  381MOL0     C51322   4.929  11.500   1.477 -0.4638 -0.3551  0.6353
  381MOL0     C51323   4.786  11.563   1.499 -0.1480 -0.1723  0.3035
  381MOL0     O51324   4.690  11.488   1.569 -0.0782 -0.1303 -0.2613
  381MOL0     C51325   4.697  11.464   1.703  0.0375  0.1522 -0.3851
  381MOL0     C51326   4.626  11.351   1.754 -0.6519  0.4603  0.2272
  381MOL0     C51327   4.637  11.314   1.889 -0.3621  0.3268 -0.1219
  381MOL0     C51328   4.555  11.198   1.933 -0.2989 -0.7811  0.1256
  381MOL0     C51329   4.719  11.385   1.981 -1.3216 -0.1038 -0.6276
  381MOL0     C51330   4.753  11.339   2.121 -0.0613 -0.9611  0.4937
  381MOL0     O51331   4.821  11.430   2.192 -1.1332 -0.3408  0.0308
  381MOL0     C51332   4.841  11.400   2.322 -0.5492 -0.3041  1.1935
  381MOL0     C51333   4.961  11.428   2.387 -0.4075 -0.3584 -0.3124
  381MOL0     C51334   4.983  11.399   2.523 -0.2614 -0.7143  0.4727
  381MOL0     C51335   4.882  11.343   2.593  0.4961  0.3714 -0.5242
  381MOL0     O51336   4.907  11.293   2.718 -0.1299  0.3570 -0.0195
  381MOL0     C51337   4.831  11.351   2.822  0.2331  0.0177  0.3702
  381MOL0     C51338   4.866  11.307   2.961 -0.2758 -1.0035 -0.3272
  381MOL0     C51339   4.986  11.381   3.025 -0.6055  0.7975 -0.6278
  381MOL0     C51340   5.038  11.292   3.136  0.6325 -0.2090  0.1845
  381MOL0     C51341   5.137  11.362   3.222 -0.3452  0.2516  0.2553
  381MOL0     C51342   5.274  11.399   3.159 -0.7869  0.6565  1.1834
  381MOL0     C51343   5.390  11.412   3.259 -0.1779  0.6478  0.7355
  381MOL0     C51344   5.373  11.534   3.341 -0.1697  0.2776 -0.4654
  381MOL0    Cl51345   5.384  11.697   3.264 -0.6916  0.1038 -0.0451
  381MOL0     C51346   4.758  11.317   2.539 -0.5777  0.6394 -0.2478
  381MOL0     C51347   4.737  11.365   2.407  0.1429  0.4703  0.4895
  381MOL0     O51348   4.729  11.222   2.154  0.4311 -0.4901 -0.5716
  381MOL0     C51349   4.791  11.504   1.933  0.1913  0.8109 -0.0741
  381MOL0     C51350   4.782  11.543   1.795  0.4079  0.2903  0.1479
  381MOL0     N51351   4.653  11.411   1.202 -0.3517  0.2952  0.2450
  381MOL0     N51352   4.545  11.342   1.199 -0.8080  0.2689 -0.6960
  381MOL0     C51353   4.558  10.482   0.543  0.4869  0.1233  0.3701
  381MOL0     C51354   4.611  10.395   0.446 -0.1380 -0.6577 -0.1421
  381MOL0     C51355   4.681  10.126   0.104 -0.2277 -0.6778 -0.3767
  381MOL0     C51356   4.704   9.992   0.096 -1.6120  0.4790 -0.0009
  381MOL0     C51357   4.745   9.936  -0.029 -1.1102 -0.4224 -0.8422
  381MOL0     C51358   4.747  10.015  -0.148  0.6003 -0.5669  0.6600
  381MOL0     O51359   4.781   9.972  -0.272  0.8430 -0.1989  0.0506
  381MOL0     C51360   4.795   9.827  -0.299 -0.4310 -1.0102  0.2835
  381MOL0     C51361   4.868   9.801  -0.437  0.9221 -0.1344 -0.5127
  381MOL0     C51362   4.777   9.852  -0.551 -0.7006  0.1797 -0.0769
  381MOL0     C51363   4.628   9.806  -0.553 -0.0273  0.9525 -0.2972
  381MOL0     C51364   4.614   9.658  -0.561 -0.1362 -0.1273 -1.0528
  381MOL0     C51365   4.607   9.533  -0.557  0.5566 -0.7243 -0.5643
  381MOL0     C51366   4.716  10.151  -0.140  0.1748  0.1896  0.4481
  381MOL0     C51367   4.687  10.201  -0.013 -0.0514 -0.4055  0.1217
  381MOL0     H51368   4.465  10.543   0.171  0.0294  1.2794  0.0870
  381MOL0     H51369   4.374  10.688   0.340 -1.8863 -0.5013  3.3310
  381MOL0     H51370   4.422  10.857   0.497  1.1790 -1.5001 -0.0118
  381MOL0     H51371   4.263  10.784   0.545 -0.4578  0.9550  0.7461
  381MOL0     H51372   4.455  10.883   0.747 -1.1212  0.2995  1.1802
  381MOL0     H51373   4.340  10.998   0.673 -1.9314 -0.1817 -3.4480
  381MOL0     H51374   4.154  10.855   0.754  1.3127 -1.1855 -1.5355
  381MOL0     H51375   4.263  10.778   0.867  2.1519  0.1590 -0.6941
  381MOL0     H51376   4.186  11.081   0.843 -0.5992 -0.2763 -1.3724
  381MOL0     H51377   4.147  10.970   0.971  1.6634  3.6590  2.7089
  381MOL0     H51378   4.423  11.067   0.902 -0.5157  0.7387 -0.4525
  381MOL0     H51379   4.322  11.143   1.026  1.8465 -0.3120  0.6777
  381MOL0     H51380   4.322  10.940   1.148  2.1633  0.9477  2.9869
  381MOL0     H51381   4.419  10.858   1.015  0.1143  1.2407 -1.0774
  381MOL0     H51382   4.541  10.895   1.180 -2.3950 -1.6714 -2.0906
  381MOL0     H51383   4.599  11.021   1.077  0.9635 -2.9250  0.0797
  381MOL0     H51384   4.509  11.059   1.343  2.6554  1.5372  0.7026
  381MOL0     H51385   4.384  11.149   1.249  0.0297  1.1452 -0.8518
  381MOL0     H51386   4.784  11.117   1.272  2.6991  2.9886  4.4128
  381MOL0     H51387   4.964  11.339   1.164  0.1000  3.0441 -2.1732
  381MOL0     H51388   4.891  11.495   1.203 -0.7484  0.5354 -0.8691
  381MOL0     H51389   5.079  11.392   1.366  0.4746 -1.5755 -3.9965
  381MOL0     H51390   4.945  11.289   1.426  1.0999 -1.1151 -2.1491
  381MOL0     H51391   4.989  11.586   1.447 -0.2575  0.5987  3.4229
  381MOL0     H51392   4.969  11.479   1.577 -0.1494  0.1510  0.6221
  381MOL0     H51393   4.743  11.570   1.399  0.5739 -1.6972 -0.1369
  381MOL0     H51394   4.794  11.663   1.543  0.5912  0.1015 -0.4241
  381MOL0     H51395   4.565  11.287   1.692  1.4304  0.2225 -1.6864
  381MOL0     H51396   4.612  11.106   1.946 -0.8553 -0.9724  1.3346
  381MOL0     H51397   4.504  11.225   2.026  4.2761  1.6428  2.2874
  381MOL0     H51398   4.483  11.172   1.855 -0.1280  0.1411 -0.3530
  381MOL0     H51399   5.041  11.465   2.323  1.9716 -1.6443  1.7540
  381MOL0     H51400   5.077  11.432   2.567 -0.5061  1.6528 -0.6307
  381MOL0     H51401   4.816  11.460   2.822 -0.1934  0.0654  3.7168
  381MOL0     H51402   4.736  11.302   2.800  0.9401 -0.5604 -1.5958
  381MOL0     H51403   4.780  11.314   3.029 -0.7791  0.1869 -1.0677
  381MOL0     H51404   4.889  11.200   2.950 -1.1875 -1.3797  1.0975
  381MOL0     H51405   4.961  11.483   3.057  0.9328  0.6521  1.1661
  381MOL0     H51406   5.068  11.396   2.955 -1.1874 -3.8353 -2.6440
  381MOL0     H51407   4.947  11.266   3.192  0.3386 -0.3640 -0.3571
  381MOL0     H51408   5.089  11.202   3.100  2.2080  0.1754  1.3653
  381MOL0     H51409   5.176  11.294   3.298  2.9521  0.0762 -1.3751
  381MOL0     H51410   5.087  11.439   3.280  0.2043  0.6853  0.1666
  381MOL0     H51411   5.309  11.319   3.093  3.1800  2.3566  0.9007
  381MOL0     H51412   5.265  11.486   3.094 -0.6796 -2.4333 -3.5233
  381MOL0     H51413   5.489  11.416   3.214 -0.2135  0.9662  0.6776
  381MOL0     H51414   5.388  11.319   3.315 -2.2507 -1.0966 -1.9637
  381MOL0     H51415   5.450  11.518   3.418 -0.4193  1.4569  0.0418
  381MOL0     H51416   5.278  11.518   3.393 -0.4917  0.9794 -0.8253
  381MOL0     H51417   4.681  11.274   2.602 -2.5164  2.2890 -1.3387
  381MOL0     H51418   4.634  11.361   2.373 -0.2268  0.1312  1.6185
  381MOL0     H51419   4.841  11.572   2.002 -1.4279  1.7973  0.1613
  381MOL0     H51420   4.844  11.623   1.757  0.4934  1.6787  2.9449
  381MOL0     H51421   4.593  10.463   0.644  1.6965  0.2737  0.0033
  381MOL0     H51422   4.676  10.318   0.486  0.6946 -0.4617 -1.0917
  381MOL0     H51423   4.712   9.922   0.178 -0.3199 -1.1070 -1.3852
  381MOL0     H51424   4.775   9.832  -0.022  2.0239  0.4534  0.6088
  381MOL0     H51425   4.856   9.787  -0.217 -1.8022  0.7362  2.2519
  381MOL0     H51426   4.700   9.774  -0.296  0.6303 -3.3526 -2.4268
  381MOL0     H51427   4.893   9.696  -0.448  2.0730 -0.0226  0.7253
  381MOL0     H51428   4.956   9.866  -0.428  1.1567 -0.6027  0.7296
  381MOL0     H51429   4.812   9.815  -0.648 -1.1195 -1.6659  0.4359
  381MOL0     H51430   4.777   9.961  -0.543 -2.0602  0.7202 -4.5468
  381MOL0     H51431   4.581   9.848  -0.643 -1.3551 -0.4598 -0.3226
  381MOL0     H51432   4.565   9.842  -0.471 -1.2742  1.1493 -1.3033
  381MOL0     H51433   4.605   9.426  -0.555  1.8959 -0.7570  0.9271
  381MOL0     H51434   4.712  10.207  -0.233 -1.1983 -1.4939 -0.5812
  381MOL0     H51435   4.669  10.308  -0.017  0.2464 -0.3843 -3.1733
  382MOL0     O51436   6.958   4.854   8.429 -0.1290 -0.0358  0.0583
  382MOL0     C51437   6.875   4.773   8.435 -0.2565  0.0398  0.1450
  382MOL0     O51438   6.849   4.713   8.551  0.7490 -0.2415  0.0930
  382MOL0     C51439   6.925   4.741   8.660 -0.5160  0.5536 -0.3365
  382MOL0     C51440   7.066   4.710   8.670  0.1836 -0.9919 -0.2327
  382MOL0     C51441   7.127   4.705   8.800  0.9319  0.7990  0.0531
  382MOL0     C51442   7.060   4.749   8.918 -0.6469  1.0345 -0.6529
  382MOL0     O51443   7.121   4.734   9.039  0.2605 -0.3370  0.4514
  382MOL0     C51444   7.059   4.647   9.133  0.8006  0.6598  0.1040
  382MOL0     C51445   7.013   4.735   9.256  0.5015 -0.2351  0.7174
  382MOL0     C51446   7.125   4.734   9.367  0.9782 -0.2501  0.2410
  382MOL0     C51447   7.075   4.778   9.505 -0.2905 -0.4715  0.2890
  382MOL0     C51448   7.185   4.844   9.585 -0.8838 -0.2768 -0.0824
  382MOL0     C51449   7.134   4.900   9.714 -0.3268 -0.7810  0.0080
  382MOL0     C51450   7.230   5.005   9.778  0.0678  0.0974  0.3338
  382MOL0     C51451   7.362   4.948   9.834  0.1719  0.2520  0.7970
  382MOL0     N51452   7.439   5.055   9.906  0.5930 -0.0441  0.1051
  382MOL0     C51453   7.432   5.188   9.856 -0.5153 -0.1147 -0.7705
  382MOL0     C51454   7.462   5.264   9.961 -0.1779 -0.0905 -0.5137
  382MOL0     C51455   7.488   5.418   9.965  0.2347  0.7076  0.0473
  382MOL0     C51456   7.354   5.498  10.004  0.1068  0.1681  0.2645
  382MOL0     C51457   7.398   5.646  10.022 -0.1910  0.3794  0.1920
  382MOL0     C51458   7.281   5.745   9.996  0.4055  0.7854  0.4653
  382MOL0     O51459   7.172   5.687  10.076 -0.7413 -0.6524 -0.0372
  382MOL0     C51460   7.048   5.697  10.024 -0.8068  0.8101 -0.0781
  382MOL0     C51461   6.986   5.573  10.005 -0.5614 -0.7753  0.2793
  382MOL0     C51462   6.851   5.566   9.962 -0.4391 -0.1456 -0.7367
  382MOL0     C51463   6.787   5.427   9.959  0.2762  0.5315 -0.9514
  382MOL0     C51464   6.779   5.679   9.930 -0.0182 -1.0335  0.6623
  382MOL0     C51465   6.644   5.672   9.881 -0.1650 -0.0998 -1.0943
  382MOL0     O51466   6.562   5.761   9.937  0.1283  0.7492  0.0335
  382MOL0     C51467   6.426   5.742   9.898 -0.6311 -1.1065  0.3860
  382MOL0     C51468   6.346   5.643   9.928  0.4659  0.2328 -0.2761
  382MOL0     C51469   6.214   5.621   9.868 -1.3335 -0.8371 -1.7249
  382MOL0     C51470   6.170   5.703   9.767 -0.1509 -0.6356 -0.2874
  382MOL0     O51471   6.041   5.679   9.722 -0.4437 -0.0443 -0.8014
  382MOL0     C51472   5.990   5.756   9.614 -0.1806  0.0553  0.3377
  382MOL0     C51473   5.837   5.710   9.583  0.6350 -0.2484  0.4404
  382MOL0     C51474   5.773   5.774   9.456  0.3998  0.3027 -0.3832
  382MOL0     C51475   5.652   5.691   9.406 -0.0959  0.6179 -0.2738
  382MOL0     C51476   5.578   5.739   9.283  0.1600  0.0262  1.2466
  382MOL0     C51477   5.473   5.630   9.232 -0.2295 -0.5293  0.3224
  382MOL0     C51478   5.409   5.691   9.109  0.0767 -0.6941  0.9081
  382MOL0     C51479   5.262   5.652   9.083  0.9751 -0.5734 -0.1442
  382MOL0    Cl51480   5.228   5.484   9.124 -0.1323 -0.3675  0.0477
  382MOL0     C51481   6.250   5.814   9.736  1.0297  0.7870  0.3944
  382MOL0     C51482   6.370   5.828   9.804 -0.6752 -0.3600 -0.4433
  382MOL0     O51483   6.618   5.605   9.778  0.0803 -0.8263 -0.4384
  382MOL0     C51484   6.840   5.795   9.956 -0.2400  0.6013  0.2036
  382MOL0     C51485   6.980   5.809   9.992 -0.1022  0.0440 -0.5955
  382MOL0     N51486   7.478   5.184  10.071 -0.1214 -0.5622 -0.0954
  382MOL0     N51487   7.465   5.062  10.039  0.2377  0.6032  0.6320
  382MOL0     C51488   6.929   4.784   8.914 -0.8116 -0.4637 -0.2530
  382MOL0     C51489   6.866   4.781   8.783 -0.0516  0.9386  0.0941
  382MOL0     C51490   6.797   4.743   8.320 -0.3893 -0.6938 -0.0146
  382MOL0     C51491   6.829   4.800   8.195  0.3648  0.4761  0.1581
  382MOL0     C51492   6.759   4.748   8.088 -0.1113 -0.1719 -0.1665
  382MOL0     C51493   6.650   4.662   8.103 -0.0081 -0.7566 -0.7446
  382MOL0     O51494   6.587   4.624   7.985  0.4320  0.8246  0.1653
  382MOL0     C51495   6.494   4.509   7.999 -0.1054 -0.8387  0.0348
  382MOL0     C51496   6.431   4.475   7.866 -0.2365 -0.4739  0.1555
  382MOL0     C51497   6.358   4.607   7.805 -0.5996 -0.7986 -0.2933
  382MOL0     C51498   6.298   4.585   7.666 -0.8271 -0.3481  0.4627
  382MOL0     C51499   6.172   4.509   7.687 -0.5404 -1.4158 -0.4182
  382MOL0     C51500   6.076   4.452   7.720 -0.3664 -0.1880 -0.8798
  382MOL0     C51501   6.605   4.637   8.234 -0.1396  0.0375 -1.3644
  382MOL0     C51502   6.681   4.676   8.343  0.9394  0.8587  1.0620
  382MOL0     H51503   7.120   4.678   8.581  0.0814 -2.7613  0.3037
  382MOL0     H51504   7.233   4.683   8.803  0.8191 -0.0740 -1.5449
  382MOL0     H51505   6.973   4.598   9.088  0.6275  0.9725  0.0922
  382MOL0     H51506   7.129   4.567   9.163  0.6915  0.7603  0.6449
  382MOL0     H51507   6.980   4.832   9.218 -2.4206 -1.8122 -1.1247
  382MOL0     H51508   6.922   4.694   9.299  0.1675  0.3472  0.5809
  382MOL0     H51509   7.173   4.636   9.368 -1.5741 -1.6080  2.3862
  382MOL0     H51510   7.207   4.795   9.328  0.5655  0.2036  0.0657
  382MOL0     H51511   6.991   4.848   9.504  0.9636  1.1198  1.3603
  382MOL0     H51512   7.043   4.680   9.545  0.9670 -1.8501 -1.8926
  382MOL0     H51513   7.262   4.767   9.596 -1.4012 -0.9133 -0.8420
  382MOL0     H51514   7.227   4.932   9.535 -0.5184  0.6462  1.7295
  382MOL0     H51515   7.033   4.941   9.704 -0.2528 -1.0927 -2.5210
  382MOL0     H51516   7.122   4.815   9.782  1.8669 -0.4721  0.8669
  382MOL0     H51517   7.256   5.076   9.699  2.0551 -2.3962 -1.4401
  382MOL0     H51518   7.179   5.059   9.859  0.1899 -1.3673  1.4377
  382MOL0     H51519   7.424   4.919   9.748  0.9508 -1.2772  1.8423
  382MOL0     H51520   7.338   4.864   9.899  1.0818 -0.5746  0.1119
  382MOL0     H51521   7.413   5.227   9.757  2.0423  2.4269 -0.3782
  382MOL0     H51522   7.566   5.439  10.040  0.5337  1.5083 -0.4782
  382MOL0     H51523   7.520   5.460   9.869 -0.5545 -2.0846 -1.5571
  382MOL0     H51524   7.307   5.458  10.094  1.7357  1.7634  1.9253
  382MOL0     H51525   7.287   5.502   9.918  0.8182  0.2441 -0.2939
  382MOL0     H51526   7.478   5.660   9.950 -1.0698  0.4533 -0.7887
  382MOL0     H51527   7.437   5.645  10.125  0.7676  0.1027 -0.1644
  382MOL0     H51528   7.249   5.732   9.892 -0.2084 -1.1372  0.8463
  382MOL0     H51529   7.321   5.843  10.020  2.3055  0.2960 -0.5610
  382MOL0     H51530   7.028   5.476  10.031  0.9217 -0.0663  0.6171
  382MOL0     H51531   6.703   5.425  10.030  1.6233 -1.3233  0.7131
  382MOL0     H51532   6.760   5.390   9.860 -0.5798 -0.9983 -0.1823
  382MOL0     H51533   6.859   5.354   9.997 -1.1435  0.1112  1.1402
  382MOL0     H51534   6.370   5.563   9.997 -0.1899 -0.4605 -0.8361
  382MOL0     H51535   6.159   5.541   9.917  0.8987 -0.5412  1.5833
  382MOL0     H51536   6.000   5.864   9.622  4.7299 -0.0454 -1.2791
  382MOL0     H51537   6.050   5.738   9.524  1.3345  0.6203  1.2044
  382MOL0     H51538   5.825   5.601   9.587  1.4115 -0.3030  2.8204
  382MOL0     H51539   5.771   5.746   9.662  0.2940 -0.9947  0.5039
  382MOL0     H51540   5.845   5.779   9.374 -2.3448 -0.4285 -3.0221
  382MOL0     H51541   5.746   5.873   9.494  1.4200 -0.1050  1.5580
  382MOL0     H51542   5.685   5.590   9.378  2.6538  1.6968 -1.2653
  382MOL0     H51543   5.575   5.685   9.483 -1.9721  0.8348 -2.0546
  382MOL0     H51544   5.648   5.752   9.200 -1.0296  1.0241  0.3515
  382MOL0     H51545   5.514   5.827   9.296 -0.6462  0.2237 -2.7385
  382MOL0     H51546   5.524   5.536   9.208  0.0283  0.7410 -5.6286
  382MOL0     H51547   5.403   5.613   9.314 -1.2150 -1.8569 -0.7547
  382MOL0     H51548   5.471   5.665   9.022 -1.9427  1.3257 -1.2865
  382MOL0     H51549   5.420   5.799   9.121  2.0515 -0.0689 -4.0712
  382MOL0     H51550   5.253   5.674   8.977  2.1388 -0.0571 -0.1559
  382MOL0     H51551   5.195   5.719   9.139 -0.0608  0.0597 -2.0685
  382MOL0     H51552   6.199   5.886   9.672 -5.1101  0.7843  4.4999
  382MOL0     H51553   6.441   5.903   9.771 -2.7137  2.5611  1.3738
  382MOL0     H51554   6.799   5.893   9.934 -0.5634  0.6434  0.9509
  382MOL0     H51555   7.029   5.905  10.008 -0.0068 -0.2408  0.9079
  382MOL0     H51556   6.869   4.817   8.998 -0.6884 -0.5587 -0.1257
  382MOL0     H51557   6.759   4.792   8.792  0.1233  4.1717 -0.4976
  382MOL0     H51558   6.913   4.866   8.174  1.6392 -0.9905  0.3845
  382MOL0     H51559   6.784   4.770   7.985 -2.5222 -0.1281 -0.8088
  382MOL0     H51560   6.549   4.423   8.037  1.3835 -0.1950 -0.5802
  382MOL0     H51561   6.407   4.534   8.061 -0.0854 -1.2084  0.2135
  382MOL0     H51562   6.360   4.393   7.879  0.6942 -1.5049 -0.9820
  382MOL0     H51563   6.513   4.439   7.802 -2.2235 -2.0836 -1.6106
  382MOL0     H51564   6.434   4.687   7.802 -0.8535 -0.4784  1.0221
  382MOL0     H51565   6.281   4.654   7.867  1.5769 -0.3710  2.2904
  382MOL0     H51566   6.366   4.516   7.616 -1.7067 -0.6945 -0.2703
  382MOL0     H51567   6.290   4.679   7.610  2.1384 -1.5980 -2.4115
  382MOL0     H51568   5.983   4.403   7.740 -0.8410 -1.0872 -4.5259
  382MOL0     H51569   6.528   4.564   8.255 -0.6029  1.0765  0.8857
  382MOL0     H51570   6.659   4.657   8.447  0.4196  2.3676  1.2568
  383MOL0     O51571   6.239  10.943   9.861 -0.5633 -0.4342  0.0684
  383MOL0     C51572   6.120  10.921   9.839 -0.0324 -0.3413  0.1077
  383MOL0     O51573   6.058  10.803   9.828 -0.1818 -0.0525  0.3629
  383MOL0     C51574   6.114  10.680   9.862 -0.3961 -0.1335  0.0789
  383MOL0     C51575   6.019  10.577   9.896 -0.6806 -0.4136  0.2777
  383MOL0     C51576   6.064  10.453   9.924 -0.5404  0.9222 -0.9459
  383MOL0     C51577   6.201  10.420   9.929  0.1156  0.5794  0.3060
  383MOL0     O51578   6.240  10.292   9.957  0.4786 -0.2890  0.8877
  383MOL0     C51579   6.381  10.267   9.985  1.1413 -0.1337 -0.1719
  383MOL0     C51580   6.366  10.116  10.005 -0.2151 -0.1287 -0.5348
  383MOL0     C51581   6.505  10.068  10.048  0.1199  0.2106  0.1778
  383MOL0     C51582   6.509   9.919  10.086  0.1074 -0.3705  0.2338
  383MOL0     C51583   6.639   9.880  10.139 -0.4894 -0.4734  0.5352
  383MOL0     C51584   6.647   9.722  10.140 -0.3104  0.4004  0.5305
  383MOL0     C51585   6.739   9.667  10.255  0.2651 -1.0529  0.7809
  383MOL0     C51586   6.885   9.720  10.224  0.2700  0.5191  0.1305
  383MOL0     N51587   6.951   9.667  10.104  0.3693 -0.2241 -0.2233
  383MOL0     C51588   6.938   9.718   9.978  0.8456  0.9072  0.4398
  383MOL0     C51589   6.981   9.619   9.897  0.4458  0.0754  0.0900
  383MOL0     C51590   6.973   9.628   9.744 -0.3595 -0.3928  0.5843
  383MOL0     C51591   6.835   9.647   9.694  0.7355  0.6404 -0.3142
  383MOL0     C51592   6.831   9.658   9.541  0.4063  0.0204  0.6882
  383MOL0     C51593   6.694   9.687   9.484  0.1140  0.0847  0.4641
  383MOL0     O51594   6.613   9.577   9.527  0.5261  0.1334 -0.1802
  383MOL0     C51595   6.540   9.498   9.449 -0.2296  0.9545 -0.4587
  383MOL0     C51596   6.501   9.384   9.515  0.9690  0.0006 -0.8636
  383MOL0     C51597   6.419   9.291   9.451  1.0001  0.2505 -0.9386
  383MOL0     C51598   6.364   9.182   9.548 -0.6759  0.2787 -1.0104
  383MOL0     C51599   6.379   9.305   9.318  0.3024 -0.9098  0.1886
  383MOL0     C51600   6.279   9.222   9.256  0.7215  1.4113  0.0772
  383MOL0     O51601   6.294   9.191   9.122 -0.5115 -0.8181  0.2588
  383MOL0     C51602   6.231   9.085   9.062 -0.3004  0.1644  0.2150
  383MOL0     C51603   6.124   9.102   8.978  0.4941 -0.2224  0.4457
  383MOL0     C51604   6.071   8.986   8.909  0.9088  0.4062 -0.0747
  383MOL0     C51605   6.116   8.853   8.936  0.8933  0.4271  0.0388
  383MOL0     O51606   6.065   8.736   8.894 -0.9102  0.1394 -0.1535
  383MOL0     C51607   5.944   8.730   8.819  0.9243 -0.9029 -0.1491
  383MOL0     C51608   5.967   8.765   8.665 -0.3250 -0.3582  0.1862
  383MOL0     C51609   5.847   8.746   8.556 -0.5653 -0.6501  0.0649
  383MOL0     C51610   5.810   8.600   8.531 -1.0654  0.8147  0.2048
  383MOL0     C51611   5.756   8.557   8.393  0.3047 -0.0639 -0.0619
  383MOL0     C51612   5.639   8.646   8.350  0.1054  0.3462 -0.4292
  383MOL0     C51613   5.507   8.643   8.434 -0.2397  0.6490 -0.5208
  383MOL0     C51614   5.411   8.523   8.394  0.4774  0.5173  0.1151
  383MOL0    Cl51615   5.349   8.537   8.222  0.2881 -0.1056 -0.0227
  383MOL0     C51616   6.228   8.844   9.016  0.3776 -0.5160 -0.4058
  383MOL0     C51617   6.285   8.956   9.075  0.0456  0.1052  0.6100
  383MOL0     O51618   6.182   9.191   9.319 -0.1565 -0.5534 -0.0663
  383MOL0     C51619   6.437   9.414   9.245 -1.0437  0.6346  0.4769
  383MOL0     C51620   6.520   9.516   9.305 -0.3425  0.0082 -0.2565
  383MOL0     N51621   7.019   9.512   9.971 -0.0312  0.2894 -0.4131
  383MOL0     N51622   7.004   9.543  10.091 -0.3438 -0.4343  0.4345
  383MOL0     C51623   6.294  10.516   9.892  0.0122  1.2875 -0.3044
  383MOL0     C51624   6.251  10.646   9.865  0.3373  0.1344  0.3771
  383MOL0     C51625   6.037  11.037   9.800 -0.5594  0.1833 -0.2055
  383MOL0     C51626   6.098  11.153   9.775 -0.1578 -0.4812  0.2939
  383MOL0     C51627   6.026  11.264   9.748 -0.0089 -0.0397 -0.9667
  383MOL0     C51628   5.879  11.269   9.753 -0.1937  0.4753 -0.4432
  383MOL0     O51629   5.797  11.371   9.714 -0.3357  0.4259 -0.2185
  383MOL0     C51630   5.840  11.502   9.675 -0.1469 -0.2483  0.3433
  383MOL0     C51631   5.704  11.578   9.658 -0.4137  0.2799  0.4614
  383MOL0     C51632   5.721  11.727   9.647 -0.3004 -0.8745  0.2118
  383MOL0     C51633   5.696  11.794   9.781  0.2228 -0.1932  0.6551
  383MOL0     C51634   5.748  11.930   9.806  0.7966 -1.0321  0.4098
  383MOL0     C51635   5.794  12.033   9.827  0.2469 -0.8535 -0.7719
  383MOL0     C51636   5.817  11.141   9.761 -0.8260 -0.8429  0.1503
  383MOL0     C51637   5.900  11.025   9.791 -0.5330  0.3412 -0.0083
  383MOL0     H51638   5.911  10.583   9.881 -0.4307 -1.1312 -2.2581
  383MOL0     H51639   5.987  10.386   9.961 -0.6423  0.8496 -1.2827
  383MOL0     H51640   6.438  10.290   9.895 -0.3297  0.5514 -0.9723
  383MOL0     H51641   6.419  10.329  10.066 -0.6194 -0.2639  0.8114
  383MOL0     H51642   6.295  10.084  10.082 -0.1840 -0.6755 -0.7240
  383MOL0     H51643   6.331  10.069   9.912  0.9702 -1.4816 -0.3395
  383MOL0     H51644   6.576  10.084   9.967  0.8000 -2.6937  0.0828
  383MOL0     H51645   6.543  10.127  10.131 -0.5386  3.9386 -1.9528
  383MOL0     H51646   6.441   9.896  10.169 -0.0192  0.7898  0.4748
  383MOL0     H51647   6.478   9.869   9.994 -0.4040 -1.4395  0.9693
  383MOL0     H51648   6.725   9.921  10.086  0.0886 -0.0811  1.7627
  383MOL0     H51649   6.636   9.923  10.239 -0.9417  1.9119 -0.4232
  383MOL0     H51650   6.548   9.680  10.163  0.0020 -0.5535  0.1978
  383MOL0     H51651   6.675   9.685  10.041 -0.4036  0.7430  0.3766
  383MOL0     H51652   6.708   9.702  10.354 -1.3742 -1.9198  0.6061
  383MOL0     H51653   6.750   9.559  10.242  0.5730 -0.9730  0.3348
  383MOL0     H51654   6.949   9.685  10.305 -0.7122  0.9256  1.1055
  383MOL0     H51655   6.895   9.828  10.232  1.9847  0.2327  3.4116
  383MOL0     H51656   6.897   9.812   9.942 -0.3951 -0.3483 -1.5650
  383MOL0     H51657   7.039   9.705   9.704  1.8688 -1.4749  1.9781
  383MOL0     H51658   7.015   9.533   9.708  2.1340  1.9711 -3.5695
  383MOL0     H51659   6.802   9.742   9.738  1.5216  0.2526  1.1783
  383MOL0     H51660   6.769   9.569   9.732  2.0887 -1.0257 -1.2708
  383MOL0     H51661   6.856   9.558   9.506  1.6505  1.4408 -2.9824
  383MOL0     H51662   6.902   9.738   9.518 -0.3637  0.7015  0.6396
  383MOL0     H51663   6.706   9.692   9.376  1.2514 -3.0016  0.3625
  383MOL0     H51664   6.644   9.776   9.525 -2.7694 -0.7759 -0.9189
  383MOL0     H51665   6.524   9.378   9.621  1.3557 -1.8248 -1.0223
  383MOL0     H51666   6.425   9.170   9.638  2.3606  0.4678 -2.8856
  383MOL0     H51667   6.265   9.222   9.570  1.1658  4.0370  1.2854
  383MOL0     H51668   6.370   9.080   9.509 -1.8566 -0.1409 -0.1448
  383MOL0     H51669   6.077   9.198   8.959 -0.1567 -1.1120 -3.1202
  383MOL0     H51670   5.984   9.013   8.850  1.4674  0.8434 -0.7198
  383MOL0     H51671   5.887   8.639   8.837  2.9658 -1.5878  4.0470
  383MOL0     H51672   5.877   8.810   8.852 -0.8485 -0.2524 -4.6527
  383MOL0     H51673   6.011   8.864   8.651 -0.5269 -0.6488 -3.5375
  383MOL0     H51674   6.056   8.711   8.632  2.7990  2.3047  3.4246
  383MOL0     H51675   5.867   8.787   8.456  1.6391  0.1810  0.7977
  383MOL0     H51676   5.757   8.787   8.602  0.9726  0.8845  1.8408
  383MOL0     H51677   5.896   8.535   8.550 -0.4398  1.3610 -0.6655
  383MOL0     H51678   5.732   8.577   8.603  0.7336 -2.1900  1.3619
  383MOL0     H51679   5.726   8.453   8.409  2.6232 -0.6487  1.0516
  383MOL0     H51680   5.839   8.558   8.322 -0.9258 -1.1916 -1.5610
  383MOL0     H51681   5.670   8.749   8.371 -1.1334  0.4044  1.3155
  383MOL0     H51682   5.624   8.641   8.242 -2.6703  0.4148 -0.1282
  383MOL0     H51683   5.451   8.736   8.425  0.2053  1.2313  1.9985
  383MOL0     H51684   5.543   8.618   8.534  0.6341 -3.5558 -1.6499
  383MOL0     H51685   5.325   8.523   8.461  0.8971 -0.8745  0.7060
  383MOL0     H51686   5.467   8.429   8.403 -1.1331 -0.4043  0.9488
  383MOL0     H51687   6.267   8.744   9.033  1.4094  0.1909  1.6358
  383MOL0     H51688   6.374   8.942   9.137 -0.5952  0.5623  1.6616
  383MOL0     H51689   6.416   9.406   9.139  0.4013 -2.9496  0.3161
  383MOL0     H51690   6.561   9.605   9.258 -1.1289 -0.3729 -1.7232
  383MOL0     H51691   6.402  10.504   9.901 -0.1919 -1.2068 -0.6000
  383MOL0     H51692   6.321  10.723   9.837  0.0776  0.3529  0.3216
  383MOL0     H51693   6.206  11.167   9.774 -0.5036  3.5760 -2.1042
  383MOL0     H51694   6.074  11.361   9.743 -0.9414  0.4433 -0.8322
  383MOL0     H51695   5.904  11.556   9.745 -1.4341  0.2064  1.2034
  383MOL0     H51696   5.895  11.496   9.581  1.1277 -3.2791  1.1842
  383MOL0     H51697   5.654  11.535   9.745  0.1798 -2.3996 -0.4156
  383MOL0     H51698   5.644  11.548   9.572 -0.4107  3.9970 -1.0489
  383MOL0     H51699   5.655  11.770   9.570  2.6572  1.5809 -1.2089
  383MOL0     H51700   5.816  11.764   9.606 -1.1597  0.9097 -0.2963
  383MOL0     H51701   5.736  11.736   9.864  3.8270  1.8724  0.5783
  383MOL0     H51702   5.587  11.798   9.790 -0.2448 -2.0294 -2.5486
  383MOL0     H51703   5.831  12.133   9.823  1.8344 -1.4237 -1.0878
  383MOL0     H51704   5.710  11.135   9.746 -1.1043  1.7288  0.6376
  383MOL0     H51705   5.856  10.926   9.806  2.7857 -1.1966  0.4341
  384MOL0     O51706   8.879   4.100   1.313 -0.3385  0.7370 -0.1782
  384MOL0     C51707   8.925   3.987   1.293 -0.3524 -0.0519  0.5325
  384MOL0     O51708   8.859   3.867   1.303 -0.4704  0.1530 -0.2699
  384MOL0     C51709   8.736   3.849   1.368  0.0573 -0.6914  0.5361
  384MOL0     C51710   8.663   3.938   1.441  0.0680  0.6145  0.1720
  384MOL0     C51711   8.538   3.910   1.501 -0.2673  0.1362 -0.3199
  384MOL0     C51712   8.486   3.791   1.488 -0.0050  0.3344  1.0880
  384MOL0     O51713   8.364   3.750   1.540 -0.3462  0.9884  0.1724
  384MOL0     C51714   8.292   3.841   1.622 -0.1509  0.5446 -0.3124
  384MOL0     C51715   8.209   3.758   1.721  0.1548  0.6652  0.3984
  384MOL0     C51716   8.275   3.699   1.843 -0.5765 -0.0493 -0.2494
  384MOL0     C51717   8.194   3.591   1.910  0.6230  0.4182  0.0581
  384MOL0     C51718   8.255   3.551   2.037  0.6404 -0.4390 -0.7473
  384MOL0     C51719   8.161   3.450   2.117 -0.0031  0.7665  0.2831
  384MOL0     C51720   8.113   3.329   2.017  0.9257  0.1236  0.4472
  384MOL0     C51721   8.004   3.262   2.103 -0.4333  0.6365  0.7989
  384MOL0     N51722   7.985   3.127   2.050 -0.6119 -0.7245  0.1493
  384MOL0     C51723   8.070   3.021   2.062  0.0680  0.8361 -0.0465
  384MOL0     C51724   8.000   2.917   2.021 -0.7091  0.9205  0.0531
  384MOL0     C51725   8.038   2.773   2.033 -0.7865  0.2579  0.5362
  384MOL0     C51726   8.110   2.696   1.925  0.4497 -1.3559  0.1520
  384MOL0     C51727   8.040   2.687   1.794  0.0029 -0.2057  0.2935
  384MOL0     C51728   7.900   2.616   1.785  0.7143  0.4290  0.0041
  384MOL0     O51729   7.926   2.481   1.828 -0.4260 -0.4456 -0.5678
  384MOL0     C51730   7.826   2.384   1.821  0.2749  0.1017 -0.4113
  384MOL0     C51731   7.855   2.249   1.835 -0.1915  0.2963  0.0560
  384MOL0     C51732   7.766   2.138   1.828  0.5659 -0.1863 -0.1154
  384MOL0     C51733   7.816   2.000   1.853 -0.5154 -1.3909  0.1301
  384MOL0     C51734   7.626   2.170   1.812  0.4183  0.3739  0.2784
  384MOL0     C51735   7.521   2.064   1.794  0.0020  0.5032 -0.1800
  384MOL0     O51736   7.399   2.118   1.787 -0.3849  0.4214  0.0714
  384MOL0     C51737   7.285   2.044   1.754 -0.7183  1.3158 -0.3225
  384MOL0     C51738   7.235   2.040   1.621  0.2129 -0.1210 -1.3238
  384MOL0     C51739   7.136   1.945   1.598 -0.1171 -0.0261 -0.0829
  384MOL0     C51740   7.080   1.866   1.701  1.1707 -0.5894  0.2092
  384MOL0     O51741   6.994   1.760   1.673  0.3430  0.2943 -0.0971
  384MOL0     C51742   7.004   1.685   1.553  0.3749 -0.1728  1.2424
  384MOL0     C51743   6.882   1.596   1.567 -0.1078 -0.0446 -0.0501
  384MOL0     C51744   6.866   1.522   1.434  0.7527  0.1226 -0.5254
  384MOL0     C51745   6.748   1.425   1.433  0.1178  0.3810 -0.2880
  384MOL0     C51746   6.792   1.294   1.506  0.3919 -0.4958 -0.2148
  384MOL0     C51747   6.855   1.194   1.415 -0.3302 -0.0040 -0.3266
  384MOL0     C51748   6.894   1.064   1.501 -0.5570 -0.5956 -0.6373
  384MOL0     C51749   6.934   0.942   1.416  0.7346  0.5364 -0.1277
  384MOL0    Cl51750   6.800   0.858   1.329 -0.3165 -0.5556  0.2783
  384MOL0     C51751   7.123   1.881   1.826  0.6450  0.0223 -0.5689
  384MOL0     C51752   7.228   1.971   1.858  0.4723  0.3756 -0.6824
  384MOL0     O51753   7.543   1.945   1.781 -0.4550  0.4645  0.2156
  384MOL0     C51754   7.598   2.307   1.820  0.3458  0.2584  0.5842
  384MOL0     C51755   7.693   2.411   1.812  0.5586  0.8511  0.0719
  384MOL0     N51756   7.874   2.955   1.997 -0.2000  0.7751  0.2958
  384MOL0     N51757   7.860   3.083   2.021  0.0165  0.2396  0.0876
  384MOL0     C51758   8.553   3.697   1.409  0.8940  0.6616 -0.4324
  384MOL0     C51759   8.679   3.720   1.358  0.4578 -0.4060  0.5067
  384MOL0     C51760   9.052   3.975   1.223  0.1164 -0.5777 -0.0397
  384MOL0     C51761   9.114   4.085   1.166  0.2183 -0.0964  0.6921
  384MOL0     C51762   9.228   4.064   1.091  0.0147  0.1689 -0.8223
  384MOL0     C51763   9.273   3.932   1.067  0.2282 -0.7828  0.0704
  384MOL0     O51764   9.406   3.899   1.031  0.0273 -0.1920  0.4937
  384MOL0     C51765   9.489   4.006   0.968  0.1238 -0.6193 -0.8915
  384MOL0     C51766   9.624   3.969   0.914 -0.6989 -0.5129  0.0717
  384MOL0     C51767   9.608   3.886   0.797  0.0587  0.2544 -0.0136
  384MOL0     C51768   9.729   3.801   0.772 -0.0006 -0.2530 -0.9189
  384MOL0     C51769   9.858   3.879   0.788  0.4966 -0.8769  0.3197
  384MOL0     C51770   9.966   3.929   0.807  0.3145  0.5817  0.1755
  384MOL0     C51771   9.203   3.828   1.117 -0.3120  0.5578  0.7214
  384MOL0     C51772   9.097   3.846   1.196  0.2188  0.4048  0.5763
  384MOL0     H51773   8.701   4.039   1.454  1.2519  0.0166  1.6546
  384MOL0     H51774   8.492   3.992   1.556  1.7584  1.4471 -0.4770
  384MOL0     H51775   8.363   3.905   1.676  1.3001  0.0182 -1.5354
  384MOL0     H51776   8.218   3.894   1.562 -2.4173  0.7791  2.4524
  384MOL0     H51777   8.118   3.813   1.746 -1.1028 -0.4153 -1.6052
  384MOL0     H51778   8.161   3.681   1.661 -0.0818  2.0050 -1.1978
  384MOL0     H51779   8.372   3.658   1.814  0.4720  0.8748  1.7453
  384MOL0     H51780   8.296   3.780   1.914 -1.1438 -0.3998  0.3309
  384MOL0     H51781   8.094   3.627   1.933  0.0113  0.3270 -2.2615
  384MOL0     H51782   8.189   3.504   1.844 -0.7876 -1.2325  2.2266
  384MOL0     H51783   8.351   3.507   2.008  0.3583 -1.0218 -0.8019
  384MOL0     H51784   8.274   3.641   2.095 -0.3538  0.6643 -2.0627
  384MOL0     H51785   8.217   3.402   2.197 -0.8613  0.8119  0.9325
  384MOL0     H51786   8.072   3.495   2.162 -0.7874  0.8543 -1.2631
  384MOL0     H51787   8.063   3.373   1.930  2.5223  2.3905  0.5767
  384MOL0     H51788   8.200   3.270   1.988  0.4613  0.2678 -1.3918
  384MOL0     H51789   7.918   3.329   2.104  0.7902  2.3081 -0.7020
  384MOL0     H51790   8.044   3.258   2.205 -1.4263  1.2163  1.2191
  384MOL0     H51791   8.172   3.018   2.100 -0.2887 -1.6299  0.8941
  384MOL0     H51792   8.109   2.765   2.116 -0.9259  0.2969  0.6609
  384MOL0     H51793   7.951   2.712   2.059 -1.0705  0.2726 -0.3691
  384MOL0     H51794   8.133   2.592   1.951  0.3952 -1.8645 -1.6689
  384MOL0     H51795   8.198   2.751   1.889  0.2633  0.4002  2.2232
  384MOL0     H51796   8.097   2.634   1.718 -1.9547  0.8207 -2.0475
  384MOL0     H51797   8.030   2.788   1.752 -0.3974 -1.9943 -4.4748
  384MOL0     H51798   7.862   2.616   1.682  2.6906 -1.7607 -0.8035
  384MOL0     H51799   7.828   2.659   1.855  0.8121 -1.1832  1.1405
  384MOL0     H51800   7.954   2.229   1.876  1.1749  1.5374 -2.3887
  384MOL0     H51801   7.788   1.932   1.772 -1.3676 -4.3048  2.6590
  384MOL0     H51802   7.924   1.991   1.868 -0.7562 -1.6962  1.8790
  384MOL0     H51803   7.777   1.953   1.944 -0.4712  0.7779  1.3447
  384MOL0     H51804   7.281   2.098   1.541 -1.9450  2.9923 -0.4824
  384MOL0     H51805   7.111   1.914   1.497 -2.2181  0.0690  0.3671
  384MOL0     H51806   6.985   1.752   1.470 -0.2757  0.6074  2.0022
  384MOL0     H51807   7.092   1.622   1.535 -0.9915 -1.6294 -0.8368
  384MOL0     H51808   6.895   1.526   1.650  3.5755 -0.3083 -0.6409
  384MOL0     H51809   6.794   1.658   1.582 -0.5511 -1.0945  2.0601
  384MOL0     H51810   6.955   1.461   1.415 -1.2700 -2.3335 -2.8797
  384MOL0     H51811   6.862   1.594   1.352 -0.5952 -0.8448 -1.3432
  384MOL0     H51812   6.660   1.470   1.479  0.0327 -1.3520  1.3702
  384MOL0     H51813   6.733   1.400   1.328  1.9235 -0.3741 -0.3988
  384MOL0     H51814   6.699   1.244   1.537  1.7202 -2.6765  0.4560
  384MOL0     H51815   6.858   1.320   1.590 -1.3189  3.1745  0.2294
  384MOL0     H51816   6.782   1.175   1.336 -0.9075 -3.0353  0.8079
  384MOL0     H51817   6.947   1.238   1.373 -1.3987  0.8504 -1.8958
  384MOL0     H51818   6.815   1.040   1.573  2.3947 -0.8261  2.8048
  384MOL0     H51819   6.983   1.091   1.559 -1.6508 -0.9776  1.3075
  384MOL0     H51820   6.970   0.864   1.484  2.9879  0.5357 -1.2606
  384MOL0     H51821   7.019   0.966   1.352  0.9865  0.7111  0.2679
  384MOL0     H51822   7.087   1.822   1.909  0.7274  0.9538  0.1504
  384MOL0     H51823   7.264   1.984   1.959 -0.1681  3.3194 -0.7357
  384MOL0     H51824   7.492   2.323   1.804  0.3377 -1.3162 -1.4410
  384MOL0     H51825   7.679   2.514   1.781  3.0923  1.1646 -0.2875
  384MOL0     H51826   8.513   3.597   1.405 -1.6020  1.4925  1.2813
  384MOL0     H51827   8.726   3.634   1.312  2.6454 -1.2524  3.9340
  384MOL0     H51828   9.065   4.182   1.164  0.0933 -0.1456 -1.5351
  384MOL0     H51829   9.277   4.147   1.041 -0.9660  0.9030 -0.5960
  384MOL0     H51830   9.425   4.065   0.903 -1.0068 -0.2529  0.5094
  384MOL0     H51831   9.515   4.083   1.041  4.3453 -1.3599 -1.3717
  384MOL0     H51832   9.677   3.903   0.983 -1.0482 -1.4910 -0.5779
  384MOL0     H51833   9.686   4.058   0.902  1.3907 -2.0910 -1.4886
  384MOL0     H51834   9.603   3.961   0.717 -0.7163  0.4104  0.1666
  384MOL0     H51835   9.512   3.834   0.799 -1.0714  2.2307  1.6496
  384MOL0     H51836   9.721   3.755   0.673  0.1602  0.1824 -1.1355
  384MOL0     H51837   9.725   3.727   0.853  0.6876 -0.1719 -0.8053
  384MOL0     H51838  10.049   3.994   0.827 -0.7023  1.9904 -0.0557
  384MOL0     H51839   9.249   3.731   1.102  2.3848  2.0348 -1.5503
  384MOL0     H51840   9.042   3.758   1.228 -1.3554  1.5913  1.2371
  385MOL0     O51841   1.005   7.788  11.313  0.5016  0.1260 -0.4994
  385MOL0     C51842   0.901   7.742  11.350  0.6746 -0.5076  0.0149
  385MOL0     O51843   0.768   7.752  11.292  0.1987 -0.9057  0.7658
  385MOL0     C51844   0.772   7.776  11.152  0.1160  0.6518 -0.2115
  385MOL0     C51845   0.716   7.888  11.097 -0.0942  0.2989  1.2663
  385MOL0     C51846   0.709   7.914  10.957  0.0502  0.2205  0.1167
  385MOL0     C51847   0.769   7.820  10.874 -0.3021  0.0633 -0.1651
  385MOL0     O51848   0.766   7.830  10.741  0.0464 -0.0441  0.3638
  385MOL0     C51849   0.725   7.959  10.687 -0.2677 -0.8933  0.4182
  385MOL0     C51850   0.738   7.950  10.532  0.4668  0.2416  0.5151
  385MOL0     C51851   0.882   7.923  10.493 -0.5108 -0.2236 -0.0402
  385MOL0     C51852   0.936   7.991  10.359  0.0817 -0.5851 -0.8292
  385MOL0     C51853   1.040   8.107  10.389 -1.6380 -0.2563  0.3504
  385MOL0     C51854   1.182   8.060  10.429  0.1248 -0.0961  0.4072
  385MOL0     C51855   1.275   8.168  10.384  1.0074 -0.4283  0.0793
  385MOL0     C51856   1.405   8.152  10.461 -0.1538 -0.2273 -0.1955
  385MOL0     N51857   1.505   8.237  10.405  0.3863  0.1356  0.2373
  385MOL0     C51858   1.638   8.229  10.435 -0.4652  0.8968 -0.5669
  385MOL0     C51859   1.688   8.343  10.389 -0.7742 -0.2302  0.0595
  385MOL0     C51860   1.839   8.395  10.389 -0.4195  1.1893 -0.3878
  385MOL0     C51861   1.863   8.460  10.526  0.0277  0.2408 -0.0814
  385MOL0     C51862   2.011   8.510  10.526  0.4729 -0.7296  1.1142
  385MOL0     C51863   2.060   8.574  10.653 -0.2196 -0.7424  0.1166
  385MOL0     O51864   2.026   8.499  10.770 -1.2443 -0.5012 -0.5841
  385MOL0     C51865   2.070   8.548  10.898  0.9396  0.0708  0.9343
  385MOL0     C51866   2.146   8.663  10.917  0.2600 -0.1060 -0.1330
  385MOL0     C51867   2.191   8.692  11.049 -0.5977  0.0325 -0.5712
  385MOL0     C51868   2.287   8.804  11.068 -0.1512 -0.1015 -0.1985
  385MOL0     C51869   2.141   8.611  11.166  0.6209  0.0267 -0.6294
  385MOL0     C51870   2.170   8.630  11.309  0.2372 -0.1903 -0.8179
  385MOL0     O51871   2.092   8.547  11.388 -0.1528  0.4022  0.6470
  385MOL0     C51872   2.106   8.537  11.522  0.4554 -0.3525  0.7490
  385MOL0     C51873   2.003   8.476  11.583  0.1706  0.2985 -0.0215
  385MOL0     C51874   1.998   8.458  11.723  0.1080 -0.5203  0.5502
  385MOL0     C51875   2.107   8.501  11.798  0.7654  0.3866 -1.7273
  385MOL0     O51876   2.093   8.489  11.929  0.7386  0.1383 -0.3923
  385MOL0     C51877   2.215   8.485  12.005  0.6624  0.1069 -0.5646
  385MOL0     C51878   2.161   8.457  12.149 -1.1785 -0.4745  0.5829
  385MOL0     C51879   2.280   8.488  12.245 -0.5385 -0.0250 -0.1700
  385MOL0     C51880   2.364   8.361  12.268 -0.8609  0.4425 -0.0138
  385MOL0     C51881   2.483   8.398  12.359  0.0180 -0.7544 -0.1795
  385MOL0     C51882   2.600   8.297  12.357  0.5855 -0.2698  0.6351
  385MOL0     C51883   2.709   8.336  12.455  0.5147 -0.4329 -0.4680
  385MOL0     C51884   2.833   8.241  12.441 -0.4450  0.1413  1.2747
  385MOL0    Cl51885   2.784   8.079  12.492  0.0147 -0.2986  0.6353
  385MOL0     C51886   2.209   8.569  11.737  0.5405 -0.6103  0.0009
  385MOL0     C51887   2.210   8.586  11.601  0.2014 -0.2312  0.0512
  385MOL0     O51888   2.232   8.727  11.344 -0.1377 -0.9541 -0.0460
  385MOL0     C51889   2.051   8.510  11.136 -0.1183 -0.3307 -0.2182
  385MOL0     C51890   2.024   8.478  11.003 -0.5247  0.0175  1.0873
  385MOL0     N51891   1.592   8.412  10.321  0.0736  0.0484  0.4098
  385MOL0     N51892   1.484   8.346  10.320  0.3498  1.2862 -0.1026
  385MOL0     C51893   0.823   7.708  10.925 -0.8625 -0.2236  0.5608
  385MOL0     C51894   0.831   7.689  11.062  0.4071  0.2171 -0.4896
  385MOL0     C51895   0.915   7.644  11.466  0.2464  0.7175  0.1774
  385MOL0     C51896   0.807   7.575  11.522 -0.3245  0.8420  0.6864
  385MOL0     C51897   0.829   7.482  11.620 -0.8111 -0.6798 -0.3180
  385MOL0     C51898   0.958   7.463  11.674  0.0758 -0.4870  0.0064
  385MOL0     O51899   0.998   7.377  11.779 -0.6392  0.2742  0.4768
  385MOL0     C51900   0.900   7.316  11.856  0.2326 -0.0403 -0.9476
  385MOL0     C51901   0.861   7.182  11.799 -0.1453 -0.7393  0.7874
  385MOL0     C51902   0.749   7.109  11.869  0.3699 -1.4453 -0.4256
  385MOL0     C51903   0.659   7.046  11.771  0.2024  0.3883 -0.2715
  385MOL0     C51904   0.582   6.937  11.839 -0.3135  0.2066 -0.1621
  385MOL0     C51905   0.506   6.851  11.869 -0.4277 -1.1742  0.2694
  385MOL0     C51906   1.067   7.533  11.618 -0.1178 -0.0283 -0.2178
  385MOL0     C51907   1.042   7.623  11.513 -0.3331  0.5630  0.8201
  385MOL0     H51908   0.678   7.968  11.159  2.4985  2.6240  0.0730
  385MOL0     H51909   0.660   8.005  10.924 -2.2823 -0.6826  0.8394
  385MOL0     H51910   0.616   7.966  10.698 -0.4480  0.8103 -1.7850
  385MOL0     H51911   0.771   8.045  10.737 -3.3424 -0.6034  3.0859
  385MOL0     H51912   0.666   7.876  10.498 -0.4537  1.2138  0.2893
  385MOL0     H51913   0.714   8.044  10.482 -1.3598 -1.6389 -2.4448
  385MOL0     H51914   0.940   7.937  10.585  0.6106 -0.7233 -0.6501
  385MOL0     H51915   0.896   7.816  10.481 -0.2812 -0.0743 -1.1874
  385MOL0     H51916   0.984   7.917  10.295 -0.4813 -0.3093 -1.5771
  385MOL0     H51917   0.859   8.034  10.295 -0.2942  1.5738  0.9325
  385MOL0     H51918   1.044   8.166  10.297 -1.6308 -3.0035 -1.5053
  385MOL0     H51919   1.005   8.171  10.471 -1.8800 -1.5180  1.2705
  385MOL0     H51920   1.200   8.037  10.535 -0.3156  2.9846  1.2403
  385MOL0     H51921   1.210   7.971  10.371  0.5818 -1.4985  2.6355
  385MOL0     H51922   1.293   8.160  10.276 -2.6456  0.5575 -0.7426
  385MOL0     H51923   1.227   8.266  10.396  2.1774  0.0491  1.1005
  385MOL0     H51924   1.445   8.050  10.453  0.3071 -0.2288  1.7169
  385MOL0     H51925   1.392   8.178  10.566 -2.5864 -0.2370 -0.4258
  385MOL0     H51926   1.682   8.152  10.498 -0.7855  0.3608 -0.9991
  385MOL0     H51927   1.913   8.316  10.376 -1.1890  0.0711  1.5626
  385MOL0     H51928   1.852   8.476  10.316  2.4909  0.7953 -0.4154
  385MOL0     H51929   1.830   8.382  10.595 -0.0448  1.0348  0.8128
  385MOL0     H51930   1.793   8.544  10.530  0.3160  0.8334 -3.9375
  385MOL0     H51931   2.019   8.582  10.445 -2.2158 -1.0713  0.4347
  385MOL0     H51932   2.076   8.427  10.495  0.4041 -0.5803  0.5744
  385MOL0     H51933   2.010   8.671  10.659 -0.1252 -0.5060 -2.1327
  385MOL0     H51934   2.166   8.600  10.651 -0.1133 -1.0954  0.6912
  385MOL0     H51935   2.172   8.734  10.840  0.2149  4.5964  3.7094
  385MOL0     H51936   2.367   8.770  11.135 -0.9641 -0.6384  0.5325
  385MOL0     H51937   2.333   8.848  10.980  2.8612 -0.9462  0.8266
  385MOL0     H51938   2.236   8.888  11.117  3.6575  0.3034  3.6624
  385MOL0     H51939   1.906   8.462  11.536 -1.3720  2.4223  2.2920
  385MOL0     H51940   1.907   8.417  11.764  0.5422 -0.9604  1.1012
  385MOL0     H51941   2.276   8.402  11.969 -0.2229 -1.5590  1.5218
  385MOL0     H51942   2.274   8.577  12.006 -0.6752  1.0065  1.0575
  385MOL0     H51943   2.092   8.538  12.171  0.2491  1.9852 -3.0408
  385MOL0     H51944   2.105   8.367  12.176 -1.2495  0.0582  2.3523
  385MOL0     H51945   2.241   8.520  12.342  1.7308  2.6847 -0.0101
  385MOL0     H51946   2.348   8.566  12.211  2.0763 -1.3406  1.6983
  385MOL0     H51947   2.307   8.277  12.308  0.7332 -2.4424 -3.2514
  385MOL0     H51948   2.403   8.325  12.173 -2.3785  0.3893 -0.6381
  385MOL0     H51949   2.440   8.427  12.456 -4.7566 -2.5344 -1.5164
  385MOL0     H51950   2.530   8.486  12.314  2.8409 -2.1459 -0.1289
  385MOL0     H51951   2.551   8.200  12.370 -2.9673  1.3429  0.5706
  385MOL0     H51952   2.645   8.293  12.258 -1.3432  1.7087 -0.4138
  385MOL0     H51953   2.676   8.330  12.558 -3.4426 -1.5264 -1.6448
  385MOL0     H51954   2.746   8.434  12.421 -0.0664 -0.8097 -2.3333
  385MOL0     H51955   2.927   8.263  12.493 -1.1156  2.5792  1.5494
  385MOL0     H51956   2.859   8.242  12.335 -1.0336 -4.1294  0.9100
  385MOL0     H51957   2.300   8.589  11.793 -0.8200 -1.0223  2.5021
  385MOL0     H51958   2.301   8.637  11.570  1.9493 -2.9240  0.4728
  385MOL0     H51959   2.004   8.445  11.210  2.1984  1.3064  2.9569
  385MOL0     H51960   1.954   8.400  10.974 -2.4180  0.8653  3.0704
  385MOL0     H51961   0.868   7.631  10.864 -1.2112  1.1086 -1.5017
  385MOL0     H51962   0.849   7.585  11.087 -2.0049 -0.4829 -1.3652
  385MOL0     H51963   0.705   7.602  11.497 -0.4680 -0.3712 -0.1305
  385MOL0     H51964   0.746   7.419  11.650  0.1650 -1.3293  1.1439
  385MOL0     H51965   0.941   7.301  11.957 -2.0603  0.9351  0.2039
  385MOL0     H51966   0.808   7.374  11.864 -2.3454 -3.6440 -1.9343
  385MOL0     H51967   0.951   7.121  11.800 -2.1378 -3.8664  1.7038
  385MOL0     H51968   0.837   7.195  11.693 -1.4470 -1.5679  0.9638
  385MOL0     H51969   0.694   7.183  11.928  1.3433 -1.3535  0.3991
  385MOL0     H51970   0.781   7.035  11.943 -3.1627 -3.2006 -0.4435
  385MOL0     H51971   0.718   6.988  11.698  0.2129 -0.4877  0.4120
  385MOL0     H51972   0.590   7.116  11.724  0.6670  0.6327 -0.5972
  385MOL0     H51973   0.440   6.772  11.897  0.7727 -1.2526  3.3290
  385MOL0     H51974   1.165   7.528  11.664 -1.0671  1.1049  2.0743
  385MOL0     H51975   1.127   7.678  11.474 -1.8107  1.2620 -1.6782
  386MOL0     O51976   1.464   4.070   0.293  0.2270 -0.2396  0.2513
  386MOL0     C51977   1.547   4.102   0.378 -0.4420 -0.0822 -0.6812
  386MOL0     O51978   1.548   4.046   0.504  0.0439 -0.3910 -0.3475
  386MOL0     C51979   1.444   3.965   0.555 -0.5661  0.5440  0.0103
  386MOL0     C51980   1.312   3.987   0.528  0.8379 -0.6805  0.1044
  386MOL0     C51981   1.209   3.909   0.586  0.0222  0.7543 -0.6970
  386MOL0     C51982   1.243   3.800   0.679  0.1139 -0.3357  0.5817
  386MOL0     O51983   1.167   3.696   0.728  0.5728  0.1846 -0.0272
  386MOL0     C51984   1.032   3.686   0.685 -0.3317  0.4317 -0.8101
  386MOL0     C51985   0.984   3.538   0.679  0.0718  0.2271 -0.0290
  386MOL0     C51986   0.840   3.523   0.647 -0.6359 -0.2564  0.7077
  386MOL0     C51987   0.815   3.372   0.640 -0.1099 -0.8723 -1.1401
  386MOL0     C51988   0.657   3.355   0.642  0.2076  0.1261 -0.8885
  386MOL0     C51989   0.621   3.209   0.612  0.9730  0.0154 -0.2318
  386MOL0     C51990   0.470   3.191   0.612  0.8445 -0.0331  0.5804
  386MOL0     C51991   0.407   3.227   0.473  0.6386 -0.0968 -0.1727
  386MOL0     N51992   0.299   3.323   0.484  0.0255  0.1068 -0.0498
  386MOL0     C51993   0.169   3.283   0.497  0.4504 -0.8399 -0.5146
  386MOL0     C51994   0.105   3.410   0.515  0.1146 -0.1783 -0.0942
  386MOL0     C51995  -0.040   3.430   0.541 -1.9980 -0.3460 -1.2531
  386MOL0     C51996  -0.141   3.449   0.423 -0.8588 -0.8541 -0.3617
  386MOL0     C51997  -0.281   3.508   0.487  0.9208  0.1256  0.2049
  386MOL0     C51998  -0.401   3.507   0.390  0.0872 -0.1798  0.0238
  386MOL0     O51999  -0.534   3.488   0.440  0.3224  0.1406  0.2248
  386MOL0     C52000  -0.581   3.361   0.476 -0.3130  0.1359  0.7254
  386MOL0     C52001  -0.504   3.248   0.503 -0.3711  0.2851 -0.5976
  386MOL0     C52002  -0.556   3.124   0.538 -1.0630 -0.9632  0.5752
  386MOL0     C52003  -0.446   3.017   0.538 -0.9383 -0.2662  0.3653
  386MOL0     C52004  -0.702   3.111   0.551 -0.0856 -0.0707 -0.0824
  386MOL0     C52005  -0.765   2.975   0.551 -0.5620  0.3862 -0.1660
  386MOL0     O52006  -0.695   2.858   0.562  0.9100 -1.0614 -0.3589
  386MOL0     C52007  -0.765   2.742   0.539  0.5678 -0.6631 -0.5125
  386MOL0     C52008  -0.834   2.710   0.423  0.6634  0.0182  0.6050
  386MOL0     C52009  -0.875   2.577   0.398 -0.9865  0.2798  0.3522
  386MOL0     C52010  -0.852   2.481   0.491  0.5816 -0.0144 -0.5007
  386MOL0     O52011  -0.896   2.360   0.450  0.0486 -0.1296  0.1770
  386MOL0     C52012  -0.858   2.242   0.525  0.5379 -0.7485  0.0596
  386MOL0     C52013  -0.955   2.203   0.636 -0.0449  0.0615  0.2682
  386MOL0     C52014  -0.909   2.096   0.740  0.6633  0.5578 -0.2637
  386MOL0     C52015  -0.824   2.179   0.843  0.0069 -0.1429  0.4570
  386MOL0     C52016  -0.733   2.090   0.926  0.0815 -0.8423 -0.4176
  386MOL0     C52017  -0.595   2.074   0.849  0.2600 -0.2820  0.1764
  386MOL0     C52018  -0.494   2.001   0.939  0.2338 -0.4084 -0.1461
  386MOL0     C52019  -0.361   1.998   0.878  0.4857 -1.2486 -0.6325
  386MOL0    Cl52020  -0.282   2.171   0.876  0.1252  0.7424  0.1610
  386MOL0     C52021  -0.791   2.519   0.612  0.6862 -0.0311  0.0739
  386MOL0     C52022  -0.749   2.646   0.643  0.1499  0.1009  0.2170
  386MOL0     O52023  -0.889   2.980   0.559  0.3310  0.7008  0.0511
  386MOL0     C52024  -0.775   3.227   0.525  0.6865  0.5064 -0.4949
  386MOL0     C52025  -0.721   3.347   0.486  0.0413  0.1983  0.0812
  386MOL0     N52026   0.196   3.512   0.507  0.5705 -0.1924  0.1220
  386MOL0     N52027   0.311   3.458   0.476 -0.2711 -0.6878  0.1198
  386MOL0     C52028   1.378   3.793   0.715 -0.2714  0.1284 -0.0242
  386MOL0     C52029   1.472   3.880   0.655  0.3436  0.5182 -1.5052
  386MOL0     C52030   1.656   4.200   0.347 -0.8982  0.4606  0.6758
  386MOL0     C52031   1.710   4.278   0.451  0.5156  0.7699 -0.5648
  386MOL0     C52032   1.811   4.368   0.430  0.6874  0.3362 -0.0510
  386MOL0     C52033   1.871   4.383   0.307  0.3912 -0.1152 -0.0715
  386MOL0     O52034   1.974   4.470   0.290  0.6682 -0.0182 -0.3901
  386MOL0     C52035   1.964   4.567   0.183 -0.2905 -1.1877 -0.6201
  386MOL0     C52036   2.113   4.605   0.176 -0.4070 -0.1001  0.1050
  386MOL0     C52037   2.131   4.739   0.108  0.2479  0.1169  0.0859
  386MOL0     C52038   2.275   4.797   0.110 -0.1368  0.7242 -0.1759
  386MOL0     C52039   2.378   4.734   0.027  1.0551 -0.2179  0.0476
  386MOL0     C52040   2.444   4.660  -0.040  0.1247 -0.2434 -0.5047
  386MOL0     C52041   1.817   4.311   0.201  0.0451  0.3167 -0.7297
  386MOL0     C52042   1.713   4.217   0.215 -0.4674  0.2620  1.4339
  386MOL0     H52043   1.279   4.055   0.450 -1.0038 -0.4913  0.9968
  386MOL0     H52044   1.109   3.920   0.545  1.2017  1.1570 -3.7227
  386MOL0     H52045   0.976   3.750   0.753  0.1957  0.3204 -0.2676
  386MOL0     H52046   1.020   3.734   0.587 -0.6467 -0.5288 -1.2576
  386MOL0     H52047   1.048   3.475   0.616  2.7296  0.4528  2.2518
  386MOL0     H52048   1.001   3.498   0.779  3.1944 -0.4584 -0.7375
  386MOL0     H52049   0.774   3.575   0.716  0.0450  1.5764  0.0347
  386MOL0     H52050   0.815   3.570   0.551 -3.5905  1.4012  2.1496
  386MOL0     H52051   0.861   3.340   0.545 -0.4606 -1.6164 -1.0618
  386MOL0     H52052   0.862   3.310   0.717  0.3237 -1.4394 -1.8419
  386MOL0     H52053   0.614   3.379   0.740 -0.9637  1.6607 -1.7183
  386MOL0     H52054   0.603   3.416   0.569 -0.5360  1.7949  0.9743
  386MOL0     H52055   0.660   3.163   0.521  0.2199  0.2852 -0.7049
  386MOL0     H52056   0.663   3.159   0.699  3.1784  2.7968  0.4104
  386MOL0     H52057   0.458   3.087   0.642  0.9508 -0.5743 -1.1581
  386MOL0     H52058   0.430   3.250   0.695 -3.4619 -0.8807 -0.6511
  386MOL0     H52059   0.384   3.135   0.418 -1.2662  0.5772 -0.5844
  386MOL0     H52060   0.485   3.270   0.408 -0.2278 -0.2163 -1.3359
  386MOL0     H52061   0.122   3.186   0.510 -0.2452 -0.3020  1.2106
  386MOL0     H52062  -0.073   3.340   0.594  1.8108 -0.1729  1.9137
  386MOL0     H52063  -0.050   3.507   0.617 -0.4514 -1.6609  0.3602
  386MOL0     H52064  -0.150   3.356   0.364 -1.3940 -0.7260 -0.4867
  386MOL0     H52065  -0.107   3.525   0.352 -1.5079 -0.8470 -0.6768
  386MOL0     H52066  -0.271   3.601   0.543 -2.0142 -0.8265  2.6336
  386MOL0     H52067  -0.323   3.437   0.559 -0.7037 -0.5696 -1.3523
  386MOL0     H52068  -0.380   3.436   0.310 -3.6249 -1.3948 -0.0262
  386MOL0     H52069  -0.401   3.603   0.339 -0.4015 -0.5667 -0.7159
  386MOL0     H52070  -0.398   3.265   0.485  0.3699 -2.7316  0.3293
  386MOL0     H52071  -0.342   3.045   0.555 -0.4151 -2.8343  1.9283
  386MOL0     H52072  -0.457   2.948   0.623  3.4668  0.4149  1.7234
  386MOL0     H52073  -0.446   2.956   0.448 -3.4883  1.5801 -1.0096
  386MOL0     H52074  -0.857   2.778   0.341 -0.7964 -0.3579  0.6729
  386MOL0     H52075  -0.924   2.547   0.306  2.1912 -2.9057 -0.5453
  386MOL0     H52076  -0.834   2.153   0.465  3.7076  0.2841 -0.3787
  386MOL0     H52077  -0.764   2.265   0.575  1.3039 -1.3020 -1.0790
  386MOL0     H52078  -0.993   2.291   0.689  0.3355  0.2877  0.1691
  386MOL0     H52079  -1.047   2.170   0.588  1.4402 -3.0917 -0.7214
  386MOL0     H52080  -0.851   2.018   0.690  1.1957  2.7820 -3.3590
  386MOL0     H52081  -0.992   2.046   0.791  0.8157 -0.1858 -0.7368
  386MOL0     H52082  -0.772   2.252   0.780 -1.7849 -0.2848 -1.3132
  386MOL0     H52083  -0.892   2.248   0.895  0.4816  1.9323 -1.4943
  386MOL0     H52084  -0.774   1.993   0.954 -1.7091 -0.1802 -0.5617
  386MOL0     H52085  -0.728   2.142   1.023  4.1803  0.7893 -1.3116
  386MOL0     H52086  -0.623   2.023   0.756 -1.8870 -3.7847  2.5176
  386MOL0     H52087  -0.558   2.176   0.836 -1.6398  0.1963 -2.2072
  386MOL0     H52088  -0.526   1.900   0.967  0.2828 -0.5640 -0.6340
  386MOL0     H52089  -0.475   2.052   1.034 -0.4421  0.3608 -0.4173
  386MOL0     H52090  -0.353   1.964   0.774  2.1403  0.6295 -1.1941
  386MOL0     H52091  -0.294   1.940   0.942 -0.0945  0.2555  1.4664
  386MOL0     H52092  -0.793   2.454   0.699 -4.4097 -1.5822 -0.8734
  386MOL0     H52093  -0.708   2.664   0.742 -0.4252  2.2777  0.1135
  386MOL0     H52094  -0.883   3.217   0.525  0.7988 -2.4604 -3.3882
  386MOL0     H52095  -0.785   3.434   0.472 -1.0114 -0.2739  1.6312
  386MOL0     H52096   1.409   3.714   0.783 -1.3797 -1.6106 -1.4539
  386MOL0     H52097   1.575   3.871   0.688 -0.5356  1.5429  2.0432
  386MOL0     H52098   1.654   4.281   0.544  1.7536  5.0949  0.2983
  386MOL0     H52099   1.843   4.441   0.504 -1.1522  0.8011  0.3365
  386MOL0     H52100   1.923   4.531   0.088 -0.7979 -0.4437 -0.6887
  386MOL0     H52101   1.902   4.645   0.229  1.8762 -0.7755  1.8362
  386MOL0     H52102   2.166   4.524   0.127 -0.9702 -1.8626  2.2349
  386MOL0     H52103   2.149   4.608   0.279 -2.1529 -0.6980  0.7700
  386MOL0     H52104   2.073   4.802   0.177 -0.0386 -0.5328  0.4501
  386MOL0     H52105   2.081   4.746   0.011  0.5124  1.5683  0.0309
  386MOL0     H52106   2.303   4.786   0.215 -0.5218 -1.3568 -0.2407
  386MOL0     H52107   2.268   4.902   0.080 -0.5913  0.9546  0.6781
  386MOL0     H52108   2.489   4.589  -0.107 -3.1319 -0.6959 -2.4112
  386MOL0     H52109   1.862   4.326   0.103 -0.0561  3.4499 -0.3916
  386MOL0     H52110   1.675   4.165   0.128 -1.9429  1.5716  1.2500
  387MOL0     O52111  10.093   1.833   6.115  0.0801 -0.5248 -0.1056
  387MOL0     C52112  10.074   1.790   6.001 -0.1959 -0.0799 -0.5527
  387MOL0     O52113   9.960   1.821   5.924 -0.3393 -0.1851  0.2366
  387MOL0     C52114   9.868   1.905   5.978  0.9461  0.3381  0.6354
  387MOL0     C52115   9.751   1.849   6.030  0.3135  0.3163  0.8462
  387MOL0     C52116   9.652   1.933   6.074  0.7543 -0.7612  0.2296
  387MOL0     C52117   9.677   2.072   6.080  0.5094 -0.1302 -0.6258
  387MOL0     O52118   9.585   2.156   6.125 -0.4778 -0.5161 -0.3813
  387MOL0     C52119   9.626   2.254   6.225  0.2892  0.2848  0.0980
  387MOL0     C52120   9.635   2.181   6.363  0.1347 -0.3071  0.1305
  387MOL0     C52121   9.765   2.118   6.396  0.1762  0.5446 -0.6256
  387MOL0     C52122   9.828   2.150   6.538 -0.1110 -0.2007 -1.0502
  387MOL0     C52123   9.927   2.036   6.569 -1.3459  0.4827 -0.2533
  387MOL0     C52124  10.025   2.076   6.681 -0.3737 -0.3123 -0.4399
  387MOL0     C52125  10.091   1.955   6.751 -0.0114  0.1596  0.0895
  387MOL0     C52126  10.018   1.869   6.859  0.3754  0.6235  0.2127
  387MOL0     N52127  10.009   1.936   6.985  0.2767 -0.4169 -0.4587
  387MOL0     C52128   9.897   1.981   7.039  0.5580  0.6397 -0.7799
  387MOL0     C52129   9.920   1.981   7.176  0.2091 -0.7229  0.9315
  387MOL0     C52130   9.821   2.030   7.269  1.4085  0.4424 -0.2916
  387MOL0     C52131   9.693   1.942   7.261 -0.5222  0.5585 -0.4008
  387MOL0     C52132   9.707   1.823   7.367  1.1655  0.7574  0.6206
  387MOL0     C52133   9.580   1.732   7.336 -0.1659 -1.0069 -0.1835
  387MOL0     O52134   9.465   1.813   7.331 -0.2041 -0.5393  0.7132
  387MOL0     C52135   9.336   1.753   7.324  0.7019 -0.4259 -0.1745
  387MOL0     C52136   9.224   1.841   7.320 -0.8851 -0.4254 -0.3275
  387MOL0     C52137   9.093   1.794   7.306 -1.2023  0.2252 -0.4788
  387MOL0     C52138   8.991   1.895   7.303 -0.2531 -0.4403  0.0789
  387MOL0     C52139   9.070   1.655   7.329  1.1889 -0.1990  0.1577
  387MOL0     C52140   8.930   1.598   7.353 -0.5577 -0.5980  0.8436
  387MOL0     O52141   8.931   1.474   7.399  0.3912 -0.0830 -0.5479
  387MOL0     C52142   8.823   1.385   7.386  0.6495  0.2375 -0.0410
  387MOL0     C52143   8.803   1.306   7.501  0.4305  0.5767  0.4883
  387MOL0     C52144   8.709   1.198   7.485 -0.3043 -1.2882  0.1884
  387MOL0     C52145   8.634   1.168   7.370 -0.4362 -0.2423  1.1354
  387MOL0     O52146   8.535   1.078   7.360 -0.3793  0.0600 -0.5022
  387MOL0     C52147   8.489   1.026   7.495 -0.2023 -0.6107  0.1480
  387MOL0     C52148   8.374   0.928   7.461  0.1754  0.1486 -0.1537
  387MOL0     C52149   8.340   0.830   7.583  0.1121  0.1931  0.3289
  387MOL0     C52150   8.274   0.696   7.546 -0.2450  0.5962 -0.4936
  387MOL0     C52151   8.288   0.583   7.646 -0.6797 -0.3340 -0.6687
  387MOL0     C52152   8.254   0.437   7.590  0.2722  0.4176 -0.0613
  387MOL0     C52153   8.379   0.364   7.540  0.3810  0.6656  0.5558
  387MOL0     C52154   8.384   0.212   7.535 -0.0216  0.4061  0.1449
  387MOL0    Cl52155   8.267   0.170   7.404  0.5247  0.4249 -0.0071
  387MOL0     C52156   8.651   1.250   7.265  0.2557  0.3092  0.0889
  387MOL0     C52157   8.751   1.356   7.270  0.9134  0.0656  0.2303
  387MOL0     O52158   8.824   1.650   7.308  0.7831 -0.0197 -0.1732
  387MOL0     C52159   9.186   1.569   7.348 -0.6181  0.7816  0.5493
  387MOL0     C52160   9.316   1.615   7.349 -0.0313  0.0983  0.1598
  387MOL0     N52161  10.055   1.958   7.200  0.1161  0.3819 -0.6172
  387MOL0     N52162  10.096   1.921   7.085 -0.3444 -0.1485  1.1407
  387MOL0     C52163   9.795   2.129   6.034 -0.3488 -0.8443 -0.8721
  387MOL0     C52164   9.894   2.044   5.978  1.2434 -0.0720  0.1107
  387MOL0     C52165  10.167   1.686   5.953  0.4535 -0.4734  0.1259
  387MOL0     C52166  10.148   1.664   5.818 -0.1949  0.6388 -0.1934
  387MOL0     C52167  10.235   1.582   5.747 -0.7236 -0.4094  1.0826
  387MOL0     C52168  10.340   1.513   5.808 -0.1696  0.4068 -0.6479
  387MOL0     O52169  10.404   1.426   5.715 -0.1588  0.2106 -1.0313
  387MOL0     C52170  10.528   1.368   5.764 -0.6138 -0.6133  0.1042
  387MOL0     C52171  10.643   1.469   5.786 -0.3883 -0.8025  0.6824
  387MOL0     C52172  10.774   1.405   5.833 -0.1954 -0.1225  0.2232
  387MOL0     C52173  10.902   1.466   5.770  0.0907  0.0574  0.3736
  387MOL0     C52174  10.917   1.465   5.620 -0.1483  0.2988 -0.5698
  387MOL0     C52175  10.923   1.469   5.497 -0.0472  0.4050 -0.4764
  387MOL0     C52176  10.366   1.528   5.947 -0.0133 -0.0121  0.3724
  387MOL0     C52177  10.278   1.625   6.015 -0.4311 -0.1895  0.6545
  387MOL0     H52178   9.747   1.742   6.048  1.8991 -0.1622 -1.2153
  387MOL0     H52179   9.563   1.893   6.121  1.0161 -1.4954  0.1141
  387MOL0     H52180   9.706   2.322   6.194 -1.2086  1.4070 -1.5509
  387MOL0     H52181   9.545   2.327   6.237  0.1078  0.1729 -0.4124
  387MOL0     H52182   9.612   2.261   6.434  0.4539  3.0157 -3.2095
  387MOL0     H52183   9.552   2.113   6.381 -0.1494  0.5352  2.2884
  387MOL0     H52184   9.736   2.012   6.392 -0.5796  0.5976  1.8568
  387MOL0     H52185   9.842   2.147   6.324  0.4857  0.1791 -0.4454
  387MOL0     H52186   9.886   2.242   6.539 -0.7382  0.4452  4.2215
  387MOL0     H52187   9.754   2.162   6.617  0.2447 -3.1296 -0.1396
  387MOL0     H52188   9.875   1.941   6.586  0.2399 -0.2653  0.7071
  387MOL0     H52189   9.981   2.023   6.474 -3.5577  5.4109 -2.5417
  387MOL0     H52190  10.109   2.134   6.640 -0.7046  1.3236  1.0772
  387MOL0     H52191   9.985   2.140   6.760  0.1135  0.6503 -0.9629
  387MOL0     H52192  10.112   1.884   6.671  0.6101  2.6539 -2.0921
  387MOL0     H52193  10.183   1.993   6.798  1.2394 -0.5891 -1.6371
  387MOL0     H52194  10.061   1.770   6.878 -0.4653  0.6464  2.6155
  387MOL0     H52195   9.914   1.847   6.832  0.7930 -1.8671  0.4509
  387MOL0     H52196   9.801   1.993   6.989 -0.6023 -1.9215  0.6378
  387MOL0     H52197   9.867   2.024   7.368 -0.7634 -0.3995  0.7259
  387MOL0     H52198   9.804   2.136   7.248  0.0612 -0.2844 -3.3955
  387MOL0     H52199   9.694   1.899   7.160  0.2638  0.9954 -0.5879
  387MOL0     H52200   9.618   2.018   7.283  0.2769  1.4065 -0.5245
  387MOL0     H52201   9.715   1.856   7.471 -1.1927  0.3252  0.9875
  387MOL0     H52202   9.807   1.781   7.347  1.3196  0.2923  2.2235
  387MOL0     H52203   9.565   1.649   7.406  1.1250  0.1904  1.5877
  387MOL0     H52204   9.590   1.704   7.231  0.3002 -0.8227 -0.1941
  387MOL0     H52205   9.260   1.943   7.326  3.0591 -1.5756 -1.1840
  387MOL0     H52206   8.926   1.885   7.391  0.6900 -3.5825  0.5431
  387MOL0     H52207   9.040   1.992   7.296  3.4256 -2.1136  0.4086
  387MOL0     H52208   8.922   1.893   7.219  0.0369 -0.8626 -0.1515
  387MOL0     H52209   8.862   1.323   7.590 -0.8948  0.0669  1.4969
  387MOL0     H52210   8.688   1.142   7.576  2.1888 -2.0226  0.3828
  387MOL0     H52211   8.564   0.964   7.545  0.4538  0.7277  0.8872
  387MOL0     H52212   8.459   1.109   7.561 -2.4000 -0.6334 -0.7462
  387MOL0     H52213   8.290   0.982   7.418 -0.3499  0.3924  1.1492
  387MOL0     H52214   8.402   0.865   7.376 -1.9359  0.2592 -0.9807
  387MOL0     H52215   8.282   0.888   7.655 -0.3261 -2.3098  2.1200
  387MOL0     H52216   8.431   0.813   7.641 -0.0790 -2.0928  0.0379
  387MOL0     H52217   8.168   0.712   7.526 -1.0165 -1.6423  1.3160
  387MOL0     H52218   8.324   0.670   7.452 -0.9353  1.8472 -1.2368
  387MOL0     H52219   8.220   0.610   7.726  0.7877  2.6229 -0.2697
  387MOL0     H52220   8.390   0.584   7.685 -1.2330 -1.0944  0.8757
  387MOL0     H52221   8.225   0.374   7.675  0.4793 -1.2617 -1.1872
  387MOL0     H52222   8.170   0.437   7.520  0.9451 -3.2238 -1.0748
  387MOL0     H52223   8.453   0.393   7.614  0.4262 -0.4827  0.9810
  387MOL0     H52224   8.419   0.410   7.449  3.4908 -0.9386  0.9941
  387MOL0     H52225   8.355   0.172   7.633 -1.1990 -0.0701 -0.3725
  387MOL0     H52226   8.486   0.175   7.519 -0.1340  0.2134 -0.1547
  387MOL0     H52227   8.598   1.232   7.172  0.4569 -1.1615  0.2360
  387MOL0     H52228   8.764   1.424   7.187 -1.7207  2.0034  1.2670
  387MOL0     H52229   9.181   1.461   7.359  0.2362  0.8201  1.4311
  387MOL0     H52230   9.396   1.544   7.367 -1.2962 -1.7540 -1.1342
  387MOL0     H52231   9.818   2.235   6.039 -3.1232 -0.2421  1.7553
  387MOL0     H52232   9.991   2.086   5.951  1.1734 -0.8152 -1.3522
  387MOL0     H52233  10.077   1.720   5.758  1.3752  3.9004  0.7373
  387MOL0     H52234  10.216   1.562   5.642  0.6922 -0.3828  0.8032
  387MOL0     H52235  10.508   1.314   5.857 -0.0426 -0.3737  0.3690
  387MOL0     H52236  10.563   1.292   5.693  2.6189  0.8553 -0.0275
  387MOL0     H52237  10.617   1.546   5.859  1.7762 -0.8257  1.5614
  387MOL0     H52238  10.652   1.528   5.694 -4.2204 -1.4613 -0.3039
  387MOL0     H52239  10.767   1.297   5.819 -1.3103  0.2143 -2.3529
  387MOL0     H52240  10.772   1.425   5.941 -1.5563  0.2513  0.1514
  387MOL0     H52241  10.988   1.409   5.806 -0.2145 -0.1539  0.7797
  387MOL0     H52242  10.920   1.569   5.801 -0.4341  0.3419 -0.2410
  387MOL0     H52243  10.935   1.449   5.392 -0.8149 -2.1233 -0.1528
  387MOL0     H52244  10.445   1.466   5.987 -0.5955 -1.8493 -1.1914
  387MOL0     H52245  10.298   1.651   6.119  5.5061  4.0496 -1.0842
  388MOL0     O52246   7.047   4.656   6.055  0.2374  0.2359 -0.4182
  388MOL0     C52247   7.011   4.769   6.027 -0.5310 -0.4861  0.1368
  388MOL0     O52248   6.890   4.814   6.036  0.4074 -0.3973  0.6448
  388MOL0     C52249   6.770   4.748   6.056 -0.4220 -0.8050 -0.5874
  388MOL0     C52250   6.751   4.607   6.050 -0.0522  0.4867 -0.4120
  388MOL0     C52251   6.625   4.554   6.069 -0.2730  0.6611 -0.6363
  388MOL0     C52252   6.512   4.631   6.099  0.3591  0.0945  0.2294
  388MOL0     O52253   6.385   4.582   6.130 -0.3879  0.2213  0.6762
  388MOL0     C52254   6.370   4.440   6.146  1.1480  0.0291 -0.4388
  388MOL0     C52255   6.226   4.407   6.194  0.0332 -0.5926 -0.3400
  388MOL0     C52256   6.233   4.256   6.230 -0.6814 -0.2935  1.2466
  388MOL0     C52257   6.103   4.172   6.220 -0.1702 -1.0667 -0.7902
  388MOL0     C52258   6.124   4.023   6.258  0.8781 -0.4476  0.1954
  388MOL0     C52259   5.990   3.947   6.241  0.0769  0.6640 -0.4418
  388MOL0     C52260   5.980   3.815   6.298 -1.6419  0.4073  0.1440
  388MOL0     C52261   5.955   3.803   6.448 -0.2826 -0.1711 -0.5172
  388MOL0     N52262   5.817   3.846   6.487  0.3821  0.5272  0.1528
  388MOL0     C52263   5.727   3.765   6.552  1.4544 -0.2843 -0.2490
  388MOL0     C52264   5.635   3.856   6.600  0.2195  0.3858  0.2821
  388MOL0     C52265   5.537   3.826   6.703 -1.2369 -0.8255  0.1726
  388MOL0     C52266   5.428   3.737   6.645  0.1171  0.8444 -0.3783
  388MOL0     C52267   5.326   3.710   6.758 -0.2110 -0.6378  0.6138
  388MOL0     C52268   5.237   3.587   6.730  0.9365  0.7742  0.5958
  388MOL0     O52269   5.302   3.472   6.771 -0.8887 -0.6565 -0.1590
  388MOL0     C52270   5.227   3.361   6.787 -0.4608 -0.2848  0.5463
  388MOL0     C52271   5.256   3.249   6.707 -0.5111  0.2150 -0.0206
  388MOL0     C52272   5.185   3.132   6.708  0.0119  1.0775 -0.5177
  388MOL0     C52273   5.220   3.032   6.598  0.8973 -0.7688 -0.2204
  388MOL0     C52274   5.077   3.114   6.811 -0.3365 -0.5383  0.8105
  388MOL0     C52275   4.986   2.996   6.811  0.3122 -0.0585  0.6602
  388MOL0     O52276   4.868   3.009   6.886  0.3819 -0.4983 -0.3407
  388MOL0     C52277   4.763   2.919   6.890  0.1186  0.4958  0.2688
  388MOL0     C52278   4.666   2.946   6.987  0.5543  0.6309  0.0045
  388MOL0     C52279   4.549   2.864   7.004  0.4960  0.2382 -0.2076
  388MOL0     C52280   4.526   2.750   6.935 -0.5171  0.3358  0.5786
  388MOL0     O52281   4.410   2.676   6.940  0.5277  0.2215 -0.0609
  388MOL0     C52282   4.282   2.745   6.986 -0.0040  0.1816 -0.5779
  388MOL0     C52283   4.149   2.678   6.936 -0.5416  0.4373  0.3122
  388MOL0     C52284   4.143   2.530   6.992 -0.0385 -0.2202  0.9361
  388MOL0     C52285   4.107   2.518   7.146  0.0535  0.4575 -0.1772
  388MOL0     C52286   4.058   2.373   7.177  0.3872  0.3905 -0.4259
  388MOL0     C52287   4.181   2.277   7.180  0.0288  0.3144 -0.4915
  388MOL0     C52288   4.275   2.317   7.296 -0.1879  0.7009  0.2313
  388MOL0     C52289   4.357   2.189   7.344 -1.3719 -0.4723  0.5830
  388MOL0    Cl52290   4.449   2.118   7.214 -0.1492  0.4139 -0.4130
  388MOL0     C52291   4.613   2.723   6.831 -1.1028  0.0377 -0.8151
  388MOL0     C52292   4.723   2.806   6.803 -1.1921 -0.0293 -0.5766
  388MOL0     O52293   5.027   2.888   6.760  0.3739  0.1810 -0.3351
  388MOL0     C52294   5.057   3.221   6.894  0.7945 -0.7472  0.4424
  388MOL0     C52295   5.140   3.338   6.897 -1.0262 -1.0594  0.2926
  388MOL0     N52296   5.673   3.986   6.562 -0.6566 -0.3906  0.0905
  388MOL0     N52297   5.775   3.978   6.494  0.2158  0.4637  1.1100
  388MOL0     C52298   6.529   4.768   6.122 -0.0821  0.2565  0.1034
  388MOL0     C52299   6.656   4.827   6.086 -0.2595  0.0637  1.2225
  388MOL0     C52300   7.112   4.867   5.982 -0.2086 -0.0002 -0.0791
  388MOL0     C52301   7.093   5.004   5.993  0.2164  0.7549  0.4672
  388MOL0     C52302   7.186   5.095   5.952  0.3276 -0.3422 -0.2027
  388MOL0     C52303   7.299   5.066   5.879  0.2772  0.8194  0.0637
  388MOL0     O52304   7.400   5.154   5.828  0.1272 -0.8156  0.0050
  388MOL0     C52305   7.375   5.293   5.829  0.5042 -0.1568  0.1876
  388MOL0     C52306   7.450   5.384   5.732  0.1510  0.1125 -0.5772
  388MOL0     C52307   7.427   5.535   5.758 -0.2082 -1.4975  0.2191
  388MOL0     C52308   7.539   5.619   5.693  0.0117 -0.4267  0.0994
  388MOL0     C52309   7.498   5.638   5.553 -0.0290 -0.0599  0.5269
  388MOL0     C52310   7.449   5.636   5.446 -0.4219  0.5062  0.5622
  388MOL0     C52311   7.322   4.927   5.862  0.0581 -0.5926  0.0126
  388MOL0     C52312   7.237   4.825   5.919  0.0120  0.4546 -0.3207
  388MOL0     H52313   6.826   4.533   6.022 -0.7891 -1.7875  2.9442
  388MOL0     H52314   6.618   4.445   6.067  0.8025  0.5931 -2.1289
  388MOL0     H52315   6.385   4.387   6.051 -0.3707  1.4039 -1.5019
  388MOL0     H52316   6.446   4.404   6.216  0.9238 -3.2492 -1.6817
  388MOL0     H52317   6.201   4.457   6.288  0.4603 -0.1332 -0.4669
  388MOL0     H52318   6.154   4.411   6.112  0.8227 -1.1334 -1.0867
  388MOL0     H52319   6.305   4.205   6.164  0.3585 -1.0906  2.9406
  388MOL0     H52320   6.273   4.251   6.331  2.2740 -0.0149  0.1951
  388MOL0     H52321   6.038   4.225   6.292  0.9456 -4.1842  2.8767
  388MOL0     H52322   6.061   4.164   6.120 -2.5421 -0.8104  0.1174
  388MOL0     H52323   6.209   3.987   6.199 -0.7506  1.2280 -3.4833
  388MOL0     H52324   6.157   4.017   6.362  1.9549 -0.0243 -0.1077
  388MOL0     H52325   5.910   4.001   6.292  1.0744 -0.4527  2.4588
  388MOL0     H52326   5.959   3.945   6.136 -1.8708  1.1271  0.0963
  388MOL0     H52327   5.902   3.758   6.247 -0.2716 -2.0708  0.6456
  388MOL0     H52328   6.081   3.772   6.290 -1.9253  0.0616 -2.9757
  388MOL0     H52329   6.019   3.876   6.499  1.2544 -3.8130  3.4026
  388MOL0     H52330   5.982   3.705   6.488 -1.2277 -0.2913 -0.1443
  388MOL0     H52331   5.728   3.658   6.574  0.5173 -0.4781 -1.0887
  388MOL0     H52332   5.590   3.784   6.789 -3.3454  1.7068  2.9785
  388MOL0     H52333   5.499   3.924   6.735  0.2598 -0.3007  0.4119
  388MOL0     H52334   5.468   3.638   6.624 -0.3523  0.8745 -1.4976
  388MOL0     H52335   5.389   3.781   6.553 -0.8887  2.9922  0.9966
  388MOL0     H52336   5.257   3.795   6.766  1.3665  0.9022 -1.2581
  388MOL0     H52337   5.379   3.678   6.848 -0.7473 -4.0923 -0.1465
  388MOL0     H52338   5.225   3.585   6.621 -2.6791  0.0761  0.8740
  388MOL0     H52339   5.142   3.591   6.785  1.5221 -2.1166  2.0062
  388MOL0     H52340   5.326   3.257   6.624  0.9342 -3.9208  0.5672
  388MOL0     H52341   5.313   3.051   6.544 -0.0836  2.1087 -1.0714
  388MOL0     H52342   5.239   2.938   6.652  0.5878 -0.2822  0.7703
  388MOL0     H52343   5.130   3.012   6.539 -0.3194 -2.2645  1.9881
  388MOL0     H52344   4.667   3.034   7.050  1.7745 -0.0032  0.9141
  388MOL0     H52345   4.480   2.897   7.081  0.7001  2.2640 -0.8337
  388MOL0     H52346   4.278   2.750   7.096 -2.6201  2.7497 -0.6489
  388MOL0     H52347   4.273   2.843   6.938  1.1266 -1.5675 -4.7387
  388MOL0     H52348   4.063   2.736   6.972 -0.9865 -0.2027  0.3007
  388MOL0     H52349   4.133   2.672   6.828 -0.6014  2.1325  0.2087
  388MOL0     H52350   4.231   2.469   6.970 -1.2812 -1.6141 -0.3972
  388MOL0     H52351   4.063   2.480   6.935  1.6697 -1.3491 -0.5978
  388MOL0     H52352   4.187   2.551   7.213  2.8704 -2.7647 -1.6482
  388MOL0     H52353   4.022   2.584   7.167  0.2835  1.5957 -2.4552
  388MOL0     H52354   3.990   2.331   7.102  0.1213  0.7368 -0.3855
  388MOL0     H52355   4.000   2.369   7.269 -0.2060 -1.4381 -0.8395
  388MOL0     H52356   4.150   2.176   7.207  1.4868 -0.2710 -0.9171
  388MOL0     H52357   4.242   2.267   7.089  0.3915  0.5949 -0.2804
  388MOL0     H52358   4.233   2.360   7.388  1.1828 -2.0181  2.2582
  388MOL0     H52359   4.347   2.389   7.257 -1.0288  0.9444 -0.9472
  388MOL0     H52360   4.280   2.116   7.374 -0.6313 -2.3406 -1.8128
  388MOL0     H52361   4.425   2.211   7.426 -1.1532 -1.4834  0.6924
  388MOL0     H52362   4.599   2.636   6.768  2.1321 -1.9172  0.8473
  388MOL0     H52363   4.789   2.787   6.720 -0.6745 -5.0636  0.6133
  388MOL0     H52364   4.978   3.232   6.967  1.6586 -1.2605  1.4941
  388MOL0     H52365   5.126   3.420   6.967 -0.1010  1.4822 -2.2951
  388MOL0     H52366   6.450   4.827   6.166  0.0098  1.5710 -1.4170
  388MOL0     H52367   6.672   4.932   6.106  0.0791 -0.5182  4.6761
  388MOL0     H52368   7.005   5.026   6.051 -1.9103 -0.6114 -2.0192
  388MOL0     H52369   7.170   5.194   5.995  0.3533 -1.4196  2.4982
  388MOL0     H52370   7.267   5.298   5.809  0.6338  0.8366 -0.3006
  388MOL0     H52371   7.387   5.331   5.931 -1.2416 -0.4154  0.5319
  388MOL0     H52372   7.432   5.361   5.626  0.8427  0.7515 -0.8429
  388MOL0     H52373   7.556   5.368   5.751  0.4410  2.6410  0.3294
  388MOL0     H52374   7.433   5.561   5.864 -2.7130 -1.5665  0.4343
  388MOL0     H52375   7.321   5.556   5.737  0.6257  1.1538 -1.9752
  388MOL0     H52376   7.640   5.579   5.703 -0.0763 -0.2175  2.5750
  388MOL0     H52377   7.537   5.717   5.742 -1.3554 -0.6328  0.5145
  388MOL0     H52378   7.401   5.623   5.352  0.5616  1.2349 -0.0589
  388MOL0     H52379   7.415   4.909   5.809  2.2376  4.6762  1.4687
  388MOL0     H52380   7.262   4.720   5.908 -1.7551 -0.3753  2.3864
  389MOL0     O52381   4.257   5.711   3.030  0.3118  0.8526  0.3317
  389MOL0     C52382   4.350   5.665   2.962 -0.1000 -0.0640  0.3379
  389MOL0     O52383   4.339   5.584   2.851  0.1570  0.2762 -0.3386
  389MOL0     C52384   4.210   5.574   2.794 -0.0047  0.2820  0.0635
  389MOL0     C52385   4.081   5.588   2.858 -0.7645 -1.0023 -0.3395
  389MOL0     C52386   3.962   5.579   2.787 -0.3448  0.6156  0.6047
  389MOL0     C52387   3.968   5.553   2.650  0.7582  0.6434  0.1198
  389MOL0     O52388   3.853   5.563   2.574  0.0108  0.5331  0.4226
  389MOL0     C52389   3.842   5.461   2.471  0.9848  0.1450  0.6145
  389MOL0     C52390   3.698   5.417   2.447 -0.7078  0.5409  1.1005
  389MOL0     C52391   3.657   5.288   2.523 -0.4303  0.1620 -0.5545
  389MOL0     C52392   3.546   5.222   2.441 -0.8326  0.4865  0.4480
  389MOL0     C52393   3.508   5.077   2.494 -0.1651 -0.3151 -0.0059
  389MOL0     C52394   3.411   5.004   2.402  0.2108 -0.4243 -0.4169
  389MOL0     C52395   3.462   4.979   2.265 -0.8666  0.8566  0.1710
  389MOL0     C52396   3.418   4.857   2.194  0.4272 -0.0731 -0.1903
  389MOL0     N52397   3.273   4.842   2.173 -0.6626 -0.1144  0.4976
  389MOL0     C52398   3.189   4.775   2.258  0.2864 -0.0185  0.4631
  389MOL0     C52399   3.071   4.793   2.188 -1.0560 -0.6895 -0.2663
  389MOL0     C52400   2.934   4.736   2.222 -2.1831 -0.3115  0.2494
  389MOL0     C52401   2.833   4.852   2.246  0.2941  0.7773  0.1937
  389MOL0     C52402   2.689   4.797   2.268  0.0920 -0.3273  0.2375
  389MOL0     C52403   2.675   4.707   2.396  0.7601 -0.0469 -0.2416
  389MOL0     O52404   2.548   4.650   2.397  0.1494 -0.1694  0.0172
  389MOL0     C52405   2.536   4.536   2.472 -1.0443 -0.5605  1.0361
  389MOL0     C52406   2.624   4.481   2.567 -0.3351  0.6509 -0.1127
  389MOL0     C52407   2.607   4.355   2.630  0.7588  0.8055  0.2376
  389MOL0     C52408   2.722   4.293   2.715 -0.0216 -0.5854 -0.1414
  389MOL0     C52409   2.491   4.279   2.603  0.4864 -0.0735 -0.8227
  389MOL0     C52410   2.458   4.141   2.653 -0.4245  0.4115  0.9671
  389MOL0     O52411   2.401   4.053   2.566 -0.3625  0.7659 -0.4659
  389MOL0     C52412   2.405   3.915   2.603 -0.0777 -0.2213  0.9139
  389MOL0     C52413   2.504   3.832   2.530  0.0933 -0.1582 -0.9123
  389MOL0     C52414   2.530   3.704   2.582 -0.5903 -0.7833 -0.0334
  389MOL0     C52415   2.462   3.653   2.699 -0.2975 -0.1959  0.0147
  389MOL0     O52416   2.481   3.539   2.772 -0.4192  0.4055 -0.5738
  389MOL0     C52417   2.554   3.426   2.717  0.6875  0.1183  1.0068
  389MOL0     C52418   2.685   3.402   2.797  0.2343 -0.7690  0.0143
  389MOL0     C52419   2.800   3.496   2.764 -0.5023 -0.5290  0.0020
  389MOL0     C52420   2.862   3.482   2.623 -0.9958 -0.5198  0.0632
  389MOL0     C52421   2.915   3.620   2.576  0.5398  0.5189  0.3335
  389MOL0     C52422   2.864   3.649   2.427  0.2560  0.8072  0.2222
  389MOL0     C52423   2.906   3.784   2.374 -0.3185 -0.2687  0.4243
  389MOL0     C52424   3.055   3.778   2.331 -0.6954 -0.5031 -0.0601
  389MOL0    Cl52425   3.109   3.932   2.254  0.1333  0.1793 -0.0788
  389MOL0     C52426   2.366   3.731   2.752  0.1293  0.4845  0.0004
  389MOL0     C52427   2.338   3.864   2.714 -0.4793 -0.4405  0.1432
  389MOL0     O52428   2.484   4.120   2.770  0.0866  0.1554  0.1654
  389MOL0     C52429   2.403   4.334   2.502  0.7087 -1.2060  0.5012
  389MOL0     C52430   2.426   4.460   2.444  0.9205  0.1736 -0.2127
  389MOL0     N52431   3.093   4.861   2.078  0.3176  0.4742  1.5808
  389MOL0     N52432   3.214   4.879   2.057 -0.1846  0.4128  0.4735
  389MOL0     C52433   4.095   5.531   2.585 -0.0333  0.6881 -0.6344
  389MOL0     C52434   4.215   5.554   2.658  0.4081 -0.2628 -0.0292
  389MOL0     C52435   4.480   5.675   3.024 -0.0615  0.3204  0.1129
  389MOL0     C52436   4.497   5.678   3.157  0.3129 -0.6172 -0.1726
  389MOL0     C52437   4.621   5.663   3.219 -0.7744 -0.0575  0.1869
  389MOL0     C52438   4.739   5.654   3.142 -1.3531  0.5091  0.5563
  389MOL0     O52439   4.859   5.648   3.201 -0.4110  0.1283 -0.4427
  389MOL0     C52440   4.967   5.601   3.123  0.5340  0.6451 -0.0164
  389MOL0     C52441   5.081   5.549   3.211 -0.3974  0.5559 -0.0204
  389MOL0     C52442   5.144   5.655   3.302  0.2902  0.1942 -0.1932
  389MOL0     C52443   5.275   5.602   3.363  0.8380  0.7064 -0.6606
  389MOL0     C52444   5.264   5.489   3.459  0.0381 -0.2258  0.6616
  389MOL0     C52445   5.256   5.401   3.547  0.6973 -0.1596 -0.1724
  389MOL0     C52446   4.720   5.657   3.004  0.2208  0.3880 -1.1497
  389MOL0     C52447   4.597   5.670   2.948 -0.0444  0.4485  1.1381
  389MOL0     H52448   4.055   5.595   2.963 -1.0153  2.9022 -0.5119
  389MOL0     H52449   3.867   5.612   2.829 -1.0082  0.8531 -0.9948
  389MOL0     H52450   3.892   5.484   2.376 -1.3910 -0.5952 -0.9086
  389MOL0     H52451   3.900   5.377   2.510  0.2513 -0.1346  1.1162
  389MOL0     H52452   3.631   5.498   2.479 -1.1130  0.0163  1.5823
  389MOL0     H52453   3.686   5.410   2.338  0.2405  0.1666  1.0139
  389MOL0     H52454   3.740   5.222   2.547 -0.2629  1.1012  1.6807
  389MOL0     H52455   3.604   5.318   2.614  0.5507 -0.8266  0.3677
  389MOL0     H52456   3.455   5.282   2.449 -2.7141 -2.0198 -0.7648
  389MOL0     H52457   3.575   5.222   2.335 -1.2423 -2.0752  0.2526
  389MOL0     H52458   3.602   5.024   2.511 -0.2198 -0.8486 -1.2646
  389MOL0     H52459   3.469   5.089   2.595  1.5449  0.2444  0.6185
  389MOL0     H52460   3.379   4.907   2.442 -1.2752 -0.2011 -0.9789
  389MOL0     H52461   3.320   5.065   2.401 -0.4546 -1.3890 -1.8811
  389MOL0     H52462   3.421   5.053   2.194  0.3504  0.0614 -1.4094
  389MOL0     H52463   3.569   5.001   2.259 -0.9778  1.1570 -1.1324
  389MOL0     H52464   3.443   4.769   2.254  0.3364 -0.3019 -0.4844
  389MOL0     H52465   3.468   4.862   2.097  3.4800 -0.1885  1.2548
  389MOL0     H52466   3.209   4.722   2.351  2.4022  2.3668  1.4926
  389MOL0     H52467   2.898   4.674   2.140 -1.8052 -1.6700  1.0746
  389MOL0     H52468   2.948   4.676   2.313 -1.9545 -0.5565  0.0535
  389MOL0     H52469   2.829   4.919   2.159 -1.9719  0.6210  0.1103
  389MOL0     H52470   2.865   4.904   2.337  0.2891 -1.9425  1.8480
  389MOL0     H52471   2.656   4.749   2.175  1.2928 -2.3000  0.7658
  389MOL0     H52472   2.622   4.881   2.287 -1.0219 -0.4167 -2.7337
  389MOL0     H52473   2.677   4.769   2.486  1.5592 -0.6459  0.1677
  389MOL0     H52474   2.745   4.622   2.395  1.9439  0.8955  0.2013
  389MOL0     H52475   2.718   4.531   2.588  0.4206 -1.5687  2.3764
  389MOL0     H52476   2.784   4.213   2.674 -1.9597 -1.8113 -0.8285
  389MOL0     H52477   2.786   4.372   2.755 -2.0694  0.3399  1.5610
  389MOL0     H52478   2.664   4.254   2.800  2.0928 -1.8678  0.7842
  389MOL0     H52479   2.553   3.885   2.449  0.4449  1.8754  0.5795
  389MOL0     H52480   2.614   3.647   2.543 -2.0462 -1.2750 -2.6781
  389MOL0     H52481   2.493   3.336   2.731 -0.7686  0.6799 -1.2223
  389MOL0     H52482   2.572   3.439   2.611 -2.4422 -0.9777  0.2143
  389MOL0     H52483   2.674   3.392   2.905 -1.6261 -0.7108 -0.1282
  389MOL0     H52484   2.720   3.302   2.772 -1.2299 -1.0264 -1.2054
  389MOL0     H52485   2.881   3.504   2.838  0.9540  2.5185 -1.7120
  389MOL0     H52486   2.753   3.594   2.776 -1.3356 -1.0465  1.1041
  389MOL0     H52487   2.927   3.397   2.599 -2.0344 -1.0930 -0.8328
  389MOL0     H52488   2.781   3.465   2.552 -1.2372 -1.4037  0.5306
  389MOL0     H52489   3.023   3.608   2.587  0.5212 -1.2485 -0.8591
  389MOL0     H52490   2.877   3.703   2.637 -0.1749 -0.8260  1.8129
  389MOL0     H52491   2.889   3.571   2.354  1.0406  1.2992 -0.0390
  389MOL0     H52492   2.755   3.652   2.424  0.2157  1.6814  1.7066
  389MOL0     H52493   2.876   3.871   2.433 -2.2662 -0.2824 -0.4711
  389MOL0     H52494   2.860   3.796   2.276  2.6993  0.9890 -0.9724
  389MOL0     H52495   3.093   3.701   2.264 -0.0183  0.8819 -1.3265
  389MOL0     H52496   3.111   3.767   2.425 -0.7406 -2.2119 -0.2103
  389MOL0     H52497   2.306   3.696   2.835 -1.9237  1.7506 -0.8617
  389MOL0     H52498   2.266   3.925   2.769  0.0389 -0.4212  0.8127
  389MOL0     H52499   2.307   4.286   2.487 -0.0699  0.3317  0.3814
  389MOL0     H52500   2.348   4.494   2.376 -0.4043 -1.3057  0.5069
  389MOL0     H52501   4.100   5.509   2.479 -4.2569  0.4620 -0.9298
  389MOL0     H52502   4.305   5.545   2.598 -0.4679 -2.2837 -1.1506
  389MOL0     H52503   4.408   5.680   3.218  0.8121 -2.0163  0.6495
  389MOL0     H52504   4.620   5.661   3.327 -0.0139  1.2519  0.2403
  389MOL0     H52505   4.932   5.524   3.054 -1.4689  1.7872 -0.3595
  389MOL0     H52506   5.006   5.681   3.060  1.4687 -1.3700 -2.1254
  389MOL0     H52507   5.164   5.516   3.148  3.8332  1.8359  4.2458
  389MOL0     H52508   5.032   5.469   3.268  0.1129  0.9052  0.9270
  389MOL0     H52509   5.069   5.680   3.378  1.2258 -2.0667  1.6026
  389MOL0     H52510   5.173   5.745   3.247  3.3688 -2.9880 -4.4563
  389MOL0     H52511   5.322   5.682   3.421  1.8880  0.7524 -1.5419
  389MOL0     H52512   5.342   5.583   3.279  1.5855  1.5734 -0.2742
  389MOL0     H52513   5.248   5.334   3.630  0.9733  0.9553  0.7871
  389MOL0     H52514   4.806   5.650   2.938 -0.4885  0.3523 -2.1005
  389MOL0     H52515   4.580   5.670   2.841  3.7590  4.0868  0.3085
  390MOL0     O52516   8.253   8.212   0.967  0.0381  0.3476 -0.1361
  390MOL0     C52517   8.337   8.157   1.038 -0.0019 -0.2412 -1.2732
  390MOL0     O52518   8.368   8.024   1.032 -0.0290 -1.0171 -0.1482
  390MOL0     C52519   8.340   7.957   0.919 -0.2515  0.3533 -0.7356
  390MOL0     C52520   8.446   7.954   0.826  0.2760  0.7226  0.1268
  390MOL0     C52521   8.433   7.880   0.706  0.3909  0.4501 -0.3075
  390MOL0     C52522   8.314   7.817   0.672 -0.6538  0.7550  0.5618
  390MOL0     O52523   8.297   7.740   0.563  0.2262  0.3443 -0.0752
  390MOL0     C52524   8.232   7.805   0.449 -0.9881  0.0335  1.0724
  390MOL0     C52525   8.090   7.751   0.419 -0.0874  0.2091  0.0302
  390MOL0     C52526   8.086   7.600   0.412  0.7936  0.0385  0.5453
  390MOL0     C52527   7.943   7.555   0.365 -0.1618  0.5464 -0.1239
  390MOL0     C52528   7.910   7.408   0.378  1.0470  0.7206  0.5443
  390MOL0     C52529   7.864   7.380   0.524 -0.4263  0.8049  0.8294
  390MOL0     C52530   7.825   7.228   0.539 -0.0070 -0.5721 -0.5703
  390MOL0     C52531   7.920   7.152   0.628  0.4864 -0.1089  0.4165
  390MOL0     N52532   8.056   7.143   0.570  0.6933  0.0170 -1.4402
  390MOL0     C52533   8.170   7.214   0.609 -0.0955 -0.3881  0.7705
  390MOL0     C52534   8.263   7.165   0.524 -0.7187  0.9365  0.1565
  390MOL0     C52535   8.412   7.202   0.520 -0.7333  0.2466  0.4412
  390MOL0     C52536   8.445   7.348   0.571  0.4247  0.5688  0.1608
  390MOL0     C52537   8.588   7.396   0.545  0.4787  0.6955 -0.8257
  390MOL0     C52538   8.634   7.537   0.588  0.7923  0.7022 -0.0851
  390MOL0     O52539   8.593   7.549   0.730  0.2385 -0.2477  0.0488
  390MOL0     C52540   8.650   7.651   0.799 -0.3181  0.0659 -0.0474
  390MOL0     C52541   8.745   7.752   0.753  1.1780  0.0192  0.1798
  390MOL0     C52542   8.792   7.860   0.828 -0.2945  0.1130 -0.0026
  390MOL0     C52543   8.871   7.962   0.764 -0.0509 -1.1715  0.5961
  390MOL0     C52544   8.756   7.851   0.967 -1.1328 -0.4652 -0.0685
  390MOL0     C52545   8.784   7.969   1.066 -0.0757  0.4277  0.5517
  390MOL0     O52546   8.826   8.084   1.016 -1.5617 -0.7221  0.6338
  390MOL0     C52547   8.871   8.172   1.116 -0.6222  0.6173  1.1105
  390MOL0     C52548   8.986   8.145   1.202  1.2299  0.4524 -0.0236
  390MOL0     C52549   9.015   8.237   1.305 -0.1192 -0.0919  0.5173
  390MOL0     C52550   8.947   8.365   1.300 -0.3920  0.3073 -0.3495
  390MOL0     O52551   8.986   8.466   1.385  0.0750  0.4125  0.0067
  390MOL0     C52552   8.996   8.433   1.521  0.0783  0.2997 -0.3548
  390MOL0     C52553   9.138   8.477   1.555  0.2801 -0.8187  0.2777
  390MOL0     C52554   9.169   8.453   1.701 -0.4875  0.4334 -0.2362
  390MOL0     C52555   9.176   8.300   1.739 -0.1914 -0.6809 -0.5590
  390MOL0     C52556   9.240   8.295   1.878 -0.3140 -0.0130 -0.0922
  390MOL0     C52557   9.271   8.163   1.931  0.5712  0.4788 -0.2544
  390MOL0     C52558   9.396   8.099   1.873 -0.3870 -0.1103  0.9695
  390MOL0     C52559   9.425   7.979   1.959 -0.4701  0.1271 -0.1063
  390MOL0    Cl52560   9.546   7.867   1.888  0.1498 -0.1923 -0.0360
  390MOL0     C52561   8.847   8.398   1.209 -0.1478  0.3390  1.1477
  390MOL0     C52562   8.805   8.299   1.120 -0.1074 -1.3940  0.5430
  390MOL0     O52563   8.763   7.946   1.184  0.4580  0.2662  0.4466
  390MOL0     C52564   8.671   7.746   1.013  0.1862  0.6390 -0.4922
  390MOL0     C52565   8.622   7.645   0.934 -0.1170 -0.1535  0.3520
  390MOL0     N52566   8.213   7.073   0.445 -0.4010  0.5643  0.4074
  390MOL0     N52567   8.084   7.067   0.462  0.9692 -0.5149  0.7294
  390MOL0     C52568   8.222   7.802   0.778  0.6911 -0.0801  0.5302
  390MOL0     C52569   8.228   7.873   0.890  0.6683  0.5768 -0.6220
  390MOL0     C52570   8.410   8.237   1.145 -0.0644 -0.8010 -0.2767
  390MOL0     C52571   8.383   8.373   1.160 -0.0303 -0.5685 -0.6251
  390MOL0     C52572   8.444   8.457   1.255  0.6000  0.4060 -0.3268
  390MOL0     C52573   8.539   8.400   1.336 -0.1702  0.3994 -0.5161
  390MOL0     O52574   8.611   8.469   1.430  0.1899 -0.4069 -0.4663
  390MOL0     C52575   8.616   8.613   1.414  0.2801  0.2861 -0.0470
  390MOL0     C52576   8.674   8.680   1.532  0.1641 -0.8321  0.1558
  390MOL0     C52577   8.692   8.829   1.522  0.0870 -0.3435  0.4608
  390MOL0     C52578   8.827   8.865   1.455 -0.5123  1.2589  0.3520
  390MOL0     C52579   8.939   8.824   1.532 -0.6138 -0.4938  0.5379
  390MOL0     C52580   9.033   8.826   1.602 -0.3771  0.7981 -0.5203
  390MOL0     C52581   8.567   8.261   1.324 -0.0463  0.2017 -0.5495
  390MOL0     C52582   8.513   8.183   1.234  0.2301  0.5910 -0.4023
  390MOL0     H52583   8.534   8.018   0.830 -0.0294  1.2510 -1.1060
  390MOL0     H52584   8.517   7.887   0.639 -0.4509  0.6144 -1.3739
  390MOL0     H52585   8.215   7.911   0.468 -3.1995  0.2930 -1.7015
  390MOL0     H52586   8.283   7.803   0.352 -1.1485 -0.0284  0.9896
  390MOL0     H52587   8.010   7.787   0.486 -1.8759  0.0729 -1.9312
  390MOL0     H52588   8.058   7.779   0.319 -3.0246 -0.2388  0.7321
  390MOL0     H52589   8.168   7.554   0.356  0.1562  0.6966 -0.9870
  390MOL0     H52590   8.098   7.567   0.515  3.4224  0.0622  0.3184
  390MOL0     H52591   7.872   7.627   0.405  2.7194  3.0128  0.9960
  390MOL0     H52592   7.951   7.566   0.256  1.7577  1.2263  0.0448
  390MOL0     H52593   7.817   7.396   0.321 -0.3671  1.9614  2.4515
  390MOL0     H52594   7.988   7.342   0.338 -0.4610 -0.5550 -0.4310
  390MOL0     H52595   7.950   7.402   0.588  0.8630  0.7051 -0.8004
  390MOL0     H52596   7.781   7.450   0.541 -1.8322 -0.0806 -1.9318
  390MOL0     H52597   7.725   7.222   0.581  0.9775  1.5409  2.4186
  390MOL0     H52598   7.846   7.188   0.439  2.4681  2.0934 -1.2631
  390MOL0     H52599   7.879   7.053   0.650  0.5926 -0.0973  0.6734
  390MOL0     H52600   7.927   7.189   0.731 -2.3762 -0.9319  1.0169
  390MOL0     H52601   8.178   7.305   0.666 -1.9121  0.0832  0.3349
  390MOL0     H52602   8.468   7.131   0.581  0.1666 -2.1169 -2.9240
  390MOL0     H52603   8.451   7.193   0.419 -1.0452 -1.2752  0.4422
  390MOL0     H52604   8.425   7.359   0.678  2.2052 -2.8657  0.9987
  390MOL0     H52605   8.387   7.418   0.510  2.4018 -0.5884 -3.3333
  390MOL0     H52606   8.609   7.373   0.441  2.2715 -0.5444 -0.2323
  390MOL0     H52607   8.655   7.335   0.607 -1.5170  1.1797  2.0459
  390MOL0     H52608   8.579   7.609   0.527 -0.8881  1.0415  1.7020
  390MOL0     H52609   8.742   7.538   0.575  1.0113 -0.0087  1.4944
  390MOL0     H52610   8.774   7.750   0.649  1.9066 -0.0718  0.3790
  390MOL0     H52611   8.828   8.062   0.758  0.1021 -1.1811 -2.6670
  390MOL0     H52612   8.973   7.966   0.804 -0.5939  2.3511  2.0011
  390MOL0     H52613   8.883   7.933   0.659 -3.0516 -2.6604  0.5598
  390MOL0     H52614   9.040   8.051   1.200 -2.9306 -2.2098 -2.8824
  390MOL0     H52615   9.092   8.206   1.376  1.9895 -0.2191 -1.7029
  390MOL0     H52616   8.932   8.506   1.571  2.0183  1.7515  0.1611
  390MOL0     H52617   8.969   8.331   1.548  2.6878 -0.1386  0.9879
  390MOL0     H52618   9.204   8.427   1.484 -2.0226 -3.6484 -0.0663
  390MOL0     H52619   9.154   8.583   1.533  0.9280 -1.0316 -0.2977
  390MOL0     H52620   9.119   8.524   1.768  2.0787 -0.6485  3.1379
  390MOL0     H52621   9.272   8.489   1.706 -0.9500  1.6739  0.9586
  390MOL0     H52622   9.077   8.253   1.743 -0.4510 -0.0691  2.4623
  390MOL0     H52623   9.234   8.249   1.661  1.5570  0.7392 -0.2573
  390MOL0     H52624   9.166   8.335   1.948 -1.1507  2.3926 -2.1833
  390MOL0     H52625   9.331   8.356   1.874 -0.3872  0.0313 -1.9484
  390MOL0     H52626   9.286   8.179   2.039 -1.2266  4.0793 -0.4040
  390MOL0     H52627   9.191   8.089   1.918 -0.1517  0.4049  3.3579
  390MOL0     H52628   9.477   8.169   1.896 -0.6697  0.0133  1.6136
  390MOL0     H52629   9.389   8.073   1.767  1.9886 -1.8792  1.1673
  390MOL0     H52630   9.338   7.915   1.972  1.7267 -2.6229  2.6619
  390MOL0     H52631   9.451   8.023   2.056 -1.0216 -0.1825  0.1820
  390MOL0     H52632   8.802   8.496   1.196 -1.3459 -0.4081 -0.8632
  390MOL0     H52633   8.724   8.317   1.051 -1.7750  1.9582  3.0584
  390MOL0     H52634   8.641   7.743   1.117 -0.0362  2.5781 -0.4749
  390MOL0     H52635   8.549   7.571   0.966  0.7780 -1.1563  0.1222
  390MOL0     H52636   8.142   7.730   0.771  0.2739  0.4768 -4.0887
  390MOL0     H52637   8.152   7.847   0.964 -0.6103 -0.3603 -2.2115
  390MOL0     H52638   8.300   8.413   1.103 -0.4105  0.0515  0.3357
  390MOL0     H52639   8.400   8.555   1.273 -1.5408 -0.5758  0.0275
  390MOL0     H52640   8.682   8.635   1.329 -0.3061  0.6902 -0.4054
  390MOL0     H52641   8.518   8.656   1.395 -1.8673 -3.9068  0.3210
  390MOL0     H52642   8.772   8.638   1.560 -0.3231 -1.1502  1.4681
  390MOL0     H52643   8.597   8.651   1.604  0.0092 -2.1958 -0.5258
  390MOL0     H52644   8.688   8.864   1.626 -0.7855  3.0269 -0.5804
  390MOL0     H52645   8.611   8.876   1.465  0.9050  5.1142  3.1173
  390MOL0     H52646   8.829   8.973   1.439 -1.9540  1.3426  0.6209
  390MOL0     H52647   8.821   8.811   1.360 -2.0023  0.6412  0.7779
  390MOL0     H52648   9.123   8.826   1.661 -0.6275  0.9604 -0.1341
  390MOL0     H52649   8.644   8.220   1.388  3.2862  1.4566 -3.4316
  390MOL0     H52650   8.551   8.082   1.225  4.4010  1.9596 -0.4025
  391MOL0     O52651   9.358   8.795   1.802  0.2763  0.5516 -0.0801
  391MOL0     C52652   9.309   8.895   1.860  0.2860  0.0917 -1.2450
  391MOL0     O52653   9.338   9.025   1.827  0.3461  0.6889  0.3347
  391MOL0     C52654   9.445   9.033   1.743  0.3990  0.0966  0.8060
  391MOL0     C52655   9.429   9.058   1.605 -1.0773  0.3555  0.6064
  391MOL0     C52656   9.532   9.070   1.513 -0.5083  0.7930  0.2730
  391MOL0     C52657   9.665   9.051   1.558  0.3589  0.6284 -1.0743
  391MOL0     O52658   9.776   9.066   1.470  0.5494  0.1985  0.4848
  391MOL0     C52659   9.912   9.092   1.513 -0.5235 -1.0202 -0.2592
  391MOL0     C52660  10.025   9.034   1.423  0.6202  0.7254 -0.1255
  391MOL0     C52661  10.164   9.101   1.441  1.0537 -0.2584  0.2430
  391MOL0     C52662  10.255   9.070   1.318 -0.3255  0.2641 -0.5136
  391MOL0     C52663  10.393   9.138   1.325  0.3911  0.5047 -0.4316
  391MOL0     C52664  10.384   9.273   1.247  0.6597 -0.4511 -0.6457
  391MOL0     C52665  10.517   9.359   1.265 -0.4887 -0.2448 -0.0385
  391MOL0     C52666  10.506   9.481   1.178 -0.3207 -0.4882  0.0680
  391MOL0     N52667  10.633   9.545   1.142  1.0197 -0.0445  0.7936
  391MOL0     C52668  10.714   9.605   1.233  0.2185  0.1313 -1.6161
  391MOL0     C52669  10.838   9.611   1.188 -0.1459  0.7943  0.3335
  391MOL0     C52670  10.964   9.672   1.242 -0.4094  0.2903  0.3725
  391MOL0     C52671  11.031   9.561   1.327  0.1292 -0.4716 -0.1367
  391MOL0     C52672  11.151   9.610   1.408  0.1673  0.6300  0.1782
  391MOL0     C52673  11.212   9.492   1.477  0.3915 -0.0684 -1.2861
  391MOL0     O52674  11.120   9.445   1.573 -0.3929 -0.5657 -1.0308
  391MOL0     C52675  11.136   9.343   1.661  0.5286 -0.1376 -0.0687
  391MOL0     C52676  11.028   9.313   1.738  0.0871  0.0415  0.6066
  391MOL0     C52677  11.027   9.209   1.835 -0.3401  0.5662  0.3608
  391MOL0     C52678  10.897   9.200   1.916  0.3945 -0.4499 -0.5091
  391MOL0     C52679  11.147   9.135   1.853  0.1745 -0.4241 -0.3214
  391MOL0     C52680  11.157   9.042   1.964 -0.7341 -0.2073 -0.9887
  391MOL0     O52681  11.248   8.938   1.947  0.2080 -0.5716  0.7098
  391MOL0     C52682  11.256   8.844   2.045  0.0302 -0.4284 -0.2252
  391MOL0     C52683  11.369   8.823   2.123 -0.1895 -1.1000 -0.4185
  391MOL0     C52684  11.373   8.723   2.222  0.1568  0.2023 -0.6153
  391MOL0     C52685  11.258   8.646   2.247 -0.1199  0.3790  0.7396
  391MOL0     O52686  11.268   8.552   2.348 -0.1535 -0.5186 -0.6554
  391MOL0     C52687  11.150   8.467   2.376 -0.4575 -0.3544 -0.3746
  391MOL0     C52688  11.197   8.365   2.474  0.1558  0.4774  0.5645
  391MOL0     C52689  11.117   8.231   2.500  0.5312  0.5589  0.0260
  391MOL0     C52690  10.973   8.273   2.542 -0.1407  0.1855  0.7586
  391MOL0     C52691  10.865   8.164   2.520 -0.5508 -0.0633  0.4985
  391MOL0     C52692  10.901   8.036   2.604  0.5613  0.2210  0.7702
  391MOL0     C52693  10.795   7.931   2.581  0.8801  0.2977 -0.5265
  391MOL0     C52694  10.844   7.814   2.660  0.6498  0.9678 -0.3201
  391MOL0    Cl52695  11.003   7.748   2.607  0.4125 -0.4331  0.1457
  391MOL0     C52696  11.145   8.657   2.158  0.0539 -0.2102  0.1176
  391MOL0     C52697  11.145   8.758   2.057 -0.6574 -0.4714  0.2671
  391MOL0     O52698  11.108   9.078   2.071 -0.0101 -0.3242 -0.0642
  391MOL0     C52699  11.251   9.166   1.771  0.3222 -0.3119  0.7417
  391MOL0     C52700  11.250   9.272   1.673  0.0377  0.4413 -0.7422
  391MOL0     N52701  10.825   9.560   1.067  0.1099 -0.0736  0.0079
  391MOL0     N52702  10.706   9.514   1.038 -0.4634  0.3226 -0.2962
  391MOL0     C52703   9.679   9.017   1.696 -0.2340  0.4949  0.6800
  391MOL0     C52704   9.569   9.005   1.789 -1.5941  0.3262 -0.5158
  391MOL0     C52705   9.231   8.864   1.986  1.3354 -0.3186 -0.0685
  391MOL0     C52706   9.230   8.745   2.064  0.0916  0.3661 -0.2778
  391MOL0     C52707   9.160   8.731   2.187 -0.9449 -0.0929 -0.2863
  391MOL0     C52708   9.093   8.846   2.226  0.7214  0.1786  0.0980
  391MOL0     O52709   9.023   8.838   2.347 -0.3234 -0.3356 -0.6448
  391MOL0     C52710   9.099   8.844   2.468 -0.1695 -0.4593  0.3042
  391MOL0     C52711   9.039   8.754   2.584 -0.0765  0.2759  1.5228
  391MOL0     C52712   9.037   8.827   2.724  0.2551 -0.2987 -0.2329
  391MOL0     C52713   8.963   8.758   2.836 -0.5022 -0.0179 -0.4463
  391MOL0     C52714   9.001   8.618   2.834 -0.5131 -0.4942 -0.4914
  391MOL0     C52715   9.035   8.508   2.826 -0.8231  0.3230  0.1541
  391MOL0     C52716   9.079   8.958   2.157 -0.2267  0.3201  0.0488
  391MOL0     C52717   9.153   8.970   2.036  0.1091 -0.4913 -1.3587
  391MOL0     H52718   9.323   9.067   1.582 -0.7863 -0.5244 -1.2488
  391MOL0     H52719   9.513   9.094   1.409 -1.2052  1.6604  0.5877
  391MOL0     H52720   9.923   9.200   1.528 -0.8578 -1.0692  0.4146
  391MOL0     H52721   9.923   9.066   1.619 -0.8719  1.8095  0.5432
  391MOL0     H52722  10.034   8.927   1.446 -1.2045  0.2017 -1.6029
  391MOL0     H52723   9.982   9.048   1.324  0.2306  0.3582 -0.0132
  391MOL0     H52724  10.141   9.207   1.436 -1.7722 -0.7689  0.8016
  391MOL0     H52725  10.197   9.069   1.540 -1.4531 -1.4389  0.7866
  391MOL0     H52726  10.279   8.964   1.305  1.0334  0.3658  0.8507
  391MOL0     H52727  10.208   9.099   1.224  0.7080  0.6558 -0.9228
  391MOL0     H52728  10.423   9.151   1.429  0.2060  1.4096 -0.4897
  391MOL0     H52729  10.474   9.078   1.280 -0.2904  0.4405 -1.6273
  391MOL0     H52730  10.371   9.255   1.140 -1.8302 -1.2704 -0.2530
  391MOL0     H52731  10.295   9.326   1.281  1.6383  2.0969 -1.7667
  391MOL0     H52732  10.539   9.375   1.371 -3.2154 -2.9500  1.0786
  391MOL0     H52733  10.598   9.297   1.226  0.4899  1.6895 -1.2705
  391MOL0     H52734  10.446   9.552   1.237  0.0846  1.3915 -1.6642
  391MOL0     H52735  10.454   9.456   1.085  1.1611 -1.3551 -0.5474
  391MOL0     H52736  10.671   9.639   1.327  0.0747 -1.5447 -1.0340
  391MOL0     H52737  11.017   9.707   1.153 -0.9188  0.7974  0.2650
  391MOL0     H52738  10.955   9.768   1.294  2.3650 -0.3330  2.2002
  391MOL0     H52739  11.066   9.482   1.260  1.9523  0.1573  0.0453
  391MOL0     H52740  10.951   9.520   1.390 -1.2461  3.1459  0.7024
  391MOL0     H52741  11.113   9.689   1.473  2.9374  3.1772 -1.0631
  391MOL0     H52742  11.240   9.641   1.353 -0.1311  2.0950  0.4878
  391MOL0     H52743  11.299   9.524   1.536  1.3420 -2.7201 -1.0858
  391MOL0     H52744  11.239   9.422   1.397  2.6931  1.9520 -2.3983
  391MOL0     H52745  10.934   9.365   1.726  1.2449  2.1632  0.1630
  391MOL0     H52746  10.884   9.096   1.947 -0.6591 -0.6847 -1.6680
  391MOL0     H52747  10.906   9.255   2.010  1.7817 -2.6618  0.7467
  391MOL0     H52748  10.804   9.234   1.870  0.2448  0.2556  0.2742
  391MOL0     H52749  11.451   8.891   2.107 -0.5934 -0.7750 -1.1295
  391MOL0     H52750  11.468   8.711   2.273  0.3727  2.0595 -0.4972
  391MOL0     H52751  11.074   8.536   2.414 -0.4488  0.3996 -1.6762
  391MOL0     H52752  11.120   8.421   2.281  3.0707 -1.2121 -1.2075
  391MOL0     H52753  11.300   8.338   2.451 -0.1705 -0.4622  0.1441
  391MOL0     H52754  11.204   8.409   2.574 -1.2256 -4.3841  3.1137
  391MOL0     H52755  11.172   8.174   2.575  0.7247 -0.0778 -0.5927
  391MOL0     H52756  11.104   8.168   2.411  0.7995 -0.6003  0.7923
  391MOL0     H52757  10.968   8.311   2.644  1.4389  2.2593  0.1296
  391MOL0     H52758  10.931   8.353   2.480  0.5937 -1.3581 -1.8735
  391MOL0     H52759  10.875   8.139   2.414 -1.0312 -1.5537  0.7855
  391MOL0     H52760  10.767   8.201   2.549 -0.1025 -1.4017  4.3093
  391MOL0     H52761  11.001   8.010   2.569  0.4532  2.1556 -1.2501
  391MOL0     H52762  10.906   8.068   2.708  1.1457 -0.4006  0.9421
  391MOL0     H52763  10.816   7.917   2.474  0.9591  2.6949 -0.8724
  391MOL0     H52764  10.694   7.968   2.602 -0.3085 -2.2281 -1.3977
  391MOL0     H52765  10.778   7.728   2.657  1.2011  0.4402  1.4813
  391MOL0     H52766  10.859   7.835   2.766  1.6547  0.2317 -0.2983
  391MOL0     H52767  11.058   8.593   2.170  0.6375 -1.3170 -1.2861
  391MOL0     H52768  11.055   8.772   1.998 -2.1604 -2.3190  1.9992
  391MOL0     H52769  11.348   9.118   1.778 -0.2864 -1.4135  2.2004
  391MOL0     H52770  11.342   9.299   1.623 -0.9078  2.6830 -1.4232
  391MOL0     H52771   9.778   8.995   1.736  1.5432 -1.5316 -4.0905
  391MOL0     H52772   9.586   8.995   1.895 -0.0634  1.0310 -0.6728
  391MOL0     H52773   9.288   8.659   2.031 -1.5356 -0.1451 -1.9359
  391MOL0     H52774   9.186   8.649   2.253  2.6085  1.3903  0.4109
  391MOL0     H52775   9.198   8.805   2.443 -0.8072 -3.6085  2.1652
  391MOL0     H52776   9.111   8.948   2.497 -1.6903 -0.6524  1.7272
  391MOL0     H52777   9.107   8.669   2.592  1.0405  1.1141  1.1339
  391MOL0     H52778   8.935   8.725   2.562 -1.4019  4.2994  1.7131
  391MOL0     H52779   8.992   8.926   2.733 -1.4801 -1.2717  3.5397
  391MOL0     H52780   9.139   8.838   2.762  0.5773 -1.2508 -0.7727
  391MOL0     H52781   8.856   8.752   2.817 -1.0015  1.3103  1.6029
  391MOL0     H52782   8.978   8.800   2.936  1.3923  1.0147 -1.1214
  391MOL0     H52783   9.079   8.412   2.810  0.5416  0.7717  1.0563
  391MOL0     H52784   9.029   9.048   2.192 -0.5764 -0.6186  2.0521
  391MOL0     H52785   9.147   9.069   1.991  2.1105  0.3243  0.0036
  392MOL0     O52786  11.056   6.134   9.251 -0.5648 -0.2984 -0.1326
  392MOL0     C52787  11.104   6.244   9.273  1.5557  0.2224  0.2402
  392MOL0     O52788  11.074   6.318   9.384 -0.3466  0.0660  0.5832
  392MOL0     C52789  10.976   6.282   9.477 -0.5964  0.2257  0.1790
  392MOL0     C52790  10.999   6.173   9.563 -0.9653 -1.5515 -0.4173
  392MOL0     C52791  10.907   6.149   9.655  0.2015  0.5756  0.0144
  392MOL0     C52792  10.792   6.226   9.670 -0.1359  0.1763  0.4194
  392MOL0     O52793  10.698   6.193   9.760 -0.1943  0.4063 -0.2200
  392MOL0     C52794  10.669   6.052   9.773 -0.6395  0.1680  0.1873
  392MOL0     C52795  10.555   6.022   9.873 -0.2804  1.2468  0.9683
  392MOL0     C52796  10.603   6.054  10.016  0.4464  0.1719 -0.9326
  392MOL0     C52797  10.525   5.981  10.134 -0.6883  0.3972  0.4079
  392MOL0     C52798  10.383   6.018  10.152  0.6086  1.1131 -0.5484
  392MOL0     C52799  10.322   5.946  10.275  0.4505  0.5162  0.3642
  392MOL0     C52800  10.382   5.976  10.422  0.7034  1.2107 -0.6772
  392MOL0     C52801  10.284   5.925  10.529 -0.1127 -0.4317 -0.0147
  392MOL0     N52802  10.166   6.001  10.537  0.2745 -0.0509 -0.1825
  392MOL0     C52803  10.158   6.137  10.563  0.0923  0.6748  0.0420
  392MOL0     C52804  10.025   6.169  10.578 -0.2368  0.1558  0.8440
  392MOL0     C52805   9.972   6.311  10.591 -0.6792 -0.2768  0.4984
  392MOL0     C52806   9.993   6.381  10.457 -0.5524 -0.1216  0.0526
  392MOL0     C52807   9.878   6.466  10.416 -0.0366 -0.9273  0.3868
  392MOL0     C52808   9.856   6.589  10.503  0.7230  1.0199  0.0251
  392MOL0     O52809   9.980   6.666  10.498 -0.5376  0.1994  0.0219
  392MOL0     C52810   9.978   6.786  10.553 -0.1171 -0.6808  0.5173
  392MOL0     C52811  10.098   6.857  10.548  0.7270  0.1052  0.5213
  392MOL0     C52812  10.118   6.987  10.600  0.0812 -0.1432 -0.2151
  392MOL0     C52813  10.267   7.041  10.578  0.7558  0.1125  1.0017
  392MOL0     C52814  10.009   7.048  10.671 -0.3775 -0.6268  0.3024
  392MOL0     C52815  10.018   7.176  10.744 -0.5213 -0.1832 -0.3355
  392MOL0     O52816  10.078   7.277  10.669  0.1232  0.3884  0.7108
  392MOL0     C52817  10.092   7.397  10.732 -0.2921  0.0662  0.5727
  392MOL0     C52818   9.988   7.476  10.772 -0.4371  0.3005 -0.2707
  392MOL0     C52819  10.017   7.590  10.853  0.0412  0.7531  0.1366
  392MOL0     C52820  10.152   7.635  10.883  0.2024  0.3661  0.5183
  392MOL0     O52821  10.178   7.748  10.958 -0.0409 -0.4898  0.1385
  392MOL0     C52822  10.278   7.750  11.056 -0.7491  0.6806  0.1792
  392MOL0     C52823  10.202   7.815  11.172 -0.5126  0.4372  0.8599
  392MOL0     C52824  10.110   7.711  11.231  0.1694  0.7199  0.0888
  392MOL0     C52825  10.050   7.762  11.366 -0.0551 -0.0946 -0.6326
  392MOL0     C52826   9.952   7.653  11.428  0.0578  0.4781  0.3930
  392MOL0     C52827   9.932   7.670  11.579 -0.0022 -0.0642  1.1427
  392MOL0     C52828   9.825   7.769  11.608  0.0954  0.5177 -0.0362
  392MOL0     C52829   9.825   7.821  11.749  0.6903 -0.2337 -0.3359
  392MOL0    Cl52830   9.814   7.690  11.867 -0.0517  0.4375  0.5696
  392MOL0     C52831  10.263   7.555  10.837 -0.4277  0.3068 -0.0981
  392MOL0     C52832  10.223   7.438  10.759 -0.0150 -0.3507  0.7191
  392MOL0     O52833   9.965   7.189  10.855  0.1744  0.6041  0.2825
  392MOL0     C52834   9.889   6.976  10.684 -0.1080 -0.1527 -0.1770
  392MOL0     C52835   9.876   6.852  10.622 -0.5489 -0.4772 -0.1379
  392MOL0     N52836   9.952   6.054  10.546 -0.1587 -0.5712 -0.2260
  392MOL0     N52837  10.044   5.953  10.539  0.1591 -0.2669 -0.2907
  392MOL0     C52838  10.767   6.336   9.592  0.6718  0.3218  0.2570
  392MOL0     C52839  10.863   6.365   9.491 -0.8576  0.4324  0.3223
  392MOL0     C52840  11.226   6.276   9.189  0.5389  0.3870 -0.3872
  392MOL0     C52841  11.318   6.379   9.231  0.2627  0.8098  0.2473
  392MOL0     C52842  11.439   6.401   9.157  0.7658  0.1628 -0.1831
  392MOL0     C52843  11.471   6.320   9.054  0.3147 -0.3095  0.6939
  392MOL0     O52844  11.581   6.348   8.977  0.9671 -0.2341  0.0320
  392MOL0     C52845  11.711   6.311   9.025 -0.3147  0.0127  0.7126
  392MOL0     C52846  11.795   6.438   9.056  0.9046  0.7305  0.7976
  392MOL0     C52847  11.896   6.459   8.936 -0.0610 -0.4303 -0.0717
  392MOL0     C52848  12.008   6.559   8.987  0.1677  1.1636 -0.6605
  392MOL0     C52849  11.969   6.696   8.944  0.1078  0.6181 -1.4844
  392MOL0     C52850  11.935   6.803   8.901 -0.1852 -0.6590 -1.3573
  392MOL0     C52851  11.376   6.228   9.004  0.4649 -0.5553  0.0292
  392MOL0     C52852  11.252   6.209   9.070 -0.0715  0.0840  0.1192
  392MOL0     H52853  11.091   6.114   9.569 -0.5524 -1.0199 -1.2855
  392MOL0     H52854  10.928   6.063   9.718  0.2652 -0.6894 -1.6514
  392MOL0     H52855  10.636   6.025   9.672 -0.9302  0.6253  0.1574
  392MOL0     H52856  10.749   5.991   9.814 -2.2717 -0.4754  2.6203
  392MOL0     H52857  10.459   6.063   9.842 -1.9974 -2.6507  0.5316
  392MOL0     H52858  10.530   5.916   9.861  2.3977  0.3432  2.3876
  392MOL0     H52859  10.701   6.007  10.029 -0.7662 -2.4044 -0.4605
  392MOL0     H52860  10.595   6.159  10.044 -1.7837 -1.1255  4.7059
  392MOL0     H52861  10.527   5.872  10.124 -1.9439  0.4202 -0.3351
  392MOL0     H52862  10.573   5.989  10.232  1.1583 -4.4347  0.1346
  392MOL0     H52863  10.373   6.125  10.173 -1.7920  1.0468 -1.1453
  392MOL0     H52864  10.320   5.986  10.069 -2.2741  1.4434  1.3705
  392MOL0     H52865  10.214   5.966  10.270  0.3464 -0.1523 -0.2142
  392MOL0     H52866  10.340   5.840  10.254 -0.2382  0.7021 -1.3967
  392MOL0     H52867  10.477   5.922  10.430 -1.0142 -1.9110  0.9138
  392MOL0     H52868  10.407   6.081  10.438  0.3224  0.9078  2.5371
  392MOL0     H52869  10.337   5.924  10.625 -1.6530  0.4321  0.8883
  392MOL0     H52870  10.266   5.822  10.498 -1.3488  0.1154 -1.2368
  392MOL0     H52871  10.236   6.211  10.549  1.9286 -1.1075  0.4302
  392MOL0     H52872   9.863   6.305  10.602 -0.5546 -0.2347  1.9794
  392MOL0     H52873  10.012   6.365  10.678 -2.0755 -1.2223  1.7735
  392MOL0     H52874  10.014   6.310  10.376  4.7585  0.8482  0.2075
  392MOL0     H52875  10.086   6.438  10.470 -1.1388  0.8917 -0.0900
  392MOL0     H52876   9.787   6.410  10.397  0.1745 -0.2116 -3.5817
  392MOL0     H52877   9.892   6.504  10.314 -2.5710  0.0126  0.3317
  392MOL0     H52878   9.817   6.556  10.600  1.2344  1.1068  0.2612
  392MOL0     H52879   9.775   6.642  10.452  1.4463 -0.3093 -2.6392
  392MOL0     H52880  10.184   6.810  10.503  0.5140 -2.3776  2.5023
  392MOL0     H52881  10.286   7.101  10.667 -1.3441 -1.4165  2.6111
  392MOL0     H52882  10.354   6.975  10.575  1.1645  0.5936 -3.3568
  392MOL0     H52883  10.266   7.103  10.488 -1.1345 -0.9530  0.2374
  392MOL0     H52884   9.883   7.454  10.759 -0.1280 -0.5724 -1.4086
  392MOL0     H52885   9.937   7.658  10.882 -1.1394 -1.1524  1.5324
  392MOL0     H52886  10.308   7.651  11.093  2.8191  1.1084 -1.1328
  392MOL0     H52887  10.370   7.798  11.021 -2.9333  1.8036 -4.9179
  392MOL0     H52888  10.268   7.836  11.257 -1.3436  0.5630  1.4894
  392MOL0     H52889  10.143   7.904  11.146  0.0731  0.9216  1.1516
  392MOL0     H52890  10.161   7.614  11.239  0.0235  0.7092  0.9307
  392MOL0     H52891  10.028   7.694  11.161 -0.1189 -0.1854  0.6341
  392MOL0     H52892  10.123   7.778  11.446 -0.5989 -1.8712  0.2746
  392MOL0     H52893  10.000   7.858  11.353  0.5328 -0.1589 -4.1518
  392MOL0     H52894  10.006   7.560  11.407  0.9979  1.1690 -0.3984
  392MOL0     H52895   9.861   7.656  11.367 -0.6089  1.0584  1.3953
  392MOL0     H52896   9.892   7.577  11.622 -3.5323  0.8641  0.1612
  392MOL0     H52897  10.018   7.702  11.638 -1.5339 -0.9330  4.0721
  392MOL0     H52898   9.728   7.725  11.584  0.1458  0.9187 -0.9970
  392MOL0     H52899   9.835   7.856  11.543  1.8888  1.4621  1.4012
  392MOL0     H52900   9.743   7.892  11.755 -1.1805 -2.2917 -0.2413
  392MOL0     H52901   9.922   7.868  11.771  1.1537 -0.0960 -2.4133
  392MOL0     H52902  10.366   7.582  10.858  0.4171 -2.8860  0.3462
  392MOL0     H52903  10.306   7.380  10.722  0.3628  0.9993 -0.6328
  392MOL0     H52904   9.816   7.004  10.760 -0.2951 -1.0383 -0.0162
  392MOL0     H52905   9.779   6.803  10.624 -1.4040  1.1454 -0.0721
  392MOL0     H52906  10.685   6.406   9.610 -0.0641  0.1968 -2.2477
  392MOL0     H52907  10.862   6.455   9.430 -1.7261  2.6126  3.3411
  392MOL0     H52908  11.290   6.449   9.308 -3.2703 -0.0900 -0.0731
  392MOL0     H52909  11.501   6.489   9.168 -0.8819  1.5638 -1.5715
  392MOL0     H52910  11.702   6.253   9.117  0.9277  0.7821  1.3386
  392MOL0     H52911  11.771   6.261   8.949  0.3752  0.6468  0.8340
  392MOL0     H52912  11.840   6.415   9.152 -1.5039  0.1698  1.8462
  392MOL0     H52913  11.738   6.529   9.077 -1.3462 -0.1231 -1.1463
  392MOL0     H52914  11.834   6.499   8.855  2.4221  1.4819 -1.1606
  392MOL0     H52915  11.957   6.372   8.910  3.3698  1.8781 -0.3705
  392MOL0     H52916  12.105   6.530   8.945  0.3676 -0.5658  0.8632
  392MOL0     H52917  12.033   6.557   9.094 -2.5897 -1.1998  0.0815
  392MOL0     H52918  11.902   6.892   8.851 -1.8274  0.3032  1.2296
  392MOL0     H52919  11.393   6.193   8.903 -2.5948 -0.7932 -0.5177
  392MOL0     H52920  11.188   6.143   9.012  1.2657 -0.0575 -1.2521
  393MOL0     O52921  11.250  11.322   3.538  0.6575  0.2170  0.7385
  393MOL0     C52922  11.144  11.271   3.571 -0.4044  1.4274  0.6483
  393MOL0     O52923  11.018  11.311   3.528 -0.6134 -0.2549  0.1811
  393MOL0     C52924  10.999  11.395   3.420  0.7516  1.2343  0.1043
  393MOL0     C52925  10.923  11.355   3.310  0.3015  0.4904 -0.9172
  393MOL0     C52926  10.908  11.446   3.206  0.5041  1.2942 -0.0080
  393MOL0     C52927  10.964  11.576   3.201 -0.6809  0.7375 -0.9070
  393MOL0     O52928  10.933  11.667   3.110 -0.6076  0.4619  1.1044
  393MOL0     C52929  10.940  11.801   3.140  0.1401  0.2445  0.0197
  393MOL0     C52930  10.803  11.855   3.130  0.6998 -0.8818  0.9140
  393MOL0     C52931  10.764  11.864   2.977  0.3865 -0.3180 -0.2951
  393MOL0     C52932  10.683  11.989   2.946  0.0816  0.3673 -0.9181
  393MOL0     C52933  10.637  11.997   2.801 -0.2824 -0.1124 -0.0737
  393MOL0     C52934  10.532  12.105   2.796  0.2636 -0.0639 -0.0410
  393MOL0     C52935  10.470  12.119   2.661 -1.3394 -1.0385 -0.9014
  393MOL0     C52936  10.379  12.232   2.631  0.7394 -0.2598 -0.8478
  393MOL0     N52937  10.233  12.195   2.655  0.7898  0.4750 -0.5139
  393MOL0     C52938  10.122  12.247   2.580 -0.1853  0.1490  0.5468
  393MOL0     C52939  10.020  12.209   2.653  0.1689  0.2171  0.4581
  393MOL0     C52940   9.884  12.242   2.609 -0.7695 -0.6617  0.5694
  393MOL0     C52941   9.817  12.366   2.679 -0.4947  0.3086 -0.0218
  393MOL0     C52942   9.898  12.496   2.650 -0.2294  0.1569  0.4249
  393MOL0     C52943   9.866  12.547   2.511  0.5547  0.6881  1.0161
  393MOL0     O52944   9.730  12.586   2.498  0.2548 -0.5147  0.1068
  393MOL0     C52945   9.635  12.521   2.417 -1.2280 -0.1585  0.7324
  393MOL0     C52946   9.523  12.594   2.405  1.2629  0.0109  0.1495
  393MOL0     C52947   9.405  12.559   2.338  0.0880 -0.5763 -0.1783
  393MOL0     C52948   9.281  12.660   2.338 -0.3325  0.0917  0.1246
  393MOL0     C52949   9.405  12.422   2.284 -0.1619 -0.4295  1.0577
  393MOL0     C52950   9.307  12.377   2.178 -0.4905 -0.3239 -0.4425
  393MOL0     O52951   9.316  12.247   2.118 -0.2798 -0.2300  0.1420
  393MOL0     C52952   9.221  12.212   2.021 -0.1611 -0.3650 -0.9565
  393MOL0     C52953   9.089  12.181   2.061 -0.2155  0.1058  0.4113
  393MOL0     C52954   8.994  12.137   1.980  0.0720 -0.2453 -0.2539
  393MOL0     C52955   9.027  12.096   1.850 -0.0404 -0.2429 -0.0348
  393MOL0     O52956   8.952  12.048   1.746  0.7428  0.2632 -0.6884
  393MOL0     C52957   8.814  12.024   1.775  0.6177 -0.2171 -0.1464
  393MOL0     C52958   8.762  11.917   1.687  0.1779 -0.2692 -0.5603
  393MOL0     C52959   8.636  11.842   1.719 -0.8253  0.3426  0.8493
  393MOL0     C52960   8.514  11.935   1.720  0.1515 -0.0408  0.0814
  393MOL0     C52961   8.392  11.847   1.708  0.0635 -0.6421 -0.3998
  393MOL0     C52962   8.372  11.770   1.580  0.7490  0.5470  0.4960
  393MOL0     C52963   8.226  11.716   1.586  1.0964  0.1153  0.8428
  393MOL0     C52964   8.173  11.621   1.694 -0.3235  0.3187 -0.8119
  393MOL0    Cl52965   8.048  11.509   1.640 -0.0115 -0.3261  0.2044
  393MOL0     C52966   9.164  12.126   1.812  1.0946  0.3828  0.2884
  393MOL0     C52967   9.258  12.190   1.892 -0.2998 -0.7111 -0.5592
  393MOL0     O52968   9.239  12.469   2.134  0.8885 -0.0955  0.4360
  393MOL0     C52969   9.524  12.344   2.297  0.4735  0.7242 -0.3581
  393MOL0     C52970   9.643  12.396   2.356 -0.6506 -0.1138  0.4648
  393MOL0     N52971  10.069  12.141   2.762 -0.0758  0.1621  0.3279
  393MOL0     N52972  10.193  12.117   2.758 -0.1044 -0.4889  0.7561
  393MOL0     C52973  11.039  11.610   3.320 -0.4233 -0.3864  0.5236
  393MOL0     C52974  11.055  11.520   3.422 -0.2165  0.0811  0.4723
  393MOL0     C52975  11.137  11.156   3.660 -0.5474 -0.6127  0.3467
  393MOL0     C52976  11.259  11.095   3.699 -0.2683 -0.5286  1.3489
  393MOL0     C52977  11.269  10.973   3.765 -0.0349  0.0870 -0.5805
  393MOL0     C52978  11.152  10.919   3.818 -0.5479  1.2931 -0.0798
  393MOL0     O52979  11.139  10.811   3.898 -0.2155  0.3601  0.1254
  393MOL0     C52980  11.257  10.731   3.914  0.1085  1.2717  0.1733
  393MOL0     C52981  11.222  10.600   4.000  0.6447 -0.2715 -0.1865
  393MOL0     C52982  11.346  10.550   4.056  0.8326 -0.2565 -0.4408
  393MOL0     C52983  11.328  10.410   4.115  1.0741  0.8146 -0.7701
  393MOL0     C52984  11.441  10.373   4.195  0.6450  0.1412 -1.0569
  393MOL0     C52985  11.524  10.321   4.261 -0.9473  0.5705  0.5888
  393MOL0     C52986  11.029  10.975   3.776 -0.9773  0.3123  0.2537
  393MOL0     C52987  11.022  11.090   3.698 -0.4258 -0.8404 -1.2718
  393MOL0     H52988  10.866  11.263   3.316  1.7443 -0.5061 -1.8506
  393MOL0     H52989  10.834  11.416   3.132 -0.0483  0.5340  0.8285
  393MOL0     H52990  10.961  11.822   3.245 -4.2852 -0.9763  1.3763
  393MOL0     H52991  11.013  11.856   3.081  0.3188 -0.8986 -0.8622
  393MOL0     H52992  10.725  11.805   3.187  0.5973 -0.3152  1.2802
  393MOL0     H52993  10.813  11.959   3.164  1.5925  0.7288 -3.5090
  393MOL0     H52994  10.859  11.878   2.924  1.7903  0.4375  2.2787
  393MOL0     H52995  10.710  11.775   2.943  0.3915 -0.1368 -0.7904
  393MOL0     H52996  10.607  12.010   3.022 -0.3263  0.0201 -1.2258
  393MOL0     H52997  10.753  12.071   2.964  1.7982 -1.7741  3.6709
  393MOL0     H52998  10.727  12.012   2.741  0.6627 -1.2256  1.0157
  393MOL0     H52999  10.591  11.899   2.782 -1.2194  0.0927  0.9877
  393MOL0     H53000  10.448  12.061   2.851  0.0338  0.2361 -0.1475
  393MOL0     H53001  10.563  12.200   2.841  1.5562 -0.4793 -0.0325
  393MOL0     H53002  10.555  12.128   2.592 -0.0166  3.1365  0.9162
  393MOL0     H53003  10.420  12.027   2.630 -1.3225 -0.3870 -3.0358
  393MOL0     H53004  10.399  12.273   2.531 -1.2854  0.9814 -0.7935
  393MOL0     H53005  10.390  12.315   2.701  1.2671 -1.7225  0.8703
  393MOL0     H53006  10.120  12.311   2.492 -0.2440  0.8438  1.0515
  393MOL0     H53007   9.878  12.251   2.500 -1.4789 -2.7840  0.3926
  393MOL0     H53008   9.822  12.154   2.629 -0.6673 -0.4198  2.1376
  393MOL0     H53009   9.809  12.339   2.785  2.3122 -1.6891 -0.2111
  393MOL0     H53010   9.717  12.377   2.635  0.3316  0.0789 -2.0822
  393MOL0     H53011  10.006  12.479   2.657  0.9725  4.0039 -3.7268
  393MOL0     H53012   9.872  12.581   2.713 -2.1365  1.2175 -1.6424
  393MOL0     H53013   9.902  12.468   2.444  0.2935 -0.3597  2.0751
  393MOL0     H53014   9.933  12.632   2.495  1.5146  0.2953  2.6578
  393MOL0     H53015   9.504  12.682   2.466  3.1132  2.0998 -2.0594
  393MOL0     H53016   9.272  12.704   2.238 -2.4745  0.7130  0.5358
  393MOL0     H53017   9.188  12.607   2.356  0.0752 -0.0844  1.9057
  393MOL0     H53018   9.293  12.740   2.412 -2.6859  1.8180 -1.2384
  393MOL0     H53019   9.077  12.181   2.169  1.9853 -4.8480  0.9245
  393MOL0     H53020   8.891  12.141   2.012  0.3242  4.1620  0.6040
  393MOL0     H53021   8.807  11.982   1.876  2.5957 -0.6331 -0.1394
  393MOL0     H53022   8.747  12.111   1.771  0.7288  0.0216  1.9731
  393MOL0     H53023   8.744  11.953   1.586 -0.8126 -1.7426 -0.9523
  393MOL0     H53024   8.846  11.847   1.679  1.3747  1.1151 -0.4079
  393MOL0     H53025   8.642  11.777   1.807 -1.2996 -1.5563 -0.4519
  393MOL0     H53026   8.636  11.766   1.640  3.4577  1.4086 -0.4854
  393MOL0     H53027   8.520  12.003   1.806  1.0144 -0.0940  0.0641
  393MOL0     H53028   8.506  12.001   1.633 -0.6735  0.9399  0.8690
  393MOL0     H53029   8.314  11.921   1.726  1.2955  0.4155  0.7800
  393MOL0     H53030   8.387  11.788   1.799 -1.6651  0.3945  0.2179
  393MOL0     H53031   8.386  11.831   1.491 -0.0407  2.0211  1.3490
  393MOL0     H53032   8.430  11.677   1.579  0.5289  0.3723  1.8849
  393MOL0     H53033   8.211  11.671   1.488  1.8194 -0.1733  0.8621
  393MOL0     H53034   8.153  11.796   1.596 -0.6140 -1.4098  1.1081
  393MOL0     H53035   8.144  11.692   1.772 -1.6043  0.4097 -1.3589
  393MOL0     H53036   8.258  11.565   1.733 -1.0348 -1.0739 -1.2144
  393MOL0     H53037   9.191  12.089   1.713 -0.6074 -4.0334  1.2426
  393MOL0     H53038   9.360  12.210   1.859 -0.1428 -1.5583 -0.6065
  393MOL0     H53039   9.542  12.247   2.253 -0.6344  1.2846 -2.1594
  393MOL0     H53040   9.737  12.344   2.363 -1.9092 -2.3658  1.6995
  393MOL0     H53041  11.095  11.701   3.338  3.8419 -2.7041  0.4677
  393MOL0     H53042  11.118  11.559   3.501 -1.7861  2.6572  0.5878
  393MOL0     H53043  11.358  11.131   3.670 -0.3358 -2.6703 -2.0566
  393MOL0     H53044  11.370  10.946   3.793  0.1434  0.8402 -0.4981
  393MOL0     H53045  11.287  10.695   3.816  1.0187 -0.3872  1.0066
  393MOL0     H53046  11.342  10.786   3.954 -0.2493  2.4692 -0.6846
  393MOL0     H53047  11.161  10.530   3.942 -2.0051  0.5129  1.4564
  393MOL0     H53048  11.155  10.631   4.081 -1.1930 -3.0566 -0.4719
  393MOL0     H53049  11.379  10.606   4.144 -1.0039  2.3971 -1.3055
  393MOL0     H53050  11.418  10.555   3.975 -0.0184 -0.8460 -1.2611
  393MOL0     H53051  11.322  10.337   4.034  0.5572 -0.9139  0.7645
  393MOL0     H53052  11.234  10.405   4.171 -1.2587  1.7698 -4.2248
  393MOL0     H53053  11.605  10.287   4.322  0.1458  0.2855 -0.9587
  393MOL0     H53054  10.934  10.930   3.801 -1.6668  0.7230 -1.5217
  393MOL0     H53055  10.927  11.132   3.666  0.1077  0.5950 -1.0529
  394MOL0     O53056   6.247   2.785   1.754 -0.5725  1.1329 -0.2823
  394MOL0     C53057   6.241   2.901   1.781  0.0839  0.3836  1.0866
  394MOL0     O53058   6.346   2.989   1.802 -0.3564 -0.1951  0.2549
  394MOL0     C53059   6.474   2.933   1.801 -0.1231 -0.3033  0.3905
  394MOL0     C53060   6.521   2.857   1.906  0.6361 -0.0286 -0.0453
  394MOL0     C53061   6.651   2.804   1.906 -0.4772 -0.1572  0.0137
  394MOL0     C53062   6.743   2.839   1.801  0.1548 -0.2188 -0.4665
  394MOL0     O53063   6.883   2.825   1.802  0.5097  0.0050 -0.3901
  394MOL0     C53064   6.946   2.776   1.921  1.6987 -1.1895  0.1881
  394MOL0     C53065   7.097   2.788   1.909 -0.3423 -0.4303  0.1523
  394MOL0     C53066   7.154   2.933   1.883 -0.2088  0.5363  0.1437
  394MOL0     C53067   7.302   2.939   1.909  0.5487 -0.0621  0.2294
  394MOL0     C53068   7.381   2.893   1.783  0.7233 -0.7108 -0.4248
  394MOL0     C53069   7.533   2.861   1.807 -0.8997 -0.4240 -0.1198
  394MOL0     C53070   7.600   2.817   1.679 -1.0411  1.0041 -0.4285
  394MOL0     C53071   7.584   2.914   1.553 -1.1802  0.2893  0.2623
  394MOL0     N53072   7.613   3.057   1.579  0.3210  0.3352 -0.1926
  394MOL0     C53073   7.688   3.106   1.684 -0.0696 -0.4438  0.0498
  394MOL0     C53074   7.671   3.242   1.665 -0.7023 -0.4020 -0.1467
  394MOL0     C53075   7.728   3.336   1.764  0.1751  0.7284  0.0956
  394MOL0     C53076   7.650   3.334   1.898  0.6181 -0.2674  0.7798
  394MOL0     C53077   7.495   3.341   1.885 -0.9634 -0.4713  0.1528
  394MOL0     C53078   7.440   3.471   1.821  0.0637 -0.0499 -0.1316
  394MOL0     O53079   7.299   3.469   1.804  0.3349 -0.0682  1.1902
  394MOL0     C53080   7.227   3.377   1.720 -0.3099  0.2472 -0.5798
  394MOL0     C53081   7.091   3.360   1.742 -0.4582 -0.3367  0.0925
  394MOL0     C53082   7.001   3.286   1.656 -1.3102  0.5726 -0.3146
  394MOL0     C53083   6.865   3.274   1.687  0.2627  0.4442 -0.6364
  394MOL0     C53084   7.063   3.201   1.551 -0.4172  0.3538  0.2449
  394MOL0     C53085   6.994   3.103   1.464 -0.3797  0.2032  0.2843
  394MOL0     O53086   7.052   2.983   1.460 -0.4184  0.7904 -0.5832
  394MOL0     C53087   6.979   2.881   1.412  0.3018 -0.5583 -0.3951
  394MOL0     C53088   6.937   2.875   1.280  0.1007 -0.3245  0.3694
  394MOL0     C53089   6.870   2.762   1.236  0.2742 -0.0759 -0.0126
  394MOL0     C53090   6.837   2.662   1.324 -0.2084  0.4692  1.1504
  394MOL0     O53091   6.757   2.563   1.280  0.0659  0.8877  0.5979
  394MOL0     C53092   6.669   2.519   1.384 -0.1248  1.5109 -0.3408
  394MOL0     C53093   6.548   2.453   1.328 -0.0214  0.0970 -0.0654
  394MOL0     C53094   6.440   2.428   1.433  0.1835  0.3309 -0.7418
  394MOL0     C53095   6.323   2.340   1.384 -0.3727 -0.2512 -0.2015
  394MOL0     C53096   6.209   2.306   1.489  0.3245 -0.0719 -0.3830
  394MOL0     C53097   6.108   2.187   1.456 -0.3990 -0.0187 -0.5140
  394MOL0     C53098   6.177   2.046   1.427  0.6166 -0.1080 -0.8544
  394MOL0     C53099   6.071   1.940   1.460  0.4465 -0.5954 -0.0618
  394MOL0    Cl53100   6.138   1.777   1.399 -0.2787 -0.1633  0.2537
  394MOL0     C53101   6.887   2.664   1.455  0.1656  1.0307  0.5829
  394MOL0     C53102   6.956   2.775   1.501 -0.6210  0.6918 -0.1856
  394MOL0     O53103   6.891   3.140   1.408 -0.4789  0.0070  0.1395
  394MOL0     C53104   7.198   3.218   1.531  0.0392 -0.2638 -0.6278
  394MOL0     C53105   7.273   3.305   1.607 -0.4046 -0.1402  1.0538
  394MOL0     N53106   7.609   3.269   1.545  1.2153  0.5471 -0.2681
  394MOL0     N53107   7.565   3.158   1.501  0.7876 -0.1996 -0.2670
  394MOL0     C53108   6.691   2.915   1.694 -0.1167 -0.2735  0.3201
  394MOL0     C53109   6.564   2.973   1.696  0.3668  0.5204 -0.4542
  394MOL0     C53110   6.106   2.955   1.799 -0.6274 -0.3505 -0.5831
  394MOL0     C53111   6.078   3.087   1.822  0.4896 -0.0232  0.9277
  394MOL0     C53112   5.952   3.140   1.829 -0.3336 -0.1960 -0.0782
  394MOL0     C53113   5.842   3.058   1.813  0.2651 -0.3818  0.3327
  394MOL0     O53114   5.728   3.126   1.815 -0.0161  0.1311 -0.6395
  394MOL0     C53115   5.605   3.051   1.824  0.3906 -0.0866 -0.4016
  394MOL0     C53116   5.485   3.152   1.816 -0.2930  0.5895  0.0754
  394MOL0     C53117   5.440   3.177   1.671 -0.4513  0.2483  0.3296
  394MOL0     C53118   5.501   3.296   1.603 -0.5859 -0.8972 -0.7965
  394MOL0     C53119   5.498   3.294   1.460  0.9805  0.2386  0.3038
  394MOL0     C53120   5.512   3.285   1.336 -0.1172 -0.8429 -0.2321
  394MOL0     C53121   5.865   2.920   1.777 -0.0703 -0.5540  0.0498
  394MOL0     C53122   5.999   2.871   1.776  0.7122 -0.6950 -0.2311
  394MOL0     H53123   6.456   2.844   1.992 -0.1498  1.1519 -0.4448
  394MOL0     H53124   6.686   2.735   1.982  4.4106  0.6004 -1.2071
  394MOL0     H53125   6.920   2.824   2.016 -1.0033 -0.4191 -0.8354
  394MOL0     H53126   6.909   2.672   1.925  0.3166 -0.7956 -1.2274
  394MOL0     H53127   7.135   2.759   2.007 -0.0872  0.3537  0.2882
  394MOL0     H53128   7.124   2.720   1.827  0.5053 -2.3989  1.9607
  394MOL0     H53129   7.136   2.956   1.778  3.0779 -0.9080 -0.9022
  394MOL0     H53130   7.122   3.004   1.960  3.5479  1.6286  0.9212
  394MOL0     H53131   7.332   3.042   1.933 -1.0375  0.6917 -0.8763
  394MOL0     H53132   7.318   2.883   2.001 -2.6588 -0.2421  0.7628
  394MOL0     H53133   7.337   2.803   1.739 -0.8112  0.5594 -1.5885
  394MOL0     H53134   7.370   2.978   1.715 -2.8909 -0.9449 -0.3253
  394MOL0     H53135   7.581   2.951   1.847 -1.1819  2.1021 -4.7413
  394MOL0     H53136   7.542   2.779   1.879  1.7547  0.0337  0.1800
  394MOL0     H53137   7.706   2.793   1.691 -1.3040 -1.2422 -2.0565
  394MOL0     H53138   7.559   2.721   1.647  0.1083 -0.0622  1.1306
  394MOL0     H53139   7.482   2.908   1.515 -0.4915  0.3032 -1.6848
  394MOL0     H53140   7.651   2.882   1.473 -1.4591  0.7251 -0.1476
  394MOL0     H53141   7.735   3.061   1.771  1.0595 -0.7361 -0.6890
  394MOL0     H53142   7.831   3.306   1.781 -0.1340 -0.0810  0.6132
  394MOL0     H53143   7.720   3.433   1.714 -2.1839 -1.0171 -3.3716
  394MOL0     H53144   7.697   3.410   1.962  2.2555  0.5045 -1.2172
  394MOL0     H53145   7.656   3.237   1.948 -3.6017 -0.5919  1.0497
  394MOL0     H53146   7.458   3.310   1.983  0.9188 -1.1757  0.6978
  394MOL0     H53147   7.479   3.253   1.822  0.3411 -2.3341  2.2826
  394MOL0     H53148   7.498   3.484   1.729  0.9569  3.0223  0.7535
  394MOL0     H53149   7.456   3.565   1.873 -3.7683  1.5787 -1.5281
  394MOL0     H53150   7.050   3.410   1.830 -1.8225 -0.2208 -0.5797
  394MOL0     H53151   6.802   3.313   1.606  1.4837  3.0064 -0.4297
  394MOL0     H53152   6.839   3.168   1.692  1.9612  0.0079 -0.6241
  394MOL0     H53153   6.837   3.325   1.779  1.0286  1.9450 -1.1913
  394MOL0     H53154   6.956   2.958   1.213  3.1746 -0.6253  0.7405
  394MOL0     H53155   6.831   2.758   1.135 -1.3442  2.6489  0.4182
  394MOL0     H53156   6.729   2.444   1.437  1.3024  0.7312 -2.9291
  394MOL0     H53157   6.636   2.609   1.437 -0.4203  2.7267 -2.4897
  394MOL0     H53158   6.507   2.517   1.249  3.8162  2.2096 -0.6363
  394MOL0     H53159   6.573   2.358   1.280  0.3755  0.9327 -1.6076
  394MOL0     H53160   6.400   2.527   1.455  0.6584  1.1063 -3.1508
  394MOL0     H53161   6.488   2.376   1.517  0.1553 -1.0969 -1.5731
  394MOL0     H53162   6.273   2.399   1.307 -3.4431 -0.1131  1.7382
  394MOL0     H53163   6.360   2.248   1.337  2.4048  0.6517  0.0489
  394MOL0     H53164   6.147   2.393   1.513  0.6512  0.0366  0.0899
  394MOL0     H53165   6.254   2.282   1.586 -3.1545 -2.1437  0.9129
  394MOL0     H53166   6.043   2.179   1.543  1.3576  0.3506  0.8935
  394MOL0     H53167   6.054   2.215   1.365  0.4390  0.1617 -0.9709
  394MOL0     H53168   6.266   2.020   1.485  0.0333  1.3256  0.8024
  394MOL0     H53169   6.212   2.041   1.324  0.9551 -0.5081 -0.7238
  394MOL0     H53170   5.979   1.953   1.402  1.9701  2.6937 -2.0241
  394MOL0     H53171   6.053   1.936   1.568  1.5267 -0.2789  0.1469
  394MOL0     H53172   6.873   2.576   1.517  0.2819 -0.1141 -0.9722
  394MOL0     H53173   7.000   2.770   1.601  0.4805 -0.9097 -0.6973
  394MOL0     H53174   7.249   3.171   1.447 -1.0254 -3.1029  0.1970
  394MOL0     H53175   7.382   3.310   1.602 -0.4245 -0.7180 -0.2316
  394MOL0     H53176   6.767   2.948   1.624 -0.2684  0.7780  0.6366
  394MOL0     H53177   6.544   3.052   1.624 -0.0536  0.3632 -0.5127
  394MOL0     H53178   6.159   3.159   1.814 -0.4648  0.9210 -0.8579
  394MOL0     H53179   5.934   3.247   1.831 -0.6205 -0.1646 -2.0375
  394MOL0     H53180   5.599   2.975   1.746 -2.5313  1.1986 -1.5547
  394MOL0     H53181   5.612   3.001   1.921  0.4799 -1.8512 -1.2808
  394MOL0     H53182   5.505   3.249   1.863 -1.7022  0.7293  0.4348
  394MOL0     H53183   5.401   3.112   1.874 -0.2839 -0.1252 -0.3940
  394MOL0     H53184   5.332   3.192   1.669 -0.2377  1.9648  0.3619
  394MOL0     H53185   5.456   3.079   1.626  3.6626 -0.0589  1.9691
  394MOL0     H53186   5.607   3.310   1.629 -0.9399  2.1863 -0.6256
  394MOL0     H53187   5.445   3.385   1.636  0.2651 -0.7955  0.4351
  394MOL0     H53188   5.523   3.282   1.229 -0.9136 -2.5945 -0.3013
  394MOL0     H53189   5.778   2.863   1.747 -2.4365  2.1098  1.3156
  394MOL0     H53190   6.027   2.771   1.746  0.1385 -0.2257 -2.5483
  395MOL0     O53191   7.724   0.881   3.900 -0.0409  0.1727  0.3835
  395MOL0     C53192   7.831   0.906   3.849 -0.3378 -0.0069  0.0904
  395MOL0     O53193   7.950   0.845   3.880 -0.1057  0.8322  0.3211
  395MOL0     C53194   7.947   0.724   3.948  0.1536 -0.8651 -0.2994
  395MOL0     C53195   7.997   0.597   3.896 -0.1802  0.6237  0.4414
  395MOL0     C53196   7.987   0.480   3.972 -0.0116  0.5327  0.2723
  395MOL0     C53197   7.949   0.483   4.106  0.5121 -0.0808  0.9256
  395MOL0     O53198   7.949   0.374   4.191 -0.8735 -0.8585 -0.2225
  395MOL0     C53199   8.016   0.254   4.150 -0.4316 -0.1234  0.3549
  395MOL0     C53200   8.000   0.139   4.242  0.5008  0.2251  0.1765
  395MOL0     C53201   8.109   0.031   4.235 -0.5293 -1.0067 -0.0763
  395MOL0     C53202   8.087  -0.090   4.332  0.2487 -0.5583 -0.6212
  395MOL0     C53203   8.212  -0.170   4.351 -0.3937 -0.0800 -0.7090
  395MOL0     C53204   8.213  -0.272   4.464  0.2832 -0.4033  0.0023
  395MOL0     C53205   8.123  -0.407   4.438  0.1118 -0.8290  0.5241
  395MOL0     C53206   8.171  -0.493   4.315  0.8203  0.3757 -1.1873
  395MOL0     N53207   8.293  -0.573   4.333 -0.7798 -0.9002  0.3749
  395MOL0     C53208   8.345  -0.615   4.450  0.0159 -0.5991  0.0402
  395MOL0     C53209   8.452  -0.686   4.428  0.1012 -0.7656 -0.2705
  395MOL0     C53210   8.564  -0.740   4.509  0.1853  0.3394  0.9547
  395MOL0     C53211   8.667  -0.632   4.555 -0.8949 -1.0266 -0.6889
  395MOL0     C53212   8.608  -0.548   4.672 -0.9331  0.7461 -0.2047
  395MOL0     C53213   8.682  -0.411   4.705  0.2357  0.2286  0.1028
  395MOL0     O53214   8.638  -0.366   4.831  0.2851  0.0044 -0.4247
  395MOL0     C53215   8.706  -0.283   4.911  0.1066 -0.0016  0.6242
  395MOL0     C53216   8.713  -0.304   5.049 -0.4051 -0.1781 -0.0240
  395MOL0     C53217   8.785  -0.211   5.126 -0.3504 -0.3709  0.2910
  395MOL0     C53218   8.796  -0.248   5.266  0.1496 -0.6615 -0.0130
  395MOL0     C53219   8.844  -0.092   5.072  0.6909  0.6366 -0.2201
  395MOL0     C53220   8.903   0.029   5.142 -0.0471  0.2690  0.4674
  395MOL0     O53221   8.930   0.144   5.065 -0.1164 -0.4386  0.0653
  395MOL0     C53222   8.990   0.254   5.128 -0.6903  1.5986 -0.0099
  395MOL0     C53223   9.121   0.243   5.193  1.1762  0.6029  0.0362
  395MOL0     C53224   9.172   0.353   5.261 -0.0485 -0.3718 -0.4424
  395MOL0     C53225   9.109   0.480   5.252  0.5975 -0.1318 -0.2574
  395MOL0     O53226   9.174   0.591   5.316  0.4848 -0.2799  0.6442
  395MOL0     C53227   9.096   0.699   5.346 -0.1839  0.7260 -0.4491
  395MOL0     C53228   9.189   0.801   5.403 -0.4453 -0.3640  0.0823
  395MOL0     C53229   9.123   0.940   5.420  0.0321  0.4113  0.2226
  395MOL0     C53230   9.204   1.021   5.513  0.4237  0.2359  0.6865
  395MOL0     C53231   9.188   1.176   5.497 -0.1486  0.2975 -0.4367
  395MOL0     C53232   9.043   1.222   5.488  0.4282 -0.4111  1.0502
  395MOL0     C53233   9.015   1.365   5.529 -0.3906  0.3618 -0.4629
  395MOL0     C53234   9.078   1.482   5.460  0.1564 -0.6921  0.2555
  395MOL0    Cl53235   9.260   1.488   5.465  0.0360  0.3120  0.0568
  395MOL0     C53236   8.983   0.484   5.187  0.1040 -0.4703 -0.7765
  395MOL0     C53237   8.924   0.376   5.127  0.3514 -0.4568 -0.9435
  395MOL0     O53238   8.907   0.030   5.259 -0.1991 -0.1177 -0.2630
  395MOL0     C53239   8.830  -0.081   4.934 -1.3171 -0.2306  0.9773
  395MOL0     C53240   8.758  -0.169   4.854 -0.8479  0.9237  0.4156
  395MOL0     N53241   8.434  -0.712   4.289  0.2612 -0.6336  0.1041
  395MOL0     N53242   8.343  -0.639   4.231 -0.5039  0.2709  0.1352
  395MOL0     C53243   7.910   0.608   4.167  0.7873 -0.2779  0.6824
  395MOL0     C53244   7.912   0.731   4.086 -0.0504  0.6312 -0.7532
  395MOL0     C53245   7.832   1.025   3.761 -0.3016 -0.1252  0.0236
  395MOL0     C53246   7.943   1.039   3.673  0.1845  0.4221  0.0994
  395MOL0     C53247   7.951   1.145   3.587  0.0064 -0.2909  0.1589
  395MOL0     C53248   7.840   1.219   3.564  0.7405 -0.4466 -0.3944
  395MOL0     O53249   7.846   1.306   3.453 -0.2571 -0.2116 -0.1602
  395MOL0     C53250   7.775   1.433   3.470 -0.7931 -0.5910 -0.5473
  395MOL0     C53251   7.843   1.533   3.561  0.2140 -0.2073  0.3656
  395MOL0     C53252   7.755   1.660   3.575  0.3720  0.5591  0.0936
  395MOL0     C53253   7.740   1.746   3.447 -0.2332 -0.1366 -0.5509
  395MOL0     C53254   7.685   1.871   3.489 -0.1886  0.9695 -0.4962
  395MOL0     C53255   7.642   1.980   3.520 -0.0705  0.1409  0.4518
  395MOL0     C53256   7.735   1.214   3.655 -0.5105 -0.2253  0.8639
  395MOL0     C53257   7.727   1.119   3.759  0.2953  0.7398  0.3422
  395MOL0     H53258   8.038   0.593   3.796 -0.8176  0.9349  0.1613
  395MOL0     H53259   7.996   0.388   3.916 -4.2997 -0.1141  0.2732
  395MOL0     H53260   7.990   0.220   4.049 -0.1643 -1.2687  0.6634
  395MOL0     H53261   8.122   0.279   4.138 -0.4159 -0.0887  0.5759
  395MOL0     H53262   8.005   0.187   4.340  0.0482  2.0809 -0.6512
  395MOL0     H53263   7.901   0.095   4.232  0.7391 -0.2462 -0.1275
  395MOL0     H53264   8.113  -0.020   4.139  0.5202  0.2176 -0.7235
  395MOL0     H53265   8.203   0.081   4.260  1.0303 -3.0106 -1.6210
  395MOL0     H53266   8.045  -0.042   4.421 -2.3258 -2.9551 -0.3986
  395MOL0     H53267   8.011  -0.154   4.286  0.4767  0.6614 -2.8250
  395MOL0     H53268   8.229  -0.219   4.254  0.7445 -0.5920 -0.2758
  395MOL0     H53269   8.296  -0.101   4.366  0.6502 -1.2965 -0.7595
  395MOL0     H53270   8.318  -0.299   4.472 -0.0362 -2.0892 -1.0247
  395MOL0     H53271   8.184  -0.217   4.554  0.5330  1.3947 -0.9526
  395MOL0     H53272   8.127  -0.465   4.531  2.9673  1.4779  2.0087
  395MOL0     H53273   8.023  -0.365   4.425 -0.3009 -1.2108  2.1788
  395MOL0     H53274   8.173  -0.432   4.224  1.9233  1.2224 -0.6233
  395MOL0     H53275   8.095  -0.569   4.296  0.1356  1.2465 -2.0376
  395MOL0     H53276   8.333  -0.574   4.550  0.0627 -3.3824  1.2567
  395MOL0     H53277   8.516  -0.783   4.598  1.2580  0.8771  1.8322
  395MOL0     H53278   8.606  -0.833   4.468  0.5134 -0.0386  2.1059
  395MOL0     H53279   8.673  -0.569   4.465 -0.6366 -2.0270 -1.3867
  395MOL0     H53280   8.769  -0.659   4.584 -1.8713 -2.5273  1.5638
  395MOL0     H53281   8.615  -0.616   4.757  1.1211  0.9359 -0.1787
  395MOL0     H53282   8.507  -0.514   4.647 -0.5050  3.2185  1.0565
  395MOL0     H53283   8.656  -0.343   4.624 -1.2133 -2.6104 -1.9879
  395MOL0     H53284   8.791  -0.417   4.703  0.2984 -0.6171  2.6051
  395MOL0     H53285   8.659  -0.378   5.107  0.9977  0.3299  2.0595
  395MOL0     H53286   8.738  -0.178   5.327  2.8111  2.1653 -0.4839
  395MOL0     H53287   8.770  -0.353   5.282 -2.7495 -0.0864 -0.3436
  395MOL0     H53288   8.901  -0.239   5.292  0.4967 -1.8574 -0.8687
  395MOL0     H53289   9.166   0.144   5.193  1.3005  0.6178 -1.7630
  395MOL0     H53290   9.261   0.351   5.323  1.0007 -0.3876 -1.8953
  395MOL0     H53291   9.048   0.739   5.256 -0.6859 -0.2851 -0.6451
  395MOL0     H53292   9.007   0.673   5.404  1.0409  2.4848  2.4790
  395MOL0     H53293   9.223   0.762   5.499 -2.3664 -0.9825  0.5514
  395MOL0     H53294   9.266   0.814   5.326 -2.8051  0.4921 -2.2979
  395MOL0     H53295   9.019   0.929   5.454 -0.3716 -0.5432 -1.2720
  395MOL0     H53296   9.129   0.987   5.322 -0.6011  1.2347  0.5655
  395MOL0     H53297   9.177   1.000   5.617  5.1751  0.8141  2.2995
  395MOL0     H53298   9.309   0.996   5.493  0.3622 -0.8090  1.5907
  395MOL0     H53299   9.251   1.207   5.413  1.0596 -0.1106  0.3057
  395MOL0     H53300   9.235   1.226   5.582  0.6889 -1.5674  0.2569
  395MOL0     H53301   9.008   1.200   5.387  1.7553  0.2211  0.4300
  395MOL0     H53302   8.982   1.155   5.550 -2.5445 -0.0031 -1.2081
  395MOL0     H53303   9.029   1.369   5.638  2.5169  1.1690 -0.7772
  395MOL0     H53304   8.908   1.381   5.514 -0.5034 -1.6036 -2.1761
  395MOL0     H53305   9.049   1.581   5.495  0.8976 -1.2532  2.6721
  395MOL0     H53306   9.043   1.468   5.357 -1.8683  1.4612  0.5749
  395MOL0     H53307   8.923   0.574   5.179 -1.5575 -1.5060 -0.5023
  395MOL0     H53308   8.834   0.383   5.066 -0.5008 -2.8341 -0.0871
  395MOL0     H53309   8.892  -0.005   4.887 -1.4374 -0.0429  1.1214
  395MOL0     H53310   8.762  -0.155   4.747 -0.1070 -0.4230  0.2478
  395MOL0     H53311   7.879   0.600   4.271  2.0351 -1.7619  0.9779
  395MOL0     H53312   7.867   0.820   4.129 -1.0777  0.1418 -0.7804
  395MOL0     H53313   8.024   0.967   3.682  0.6059  1.0256  1.3175
  395MOL0     H53314   8.033   1.156   3.517  1.5780  0.2496  1.9955
  395MOL0     H53315   7.762   1.474   3.369 -1.1387 -1.0096 -0.6785
  395MOL0     H53316   7.669   1.430   3.499 -0.1010  1.5595  2.5654
  395MOL0     H53317   7.938   1.562   3.516  0.6409 -3.6811 -1.2875
  395MOL0     H53318   7.860   1.496   3.662  1.1374  1.0737  0.7015
  395MOL0     H53319   7.802   1.728   3.647  0.9599  1.6725 -1.2888
  395MOL0     H53320   7.654   1.640   3.612  0.5892  2.1732  1.6690
  395MOL0     H53321   7.678   1.702   3.369 -0.2058 -0.1279 -0.5777
  395MOL0     H53322   7.839   1.771   3.406 -0.3307  2.2731  0.4897
  395MOL0     H53323   7.614   2.077   3.557 -0.0782  0.4009 -0.2342
  395MOL0     H53324   7.652   1.281   3.636 -3.3973 -4.3616 -3.5931
  395MOL0     H53325   7.637   1.117   3.819  0.1458 -0.5997  0.1015
  396MOL0     O53326   1.142   2.700   1.168  0.5181  0.2433  0.2407
  396MOL0     C53327   1.194   2.612   1.100 -0.7289  0.2559  0.4870
  396MOL0     O53328   1.235   2.483   1.143 -1.2057 -0.5722  0.7172
  396MOL0     C53329   1.241   2.436   1.267 -0.3228 -1.1383  0.0275
  396MOL0     C53330   1.229   2.510   1.391 -0.7561  0.0789  0.6674
  396MOL0     C53331   1.226   2.437   1.509  0.2303  0.1820 -0.0199
  396MOL0     C53332   1.245   2.303   1.519 -0.3836  1.0753  0.6803
  396MOL0     O53333   1.244   2.237   1.636  0.3177  0.8536  0.8870
  396MOL0     C53334   1.295   2.111   1.645  0.1145  0.7686 -0.0902
  396MOL0     C53335   1.301   2.052   1.790  0.7712 -0.0251  0.7996
  396MOL0     C53336   1.201   1.936   1.811  1.0547 -0.6254 -0.9186
  396MOL0     C53337   1.213   1.878   1.959  0.5791  0.3377 -0.4282
  396MOL0     C53338   1.125   1.754   1.977  0.0036  0.9982 -0.0647
  396MOL0     C53339   1.180   1.682   2.100 -0.0887  0.5911 -0.4842
  396MOL0     C53340   1.085   1.580   2.146  0.6956 -0.2449  0.0710
  396MOL0     C53341   1.162   1.477   2.233 -0.1613 -0.7266 -0.3529
  396MOL0     N53342   1.074   1.373   2.274  0.5410 -0.1478 -0.6838
  396MOL0     C53343   1.013   1.277   2.200  0.7076 -0.0123 -0.8464
  396MOL0     C53344   0.934   1.209   2.290 -0.0736  0.3322  0.9233
  396MOL0     C53345   0.824   1.122   2.249  0.9861 -0.1221 -0.5974
  396MOL0     C53346   0.861   0.984   2.221 -0.1479  0.5765 -0.1339
  396MOL0     C53347   0.924   0.951   2.089  0.4631 -0.2979  1.5528
  396MOL0     C53348   0.849   0.997   1.961  0.2638  0.2388  0.1451
  396MOL0     O53349   0.900   1.131   1.944 -0.0187 -0.0451  0.3529
  396MOL0     C53350   0.878   1.186   1.821 -0.6483  0.3277 -0.1754
  396MOL0     C53351   0.910   1.330   1.808  0.3131  0.5122 -0.7007
  396MOL0     C53352   0.884   1.401   1.692 -0.1119  0.0257 -0.6057
  396MOL0     C53353   0.915   1.547   1.684  0.3011  0.3561 -0.2564
  396MOL0     C53354   0.835   1.327   1.582  0.5460  0.6944 -0.8375
  396MOL0     C53355   0.820   1.383   1.444  0.5216 -0.1279  0.6632
  396MOL0     O53356   0.744   1.308   1.351 -0.2324 -0.6402 -0.8106
  396MOL0     C53357   0.726   1.367   1.230 -0.3446 -0.2328  0.0977
  396MOL0     C53358   0.829   1.363   1.141  0.9531  0.2431  0.2929
  396MOL0     C53359   0.809   1.415   1.014  0.2175  0.0551  0.8731
  396MOL0     C53360   0.690   1.475   0.975 -0.6122  0.1238  0.1496
  396MOL0     O53361   0.687   1.534   0.852 -0.8281  0.6078  0.3105
  396MOL0     C53362   0.567   1.589   0.798  0.0129 -0.4895  0.3879
  396MOL0     C53363   0.609   1.663   0.674  0.0977  0.4421  0.0594
  396MOL0     C53364   0.490   1.708   0.587 -0.5709  0.0478 -0.0117
  396MOL0     C53365   0.516   1.843   0.497  0.5356 -0.0705 -0.0386
  396MOL0     C53366   0.569   1.964   0.574 -0.5074 -0.7655  0.1303
  396MOL0     C53367   0.461   2.003   0.676 -0.2569 -0.4624 -0.0657
  396MOL0     C53368   0.490   2.142   0.739 -0.8952  0.2044  0.0628
  396MOL0     C53369   0.374   2.172   0.844 -0.0619 -0.1277 -0.3025
  396MOL0    Cl53370   0.236   2.239   0.752  0.4354  0.1827 -0.0223
  396MOL0     C53371   0.579   1.467   1.063 -0.3310  0.4343 -0.0615
  396MOL0     C53372   0.598   1.413   1.193  0.8294  0.1531 -0.1559
  396MOL0     O53373   0.887   1.478   1.407 -0.0336  0.0885  0.3630
  396MOL0     C53374   0.791   1.189   1.593 -0.4394 -0.0818  0.7942
  396MOL0     C53375   0.816   1.124   1.714  0.4077  0.1160 -1.0738
  396MOL0     N53376   0.957   1.260   2.414  1.3681 -0.3315  0.4964
  396MOL0     N53377   1.039   1.352   2.405  0.8707  0.3377 -0.0166
  396MOL0     C53378   1.269   2.236   1.398 -0.0484 -0.3892  0.2865
  396MOL0     C53379   1.262   2.297   1.278 -0.1131  0.6372  0.5498
  396MOL0     C53380   1.203   2.650   0.957 -0.0909  0.7210 -0.8896
  396MOL0     C53381   1.258   2.560   0.865  0.0641  0.9275  0.5509
  396MOL0     C53382   1.273   2.586   0.729  0.3092 -1.1140  0.8093
  396MOL0     C53383   1.235   2.710   0.679  0.2888  0.9517 -0.6374
  396MOL0     O53384   1.258   2.756   0.549  0.0715  0.2667 -0.5503
  396MOL0     C53385   1.335   2.688   0.451 -0.4005  0.3500 -0.0070
  396MOL0     C53386   1.255   2.577   0.383  0.0454  0.0205  0.1447
  396MOL0     C53387   1.319   2.527   0.245  0.1226 -0.5357  0.3455
  396MOL0     C53388   1.464   2.470   0.264  0.1784 -0.1161  1.0063
  396MOL0     C53389   1.450   2.364   0.358 -1.2385 -0.2392  0.1104
  396MOL0     C53390   1.448   2.262   0.432 -0.9807 -0.1367 -0.3245
  396MOL0     C53391   1.191   2.802   0.770 -0.8318  0.2419 -1.6700
  396MOL0     C53392   1.163   2.776   0.911  0.4386  0.0580  1.1287
  396MOL0     H53393   1.209   2.616   1.391 -0.4599  0.1378  0.6822
  396MOL0     H53394   1.209   2.475   1.609 -1.8129  1.4781 -0.8129
  396MOL0     H53395   1.244   2.042   1.577 -0.4357  3.5870 -2.7622
  396MOL0     H53396   1.396   2.094   1.606 -0.1404 -2.1614  0.3110
  396MOL0     H53397   1.402   2.018   1.812 -0.1576 -2.1743  2.1229
  396MOL0     H53398   1.264   2.134   1.853 -1.0215  1.2821 -1.7367
  396MOL0     H53399   1.099   1.968   1.787  0.1506 -3.9510 -2.0592
  396MOL0     H53400   1.234   1.858   1.742  2.0824 -0.7251 -0.3339
  396MOL0     H53401   1.319   1.857   1.980  0.4994  0.6246  0.3022
  396MOL0     H53402   1.189   1.950   2.038 -0.9995 -1.5559  0.9147
  396MOL0     H53403   1.025   1.791   2.002 -1.8397 -3.4409  0.0832
  396MOL0     H53404   1.123   1.696   1.884 -1.6106  0.3927  0.3053
  396MOL0     H53405   1.267   1.631   2.058 -1.5490 -0.0015 -2.9919
  396MOL0     H53406   1.201   1.754   2.180 -2.6200 -0.8718  1.6607
  396MOL0     H53407   0.993   1.621   2.187  0.2117 -0.6756 -0.5705
  396MOL0     H53408   1.046   1.532   2.056  1.3341  2.9486 -2.1340
  396MOL0     H53409   1.217   1.524   2.314 -2.1416 -0.0483  0.6657
  396MOL0     H53410   1.237   1.428   2.171 -2.0661 -1.7613 -1.9813
  396MOL0     H53411   1.035   1.253   2.096  3.3818 -2.7141  0.2073
  396MOL0     H53412   0.756   1.135   2.334  1.1145  2.4988 -0.8029
  396MOL0     H53413   0.758   1.163   2.171 -0.0112 -0.8806 -0.1761
  396MOL0     H53414   0.777   0.916   2.234  1.2894 -0.7748  3.0014
  396MOL0     H53415   0.926   0.947   2.301  0.0865  3.2445  1.0300
  396MOL0     H53416   0.946   0.844   2.091  1.1951 -0.2288 -0.8042
  396MOL0     H53417   1.020   1.001   2.078  0.8966 -1.3841  0.1378
  396MOL0     H53418   0.743   0.995   1.986 -0.3149  1.6562 -1.9130
  396MOL0     H53419   0.878   0.926   1.883 -0.6727 -1.8416  1.6142
  396MOL0     H53420   0.948   1.390   1.890 -2.9220 -0.7067  1.9032
  396MOL0     H53421   0.915   1.571   1.790  0.2239 -0.6454 -0.0241
  396MOL0     H53422   1.012   1.572   1.638  0.5715 -0.1821  0.0144
  396MOL0     H53423   0.837   1.613   1.646 -0.5658  0.8889  2.2714
  396MOL0     H53424   0.929   1.322   1.156  0.9980 -1.1081 -2.9132
  396MOL0     H53425   0.891   1.406   0.943  0.2576 -0.2782  0.9589
  396MOL0     H53426   0.492   1.513   0.775  0.7184 -1.7241  1.9130
  396MOL0     H53427   0.525   1.664   0.866 -0.8597 -0.6583  0.0421
  396MOL0     H53428   0.668   1.750   0.705 -1.0812  0.6347  1.8716
  396MOL0     H53429   0.675   1.598   0.616  1.8757  1.4223  0.8868
  396MOL0     H53430   0.401   1.725   0.648 -1.1605 -3.3510  0.3057
  396MOL0     H53431   0.473   1.626   0.517  3.1028 -0.5705 -0.3884
  396MOL0     H53432   0.584   1.811   0.418 -0.0989 -4.1847  0.8706
  396MOL0     H53433   0.432   1.876   0.436  0.3538 -2.1600 -1.0102
  396MOL0     H53434   0.570   2.053   0.511  2.3571  1.0865  2.5389
  396MOL0     H53435   0.667   1.940   0.615  0.2141  3.3782  1.2272
  396MOL0     H53436   0.369   2.005   0.617  1.2673  1.8929 -2.6607
  396MOL0     H53437   0.478   1.928   0.754  0.6733  1.2666  1.4815
  396MOL0     H53438   0.518   2.222   0.669 -0.0479 -0.4880 -0.4160
  396MOL0     H53439   0.578   2.130   0.803  0.9734  2.9193 -1.7420
  396MOL0     H53440   0.403   2.248   0.917  1.2006 -1.2271  0.3922
  396MOL0     H53441   0.353   2.086   0.909  2.1633  1.2990  2.5290
  396MOL0     H53442   0.480   1.506   1.047 -0.5875 -0.0457  0.3281
  396MOL0     H53443   0.517   1.409   1.266  0.3640 -0.2589 -0.6857
  396MOL0     H53444   0.742   1.135   1.513 -2.0607  0.3536  1.4488
  396MOL0     H53445   0.781   1.022   1.726 -1.3416  0.8903  0.9631
  396MOL0     H53446   1.291   2.130   1.408  1.3325 -0.1940 -0.4429
  396MOL0     H53447   1.275   2.238   1.188 -2.1201  1.7108 -0.5072
  396MOL0     H53448   1.283   2.456   0.886 -1.1894  0.7723  1.4348
  396MOL0     H53449   1.306   2.512   0.657  1.2383  2.6498 -3.0073
  396MOL0     H53450   1.358   2.761   0.372  1.0481 -1.7016 -1.5872
  396MOL0     H53451   1.426   2.646   0.494 -0.2545  0.7555  0.0868
  396MOL0     H53452   1.161   2.616   0.344 -0.3764 -1.5531 -0.4588
  396MOL0     H53453   1.231   2.503   0.459  5.3952 -1.9890  0.3539
  396MOL0     H53454   1.320   2.616   0.180 -2.5583 -0.4087  0.3773
  396MOL0     H53455   1.252   2.453   0.202 -2.9058  2.2357 -0.1297
  396MOL0     H53456   1.533   2.545   0.304  0.2994  0.3805 -0.1054
  396MOL0     H53457   1.491   2.439   0.163 -2.3603  1.3387 -0.2180
  396MOL0     H53458   1.451   2.177   0.496  0.1864 -1.3177 -1.8835
  396MOL0     H53459   1.173   2.902   0.729  3.8512  2.1495  0.2938
  396MOL0     H53460   1.116   2.855   0.970 -0.8877  0.9607 -1.0058
  397MOL0     O53461  10.012   8.153  11.016 -0.1016 -0.9026 -0.0965
  397MOL0     C53462  10.046   8.125  10.898  0.2387  0.3676  0.0766
  397MOL0     O53463   9.986   8.032  10.817 -0.0292 -0.4186 -0.3795
  397MOL0     C53464   9.879   7.957  10.863 -0.4378  0.7989  0.0079
  397MOL0     C53465   9.875   7.906  10.995  0.1841 -0.1170  0.0315
  397MOL0     C53466   9.765   7.833  11.037 -0.7887  0.4361 -0.4421
  397MOL0     C53467   9.655   7.820  10.952  0.9182 -0.3442  0.9642
  397MOL0     O53468   9.541   7.761  10.990  0.0317 -0.0877  0.2841
  397MOL0     C53469   9.448   7.845  11.069  0.8302  0.8025 -0.4501
  397MOL0     C53470   9.303   7.812  11.018 -0.2916  0.6086 -0.1567
  397MOL0     C53471   9.197   7.860  11.104 -0.2263  0.6423 -0.4790
  397MOL0     C53472   9.058   7.862  11.023 -1.0736  0.1389 -0.8547
  397MOL0     C53473   8.952   7.928  11.110  0.2892  0.0657  0.1104
  397MOL0     C53474   8.816   7.918  11.042 -0.2130  0.1593 -0.3731
  397MOL0     C53475   8.704   7.962  11.127  0.1177 -0.7135 -0.2910
  397MOL0     C53476   8.572   7.961  11.043  0.4766 -0.1994 -0.7396
  397MOL0     N53477   8.441   7.994  11.102  0.2424 -0.1162  0.6133
  397MOL0     C53478   8.400   8.122  11.148  0.0220 -0.7031  0.0228
  397MOL0     C53479   8.282   8.111  11.203 -0.5192 -0.1422 -0.4689
  397MOL0     C53480   8.209   8.220  11.267 -0.7959 -0.1116  0.2472
  397MOL0     C53481   8.062   8.226  11.203  0.0228 -0.3359 -0.4875
  397MOL0     C53482   8.071   8.253  11.054 -0.5407 -0.9889 -0.7747
  397MOL0     C53483   8.131   8.386  11.017  0.5066 -0.1479 -0.0396
  397MOL0     O53484   8.078   8.486  11.099  0.2072  0.7259  0.0245
  397MOL0     C53485   8.104   8.609  11.052  0.4360 -1.5965 -0.1795
  397MOL0     C53486   8.045   8.712  11.128  0.6413  0.5519  0.5469
  397MOL0     C53487   8.061   8.846  11.087  0.8605 -0.1189 -0.3558
  397MOL0     C53488   7.990   8.945  11.179 -0.0331  0.4409  0.4877
  397MOL0     C53489   8.127   8.881  10.967 -0.2647 -0.6980 -0.7294
  397MOL0     C53490   8.153   9.019  10.916 -0.2819  0.8560  0.1504
  397MOL0     O53491   8.199   9.030  10.787  0.2765  0.6269  0.3566
  397MOL0     C53492   8.267   9.142  10.740 -0.1387 -0.3720 -0.6682
  397MOL0     C53493   8.198   9.231  10.655  0.5117  0.1224 -0.1475
  397MOL0     C53494   8.271   9.336  10.583  1.0219 -0.4742  0.1570
  397MOL0     C53495   8.405   9.351  10.590 -0.4575  0.2914  1.3449
  397MOL0     O53496   8.459   9.448  10.506  0.3476  0.2749  0.0652
  397MOL0     C53497   8.608   9.467  10.513  0.3935  0.2590 -1.2579
  397MOL0     C53498   8.645   9.552  10.396 -0.2038 -0.7924 -0.5213
  397MOL0     C53499   8.581   9.691  10.402 -0.1882 -0.8000 -0.0798
  397MOL0     C53500   8.636   9.758  10.531  0.6104 -0.9204  0.1895
  397MOL0     C53501   8.613   9.906  10.556  0.2223  0.0360 -0.4039
  397MOL0     C53502   8.469   9.941  10.530 -0.2790 -0.9033 -0.3326
  397MOL0     C53503   8.430  10.084  10.569 -0.5083 -0.2046 -0.3493
  397MOL0     C53504   8.362  10.095  10.704  0.2983 -0.0656 -0.0806
  397MOL0    Cl53505   8.214  10.001  10.711 -0.2113  0.4072 -0.0116
  397MOL0     C53506   8.479   9.257  10.671 -0.0681  1.0277 -0.1072
  397MOL0     C53507   8.412   9.166  10.753  0.3758 -0.2939 -0.3975
  397MOL0     O53508   8.146   9.114  10.996 -0.3957  0.1535 -0.1666
  397MOL0     C53509   8.173   8.777  10.882  0.4948 -0.0646  0.1641
  397MOL0     C53510   8.163   8.653  10.930 -0.1326  0.0490  0.7195
  397MOL0     N53511   8.259   7.974  11.189 -0.2938  0.0587  0.4508
  397MOL0     N53512   8.339   7.916  11.117  0.1739  0.2746 -0.0360
  397MOL0     C53513   9.658   7.885  10.822 -1.3206 -0.5125 -0.5796
  397MOL0     C53514   9.763   7.957  10.776 -0.5016 -0.4133 -0.0697
  397MOL0     C53515  10.162   8.180  10.843 -1.5638 -0.8105 -0.3424
  397MOL0     C53516  10.235   8.125  10.733  1.3099  1.0385  1.4357
  397MOL0     C53517  10.347   8.185  10.681  0.7247  0.1804  0.1023
  397MOL0     C53518  10.402   8.308  10.728 -0.5997  0.2857 -0.4082
  397MOL0     O53519  10.515   8.363  10.669 -0.0133  0.6674 -0.4541
  397MOL0     C53520  10.557   8.499  10.694  0.9793  0.4648  0.0493
  397MOL0     C53521  10.709   8.513  10.724  0.3970  0.4966 -0.6190
  397MOL0     C53522  10.756   8.466  10.866 -1.0020  0.1397  0.0647
  397MOL0     C53523  10.897   8.531  10.891  1.0083  0.0867  0.7641
  397MOL0     C53524  11.000   8.520  10.782  0.5217 -0.1465  0.9682
  397MOL0     C53525  11.072   8.504  10.684 -0.0542 -0.2286  0.1476
  397MOL0     C53526  10.342   8.348  10.845  0.7293 -0.5744 -0.4604
  397MOL0     C53527  10.223   8.296  10.890  0.5988  0.5956  0.1061
  397MOL0     H53528   9.966   7.904  11.054  2.4983 -3.1656 -3.2346
  397MOL0     H53529   9.756   7.780  11.131  1.8680 -2.2472 -1.5583
  397MOL0     H53530   9.435   7.819  11.175 -0.7694  1.6248 -0.4162
  397MOL0     H53531   9.485   7.948  11.062 -0.1709  1.1484 -0.8208
  397MOL0     H53532   9.295   7.864  10.922  2.4379 -0.2168 -0.9212
  397MOL0     H53533   9.299   7.705  10.994 -0.4871 -0.1449  2.7953
  397MOL0     H53534   9.177   7.788  11.184 -2.2420  0.0264 -1.4883
  397MOL0     H53535   9.213   7.957  11.152  2.8607 -0.1893  0.3606
  397MOL0     H53536   9.069   7.926  10.936 -0.7599  0.9268 -0.2462
  397MOL0     H53537   9.028   7.759  11.000 -0.7556 -0.4188  1.0349
  397MOL0     H53538   8.937   7.873  11.203 -0.6631 -1.4006 -0.8772
  397MOL0     H53539   8.960   8.036  11.128 -3.4529  0.2155  1.7511
  397MOL0     H53540   8.804   7.979  10.952 -1.6006 -0.7338 -0.8195
  397MOL0     H53541   8.804   7.815  11.009 -1.7207  0.9717 -2.6357
  397MOL0     H53542   8.694   7.892  11.210  1.1340 -0.0315  0.4219
  397MOL0     H53543   8.714   8.049  11.192 -2.5255 -1.3187  1.0827
  397MOL0     H53544   8.566   7.866  10.989 -2.3388 -1.7604  2.0046
  397MOL0     H53545   8.587   8.040  10.969  4.8496 -0.7410 -0.6791
  397MOL0     H53546   8.462   8.210  11.152  0.6290 -1.0829 -0.9372
  397MOL0     H53547   8.198   8.188  11.372 -2.4117  0.9305  0.4339
  397MOL0     H53548   8.251   8.321  11.271  3.5097 -1.7105  1.0543
  397MOL0     H53549   8.000   8.300  11.255  0.0768 -1.4033  1.1870
  397MOL0     H53550   8.019   8.127  11.217 -0.2032 -0.2421 -0.5172
  397MOL0     H53551   7.975   8.246  11.003  1.0381  0.5886 -4.3097
  397MOL0     H53552   8.133   8.180  11.002 -2.1996 -1.9920 -1.4034
  397MOL0     H53553   8.109   8.410  10.912  1.2581 -2.9838 -0.9247
  397MOL0     H53554   8.239   8.377  11.031  0.9702  4.8674  1.9053
  397MOL0     H53555   7.982   8.676  11.208 -0.6562 -0.4126 -0.8607
  397MOL0     H53556   7.939   9.017  11.114 -1.4902  2.4824  3.6141
  397MOL0     H53557   7.918   8.891  11.241  0.9174  1.5921  2.7492
  397MOL0     H53558   8.065   8.996  11.240 -2.6073  3.3368  1.5450
  397MOL0     H53559   8.091   9.218  10.642  0.1612  2.3047  0.1179
  397MOL0     H53560   8.221   9.410  10.521  3.7632  1.9382  0.5608
  397MOL0     H53561   8.643   9.505  10.609  1.3403 -0.9284 -1.1092
  397MOL0     H53562   8.654   9.368  10.507 -0.3007 -0.2466  0.9331
  397MOL0     H53563   8.754   9.556  10.391 -0.2748  0.2267 -1.6005
  397MOL0     H53564   8.609   9.515  10.300  0.0231 -0.2299 -0.8243
  397MOL0     H53565   8.472   9.683  10.412 -0.1846 -0.3189  0.3716
  397MOL0     H53566   8.601   9.753  10.314 -0.5571  1.0130  1.0664
  397MOL0     H53567   8.576   9.706  10.607 -0.4861 -1.1828 -0.8273
  397MOL0     H53568   8.744   9.739  10.536  0.6756 -0.7363 -0.4713
  397MOL0     H53569   8.675   9.966  10.489  0.4100  2.0868  1.4601
  397MOL0     H53570   8.636   9.932  10.660  2.6005 -1.1916 -0.5559
  397MOL0     H53571   8.468   9.941  10.420 -0.8653 -0.3104 -0.3400
  397MOL0     H53572   8.390   9.872  10.561 -2.4902  2.0253  1.0246
  397MOL0     H53573   8.342  10.113  10.510 -2.8874 -1.5182  2.2976
  397MOL0     H53574   8.522  10.142  10.560 -1.0667  0.6553 -0.6607
  397MOL0     H53575   8.331  10.199  10.716  1.7881  0.6794 -2.1535
  397MOL0     H53576   8.425  10.062  10.788  2.1144 -0.4977 -1.5392
  397MOL0     H53577   8.585   9.263  10.694 -0.1762  1.1884  0.3655
  397MOL0     H53578   8.456   9.093  10.821 -0.2256  0.6208  0.9956
  397MOL0     H53579   8.222   8.796  10.787 -2.5700 -3.0132 -2.2227
  397MOL0     H53580   8.205   8.576  10.866  0.3820  1.4589 -0.7317
  397MOL0     H53581   9.560   7.892  10.775 -2.1788 -0.5269  1.1235
  397MOL0     H53582   9.771   8.010  10.682  2.0734 -4.6692 -2.5736
  397MOL0     H53583  10.192   8.039  10.682 -0.0833  2.1279  0.7011
  397MOL0     H53584  10.384   8.129  10.596  1.1424  0.7527 -0.0926
  397MOL0     H53585  10.544   8.534  10.591  1.6438 -2.8355 -1.2853
  397MOL0     H53586  10.500   8.561  10.763  0.3359  1.3947 -1.2618
  397MOL0     H53587  10.725   8.622  10.720 -0.9134  0.7994  1.0315
  397MOL0     H53588  10.769   8.466  10.646  3.1420 -0.0313  1.6214
  397MOL0     H53589  10.766   8.357  10.874  1.0857  0.3289  0.8532
  397MOL0     H53590  10.686   8.501  10.942 -2.4912  2.2016 -2.1388
  397MOL0     H53591  10.932   8.478  10.980  1.2214  0.4248  0.8839
  397MOL0     H53592  10.883   8.635  10.920  0.7475  1.0976 -2.6026
  397MOL0     H53593  11.141   8.500  10.603 -0.8688  0.9353 -0.6366
  397MOL0     H53594  10.380   8.437  10.894  0.9149  0.2211 -1.9830
  397MOL0     H53595  10.171   8.347  10.970 -1.2229 -1.5814  0.4000
  398MOL0     O53596  11.363   9.014   7.698 -0.2507  0.3596 -0.2317
  398MOL0     C53597  11.353   9.057   7.585  0.0629  0.1416  0.0978
  398MOL0     O53598  11.417   9.175   7.538 -0.5666 -0.5580  0.8887
  398MOL0     C53599  11.486   9.260   7.631  0.1447  0.1807 -0.6499
  398MOL0     C53600  11.581   9.214   7.718 -0.1669 -0.3338  0.8848
  398MOL0     C53601  11.651   9.314   7.792 -0.0788  0.3799 -0.3274
  398MOL0     C53602  11.635   9.453   7.786  0.0546 -0.3503 -0.0671
  398MOL0     O53603  11.720   9.511   7.870 -0.6847  0.4478  0.1445
  398MOL0     C53604  11.726   9.655   7.856 -0.1642  0.2897  0.0765
  398MOL0     C53605  11.793   9.708   7.975 -0.2795 -1.4532  0.3161
  398MOL0     C53606  11.727   9.679   8.106  0.1650  0.8439  0.0536
  398MOL0     C53607  11.792   9.751   8.234  0.4052  0.4532 -0.1929
  398MOL0     C53608  11.726   9.727   8.363 -0.4053 -1.2176  0.8912
  398MOL0     C53609  11.757   9.843   8.454  1.0087 -0.5214  0.1066
  398MOL0     C53610  11.701   9.814   8.593  0.8843  0.5674  0.0998
  398MOL0     C53611  11.733   9.932   8.687  0.3011 -0.7982 -0.0061
  398MOL0     N53612  11.730   9.876   8.823 -0.5316 -0.5652 -0.5027
  398MOL0     C53613  11.843   9.832   8.879 -0.2401  0.1106  0.0347
  398MOL0     C53614  11.801   9.778   8.992 -0.1462 -0.3358 -0.6573
  398MOL0     C53615  11.876   9.729   9.107 -0.1753 -0.1168 -0.1998
  398MOL0     C53616  11.845   9.825   9.231  0.2123  0.4731  0.0717
  398MOL0     C53617  11.869   9.741   9.355  1.2785 -1.5007 -0.5849
  398MOL0     C53618  12.009   9.719   9.409 -0.7853 -0.2753 -0.3211
  398MOL0     O53619  12.071   9.846   9.432  0.4764 -0.3230 -0.2248
  398MOL0     C53620  12.138   9.871   9.548 -0.0164  0.5754 -0.6751
  398MOL0     C53621  12.167  10.004   9.557  0.4512 -0.2620  1.0654
  398MOL0     C53622  12.254  10.046   9.650  0.0455 -0.5487 -0.5649
  398MOL0     C53623  12.291  10.200   9.643  0.4342  0.6980 -0.1229
  398MOL0     C53624  12.317   9.953   9.746 -0.4884  0.6170 -0.6225
  398MOL0     C53625  12.417   9.996   9.835  0.1598  1.0903 -0.6105
  398MOL0     O53626  12.493   9.889   9.886  0.1048 -0.7234  0.2496
  398MOL0     C53627  12.589   9.901   9.978 -0.5316  0.0865 -0.1567
  398MOL0     C53628  12.640   9.777  10.020 -0.4788 -0.1281 -0.2491
  398MOL0     C53629  12.757   9.775  10.102  1.5246  0.5000  0.3360
  398MOL0     C53630  12.831   9.884  10.134  0.2024 -0.1383  0.2471
  398MOL0     O53631  12.949   9.879  10.204  0.2582 -0.7568  0.4810
  398MOL0     C53632  13.016   9.759  10.198  0.1432 -0.0208  0.4954
  398MOL0     C53633  13.154   9.779  10.251  0.1301  0.4303  0.0095
  398MOL0     C53634  13.252   9.677  10.201  0.1574 -0.0831  0.2443
  398MOL0     C53635  13.198   9.535  10.234 -0.1186 -0.4827 -0.4288
  398MOL0     C53636  13.308   9.429  10.251 -0.3866  0.1565 -0.3335
  398MOL0     C53637  13.423   9.440  10.148 -0.1827  0.2823 -0.0080
  398MOL0     C53638  13.512   9.315  10.163  0.0840  0.4414 -0.8238
  398MOL0     C53639  13.652   9.331  10.092 -0.1285 -1.1970  0.2299
  398MOL0    Cl53640  13.779   9.391  10.208 -0.0299 -0.1528  0.0852
  398MOL0     C53641  12.776  10.007  10.103  0.3866 -0.2284  0.4124
  398MOL0     C53642  12.657  10.014  10.032  0.6116 -0.2201  0.8839
  398MOL0     O53643  12.434  10.117   9.864 -0.0554 -0.1017  0.4821
  398MOL0     C53644  12.286   9.809   9.747  0.1703  0.7564  0.9990
  398MOL0     C53645  12.193   9.776   9.642  0.3627 -0.1612  0.1083
  398MOL0     N53646  11.662   9.770   8.985 -0.6167 -0.1274  0.6470
  398MOL0     N53647  11.623   9.841   8.887 -0.3594 -0.0640 -0.8365
  398MOL0     C53648  11.537   9.498   7.699 -0.0571 -0.2994  0.2697
  398MOL0     C53649  11.460   9.404   7.625  0.1620  0.1829 -0.6114
  398MOL0     C53650  11.277   8.975   7.490  0.1840  0.0212 -0.1328
  398MOL0     C53651  11.223   9.035   7.382 -0.1860 -0.6095 -0.1714
  398MOL0     C53652  11.134   8.977   7.293  0.2957  0.6963 -0.4099
  398MOL0     C53653  11.117   8.838   7.301 -0.6013 -0.2567 -0.0069
  398MOL0     O53654  11.045   8.767   7.215 -0.1263  0.1012  0.3334
  398MOL0     C53655  11.052   8.810   7.073  0.3186 -0.2967 -0.6388
  398MOL0     C53656  11.006   8.701   6.978 -0.1776 -0.5527  0.7184
  398MOL0     C53657  10.864   8.644   7.010  0.2396 -0.0787  0.6753
  398MOL0     C53658  10.821   8.546   6.898  0.0939  0.4628  0.0712
  398MOL0     C53659  10.680   8.508   6.919 -0.3229  0.2706 -0.0875
  398MOL0     C53660  10.559   8.490   6.917  0.6730  0.1535 -0.2134
  398MOL0     C53661  11.174   8.770   7.415 -0.2183 -0.2485  0.1904
  398MOL0     C53662  11.250   8.834   7.513 -1.0695 -0.1756  0.6286
  398MOL0     H53663  11.605   9.108   7.712 -1.4667 -0.6636  1.3804
  398MOL0     H53664  11.735   9.275   7.848  0.8910  1.9313 -0.6266
  398MOL0     H53665  11.773   9.687   7.762 -2.4444  3.3461 -0.1873
  398MOL0     H53666  11.627   9.702   7.850 -0.1095  0.3914 -0.0387
  398MOL0     H53667  11.893   9.664   7.986  1.4466  2.1827  0.4265
  398MOL0     H53668  11.796   9.816   7.960 -1.1366 -1.4790 -0.0752
  398MOL0     H53669  11.619   9.697   8.112  0.4100  2.1806  0.6620
  398MOL0     H53670  11.735   9.571   8.122  0.8416  1.2135  2.6652
  398MOL0     H53671  11.896   9.717   8.234  0.3640  0.3080  0.7872
  398MOL0     H53672  11.784   9.857   8.209  0.0492  1.2105  2.7843
  398MOL0     H53673  11.618   9.743   8.353 -0.0886 -0.5424 -2.4844
  398MOL0     H53674  11.745   9.625   8.396  2.5282 -1.7107 -1.8571
  398MOL0     H53675  11.866   9.857   8.455  0.9711  1.6868 -4.0204
  398MOL0     H53676  11.720   9.935   8.408 -0.7817 -1.8737 -1.3221
  398MOL0     H53677  11.592   9.803   8.587  1.0901 -1.2446 -1.2071
  398MOL0     H53678  11.750   9.720   8.621 -1.7391 -1.1146 -0.5775
  398MOL0     H53679  11.660  10.014   8.690  0.1707 -0.9251  0.4802
  398MOL0     H53680  11.831   9.973   8.660  0.9395 -2.7337 -0.7635
  398MOL0     H53681  11.945   9.840   8.842 -0.9950 -0.7094 -2.3809
  398MOL0     H53682  11.853   9.626   9.133  0.3614 -0.4937 -1.1493
  398MOL0     H53683  11.982   9.730   9.079  0.4964 -6.0889  0.8869
  398MOL0     H53684  11.741   9.856   9.221 -0.2611 -1.1710 -0.4973
  398MOL0     H53685  11.909   9.913   9.240 -1.2900  1.6005  0.0334
  398MOL0     H53686  11.813   9.649   9.337 -2.2900  0.5448 -0.8114
  398MOL0     H53687  11.815   9.783   9.441 -1.1373 -2.3020 -1.6220
  398MOL0     H53688  12.063   9.669   9.328 -0.0709  0.4900 -0.3390
  398MOL0     H53689  11.987   9.660   9.498 -1.3895  0.7351  0.2197
  398MOL0     H53690  12.109  10.081   9.508  0.5581  0.5142  2.1329
  398MOL0     H53691  12.395  10.201   9.608  0.6211 -3.0780 -0.0832
  398MOL0     H53692  12.249  10.260   9.563  3.6864  1.0789 -1.7367
  398MOL0     H53693  12.292  10.249   9.741 -0.5631  0.5610 -0.0329
  398MOL0     H53694  12.582   9.693   9.984  0.3519 -1.3066  1.0534
  398MOL0     H53695  12.788   9.675  10.132  1.8822  0.7050  0.6505
  398MOL0     H53696  12.974   9.678  10.258  0.4289 -0.3666  0.2382
  398MOL0     H53697  13.028   9.725  10.095 -0.0167  0.6581  0.2498
  398MOL0     H53698  13.194   9.873  10.211  3.7735 -0.2763  1.5654
  398MOL0     H53699  13.148   9.806  10.357  0.5981  4.8396 -0.8805
  398MOL0     H53700  13.343   9.691  10.261 -0.6497  0.9584  1.2788
  398MOL0     H53701  13.282   9.700  10.099  0.8270  0.2045  0.4952
  398MOL0     H53702  13.144   9.536  10.329  0.0250 -3.4151 -0.2303
  398MOL0     H53703  13.133   9.512  10.149  1.2271 -1.1485 -1.3300
  398MOL0     H53704  13.266   9.328  10.242  0.7821 -0.4149  0.4630
  398MOL0     H53705  13.358   9.434  10.348 -0.6513 -1.6030 -0.0718
  398MOL0     H53706  13.392   9.439  10.043  3.0476 -0.7369 -1.0814
  398MOL0     H53707  13.473   9.537  10.143 -0.5595  0.6199  1.8470
  398MOL0     H53708  13.458   9.236  10.109  2.6866 -1.7017 -0.5094
  398MOL0     H53709  13.513   9.277  10.266  0.1733 -1.8634 -1.6131
  398MOL0     H53710  13.639   9.404  10.011 -0.0734 -1.0363  0.3650
  398MOL0     H53711  13.665   9.232  10.048 -2.0327 -1.1751 -0.5052
  398MOL0     H53712  12.822  10.093  10.152  0.6140 -0.5360  0.7403
  398MOL0     H53713  12.624  10.116  10.014  4.4086  0.8710 -0.8722
  398MOL0     H53714  12.317   9.730   9.815 -0.6949 -1.1423 -0.6917
  398MOL0     H53715  12.170   9.670   9.636 -1.6519  0.2963 -0.9863
  398MOL0     H53716  11.504   9.596   7.668 -3.4278 -1.2403  0.5601
  398MOL0     H53717  11.387   9.433   7.550 -0.8508 -0.1348  0.2309
  398MOL0     H53718  11.248   9.139   7.359  0.2486 -0.8054 -0.5975
  398MOL0     H53719  11.086   9.028   7.211 -0.2560  0.4626 -0.2394
  398MOL0     H53720  11.007   8.909   7.060  1.6492  0.5577  0.8971
  398MOL0     H53721  11.159   8.817   7.053  0.8534 -0.3101  1.8833
  398MOL0     H53722  11.078   8.619   6.988  1.2802  0.5172 -0.4655
  398MOL0     H53723  11.007   8.729   6.872  1.5495  1.4991  1.1995
  398MOL0     H53724  10.789   8.719   7.036 -0.4409 -1.4000  2.8248
  398MOL0     H53725  10.872   8.596   7.108 -0.0681 -1.3660  0.0792
  398MOL0     H53726  10.889   8.460   6.896 -0.1573  0.2683 -0.3837
  398MOL0     H53727  10.830   8.579   6.794 -3.0805 -1.9523 -1.1336
  398MOL0     H53728  10.453   8.473   6.916  0.9676 -2.4032  1.8597
  398MOL0     H53729  11.157   8.663   7.422 -0.4033 -0.1168  2.8821
  398MOL0     H53730  11.289   8.777   7.597  0.1019 -0.0368  0.1973
  399MOL0     O53731  10.694   3.357   1.537  1.2179 -0.2253 -0.3229
  399MOL0     C53732  10.778   3.311   1.619 -0.1308 -0.0545 -0.0213
  399MOL0     O53733  10.768   3.188   1.688 -0.3761 -0.6081 -0.6396
  399MOL0     C53734  10.685   3.104   1.615  0.9769 -0.3196  0.2051
  399MOL0     C53735  10.749   3.004   1.534 -0.2870 -0.6327  0.4589
  399MOL0     C53736  10.672   2.925   1.452  0.5547  0.8116  1.0425
  399MOL0     C53737  10.534   2.930   1.461  0.3506 -0.3042  0.7559
  399MOL0     O53738  10.460   2.855   1.374  0.8587 -0.2002 -0.5630
  399MOL0     C53739  10.348   2.785   1.430  1.0714  0.6399 -0.2742
  399MOL0     C53740  10.307   2.654   1.347 -0.2242 -0.4049 -1.1497
  399MOL0     C53741  10.234   2.709   1.214  0.1019 -0.1110  0.1025
  399MOL0     C53742  10.147   2.614   1.138  0.0208  0.4782  0.1086
  399MOL0     C53743  10.223   2.492   1.083  0.0316 -0.9753  0.4318
  399MOL0     C53744  10.129   2.397   1.011  0.3274  0.3120 -1.3430
  399MOL0     C53745  10.169   2.362   0.870 -0.7567  0.2169 -0.7158
  399MOL0     C53746  10.051   2.284   0.812 -0.6823  0.6697  1.0295
  399MOL0     N53747  10.103   2.249   0.675 -0.1555 -0.1038  0.5522
  399MOL0     C53748  10.128   2.341   0.571  0.4395  1.0706 -0.8234
  399MOL0     C53749  10.177   2.264   0.477  0.6471  0.6366  0.7013
  399MOL0     C53750  10.218   2.317   0.338  1.1384 -0.1929  0.5517
  399MOL0     C53751  10.108   2.358   0.239 -0.4074  0.3699  0.2507
  399MOL0     C53752  10.156   2.370   0.102  0.0109 -0.2267  0.2854
  399MOL0     C53753  10.045   2.400  -0.004 -0.3719  0.7798  0.5299
  399MOL0     O53754   9.941   2.299  -0.001  0.3789  0.1709 -0.8597
  399MOL0     C53755   9.863   2.276  -0.118  0.3549 -0.6311 -0.4358
  399MOL0     C53756   9.882   2.360  -0.237 -0.9814  0.0185 -0.3897
  399MOL0     C53757   9.798   2.338  -0.347  0.2630 -0.1478  0.5226
  399MOL0     C53758   9.817   2.428  -0.465  0.4209 -0.9550  0.1511
  399MOL0     C53759   9.704   2.227  -0.348  0.5591  0.4410  0.2172
  399MOL0     C53760   9.620   2.193  -0.470  0.3895  0.3296 -0.3624
  399MOL0     O53761   9.521   2.104  -0.446  0.1914 -0.3524 -0.2335
  399MOL0     C53762   9.446   2.048  -0.558  0.5071 -0.7303 -0.6513
  399MOL0     C53763   9.505   1.949  -0.637 -0.5445  0.1346  1.4166
  399MOL0     C53764   9.439   1.874  -0.732  0.5256 -0.6221  0.7305
  399MOL0     C53765   9.303   1.911  -0.756  0.0073 -0.2212 -0.4566
  399MOL0     O53766   9.238   1.849  -0.852  0.0737  0.5299  0.0205
  399MOL0     C53767   9.127   1.764  -0.811  0.2098 -0.4018 -0.2288
  399MOL0     C53768   9.177   1.663  -0.707  0.9112 -0.0018  0.0666
  399MOL0     C53769   9.061   1.563  -0.673 -0.2906 -0.8301 -0.2213
  399MOL0     C53770   9.118   1.432  -0.701  0.0998 -0.1012 -0.0417
  399MOL0     C53771   9.012   1.324  -0.672  0.4733  0.1106  0.1100
  399MOL0     C53772   9.040   1.190  -0.731  0.4230 -0.6345  0.0832
  399MOL0     C53773   8.964   1.079  -0.662 -0.2712  0.1974  0.5909
  399MOL0     C53774   9.007   0.941  -0.723 -0.1884  0.1579 -1.0457
  399MOL0    Cl53775   8.895   0.814  -0.647 -0.1569 -0.2344 -0.0966
  399MOL0     C53776   9.229   2.013  -0.680  0.0784  0.2463 -0.3377
  399MOL0     C53777   9.308   2.090  -0.587  0.0985 -0.1742  0.3170
  399MOL0     O53778   9.636   2.256  -0.579 -0.5873  0.4897  0.2617
  399MOL0     C53779   9.692   2.145  -0.236  1.4649 -1.0648 -0.7723
  399MOL0     C53780   9.765   2.179  -0.117  1.0469  0.0938  0.5811
  399MOL0     N53781  10.160   2.127   0.502  0.5186  0.1975 -0.7405
  399MOL0     N53782  10.132   2.126   0.628  0.1599  0.6378  0.2788
  399MOL0     C53783  10.470   3.031   1.532  0.2415  0.0663 -0.5768
  399MOL0     C53784  10.551   3.113   1.610 -0.7351  0.3856 -0.5575
  399MOL0     C53785  10.875   3.407   1.666  0.4655  0.4463 -0.1616
  399MOL0     C53786  10.845   3.541   1.687 -0.4182 -0.3517 -0.5356
  399MOL0     C53787  10.941   3.620   1.761  0.2104 -0.3073  0.4308
  399MOL0     C53788  11.057   3.569   1.815  0.5765 -0.0901  0.2465
  399MOL0     O53789  11.145   3.631   1.899 -0.0593  0.5957  0.7451
  399MOL0     C53790  11.153   3.770   1.908  0.0900  1.0934 -0.4896
  399MOL0     C53791  11.198   3.831   1.768  0.2829 -0.7109 -0.6654
  399MOL0     C53792  11.316   3.754   1.702 -0.9240  0.1527  0.8010
  399MOL0     C53793  11.330   3.812   1.559 -0.2263  0.0103 -0.3397
  399MOL0     C53794  11.466   3.792   1.516  0.9936 -0.3807  0.5173
  399MOL0     C53795  11.574   3.790   1.458 -0.2687  0.2366 -0.0832
  399MOL0     C53796  11.085   3.433   1.796 -0.3031  0.0021  0.1847
  399MOL0     C53797  10.997   3.357   1.720 -0.0289 -0.1301 -0.2896
  399MOL0     H53798  10.857   3.005   1.539 -0.2842 -1.3009  0.6480
  399MOL0     H53799  10.711   2.861   1.373  1.3300  1.2967  1.0304
  399MOL0     H53800  10.372   2.748   1.530  1.1627 -0.8760 -0.8383
  399MOL0     H53801  10.258   2.845   1.450  1.5058  1.5143 -0.9073
  399MOL0     H53802  10.395   2.592   1.325  0.4456  0.2509 -0.3930
  399MOL0     H53803  10.249   2.591   1.415  0.0032  0.6805  0.0952
  399MOL0     H53804  10.193   2.807   1.240  3.7305  1.0844  2.1295
  399MOL0     H53805  10.310   2.739   1.142 -2.5520 -1.0911 -3.3478
  399MOL0     H53806  10.059   2.577   1.192 -2.8282  3.0569 -2.4101
  399MOL0     H53807  10.100   2.671   1.057  1.4769  4.5331  1.8463
  399MOL0     H53808  10.303   2.532   1.019  0.6771 -0.3751  1.5764
  399MOL0     H53809  10.273   2.445   1.169  1.8549  0.9527  0.5200
  399MOL0     H53810  10.121   2.308   1.075 -0.4942  0.8048 -0.7510
  399MOL0     H53811  10.028   2.439   1.008 -0.1637 -0.7580 -0.3916
  399MOL0     H53812  10.186   2.457   0.818 -3.7553  1.4798  0.3608
  399MOL0     H53813  10.257   2.298   0.871  1.0008  2.4880  0.2088
  399MOL0     H53814   9.961   2.345   0.799  0.1715  1.6200 -0.9076
  399MOL0     H53815  10.030   2.193   0.868  0.0946  1.6406  2.9641
  399MOL0     H53816  10.117   2.449   0.572  0.9133  1.1284 -1.5835
  399MOL0     H53817  10.275   2.410   0.342 -1.7666  1.6665  2.0493
  399MOL0     H53818  10.283   2.242   0.291  0.0220  0.9524 -3.1684
  399MOL0     H53819  10.068   2.450   0.282 -1.3795 -0.5072  1.3073
  399MOL0     H53820  10.040   2.272   0.233  1.6259 -1.1943 -2.7839
  399MOL0     H53821  10.204   2.279   0.065  0.6736  0.2100  0.0601
  399MOL0     H53822  10.226   2.453   0.091 -0.6649  0.5303  1.5079
  399MOL0     H53823  10.097   2.392  -0.100 -0.5037  2.6859  0.2622
  399MOL0     H53824   9.999   2.499  -0.000  0.5371  1.3008 -1.1684
  399MOL0     H53825   9.951   2.442  -0.244 -1.1127  0.1499 -0.1427
  399MOL0     H53826   9.882   2.513  -0.444  2.2194 -2.4679  1.0817
  399MOL0     H53827   9.867   2.379  -0.550  0.2557 -1.9299  0.6011
  399MOL0     H53828   9.715   2.459  -0.492  0.3689 -1.0499  0.2390
  399MOL0     H53829   9.604   1.917  -0.607 -0.9898  0.1343  3.0229
  399MOL0     H53830   9.489   1.807  -0.801  1.5061 -0.6762  1.4755
  399MOL0     H53831   9.058   1.833  -0.763  1.5857 -0.3409  1.7636
  399MOL0     H53832   9.077   1.730  -0.903  1.7909 -0.5841 -1.0506
  399MOL0     H53833   9.269   1.614  -0.742 -1.7156 -3.8977 -2.1514
  399MOL0     H53834   9.194   1.722  -0.616  0.9592 -1.5123  1.0755
  399MOL0     H53835   8.966   1.580  -0.725 -1.6881 -1.8757  1.8371
  399MOL0     H53836   9.036   1.565  -0.566 -0.4677 -0.8229 -0.2619
  399MOL0     H53837   9.163   1.418  -0.799  2.5609 -2.3148  1.2843
  399MOL0     H53838   9.194   1.410  -0.625  0.3650  0.9792  0.0290
  399MOL0     H53839   8.918   1.362  -0.711  0.1630  1.6428  2.2240
  399MOL0     H53840   8.998   1.318  -0.563  0.4023 -0.4800  0.0731
  399MOL0     H53841   9.013   1.188  -0.837 -2.2232 -1.5459  0.7028
  399MOL0     H53842   9.144   1.156  -0.729  1.0438  0.9670 -1.8636
  399MOL0     H53843   8.855   1.086  -0.665 -0.5306 -1.2549  3.1955
  399MOL0     H53844   9.000   1.076  -0.558 -1.0762 -2.8946  0.8647
  399MOL0     H53845   9.110   0.913  -0.702 -0.2101  2.0804  2.4679
  399MOL0     H53846   8.989   0.938  -0.831  0.1282 -0.9452 -1.0799
  399MOL0     H53847   9.131   2.053  -0.704 -0.6626 -0.4503  1.4212
  399MOL0     H53848   9.262   2.175  -0.537  3.4128  0.9803  1.6570
  399MOL0     H53849   9.630   2.057  -0.246  2.2530 -2.2099  2.7368
  399MOL0     H53850   9.753   2.116  -0.029  2.4066  0.8105  1.3066
  399MOL0     H53851  10.363   3.049   1.535  0.0215 -1.3191  1.2639
  399MOL0     H53852  10.499   3.189   1.668  1.1548  0.1720  1.5697
  399MOL0     H53853  10.749   3.577   1.652 -0.1984 -1.0276 -1.8886
  399MOL0     H53854  10.920   3.727   1.765  2.3072  0.1127  1.5905
  399MOL0     H53855  11.055   3.809   1.939 -0.2483 -2.0683  3.1858
  399MOL0     H53856  11.226   3.795   1.986 -1.0523  1.0740  0.6268
  399MOL0     H53857  11.226   3.934   1.791 -2.3631 -0.2786  1.1391
  399MOL0     H53858  11.113   3.839   1.700  0.9619 -0.7974 -1.5322
  399MOL0     H53859  11.286   3.649   1.697 -4.3457  1.0610 -1.1954
  399MOL0     H53860  11.405   3.774   1.762  0.9791  1.6679 -2.3067
  399MOL0     H53861  11.302   3.918   1.558  0.8888  0.3198 -0.8817
  399MOL0     H53862  11.260   3.753   1.499  0.1830 -2.8666  1.8150
  399MOL0     H53863  11.665   3.779   1.402 -1.2693  1.7100 -2.1299
  399MOL0     H53864  11.172   3.387   1.841 -0.0491  1.6019  1.4095
  399MOL0     H53865  11.020   3.253   1.700  1.4421  0.0328  0.4295
  400MOL0     O53866  10.963   4.149   2.838  0.1689  0.1458 -0.0675
  400MOL0     C53867  10.967   4.028   2.849 -0.8562 -0.1107 -0.2874
  400MOL0     O53868  11.063   3.945   2.903 -0.3890 -0.0476  0.1764
  400MOL0     C53869  11.180   3.997   2.962  1.1104 -0.0957  0.9940
  400MOL0     C53870  11.300   3.924   2.944  0.1601  0.4010  0.9301
  400MOL0     C53871  11.428   3.963   2.980  0.7948  1.0291 -0.0069
  400MOL0     C53872  11.438   4.092   3.029  0.8724 -0.4526 -0.3552
  400MOL0     O53873  11.559   4.159   3.052  0.4348 -0.4070  1.6065
  400MOL0     C53874  11.676   4.102   3.011 -0.4084  1.4223  0.0910
  400MOL0     C53875  11.789   4.179   3.065  0.0214  0.3458 -0.3555
  400MOL0     C53876  11.918   4.175   2.966  0.2271 -0.6300 -0.5437
  400MOL0     C53877  12.026   4.218   3.069  0.0325 -0.0382  0.3736
  400MOL0     C53878  12.158   4.249   2.991  0.0155 -0.5986 -0.2844
  400MOL0     C53879  12.150   4.364   2.894 -0.2803 -0.5858  0.7188
  400MOL0     C53880  12.286   4.430   2.857  0.2289  0.6655 -0.5823
  400MOL0     C53881  12.342   4.492   2.983 -0.1963 -0.4726  0.3439
  400MOL0     N53882  12.455   4.588   2.943  0.1696  0.2416  0.7980
  400MOL0     C53883  12.433   4.722   2.916 -0.1565  0.8473  0.1166
  400MOL0     C53884  12.553   4.772   2.891  1.0961 -0.5654  0.2755
  400MOL0     C53885  12.575   4.919   2.862  0.5380 -0.3910  0.3947
  400MOL0     C53886  12.559   4.992   2.996  0.3387  0.5720  0.5635
  400MOL0     C53887  12.584   5.146   2.970  0.4985  0.1800  0.0513
  400MOL0     C53888  12.492   5.210   2.878 -0.0084 -0.4818  0.1912
  400MOL0     O53889  12.551   5.345   2.855 -0.0531  0.3118  0.0420
  400MOL0     C53890  12.468   5.447   2.812  0.4753  0.1955  0.2750
  400MOL0     C53891  12.522   5.567   2.828  0.3290  0.4325 -0.2320
  400MOL0     C53892  12.446   5.691   2.804 -0.1626  0.9302 -0.1149
  400MOL0     C53893  12.503   5.832   2.839  0.0149 -0.2089  0.5609
  400MOL0     C53894  12.317   5.678   2.746  0.4897  0.2655 -1.0765
  400MOL0     C53895  12.227   5.798   2.701 -0.8738 -0.3280 -0.2787
  400MOL0     O53896  12.097   5.777   2.690  0.1559  0.0163  0.6687
  400MOL0     C53897  12.001   5.876   2.688  0.0583 -1.4076 -0.9807
  400MOL0     C53898  12.019   6.005   2.742  0.3497 -0.2469 -0.1382
  400MOL0     C53899  11.914   6.093   2.747 -0.0631 -0.3859  1.0374
  400MOL0     C53900  11.781   6.057   2.720  0.1084  0.2583  0.9346
  400MOL0     O53901  11.676   6.143   2.739 -0.3279  0.6469  0.1080
  400MOL0     C53902  11.602   6.189   2.635 -0.0056 -0.4717  0.0640
  400MOL0     C53903  11.460   6.204   2.688 -0.2140 -0.0265  0.0692
  400MOL0     C53904  11.461   6.325   2.783 -0.4509 -0.2739 -0.8512
  400MOL0     C53905  11.332   6.328   2.858  1.2063 -0.2291  0.4523
  400MOL0     C53906  11.297   6.448   2.948  0.3781 -0.4225  0.1380
  400MOL0     C53907  11.399   6.489   3.051  0.9122 -1.0146  0.1340
  400MOL0     C53908  11.446   6.378   3.147  0.1456 -0.3976 -0.0415
  400MOL0     C53909  11.540   6.454   3.254  1.1519 -0.0644  0.0156
  400MOL0    Cl53910  11.549   6.358   3.397  0.3464  0.1561  0.0032
  400MOL0     C53911  11.760   5.931   2.663 -0.6703 -1.0312 -0.0526
  400MOL0     C53912  11.868   5.841   2.652 -0.2637 -0.4408  0.3507
  400MOL0     O53913  12.288   5.904   2.670 -0.1356 -0.2709 -0.5358
  400MOL0     C53914  12.264   5.553   2.736  0.5232 -0.5594  0.6009
  400MOL0     C53915  12.337   5.432   2.770 -0.7110  0.5019  1.2866
  400MOL0     N53916  12.650   4.674   2.904 -0.1012  0.9935  0.0631
  400MOL0     N53917  12.590   4.566   2.943  0.3268  0.6975 -0.1948
  400MOL0     C53918  11.324   4.172   3.053  0.5375 -0.2763  0.1250
  400MOL0     C53919  11.190   4.127   3.024  0.3724  0.0168  0.4185
  400MOL0     C53920  10.871   3.949   2.770 -0.3157 -0.6624 -0.4499
  400MOL0     C53921  10.884   3.811   2.749  0.1808  0.8721 -0.7190
  400MOL0     C53922  10.765   3.741   2.692 -0.2862 -0.4882  0.5012
  400MOL0     C53923  10.651   3.808   2.659 -0.4418  0.1980  0.0264
  400MOL0     O53924  10.542   3.731   2.625 -0.4621 -0.1775  1.0920
  400MOL0     C53925  10.417   3.782   2.569  0.6090  0.1150 -0.7456
  400MOL0     C53926  10.314   3.771   2.682  0.2095 -0.1598  0.1753
  400MOL0     C53927  10.317   3.642   2.766 -0.0933 -0.3003  0.6810
  400MOL0     C53928  10.252   3.516   2.700 -0.5914 -0.3877 -0.1880
  400MOL0     C53929  10.176   3.442   2.800  0.1995  1.6927 -0.3765
  400MOL0     C53930  10.095   3.383   2.880  0.3891  0.2642 -0.2983
  400MOL0     C53931  10.646   3.945   2.663  0.4317 -0.0627 -0.1198
  400MOL0     C53932  10.759   4.015   2.716  0.6126 -0.3789  0.4707
  400MOL0     H53933  11.277   3.825   2.907  0.5807  1.0083 -1.1002
  400MOL0     H53934  11.500   3.883   2.989 -2.2310 -1.6755  2.5254
  400MOL0     H53935  11.676   3.995   3.034 -2.0811  1.2149 -0.6858
  400MOL0     H53936  11.677   4.106   2.902  0.9683  2.4795  0.1254
  400MOL0     H53937  11.758   4.282   3.081 -1.9395  0.1528 -2.2919
  400MOL0     H53938  11.817   4.153   3.167  0.7377  1.6138 -0.2071
  400MOL0     H53939  11.932   4.070   2.937  0.1305 -1.1117  1.0271
  400MOL0     H53940  11.907   4.240   2.879 -2.3146 -0.8277 -0.4485
  400MOL0     H53941  11.981   4.307   3.116 -2.6238 -1.6500  1.1195
  400MOL0     H53942  12.042   4.147   3.151  1.5342  0.4094  0.5011
  400MOL0     H53943  12.220   4.278   3.077 -2.5177  2.2569  0.7946
  400MOL0     H53944  12.198   4.158   2.947 -2.2212 -1.5308 -0.5114
  400MOL0     H53945  12.103   4.318   2.807 -1.1440 -4.8829  3.1284
  400MOL0     H53946  12.082   4.438   2.937  0.4180  2.7660 -3.3210
  400MOL0     H53947  12.356   4.355   2.819  0.1587  0.4934 -0.3776
  400MOL0     H53948  12.248   4.501   2.783 -0.1812  0.1918 -0.8282
  400MOL0     H53949  12.373   4.424   3.063 -0.9270 -0.5203  0.5969
  400MOL0     H53950  12.264   4.550   3.031  0.3526 -0.0285  0.7084
  400MOL0     H53951  12.342   4.780   2.927 -0.2387  0.4997  1.5027
  400MOL0     H53952  12.660   4.947   2.799 -1.8302  2.9496 -1.6654
  400MOL0     H53953  12.498   4.948   2.790  1.3350 -5.1876 -2.9127
  400MOL0     H53954  12.637   4.948   3.060  1.0779  0.5519 -0.3269
  400MOL0     H53955  12.459   4.975   3.037 -1.6511  2.3520 -3.0673
  400MOL0     H53956  12.688   5.162   2.940 -0.4857  0.2339 -4.0078
  400MOL0     H53957  12.566   5.207   3.058 -1.1525  1.6989 -1.2788
  400MOL0     H53958  12.390   5.215   2.918 -1.8442  0.6844 -3.9911
  400MOL0     H53959  12.494   5.161   2.780  3.0578  1.5608 -0.8965
  400MOL0     H53960  12.617   5.585   2.877 -0.5007  2.9727  0.6517
  400MOL0     H53961  12.504   5.897   2.752 -0.7147  0.2182  0.8667
  400MOL0     H53962  12.436   5.875   2.914 -1.5632 -0.0676 -0.8873
  400MOL0     H53963  12.601   5.824   2.888 -0.6590  0.1460  2.0222
  400MOL0     H53964  12.112   6.031   2.793 -1.4686 -0.2411  3.5141
  400MOL0     H53965  11.916   6.193   2.790  1.5929 -0.3119  0.8288
  400MOL0     H53966  11.651   6.282   2.604  0.6863 -0.4501  1.1729
  400MOL0     H53967  11.585   6.117   2.554  0.1865 -0.3703 -0.0667
  400MOL0     H53968  11.388   6.204   2.605  0.1353 -1.1783 -0.2446
  400MOL0     H53969  11.436   6.110   2.738 -2.0666 -0.6406 -1.8233
  400MOL0     H53970  11.479   6.418   2.730  0.1146 -1.0632 -2.0854
  400MOL0     H53971  11.529   6.317   2.869 -2.0515  2.2641  0.7873
  400MOL0     H53972  11.256   6.327   2.778  1.0607  0.9822  0.5576
  400MOL0     H53973  11.320   6.236   2.916  0.2859  1.9244  3.9183
  400MOL0     H53974  11.198   6.434   2.993 -2.4251  3.1343 -4.0824
  400MOL0     H53975  11.287   6.530   2.877 -1.2370 -0.0343  0.7696
  400MOL0     H53976  11.490   6.533   3.009  1.7654 -2.9280 -0.1223
  400MOL0     H53977  11.338   6.559   3.108 -0.2001 -1.3372 -0.6305
  400MOL0     H53978  11.498   6.295   3.098 -0.4645 -3.1114  3.4882
  400MOL0     H53979  11.361   6.335   3.201  1.4122 -0.7948  1.7056
  400MOL0     H53980  11.498   6.552   3.277  1.0974 -0.6785  2.9107
  400MOL0     H53981  11.641   6.466   3.215  0.1893  1.5870 -2.1824
  400MOL0     H53982  11.659   5.913   2.628 -0.9123  0.9862 -0.4886
  400MOL0     H53983  11.852   5.746   2.602  1.6193 -0.3025 -0.6071
  400MOL0     H53984  12.171   5.528   2.687  1.7309 -1.9117 -1.1223
  400MOL0     H53985  12.293   5.333   2.762  0.3629  0.1629 -1.4528
  400MOL0     H53986  11.328   4.279   3.070  1.4239 -0.1806 -0.6068
  400MOL0     H53987  11.110   4.200   3.025  0.1495 -0.0371 -2.8299
  400MOL0     H53988  10.976   3.762   2.778  0.8926  1.6798 -1.5518
  400MOL0     H53989  10.766   3.633   2.691  0.9123 -0.4987  1.0508
  400MOL0     H53990  10.427   3.885   2.535  1.2658  0.1876 -0.3423
  400MOL0     H53991  10.391   3.715   2.486  0.0403 -0.8705  0.2013
  400MOL0     H53992  10.220   3.771   2.627 -0.2265  2.3139  0.7567
  400MOL0     H53993  10.313   3.859   2.748 -0.6227 -1.1313  1.5158
  400MOL0     H53994  10.258   3.673   2.853 -1.4029 -0.6150 -0.0676
  400MOL0     H53995  10.415   3.615   2.808 -0.3169 -2.8904 -0.3282
  400MOL0     H53996  10.325   3.445   2.658 -0.0444  0.0653 -0.0158
  400MOL0     H53997  10.196   3.548   2.612  1.5855 -0.1405 -1.5641
  400MOL0     H53998  10.015   3.349   2.943 -2.3878  2.1516 -2.5744
  400MOL0     H53999  10.565   4.004   2.621  1.8463  0.2857 -2.5943
  400MOL0     H54000  10.748   4.122   2.726  0.1633 -0.3478 -0.2802
  401MOL0     O54001   6.478   3.183   0.368 -0.8783 -0.0631 -0.0183
  401MOL0     C54002   6.513   3.260   0.277 -0.3867 -0.2759  0.2580
  401MOL0     O54003   6.442   3.368   0.240 -0.1174  0.6342 -0.1751
  401MOL0     C54004   6.327   3.393   0.313 -0.1864 -0.0364 -0.5761
  401MOL0     C54005   6.205   3.358   0.260 -0.9779  0.0260  0.4088
  401MOL0     C54006   6.090   3.389   0.331 -0.5228 -0.8336 -0.2850
  401MOL0     C54007   6.091   3.464   0.445 -0.0279 -1.2403 -0.6995
  401MOL0     O54008   5.973   3.499   0.509 -0.2012 -0.0496  0.4240
  401MOL0     C54009   5.936   3.638   0.496  0.0793 -0.4498  0.3725
  401MOL0     C54010   5.813   3.650   0.409  1.1740 -0.0976 -0.0652
  401MOL0     C54011   5.700   3.544   0.434  0.5652  0.0947  0.3206
  401MOL0     C54012   5.599   3.554   0.319 -0.4892  0.0818 -0.5491
  401MOL0     C54013   5.450   3.521   0.364 -0.4898  0.2365  0.1453
  401MOL0     C54014   5.353   3.604   0.286  0.3702  0.1739  0.1949
  401MOL0     C54015   5.347   3.549   0.150  0.7034  0.3938 -0.2773
  401MOL0     C54016   5.251   3.626   0.064 -0.2674 -0.4694  0.0610
  401MOL0     N54017   5.109   3.599   0.085  0.7947  0.1535 -0.6885
  401MOL0     C54018   5.053   3.481   0.058  0.9276  0.2519 -0.9736
  401MOL0     C54019   4.913   3.498   0.076 -1.0085  0.1697 -0.1644
  401MOL0     C54020   4.796   3.397   0.049 -1.2147 -0.8237 -0.3480
  401MOL0     C54021   4.731   3.380   0.186 -0.4272  0.9481 -0.3653
  401MOL0     C54022   4.826   3.314   0.296  0.8453  0.3959 -0.5225
  401MOL0     C54023   4.757   3.282   0.423 -0.0390  0.0276 -0.3102
  401MOL0     O54024   4.716   3.410   0.480 -0.3387 -0.5516 -0.4138
  401MOL0     C54025   4.639   3.409   0.600 -0.0478  1.6835 -0.1354
  401MOL0     C54026   4.585   3.537   0.636 -0.2471  0.3569 -0.9046
  401MOL0     C54027   4.517   3.551   0.760 -0.6062  0.0301  1.0356
  401MOL0     C54028   4.484   3.693   0.812  0.0151  0.2856  0.6190
  401MOL0     C54029   4.464   3.436   0.822 -0.3008 -0.6628  1.0403
  401MOL0     C54030   4.368   3.442   0.925  0.3831 -0.3998 -0.1415
  401MOL0     O54031   4.382   3.509   1.044  0.0562  0.0401  0.5456
  401MOL0     C54032   4.275   3.505   1.125 -1.1050  0.3565 -0.1885
  401MOL0     C54033   4.291   3.440   1.252  0.0490 -0.0560 -0.1580
  401MOL0     C54034   4.185   3.450   1.339  0.1047  0.3397 -0.7595
  401MOL0     C54035   4.071   3.519   1.308  0.2218  0.4455  0.0111
  401MOL0     O54036   3.975   3.519   1.409  0.3899  0.2581  0.3077
  401MOL0     C54037   3.876   3.627   1.418  0.3887  0.0854 -0.7095
  401MOL0     C54038   3.852   3.663   1.571  0.6376 -0.8411 -1.0065
  401MOL0     C54039   3.778   3.561   1.661 -0.0340  0.0267 -0.2087
  401MOL0     C54040   3.730   3.609   1.800  0.4178 -0.2714  0.1255
  401MOL0     C54041   3.659   3.501   1.874 -0.2821  0.2212  0.5022
  401MOL0     C54042   3.635   3.551   2.015  0.3859 -0.1342 -0.3021
  401MOL0     C54043   3.515   3.480   2.072  0.6731 -0.6336  1.0278
  401MOL0     C54044   3.482   3.530   2.208 -0.0537 -0.6929  0.6142
  401MOL0    Cl54045   3.339   3.451   2.285  0.3942  0.0350  0.1369
  401MOL0     C54046   4.052   3.573   1.175  0.9088 -0.7400 -0.9331
  401MOL0     C54047   4.157   3.568   1.085 -0.2880  0.0902  0.7118
  401MOL0     O54048   4.272   3.373   0.902 -0.9793 -0.3474 -0.1685
  401MOL0     C54049   4.512   3.317   0.772  0.6985 -0.4519  0.3744
  401MOL0     C54050   4.608   3.300   0.678 -0.0072 -0.5217 -1.7457
  401MOL0     N54051   4.903   3.630   0.105  0.2798 -0.6954  0.1850
  401MOL0     N54052   5.015   3.692   0.118 -0.2758 -0.5677  0.1309
  401MOL0     C54053   6.215   3.511   0.493 -0.5309 -0.0960 -0.1378
  401MOL0     C54054   6.339   3.477   0.428  0.8161 -0.0098  0.3884
  401MOL0     C54055   6.624   3.219   0.181  0.4835 -0.0371  0.1206
  401MOL0     C54056   6.666   3.316   0.086  0.0112  0.0137  0.3638
  401MOL0     C54057   6.775   3.273   0.004  0.0198 -0.3448 -0.8054
  401MOL0     C54058   6.832   3.143   0.011 -1.2413 -1.2678 -0.0470
  401MOL0     O54059   6.937   3.122  -0.085  0.1626 -0.2013  1.2153
  401MOL0     C54060   6.991   2.992  -0.115  0.3286  0.0965  0.1391
  401MOL0     C54061   6.901   2.889  -0.170 -0.4140  0.5053 -0.6595
  401MOL0     C54062   6.979   2.757  -0.187  0.1818  0.3106  0.4975
  401MOL0     C54063   6.872   2.640  -0.207 -0.4142 -0.1401  0.4000
  401MOL0     C54064   6.828   2.662  -0.344 -0.3024  1.0834  0.3504
  401MOL0     C54065   6.811   2.664  -0.460 -0.4700  0.5094  0.2228
  401MOL0     C54066   6.784   3.054   0.103 -0.2702  0.3251  0.2526
  401MOL0     C54067   6.687   3.096   0.192  0.9798  0.6608 -0.3941
  401MOL0     H54068   6.205   3.310   0.162 -1.8892 -0.3333  0.5702
  401MOL0     H54069   5.996   3.359   0.286  0.2060 -0.8822 -1.8277
  401MOL0     H54070   5.923   3.683   0.595 -0.8510 -0.3688  0.2281
  401MOL0     H54071   6.012   3.699   0.447  2.3484 -3.8854 -0.7619
  401MOL0     H54072   5.762   3.746   0.401  3.7167  1.1991 -2.1663
  401MOL0     H54073   5.854   3.643   0.307 -1.0512 -2.7095 -0.9107
  401MOL0     H54074   5.733   3.441   0.449 -1.2132 -0.4345  0.8647
  401MOL0     H54075   5.641   3.560   0.524 -0.8279 -0.9236 -0.3739
  401MOL0     H54076   5.604   3.652   0.270 -3.1806 -1.0805 -3.5299
  401MOL0     H54077   5.630   3.497   0.231  0.6322  1.5264 -1.1331
  401MOL0     H54078   5.431   3.415   0.344  1.3036  0.2134 -1.6949
  401MOL0     H54079   5.441   3.549   0.469  3.5831  2.9671 -0.0313
  401MOL0     H54080   5.255   3.587   0.330 -0.7432 -0.0502 -2.2333
  401MOL0     H54081   5.372   3.712   0.298 -4.8696  1.9530 -3.9082
  401MOL0     H54082   5.443   3.530   0.102  0.6762 -0.1407 -0.1192
  401MOL0     H54083   5.317   3.445   0.167  2.2553 -0.3334 -1.7139
  401MOL0     H54084   5.285   3.601  -0.037  2.2098 -0.2940  0.7703
  401MOL0     H54085   5.280   3.731   0.072 -2.1953  0.3286 -2.2466
  401MOL0     H54086   5.100   3.389   0.025  1.0329 -0.1287  0.2028
  401MOL0     H54087   4.729   3.439  -0.026 -0.7457 -0.4978 -0.5882
  401MOL0     H54088   4.840   3.301   0.022  3.6829  1.5112 -1.8525
  401MOL0     H54089   4.655   3.304   0.166  0.6187  0.2336 -1.8729
  401MOL0     H54090   4.684   3.466   0.234  0.3570  0.8619  0.5896
  401MOL0     H54091   4.905   3.383   0.324 -0.3588  2.0400 -0.9953
  401MOL0     H54092   4.867   3.227   0.244 -2.4290  0.0978 -3.0152
  401MOL0     H54093   4.829   3.225   0.482  0.9044 -0.4233 -1.8361
  401MOL0     H54094   4.673   3.213   0.407 -0.0767  0.0386 -0.1593
  401MOL0     H54095   4.616   3.630   0.590  2.2097  0.1370  0.1617
  401MOL0     H54096   4.392   3.701   0.871 -0.1908  0.6391  0.2583
  401MOL0     H54097   4.570   3.755   0.838 -0.0427  0.9746 -0.7436
  401MOL0     H54098   4.452   3.757   0.729  1.4412  0.6291  0.2977
  401MOL0     H54099   4.378   3.388   1.292  1.0037  2.9001  1.9574
  401MOL0     H54100   4.194   3.419   1.443  0.0967 -2.2367 -1.4514
  401MOL0     H54101   3.894   3.720   1.364 -2.8494  1.6524  0.7011
  401MOL0     H54102   3.789   3.565   1.394 -0.9177  0.6602  2.1328
  401MOL0     H54103   3.951   3.693   1.607  0.6851  1.7858 -3.0506
  401MOL0     H54104   3.790   3.752   1.577  0.9443 -0.6866  0.0439
  401MOL0     H54105   3.839   3.471   1.672  2.8171  1.7522 -0.8083
  401MOL0     H54106   3.687   3.523   1.613 -0.2903  0.0309  0.2625
  401MOL0     H54107   3.815   3.642   1.860  0.9951  1.1420 -1.3715
  401MOL0     H54108   3.655   3.687   1.787  0.9953  0.2877  0.0523
  401MOL0     H54109   3.705   3.402   1.868  2.1675  1.3614 -0.8832
  401MOL0     H54110   3.575   3.482   1.807  2.1147 -0.0848 -2.6756
  401MOL0     H54111   3.730   3.550   2.068  0.1480  1.9387  0.2336
  401MOL0     H54112   3.604   3.656   2.018 -1.7966 -0.7498  2.5579
  401MOL0     H54113   3.540   3.373   2.071  1.2591 -0.5612 -2.5688
  401MOL0     H54114   3.429   3.484   2.005  1.5151 -2.5357 -0.2425
  401MOL0     H54115   3.446   3.633   2.197 -0.6253 -1.1269 -2.3782
  401MOL0     H54116   3.570   3.530   2.274 -0.3209  1.3866  1.0630
  401MOL0     H54117   3.952   3.614   1.164  0.4776  0.1532  3.7884
  401MOL0     H54118   4.143   3.615   0.988  0.9611 -0.5680  0.1845
  401MOL0     H54119   4.467   3.222   0.799 -2.8382  0.5310 -1.4536
  401MOL0     H54120   4.633   3.197   0.656 -0.3589 -0.7390 -1.1586
  401MOL0     H54121   6.208   3.577   0.579  0.1035 -1.5343  1.0637
  401MOL0     H54122   6.432   3.520   0.464  0.6701  0.3268  0.3742
  401MOL0     H54123   6.622   3.415   0.074  1.1907  0.7181  1.5857
  401MOL0     H54124   6.813   3.337  -0.076  1.8261 -0.4743 -0.0877
  401MOL0     H54125   7.065   3.010  -0.194  1.3326 -0.5573  0.9032
  401MOL0     H54126   7.033   2.955  -0.021  0.2944  0.1532  0.1761
  401MOL0     H54127   6.861   2.924  -0.266  1.6132  0.1015 -1.7284
  401MOL0     H54128   6.823   2.879  -0.094  0.5195  1.3223  0.4417
  401MOL0     H54129   7.047   2.735  -0.104  2.1145 -0.5260 -1.2155
  401MOL0     H54130   7.040   2.754  -0.278 -1.0344 -1.8099 -0.3270
  401MOL0     H54131   6.792   2.634  -0.133  0.7849 -1.3163  1.6907
  401MOL0     H54132   6.932   2.548  -0.211 -1.2463 -0.6522 -0.8655
  401MOL0     H54133   6.795   2.681  -0.565 -5.0886  0.3254  0.7241
  401MOL0     H54134   6.830   2.956   0.108 -0.8024 -0.0804 -2.0024
  401MOL0     H54135   6.651   3.023   0.264 -0.3593 -1.0696 -2.6777
  402MOL0     O54136   2.772   2.194  10.585 -0.4227 -0.4736 -1.0314
  402MOL0     C54137   2.695   2.228  10.675 -0.2033 -0.7134  0.4085
  402MOL0     O54138   2.595   2.318  10.666 -0.2462  0.2020  0.1623
  402MOL0     C54139   2.588   2.396  10.547  0.1420 -0.0544  1.0628
  402MOL0     C54140   2.544   2.524  10.543 -0.0807  1.0335 -0.2033
  402MOL0     C54141   2.518   2.595  10.429  0.3925 -0.3875  0.4006
  402MOL0     C54142   2.526   2.537  10.301  0.1528  0.1128  1.1475
  402MOL0     O54143   2.489   2.619  10.188 -0.2980 -0.3437  0.2416
  402MOL0     C54144   2.551   2.587  10.068 -0.1641  0.4340 -0.3577
  402MOL0     C54145   2.533   2.705   9.973  1.1602 -0.0908 -0.4594
  402MOL0     C54146   2.573   2.671   9.833 -0.5910 -0.9826 -0.0493
  402MOL0     C54147   2.522   2.794   9.743  0.0377  0.0916 -0.7134
  402MOL0     C54148   2.539   2.765   9.595 -0.2307  0.6215 -0.1941
  402MOL0     C54149   2.681   2.779   9.530  0.4197  0.3510 -0.5279
  402MOL0     C54150   2.691   2.734   9.381 -0.8559 -0.2910  0.8568
  402MOL0     C54151   2.825   2.761   9.314  0.5291 -0.4974  0.0706
  402MOL0     N54152   2.838   2.682   9.189  0.2994 -0.0602 -0.2082
  402MOL0     C54153   2.859   2.730   9.062 -0.2893 -0.5184 -0.5980
  402MOL0     C54154   2.865   2.629   8.983  0.5485 -0.0081  0.5883
  402MOL0     C54155   2.894   2.609   8.835  0.9505 -0.1921  0.1007
  402MOL0     C54156   3.034   2.602   8.773 -0.3689  0.1410 -0.2494
  402MOL0     C54157   3.115   2.486   8.838 -0.0913 -0.8310 -0.4950
  402MOL0     C54158   3.254   2.467   8.781 -0.1989  0.0233  0.4982
  402MOL0     O54159   3.343   2.569   8.827  0.3944 -0.0248  0.2679
  402MOL0     C54160   3.473   2.535   8.833 -0.2126 -0.1683 -0.5957
  402MOL0     C54161   3.558   2.631   8.902 -0.1830  0.2566 -0.1231
  402MOL0     C54162   3.699   2.608   8.926  1.0754 -0.7767 -0.6580
  402MOL0     C54163   3.777   2.717   8.995  0.5903  0.0979  0.0986
  402MOL0     C54164   3.751   2.486   8.885 -0.5640  0.1968  0.8166
  402MOL0     C54165   3.901   2.454   8.881  1.0870  0.0671  0.9785
  402MOL0     O54166   3.988   2.548   8.829  0.8035 -0.4812 -0.1095
  402MOL0     C54167   4.123   2.533   8.848  0.2715 -0.6110  0.2683
  402MOL0     C54168   4.180   2.483   8.957 -0.7229  0.8156 -0.5139
  402MOL0     C54169   4.315   2.462   8.980 -1.3052  0.6339  0.4603
  402MOL0     C54170   4.410   2.505   8.879 -0.6844 -0.4748 -0.6619
  402MOL0     O54171   4.547   2.512   8.883  1.0271 -0.1216  0.0597
  402MOL0     C54172   4.630   2.461   8.990 -0.1708 -0.0017  0.3231
  402MOL0     C54173   4.657   2.307   8.969 -0.0851 -0.1674 -0.3616
  402MOL0     C54174   4.747   2.274   8.851 -0.3606  0.2206 -0.6609
  402MOL0     C54175   4.896   2.294   8.902 -0.5863  0.1807  1.2175
  402MOL0     C54176   4.999   2.276   8.784 -0.2977  0.4694 -0.7862
  402MOL0     C54177   5.135   2.252   8.840 -0.5379  0.0322 -0.0414
  402MOL0     C54178   5.155   2.099   8.856  0.2192  0.0117  0.4932
  402MOL0     C54179   5.299   2.059   8.883  0.3075  0.2482 -0.0215
  402MOL0    Cl54180   5.358   2.134   9.043  0.0568 -0.2671 -0.5552
  402MOL0     C54181   4.350   2.551   8.765 -0.5097  0.6352  0.2338
  402MOL0     C54182   4.210   2.566   8.743 -0.6311 -0.1787 -0.5070
  402MOL0     O54183   3.932   2.343   8.919  0.1444  0.0877  1.0698
  402MOL0     C54184   3.669   2.388   8.820  0.3627 -0.5939  0.0224
  402MOL0     C54185   3.535   2.423   8.782  0.3660  0.3110 -0.7320
  402MOL0     N54186   2.863   2.512   9.066 -0.6072 -0.2165 -0.3285
  402MOL0     N54187   2.857   2.544   9.196  0.3068 -0.5217  0.0526
  402MOL0     C54188   2.563   2.398  10.297 -0.2099  0.0886  0.2714
  402MOL0     C54189   2.590   2.331  10.416 -0.5292 -0.0304  0.3778
  402MOL0     C54190   2.715   2.159  10.806  0.0675 -0.1404  0.8749
  402MOL0     C54191   2.816   2.071  10.838 -0.4197  0.2746 -0.1115
  402MOL0     C54192   2.812   2.011  10.962  0.1596  0.2889 -0.2974
  402MOL0     C54193   2.713   2.027  11.056 -0.2843 -0.6074  0.8458
  402MOL0     O54194   2.716   1.947  11.166  0.6115 -0.3684  0.3776
  402MOL0     C54195   2.596   1.875  11.207  0.2661  0.4202  0.2797
  402MOL0     C54196   2.545   1.943  11.337 -0.4788 -0.3772 -0.1145
  402MOL0     C54197   2.644   1.949  11.447  0.1031 -0.2521  0.1423
  402MOL0     C54198   2.583   2.008  11.578 -0.6734 -0.0943  0.0041
  402MOL0     C54199   2.520   1.902  11.660  0.0430  0.0190 -0.3412
  402MOL0     C54200   2.504   1.799  11.727  0.4898  0.2376 -0.6959
  402MOL0     C54201   2.627   2.132  11.036 -0.1425  0.8434 -0.7452
  402MOL0     C54202   2.639   2.202  10.914  0.3038  0.2576 -0.8359
  402MOL0     H54203   2.527   2.562  10.643 -2.0285 -1.7540  0.6533
  402MOL0     H54204   2.495   2.701  10.437  2.5968  0.4038 -2.1378
  402MOL0     H54205   2.656   2.560  10.084 -0.0461  1.5696  0.9553
  402MOL0     H54206   2.514   2.491  10.030 -2.9611 -0.3286  3.6777
  402MOL0     H54207   2.430   2.740   9.964  0.5471 -2.0429 -1.5113
  402MOL0     H54208   2.585   2.789  10.022 -0.8601  1.1533 -0.3131
  402MOL0     H54209   2.682   2.673   9.824 -0.4845  1.1977  0.9327
  402MOL0     H54210   2.528   2.574   9.812 -1.8807 -0.7386  1.3895
  402MOL0     H54211   2.415   2.811   9.759  0.3297  0.5746  0.9609
  402MOL0     H54212   2.575   2.882   9.782 -1.2646  0.1908  0.9575
  402MOL0     H54213   2.512   2.659   9.585  2.0623  0.1351 -2.3649
  402MOL0     H54214   2.465   2.825   9.543 -0.5048  0.0381 -0.4810
  402MOL0     H54215   2.718   2.881   9.547  0.0673  0.3235  0.4821
  402MOL0     H54216   2.743   2.708   9.586  1.0591  0.7640 -0.6916
  402MOL0     H54217   2.674   2.626   9.386  2.2667 -0.9487 -0.3962
  402MOL0     H54218   2.613   2.781   9.320 -0.5303  0.8077  1.2674
  402MOL0     H54219   2.908   2.744   9.383  2.2864 -1.1111 -2.0680
  402MOL0     H54220   2.821   2.870   9.303 -2.9900 -0.4122  0.9806
  402MOL0     H54221   2.860   2.829   9.018  1.2176 -0.0590  0.3877
  402MOL0     H54222   2.841   2.520   8.801  0.8799  0.7349 -2.4468
  402MOL0     H54223   2.841   2.688   8.780  2.3304  1.2002  0.6744
  402MOL0     H54224   3.083   2.699   8.787  5.7086 -2.7190  1.5893
  402MOL0     H54225   3.033   2.598   8.664  1.0475  0.1913 -0.2819
  402MOL0     H54226   3.054   2.396   8.825 -0.1955 -0.5884 -1.8282
  402MOL0     H54227   3.124   2.503   8.946  0.6544  0.2366 -0.7027
  402MOL0     H54228   3.245   2.461   8.672  0.1789 -1.7816  0.5291
  402MOL0     H54229   3.283   2.365   8.808 -0.3645 -1.0099 -2.7593
  402MOL0     H54230   3.507   2.715   8.949  2.6885  1.5196  0.9668
  402MOL0     H54231   3.855   2.678   9.061  2.1114  0.0330 -1.6436
  402MOL0     H54232   3.825   2.780   8.919 -1.8298  0.9085 -0.8603
  402MOL0     H54233   3.704   2.776   9.051  0.0502  0.8014 -1.2965
  402MOL0     H54234   4.116   2.443   9.034 -0.5843  0.5801 -0.5207
  402MOL0     H54235   4.363   2.432   9.073  0.7551 -0.8551 -1.0189
  402MOL0     H54236   4.726   2.513   8.992  1.7968 -3.3564  1.2865
  402MOL0     H54237   4.596   2.490   9.090  1.5291  2.6638  0.2352
  402MOL0     H54238   4.702   2.272   9.063 -2.2045  0.9482  1.1706
  402MOL0     H54239   4.561   2.255   8.965 -0.9696  1.3861  0.0514
  402MOL0     H54240   4.721   2.332   8.762 -1.5796  0.6395 -0.0644
  402MOL0     H54241   4.745   2.166   8.833 -3.1370  0.0094  0.3430
  402MOL0     H54242   4.918   2.382   8.964  0.7462  0.5766  0.2526
  402MOL0     H54243   4.920   2.204   8.959  0.6699  1.0979  2.2230
  402MOL0     H54244   4.991   2.374   8.736 -3.1166  1.2955  1.1226
  402MOL0     H54245   4.971   2.188   8.726 -1.5762 -2.6755  4.0461
  402MOL0     H54246   5.198   2.274   8.754 -1.4354  2.1861 -0.2107
  402MOL0     H54247   5.171   2.320   8.918  2.0102 -0.4280 -0.7205
  402MOL0     H54248   5.129   2.037   8.770 -0.1437 -2.5064  2.2988
  402MOL0     H54249   5.085   2.049   8.923 -1.9782 -0.7425 -2.1914
  402MOL0     H54250   5.353   2.087   8.793 -0.0626  4.4192  0.8387
  402MOL0     H54251   5.295   1.950   8.892 -1.1537  0.4421  3.2598
  402MOL0     H54252   4.427   2.573   8.691 -0.6083 -0.5604 -0.2414
  402MOL0     H54253   4.175   2.606   8.648  2.7462 -0.0852 -1.8543
  402MOL0     H54254   3.706   2.289   8.793 -0.9122 -1.0085 -0.3204
  402MOL0     H54255   3.477   2.335   8.754 -1.8003  1.4202  0.0479
  402MOL0     H54256   2.565   2.348  10.201 -1.2696  2.3980 -1.0420
  402MOL0     H54257   2.610   2.224  10.411 -0.7438 -0.0724  0.4172
  402MOL0     H54258   2.893   2.035  10.771  1.3091  0.5725  1.6392
  402MOL0     H54259   2.892   1.937  10.959 -1.0261 -1.0516 -0.1263
  402MOL0     H54260   2.521   1.881  11.127  1.8717 -1.0874 -1.4294
  402MOL0     H54261   2.612   1.772  11.241  1.2461  0.0956 -1.1040
  402MOL0     H54262   2.459   1.892  11.380 -2.7059  3.3129  0.2578
  402MOL0     H54263   2.519   2.048  11.321  2.6151  1.1428  3.3396
  402MOL0     H54264   2.728   2.014  11.419  1.5126 -2.2455 -0.5074
  402MOL0     H54265   2.675   1.846  11.468 -0.2143 -0.5564 -0.8072
  402MOL0     H54266   2.505   2.075  11.539 -1.3948 -1.4475 -0.9542
  402MOL0     H54267   2.667   2.057  11.628 -1.2917  2.1581 -1.0095
  402MOL0     H54268   2.500   1.715  11.793 -2.0283 -0.9989 -2.2319
  402MOL0     H54269   2.569   2.170  11.120 -1.7888 -3.0990  0.1148
  402MOL0     H54270   2.573   2.284  10.885  0.9931  0.6478 -1.3269
  403MOL0     O54271   5.063   9.007   4.178 -0.4280  0.0940 -0.5454
  403MOL0     C54272   5.071   8.928   4.092 -1.0124  0.0424 -0.3557
  403MOL0     O54273   5.051   8.955   3.950 -0.3331  0.0592 -0.2632
  403MOL0     C54274   5.027   9.080   3.891 -0.9425 -0.7336 -0.3028
  403MOL0     C54275   5.032   9.202   3.966  0.6774  0.1475 -0.9644
  403MOL0     C54276   5.040   9.320   3.899  0.4310  0.3184  0.3255
  403MOL0     C54277   5.025   9.331   3.757  0.0031 -0.5392 -0.2020
  403MOL0     O54278   5.043   9.443   3.688 -0.5900 -0.8863  0.1259
  403MOL0     C54279   5.185   9.475   3.679 -0.1865  0.5616  0.5334
  403MOL0     C54280   5.202   9.535   3.536 -0.0978 -0.0157 -0.5447
  403MOL0     C54281   5.083   9.627   3.495 -0.1283  0.0212 -0.2267
  403MOL0     C54282   5.132   9.754   3.429  0.6083  0.1482 -0.5665
  403MOL0     C54283   5.019   9.842   3.382 -0.2312  0.5856 -0.9356
  403MOL0     C54284   4.953   9.932   3.488  0.9482  0.7402  0.2596
  403MOL0     C54285   4.809   9.986   3.448 -0.3380 -0.6963 -0.1712
  403MOL0     C54286   4.687   9.899   3.470  0.3072 -0.0837 -0.6598
  403MOL0     N54287   4.567   9.972   3.486  0.2049 -0.5588  0.1729
  403MOL0     C54288   4.534  10.101   3.438 -0.3551  0.3295 -1.1219
  403MOL0     C54289   4.399  10.116   3.458  0.2432  1.1690  0.6444
  403MOL0     C54290   4.329  10.239   3.428 -0.8148  0.2070 -0.4848
  403MOL0     C54291   4.347  10.336   3.541  1.4326  0.7244 -0.4632
  403MOL0     C54292   4.263  10.466   3.522 -0.2990 -0.2202 -0.1104
  403MOL0     C54293   4.111  10.453   3.529 -1.2602  0.9498  0.0123
  403MOL0     O54294   4.043  10.560   3.587  0.0744  0.2668  0.0606
  403MOL0     C54295   4.009  10.540   3.725 -0.0005  0.5371  0.4629
  403MOL0     C54296   3.892  10.603   3.761  0.3465  0.1606 -0.2512
  403MOL0     C54297   3.829  10.595   3.882 -0.6863  0.4619  0.5701
  403MOL0     C54298   3.686  10.620   3.887 -0.8198  0.0544  0.2297
  403MOL0     C54299   3.882  10.499   3.968 -0.8158  0.1077 -0.1715
  403MOL0     C54300   3.805  10.452   4.087 -0.4597  0.4875 -0.7300
  403MOL0     O54301   3.836  10.323   4.132  0.4267  0.4051  0.0582
  403MOL0     C54302   3.758  10.266   4.230  0.4307 -0.1776 -0.3847
  403MOL0     C54303   3.626  10.234   4.207 -0.0651  0.2400 -0.0465
  403MOL0     C54304   3.550  10.160   4.300 -0.3762 -0.8559 -0.0909
  403MOL0     C54305   3.601  10.128   4.429  0.9171 -0.4928  0.3937
  403MOL0     O54306   3.522  10.077   4.527  0.1671  0.6145  0.1858
  403MOL0     C54307   3.563  10.103   4.661 -0.2884  0.0024  0.9547
  403MOL0     C54308   3.470  10.053   4.767 -0.4417 -0.1613  0.3114
  403MOL0     C54309   3.543  10.047   4.899  0.9917  0.6901  0.3027
  403MOL0     C54310   3.455   9.983   5.005 -0.8581 -0.6653 -0.1775
  403MOL0     C54311   3.541   9.968   5.131  0.8459  1.3659  0.2193
  403MOL0     C54312   3.451   9.941   5.265  0.5681 -0.1474  1.0697
  403MOL0     C54313   3.372   9.807   5.249  0.8117 -0.4200 -0.4725
  403MOL0     C54314   3.442   9.671   5.275  0.2501 -0.4977 -0.0396
  403MOL0    Cl54315   3.567   9.641   5.153 -0.1339  0.1863 -0.0476
  403MOL0     C54316   3.735  10.155   4.453 -0.1376 -1.1392  0.4178
  403MOL0     C54317   3.809  10.220   4.352 -0.8098 -0.1018  0.5836
  403MOL0     O54318   3.736  10.527   4.150  0.3291 -0.7766 -0.5062
  403MOL0     C54319   4.016  10.451   3.942 -0.0156  0.1114  0.3909
  403MOL0     C54320   4.086  10.475   3.823  0.2105 -0.0930  0.4307
  403MOL0     N54321   4.358  10.002   3.515  0.3303  0.2488 -1.0636
  403MOL0     N54322   4.451   9.917   3.532 -0.3611  0.6106 -0.5797
  403MOL0     C54323   5.007   9.212   3.682  0.3256 -0.6681 -0.3842
  403MOL0     C54324   5.017   9.090   3.748 -0.4557  0.3477 -0.7210
  403MOL0     C54325   5.099   8.788   4.131  0.2631 -1.0042 -0.1235
  403MOL0     C54326   5.112   8.685   4.041  0.3795 -0.0666 -0.7900
  403MOL0     C54327   5.131   8.554   4.083  0.1389 -0.6859 -0.6527
  403MOL0     C54328   5.147   8.521   4.219  1.0494  0.0332  0.3203
  403MOL0     O54329   5.165   8.387   4.263  0.6661 -0.1967 -0.2911
  403MOL0     C54330   5.122   8.279   4.179  2.0053  0.2487 -1.0476
  403MOL0     C54331   4.963   8.271   4.167 -0.1865 -0.6593 -0.2842
  403MOL0     C54332   4.897   8.205   4.292 -0.4375  0.3236  0.2792
  403MOL0     C54333   4.754   8.236   4.312 -0.5068  0.4590 -0.1770
  403MOL0     C54334   4.686   8.174   4.428 -0.1460  0.9548 -0.1759
  403MOL0     C54335   4.620   8.127   4.513 -0.2316  0.3743  0.7093
  403MOL0     C54336   5.163   8.629   4.311  0.4217  0.5288 -0.9423
  403MOL0     C54337   5.127   8.755   4.267  0.2660  0.3705  0.0553
  403MOL0     H54338   5.049   9.217   4.072  3.2504 -0.0282 -1.2996
  403MOL0     H54339   5.054   9.417   3.947  0.6826  0.2836  0.3245
  403MOL0     H54340   5.193   9.553   3.756  1.9085 -0.2138  1.1691
  403MOL0     H54341   5.247   9.386   3.688 -0.6777 -0.0832 -1.8426
  403MOL0     H54342   5.295   9.591   3.524  0.3714 -1.3054 -3.8081
  403MOL0     H54343   5.209   9.453   3.464 -1.2646  1.5363 -2.5455
  403MOL0     H54344   5.029   9.561   3.426  3.2873 -2.5825 -0.7112
  403MOL0     H54345   5.013   9.662   3.572 -1.0140  1.5187 -1.6287
  403MOL0     H54346   5.194   9.814   3.496 -2.5804  2.3013  0.7453
  403MOL0     H54347   5.191   9.723   3.342 -1.6985  3.5862 -3.6961
  403MOL0     H54348   5.049   9.907   3.299 -0.1563  0.7804 -0.7560
  403MOL0     H54349   4.942   9.781   3.333 -0.1310 -0.4307  0.1194
  403MOL0     H54350   4.926   9.866   3.570 -3.0788  0.1945 -1.2626
  403MOL0     H54351   5.016  10.007   3.536  0.2686  0.4123  1.7262
  403MOL0     H54352   4.787  10.073   3.510 -1.1629 -3.1071  3.1875
  403MOL0     H54353   4.818  10.024   3.346  1.5401  2.1641  0.9308
  403MOL0     H54354   4.709   9.830   3.552 -2.1531 -1.5555 -1.1364
  403MOL0     H54355   4.676   9.838   3.380 -1.8573  0.4429 -0.8107
  403MOL0     H54356   4.600  10.175   3.394 -1.4964  0.3580 -2.8704
  403MOL0     H54357   4.369  10.291   3.341 -1.2861 -1.7318 -1.9217
  403MOL0     H54358   4.224  10.208   3.422 -1.2379  0.3163  3.5301
  403MOL0     H54359   4.449  10.361   3.570  1.6520 -1.1300  0.5486
  403MOL0     H54360   4.312  10.276   3.626  0.1671 -1.2039 -2.2149
  403MOL0     H54361   4.297  10.500   3.424 -0.3717 -0.3565 -0.1838
  403MOL0     H54362   4.291  10.538   3.599 -2.6671  0.1864  0.4498
  403MOL0     H54363   4.087  10.367   3.592  2.9660 -0.2840  0.2220
  403MOL0     H54364   4.069  10.429   3.431  1.5157 -0.7541 -0.8669
  403MOL0     H54365   3.845  10.641   3.670  0.0275  2.2040  0.7100
  403MOL0     H54366   3.647  10.656   3.791 -0.4337  0.6453  0.2886
  403MOL0     H54367   3.632  10.527   3.909 -0.1822 -0.5337 -0.6267
  403MOL0     H54368   3.674  10.698   3.963 -0.9706 -0.9397  1.2534
  403MOL0     H54369   3.578  10.280   4.122 -2.3204  1.1457  1.6014
  403MOL0     H54370   3.448  10.147   4.268 -0.1306 -1.6115 -0.5911
  403MOL0     H54371   3.656  10.047   4.677  1.9126  3.0753 -0.2068
  403MOL0     H54372   3.576  10.211   4.666  1.3377  0.1575 -3.0258
  403MOL0     H54373   3.381  10.115   4.779  0.0213  1.0355 -2.0625
  403MOL0     H54374   3.452   9.946   4.749  1.1252 -0.0162 -2.5718
  403MOL0     H54375   3.576  10.148   4.925  1.4571  0.6334 -0.0479
  403MOL0     H54376   3.634   9.991   4.877 -0.5169 -1.5485 -0.5387
  403MOL0     H54377   3.374  10.056   5.015  0.6417  1.2325 -1.1797
  403MOL0     H54378   3.415   9.887   4.969 -1.9842 -0.1935 -0.2129
  403MOL0     H54379   3.590  10.064   5.148 -1.5475  2.4629  1.4204
  403MOL0     H54380   3.616   9.889   5.125 -0.5344 -0.0978  1.4117
  403MOL0     H54381   3.522   9.944   5.348  0.0500 -0.6875  1.5399
  403MOL0     H54382   3.384  10.028   5.262  2.5293  1.4304 -1.3260
  403MOL0     H54383   3.334   9.784   5.149  1.1740 -1.7519 -0.3171
  403MOL0     H54384   3.296   9.805   5.327  0.0229 -2.0855 -1.2240
  403MOL0     H54385   3.368   9.591   5.273  1.1517 -1.4583  1.9937
  403MOL0     H54386   3.483   9.667   5.376  1.0554 -3.8947 -0.3894
  403MOL0     H54387   3.778  10.141   4.552 -1.0556 -0.5158  0.9126
  403MOL0     H54388   3.916  10.237   4.361 -1.3933  3.9532  2.1375
  403MOL0     H54389   4.070  10.391   4.015 -0.7613 -1.9415 -0.6604
  403MOL0     H54390   4.185  10.435   3.802 -0.3071 -0.3199 -1.8347
  403MOL0     H54391   4.995   9.215   3.575 -0.2274 -0.7053 -0.3294
  403MOL0     H54392   5.010   8.994   3.697  3.6012 -0.9748  0.8044
  403MOL0     H54393   5.118   8.706   3.934  0.7245  0.8866 -0.5922
  403MOL0     H54394   5.129   8.475   4.008 -1.5232 -0.3745 -0.9760
  403MOL0     H54395   5.164   8.275   4.078  3.0089 -2.2423 -0.6297
  403MOL0     H54396   5.148   8.188   4.234 -0.0254  0.7440  0.8634
  403MOL0     H54397   4.936   8.200   4.088 -0.8287 -2.5186  1.5174
  403MOL0     H54398   4.921   8.370   4.149  3.6271  0.7786 -2.3270
  403MOL0     H54399   4.947   8.242   4.383  0.5234  1.2241 -0.5781
  403MOL0     H54400   4.914   8.099   4.276 -1.4674  0.4336 -1.7975
  403MOL0     H54401   4.702   8.231   4.216  0.7814  1.2122 -0.9398
  403MOL0     H54402   4.748   8.343   4.334 -0.7899  0.3656  0.2142
  403MOL0     H54403   4.561   8.064   4.576  0.7318  1.4107  2.7493
  403MOL0     H54404   5.181   8.602   4.415 -0.1591 -3.3935 -1.6860
  403MOL0     H54405   5.131   8.832   4.343  1.3769  0.2380  0.1448
  404MOL0     O54406  11.173  10.251   0.873 -0.3354  0.7062  0.2828
  404MOL0     C54407  11.260  10.305   0.935  0.2953 -0.0623 -0.1433
  404MOL0     O54408  11.257  10.432   0.982 -0.4871 -0.5286  0.0418
  404MOL0     C54409  11.154  10.517   0.948  0.0622  0.4198  0.0559
  404MOL0     C54410  11.080  10.575   1.046 -0.5519  0.2013 -0.0983
  404MOL0     C54411  10.998  10.685   1.021  0.5228 -0.7722  0.2355
  404MOL0     C54412  10.994  10.745   0.894 -0.3176  0.0787 -1.1214
  404MOL0     O54413  10.926  10.855   0.864  0.7240  0.1834  0.0508
  404MOL0     C54414  10.785  10.834   0.857 -0.2275 -0.4721 -0.1706
  404MOL0     C54415  10.704  10.863   0.984 -0.6001 -0.1310  0.4102
  404MOL0     C54416  10.640  11.006   0.995  0.4715 -0.9355  0.2197
  404MOL0     C54417  10.753  11.113   0.977 -0.2234 -0.5185  0.0352
  404MOL0     C54418  10.737  11.253   1.031 -0.6831  0.4299 -0.5359
  404MOL0     C54419  10.624  11.331   0.957 -0.2693  0.3861  0.0334
  404MOL0     C54420  10.603  11.457   1.021  0.1550  0.2195  0.2549
  404MOL0     C54421  10.486  11.521   0.960 -0.1679  0.2324 -0.5893
  404MOL0     N54422  10.446  11.644   1.033 -0.0734  0.0165 -0.9222
  404MOL0     C54423  10.360  11.665   1.147 -0.1369 -0.6616 -0.3904
  404MOL0     C54424  10.355  11.804   1.174  0.2516 -0.6021  1.0676
  404MOL0     C54425  10.280  11.872   1.281 -0.1856 -0.2440  0.8310
  404MOL0     C54426  10.159  11.949   1.220  0.0133 -0.8626  0.2815
  404MOL0     C54427  10.044  11.968   1.316  0.0000 -0.3594 -0.4845
  404MOL0     C54428   9.934  11.861   1.322 -0.7391 -0.5210 -0.1655
  404MOL0     O54429   9.839  11.887   1.433  0.1244 -0.0827 -0.1252
  404MOL0     C54430   9.720  11.820   1.418 -0.3459 -0.2511 -1.1855
  404MOL0     C54431   9.612  11.882   1.463  0.4219 -0.1777  0.3640
  404MOL0     C54432   9.483  11.821   1.465 -0.5787  0.7174  0.1068
  404MOL0     C54433   9.370  11.898   1.537 -0.1329  0.1372 -1.2012
  404MOL0     C54434   9.471  11.687   1.408  0.5684 -0.3309 -0.3528
  404MOL0     C54435   9.336  11.618   1.410  0.9452 -0.5285 -0.4605
  404MOL0     O54436   9.341  11.481   1.409  0.0185  0.0157  0.7846
  404MOL0     C54437   9.234  11.392   1.392  0.1602 -0.1079  0.6586
  404MOL0     C54438   9.251  11.266   1.444  0.1908 -0.6497 -0.4536
  404MOL0     C54439   9.155  11.163   1.424 -0.2714 -0.4252 -1.3325
  404MOL0     C54440   9.027  11.196   1.368 -0.2261  0.2196 -0.4237
  404MOL0     O54441   8.934  11.094   1.360 -0.9330  0.0446  1.2436
  404MOL0     C54442   8.801  11.147   1.344  1.0725  0.4869  0.0299
  404MOL0     C54443   8.702  11.035   1.382 -0.8428  0.1238  0.1542
  404MOL0     C54444   8.720  10.974   1.522 -0.3846  0.1416  0.3844
  404MOL0     C54445   8.636  10.838   1.546 -0.9878  0.2050  0.1988
  404MOL0     C54446   8.616  10.795   1.691 -0.4861  0.4025  0.3099
  404MOL0     C54447   8.501  10.690   1.713 -0.7594  0.4886 -0.6327
  404MOL0     C54448   8.370  10.713   1.647  0.7601  0.5609  0.3286
  404MOL0     C54449   8.308  10.859   1.691  0.0371  0.3621 -0.2350
  404MOL0    Cl54450   8.281  10.861   1.870  0.3898  0.4937 -0.7407
  404MOL0     C54451   9.010  11.322   1.309 -0.7001 -0.0302  0.5209
  404MOL0     C54452   9.114  11.418   1.322  0.5883  0.5494  0.2145
  404MOL0     O54453   9.236  11.682   1.400 -0.4694  0.6330  0.6545
  404MOL0     C54454   9.589  11.619   1.365  0.5633 -0.7634  0.2965
  404MOL0     C54455   9.709  11.693   1.369 -0.7701 -0.0099 -0.3405
  404MOL0     N54456  10.438  11.862   1.071  0.1948 -0.2785 -0.2430
  404MOL0     N54457  10.493  11.774   0.995  0.2238  0.0062  0.6559
  404MOL0     C54458  11.083  10.691   0.803 -0.7871  1.4392 -0.1022
  404MOL0     C54459  11.158  10.574   0.821 -0.5165 -0.3279  0.4200
  404MOL0     C54460  11.379  10.227   0.973 -0.8866  0.4503 -0.5898
  404MOL0     C54461  11.472  10.284   1.067  0.4686  0.1457 -0.3219
  404MOL0     C54462  11.594  10.222   1.088  0.0818  0.0047 -0.0598
  404MOL0     C54463  11.614  10.095   1.030  0.6164 -1.3968 -1.0629
  404MOL0     O54464  11.728  10.035   1.077 -0.1625 -0.1928  0.8912
  404MOL0     C54465  11.845  10.076   1.002  0.3092 -0.4435  0.0919
  404MOL0     C54466  11.966   9.982   1.025  0.7266 -0.0961 -1.3319
  404MOL0     C54467  11.945   9.838   1.004 -1.1206 -0.1784  0.2870
  404MOL0     C54468  11.942   9.805   0.859  0.5104  0.9089  0.2280
  404MOL0     C54469  11.862   9.682   0.826  1.1962 -0.3230  0.3906
  404MOL0     C54470  11.802   9.578   0.809 -0.5510 -0.7842 -0.5828
  404MOL0     C54471  11.522  10.043   0.936 -0.1567  0.8574  0.3739
  404MOL0     C54472  11.409  10.108   0.905 -0.4186 -0.9187  0.2393
  404MOL0     H54473  11.084  10.528   1.144 -0.0154 -2.1012 -1.1537
  404MOL0     H54474  10.938  10.737   1.094  0.3208 -0.8172  0.1016
  404MOL0     H54475  10.740  10.900   0.782  0.9014  0.9586  0.3540
  404MOL0     H54476  10.768  10.730   0.828  2.7180 -0.2473 -3.3969
  404MOL0     H54477  10.628  10.790   1.014 -1.2400  1.4443  2.8669
  404MOL0     H54478  10.769  10.861   1.072 -0.1286  3.0688  0.2602
  404MOL0     H54479  10.551  11.019   0.934 -0.3169 -1.0072  1.3355
  404MOL0     H54480  10.590  11.005   1.092 -1.5512 -1.8702 -0.7939
  404MOL0     H54481  10.851  11.082   1.015 -0.1642  0.1132  0.4228
  404MOL0     H54482  10.766  11.115   0.868 -1.2172 -2.1785 -0.1499
  404MOL0     H54483  10.727  11.249   1.140 -0.0217  0.4522 -0.4685
  404MOL0     H54484  10.830  11.300   0.997 -1.7002  1.7451 -1.5988
  404MOL0     H54485  10.660  11.357   0.857  1.8486  0.9891  0.8790
  404MOL0     H54486  10.537  11.265   0.962  1.6364 -2.1944  1.4092
  404MOL0     H54487  10.581  11.441   1.127 -0.4747  0.5014  0.1681
  404MOL0     H54488  10.690  11.522   1.011  0.7012 -0.3425  1.2430
  404MOL0     H54489  10.397  11.459   0.963 -0.2525  0.1789 -2.6561
  404MOL0     H54490  10.511  11.536   0.855 -0.6002  1.7166 -0.5116
  404MOL0     H54491  10.290  11.599   1.198 -2.2763  1.5088 -0.2969
  404MOL0     H54492  10.244  11.798   1.354  0.8014  0.5071  2.1197
  404MOL0     H54493  10.343  11.941   1.339 -0.2919  0.0281  0.6239
  404MOL0     H54494  10.113  11.888   1.142  1.1566 -1.9306  0.4069
  404MOL0     H54495  10.178  12.050   1.182  0.3695 -1.0065  0.0668
  404MOL0     H54496   9.993  12.061   1.288 -0.2618 -0.4809 -0.4141
  404MOL0     H54497  10.085  11.988   1.416 -1.4122  0.5439 -0.0611
  404MOL0     H54498   9.996  11.773   1.342  1.1366  0.6641 -0.4702
  404MOL0     H54499   9.880  11.861   1.227  0.7851  3.6450 -1.2476
  404MOL0     H54500   9.613  11.983   1.503 -0.5647 -0.2056  0.4813
  404MOL0     H54501   9.408  11.975   1.605  1.1409 -1.0889 -0.4852
  404MOL0     H54502   9.309  11.945   1.459  0.8757 -1.2966 -2.9175
  404MOL0     H54503   9.306  11.836   1.600 -0.0603  1.3138  0.0619
  404MOL0     H54504   9.347  11.251   1.492 -0.1165  3.3303  1.8447
  404MOL0     H54505   9.189  11.068   1.464 -0.1351  0.6796  1.3819
  404MOL0     H54506   8.781  11.240   1.398 -1.5326 -1.0038  1.8412
  404MOL0     H54507   8.791  11.160   1.236  1.1458 -1.2729 -0.2153
  404MOL0     H54508   8.603  11.082   1.381 -0.4593  1.1041  2.5453
  404MOL0     H54509   8.710  10.958   1.304 -2.3346 -0.1852  0.2779
  404MOL0     H54510   8.692  11.049   1.596 -1.0869  1.0788 -0.7863
  404MOL0     H54511   8.826  10.949   1.539 -0.1246  0.5082 -0.5989
  404MOL0     H54512   8.539  10.851   1.496 -1.1546  1.2902  0.7906
  404MOL0     H54513   8.680  10.750   1.498  0.4110 -0.5750  2.7360
  404MOL0     H54514   8.598  10.886   1.748 -2.6651  0.2921 -0.1077
  404MOL0     H54515   8.708  10.744   1.723 -0.1601 -0.6268 -2.0411
  404MOL0     H54516   8.552  10.593   1.701  1.7507  1.5989  0.3055
  404MOL0     H54517   8.486  10.679   1.821 -0.2494  0.5476 -0.5505
  404MOL0     H54518   8.296  10.641   1.681  1.6283  1.1650  3.8841
  404MOL0     H54519   8.379  10.720   1.538 -0.9738  1.5760  0.2151
  404MOL0     H54520   8.215  10.871   1.634  1.0416 -1.3218 -2.4268
  404MOL0     H54521   8.387  10.931   1.668 -1.6467  1.9825 -1.2394
  404MOL0     H54522   8.919  11.354   1.260 -1.4860 -2.2947  0.3916
  404MOL0     H54523   9.099  11.514   1.275  0.6708  1.1428  1.3685
  404MOL0     H54524   9.586  11.519   1.322 -2.2975  0.3165 -2.4398
  404MOL0     H54525   9.799  11.638   1.342 -0.9799 -0.9996  0.8992
  404MOL0     H54526  11.098  10.744   0.710 -0.8108  3.3050  0.9006
  404MOL0     H54527  11.223  10.539   0.741 -0.2355  0.1189  0.4491
  404MOL0     H54528  11.470  10.381   1.115  3.4271  0.3173 -0.3431
  404MOL0     H54529  11.663  10.276   1.152  2.5408  1.2492 -3.4651
  404MOL0     H54530  11.834  10.074   0.894  1.3984 -1.3836 -0.0157
  404MOL0     H54531  11.871  10.178   1.032 -0.5694  0.8203 -3.0220
  404MOL0     H54532  11.989   9.988   1.131  0.8222 -0.7972 -1.3142
  404MOL0     H54533  12.057  10.019   0.977  2.9692 -3.4070  0.0288
  404MOL0     H54534  11.857   9.806   1.061  0.2774 -1.8309  1.6587
  404MOL0     H54535  12.035   9.784   1.035 -1.0474 -3.0893 -4.1323
  404MOL0     H54536  12.043   9.784   0.824  0.2994  0.9047 -0.3982
  404MOL0     H54537  11.913   9.890   0.796 -0.8115  1.3481  1.3629
  404MOL0     H54538  11.735   9.494   0.811 -2.5943  0.5905 -3.6243
  404MOL0     H54539  11.557   9.952   0.888  1.9748  2.4208 -1.2912
  404MOL0     H54540  11.336  10.084   0.829 -0.0320 -1.4638  0.0278
  405MOL0     O54541   1.327   6.473   3.361 -0.4632 -0.1779  0.4771
  405MOL0     C54542   1.303   6.483   3.484  0.0938 -1.1131 -0.2412
  405MOL0     O54543   1.327   6.380   3.580  0.1436 -0.5652 -0.1591
  405MOL0     C54544   1.416   6.278   3.563 -0.4076 -0.4098 -0.0896
  405MOL0     C54545   1.506   6.259   3.460  0.3588 -0.0283  0.2174
  405MOL0     C54546   1.602   6.149   3.459 -0.2433  0.0536 -0.0345
  405MOL0     C54547   1.609   6.061   3.570 -0.2268  0.0844 -0.1959
  405MOL0     O54548   1.706   5.966   3.599  0.5177  0.4985  0.1117
  405MOL0     C54549   1.791   5.924   3.492  0.5988 -0.1622  0.5329
  405MOL0     C54550   1.922   5.851   3.526  1.7890 -0.3488 -1.0079
  405MOL0     C54551   1.889   5.739   3.618 -1.1382 -0.1185  0.6290
  405MOL0     C54552   2.004   5.641   3.659 -1.0081 -0.6951  0.4028
  405MOL0     C54553   1.972   5.541   3.773  0.3736  0.0149 -0.2463
  405MOL0     C54554   1.877   5.438   3.732  0.2489 -0.4585 -0.3826
  405MOL0     C54555   1.856   5.328   3.844 -0.9421 -0.1841 -0.1820
  405MOL0     C54556   1.731   5.240   3.817 -0.4643 -0.1253  1.4093
  405MOL0     N54557   1.712   5.151   3.936  0.5012 -0.0344 -1.0985
  405MOL0     C54558   1.788   5.041   3.959 -0.4886 -0.1027  0.6285
  405MOL0     C54559   1.758   5.002   4.084 -0.0439  0.4565 -0.1713
  405MOL0     C54560   1.830   4.886   4.156  0.7920 -0.2526  0.1238
  405MOL0     C54561   1.749   4.818   4.274 -0.3228 -0.4922  0.0699
  405MOL0     C54562   1.831   4.698   4.323  0.9679  0.4425 -0.4634
  405MOL0     C54563   1.954   4.736   4.390 -0.4995  0.3756  0.2530
  405MOL0     O54564   2.018   4.630   4.461 -0.3408 -0.2835  0.0349
  405MOL0     C54565   2.114   4.668   4.546 -0.1575  0.0833  0.3189
  405MOL0     C54566   2.088   4.742   4.663  0.5677  0.4040  0.5477
  405MOL0     C54567   2.194   4.801   4.737  0.0686 -0.5021 -0.2037
  405MOL0     C54568   2.166   4.888   4.861 -0.5426  0.4716  0.6097
  405MOL0     C54569   2.326   4.783   4.686  0.1787  0.1817  0.5302
  405MOL0     C54570   2.448   4.822   4.755  0.3591  0.3070  0.3849
  405MOL0     O54571   2.445   4.865   4.880  0.4811  0.2606 -0.5107
  405MOL0     C54572   2.537   4.954   4.928 -0.2596  0.1910  0.1451
  405MOL0     C54573   2.590   5.058   4.853 -0.3287 -0.3250  0.0162
  405MOL0     C54574   2.683   5.146   4.917 -1.0891  0.6626 -0.0141
  405MOL0     C54575   2.740   5.108   5.042  0.9881 -0.4812  0.4454
  405MOL0     O54576   2.842   5.193   5.087  0.5892  0.4046  0.7424
  405MOL0     C54577   2.907   5.150   5.205 -0.7836 -0.0553  0.0259
  405MOL0     C54578   3.028   5.239   5.216  0.0331  0.9672 -0.4262
  405MOL0     C54579   3.107   5.174   5.329 -0.2825  0.0026  0.4921
  405MOL0     C54580   3.181   5.281   5.412  0.7770 -0.3690  0.3665
  405MOL0     C54581   3.312   5.223   5.474  0.4316 -0.5614 -0.1793
  405MOL0     C54582   3.262   5.103   5.556  0.1785 -0.8614  0.7311
  405MOL0     C54583   3.368   5.043   5.647 -0.8688  0.1406  0.3140
  405MOL0     C54584   3.359   4.940   5.764  0.6905 -0.2035  0.1988
  405MOL0    Cl54585   3.270   4.799   5.714  0.0595  0.2125 -0.0155
  405MOL0     C54586   2.694   4.997   5.108  0.2775 -0.0610 -0.4647
  405MOL0     C54587   2.588   4.930   5.053 -0.0572 -0.0988 -0.1541
  405MOL0     O54588   2.552   4.820   4.690 -0.2503 -0.1431  0.1101
  405MOL0     C54589   2.348   4.706   4.571 -0.3476  0.6493 -0.2917
  405MOL0     C54590   2.238   4.657   4.498 -0.1455 -0.2175  0.1740
  405MOL0     N54591   1.671   5.086   4.144 -0.5952 -0.1719 -0.8684
  405MOL0     N54592   1.647   5.176   4.058 -0.2273  0.0690  0.0600
  405MOL0     C54593   1.497   6.063   3.654  0.5899 -0.3849 -0.4865
  405MOL0     C54594   1.412   6.174   3.663 -1.0702  0.0208 -0.2879
  405MOL0     C54595   1.239   6.601   3.526 -0.0997 -0.4446 -0.6057
  405MOL0     C54596   1.236   6.622   3.662  1.0009 -0.0229 -0.5385
  405MOL0     C54597   1.163   6.734   3.717 -0.7607 -0.1542  0.3503
  405MOL0     C54598   1.095   6.827   3.637 -0.0771  0.4604  0.2823
  405MOL0     O54599   1.025   6.930   3.697 -0.2730 -0.3074 -0.0861
  405MOL0     C54600   0.998   6.922   3.833  0.1569  0.2355 -0.5713
  405MOL0     C54601   0.930   7.049   3.862  0.0893 -0.1578  0.6629
  405MOL0     C54602   0.790   7.047   3.790  0.8329  0.6495  0.4186
  405MOL0     C54603   0.682   7.130   3.864  0.0850  1.3056 -0.7265
  405MOL0     C54604   0.730   7.261   3.894  0.5837 -0.0604 -0.6153
  405MOL0     C54605   0.751   7.374   3.932  0.3606  0.1838 -0.3626
  405MOL0     C54606   1.094   6.810   3.494 -0.3922 -0.7101 -0.1600
  405MOL0     C54607   1.171   6.696   3.443  0.4129  0.7161  1.7967
  405MOL0     H54608   1.511   6.319   3.370 -0.1444  2.6794  1.9060
  405MOL0     H54609   1.682   6.161   3.386 -1.6231 -0.2808 -1.6558
  405MOL0     H54610   1.727   5.860   3.431 -0.1680  2.0228 -1.0742
  405MOL0     H54611   1.826   6.008   3.431  0.2142 -0.7416 -0.5205
  405MOL0     H54612   1.952   5.815   3.428  0.8990  1.3726 -1.9541
  405MOL0     H54613   1.994   5.918   3.573  0.6427 -1.6496  3.0292
  405MOL0     H54614   1.837   5.769   3.710 -0.8988 -0.9961  1.0502
  405MOL0     H54615   1.819   5.669   3.571 -1.3048  0.3964  0.0966
  405MOL0     H54616   2.036   5.596   3.565  2.4422 -1.6493  1.8881
  405MOL0     H54617   2.083   5.703   3.702 -1.5508  0.1547  0.2026
  405MOL0     H54618   2.066   5.490   3.796 -0.4624 -2.3192 -1.6585
  405MOL0     H54619   1.933   5.586   3.865  0.6344 -1.3655  0.5768
  405MOL0     H54620   1.783   5.490   3.709 -1.8453 -3.6572  0.3683
  405MOL0     H54621   1.908   5.395   3.636  0.2576 -0.6594 -0.2899
  405MOL0     H54622   1.951   5.274   3.858 -0.7329  0.2332  0.0350
  405MOL0     H54623   1.840   5.388   3.933  0.4186  1.7826 -1.2012
  405MOL0     H54624   1.748   5.176   3.730  1.1188 -0.0073  1.6034
  405MOL0     H54625   1.645   5.305   3.796 -0.3079 -0.5103 -0.5238
  405MOL0     H54626   1.866   4.998   3.896  0.4595  3.0400 -0.5302
  405MOL0     H54627   1.862   4.806   4.088  1.5256  0.9107 -0.9466
  405MOL0     H54628   1.924   4.929   4.193  1.7025 -2.6224  0.7757
  405MOL0     H54629   1.659   4.780   4.225 -0.6899  0.8682 -0.3373
  405MOL0     H54630   1.722   4.887   4.354 -0.9569  0.5338 -0.9953
  405MOL0     H54631   1.848   4.627   4.241 -1.2515 -1.2099  0.3935
  405MOL0     H54632   1.764   4.645   4.392  3.2948 -1.7317  0.2770
  405MOL0     H54633   1.930   4.827   4.445 -1.4006  0.7942 -0.8035
  405MOL0     H54634   2.021   4.777   4.314 -2.0378  3.3706  0.3586
  405MOL0     H54635   1.985   4.771   4.677  0.4333 -0.1854  0.7904
  405MOL0     H54636   2.059   4.907   4.869 -0.2972  2.0918  0.3749
  405MOL0     H54637   2.190   4.823   4.947 -1.2210  1.6565  1.7247
  405MOL0     H54638   2.222   4.982   4.869  0.5104 -0.2024  1.5807
  405MOL0     H54639   2.554   5.088   4.755 -0.4556  1.8186  0.6679
  405MOL0     H54640   2.715   5.237   4.867 -0.6084  0.1803 -0.5916
  405MOL0     H54641   2.836   5.151   5.289 -1.2908  1.8873 -0.3788
  405MOL0     H54642   2.938   5.046   5.195  1.4385  0.3923  1.5747
  405MOL0     H54643   3.082   5.244   5.121  5.4970 -1.1060  2.1339
  405MOL0     H54644   2.996   5.339   5.244 -2.3075 -0.0128  0.7016
  405MOL0     H54645   3.183   5.109   5.286 -0.4966 -0.4097  0.7348
  405MOL0     H54646   3.052   5.116   5.403 -0.2843 -0.4376  0.1474
  405MOL0     H54647   3.218   5.365   5.353  2.5825 -1.5482 -0.2583
  405MOL0     H54648   3.110   5.321   5.485  0.8741 -0.2205  0.3784
  405MOL0     H54649   3.360   5.295   5.540  1.0848 -1.7027  0.6194
  405MOL0     H54650   3.387   5.193   5.401  0.2300  0.2526 -0.7329
  405MOL0     H54651   3.182   5.125   5.627  2.2868 -1.4328  3.4456
  405MOL0     H54652   3.230   5.022   5.489  1.7572  0.2330 -1.5198
  405MOL0     H54653   3.446   5.112   5.680 -0.9868  0.7898 -0.7372
  405MOL0     H54654   3.437   4.989   5.580 -0.4624  1.6943 -0.5704
  405MOL0     H54655   3.308   4.987   5.848  0.7009  1.4897 -0.6890
  405MOL0     H54656   3.463   4.930   5.795  1.3663  2.2630 -0.9612
  405MOL0     H54657   2.740   4.973   5.203 -1.2846  0.6868  0.5216
  405MOL0     H54658   2.537   4.843   5.093  1.6441 -3.0889 -3.9739
  405MOL0     H54659   2.446   4.668   4.542 -1.0668 -3.2946  1.7635
  405MOL0     H54660   2.250   4.608   4.402 -0.6718  0.2297 -0.1294
  405MOL0     H54661   1.490   5.993   3.737  4.1926  0.3542  0.6396
  405MOL0     H54662   1.339   6.180   3.743 -1.2471 -0.5470 -0.3984
  405MOL0     H54663   1.284   6.555   3.732 -0.0521 -0.4777 -0.2315
  405MOL0     H54664   1.172   6.741   3.825 -0.3902  0.1274  0.3014
  405MOL0     H54665   0.925   6.842   3.847  3.4981 -2.8682  1.0619
  405MOL0     H54666   1.083   6.916   3.902  2.1952  1.4816 -2.8413
  405MOL0     H54667   0.979   7.143   3.833 -2.2383  1.1583  0.7447
  405MOL0     H54668   0.911   7.058   3.970 -0.8826  1.3422  0.4100
  405MOL0     H54669   0.746   6.947   3.784 -1.9273  1.6780  1.7067
  405MOL0     H54670   0.795   7.089   3.689 -2.7398  1.0278  0.2549
  405MOL0     H54671   0.664   7.071   3.955  1.7856  4.5270  1.9007
  405MOL0     H54672   0.596   7.139   3.797 -0.6564  3.3484  0.3952
  405MOL0     H54673   0.788   7.473   3.949  2.0741 -0.0505 -2.2648
  405MOL0     H54674   1.027   6.870   3.433 -1.0111  2.6818  3.4535
  405MOL0     H54675   1.154   6.667   3.340  2.0406 -1.2927  2.0324
  406MOL0     O54676   0.092  10.449   9.417  0.2788  0.1621  0.0153
  406MOL0     C54677   0.204  10.471   9.380  0.1337  0.2045 -0.1926
  406MOL0     O54678   0.325  10.453   9.446 -0.2319  0.0126  0.0813
  406MOL0     C54679   0.320  10.402   9.575  0.0245  1.0150 -0.2209
  406MOL0     C54680   0.395  10.279   9.608 -0.8811 -0.1756 -0.1438
  406MOL0     C54681   0.383  10.228   9.743  1.2595  0.0388 -0.9397
  406MOL0     C54682   0.310  10.299   9.845 -0.8631 -0.0625  0.5110
  406MOL0     O54683   0.313  10.257   9.972 -0.5333 -0.8557 -0.0762
  406MOL0     C54684   0.392  10.335  10.061  0.7225 -0.3672 -0.9295
  406MOL0     C54685   0.540  10.323  10.023  0.0175  0.4916  1.2493
  406MOL0     C54686   0.642  10.406  10.108  0.3467  0.9329  0.2837
  406MOL0     C54687   0.611  10.415  10.265 -0.3224 -0.4488 -0.4727
  406MOL0     C54688   0.720  10.486  10.331  0.7079 -0.4147 -0.1157
  406MOL0     C54689   0.704  10.640  10.322  0.1029  0.0657 -0.3176
  406MOL0     C54690   0.820  10.703  10.404 -0.1879 -0.5500 -1.0819
  406MOL0     C54691   0.822  10.858  10.383  0.2236 -0.6770 -0.5047
  406MOL0     N54692   0.902  10.903  10.262 -0.5716 -0.2490 -0.8042
  406MOL0     C54693   1.017  10.985  10.261  0.5277  0.1716 -0.0527
  406MOL0     C54694   1.060  10.970  10.133 -0.3938 -0.1112  0.1721
  406MOL0     C54695   1.188  11.036  10.066 -0.0993  0.0732 -0.5659
  406MOL0     C54696   1.189  11.199  10.080 -0.0859  1.1940 -0.9081
  406MOL0     C54697   1.240  11.240  10.223  0.3228  0.3976 -0.3353
  406MOL0     C54698   1.293  11.382  10.223 -0.3930  0.8320  0.5132
  406MOL0     O54699   1.353  11.414  10.344 -0.6268  0.1296  0.3482
  406MOL0     C54700   1.473  11.358  10.379  0.2362  0.1277  0.0597
  406MOL0     C54701   1.557  11.273  10.293 -0.5692  0.3923 -0.4827
  406MOL0     C54702   1.688  11.226  10.331  0.4737  0.5031  1.0332
  406MOL0     C54703   1.759  11.137  10.239 -0.1445 -0.2457 -0.1531
  406MOL0     C54704   1.729  11.256  10.458 -0.6807 -0.0688 -0.6977
  406MOL0     C54705   1.856  11.215  10.531 -0.1849 -0.0306  0.6139
  406MOL0     O54706   1.890  11.285  10.633  0.0261  1.0037 -0.2981
  406MOL0     C54707   1.987  11.240  10.719 -0.8353  0.3194 -1.1310
  406MOL0     C54708   1.961  11.205  10.854 -0.1482  0.0624  0.3203
  406MOL0     C54709   2.066  11.186  10.930 -0.3778 -0.0770  0.0495
  406MOL0     C54710   2.200  11.184  10.896  0.0135  0.8093 -0.0826
  406MOL0     O54711   2.298  11.159  10.994  0.3895  0.5108 -0.4241
  406MOL0     C54712   2.437  11.168  10.958  0.4108  0.1109  0.5315
  406MOL0     C54713   2.501  11.302  10.923  0.7563 -0.4695  0.3858
  406MOL0     C54714   2.453  11.415  11.027 -0.7125  0.5533  0.0294
  406MOL0     C54715   2.544  11.542  11.032  0.7413  0.9792  0.1761
  406MOL0     C54716   2.489  11.664  11.098  0.1895  0.1089 -0.1041
  406MOL0     C54717   2.514  11.668  11.246  0.5280 -0.5338 -0.6761
  406MOL0     C54718   2.474  11.802  11.308 -0.1775 -0.0811 -0.6103
  406MOL0     C54719   2.521  11.806  11.452 -0.2704  0.6061 -0.0132
  406MOL0    Cl54720   2.698  11.800  11.481 -0.5273 -0.0126  0.3332
  406MOL0     C54721   2.227  11.188  10.756  0.5411 -0.0766 -0.4638
  406MOL0     C54722   2.119  11.224  10.669  0.0992 -0.1851  0.3492
  406MOL0     O54723   1.918  11.113  10.493  0.3085  0.5014 -0.0688
  406MOL0     C54724   1.640  11.334  10.541  0.3460 -0.0629 -0.8038
  406MOL0     C54725   1.517  11.381  10.509  0.4289 -0.1169  0.9714
  406MOL0     N54726   0.982  10.880  10.066  0.1671 -0.5125 -0.4664
  406MOL0     N54727   0.889  10.837  10.143 -0.2253 -0.4601 -0.7887
  406MOL0     C54728   0.253  10.425   9.813 -0.8201  0.5987  0.3605
  406MOL0     C54729   0.253  10.470   9.681  0.0916 -0.0002  0.6203
  406MOL0     C54730   0.212  10.511   9.239  0.2109  0.4416 -0.0839
  406MOL0     C54731   0.342  10.572   9.204  0.2326  0.7463  1.1523
  406MOL0     C54732   0.365  10.619   9.076  1.1746 -0.3091 -0.2623
  406MOL0     C54733   0.253  10.620   8.984  0.6285  0.7725  0.8971
  406MOL0     O54734   0.245  10.676   8.859 -0.0971  0.6169  0.7608
  406MOL0     C54735   0.333  10.783   8.815 -0.0904  0.7472 -0.0248
  406MOL0     C54736   0.256  10.882   8.722 -0.5086  0.5931  0.9851
  406MOL0     C54737   0.320  11.021   8.717  0.4084  0.3122 -0.1503
  406MOL0     C54738   0.277  11.124   8.837  0.2530  0.8161 -1.0832
  406MOL0     C54739   0.309  11.061   8.970  0.1442  0.4488  0.6083
  406MOL0     C54740   0.324  11.007   9.080 -0.8089 -0.0998  0.2236
  406MOL0     C54741   0.134  10.552   9.012 -0.7301  0.2535  0.4860
  406MOL0     C54742   0.116  10.494   9.143  0.1503 -0.4628 -0.1047
  406MOL0     H54743   0.453  10.231   9.530  0.1040  2.1482 -0.9230
  406MOL0     H54744   0.439  10.140   9.774 -2.6206 -1.8199  1.5088
  406MOL0     H54745   0.359  10.439  10.066  1.8621 -0.0309  0.1039
  406MOL0     H54746   0.383  10.288  10.159 -0.1612 -1.6489 -1.6019
  406MOL0     H54747   0.583  10.223  10.015 -2.9114 -0.6832 -2.9483
  406MOL0     H54748   0.548  10.364   9.922 -1.9543  0.6896  1.1462
  406MOL0     H54749   0.745  10.372  10.096 -0.2695 -0.6942 -0.8128
  406MOL0     H54750   0.633  10.510  10.073  1.4422  1.0639  0.3534
  406MOL0     H54751   0.509  10.455  10.275 -0.7352 -0.3159 -3.9322
  406MOL0     H54752   0.598  10.313  10.301  2.0531 -0.7986 -0.4524
  406MOL0     H54753   0.714  10.451  10.434 -1.8818 -0.1714 -0.1126
  406MOL0     H54754   0.819  10.458  10.293  0.2291  0.7180 -2.4114
  406MOL0     H54755   0.707  10.667  10.216  0.1044 -2.9329 -1.1814
  406MOL0     H54756   0.606  10.657  10.368  0.3903  0.9161  0.0071
  406MOL0     H54757   0.806  10.686  10.511 -0.8426 -3.3587 -1.5483
  406MOL0     H54758   0.922  10.667  10.387  0.4626  0.3438  0.6737
  406MOL0     H54759   0.870  10.916  10.462  1.0651  1.3788 -2.3938
  406MOL0     H54760   0.723  10.905  10.376  1.6452  2.9856  1.4153
  406MOL0     H54761   1.060  11.051  10.335 -0.1499 -3.0488  3.4960
  406MOL0     H54762   1.280  10.997  10.111 -0.4186  1.5957  1.5457
  406MOL0     H54763   1.197  11.016   9.959 -2.0171  2.3925 -1.2394
  406MOL0     H54764   1.085  11.225  10.059 -0.6700  0.4660  0.8765
  406MOL0     H54765   1.260  11.232  10.003  1.7667 -1.3340 -0.4207
  406MOL0     H54766   1.318  11.167  10.245 -0.9341 -1.1654 -0.9217
  406MOL0     H54767   1.178  11.221  10.311 -0.0042 -3.3641 -1.2060
  406MOL0     H54768   1.207  11.446  10.202 -1.8084 -1.0797  0.2058
  406MOL0     H54769   1.359  11.393  10.137  0.2936 -0.4031  0.8570
  406MOL0     H54770   1.528  11.241  10.193  1.4883 -3.1762 -0.1284
  406MOL0     H54771   1.867  11.152  10.248 -0.3639  3.6603 -2.0687
  406MOL0     H54772   1.735  11.030  10.246 -0.1835 -0.2963 -0.9405
  406MOL0     H54773   1.740  11.165  10.135 -2.2944 -1.3615 -0.1096
  406MOL0     H54774   1.861  11.215  10.895 -0.5453  1.1740 -0.8510
  406MOL0     H54775   2.032  11.173  11.033 -0.3803 -1.3314 -0.0886
  406MOL0     H54776   2.489  11.143  11.050 -0.0823 -1.0564  0.5126
  406MOL0     H54777   2.465  11.094  10.882 -1.3199  0.6828 -0.7308
  406MOL0     H54778   2.607  11.287  10.945  0.4848 -0.6514  1.6409
  406MOL0     H54779   2.468  11.333  10.823  0.0469 -0.0784  0.7350
  406MOL0     H54780   2.457  11.368  11.125  1.7230  0.9476  0.1923
  406MOL0     H54781   2.353  11.450  11.000 -1.3924 -2.6033 -2.1081
  406MOL0     H54782   2.638  11.507  11.077  0.9231 -2.4025 -2.4093
  406MOL0     H54783   2.564  11.582  10.933 -0.7309  1.2223 -0.0473
  406MOL0     H54784   2.385  11.690  11.076  0.2808  1.8034  1.2267
  406MOL0     H54785   2.550  11.743  11.054  3.3500 -1.4045  1.2348
  406MOL0     H54786   2.446  11.592  11.286 -0.0418  0.7611  0.9880
  406MOL0     H54787   2.618  11.641  11.265  0.7161  1.0265  0.7440
  406MOL0     H54788   2.371  11.837  11.298 -0.2814  0.6467  2.2791
  406MOL0     H54789   2.534  11.872  11.249  0.0469 -0.4221 -0.7903
  406MOL0     H54790   2.482  11.718  11.504 -1.0056  1.8449  1.6422
  406MOL0     H54791   2.472  11.894  11.494 -0.7538  0.6055 -0.5585
  406MOL0     H54792   2.324  11.170  10.712  0.6796  1.8152 -1.0343
  406MOL0     H54793   2.157  11.230  10.567  2.6068  2.9585  1.2977
  406MOL0     H54794   1.663  11.347  10.646 -0.1903  1.1398 -0.8123
  406MOL0     H54795   1.458  11.441  10.578 -1.8814  0.7457 -1.5940
  406MOL0     H54796   0.196  10.483   9.885 -1.3355 -1.7904  1.9817
  406MOL0     H54797   0.201  10.562   9.656  0.8954  0.7506  1.6068
  406MOL0     H54798   0.410  10.594   9.286 -0.9377  1.7701  1.8796
  406MOL0     H54799   0.462  10.662   9.051  1.0067  1.3420  1.6837
  406MOL0     H54800   0.372  10.835   8.904  2.4321 -0.2911 -0.4342
  406MOL0     H54801   0.420  10.734   8.771 -0.3420 -1.9843  2.2165
  406MOL0     H54802   0.154  10.899   8.757 -1.3848  2.7932 -2.1507
  406MOL0     H54803   0.238  10.839   8.623 -3.9945  3.2496  0.2636
  406MOL0     H54804   0.274  11.065   8.627 -1.9122 -1.8142 -0.1032
  406MOL0     H54805   0.428  11.015   8.703  0.3285 -1.9162 -0.0912
  406MOL0     H54806   0.168  11.134   8.832  0.1838 -0.1986 -2.0660
  406MOL0     H54807   0.325  11.222   8.843  0.0560  0.8477  2.9626
  406MOL0     H54808   0.335  10.957   9.174 -3.3956 -1.3889 -0.0816
  406MOL0     H54809   0.054  10.559   8.940  0.5732  0.2615 -0.9964
  406MOL0     H54810   0.024  10.441   9.169 -0.3776  1.4240  2.2115
  407MOL0     O54811  10.226   6.420  10.234 -0.3429  1.1491  0.0857
  407MOL0     C54812  10.294   6.486  10.155  0.4460  0.3438  0.3946
  407MOL0     O54813  10.264   6.523  10.022 -0.0779 -0.3679 -0.1274
  407MOL0     C54814  10.163   6.437   9.965 -0.4562 -0.1726  0.5377
  407MOL0     C54815  10.036   6.487   9.933  0.3971  1.5167  1.4099
  407MOL0     C54816   9.944   6.399   9.877 -0.3854  0.0081  0.1404
  407MOL0     C54817   9.980   6.266   9.846  0.6636 -0.1857  0.1154
  407MOL0     O54818   9.898   6.179   9.777 -0.7156 -0.4225  0.0579
  407MOL0     C54819   9.795   6.229   9.682 -0.7053  0.7206 -0.4738
  407MOL0     C54820   9.845   6.287   9.556 -0.4700 -0.1090 -0.4749
  407MOL0     C54821   9.946   6.187   9.497  0.1509 -0.6383  0.5614
  407MOL0     C54822  10.001   6.245   9.363  1.2606  0.0036  0.5745
  407MOL0     C54823  10.157   6.215   9.352  1.0829  0.8287 -0.0314
  407MOL0     C54824  10.189   6.071   9.324 -0.2148  0.0032  0.0584
  407MOL0     C54825  10.154   6.027   9.181  0.3645  0.0586  0.0549
  407MOL0     C54826  10.174   5.879   9.160  1.0189 -1.0374 -0.3376
  407MOL0     N54827  10.061   5.800   9.188 -0.2789  0.1343  0.4021
  407MOL0     C54828   9.936   5.817   9.146  0.0452 -0.4443 -0.2319
  407MOL0     C54829   9.871   5.718   9.215  0.1431 -0.2360  0.6786
  407MOL0     C54830   9.727   5.685   9.189  0.4987  0.4189 -0.6754
  407MOL0     C54831   9.707   5.621   9.058  0.1134  0.4492  0.8086
  407MOL0     C54832   9.567   5.585   9.026  0.7628 -0.4617 -0.6155
  407MOL0     C54833   9.541   5.550   8.877  0.4253 -0.2056 -0.5606
  407MOL0     O54834   9.610   5.429   8.850 -0.2213  0.2708 -0.2015
  407MOL0     C54835   9.555   5.306   8.879  0.6726  0.1684  0.2265
  407MOL0     C54836   9.650   5.204   8.913 -0.1718 -0.9064 -0.6974
  407MOL0     C54837   9.614   5.075   8.950 -0.2044  0.7906 -0.1560
  407MOL0     C54838   9.717   4.977   8.996 -0.0387  0.1650 -0.0285
  407MOL0     C54839   9.475   5.046   8.948 -0.3145 -0.8248  0.3945
  407MOL0     C54840   9.434   4.923   9.015 -0.4815  0.6932  0.2048
  407MOL0     O54841   9.446   4.929   9.156  0.6970 -0.0343  0.1845
  407MOL0     C54842   9.395   4.839   9.257  0.0044 -0.1776 -0.2999
  407MOL0     C54843   9.344   4.716   9.236  0.1202  0.2706  0.1053
  407MOL0     C54844   9.305   4.634   9.340 -0.0348 -0.5078 -0.2526
  407MOL0     C54845   9.304   4.675   9.477 -0.0653  0.6155 -0.1861
  407MOL0     O54846   9.266   4.600   9.583  0.1220 -0.4101 -0.1778
  407MOL0     C54847   9.213   4.468   9.554  0.2424 -0.3864 -0.8157
  407MOL0     C54848   9.172   4.389   9.680 -1.2180 -0.6057 -0.2297
  407MOL0     C54849   9.274   4.407   9.795 -0.6311 -0.4469 -0.5396
  407MOL0     C54850   9.260   4.320   9.923  0.2613  0.0899  0.2250
  407MOL0     C54851   9.344   4.366  10.042 -0.9009  0.1156 -0.1044
  407MOL0     C54852   9.500   4.349  10.009  0.2139 -0.8037 -0.0641
  407MOL0     C54853   9.583   4.356  10.133  0.3217  0.1877  0.5700
  407MOL0     C54854   9.723   4.313  10.090  0.6342 -0.0234 -0.4832
  407MOL0    Cl54855   9.736   4.130  10.064  0.0512 -0.2902 -0.6639
  407MOL0     C54856   9.335   4.807   9.494  0.6014  0.8484 -0.7500
  407MOL0     C54857   9.383   4.885   9.385 -0.0559 -0.3171 -0.6036
  407MOL0     O54858   9.365   4.841   8.958  0.5242  0.6526 -0.3558
  407MOL0     C54859   9.381   5.133   8.889  0.4838  0.7595  0.1595
  407MOL0     C54860   9.425   5.264   8.863 -0.2095 -0.2238 -0.9484
  407MOL0     N54861   9.951   5.653   9.299  0.1181 -0.4536  0.1282
  407MOL0     N54862  10.068   5.707   9.291  0.2973 -0.8900  0.2464
  407MOL0     C54863  10.113   6.219   9.873  0.1160  0.1855 -0.8252
  407MOL0     C54864  10.203   6.303   9.934 -0.1630 -0.1041  0.0333
  407MOL0     C54865  10.398   6.574  10.211 -0.0054 -0.0826 -0.3270
  407MOL0     C54866  10.390   6.595  10.354  0.0212  0.5686  0.4869
  407MOL0     C54867  10.485   6.677  10.419 -0.3581  0.5083 -0.7363
  407MOL0     C54868  10.593   6.732  10.333  0.1243 -0.3437  0.1219
  407MOL0     O54869  10.688   6.820  10.386  0.6617  0.2092  0.0744
  407MOL0     C54870  10.651   6.900  10.499 -0.3665 -0.1313 -0.3922
  407MOL0     C54871  10.749   7.017  10.516 -0.4991  0.0973  0.6297
  407MOL0     C54872  10.764   7.073  10.663  0.3519 -0.4899 -0.2418
  407MOL0     C54873  10.635   7.139  10.707  0.4108 -0.7632  0.2068
  407MOL0     C54874  10.640   7.280  10.670 -0.9230  0.1201  0.8610
  407MOL0     C54875  10.622   7.400  10.660  0.0467  0.8286 -0.0265
  407MOL0     C54876  10.604   6.705  10.206 -0.2672  0.3538 -0.0224
  407MOL0     C54877  10.503   6.633  10.139 -0.3890 -0.6554 -0.3844
  407MOL0     H54878  10.004   6.590   9.950 -2.8776  0.7377  0.6570
  407MOL0     H54879   9.847   6.446   9.863  1.0290  2.9231 -0.6634
  407MOL0     H54880   9.732   6.143   9.659 -1.5649  1.0679  0.4770
  407MOL0     H54881   9.736   6.302   9.738  1.0062 -0.4492  3.1240
  407MOL0     H54882   9.766   6.313   9.485  2.9765 -1.3116 -5.3104
  407MOL0     H54883   9.891   6.383   9.581  0.8433 -1.0433  0.8599
  407MOL0     H54884  10.032   6.182   9.565  0.6428 -2.0861 -0.1385
  407MOL0     H54885   9.908   6.085   9.486 -0.1394 -0.5317  0.5488
  407MOL0     H54886   9.943   6.198   9.283  1.5161 -1.1482  1.0386
  407MOL0     H54887   9.993   6.354   9.367  0.0682 -0.0098 -0.8361
  407MOL0     H54888  10.204   6.283   9.280 -0.6609  1.7661 -0.3422
  407MOL0     H54889  10.204   6.242   9.448 -2.6724 -3.5350  3.4712
  407MOL0     H54890  10.297   6.054   9.335  0.2585  2.1307 -0.7084
  407MOL0     H54891  10.123   6.002   9.377  0.4224 -2.3743 -2.0491
  407MOL0     H54892  10.054   6.064   9.157 -0.4055 -1.7517  0.2814
  407MOL0     H54893  10.226   6.083   9.121 -0.0943  0.1781 -0.3886
  407MOL0     H54894  10.258   5.846   9.222 -0.3782 -1.6806  1.3046
  407MOL0     H54895  10.192   5.866   9.053 -1.3303  0.7570 -1.0362
  407MOL0     H54896   9.886   5.895   9.089  1.1316  0.2271 -0.3085
  407MOL0     H54897   9.702   5.612   9.266  2.8539 -0.0675 -0.2891
  407MOL0     H54898   9.665   5.774   9.202  0.2134  0.2698 -1.0050
  407MOL0     H54899   9.770   5.532   9.050  3.0954  2.3044  1.8541
  407MOL0     H54900   9.756   5.684   8.983  4.4517 -1.5228  1.6438
  407MOL0     H54901   9.504   5.672   9.044  0.9282 -0.8195  2.2357
  407MOL0     H54902   9.519   5.507   9.087 -0.6459  1.3320  0.6665
  407MOL0     H54903   9.580   5.636   8.822 -2.0898 -0.3416 -2.7765
  407MOL0     H54904   9.433   5.537   8.861  0.4434  0.3919 -1.1802
  407MOL0     H54905   9.747   5.251   8.912 -1.9194  3.3708  2.7815
  407MOL0     H54906   9.715   4.966   9.104  2.3696 -0.4866 -0.0047
  407MOL0     H54907   9.701   4.882   8.944  2.3816  0.3752 -1.2816
  407MOL0     H54908   9.818   5.009   8.968  0.2013 -0.7288 -0.2246
  407MOL0     H54909   9.337   4.679   9.134 -2.7296  1.4058 -0.2050
  407MOL0     H54910   9.271   4.532   9.321 -0.4851 -0.2522 -0.8586
  407MOL0     H54911   9.129   4.468   9.483 -0.8515  2.1059  0.3639
  407MOL0     H54912   9.298   4.413   9.513  1.6179  1.4725 -0.5758
  407MOL0     H54913   9.077   4.430   9.716 -2.0508 -3.5899  1.3163
  407MOL0     H54914   9.161   4.282   9.658 -1.2031 -1.4147  3.1620
  407MOL0     H54915   9.261   4.512   9.824 -0.9848 -0.9046  1.0265
  407MOL0     H54916   9.376   4.399   9.756 -0.6763 -2.1023 -0.3984
  407MOL0     H54917   9.156   4.329   9.957  0.9035 -0.7559  2.5966
  407MOL0     H54918   9.277   4.213   9.910  0.7649  0.3366 -1.2351
  407MOL0     H54919   9.317   4.307  10.130  2.5055 -0.4391  0.6732
  407MOL0     H54920   9.327   4.472  10.065 -0.1304  0.4122 -0.8690
  407MOL0     H54921   9.520   4.254   9.958  0.9262  0.8947 -3.1561
  407MOL0     H54922   9.530   4.421   9.933 -2.7582  0.5356 -0.1053
  407MOL0     H54923   9.535   4.295  10.209  0.4655 -0.0897  0.4385
  407MOL0     H54924   9.587   4.461  10.163  2.4000 -0.0584  1.3715
  407MOL0     H54925   9.790   4.338  10.173 -1.7625 -0.0792  1.5832
  407MOL0     H54926   9.758   4.362   9.998  0.3979 -1.6956 -1.5174
  407MOL0     H54927   9.337   4.833   9.599 -1.2472  1.0256 -0.7368
  407MOL0     H54928   9.384   4.993   9.392 -1.2446  0.0011 -3.5680
  407MOL0     H54929   9.276   5.107   8.882  1.2626 -2.6437 -0.5773
  407MOL0     H54930   9.347   5.335   8.840  0.3933  0.7121 -0.1511
  407MOL0     H54931  10.136   6.114   9.893 -4.0158 -0.8787 -0.6669
  407MOL0     H54932  10.304   6.274   9.959  0.2007  0.0178 -1.2282
  407MOL0     H54933  10.320   6.542  10.418 -1.6825  1.7469 -0.3509
  407MOL0     H54934  10.487   6.692  10.527 -0.1364  0.0916 -0.6825
  407MOL0     H54935  10.544   6.923  10.501 -0.1364  0.8893  1.2238
  407MOL0     H54936  10.673   6.835  10.584  2.5408  0.5170 -0.5720
  407MOL0     H54937  10.709   7.093  10.448 -2.8104 -1.4514  0.1166
  407MOL0     H54938  10.836   6.965  10.477 -2.1370 -2.6903  0.4254
  407MOL0     H54939  10.857   7.131  10.670  1.0217 -1.3857 -1.3869
  407MOL0     H54940  10.782   6.989  10.731 -2.1728  0.4383  1.7489
  407MOL0     H54941  10.614   7.145  10.814 -2.8291  1.1903 -0.3864
  407MOL0     H54942  10.549   7.095  10.654  0.6233 -0.0446 -0.7688
  407MOL0     H54943  10.621   7.507  10.654  2.3354  0.8794 -0.0934
  407MOL0     H54944  10.668   6.763  10.141 -0.5984  0.3361 -0.3711
  407MOL0     H54945  10.513   6.618  10.032  1.0912  4.3992 -1.2086
  408MOL0     O54946  11.207   3.458   5.768 -0.2977  0.0473 -0.5902
  408MOL0     C54947  11.189   3.453   5.892  0.1682 -0.1795  0.5624
  408MOL0     O54948  11.226   3.550   5.974 -0.5780 -0.4231 -0.2195
  408MOL0     C54949  11.271   3.668   5.932 -0.7152 -0.4894 -0.2891
  408MOL0     C54950  11.209   3.771   5.865 -0.1120  0.4962  0.8969
  408MOL0     C54951  11.282   3.890   5.823  0.2625 -0.1909 -0.0862
  408MOL0     C54952  11.422   3.895   5.838 -0.1379 -0.5709 -0.9439
  408MOL0     O54953  11.499   4.002   5.795  0.2423  0.1953  1.2610
  408MOL0     C54954  11.544   4.087   5.903  0.2934 -0.1516 -0.5799
  408MOL0     C54955  11.561   4.229   5.870  0.5079 -0.0120  0.6990
  408MOL0     C54956  11.602   4.298   5.990  0.8036  0.0489  0.1713
  408MOL0     C54957  11.652   4.446   5.985 -0.0831  0.4863  0.3263
  408MOL0     C54958  11.566   4.550   6.054  0.6528 -0.0550 -1.7650
  408MOL0     C54959  11.578   4.545   6.211 -0.0843 -0.6888  0.1149
  408MOL0     C54960  11.458   4.590   6.294 -0.2943 -0.2445  0.4768
  408MOL0     C54961  11.468   4.551   6.436  0.4322  0.3962  0.6361
  408MOL0     N54962  11.546   4.653   6.508 -0.0068 -0.6040 -0.5803
  408MOL0     C54963  11.498   4.767   6.571  0.0175  0.0185  0.5779
  408MOL0     C54964  11.612   4.821   6.615 -0.1743 -0.8048 -0.2426
  408MOL0     C54965  11.618   4.948   6.689  0.4880  1.0274 -0.0377
  408MOL0     C54966  11.731   4.954   6.781  0.6460 -0.9399  0.7768
  408MOL0     C54967  11.748   5.097   6.851  0.9037 -0.1557 -1.0167
  408MOL0     C54968  11.866   5.097   6.954 -0.1532  1.1269 -0.2642
  408MOL0     O54969  11.912   5.233   6.977 -0.4167  0.3550  0.1611
  408MOL0     C54970  11.833   5.307   7.059 -0.3269 -0.5436 -0.0709
  408MOL0     C54971  11.878   5.441   7.076 -0.4291  0.6257 -0.3542
  408MOL0     C54972  11.802   5.538   7.148 -0.0080  0.4646 -0.0636
  408MOL0     C54973  11.861   5.680   7.162 -0.9874 -0.1020 -0.2844
  408MOL0     C54974  11.687   5.492   7.220 -0.4765  0.2500  0.5795
  408MOL0     C54975  11.606   5.589   7.311 -0.4365  0.2399  0.0248
  408MOL0     O54976  11.603   5.721   7.291  0.6092  0.8967 -0.5473
  408MOL0     C54977  11.558   5.806   7.384  0.1451 -0.0948  0.2314
  408MOL0     C54978  11.511   5.925   7.341  0.4325  0.0062  0.2178
  408MOL0     C54979  11.458   6.017   7.432 -1.7005 -0.7958 -0.4242
  408MOL0     C54980  11.451   5.995   7.569 -0.7102  0.5479 -1.1918
  408MOL0     O54981  11.380   6.065   7.659 -0.2808  0.4126 -0.4349
  408MOL0     C54982  11.399   6.210   7.654  0.1558  0.1166  0.2944
  408MOL0     C54983  11.332   6.268   7.775 -0.3339 -0.2734 -0.8705
  408MOL0     C54984  11.332   6.417   7.788 -0.0139 -0.2043 -0.5266
  408MOL0     C54985  11.476   6.462   7.838 -0.4168 -0.2974 -0.4769
  408MOL0     C54986  11.461   6.606   7.903 -0.3853  0.9905  0.3948
  408MOL0     C54987  11.584   6.638   7.989 -0.2932 -0.2822 -0.4441
  408MOL0     C54988  11.579   6.773   8.054  0.2814 -0.6061  0.0958
  408MOL0     C54989  11.706   6.805   8.127  0.4672  0.0240 -0.4985
  408MOL0    Cl54990  11.750   6.682   8.252  0.3212  0.4270  0.2773
  408MOL0     C54991  11.511   5.882   7.618 -0.6779 -0.2753  0.9993
  408MOL0     C54992  11.558   5.790   7.527  0.3508 -0.2955 -0.2446
  408MOL0     O54993  11.550   5.532   7.401 -0.3835 -0.2802 -0.2740
  408MOL0     C54994  11.657   5.355   7.217  0.3514 -0.4714  0.2889
  408MOL0     C54995  11.724   5.261   7.139 -0.6715  0.4269 -0.3982
  408MOL0     N54996  11.727   4.747   6.585  0.4975 -0.0668 -0.1547
  408MOL0     N54997  11.681   4.634   6.542  0.1689 -0.3834 -0.1187
  408MOL0     C54998  11.476   3.786   5.900 -0.0635 -0.1279 -0.2855
  408MOL0     C54999  11.409   3.674   5.953  0.8384  0.0908 -0.6171
  408MOL0     C55000  11.112   3.336   5.944 -0.5324 -0.8019 -0.0298
  408MOL0     C55001  11.091   3.218   5.861 -0.0557 -0.2160 -0.4753
  408MOL0     C55002  11.022   3.107   5.913 -0.4533 -0.5813 -0.5663
  408MOL0     C55003  10.966   3.117   6.039 -0.4841  0.0948  0.2171
  408MOL0     O55004  10.903   3.006   6.088  0.1117  0.5587 -0.2711
  408MOL0     C55005  10.862   3.010   6.224 -0.4576 -0.5961 -0.2092
  408MOL0     C55006  10.714   3.061   6.236  0.1914  0.3981  0.3327
  408MOL0     C55007  10.627   2.988   6.137  0.0755  0.4129  0.1081
  408MOL0     C55008  10.476   2.995   6.155 -1.1294  0.9743 -0.2859
  408MOL0     C55009  10.410   2.936   6.040 -0.0398 -0.3721  0.4479
  408MOL0     C55010  10.348   2.900   5.943 -0.0543  1.0975 -0.5595
  408MOL0     C55011  10.988   3.230   6.115  0.5574  0.1904  0.6178
  408MOL0     C55012  11.061   3.340   6.075 -0.9553  0.3188  0.5822
  408MOL0     H55013  11.108   3.748   5.833  0.9449 -3.5722 -0.0967
  408MOL0     H55014  11.228   3.972   5.777 -0.7430 -0.2082  1.0018
  408MOL0     H55015  11.472   4.071   5.984  0.3210 -1.1007 -0.7332
  408MOL0     H55016  11.640   4.055   5.944  0.4565  1.6771  0.5728
  408MOL0     H55017  11.631   4.248   5.788  1.2008 -0.5349  1.1557
  408MOL0     H55018  11.463   4.260   5.835  0.3821  0.1011  1.1440
  408MOL0     H55019  11.525   4.306   6.068  1.8687 -0.7341  1.3296
  408MOL0     H55020  11.676   4.231   6.034  2.8676  0.6336 -2.2209
  408MOL0     H55021  11.758   4.454   6.013  0.8924 -0.9216 -2.5546
  408MOL0     H55022  11.653   4.481   5.882  2.9067  2.1287  0.7994
  408MOL0     H55023  11.583   4.653   6.022  1.0537  0.3448 -0.3428
  408MOL0     H55024  11.459   4.528   6.039  0.6894 -3.2860  1.4337
  408MOL0     H55025  11.601   4.443   6.243 -0.4324 -1.0622 -0.7668
  408MOL0     H55026  11.658   4.616   6.234 -0.0409  0.0986 -2.1480
  408MOL0     H55027  11.455   4.699   6.284 -1.0561 -0.3732 -1.0847
  408MOL0     H55028  11.365   4.559   6.246 -0.5336  0.1715  0.6656
  408MOL0     H55029  11.507   4.450   6.450 -0.3278  0.1934  1.3602
  408MOL0     H55030  11.365   4.551   6.473  0.8693  2.0486  1.9511
  408MOL0     H55031  11.397   4.793   6.601  0.0467 -0.3540  1.0214
  408MOL0     H55032  11.634   5.016   6.605  0.1381 -0.3665 -1.2912
  408MOL0     H55033  11.524   4.964   6.743 -1.7114 -1.8009 -2.6889
  408MOL0     H55034  11.829   4.939   6.735 -0.2844  1.5658 -2.4536
  408MOL0     H55035  11.723   4.872   6.853 -3.1791  0.4375  2.1759
  408MOL0     H55036  11.656   5.107   6.909  0.9836 -1.8110 -0.5481
  408MOL0     H55037  11.748   5.185   6.787 -1.1999  1.7153  1.3700
  408MOL0     H55038  11.942   5.038   6.904 -0.8226  0.9241 -1.0697
  408MOL0     H55039  11.842   5.046   7.048 -2.0858 -2.2838 -2.3781
  408MOL0     H55040  11.972   5.478   7.035  0.6205 -0.1342  1.2700
  408MOL0     H55041  11.963   5.688   7.125 -0.1121 -1.0793  1.8079
  408MOL0     H55042  11.798   5.761   7.124 -1.4117 -0.1418  0.3268
  408MOL0     H55043  11.877   5.700   7.268  0.6013  0.9737 -0.6910
  408MOL0     H55044  11.516   5.937   7.234  0.0415  2.7090  0.4319
  408MOL0     H55045  11.419   6.107   7.384 -0.8483 -2.5813 -5.0721
  408MOL0     H55046  11.496   6.259   7.662 -0.4942  1.2487  1.8498
  408MOL0     H55047  11.347   6.257   7.569 -0.3138 -0.3613  0.3099
  408MOL0     H55048  11.225   6.243   7.770 -0.2739 -0.2480 -3.4535
  408MOL0     H55049  11.376   6.222   7.864  1.2337  1.5125 -0.6745
  408MOL0     H55050  11.263   6.450   7.866 -0.3438 -3.0538  0.5043
  408MOL0     H55051  11.300   6.472   7.699 -2.9073 -0.8438  0.0431
  408MOL0     H55052  11.515   6.399   7.919 -0.4878 -1.6534 -1.4648
  408MOL0     H55053  11.534   6.469   7.746 -0.1648 -1.2088 -0.4010
  408MOL0     H55054  11.376   6.602   7.973 -1.0434 -2.4486 -0.4342
  408MOL0     H55055  11.449   6.685   7.828 -0.8356 -0.1880 -0.8161
  408MOL0     H55056  11.611   6.561   8.061 -1.2711 -0.3133 -0.0893
  408MOL0     H55057  11.666   6.649   7.918 -0.4189  2.3056 -0.2921
  408MOL0     H55058  11.493   6.770   8.122  0.5578 -1.3121  0.4178
  408MOL0     H55059  11.562   6.854   7.982 -1.3021 -0.3323  0.7310
  408MOL0     H55060  11.707   6.904   8.174  2.4089  0.5255 -1.4997
  408MOL0     H55061  11.795   6.805   8.063  0.9327  3.0437  0.0134
  408MOL0     H55062  11.502   5.862   7.724  0.2425 -1.8492  0.8186
  408MOL0     H55063  11.607   5.705   7.573  2.1825  0.0500 -1.4678
  408MOL0     H55064  11.571   5.330   7.278 -0.4436  0.4612 -0.4104
  408MOL0     H55065  11.677   5.164   7.126  0.3479 -0.4238  1.7780
  408MOL0     H55066  11.583   3.801   5.912 -0.1848 -0.0088  0.7249
  408MOL0     H55067  11.457   3.596   6.012 -0.8373  0.5034  1.4302
  408MOL0     H55068  11.141   3.211   5.765  1.9146  1.6791  0.3486
  408MOL0     H55069  11.013   3.016   5.854  1.7185 -1.5326  0.4464
  408MOL0     H55070  10.849   2.906   6.254 -1.7961 -0.1082  1.0117
  408MOL0     H55071  10.929   3.065   6.291 -1.4204  1.1307 -0.6012
  408MOL0     H55072  10.718   3.170   6.228  0.7783  0.3003 -0.9151
  408MOL0     H55073  10.674   3.024   6.330 -1.2888  1.6880  0.2710
  408MOL0     H55074  10.660   2.884   6.144 -2.3663 -0.4007  0.2200
  408MOL0     H55075  10.665   3.013   6.037  0.4338 -2.8151 -0.6734
  408MOL0     H55076  10.449   3.100   6.165 -1.8376  0.7687 -0.0409
  408MOL0     H55077  10.452   2.944   6.248 -0.6878 -0.0303 -0.7020
  408MOL0     H55078  10.301   2.877   5.850  1.0442 -1.0743 -0.6531
  408MOL0     H55079  10.953   3.245   6.216 -0.7594  3.1592 -0.1780
  408MOL0     H55080  11.077   3.424   6.142  0.2690  1.8441 -1.5151
  409MOL0     O55081   2.709   5.830   3.393 -0.0195  0.2681 -0.7258
  409MOL0     C55082   2.809   5.900   3.396  0.2240 -1.4065  0.3600
  409MOL0     O55083   2.936   5.854   3.419  0.4397 -0.7675 -0.0529
  409MOL0     C55084   2.974   5.719   3.422  0.8314  0.3367 -0.0609
  409MOL0     C55085   2.891   5.617   3.462 -0.4534  0.7052 -0.5000
  409MOL0     C55086   2.939   5.482   3.475 -0.0935 -1.2147 -0.0347
  409MOL0     C55087   3.069   5.455   3.433 -0.1701 -0.7896 -0.4226
  409MOL0     O55088   3.109   5.322   3.447 -0.2433  0.3193  0.3532
  409MOL0     C55089   3.226   5.270   3.370 -0.6088  0.3414 -1.1955
  409MOL0     C55090   3.221   5.126   3.422 -0.5736 -0.8642 -0.9545
  409MOL0     C55091   3.252   5.108   3.571 -0.3295 -0.5883 -0.2889
  409MOL0     C55092   3.303   4.969   3.620  1.0957  0.1105  0.4338
  409MOL0     C55093   3.321   4.961   3.776 -0.0505  0.6744  1.0105
  409MOL0     C55094   3.365   4.828   3.828 -1.0340  0.2354 -0.1235
  409MOL0     C55095   3.398   4.858   3.975  0.9176  0.5915 -0.7455
  409MOL0     C55096   3.431   4.727   4.041 -0.2209 -0.0515 -1.0782
  409MOL0     N55097   3.570   4.678   4.004  0.0186 -0.4516 -0.0592
  409MOL0     C55098   3.685   4.718   4.064 -0.4683 -0.2632 -0.3483
  409MOL0     C55099   3.778   4.624   4.049 -0.0969 -0.4866 -0.6351
  409MOL0     C55100   3.919   4.645   4.088 -0.1168  0.1830 -0.2019
  409MOL0     C55101   3.996   4.521   4.120  0.3322  1.0981  0.1053
  409MOL0     C55102   4.148   4.531   4.103  1.0678  0.0624 -0.5071
  409MOL0     C55103   4.209   4.630   4.209  0.0546 -0.0264  0.2249
  409MOL0     O55104   4.352   4.630   4.191  0.3885 -0.0515 -0.2856
  409MOL0     C55105   4.434   4.541   4.245 -0.6061  0.5618 -0.2459
  409MOL0     C55106   4.572   4.546   4.223  0.9544  0.0467  0.7324
  409MOL0     C55107   4.660   4.455   4.281  0.9336 -0.3164  0.1481
  409MOL0     C55108   4.811   4.471   4.251 -0.1480 -0.2936  0.0262
  409MOL0     C55109   4.608   4.362   4.374  0.1158  0.8597 -0.1679
  409MOL0     C55110   4.688   4.263   4.447 -0.0067  0.9390  0.0455
  409MOL0     O55111   4.640   4.193   4.555 -0.1807  0.4563  0.0789
  409MOL0     C55112   4.702   4.092   4.634 -0.9855  0.2435 -0.2493
  409MOL0     C55113   4.620   4.015   4.711 -0.9096  0.0870 -0.5919
  409MOL0     C55114   4.674   3.911   4.792  0.3815 -0.4093  0.6212
  409MOL0     C55115   4.810   3.878   4.802 -0.5740  0.5736 -0.0583
  409MOL0     O55116   4.864   3.775   4.878 -0.6154  0.2007 -0.3181
  409MOL0     C55117   4.810   3.655   4.816 -0.3794  0.6291  0.3674
  409MOL0     C55118   4.867   3.539   4.896  0.5943 -0.3473  0.8015
  409MOL0     C55119   4.773   3.414   4.884  0.3555 -0.2078 -0.4862
  409MOL0     C55120   4.803   3.299   4.979 -0.1256 -0.6316 -0.5836
  409MOL0     C55121   4.930   3.229   4.927 -0.6505  0.1161 -0.9181
  409MOL0     C55122   4.978   3.112   5.023  0.6141 -0.7840 -0.0894
  409MOL0     C55123   5.052   2.987   4.973 -1.0241  0.7312 -0.2073
  409MOL0     C55124   5.088   2.876   5.078  0.3567 -0.2241  0.4602
  409MOL0    Cl55125   5.165   2.752   4.995  0.7370  0.4861  0.7146
  409MOL0     C55126   4.890   3.962   4.724  0.6930  0.2208 -0.1077
  409MOL0     C55127   4.841   4.059   4.643  0.7396  0.3693 -0.2035
  409MOL0     O55128   4.798   4.240   4.403 -0.3761  0.5993 -0.2547
  409MOL0     C55129   4.476   4.360   4.408 -0.6133 -0.0427  0.4705
  409MOL0     C55130   4.393   4.452   4.345  0.6776 -0.2372 -0.2273
  409MOL0     N55131   3.713   4.516   3.979  0.1068 -0.5305  0.3245
  409MOL0     N55132   3.597   4.553   3.951  1.1372 -0.2925  0.0608
  409MOL0     C55133   3.150   5.558   3.391  0.1593  0.0277  0.9051
  409MOL0     C55134   3.102   5.689   3.387 -0.4405 -0.0075 -0.3074
  409MOL0     C55135   2.806   6.059   3.400  0.0508  1.0260 -1.1099
  409MOL0     C55136   2.918   6.137   3.385  0.7807 -0.8279  0.2214
  409MOL0     C55137   2.914   6.277   3.391 -0.2248 -0.2427  0.1058
  409MOL0     C55138   2.786   6.335   3.409 -0.8823 -0.2967 -0.0508
  409MOL0     O55139   2.773   6.466   3.414 -0.1879 -0.8351 -0.2985
  409MOL0     C55140   2.767   6.541   3.544 -0.3785 -0.6874  0.0638
  409MOL0     C55141   2.914   6.558   3.586 -0.0853  0.4702 -0.2012
  409MOL0     C55142   2.994   6.635   3.478 -0.3457  0.4554  0.0280
  409MOL0     C55143   3.118   6.719   3.531 -0.8916 -0.0558  0.7610
  409MOL0     C55144   3.181   6.770   3.408 -0.0970 -0.5205 -0.0972
  409MOL0     C55145   3.243   6.834   3.324 -0.0070 -1.1222  0.2741
  409MOL0     C55146   2.673   6.266   3.419 -0.0268 -0.0752 -0.3563
  409MOL0     C55147   2.680   6.124   3.404  0.1164 -0.0514 -0.0518
  409MOL0     H55148   2.786   5.622   3.486 -0.5337 -0.3625 -0.6153
  409MOL0     H55149   2.873   5.399   3.499 -0.2280  0.0108  4.7756
  409MOL0     H55150   3.213   5.268   3.261  1.1240 -4.7815 -1.5975
  409MOL0     H55151   3.320   5.320   3.396  0.3834 -0.4791 -2.9871
  409MOL0     H55152   3.123   5.082   3.400 -1.2025 -0.4845  0.9777
  409MOL0     H55153   3.301   5.079   3.363 -1.7015 -3.0872 -0.8066
  409MOL0     H55154   3.318   5.184   3.614  1.1648 -2.7625  1.5111
  409MOL0     H55155   3.156   5.126   3.621 -0.7072 -0.4392 -1.0490
  409MOL0     H55156   3.230   4.894   3.587  1.0094 -1.0781  3.0591
  409MOL0     H55157   3.400   4.946   3.575 -0.0805 -0.6418 -1.8872
  409MOL0     H55158   3.397   5.034   3.803 -0.2537  1.8557 -1.2989
  409MOL0     H55159   3.233   4.993   3.833 -0.1596 -1.6141  2.2092
  409MOL0     H55160   3.290   4.751   3.808 -0.1779  0.0049 -3.0574
  409MOL0     H55161   3.459   4.786   3.791  0.0428  0.0440  2.6371
  409MOL0     H55162   3.478   4.929   3.995  2.4890 -1.8862  2.7923
  409MOL0     H55163   3.308   4.896   4.024  0.4599 -0.1978 -0.9438
  409MOL0     H55164   3.358   4.648   4.024  0.5569 -0.4240 -3.0362
  409MOL0     H55165   3.442   4.733   4.149  1.1083 -2.4340 -1.0242
  409MOL0     H55166   3.703   4.818   4.102 -0.5349 -1.6125  3.8256
  409MOL0     H55167   3.954   4.695   3.997  1.1718 -2.0390 -1.0214
  409MOL0     H55168   3.921   4.716   4.171 -3.6360 -0.1668  0.3034
  409MOL0     H55169   3.961   4.442   4.054  3.3982 -0.1079 -0.2489
  409MOL0     H55170   3.972   4.477   4.217  4.0806 -3.1241 -0.5556
  409MOL0     H55171   4.173   4.555   3.999  0.1359  1.8792 -0.3359
  409MOL0     H55172   4.187   4.429   4.112  5.0232  1.0809 -3.3470
  409MOL0     H55173   4.167   4.608   4.307 -1.9316  0.4251 -0.4759
  409MOL0     H55174   4.181   4.734   4.192 -0.8297  0.2764  3.0880
  409MOL0     H55175   4.618   4.622   4.161 -0.3437  1.9615  2.0233
  409MOL0     H55176   4.882   4.466   4.334  4.4410 -1.2800 -3.5874
  409MOL0     H55177   4.843   4.395   4.180  2.6695 -0.9956  1.8866
  409MOL0     H55178   4.830   4.570   4.209  2.2463  0.1230  1.8689
  409MOL0     H55179   4.513   4.037   4.711 -0.9178  0.1404  1.1628
  409MOL0     H55180   4.605   3.835   4.827  1.2271 -2.4682 -1.8860
  409MOL0     H55181   4.701   3.650   4.809 -0.5094 -0.1134  2.3881
  409MOL0     H55182   4.850   3.643   4.715  0.7360 -1.8274  1.0310
  409MOL0     H55183   4.967   3.529   4.855 -0.7754  0.2428 -3.1229
  409MOL0     H55184   4.867   3.569   5.001 -0.4692  1.7208  0.2643
  409MOL0     H55185   4.772   3.379   4.781  0.0194  0.8683 -0.8575
  409MOL0     H55186   4.668   3.439   4.899  0.3295 -0.3433 -0.4376
  409MOL0     H55187   4.806   3.330   5.084 -2.1657  1.9118 -1.1584
  409MOL0     H55188   4.734   3.215   4.965 -1.2581 -0.3673  2.6417
  409MOL0     H55189   5.018   3.291   4.903 -1.9752  1.8326 -1.5868
  409MOL0     H55190   4.901   3.187   4.830 -0.1700 -1.8323 -0.2587
  409MOL0     H55191   5.048   3.161   5.091 -0.7053 -0.1235  0.8319
  409MOL0     H55192   4.887   3.067   5.063 -0.8347  1.1475 -1.0815
  409MOL0     H55193   5.135   3.026   4.913 -0.0257  0.4176  0.9403
  409MOL0     H55194   4.993   2.933   4.899 -0.3905 -2.6669  1.5554
  409MOL0     H55195   4.996   2.832   5.117 -0.6105 -0.8176 -2.2311
  409MOL0     H55196   5.150   2.905   5.163 -0.2811 -1.0294  1.2166
  409MOL0     H55197   4.994   3.931   4.726  0.7496  0.2742 -1.4688
  409MOL0     H55198   4.906   4.110   4.571  0.4149 -0.1656 -0.8851
  409MOL0     H55199   4.440   4.281   4.473  2.8872 -1.9085  0.3996
  409MOL0     H55200   4.288   4.439   4.370  0.4087 -0.3052 -1.3323
  409MOL0     H55201   3.254   5.534   3.372  0.3967 -0.0867  2.2762
  409MOL0     H55202   3.157   5.779   3.360 -0.1845 -0.3388 -0.9199
  409MOL0     H55203   3.017   6.094   3.395 -0.6001 -3.6953  5.4769
  409MOL0     H55204   3.000   6.341   3.377  1.3584 -2.3567 -0.2886
  409MOL0     H55205   2.720   6.639   3.534  0.7025 -0.2943 -1.5277
  409MOL0     H55206   2.716   6.479   3.619 -0.3254  0.0699  0.7461
  409MOL0     H55207   2.958   6.458   3.592 -1.6425 -0.3276 -1.2728
  409MOL0     H55208   2.920   6.611   3.681 -2.2135 -0.5086  0.5438
  409MOL0     H55209   2.926   6.709   3.436 -0.8609  0.0566  0.1552
  409MOL0     H55210   3.029   6.574   3.394  2.1298  2.4165 -0.4715
  409MOL0     H55211   3.193   6.655   3.578  0.9784  0.6077 -1.1672
  409MOL0     H55212   3.098   6.801   3.600  0.5638 -0.2845  1.4818
  409MOL0     H55213   3.294   6.898   3.255 -3.4683  1.2830 -0.3091
  409MOL0     H55214   2.581   6.319   3.442 -0.7594 -0.2699 -2.5485
  409MOL0     H55215   2.594   6.059   3.391  1.3774 -1.1702 -4.5475
  410MOL0     O55216  10.314   9.963   2.341 -1.1206 -0.2919  0.8413
  410MOL0     C55217  10.260  10.054   2.284  0.1758 -0.5011 -0.4353
  410MOL0     O55218  10.268  10.188   2.318 -1.1951  0.2327 -0.4208
  410MOL0     C55219  10.349  10.223   2.420  0.1729 -0.7275  0.2806
  410MOL0     C55220  10.292  10.302   2.523  0.5333  1.1278 -0.4528
  410MOL0     C55221  10.360  10.336   2.638 -0.7041  0.1290 -0.7290
  410MOL0     C55222  10.492  10.280   2.667 -0.5996 -0.4591 -0.6451
  410MOL0     O55223  10.543  10.301   2.789 -0.1698 -0.9131  0.1348
  410MOL0     C55224  10.674  10.260   2.811 -0.4260 -0.1807  0.4582
  410MOL0     C55225  10.716  10.335   2.940  0.2288 -0.1500 -0.1627
  410MOL0     C55226  10.858  10.298   2.968 -0.1351  0.5330  0.4276
  410MOL0     C55227  10.874  10.166   3.048 -0.5329 -0.3215  0.0082
  410MOL0     C55228  10.840  10.181   3.192  0.2557 -0.0146 -0.7731
  410MOL0     C55229  10.904  10.070   3.279 -0.0997  0.3450 -0.4287
  410MOL0     C55230  10.841  10.081   3.415  0.3713 -0.0687  0.6788
  410MOL0     C55231  10.887   9.957   3.498  0.9337 -0.0361 -0.3479
  410MOL0     N55232  10.808   9.945   3.626 -0.3618 -0.4895 -0.0479
  410MOL0     C55233  10.679   9.937   3.641  0.1186 -0.4836  0.2111
  410MOL0     C55234  10.647   9.926   3.769  0.0802  0.0141  1.1423
  410MOL0     C55235  10.506   9.928   3.827 -0.6429 -0.1388  0.5307
  410MOL0     C55236  10.450   9.783   3.829  0.3161 -0.7280  1.1374
  410MOL0     C55237  10.309   9.777   3.891  0.4456  0.0183 -0.6978
  410MOL0     C55238  10.248   9.642   3.889  0.3523 -0.6292  0.0385
  410MOL0     O55239  10.294   9.555   3.994  0.6480  0.3010 -0.5018
  410MOL0     C55240  10.404   9.469   3.970 -0.3610 -0.1856 -0.4449
  410MOL0     C55241  10.452   9.424   3.845 -0.2725 -0.3655  0.5964
  410MOL0     C55242  10.555   9.335   3.829 -0.5085  1.4012  0.5509
  410MOL0     C55243  10.606   9.314   3.692 -0.1245 -0.2986 -0.6195
  410MOL0     C55244  10.611   9.267   3.944 -0.5422 -0.1151 -0.0130
  410MOL0     C55245  10.728   9.171   3.945  0.4180  0.7818  0.2377
  410MOL0     O55246  10.796   9.159   4.062  0.3126 -0.3041  0.2965
  410MOL0     C55247  10.874   9.044   4.071  0.6265  0.1063 -0.5510
  410MOL0     C55248  11.010   9.055   4.125 -0.2171  0.1366 -0.1456
  410MOL0     C55249  11.086   8.932   4.163  0.5802 -1.3136  0.1600
  410MOL0     C55250  11.027   8.810   4.150 -0.0675  0.2492 -0.2285
  410MOL0     O55251  11.100   8.696   4.179 -0.4127  0.4460  0.4266
  410MOL0     C55252  11.045   8.573   4.220 -0.4583 -0.1481 -0.0004
  410MOL0     C55253  11.146   8.514   4.322  0.4329 -0.5930  0.6480
  410MOL0     C55254  11.116   8.369   4.369 -0.0769  0.2390 -0.0622
  410MOL0     C55255  11.136   8.257   4.261  0.1279  0.9685  0.8614
  410MOL0     C55256  11.115   8.118   4.325 -0.4951  0.2320  0.2677
  410MOL0     C55257  11.249   8.068   4.370  0.0026 -0.0795 -1.1145
  410MOL0     C55258  11.229   7.925   4.423 -0.3665  0.2369  0.7074
  410MOL0     C55259  11.361   7.856   4.460 -0.7655 -0.3089 -0.9648
  410MOL0    Cl55260  11.467   7.831   4.325  0.2094 -0.1733 -0.0949
  410MOL0     C55261  10.894   8.803   4.106 -0.8095  0.1450 -0.3073
  410MOL0     C55262  10.820   8.916   4.074 -0.2920 -0.0097 -0.1281
  410MOL0     O55263  10.755   9.113   3.836 -0.1713  0.0459 -0.0935
  410MOL0     C55264  10.553   9.301   4.060 -0.1163 -0.3253 -0.2312
  410MOL0     C55265  10.457   9.402   4.077 -0.7762  0.5805  0.6024
  410MOL0     N55266  10.769   9.918   3.834 -0.4854  0.0529  0.4381
  410MOL0     N55267  10.866   9.925   3.750 -0.0172  1.4643  0.2527
  410MOL0     C55268  10.553  10.216   2.556 -0.2989 -0.3292  0.7651
  410MOL0     C55269  10.479  10.180   2.439 -0.5668 -0.8209  0.7919
  410MOL0     C55270  10.161  10.023   2.173 -0.2448  1.0123  1.0617
  410MOL0     C55271  10.085  10.131   2.121 -0.0886  0.6709 -0.1748
  410MOL0     C55272   9.986  10.108   2.025 -0.4961  0.6048 -0.2410
  410MOL0     C55273   9.971   9.981   1.971 -0.8444 -0.3530 -1.1519
  410MOL0     O55274   9.872   9.952   1.878 -1.0743  0.7783  0.7195
  410MOL0     C55275   9.739   9.940   1.916  0.6791 -0.9144 -0.5041
  410MOL0     C55276   9.640   9.896   1.813 -0.2527  0.2781 -0.7757
  410MOL0     C55277   9.648   9.757   1.768 -0.6714  0.1716 -0.2364
  410MOL0     C55278   9.537   9.702   1.680 -0.0926 -0.2794  0.1490
  410MOL0     C55279   9.509   9.785   1.561  0.4488 -0.9819 -0.2064
  410MOL0     C55280   9.462   9.843   1.470 -0.1322  0.0331 -0.5972
  410MOL0     C55281  10.061   9.877   2.012 -0.1851 -0.6838  0.6655
  410MOL0     C55282  10.159   9.897   2.110 -0.1301  0.7285 -0.0357
  410MOL0     H55283  10.192  10.345   2.517  0.1527  0.1855 -1.1825
  410MOL0     H55284  10.317  10.402   2.713  0.1452 -0.5955  0.4277
  410MOL0     H55285  10.687  10.152   2.824 -0.8352 -0.0372  2.4780
  410MOL0     H55286  10.739  10.277   2.725  0.3250 -5.7917 -0.4743
  410MOL0     H55287  10.707  10.444   2.935 -0.7028 -0.2230 -0.3916
  410MOL0     H55288  10.646  10.310   3.020  1.9608  0.2474  1.5453
  410MOL0     H55289  10.910  10.282   2.873  0.2775 -4.1681  1.2289
  410MOL0     H55290  10.907  10.382   3.018  2.9598 -0.2833 -0.9402
  410MOL0     H55291  10.810  10.089   3.003 -0.6325 -1.0472  1.3548
  410MOL0     H55292  10.977  10.133   3.034 -1.5492 -3.5346 -0.6621
  410MOL0     H55293  10.880  10.271   3.239 -0.6464  0.3783 -0.7403
  410MOL0     H55294  10.732  10.194   3.204  0.1439  0.4410 -2.1265
  410MOL0     H55295  10.867   9.980   3.229 -1.8551  1.1069 -0.5823
  410MOL0     H55296  11.013  10.071   3.282  0.0066  0.1227 -2.5121
  410MOL0     H55297  10.865  10.174   3.469 -1.4497  0.0943  1.2700
  410MOL0     H55298  10.732  10.073   3.414  0.2354 -0.9284  4.4778
  410MOL0     H55299  10.995   9.968   3.511  0.5432  1.5757  2.5726
  410MOL0     H55300  10.866   9.861   3.450  0.1908 -0.2557  0.3746
  410MOL0     H55301  10.608   9.954   3.561  2.5112  2.0854 -1.5481
  410MOL0     H55302  10.515   9.972   3.926 -0.6472 -1.1112  0.9697
  410MOL0     H55303  10.440   9.991   3.766 -0.8556 -0.0894  0.8122
  410MOL0     H55304  10.513   9.718   3.891  1.0957 -0.3651  0.7476
  410MOL0     H55305  10.449   9.750   3.725 -2.4007  2.1238  0.1281
  410MOL0     H55306  10.240   9.846   3.842 -1.1236 -0.2970  0.9746
  410MOL0     H55307  10.306   9.796   3.999  0.9125 -2.2943 -0.2064
  410MOL0     H55308  10.270   9.602   3.790  2.5942  0.0213  0.2278
  410MOL0     H55309  10.139   9.645   3.903  0.1622 -1.5502 -1.0370
  410MOL0     H55310  10.430   9.477   3.752  1.7131  0.1252  0.3698
  410MOL0     H55311  10.715   9.327   3.690  0.0914 -0.1892  3.4295
  410MOL0     H55312  10.592   9.211   3.658  0.7377 -1.2197  1.6292
  410MOL0     H55313  10.560   9.371   3.611 -0.1671 -0.4436 -0.6974
  410MOL0     H55314  11.064   9.146   4.149  2.8641 -1.4594 -0.4699
  410MOL0     H55315  11.179   8.926   4.219  0.4510 -3.4883  0.2299
  410MOL0     H55316  10.952   8.595   4.273  0.2037  2.1126  0.3557
  410MOL0     H55317  11.028   8.510   4.132  0.2924  0.5906 -0.6986
  410MOL0     H55318  11.239   8.515   4.265 -0.5899  2.2072 -1.2491
  410MOL0     H55319  11.144   8.580   4.409 -1.7955 -1.7743  1.5791
  410MOL0     H55320  11.021   8.361   4.421 -0.1299  0.3137 -0.1460
  410MOL0     H55321  11.188   8.348   4.449  1.5904  2.6642 -0.7991
  410MOL0     H55322  11.050   8.267   4.194 -2.1558 -1.8944  3.0991
  410MOL0     H55323  11.229   8.277   4.206 -0.3846  0.9754 -0.0251
  410MOL0     H55324  11.089   8.046   4.246  0.8085 -1.3785  1.2432
  410MOL0     H55325  11.050   8.123   4.413  0.3171  1.3456  0.8330
  410MOL0     H55326  11.319   8.073   4.285  2.2938  1.3277  0.7154
  410MOL0     H55327  11.284   8.131   4.452 -1.4804  0.9907 -1.2766
  410MOL0     H55328  11.195   7.871   4.335 -0.0184  2.4673 -0.9028
  410MOL0     H55329  11.159   7.922   4.507 -0.7665 -0.3544  0.3590
  410MOL0     H55330  11.336   7.761   4.508 -1.1018  1.0826  1.8293
  410MOL0     H55331  11.400   7.923   4.538 -1.7423 -2.2059  1.2703
  410MOL0     H55332  10.846   8.709   4.081 -2.6041  1.6736 -3.0946
  410MOL0     H55333  10.715   8.922   4.046 -0.2690 -1.4809 -0.5925
  410MOL0     H55334  10.605   9.260   4.146 -1.9375  0.9516  1.5403
  410MOL0     H55335  10.428   9.417   4.180  0.3841 -0.1987  1.0605
  410MOL0     H55336  10.657  10.187   2.570  0.5753  1.7431 -0.8286
  410MOL0     H55337  10.540  10.123   2.370 -0.2947 -0.0961  0.4177
  410MOL0     H55338  10.080  10.231   2.163 -0.9425  0.0772  1.1904
  410MOL0     H55339   9.925  10.187   1.981 -0.9081 -1.2001 -3.1533
  410MOL0     H55340   9.735   9.867   1.997  3.0630 -0.1582  0.3690
  410MOL0     H55341   9.711  10.037   1.957  3.4632  1.6031 -3.9507
  410MOL0     H55342   9.632   9.970   1.732 -4.1200 -1.5731 -2.3830
  410MOL0     H55343   9.542   9.905   1.862  2.0311  3.1631  3.9718
  410MOL0     H55344   9.650   9.696   1.859  2.7057 -0.6770 -0.7343
  410MOL0     H55345   9.743   9.750   1.715  0.4979 -0.0418  1.7653
  410MOL0     H55346   9.442   9.699   1.734 -0.8834 -1.7185 -1.2471
  410MOL0     H55347   9.560   9.605   1.635 -0.1196  0.6238 -1.9729
  410MOL0     H55348   9.423   9.896   1.386 -3.0819  0.8985  1.1765
  410MOL0     H55349  10.043   9.780   1.967 -2.9376 -0.2837  0.7290
  410MOL0     H55350  10.221   9.818   2.150 -1.2311 -1.0081 -1.6023
  411MOL0     O55351   9.920   2.638   7.914 -0.3296  0.4324 -0.0840
  411MOL0     C55352  10.010   2.574   7.854 -0.6385 -0.6753 -0.0836
  411MOL0     O55353   9.995   2.473   7.764 -0.3224  0.2437  0.0677
  411MOL0     C55354   9.887   2.455   7.687 -0.0318  1.3305  0.1774
  411MOL0     C55355   9.878   2.328   7.629 -0.0653 -0.6136 -0.2095
  411MOL0     C55356   9.767   2.297   7.549 -0.1521 -0.3415 -0.2174
  411MOL0     C55357   9.662   2.382   7.543  0.0479 -0.1986 -0.0807
  411MOL0     O55358   9.538   2.351   7.491 -0.7029 -0.0080 -0.4190
  411MOL0     C55359   9.491   2.215   7.518  0.1081 -0.2702 -0.2363
  411MOL0     C55360   9.349   2.178   7.473 -0.0234  0.2844  1.2000
  411MOL0     C55361   9.242   2.220   7.582  0.8448 -0.0508  0.2192
  411MOL0     C55362   9.097   2.194   7.538  0.4251 -0.0364 -0.0784
  411MOL0     C55363   9.009   2.259   7.638  0.6048  0.5251 -0.2435
  411MOL0     C55364   8.991   2.417   7.620 -0.2152  0.1878  0.8555
  411MOL0     C55365   8.887   2.482   7.710  0.1709  0.1118  0.8108
  411MOL0     C55366   8.924   2.492   7.853 -0.7771 -0.6552  0.5400
  411MOL0     N55367   8.802   2.547   7.923 -0.0792 -0.3366 -0.1332
  411MOL0     C55368   8.699   2.468   7.959  1.1534 -0.5905  0.2258
  411MOL0     C55369   8.615   2.559   8.018  0.3778 -0.6763  0.5506
  411MOL0     C55370   8.485   2.522   8.087 -0.1155 -0.4403  0.1724
  411MOL0     C55371   8.379   2.457   7.995 -0.9558  0.5153  0.8101
  411MOL0     C55372   8.244   2.408   8.061 -0.4286 -0.4689  0.0750
  411MOL0     C55373   8.260   2.272   8.138 -0.0856  0.5275 -0.2168
  411MOL0     O55374   8.131   2.213   8.161 -0.4593  0.3553 -0.2434
  411MOL0     C55375   8.047   2.255   8.264  0.0856 -0.7756 -1.0676
  411MOL0     C55376   7.913   2.217   8.268  0.8169  1.3516 -0.6204
  411MOL0     C55377   7.815   2.244   8.367  0.0563 -0.5380 -0.4239
  411MOL0     C55378   7.679   2.179   8.354 -0.1352  0.0798  0.3807
  411MOL0     C55379   7.857   2.345   8.465  0.5684  0.1680  0.5680
  411MOL0     C55380   7.773   2.407   8.568  0.1369 -0.6478  0.4508
  411MOL0     O55381   7.649   2.356   8.573 -0.1245  0.3000  0.3643
  411MOL0     C55382   7.556   2.399   8.665  0.4287  0.5038 -0.0568
  411MOL0     C55383   7.509   2.531   8.686 -0.9772  0.6656 -0.2862
  411MOL0     C55384   7.405   2.557   8.774  0.8916  0.9692  0.4669
  411MOL0     C55385   7.351   2.454   8.860 -0.5453  0.5114 -0.0331
  411MOL0     O55386   7.248   2.498   8.934  0.4630 -0.4731  0.3018
  411MOL0     C55387   7.148   2.408   8.982  0.4168 -1.3401 -0.5128
  411MOL0     C55388   7.020   2.481   9.021  0.1109  0.2674  1.1606
  411MOL0     C55389   7.020   2.521   9.162 -0.1223  0.2983 -0.4348
  411MOL0     C55390   6.894   2.607   9.173  0.2316  0.3621 -0.3789
  411MOL0     C55391   6.837   2.659   9.312 -0.4519  0.1853 -0.5067
  411MOL0     C55392   6.702   2.721   9.298  0.8216 -0.2547  0.2692
  411MOL0     C55393   6.682   2.829   9.184  0.0260  0.2176 -0.1994
  411MOL0     C55394   6.541   2.879   9.203  0.6596  0.3135 -0.6900
  411MOL0    Cl55395   6.427   2.759   9.135 -0.0488  0.0951 -0.1531
  411MOL0     C55396   7.391   2.327   8.838 -0.9392 -0.2322  0.2437
  411MOL0     C55397   7.495   2.306   8.741  0.3466 -0.5996 -0.3458
  411MOL0     O55398   7.817   2.494   8.642 -0.3923  0.2273 -0.4535
  411MOL0     C55399   7.991   2.380   8.468 -0.7745 -1.0006 -0.8752
  411MOL0     C55400   8.083   2.338   8.368 -0.1904 -0.9137 -0.0497
  411MOL0     N55401   8.650   2.687   7.982  0.2033 -0.6195  0.8092
  411MOL0     N55402   8.765   2.678   7.916 -0.1566  0.4280 -0.2942
  411MOL0     C55403   9.677   2.512   7.584 -0.0772  0.1649  0.3501
  411MOL0     C55404   9.796   2.549   7.650 -0.5094  0.5466 -0.1006
  411MOL0     C55405  10.147   2.618   7.892 -0.1859 -0.2454  0.0514
  411MOL0     C55406  10.251   2.553   7.817 -0.0719 -0.7007  0.3952
  411MOL0     C55407  10.380   2.603   7.829 -0.5641  0.3826  0.4046
  411MOL0     C55408  10.419   2.709   7.914 -0.4555  0.2630 -0.3261
  411MOL0     O55409  10.555   2.737   7.917  0.2823 -1.1295  0.3658
  411MOL0     C55410  10.621   2.760   7.786 -0.0162 -0.1908 -0.3811
  411MOL0     C55411  10.675   2.899   7.758 -0.6476  0.1539 -0.3036
  411MOL0     C55412  10.573   3.006   7.747  0.6675  0.5741  0.4462
  411MOL0     C55413  10.607   3.128   7.670 -0.0282 -0.6203 -0.2063
  411MOL0     C55414  10.733   3.191   7.731 -0.0513 -0.0506  1.2054
  411MOL0     C55415  10.820   3.245   7.792  1.1956  0.5599  0.0953
  411MOL0     C55416  10.317   2.777   7.984 -0.6225  0.2543  0.1299
  411MOL0     C55417  10.185   2.722   7.974 -0.1863  0.4099 -0.1621
  411MOL0     H55418   9.961   2.259   7.642 -0.8647 -1.0609  3.8631
  411MOL0     H55419   9.765   2.195   7.513 -3.7248 -1.1402  1.7762
  411MOL0     H55420   9.561   2.143   7.474  0.8587  0.5880 -0.4747
  411MOL0     H55421   9.484   2.200   7.626  0.8454  2.5140  0.2631
  411MOL0     H55422   9.322   2.229   7.380  2.9890 -0.4006 -0.1708
  411MOL0     H55423   9.355   2.070   7.459 -0.8694  0.5345 -1.7195
  411MOL0     H55424   9.262   2.163   7.673  0.1028 -2.0267 -0.7841
  411MOL0     H55425   9.250   2.328   7.594  0.7511 -0.0844  0.5971
  411MOL0     H55426   9.082   2.227   7.434  0.3100 -0.1704 -0.1041
  411MOL0     H55427   9.078   2.087   7.533 -0.2500  0.1156 -1.1351
  411MOL0     H55428   8.912   2.209   7.639  0.0939  1.4883 -0.5794
  411MOL0     H55429   9.053   2.246   7.738  0.9980  3.9513  0.1369
  411MOL0     H55430   9.083   2.477   7.619  0.2514 -0.5225  1.1890
  411MOL0     H55431   8.952   2.428   7.518  1.1869 -3.6152 -0.2344
  411MOL0     H55432   8.877   2.580   7.663 -1.8814 -1.3105 -2.0544
  411MOL0     H55433   8.785   2.442   7.703  0.5635 -0.9005  0.6394
  411MOL0     H55434   9.005   2.566   7.854 -2.3551  1.1650 -0.6179
  411MOL0     H55435   8.960   2.396   7.891 -0.1591 -0.0744  1.4805
  411MOL0     H55436   8.691   2.360   7.947  0.7841 -0.6061  0.5845
  411MOL0     H55437   8.502   2.455   8.171  0.5462  0.3176  0.6633
  411MOL0     H55438   8.440   2.614   8.127 -0.4937 -1.4307  2.1092
  411MOL0     H55439   8.429   2.377   7.939  1.4608  2.0596  0.6414
  411MOL0     H55440   8.366   2.538   7.923  1.1144 -0.5669 -0.8924
  411MOL0     H55441   8.176   2.376   7.982 -1.4861  0.1565  0.7087
  411MOL0     H55442   8.195   2.480   8.127  0.6928  0.9378 -0.5707
  411MOL0     H55443   8.317   2.307   8.224 -0.8154  0.0981  0.4586
  411MOL0     H55444   8.312   2.199   8.075 -1.3941 -0.4060 -0.2437
  411MOL0     H55445   7.876   2.143   8.198 -0.7377  1.1797  0.3513
  411MOL0     H55446   7.620   2.256   8.301 -0.3112 -0.2526  0.0892
  411MOL0     H55447   7.677   2.094   8.285 -0.7654 -0.7533  1.4146
  411MOL0     H55448   7.651   2.152   8.456  0.1821 -0.7605  0.2537
  411MOL0     H55449   7.545   2.618   8.632 -0.1128  1.7209  1.8463
  411MOL0     H55450   7.368   2.659   8.778 -2.2074 -0.0144 -0.6105
  411MOL0     H55451   7.118   2.344   8.898 -3.6072  1.1131 -1.1944
  411MOL0     H55452   7.185   2.340   9.059  0.8447 -0.7685 -0.2055
  411MOL0     H55453   7.001   2.561   8.949 -0.4623 -0.7324  0.1419
  411MOL0     H55454   6.934   2.413   9.007 -0.3262  0.9425  0.4738
  411MOL0     H55455   7.111   2.576   9.188 -1.2230  1.7164  0.5603
  411MOL0     H55456   7.001   2.432   9.223  2.2692  0.0186  0.0223
  411MOL0     H55457   6.911   2.694   9.108  1.9162  0.1228 -0.3035
  411MOL0     H55458   6.823   2.542   9.121  1.2571  0.1873 -1.6345
  411MOL0     H55459   6.906   2.724   9.366  2.1163 -2.0018 -0.9759
  411MOL0     H55460   6.833   2.575   9.381  1.7278  1.1737  0.9286
  411MOL0     H55461   6.631   2.639   9.286 -0.1648  0.4536  1.1512
  411MOL0     H55462   6.690   2.767   9.396  2.0786  2.4633 -0.7308
  411MOL0     H55463   6.693   2.793   9.081 -2.8039  0.9393 -0.8260
  411MOL0     H55464   6.754   2.910   9.201  0.5393  0.0997 -1.6672
  411MOL0     H55465   6.525   2.970   9.145 -3.2391  0.3976  0.2636
  411MOL0     H55466   6.511   2.886   9.308  0.1396 -1.5008 -0.6737
  411MOL0     H55467   7.349   2.243   8.893 -0.9088  1.2018  2.6373
  411MOL0     H55468   7.540   2.207   8.738  3.4208  0.6669  0.4502
  411MOL0     H55469   8.035   2.440   8.547 -1.0836 -1.6751 -0.1792
  411MOL0     H55470   8.186   2.372   8.378 -0.8747  2.5813 -2.9599
  411MOL0     H55471   9.598   2.580   7.558 -1.8623 -3.1085 -3.9541
  411MOL0     H55472   9.813   2.652   7.678 -4.2791  1.5148 -0.8534
  411MOL0     H55473  10.237   2.464   7.755 -2.0615 -0.6121  0.6563
  411MOL0     H55474  10.453   2.550   7.770  0.4680  0.1387  1.8306
  411MOL0     H55475  10.688   2.674   7.778 -0.2410 -0.3084 -1.0657
  411MOL0     H55476  10.550   2.740   7.706  1.3682 -3.5985 -0.9050
  411MOL0     H55477  10.739   2.888   7.670 -1.4184  2.4206 -1.2014
  411MOL0     H55478  10.746   2.939   7.831 -1.3330  2.0027 -0.6070
  411MOL0     H55479  10.544   3.034   7.848 -0.5244  2.2426 -0.3006
  411MOL0     H55480  10.480   2.964   7.707  0.8260 -0.1886  0.8730
  411MOL0     H55481  10.530   3.205   7.682 -0.5515 -1.4575  2.4856
  411MOL0     H55482  10.633   3.114   7.564  0.3852  1.3187 -0.3936
  411MOL0     H55483  10.877   3.318   7.846 -4.1040  3.7540  2.0841
  411MOL0     H55484  10.347   2.863   8.043 -1.3000  0.0675  0.7569
  411MOL0     H55485  10.110   2.764   8.040  0.0452  0.8804 -0.1928
  412MOL0     O55486   9.293   8.170   6.535 -0.1966  0.7060  0.9323
  412MOL0     C55487   9.192   8.110   6.505  0.4236 -0.8396 -0.1856
  412MOL0     O55488   9.067   8.169   6.499  0.2045 -0.2032 -0.4184
  412MOL0     C55489   9.057   8.303   6.492  0.3212 -0.2990 -1.0965
  412MOL0     C55490   9.026   8.365   6.379 -0.3228 -0.5287  0.5497
  412MOL0     C55491   8.990   8.503   6.379 -0.1281  0.8635  0.0122
  412MOL0     C55492   8.972   8.572   6.497  0.2348 -0.3026  0.8007
  412MOL0     O55493   8.916   8.697   6.479  0.5842 -0.2625  0.9593
  412MOL0     C55494   8.903   8.783   6.592  0.0699 -0.0713 -0.1587
  412MOL0     C55495   8.877   8.921   6.543 -1.1328  0.8301 -0.3582
  412MOL0     C55496   8.920   9.029   6.642 -0.4449 -0.7467  0.3592
  412MOL0     C55497   8.880   9.166   6.579  0.5508  0.2265 -0.0236
  412MOL0     C55498   8.930   9.290   6.642 -1.0355 -0.2045 -1.2403
  412MOL0     C55499   8.834   9.344   6.750 -0.6253 -0.4685  0.4225
  412MOL0     C55500   8.886   9.474   6.799  0.6336  0.2615  0.5771
  412MOL0     C55501   8.803   9.535   6.919 -1.3757  0.6087  0.6217
  412MOL0     N55502   8.787   9.445   7.032  1.3793 -0.1338  0.0861
  412MOL0     C55503   8.656   9.430   7.091 -1.0271  0.0050  0.4256
  412MOL0     C55504   8.674   9.349   7.194 -0.7958 -1.2889 -0.8560
  412MOL0     C55505   8.567   9.301   7.292 -0.0921  0.0353 -0.2976
  412MOL0     C55506   8.588   9.372   7.428 -0.9930 -0.2684 -1.0093
  412MOL0     C55507   8.458   9.365   7.514  0.5652  0.2041 -0.1372
  412MOL0     C55508   8.502   9.350   7.655  0.0728  0.3719  0.8889
  412MOL0     O55509   8.402   9.256   7.710  0.6839  0.4690  0.1027
  412MOL0     C55510   8.430   9.234   7.837 -0.2702  0.5591  0.2082
  412MOL0     C55511   8.516   9.119   7.859  0.8732  0.1502 -0.0490
  412MOL0     C55512   8.552   9.091   7.990 -1.2016  0.1275 -0.0840
  412MOL0     C55513   8.631   8.969   8.012 -0.2668  0.0113  0.0809
  412MOL0     C55514   8.530   9.193   8.093 -0.2954  1.1110 -0.0546
  412MOL0     C55515   8.580   9.178   8.233 -0.8562 -0.1017 -0.3909
  412MOL0     O55516   8.508   9.255   8.331  0.2567  0.5426  0.3629
  412MOL0     C55517   8.526   9.236   8.470 -0.1567  0.7112 -0.2910
  412MOL0     C55518   8.546   9.110   8.533  0.3315  0.4416  0.4239
  412MOL0     C55519   8.563   9.092   8.676 -0.4503 -0.7326 -0.5293
  412MOL0     C55520   8.550   9.207   8.763  0.1395  0.3702  0.6623
  412MOL0     O55521   8.529   9.201   8.896  0.1503 -0.5458 -0.1062
  412MOL0     C55522   8.468   9.085   8.950 -1.5953 -0.6292 -0.3390
  412MOL0     C55523   8.579   8.973   8.979  0.6029 -0.0400  0.4174
  412MOL0     C55524   8.601   8.934   9.131  0.3178 -1.2490  0.4606
  412MOL0     C55525   8.650   8.790   9.139  0.5669 -0.5704  0.2084
  412MOL0     C55526   8.661   8.750   9.285 -0.6250  0.8415 -0.0762
  412MOL0     C55527   8.698   8.597   9.282 -0.5281  0.8666  0.5376
  412MOL0     C55528   8.709   8.556   9.431  0.2738 -0.0739 -0.5448
  412MOL0     C55529   8.790   8.436   9.458 -0.5661  0.4286 -0.1529
  412MOL0    Cl55530   8.728   8.298   9.357  0.1233  0.6572 -0.1316
  412MOL0     C55531   8.534   9.333   8.692  0.3987  0.8084  0.9349
  412MOL0     C55532   8.522   9.342   8.554 -0.1115 -0.5425  0.0512
  412MOL0     O55533   8.690   9.127   8.247 -0.2824 -0.2405 -0.3212
  412MOL0     C55534   8.449   9.304   8.064 -0.0476  0.7320 -0.3221
  412MOL0     C55535   8.396   9.326   7.938  0.3513  0.0648  0.7815
  412MOL0     N55536   8.812   9.324   7.206 -0.0230 -0.4029 -0.8566
  412MOL0     N55537   8.877   9.384   7.110 -0.0985  0.0381  1.1437
  412MOL0     C55538   9.012   8.505   6.618 -0.3981  0.7105 -0.2544
  412MOL0     C55539   9.068   8.377   6.615  0.0800 -0.2162  0.7087
  412MOL0     C55540   9.204   7.956   6.484  0.1012  0.0836  0.1879
  412MOL0     C55541   9.092   7.889   6.444  0.2703 -0.3003 -0.5152
  412MOL0     C55542   9.091   7.747   6.428  0.2771  1.0158 -0.2768
  412MOL0     C55543   9.207   7.673   6.441  0.7517 -0.1457 -0.3347
  412MOL0     O55544   9.185   7.537   6.424 -0.4810  0.0270  0.2240
  412MOL0     C55545   9.297   7.443   6.432 -0.0897 -0.2954  0.0621
  412MOL0     C55546   9.237   7.299   6.450  0.6196 -0.3589  0.1665
  412MOL0     C55547   9.341   7.185   6.442 -0.0292  0.1261  0.8489
  412MOL0     C55548   9.299   7.055   6.502  0.7138 -0.0898 -0.5780
  412MOL0     C55549   9.388   6.958   6.449 -0.5175 -0.8921  0.1480
  412MOL0     C55550   9.466   6.880   6.397 -0.3976 -0.0407 -0.3987
  412MOL0     C55551   9.322   7.743   6.464 -1.1600 -0.3956  0.2585
  412MOL0     C55552   9.318   7.883   6.490 -0.5897  0.2189 -0.3296
  412MOL0     H55553   9.008   8.303   6.292  1.3474 -0.6596  0.2590
  412MOL0     H55554   8.969   8.563   6.291  2.8142 -1.6778 -2.6893
  412MOL0     H55555   8.813   8.759   6.651  0.6658 -2.6277 -0.1604
  412MOL0     H55556   8.989   8.778   6.659  0.3591  0.3544 -0.4929
  412MOL0     H55557   8.932   8.928   6.449 -1.1454  1.4325 -0.3224
  412MOL0     H55558   8.773   8.933   6.512 -1.6085 -2.9385 -0.6428
  412MOL0     H55559   8.872   9.001   6.736  1.9641  2.2790  2.7185
  412MOL0     H55560   9.025   9.021   6.672 -0.1238 -1.8728 -0.9225
  412MOL0     H55561   8.918   9.168   6.477 -0.1459 -1.7655 -0.3656
  412MOL0     H55562   8.771   9.169   6.586  0.2990 -1.5465 -2.2874
  412MOL0     H55563   9.026   9.267   6.689 -0.1259 -0.4262 -3.1268
  412MOL0     H55564   8.936   9.367   6.565 -1.1794 -1.0549 -2.1090
  412MOL0     H55565   8.733   9.335   6.708 -0.6229 -3.3054  0.8085
  412MOL0     H55566   8.828   9.285   6.841  1.6437  2.1573  2.4526
  412MOL0     H55567   8.989   9.473   6.834  0.6330  1.5343  0.6520
  412MOL0     H55568   8.893   9.552   6.723 -0.3982  1.6132  1.8190
  412MOL0     H55569   8.704   9.572   6.890 -0.1363  1.6913 -2.6605
  412MOL0     H55570   8.859   9.622   6.954  1.3834  0.0040 -1.9457
  412MOL0     H55571   8.559   9.460   7.054 -0.9413  1.4526  1.3068
  412MOL0     H55572   8.474   9.334   7.246 -0.7442 -0.2547  0.7851
  412MOL0     H55573   8.572   9.193   7.311  0.8553  0.6051  3.4832
  412MOL0     H55574   8.618   9.474   7.401 -2.8238  0.4015 -0.7246
  412MOL0     H55575   8.674   9.325   7.475 -2.8228 -0.7456  2.1875
  412MOL0     H55576   8.395   9.281   7.486  3.1028 -2.4998  1.7083
  412MOL0     H55577   8.398   9.456   7.504 -0.8831 -0.7012  0.1166
  412MOL0     H55578   8.508   9.444   7.712 -0.3262  0.7787  0.2674
  412MOL0     H55579   8.601   9.303   7.662 -0.2608 -0.1261  4.6436
  412MOL0     H55580   8.524   9.046   7.779 -0.3980  1.4415 -1.4066
  412MOL0     H55581   8.623   8.901   7.926  0.0112  2.1797 -1.7400
  412MOL0     H55582   8.738   8.994   8.018  0.3368 -1.8680 -1.6029
  412MOL0     H55583   8.596   8.912   8.099  0.1147 -0.7377 -0.2450
  412MOL0     H55584   8.535   9.021   8.471 -2.0671  1.1447 -0.2629
  412MOL0     H55585   8.577   8.994   8.720  2.9988 -0.2361 -0.2506
  412MOL0     H55586   8.413   9.117   9.039 -0.7528  3.9134 -1.1907
  412MOL0     H55587   8.391   9.047   8.882 -2.4365  2.4760 -1.2972
  412MOL0     H55588   8.552   8.881   8.925 -0.2255 -0.6007  1.7217
  412MOL0     H55589   8.679   8.999   8.945 -0.1613  3.8000  0.6515
  412MOL0     H55590   8.507   8.933   9.187 -2.4157 -1.9687 -3.6685
  412MOL0     H55591   8.671   9.004   9.176 -1.2471 -0.9550  2.5809
  412MOL0     H55592   8.582   8.720   9.090  5.0377 -4.1397 -1.5892
  412MOL0     H55593   8.745   8.789   9.084  1.2329 -0.7823  1.3242
  412MOL0     H55594   8.575   8.764   9.351  0.9499  1.3627  1.9980
  412MOL0     H55595   8.745   8.806   9.328  1.2621 -2.0713  0.3056
  412MOL0     H55596   8.617   8.535   9.240 -0.4211  0.6872  0.5958
  412MOL0     H55597   8.794   8.587   9.231  0.4856  0.3690  2.4521
  412MOL0     H55598   8.608   8.535   9.467  0.5433 -1.2352 -0.4184
  412MOL0     H55599   8.740   8.643   9.489 -1.9815 -0.4004  1.3282
  412MOL0     H55600   8.788   8.412   9.564  0.9650 -0.1606 -0.2307
  412MOL0     H55601   8.897   8.445   9.436 -0.4670 -1.5614 -0.6512
  412MOL0     H55602   8.529   9.427   8.747  2.5147  0.4950  1.7394
  412MOL0     H55603   8.512   9.441   8.510  1.7784  0.5828  1.9495
  412MOL0     H55604   8.411   9.382   8.130  1.9060  1.8994 -0.4886
  412MOL0     H55605   8.322   9.402   7.918 -3.0512 -3.3613 -1.1278
  412MOL0     H55606   9.000   8.543   6.719 -0.1085  0.2732 -0.0528
  412MOL0     H55607   9.130   8.336   6.693  1.7044  0.1560 -0.3499
  412MOL0     H55608   9.002   7.949   6.430  0.2892  0.4021  2.0166
  412MOL0     H55609   8.995   7.708   6.395 -0.0008  1.7171 -0.3124
  412MOL0     H55610   9.353   7.451   6.338 -0.1801  0.2311  0.0496
  412MOL0     H55611   9.367   7.463   6.513  0.4177 -1.2670 -0.1146
  412MOL0     H55612   9.156   7.280   6.378 -0.2759 -1.4855  1.4226
  412MOL0     H55613   9.185   7.290   6.546 -0.1321  0.1295 -0.1756
  412MOL0     H55614   9.432   7.214   6.495  0.8955 -0.6759 -0.2576
  412MOL0     H55615   9.362   7.170   6.336 -3.9647  3.6258 -0.7415
  412MOL0     H55616   9.195   7.039   6.471  0.5672  0.0517 -0.1610
  412MOL0     H55617   9.297   7.075   6.609  1.7151 -0.6663 -0.4375
  412MOL0     H55618   9.526   6.806   6.348 -1.9064 -1.6270  0.0415
  412MOL0     H55619   9.417   7.690   6.465  0.8892  2.9187 -0.4511
  412MOL0     H55620   9.408   7.939   6.516  1.6598 -4.2157  3.0169
  413MOL0     O55621  10.914  10.405  11.052  0.3978 -0.2680  0.3086
  413MOL0     C55622  11.036  10.409  11.021  0.1562 -0.5705  1.2337
  413MOL0     O55623  11.128  10.475  11.098  0.2526 -0.2976  0.4150
  413MOL0     C55624  11.074  10.516  11.221 -0.2212  0.8410  0.6347
  413MOL0     C55625  11.013  10.640  11.242 -0.9301  0.7819 -0.3582
  413MOL0     C55626  10.942  10.671  11.363 -0.0580 -0.6173  0.4233
  413MOL0     C55627  10.940  10.572  11.462  1.0261 -0.6329  0.1672
  413MOL0     O55628  10.861  10.611  11.571 -0.2591 -0.2918  1.0270
  413MOL0     C55629  10.800  10.512  11.652 -0.4201 -0.0185  0.0737
  413MOL0     C55630  10.717  10.595  11.738 -0.0503  0.6747  0.1085
  413MOL0     C55631  10.616  10.517  11.828  0.3221  0.2402  0.0312
  413MOL0     C55632  10.526  10.616  11.906 -0.0867  0.0156  0.2815
  413MOL0     C55633  10.427  10.533  11.983  0.9971 -0.2112  0.1885
  413MOL0     C55634  10.307  10.608  12.006  0.3801  0.1560  1.0486
  413MOL0     C55635  10.222  10.514  12.091 -0.0897  0.2451 -0.5973
  413MOL0     C55636  10.076  10.563  12.113  0.4190  0.2513  0.3964
  413MOL0     N55637  10.051  10.677  12.192 -0.2628 -0.3199  0.1644
  413MOL0     C55638   9.952  10.691  12.293  0.4469  0.1221  0.1910
  413MOL0     C55639   9.976  10.807  12.347 -0.5371 -0.4658 -0.2827
  413MOL0     C55640   9.904  10.860  12.467  0.0799 -0.5821 -0.5369
  413MOL0     C55641   9.749  10.887  12.465  0.7367 -0.1778  1.0252
  413MOL0     C55642   9.699  11.021  12.421 -0.2895 -0.3581  1.1240
  413MOL0     C55643   9.747  11.078  12.284 -0.4926  0.3989 -0.3987
  413MOL0     O55644   9.656  11.043  12.173  0.4526  0.5714  0.2631
  413MOL0     C55645   9.679  10.934  12.094 -0.4220 -0.6189  1.0963
  413MOL0     C55646   9.579  10.846  12.059 -0.5927  0.3917 -0.1759
  413MOL0     C55647   9.598  10.739  11.965  0.1474  0.1687 -0.6134
  413MOL0     C55648   9.470  10.682  11.909 -0.1752 -0.4477 -0.7240
  413MOL0     C55649   9.737  10.702  11.926  0.6993 -0.8908  0.0042
  413MOL0     C55650   9.771  10.590  11.836  0.4486  0.0259  0.3790
  413MOL0     O55651   9.901  10.576  11.792  0.0242 -0.1073  0.1161
  413MOL0     C55652   9.956  10.459  11.749  0.0231  0.5358 -0.4813
  413MOL0     C55653  10.012  10.467  11.620  0.3495 -0.1691  0.4740
  413MOL0     C55654  10.057  10.359  11.559 -0.5634  0.3125  0.0708
  413MOL0     C55655  10.054  10.234  11.617 -0.2967  0.6252 -1.0861
  413MOL0     O55656  10.094  10.136  11.535 -0.5978  0.3717 -0.5378
  413MOL0     C55657  10.164  10.030  11.607  0.4612  0.4224  0.1754
  413MOL0     C55658  10.275   9.966  11.509 -0.0980  0.0665  0.3875
  413MOL0     C55659  10.350   9.851  11.579 -0.1971 -0.4398  0.7727
  413MOL0     C55660  10.408   9.759  11.466  0.1173 -0.3862 -0.1837
  413MOL0     C55661  10.546   9.804  11.414  0.0172 -0.3805 -0.1594
  413MOL0     C55662  10.648   9.828  11.522 -0.0083 -0.6363  0.6553
  413MOL0     C55663  10.781   9.866  11.444  1.6373 -0.3338  0.5343
  413MOL0     C55664  10.902   9.783  11.497  0.4098  0.0198 -1.1939
  413MOL0    Cl55665  11.037   9.822  11.377  0.1364  0.4165 -0.4544
  413MOL0     C55666  10.005  10.226  11.749 -0.3275 -0.1866  0.1739
  413MOL0     C55667   9.954  10.336  11.812  0.0189  0.0640  0.7171
  413MOL0     O55668   9.684  10.512  11.801  0.2675 -0.1547 -0.4340
  413MOL0     C55669   9.841  10.791  11.969 -0.1780  0.7431 -0.3142
  413MOL0     C55670   9.812  10.904  12.043  0.1352  0.5047 -0.7662
  413MOL0     N55671  10.077  10.873  12.272 -1.1535  0.4592 -0.7030
  413MOL0     N55672  10.114  10.797  12.174 -0.6111 -0.2032  0.0372
  413MOL0     C55673  11.008  10.455  11.448 -0.2224  0.2059  0.6757
  413MOL0     C55674  11.073  10.426  11.332  0.3005 -0.9442  0.4622
  413MOL0     C55675  11.070  10.346  10.894 -1.1170  0.1685 -0.5343
  413MOL0     C55676  10.968  10.308  10.807  0.1512  0.7398  0.2570
  413MOL0     C55677  10.997  10.250  10.681  0.8696 -0.4886  0.3139
  413MOL0     C55678  11.131  10.230  10.642  0.9480 -0.5763 -0.5543
  413MOL0     O55679  11.148  10.166  10.520  0.5371  0.7571 -0.5099
  413MOL0     C55680  11.265  10.088  10.511 -0.4244  1.1427  0.4792
  413MOL0     C55681  11.267   9.955  10.590 -0.3955 -0.0546  0.2963
  413MOL0     C55682  11.137   9.882  10.588 -0.3781  0.6452  1.1314
  413MOL0     C55683  11.136   9.778  10.474 -0.0938  0.2027  0.1456
  413MOL0     C55684  11.032   9.684  10.503  0.3431  0.5715  0.1085
  413MOL0     C55685  10.939   9.617  10.525  0.2034 -0.9855 -1.2525
  413MOL0     C55686  11.233  10.273  10.731  0.8357 -0.5371  0.5799
  413MOL0     C55687  11.204  10.336  10.847 -0.0630 -1.2099 -0.7824
  413MOL0     H55688  11.022  10.729  11.181 -0.8630  1.7516  1.0254
  413MOL0     H55689  10.894  10.767  11.376  3.5892  1.2934  1.1140
  413MOL0     H55690  10.735  10.443  11.596 -0.7706 -0.6795  1.2554
  413MOL0     H55691  10.868  10.456  11.716  0.0015  0.7087  0.2734
  413MOL0     H55692  10.774  10.659  11.807  1.5106 -0.8279  0.2951
  413MOL0     H55693  10.665  10.661  11.668  1.2260 -0.9666 -2.5267
  413MOL0     H55694  10.557  10.461  11.754 -1.4142  1.2296  0.6126
  413MOL0     H55695  10.673  10.449  11.892  3.0471  0.9784 -1.4906
  413MOL0     H55696  10.592  10.672  11.972  0.3466 -1.0792  0.7997
  413MOL0     H55697  10.476  10.677  11.831  1.3147 -0.1562 -0.8080
  413MOL0     H55698  10.401  10.441  11.930 -0.7296 -1.8917  3.6414
  413MOL0     H55699  10.483  10.504  12.073  0.6837  2.1986  1.2351
  413MOL0     H55700  10.330  10.702  12.056  1.0035 -0.0727  1.2049
  413MOL0     H55701  10.252  10.624  11.913 -0.6254 -2.9153  1.0204
  413MOL0     H55702  10.226  10.414  12.048 -1.0748 -1.1674  2.3084
  413MOL0     H55703  10.260  10.512  12.194 -4.4262  3.0172  1.3454
  413MOL0     H55704  10.021  10.481  12.159  0.8216 -0.9305 -1.1456
  413MOL0     H55705  10.034  10.583  12.014  1.6114 -1.1268 -0.4246
  413MOL0     H55706   9.876  10.617  12.317  1.9012 -1.3857  0.3069
  413MOL0     H55707   9.936  10.818  12.563 -1.3534  0.1980  0.3222
  413MOL0     H55708   9.954  10.956  12.478  0.6236 -0.9359  0.1950
  413MOL0     H55709   9.714  10.868  12.567 -1.4205  1.9143  0.7869
  413MOL0     H55710   9.710  10.809  12.399  1.3174 -2.5735  3.3636
  413MOL0     H55711   9.755  11.089  12.486 -0.0845 -0.4028  0.9955
  413MOL0     H55712   9.591  11.037  12.430  0.0669  1.5966  2.5501
  413MOL0     H55713   9.847  11.040  12.261  0.1355  2.8643 -2.2762
  413MOL0     H55714   9.751  11.187  12.299  0.7357  0.1009  1.9185
  413MOL0     H55715   9.480  10.860  12.100 -0.3667 -0.7329  0.8135
  413MOL0     H55716   9.378  10.710  11.962 -0.8757 -1.9209 -1.0986
  413MOL0     H55717   9.460  10.718  11.806  2.3856 -0.2926 -0.9769
  413MOL0     H55718   9.473  10.573  11.905  0.2574 -0.5752  1.7316
  413MOL0     H55719  10.018  10.561  11.565  0.4783 -0.9359 -0.8736
  413MOL0     H55720  10.098  10.364  11.459  0.7107  1.2595  0.6193
  413MOL0     H55721  10.220  10.059  11.697  4.1060 -5.1373  0.1898
  413MOL0     H55722  10.097   9.951  11.644  1.8508 -0.0900  1.7547
  413MOL0     H55723  10.219   9.922  11.426 -1.2617 -0.5712  1.4639
  413MOL0     H55724  10.348  10.039  11.472 -1.1202  0.3435 -1.1924
  413MOL0     H55725  10.282   9.797  11.645  0.6168  1.8321  3.6175
  413MOL0     H55726  10.427   9.891  11.645 -1.9146  2.7959  1.0200
  413MOL0     H55727  10.410   9.662  11.516 -0.2733 -1.2945 -1.8452
  413MOL0     H55728  10.337   9.748  11.383  0.8035 -4.4747 -0.4382
  413MOL0     H55729  10.532   9.899  11.361 -1.4100  0.0793  0.9578
  413MOL0     H55730  10.587   9.723  11.353  1.7553  1.0506 -0.9708
  413MOL0     H55731  10.618   9.906  11.593  0.7762 -0.2132  0.5336
  413MOL0     H55732  10.653   9.733  11.576 -1.9588 -1.3841 -0.3924
  413MOL0     H55733  10.791   9.974  11.457  4.0772 -0.1962 -1.5646
  413MOL0     H55734  10.765   9.838  11.340 -2.5133  0.4041  0.8237
  413MOL0     H55735  10.877   9.677  11.493  1.9175 -0.5376  1.5744
  413MOL0     H55736  10.929   9.797  11.602 -3.1923  0.9010 -0.2518
  413MOL0     H55737   9.992  10.126  11.791  2.7072  0.2232  2.4069
  413MOL0     H55738   9.903  10.326  11.908 -1.5312 -0.2558 -0.1168
  413MOL0     H55739   9.944  10.771  11.943 -0.9593 -2.2696 -1.5391
  413MOL0     H55740   9.909  10.949  12.059 -0.5587  2.1464 -0.9184
  413MOL0     H55741  11.013  10.378  11.525  0.0969  0.4102  0.8654
  413MOL0     H55742  11.135  10.338  11.317  2.2427  0.2331  1.1403
  413MOL0     H55743  10.866  10.330  10.837 -0.5988 -0.2947 -1.3716
  413MOL0     H55744  10.912  10.249  10.613  0.2701  2.9533  0.8179
  413MOL0     H55745  11.289  10.071  10.405  0.6690 -1.2038  1.0523
  413MOL0     H55746  11.354  10.137  10.552 -1.3701  2.0135  1.5468
  413MOL0     H55747  11.298   9.986  10.690 -1.5935  0.8898  0.3904
  413MOL0     H55748  11.340   9.885  10.549 -4.0778 -3.3246 -1.3919
  413MOL0     H55749  11.052   9.951  10.593 -0.8387  0.0135  3.4052
  413MOL0     H55750  11.132   9.826  10.682 -0.8087  0.7736  1.1847
  413MOL0     H55751  11.229   9.722  10.463  0.3347  1.1125 -1.0844
  413MOL0     H55752  11.119   9.835  10.382  1.8421 -1.0137 -1.0202
  413MOL0     H55753  10.856   9.552  10.545  1.2411 -1.4965  1.9555
  413MOL0     H55754  11.337  10.242  10.728  0.7004 -1.0965  1.2966
  413MOL0     H55755  11.289  10.373  10.903 -1.2754 -0.3805  0.6042
  414MOL0     O55756   2.732   0.249   2.888  0.2096 -0.5779 -0.4997
  414MOL0     C55757   2.667   0.267   2.996  0.4199  0.0986 -0.5816
  414MOL0     O55758   2.714   0.319   3.116 -0.0671  0.3290  0.2239
  414MOL0     C55759   2.842   0.357   3.129  0.1368 -0.5878  0.4392
  414MOL0     C55760   2.898   0.322   3.252  0.4688 -0.5115  0.3910
  414MOL0     C55761   3.021   0.382   3.291 -0.0709  0.3713  0.0563
  414MOL0     C55762   3.080   0.483   3.215 -0.0294 -0.4190 -0.0742
  414MOL0     O55763   3.195   0.550   3.261  0.0952  0.3403  0.4008
  414MOL0     C55764   3.211   0.550   3.410  0.1338 -0.5053  0.1190
  414MOL0     C55765   3.328   0.645   3.432 -0.4803  0.0852 -0.3867
  414MOL0     C55766   3.463   0.605   3.369 -0.6665 -0.3983 -0.0453
  414MOL0     C55767   3.522   0.467   3.404 -0.2280  0.9854  0.5405
  414MOL0     C55768   3.545   0.434   3.542  0.7812 -0.4793  0.0084
  414MOL0     C55769   3.609   0.302   3.564 -0.4194 -0.1455 -0.4381
  414MOL0     C55770   3.526   0.182   3.532 -0.9223 -0.3794 -0.1598
  414MOL0     C55771   3.588   0.052   3.582 -0.6767 -0.1451 -0.2108
  414MOL0     N55772   3.712   0.009   3.512  0.3126  0.8029 -0.2313
  414MOL0     C55773   3.708  -0.039   3.382  0.2890 -0.0430  0.0783
  414MOL0     C55774   3.832  -0.075   3.349 -1.0200 -0.4146 -0.4636
  414MOL0     C55775   3.887  -0.140   3.227 -0.0293 -0.3222  0.1580
  414MOL0     C55776   3.795  -0.152   3.106 -0.2033 -0.8650  0.0243
  414MOL0     C55777   3.874  -0.174   2.976  0.7232 -0.9334  0.0508
  414MOL0     C55778   3.939  -0.313   2.984 -0.2693 -0.6854  0.0620
  414MOL0     O55779   3.845  -0.419   2.984  0.1909 -0.3791  0.7008
  414MOL0     C55780   3.912  -0.534   3.001  1.1106 -0.1587 -0.3534
  414MOL0     C55781   3.986  -0.565   3.107 -0.6103  0.8396 -0.1763
  414MOL0     C55782   4.035  -0.694   3.138 -0.3923 -0.2102 -0.2168
  414MOL0     C55783   4.111  -0.727   3.269 -0.2974 -0.0672  0.7437
  414MOL0     C55784   4.014  -0.800   3.048 -0.6008 -0.6113 -0.3222
  414MOL0     C55785   4.078  -0.933   3.049  0.1906 -0.3856 -0.0055
  414MOL0     O55786   4.098  -0.984   2.919  0.5967  0.0519  0.0805
  414MOL0     C55787   4.111  -1.122   2.915  0.2411 -0.4308  0.0686
  414MOL0     C55788   4.008  -1.210   2.877 -0.6710  0.1997  0.5752
  414MOL0     C55789   4.028  -1.353   2.887 -0.3714 -0.6556  0.1509
  414MOL0     C55790   4.156  -1.404   2.910  0.1703  0.4491 -0.6755
  414MOL0     O55791   4.188  -1.540   2.912 -0.2308  0.4304 -0.0473
  414MOL0     C55792   4.094  -1.639   2.865  0.0447  0.4598  0.7278
  414MOL0     C55793   4.152  -1.774   2.905 -0.8365 -0.9589 -0.0165
  414MOL0     C55794   4.053  -1.891   2.878  0.9666 -0.6060 -0.1869
  414MOL0     C55795   3.928  -1.889   2.963 -0.0338 -0.2800  0.4527
  414MOL0     C55796   3.833  -2.007   2.926  0.4841  0.3740 -1.3874
  414MOL0     C55797   3.897  -2.142   2.949 -0.1359 -0.1264 -1.0700
  414MOL0     C55798   3.939  -2.173   3.093  0.5800  0.7198  0.6552
  414MOL0     C55799   4.074  -2.236   3.098 -0.9431 -0.6597  0.4651
  414MOL0    Cl55800   4.142  -2.257   3.268  0.1326 -0.0014  0.0366
  414MOL0     C55801   4.257  -1.312   2.930  0.0098  1.0452  0.6267
  414MOL0     C55802   4.235  -1.183   2.941 -0.9194 -0.6183 -0.3743
  414MOL0     O55803   4.147  -0.967   3.150 -0.2231  1.0690  0.1054
  414MOL0     C55804   3.929  -0.771   2.935  0.0630 -0.0018 -0.2164
  414MOL0     C55805   3.876  -0.641   2.919  0.1143 -0.2970  0.2222
  414MOL0     N55806   3.917  -0.043   3.460 -0.0092  0.0906  0.3378
  414MOL0     N55807   3.839   0.007   3.560  0.0119  1.0510  0.6111
  414MOL0     C55808   3.023   0.504   3.086 -0.5065 -0.4707 -0.1031
  414MOL0     C55809   2.908   0.445   3.045 -0.6369  0.3107  0.3562
  414MOL0     C55810   2.522   0.214   2.984  0.1139  0.2647 -0.2947
  414MOL0     C55811   2.432   0.243   3.090 -0.2047 -0.7366  1.7101
  414MOL0     C55812   2.298   0.196   3.075 -0.8755  1.5930  0.0325
  414MOL0     C55813   2.251   0.130   2.960 -0.2544  0.3611  0.6725
  414MOL0     O55814   2.119   0.097   2.938 -1.0863 -1.0782  0.0578
  414MOL0     C55815   2.023   0.171   3.024  0.0440  0.9171  1.1673
  414MOL0     C55816   1.896   0.217   2.953 -0.5804  0.2891 -0.5024
  414MOL0     C55817   1.799   0.105   2.914 -0.1906  1.0077  0.8979
  414MOL0     C55818   1.674   0.173   2.835  0.0481  0.5747 -0.4483
  414MOL0     C55819   1.583   0.249   2.930  0.2372 -0.1835  0.6223
  414MOL0     C55820   1.498   0.309   2.996  0.4301  0.9746 -0.1955
  414MOL0     C55821   2.344   0.102   2.859  0.9550 -0.3133  0.6455
  414MOL0     C55822   2.477   0.130   2.874 -0.0977 -0.2063  0.2991
  414MOL0     H55823   2.858   0.251   3.324  2.0946 -0.8882  0.9613
  414MOL0     H55824   3.068   0.359   3.386  2.2088  1.2668 -0.8080
  414MOL0     H55825   3.128   0.594   3.466 -1.4862 -1.5043 -1.4177
  414MOL0     H55826   3.243   0.456   3.455  0.0506  0.2143  1.7826
  414MOL0     H55827   3.305   0.745   3.392 -0.3875 -0.3627 -1.5939
  414MOL0     H55828   3.353   0.661   3.537  2.3997  1.8404 -1.2242
  414MOL0     H55829   3.444   0.604   3.262 -0.3247 -1.4012 -0.1149
  414MOL0     H55830   3.533   0.684   3.398  0.3187 -2.4014  3.7948
  414MOL0     H55831   3.456   0.390   3.364  0.4322  0.8427 -0.3109
  414MOL0     H55832   3.616   0.463   3.347 -0.5941  0.1118 -0.0129
  414MOL0     H55833   3.621   0.504   3.578 -1.7843  3.6104 -1.8435
  414MOL0     H55834   3.452   0.434   3.601  1.4158 -0.4099  1.0472
  414MOL0     H55835   3.708   0.301   3.518 -0.8526  1.2427 -1.4565
  414MOL0     H55836   3.623   0.299   3.673 -5.0013  0.5554  0.4073
  414MOL0     H55837   3.428   0.191   3.578 -0.7259  2.9668 -0.1492
  414MOL0     H55838   3.505   0.181   3.425 -0.6601 -1.3246 -0.2110
  414MOL0     H55839   3.523  -0.036   3.576  2.5531 -2.6225 -4.1288
  414MOL0     H55840   3.616   0.070   3.686 -2.0692  3.8723 -0.3508
  414MOL0     H55841   3.624  -0.057   3.314  1.9230  0.9250 -2.3412
  414MOL0     H55842   3.957  -0.060   3.202 -1.5964  1.0813  0.0907
  414MOL0     H55843   3.936  -0.231   3.263 -1.5206 -0.4213  2.1503
  414MOL0     H55844   3.743  -0.056   3.104  1.1728 -0.1081 -0.6581
  414MOL0     H55845   3.710  -0.220   3.119 -0.5482 -0.7307 -1.3622
  414MOL0     H55846   3.954  -0.099   2.971 -1.9606  2.1773  0.5096
  414MOL0     H55847   3.811  -0.156   2.888  1.4173 -0.7953 -0.4258
  414MOL0     H55848   4.006  -0.308   3.070 -1.3532  0.8398  0.8513
  414MOL0     H55849   4.009  -0.329   2.902 -0.0981  1.1648 -0.1911
  414MOL0     H55850   4.010  -0.484   3.175  1.7220 -0.6161  0.8653
  414MOL0     H55851   4.072  -0.813   3.325 -1.4972 -2.9331 -3.9250
  414MOL0     H55852   4.209  -0.756   3.230 -0.3240 -0.2607  0.8196
  414MOL0     H55853   4.113  -0.639   3.334  2.9640  1.7407 -1.4899
  414MOL0     H55854   3.909  -1.173   2.853 -1.3973 -2.1740 -0.3456
  414MOL0     H55855   3.946  -1.424   2.884 -0.3306 -1.4572  6.3324
  414MOL0     H55856   3.990  -1.623   2.898  0.5252 -0.5763  2.9042
  414MOL0     H55857   4.086  -1.646   2.757 -2.9301 -3.5854  0.9934
  414MOL0     H55858   4.249  -1.784   2.855 -0.7638 -1.9948  0.3148
  414MOL0     H55859   4.170  -1.773   3.013  1.7330  1.0690 -0.3418
  414MOL0     H55860   4.104  -1.985   2.896  1.6723  0.0261  1.2345
  414MOL0     H55861   4.021  -1.883   2.773 -0.8474  1.5952  0.4248
  414MOL0     H55862   3.953  -1.880   3.069 -0.3129  2.4396  0.3559
  414MOL0     H55863   3.879  -1.799   2.925 -0.9448 -0.9780 -0.0550
  414MOL0     H55864   3.801  -2.011   2.821  1.1419 -2.9823 -1.5530
  414MOL0     H55865   3.740  -2.003   2.984 -1.1488 -1.1930 -3.7110
  414MOL0     H55866   3.828  -2.220   2.916 -0.3877 -0.5098  0.2701
  414MOL0     H55867   3.981  -2.152   2.880  0.0386 -0.6279 -0.7934
  414MOL0     H55868   3.871  -2.242   3.145  0.5182 -0.1314 -0.5228
  414MOL0     H55869   3.925  -2.096   3.170  1.2305  0.5126  0.9850
  414MOL0     H55870   4.137  -2.159   3.054 -0.8246  2.0002  4.7016
  414MOL0     H55871   4.079  -2.329   3.040 -0.3122  0.1225 -0.7663
  414MOL0     H55872   4.354  -1.354   2.951 -0.7043 -1.1118 -0.1846
  414MOL0     H55873   4.320  -1.120   2.967 -0.1535 -1.5302 -0.5926
  414MOL0     H55874   3.910  -0.851   2.864  0.9819 -0.5555  0.1354
  414MOL0     H55875   3.825  -0.612   2.828 -0.0456 -0.0917  0.3769
  414MOL0     H55876   3.068   0.572   3.014  1.8157  0.2090  1.8254
  414MOL0     H55877   2.880   0.453   2.941 -2.3026 -1.5491  0.5956
  414MOL0     H55878   2.462   0.304   3.175  1.1153  0.3145  0.5305
  414MOL0     H55879   2.244   0.208   3.168 -1.6615 -1.2514  0.0430
  414MOL0     H55880   1.979   0.107   3.101  1.6659  0.4513  1.7344
  414MOL0     H55881   2.067   0.262   3.064  1.4943  0.6775  0.1921
  414MOL0     H55882   1.936   0.264   2.862  3.0211  0.8829  1.2064
  414MOL0     H55883   1.849   0.297   3.011  0.3824  0.1061  0.5718
  414MOL0     H55884   1.761   0.050   3.001 -1.9505  0.1641 -0.3385
  414MOL0     H55885   1.847   0.034   2.846  3.2999  2.5954  1.4894
  414MOL0     H55886   1.615   0.098   2.783  1.5784 -0.1164 -1.2743
  414MOL0     H55887   1.701   0.233   2.748 -0.3802  1.5175  0.0587
  414MOL0     H55888   1.429   0.369   3.052  2.8955  3.0134  0.9009
  414MOL0     H55889   2.317   0.060   2.763 -0.2315 -0.7111  1.1334
  414MOL0     H55890   2.540   0.123   2.786  1.4218  1.1355  1.2231
  415MOL0     O55891   6.885   3.281   3.485 -0.3490  0.4261  0.8181
  415MOL0     C55892   6.763   3.281   3.490 -0.0024 -0.2806 -0.5348
  415MOL0     O55893   6.682   3.377   3.536  0.3965 -0.0537  0.6973
  415MOL0     C55894   6.740   3.497   3.557 -0.3794 -0.9648 -0.3676
  415MOL0     C55895   6.682   3.605   3.496  0.3330  0.2369  1.1037
  415MOL0     C55896   6.728   3.737   3.509  0.1042  0.1508 -0.3591
  415MOL0     C55897   6.818   3.762   3.609 -0.4156  0.1580 -0.1383
  415MOL0     O55898   6.848   3.893   3.640  0.1387  0.6733 -0.0141
  415MOL0     C55899   6.969   3.917   3.713  0.2319  0.2811 -0.2724
  415MOL0     C55900   7.030   4.056   3.685 -0.5700  0.5165 -0.1758
  415MOL0     C55901   7.052   4.083   3.533 -0.1880  0.5600 -0.2383
  415MOL0     C55902   7.101   3.966   3.445 -1.0343 -0.0251 -0.2794
  415MOL0     C55903   7.109   4.009   3.292  0.6653 -0.9566  0.6332
  415MOL0     C55904   7.145   3.892   3.199 -0.1515  0.0435  0.4218
  415MOL0     C55905   7.132   3.926   3.049 -0.1616 -0.8896  0.0959
  415MOL0     C55906   7.258   4.005   2.992  0.2633 -0.1161 -1.0228
  415MOL0     N55907   7.384   3.926   3.021 -0.1573 -0.6028  0.2459
  415MOL0     C55908   7.423   3.805   2.958 -0.2661 -0.0006  0.4271
  415MOL0     C55909   7.520   3.766   3.044  0.1031  0.7531  0.2767
  415MOL0     C55910   7.612   3.653   3.014  0.2696  0.0391  1.1303
  415MOL0     C55911   7.765   3.688   3.024  0.7791 -0.0295  0.5544
  415MOL0     C55912   7.866   3.569   3.013  0.5992 -0.5640 -0.1233
  415MOL0     C55913   7.844   3.480   2.896  0.5000  0.7945 -0.4649
  415MOL0     O55914   7.741   3.392   2.941  0.5827 -0.3422 -0.1888
  415MOL0     C55915   7.716   3.284   2.865  0.8402 -0.0270  0.5785
  415MOL0     C55916   7.633   3.195   2.921  0.1082  0.1703 -0.9145
  415MOL0     C55917   7.584   3.087   2.849 -0.5200  0.2170 -0.1235
  415MOL0     C55918   7.483   3.005   2.921 -0.0724  0.2462  0.5682
  415MOL0     C55919   7.638   3.055   2.723  0.6012  0.2297  0.1779
  415MOL0     C55920   7.585   2.943   2.631 -0.6525  0.2277 -0.3628
  415MOL0     O55921   7.660   2.907   2.521 -0.1730  0.0699  0.2849
  415MOL0     C55922   7.631   2.807   2.436 -0.4507  0.0841 -0.2782
  415MOL0     C55923   7.612   2.675   2.489 -1.1496  0.6992  0.3378
  415MOL0     C55924   7.582   2.561   2.405 -0.9921 -0.8271  0.2439
  415MOL0     C55925   7.582   2.588   2.266 -0.3005 -0.1375 -0.2113
  415MOL0     O55926   7.551   2.474   2.191  0.0026  0.0686  0.1952
  415MOL0     C55927   7.468   2.483   2.077  0.3672  0.2604  0.2077
  415MOL0     C55928   7.316   2.500   2.104  0.2936 -0.3693 -0.3623
  415MOL0     C55929   7.256   2.399   2.199  1.0644 -0.0132  0.6047
  415MOL0     C55930   7.101   2.395   2.185 -0.2531  0.2844  0.8309
  415MOL0     C55931   7.033   2.297   2.289 -0.3191 -0.6357 -0.2005
  415MOL0     C55932   7.022   2.153   2.235 -0.0117 -0.4145 -0.2274
  415MOL0     C55933   7.153   2.068   2.239 -1.2033 -0.0099 -1.0415
  415MOL0     C55934   7.240   2.067   2.367 -0.5602 -1.0017 -0.5231
  415MOL0    Cl55935   7.319   1.909   2.375 -0.1516  0.0366  0.2429
  415MOL0     C55936   7.611   2.716   2.220  0.3555  0.5171 -0.4968
  415MOL0     C55937   7.630   2.832   2.298  0.9347  0.4857 -1.3564
  415MOL0     O55938   7.465   2.902   2.650 -0.3090 -0.2306  0.2770
  415MOL0     C55939   7.739   3.134   2.678  1.0114 -0.3101  0.1724
  415MOL0     C55940   7.771   3.256   2.743  1.0625  0.7440  0.0495
  415MOL0     N55941   7.545   3.861   3.140 -0.7517  1.2385  0.5263
  415MOL0     N55942   7.466   3.957   3.114  0.4908  0.7146 -0.0686
  415MOL0     C55943   6.862   3.658   3.684  0.5632 -0.0570 -1.7150
  415MOL0     C55944   6.832   3.527   3.660 -1.0401  0.7069  0.1502
  415MOL0     C55945   6.698   3.155   3.478 -1.3002 -0.1588 -0.8339
  415MOL0     C55946   6.560   3.146   3.449 -0.5397  0.2818  0.6579
  415MOL0     C55947   6.492   3.020   3.431  0.3839  0.0416  0.4177
  415MOL0     C55948   6.576   2.900   3.437  0.4191 -0.7218  0.8831
  415MOL0     O55949   6.522   2.774   3.414 -0.6753  0.2384 -0.3128
  415MOL0     C55950   6.391   2.766   3.362 -0.5370 -0.2013  0.6608
  415MOL0     C55951   6.376   2.626   3.298 -0.6460  0.3187 -0.0192
  415MOL0     C55952   6.396   2.519   3.404  0.0220 -0.9182  0.9146
  415MOL0     C55953   6.267   2.498   3.489 -0.0683 -0.1174 -0.1832
  415MOL0     C55954   6.270   2.385   3.586 -0.2454  0.2688  0.2245
  415MOL0     C55955   6.285   2.313   3.679 -0.0202  0.0270 -0.5203
  415MOL0     C55956   6.706   2.913   3.485 -0.1603  0.5300  0.4719
  415MOL0     C55957   6.766   3.035   3.501  0.4507  0.7288  0.3947
  415MOL0     H55958   6.602   3.593   3.423  0.9330  1.8927  0.1071
  415MOL0     H55959   6.682   3.817   3.451  0.2812  0.7135  0.2527
  415MOL0     H55960   6.953   3.918   3.821  0.9393  1.9671 -0.1607
  415MOL0     H55961   7.047   3.846   3.683  2.6844  2.8518 -0.3840
  415MOL0     H55962   6.974   4.137   3.735 -0.6029 -0.5403  1.6006
  415MOL0     H55963   7.125   4.052   3.739 -1.6836 -1.2512  1.8042
  415MOL0     H55964   6.953   4.117   3.501 -0.6626  0.6382  1.2534
  415MOL0     H55965   7.123   4.166   3.523 -1.5745  1.9013  0.6022
  415MOL0     H55966   7.195   3.923   3.482 -0.1198  2.5357  0.6122
  415MOL0     H55967   7.032   3.882   3.459 -1.9302  0.8178  0.5290
  415MOL0     H55968   7.012   4.048   3.258  1.6914 -0.2569 -1.6913
  415MOL0     H55969   7.177   4.094   3.283  0.6261 -1.0831 -1.1878
  415MOL0     H55970   7.243   3.849   3.220 -2.3813 -4.7467  2.4649
  415MOL0     H55971   7.076   3.810   3.217  0.6603 -0.6506  0.4399
  415MOL0     H55972   7.116   3.834   2.993  1.4423 -0.1868 -1.6041
  415MOL0     H55973   7.040   3.985   3.045  1.0224  0.9660 -1.7370
  415MOL0     H55974   7.256   4.104   3.039  0.4249 -1.0324  1.0524
  415MOL0     H55975   7.246   4.006   2.884  1.4566  0.1136 -1.1627
  415MOL0     H55976   7.388   3.757   2.868 -2.9540  0.5499  1.0944
  415MOL0     H55977   7.607   3.569   3.085  0.7045 -0.2555  0.8241
  415MOL0     H55978   7.600   3.609   2.915  0.3857  0.4354  0.9408
  415MOL0     H55979   7.785   3.741   3.118  2.5978  0.4254 -0.0614
  415MOL0     H55980   7.781   3.759   2.942 -3.3256  3.4808  2.3716
  415MOL0     H55981   7.856   3.508   3.103 -2.0683 -0.5017 -0.2946
  415MOL0     H55982   7.967   3.611   3.007 -0.7939  3.1021 -0.7759
  415MOL0     H55983   7.934   3.419   2.881 -1.0320 -1.5329 -0.6120
  415MOL0     H55984   7.819   3.538   2.807  1.0189 -0.2949 -1.3349
  415MOL0     H55985   7.611   3.209   3.026  0.1820  0.2005 -0.9032
  415MOL0     H55986   7.477   3.019   3.029  0.6941 -1.1533  0.8100
  415MOL0     H55987   7.387   3.007   2.868  1.2709  2.6452 -2.1002
  415MOL0     H55988   7.513   2.901   2.908 -3.3065 -0.7862  0.3426
  415MOL0     H55989   7.641   2.669   2.593  3.5606 -0.0384 -0.8065
  415MOL0     H55990   7.555   2.463   2.443 -0.5409 -0.5499  1.2970
  415MOL0     H55991   7.501   2.563   2.010  1.2777 -1.5922 -1.6748
  415MOL0     H55992   7.476   2.384   2.031 -2.0522  0.5191 -0.9268
  415MOL0     H55993   7.290   2.594   2.154  0.7869 -0.0073 -0.7733
  415MOL0     H55994   7.275   2.497   2.002 -0.5252 -1.3689 -0.0215
  415MOL0     H55995   7.284   2.425   2.302  1.6438 -1.5191  0.8477
  415MOL0     H55996   7.293   2.297   2.190  0.9690  0.0980 -1.4059
  415MOL0     H55997   7.054   2.494   2.180  0.9912  0.8469 -2.6596
  415MOL0     H55998   7.074   2.348   2.090 -0.7015  0.8298  0.6861
  415MOL0     H55999   6.932   2.338   2.303 -2.1070 -4.1149 -1.7207
  415MOL0     H56000   7.099   2.307   2.376  0.8996  1.0985 -1.2616
  415MOL0     H56001   6.941   2.108   2.295  0.1000 -1.2781 -0.7037
  415MOL0     H56002   6.996   2.147   2.129  2.2862 -1.5134 -0.7758
  415MOL0     H56003   7.218   2.103   2.158 -0.8665  2.2292  0.1053
  415MOL0     H56004   7.126   1.966   2.212  0.7521 -0.4635 -1.4026
  415MOL0     H56005   7.170   2.077   2.450  0.9134  0.5744  0.6050
  415MOL0     H56006   7.321   2.140   2.361 -1.3738  0.0329  0.5494
  415MOL0     H56007   7.610   2.741   2.114 -2.7305  0.6813 -0.5233
  415MOL0     H56008   7.650   2.935   2.271  1.3978  1.5083  2.3606
  415MOL0     H56009   7.778   3.106   2.581 -2.7599  1.2880 -1.9958
  415MOL0     H56010   7.839   3.328   2.698  0.7529  1.8591  1.3003
  415MOL0     H56011   6.925   3.683   3.769 -0.7666  0.0048 -0.7314
  415MOL0     H56012   6.873   3.449   3.724 -4.2830 -0.8726  0.4766
  415MOL0     H56013   6.499   3.236   3.447 -0.7930  0.1384  1.7003
  415MOL0     H56014   6.384   3.024   3.417  0.4275 -3.2215 -1.7607
  415MOL0     H56015   6.307   2.781   3.429 -0.6868 -2.1711  0.9728
  415MOL0     H56016   6.370   2.837   3.281 -2.5906 -1.3388  0.1436
  415MOL0     H56017   6.457   2.620   3.224 -0.7498  3.8138 -0.5901
  415MOL0     H56018   6.281   2.616   3.245 -2.1287  1.7896  2.1878
  415MOL0     H56019   6.480   2.535   3.473 -0.0204  1.4927  0.4911
  415MOL0     H56020   6.415   2.429   3.345  0.9775  0.1662 -0.5216
  415MOL0     H56021   6.184   2.485   3.418  1.8623  0.3071 -2.6412
  415MOL0     H56022   6.243   2.584   3.552  0.2575 -0.2844  0.1731
  415MOL0     H56023   6.292   2.238   3.755 -0.2033 -0.2395 -0.7630
  415MOL0     H56024   6.756   2.817   3.495 -0.0743  0.2830 -1.6922
  415MOL0     H56025   6.868   3.026   3.536  1.0277 -0.6506 -1.4699
  416MOL0     O56026   4.152  10.369   6.974  0.1372 -0.1842  0.3602
  416MOL0     C56027   4.102  10.477   6.983  0.2687  0.3266 -0.7633
  416MOL0     O56028   4.013  10.530   6.894 -0.5906  0.2813  0.2093
  416MOL0     C56029   3.974  10.447   6.791  0.5691  0.4147  0.1009
  416MOL0     C56030   4.012  10.450   6.655  0.0709  0.3527  0.7829
  416MOL0     C56031   3.957  10.349   6.570 -0.5950  0.4851 -0.3098
  416MOL0     C56032   3.883  10.240   6.622 -0.0675 -0.0780  0.9542
  416MOL0     O56033   3.834  10.143   6.539  0.2625  0.3115  0.7840
  416MOL0     C56034   3.934  10.047   6.506 -1.0492 -0.5971  0.0932
  416MOL0     C56035   3.923   9.970   6.378  0.1392  0.2493  0.1298
  416MOL0     C56036   3.905  10.061   6.267  0.7294  0.0589  0.2833
  416MOL0     C56037   3.909   9.975   6.150  0.4743  0.8139 -0.2498
  416MOL0     C56038   3.832  10.038   6.041  0.0896 -0.0316  0.4421
  416MOL0     C56039   3.854   9.954   5.905  0.1441  0.9586  0.1299
  416MOL0     C56040   3.793  10.017   5.774 -0.0579 -0.2891 -0.3021
  416MOL0     C56041   3.848   9.962   5.640 -0.4584  0.0198 -0.2095
  416MOL0     N56042   3.835  10.049   5.516  0.1088 -0.0379  0.6725
  416MOL0     C56043   3.838  10.185   5.516  0.6630 -0.2136  0.3441
  416MOL0     C56044   3.834  10.228   5.383  0.4674 -0.1922 -0.5344
  416MOL0     C56045   3.824  10.377   5.340  0.3571 -0.4959  0.1141
  416MOL0     C56046   3.680  10.411   5.279  0.9026 -1.2209 -0.5369
  416MOL0     C56047   3.575  10.431   5.384 -0.0845  0.0756 -0.4281
  416MOL0     C56048   3.500  10.312   5.425  0.1634  0.6544  0.5072
  416MOL0     O56049   3.441  10.335   5.554 -0.1262  0.1944  0.1085
  416MOL0     C56050   3.433  10.222   5.640 -0.3926  0.7782 -0.0722
  416MOL0     C56051   3.440  10.093   5.602  0.1664 -0.4692  0.3639
  416MOL0     C56052   3.430   9.995   5.701 -0.6892  0.3115  0.1476
  416MOL0     C56053   3.453   9.854   5.653  0.0125 -0.0145  0.6934
  416MOL0     C56054   3.412  10.024   5.840 -0.2914 -0.1062 -0.4820
  416MOL0     C56055   3.429   9.931   5.953  1.0349  0.7208 -0.7268
  416MOL0     O56056   3.357   9.970   6.060 -0.4996 -0.6574 -0.3766
  416MOL0     C56057   3.376   9.885   6.166 -0.0424  0.6651 -0.6051
  416MOL0     C56058   3.279   9.780   6.190 -0.1409 -0.3885  0.1457
  416MOL0     C56059   3.298   9.692   6.292 -0.1757  0.3969  0.8924
  416MOL0     C56060   3.394   9.724   6.388  0.0130 -0.1765 -0.8711
  416MOL0     O56061   3.404   9.660   6.505 -0.4321  0.4195  0.0267
  416MOL0     C56062   3.337   9.541   6.530  0.0190 -0.4943  0.1282
  416MOL0     C56063   3.365   9.461   6.665  0.0209 -0.0275 -0.1900
  416MOL0     C56064   3.327   9.532   6.796  0.5942  0.2178  0.0306
  416MOL0     C56065   3.441   9.604   6.861 -1.0714 -1.1350 -0.3287
  416MOL0     C56066   3.406   9.675   6.987  0.1769 -0.3501 -0.0862
  416MOL0     C56067   3.499   9.786   7.029 -0.5114  0.5081 -0.2013
  416MOL0     C56068   3.636   9.742   7.014 -0.5314  0.5638 -0.6505
  416MOL0     C56069   3.730   9.847   7.083 -0.3406 -0.8252 -0.2768
  416MOL0    Cl56070   3.712  10.002   6.993 -0.0917 -0.1567 -0.0966
  416MOL0     C56071   3.466   9.840   6.381  0.2208 -0.3091  0.0944
  416MOL0     C56072   3.466   9.911   6.261  0.7119 -0.0831  0.5038
  416MOL0     O56073   3.506   9.847   5.947 -0.2138  0.8305 -0.4017
  416MOL0     C56074   3.398  10.162   5.876 -0.9557  1.1713  1.0310
  416MOL0     C56075   3.416  10.258   5.773 -0.7498 -0.8752 -0.3918
  416MOL0     N56076   3.852  10.107   5.310  0.3026 -0.5450  0.8779
  416MOL0     N56077   3.861  10.007   5.390 -0.1763 -0.1836 -0.2133
  416MOL0     C56078   3.838  10.250   6.750  0.4761 -0.8000  0.0111
  416MOL0     C56079   3.874  10.356   6.832  0.0677  0.0521 -1.2262
  416MOL0     C56080   4.139  10.564   7.097  0.6262  0.3183  0.4204
  416MOL0     C56081   4.234  10.505   7.190  0.6948  0.2319  0.6413
  416MOL0     C56082   4.249  10.573   7.308  0.4858  0.6676  0.1705
  416MOL0     C56083   4.183  10.692   7.328 -0.3963 -1.5888 -0.1230
  416MOL0     O56084   4.215  10.750   7.453  0.9602 -0.5076 -0.5040
  416MOL0     C56085   4.112  10.825   7.513 -0.6208  0.0060  0.3510
  416MOL0     C56086   4.145  10.809   7.663 -0.2833  0.0302  0.2193
  416MOL0     C56087   4.305  10.821   7.701  0.6411  1.2510  0.7310
  416MOL0     C56088   4.330  10.846   7.853  0.6199 -0.5374 -0.1601
  416MOL0     C56089   4.245  10.948   7.922  0.1497 -0.1748 -0.3911
  416MOL0     C56090   4.191  11.022   7.994  0.0271 -0.4594 -0.5586
  416MOL0     C56091   4.099  10.754   7.244 -0.5291  0.2234  0.0640
  416MOL0     C56092   4.072  10.685   7.121 -0.2566 -0.1834 -0.2222
  416MOL0     H56093   4.103  10.497   6.619  2.7264 -4.1640  0.8502
  416MOL0     H56094   3.981  10.349   6.464  0.6033 -0.7311 -0.0605
  416MOL0     H56095   4.035  10.089   6.503 -1.1685 -0.3109  0.1364
  416MOL0     H56096   3.932   9.974   6.588 -0.4855 -1.1713 -0.3919
  416MOL0     H56097   4.007   9.901   6.374  1.6644  2.0131  0.4690
  416MOL0     H56098   3.841   9.898   6.390 -0.7333  0.6776 -2.6496
  416MOL0     H56099   3.806  10.107   6.275 -0.5444 -2.5258  0.5193
  416MOL0     H56100   3.990  10.129   6.259  0.0895  0.6747 -2.5704
  416MOL0     H56101   4.012   9.956   6.118  1.3485  2.4674  1.4246
  416MOL0     H56102   3.859   9.878   6.159 -2.8866  2.5411  1.4451
  416MOL0     H56103   3.724  10.046   6.056  0.1816  0.5265  0.8705
  416MOL0     H56104   3.866  10.140   6.022 -2.0668  0.5150 -0.7819
  416MOL0     H56105   3.960   9.942   5.882  0.2434  0.4352  0.8319
  416MOL0     H56106   3.821   9.851   5.915 -1.1069  1.3684  0.3557
  416MOL0     H56107   3.685  10.025   5.786  0.3039  2.0745  2.8841
  416MOL0     H56108   3.823  10.122   5.789  2.3418 -0.9738  0.1343
  416MOL0     H56109   3.814   9.860   5.622 -2.8285  0.8351 -0.8022
  416MOL0     H56110   3.957   9.959   5.642  0.0491  2.2169 -5.6269
  416MOL0     H56111   3.840  10.245   5.606  2.5654  1.8443 -0.9432
  416MOL0     H56112   3.839  10.436   5.431  0.8099 -2.2795  1.2447
  416MOL0     H56113   3.892  10.397   5.257 -1.9662  1.2815 -1.4939
  416MOL0     H56114   3.661  10.328   5.210  0.6995 -1.3965 -0.2743
  416MOL0     H56115   3.676  10.501   5.218  1.4695  0.1865  1.4145
  416MOL0     H56116   3.513  10.510   5.342  3.1629  2.6775 -0.7242
  416MOL0     H56117   3.619  10.461   5.480 -2.1178 -1.7709  1.1804
  416MOL0     H56118   3.577  10.235   5.439  1.7264  1.8333 -1.2626
  416MOL0     H56119   3.425  10.281   5.352  0.1340 -1.9730  1.5299
  416MOL0     H56120   3.441  10.070   5.496 -0.4780 -0.6332  0.3865
  416MOL0     H56121   3.438   9.833   5.547 -0.9263 -0.7599  0.9576
  416MOL0     H56122   3.559   9.831   5.669  1.3772  2.2432 -3.4814
  416MOL0     H56123   3.390   9.795   5.720  2.3000 -0.2314  2.8128
  416MOL0     H56124   3.195   9.781   6.121 -0.9780  1.9739  1.0830
  416MOL0     H56125   3.221   9.617   6.308  0.0553  0.6288  3.5374
  416MOL0     H56126   3.229   9.561   6.526  0.1211  0.4602  1.7098
  416MOL0     H56127   3.369   9.478   6.447  0.5332  0.3278 -0.3100
  416MOL0     H56128   3.308   9.367   6.661 -3.6656  2.0156 -0.6723
  416MOL0     H56129   3.471   9.437   6.676  1.2864  4.8121  0.2779
  416MOL0     H56130   3.300   9.457   6.870  1.2465 -1.8199 -1.6951
  416MOL0     H56131   3.239   9.593   6.775  1.0870  0.6893 -0.7475
  416MOL0     H56132   3.523   9.533   6.875  0.1051 -0.3501 -2.6253
  416MOL0     H56133   3.472   9.677   6.786 -0.2938  0.0272  1.0836
  416MOL0     H56134   3.392   9.600   7.066  1.0631 -1.2019 -0.7164
  416MOL0     H56135   3.300   9.703   6.979 -0.1515  0.5412  4.3963
  416MOL0     H56136   3.484   9.869   6.959  0.1334  2.1943  1.5817
  416MOL0     H56137   3.471   9.812   7.131  0.7210 -0.6671  0.4691
  416MOL0     H56138   3.668   9.712   6.914 -0.1462 -4.2189  0.6613
  416MOL0     H56139   3.651   9.648   7.068 -0.5801 -0.2422 -1.9982
  416MOL0     H56140   3.834   9.813   7.084 -0.3501 -1.3370  4.2442
  416MOL0     H56141   3.703   9.863   7.188  0.3118 -2.1417  0.1172
  416MOL0     H56142   3.523   9.875   6.466  0.0667  0.9049 -0.2800
  416MOL0     H56143   3.538   9.991   6.245 -1.0937  1.2083 -1.6742
  416MOL0     H56144   3.391  10.184   5.982 -3.1931 -1.0679  1.4483
  416MOL0     H56145   3.416  10.361   5.807 -1.3767 -0.9903 -0.0340
  416MOL0     H56146   3.773  10.176   6.795 -1.6052  1.4756  0.9413
  416MOL0     H56147   3.843  10.354   6.936  1.2793 -0.9550 -0.8569
  416MOL0     H56148   4.292  10.415   7.172  0.3428 -0.6828  3.5035
  416MOL0     H56149   4.312  10.537   7.388 -2.6166 -3.1320  1.2425
  416MOL0     H56150   4.107  10.928   7.476 -1.0233  0.0100  0.4112
  416MOL0     H56151   4.018  10.781   7.481 -1.2247  2.0713 -0.9011
  416MOL0     H56152   4.097  10.719   7.703  0.2752 -0.0159  0.7934
  416MOL0     H56153   4.094  10.886   7.721 -0.3615  1.2611 -1.4181
  416MOL0     H56154   4.356  10.898   7.642 -2.5173  2.1983 -1.0404
  416MOL0     H56155   4.354  10.728   7.670 -2.3526  0.1860 -1.3186
  416MOL0     H56156   4.437  10.867   7.866  0.1610  0.2586  3.5560
  416MOL0     H56157   4.314  10.750   7.904 -0.2127 -0.5311 -0.4075
  416MOL0     H56158   4.141  11.085   8.064  4.0367  2.3244  0.1603
  416MOL0     H56159   4.049  10.847   7.269 -1.6255 -0.6965  1.4212
  416MOL0     H56160   3.991  10.724   7.059 -1.2456 -1.2089  0.4055
  417MOL0     O56161   5.450  10.116   3.614 -0.2931 -0.1388  0.1144
  417MOL0     C56162   5.502  10.018   3.651  0.3233  0.4458 -0.7128
  417MOL0     O56163   5.630   9.974   3.621 -0.9346  0.7623  0.1001
  417MOL0     C56164   5.734  10.059   3.574 -0.2021  0.5685 -0.1156
  417MOL0     C56165   5.740  10.200   3.604 -0.2310 -0.9616 -1.0440
  417MOL0     C56166   5.847  10.274   3.549  1.1901 -0.0480  0.6254
  417MOL0     C56167   5.938  10.218   3.466 -0.2639 -0.0430 -0.0802
  417MOL0     O56168   6.038  10.287   3.420 -0.8575 -0.2705 -0.9216
  417MOL0     C56169   6.132  10.308   3.530 -0.2309  0.3595  0.2693
  417MOL0     C56170   6.237  10.404   3.487  0.2369 -0.6184  0.6496
  417MOL0     C56171   6.343  10.339   3.399  0.0030 -0.4859  0.3195
  417MOL0     C56172   6.447  10.447   3.345 -0.0773  0.3701 -0.1360
  417MOL0     C56173   6.536  10.368   3.256  1.0074  0.0916  0.3755
  417MOL0     C56174   6.663  10.443   3.211 -0.4829  0.3208 -0.4385
  417MOL0     C56175   6.760  10.448   3.329  0.3280 -0.4760  0.3269
  417MOL0     C56176   6.903  10.473   3.281  0.5456 -0.5157 -0.0743
  417MOL0     N56177   6.929  10.581   3.188 -0.2276 -0.2273 -0.1871
  417MOL0     C56178   6.906  10.713   3.218  0.2684  0.2133 -0.2736
  417MOL0     C56179   6.968  10.777   3.126 -0.3752  0.2411  0.3478
  417MOL0     C56180   6.990  10.924   3.107  0.0673 -1.0089  0.1773
  417MOL0     C56181   6.932  10.989   2.980 -0.4562 -0.5367  0.2872
  417MOL0     C56182   6.873  11.137   3.001  0.0907 -0.4290  0.6697
  417MOL0     C56183   6.741  11.143   3.082 -0.3216 -0.2577 -0.0990
  417MOL0     O56184   6.683  11.015   3.095 -1.0256  1.1060  0.4517
  417MOL0     C56185   6.607  10.998   3.211 -0.6881 -0.7739  0.0398
  417MOL0     C56186   6.535  11.097   3.276 -0.0503  0.0040  1.0614
  417MOL0     C56187   6.448  11.073   3.383  0.2966  0.7433 -0.2286
  417MOL0     C56188   6.371  11.191   3.429  0.3833  0.2559  0.4998
  417MOL0     C56189   6.447  10.939   3.428 -0.1950  0.4434 -0.8156
  417MOL0     C56190   6.354  10.901   3.541 -0.8534 -0.4428  0.3222
  417MOL0     O56191   6.303  10.774   3.536  0.2816 -0.1182  0.4033
  417MOL0     C56192   6.210  10.733   3.633  0.4575 -0.0548  0.5693
  417MOL0     C56193   6.069  10.740   3.630 -0.9171  0.0561 -0.2840
  417MOL0     C56194   5.989  10.698   3.731  0.0769  0.6961 -0.7245
  417MOL0     C56195   6.045  10.641   3.847 -0.6909  1.3217 -0.1065
  417MOL0     O56196   5.970  10.626   3.961 -0.2356  0.2790 -1.0441
  417MOL0     C56197   6.004  10.501   4.027 -0.4987  0.1270 -0.2885
  417MOL0     C56198   5.966  10.369   3.948  0.8864  0.6410  0.6840
  417MOL0     C56199   5.826  10.365   3.895 -0.2777 -0.0184  0.0013
  417MOL0     C56200   5.725  10.401   3.988  0.1235 -0.1989 -0.7950
  417MOL0     C56201   5.588  10.330   3.965 -1.2523  0.0084  0.5871
  417MOL0     C56202   5.587  10.186   3.991  0.1737  0.6788  0.3797
  417MOL0     C56203   5.626  10.157   4.138  1.0061  0.2687 -0.2751
  417MOL0     C56204   5.613  10.003   4.160 -1.2634 -0.3270 -1.0328
  417MOL0    Cl56205   5.444   9.944   4.148 -0.2839  0.0978 -0.5291
  417MOL0     C56206   6.182  10.614   3.853  0.2259 -1.0341 -0.0383
  417MOL0     C56207   6.263  10.674   3.750  0.1494 -0.1541 -0.1719
  417MOL0     O56208   6.330  10.985   3.631  0.1805 -0.0560  0.2388
  417MOL0     C56209   6.515  10.838   3.362  0.0235 -0.5612  0.0281
  417MOL0     C56210   6.599  10.871   3.259 -0.0857 -1.0118 -0.0302
  417MOL0     N56211   7.037  10.682   3.047  0.2195 -0.3609 -0.0468
  417MOL0     N56212   7.018  10.566   3.097 -0.5368  0.1549 -0.6614
  417MOL0     C56213   5.930  10.087   3.432 -0.5992  0.0580  0.1047
  417MOL0     C56214   5.829  10.007   3.487  0.1183 -0.9781  0.0064
  417MOL0     C56215   5.416   9.921   3.725 -0.8054  0.1469  0.3373
  417MOL0     C56216   5.476   9.811   3.780  0.0407  0.2899  0.3147
  417MOL0     C56217   5.400   9.721   3.855  1.0717  0.0907  0.2712
  417MOL0     C56218   5.260   9.744   3.874 -0.1743  0.2009  0.5345
  417MOL0     O56219   5.203   9.661   3.969  0.3526 -0.1217 -0.1974
  417MOL0     C56220   5.077   9.680   4.020 -0.2500  0.2832 -0.1519
  417MOL0     C56221   5.076   9.807   4.109 -0.2596 -0.2093  0.7543
  417MOL0     C56222   5.110   9.765   4.255  0.1051 -0.4340 -0.0045
  417MOL0     C56223   5.135   9.887   4.340 -0.0987  0.4788 -0.7503
  417MOL0     C56224   5.171   9.863   4.483 -0.0820 -0.0684  0.0529
  417MOL0     C56225   5.203   9.846   4.601  0.0776  0.4219  0.9361
  417MOL0     C56226   5.204   9.850   3.807  0.6001  0.1919  0.0678
  417MOL0     C56227   5.276   9.935   3.730  0.1172  0.2256 -0.4130
  417MOL0     H56228   5.665  10.258   3.657  0.9011  0.1817 -0.6625
  417MOL0     H56229   5.851  10.381   3.563  0.7543  0.0587 -0.0336
  417MOL0     H56230   6.087  10.345   3.623  1.3467 -1.7483  1.9639
  417MOL0     H56231   6.192  10.218   3.547  2.0862  1.1930 -2.5782
  417MOL0     H56232   6.185  10.488   3.439  0.1824  0.8118  3.0482
  417MOL0     H56233   6.282  10.450   3.576 -0.0207  2.6759 -0.7979
  417MOL0     H56234   6.386  10.258   3.458 -0.3718 -0.5869  0.4555
  417MOL0     H56235   6.293  10.295   3.312  0.9446  0.7293 -0.8865
  417MOL0     H56236   6.386  10.530   3.305 -2.0874 -0.2792  1.3979
  417MOL0     H56237   6.506  10.490   3.426 -1.6254 -0.1104  1.3217
  417MOL0     H56238   6.560  10.277   3.311  0.7580  1.2818  2.5641
  417MOL0     H56239   6.483  10.334   3.167  1.2955  1.3024 -0.2795
  417MOL0     H56240   6.706  10.377   3.135  0.5780 -3.1351  2.8247
  417MOL0     H56241   6.632  10.543   3.179 -0.7067  0.7867  1.1416
  417MOL0     H56242   6.739  10.528   3.401  0.7239 -1.1749  1.2443
  417MOL0     H56243   6.779  10.351   3.377 -0.5929 -0.1942  1.2885
  417MOL0     H56244   6.932  10.373   3.247 -1.5537 -1.0927 -0.3076
  417MOL0     H56245   6.962  10.484   3.372  0.8620 -4.7657  0.4773
  417MOL0     H56246   6.853  10.756   3.302 -0.1306 -1.1747  0.2121
  417MOL0     H56247   6.939  10.974   3.189 -1.5646 -0.1615 -1.2687
  417MOL0     H56248   7.097  10.942   3.118  0.8463 -3.0789 -2.7637
  417MOL0     H56249   6.857  10.920   2.939 -3.1470  1.8281  0.9447
  417MOL0     H56250   7.016  10.991   2.909 -1.3547  0.7399 -0.7820
  417MOL0     H56251   6.858  11.183   2.903 -0.4835  1.0627  1.4243
  417MOL0     H56252   6.953  11.196   3.047  1.5656 -2.3119  0.6542
  417MOL0     H56253   6.677  11.204   3.018  1.3505 -0.0371 -1.6543
  417MOL0     H56254   6.771  11.185   3.178  0.7432  0.8768 -0.8938
  417MOL0     H56255   6.541  11.201   3.246  1.1900 -0.1631  0.6839
  417MOL0     H56256   6.428  11.241   3.508 -1.3401  1.4789  1.0229
  417MOL0     H56257   6.356  11.268   3.352  2.8959 -1.3999 -1.8417
  417MOL0     H56258   6.276  11.166   3.477 -0.1301  2.7151  0.9319
  417MOL0     H56259   6.034  10.782   3.537 -0.7232 -2.4379 -1.5842
  417MOL0     H56260   5.881  10.694   3.736  0.0599  1.9619  0.6883
  417MOL0     H56261   6.109  10.490   4.053 -0.2610 -0.5026 -1.4307
  417MOL0     H56262   5.952  10.507   4.123  0.3077  0.5513  0.1268
  417MOL0     H56263   6.038  10.359   3.866  1.3638 -2.6487  1.3556
  417MOL0     H56264   5.979  10.282   4.013 -1.9651 -0.4479 -0.0898
  417MOL0     H56265   5.805  10.263   3.864  0.6359 -0.1663 -0.1746
  417MOL0     H56266   5.830  10.430   3.807  1.6238 -0.5979 -0.3888
  417MOL0     H56267   5.768  10.385   4.087  0.8163 -1.0718 -1.2196
  417MOL0     H56268   5.703  10.507   3.970  0.7083  0.0965  0.1191
  417MOL0     H56269   5.570  10.337   3.857  2.5296  1.3954 -0.1468
  417MOL0     H56270   5.504  10.376   4.017 -0.9102  0.6045  0.6272
  417MOL0     H56271   5.491  10.141   3.965 -1.0688  1.7887  2.7415
  417MOL0     H56272   5.656  10.136   3.922 -0.1702  3.3467 -2.0578
  417MOL0     H56273   5.570  10.206   4.218  1.0939 -2.0613  1.2785
  417MOL0     H56274   5.729  10.181   4.164  0.2354  2.4519  1.0749
  417MOL0     H56275   5.653   9.973   4.258  1.4132  2.2543 -1.1952
  417MOL0     H56276   5.683   9.958   4.089  0.0458  2.4485 -1.6353
  417MOL0     H56277   6.229  10.556   3.932 -1.4341 -3.6150 -0.8237
  417MOL0     H56278   6.371  10.667   3.761  0.2757 -2.3931 -1.9647
  417MOL0     H56279   6.507  10.731   3.377  1.4444 -1.0053 -2.0621
  417MOL0     H56280   6.654  10.798   3.201  1.9495 -0.9354  1.6735
  417MOL0     H56281   6.012  10.057   3.367  0.9416  1.8870  1.1028
  417MOL0     H56282   5.829   9.903   3.454  1.4616 -0.5669 -1.3695
  417MOL0     H56283   5.584   9.803   3.772 -0.0480  0.5808 -1.6486
  417MOL0     H56284   5.447   9.633   3.897 -0.1829 -0.7368 -0.0087
  417MOL0     H56285   5.011   9.684   3.933 -2.3453  0.0819  1.3673
  417MOL0     H56286   5.040   9.598   4.081  3.4651 -1.2740  0.2691
  417MOL0     H56287   4.983   9.863   4.099 -0.3356 -0.4274  0.2060
  417MOL0     H56288   5.158   9.871   4.078 -1.6211 -0.1230 -3.1619
  417MOL0     H56289   5.201   9.703   4.251  1.0558  0.9248 -0.2955
  417MOL0     H56290   5.023   9.707   4.287  0.9778 -3.0183 -1.9523
  417MOL0     H56291   5.049   9.955   4.332  0.0707  0.6515 -1.1094
  417MOL0     H56292   5.220   9.939   4.295 -0.1019  1.8465  0.7331
  417MOL0     H56293   5.228   9.823   4.703 -2.7323 -4.0278  0.8956
  417MOL0     H56294   5.097   9.870   3.809  0.8553  1.6526  0.4701
  417MOL0     H56295   5.223  10.009   3.671 -1.7499 -2.2584 -2.0535
  418MOL0     O56296  10.827   1.241   2.172  0.0402 -0.7721  0.8574
  418MOL0     C56297  10.849   1.345   2.109 -0.3792 -0.0819 -0.5169
  418MOL0     O56298  10.936   1.358   2.011 -0.6524  0.3785  0.4221
  418MOL0     C56299  11.002   1.250   1.965 -0.3554  0.0254 -0.2148
  418MOL0     C56300  11.139   1.255   1.960 -0.8361  0.1276  0.9049
  418MOL0     C56301  11.221   1.154   1.908  0.3077 -0.0957 -0.1509
  418MOL0     C56302  11.169   1.028   1.871 -0.4725 -0.1900 -0.7412
  418MOL0     O56303  11.244   0.924   1.817  0.3565 -0.2087  0.4457
  418MOL0     C56304  11.193   0.856   1.701  0.1118  0.1698 -0.5061
  418MOL0     C56305  11.316   0.844   1.609  1.1298 -0.2546  0.6964
  418MOL0     C56306  11.298   0.737   1.489  0.3608  0.3767 -0.8194
  418MOL0     C56307  11.211   0.785   1.376 -0.6991  1.1505  0.8362
  418MOL0     C56308  11.229   0.723   1.236  0.2468 -0.7838  0.1771
  418MOL0     C56309  11.213   0.574   1.226  1.0288  0.5694  0.7921
  418MOL0     C56310  11.197   0.543   1.075 -0.3487  0.0544 -0.6239
  418MOL0     C56311  11.188   0.398   1.064  0.0699  0.3897  0.0219
  418MOL0     N56312  11.211   0.353   0.922 -0.2727 -0.0447 -0.7677
  418MOL0     C56313  11.162   0.421   0.807  0.3446  0.1947 -0.3976
  418MOL0     C56314  11.232   0.366   0.707 -0.9423 -0.7397 -0.2061
  418MOL0     C56315  11.244   0.433   0.567 -0.5116  0.5109  0.6460
  418MOL0     C56316  11.372   0.524   0.576 -0.5860  0.2416  0.6401
  418MOL0     C56317  11.355   0.651   0.476  0.7541 -0.2862 -0.2364
  418MOL0     C56318  11.338   0.614   0.331 -0.3320 -0.3631  0.1355
  418MOL0     O56319  11.212   0.558   0.303 -0.4022  0.3864  0.5326
  418MOL0     C56320  11.175   0.546   0.168 -0.7582 -0.5583  0.0971
  418MOL0     C56321  11.041   0.568   0.151 -0.2500  0.4532  0.2964
  418MOL0     C56322  10.980   0.571   0.027 -0.2834  0.0356 -0.1827
  418MOL0     C56323  10.837   0.625   0.028 -0.8014  0.7767 -0.8799
  418MOL0     C56324  11.063   0.536  -0.095  0.5583 -0.5663 -0.5083
  418MOL0     C56325  11.003   0.545  -0.235 -0.8439  0.3458 -0.3779
  418MOL0     O56326  11.097   0.550  -0.338  0.0088  0.3237  0.4966
  418MOL0     C56327  11.049   0.535  -0.465  0.5437  0.0766  0.7544
  418MOL0     C56328  11.037   0.647  -0.545 -0.8953  0.5942 -0.2360
  418MOL0     C56329  10.969   0.633  -0.664 -0.0404 -0.2266  0.5210
  418MOL0     C56330  10.914   0.513  -0.711  0.2267 -0.3867 -1.0847
  418MOL0     O56331  10.855   0.507  -0.833 -0.4732  0.4947  0.2786
  418MOL0     C56332  10.749   0.425  -0.849  1.2054 -0.7807  0.7687
  418MOL0     C56333  10.684   0.429  -0.992 -0.0319  0.1876 -0.4433
  418MOL0     C56334  10.568   0.325  -0.989 -0.0788  0.1708 -0.6470
  418MOL0     C56335  10.511   0.320  -1.128 -1.3238 -0.0701  0.7801
  418MOL0     C56336  10.555   0.193  -1.203 -0.2302  1.9851 -0.6916
  418MOL0     C56337  10.481   0.180  -1.344 -0.3078  0.7740  0.8047
  418MOL0     C56338  10.537   0.282  -1.448  0.3124  0.9988  0.5858
  418MOL0     C56339  10.417   0.337  -1.529  0.7310 -0.6279  0.6458
  418MOL0    Cl56340  10.308   0.436  -1.431  0.5409  0.1987 -0.0493
  418MOL0     C56341  10.931   0.401  -0.631 -0.3114 -0.1653  0.7278
  418MOL0     C56342  10.993   0.408  -0.513  0.0690  0.3454  0.1982
  418MOL0     O56343  10.885   0.525  -0.246 -0.7629 -0.3402 -0.1511
  418MOL0     C56344  11.198   0.517  -0.071 -0.1174  0.3799 -0.4090
  418MOL0     C56345  11.251   0.520   0.057  0.3182 -0.1594  0.0849
  418MOL0     N56346  11.328   0.278   0.763  0.2767 -0.3801  1.2551
  418MOL0     N56347  11.305   0.261   0.889  0.6769 -0.2884  0.5482
  418MOL0     C56348  11.026   1.016   1.875  0.8620  0.3844  0.0603
  418MOL0     C56349  10.941   1.130   1.911  0.1137  0.2777  0.8491
  418MOL0     C56350  10.779   1.461   2.157  0.6831 -0.4001  0.8895
  418MOL0     C56351  10.682   1.457   2.259  1.1288 -0.7830  0.2484
  418MOL0     C56352  10.627   1.572   2.304  0.7589  0.6453 -0.1589
  418MOL0     C56353  10.658   1.700   2.255  0.0318  0.1166 -0.5066
  418MOL0     O56354  10.595   1.820   2.286 -0.0306  0.6538  0.9201
  418MOL0     C56355  10.482   1.820   2.370 -0.1662  0.0208  0.0116
  418MOL0     C56356  10.378   1.927   2.326  0.0428 -0.9023 -0.0892
  418MOL0     C56357  10.443   2.057   2.291  0.5991 -0.0246 -0.0257
  418MOL0     C56358  10.331   2.156   2.255  0.3257 -0.0727  0.8228
  418MOL0     C56359  10.259   2.122   2.130  0.2197  0.1413  0.5401
  418MOL0     C56360  10.227   2.097   2.016  0.4658 -0.1381 -0.2973
  418MOL0     C56361  10.761   1.712   2.160  0.2436  0.1124 -0.3244
  418MOL0     C56362  10.829   1.594   2.115 -0.2564 -0.4716 -0.7459
  418MOL0     H56363  11.194   1.328   2.019 -2.5790  0.4465  2.1956
  418MOL0     H56364  11.327   1.172   1.895  0.5419 -2.5078 -2.5368
  418MOL0     H56365  11.173   0.753   1.733 -1.3888  0.4587 -0.4571
  418MOL0     H56366  11.111   0.903   1.647 -0.1823 -0.7550 -0.8851
  418MOL0     H56367  11.339   0.943   1.568 -1.4084 -0.8106 -2.5566
  418MOL0     H56368  11.400   0.801   1.663  2.7709  2.0144  0.1021
  418MOL0     H56369  11.400   0.716   1.457  2.3902  3.7761  2.4804
  418MOL0     H56370  11.270   0.638   1.525 -1.9008  0.7325 -1.4622
  418MOL0     H56371  11.106   0.778   1.404 -1.1482  1.6920 -0.6170
  418MOL0     H56372  11.230   0.890   1.353  0.8614  0.7059 -0.1017
  418MOL0     H56373  11.160   0.763   1.162  1.5080 -1.8668 -1.6874
  418MOL0     H56374  11.326   0.759   1.199 -0.0628 -0.3193 -0.1891
  418MOL0     H56375  11.302   0.531   1.273  1.9330  0.9668 -0.5013
  418MOL0     H56376  11.118   0.543   1.272 -0.4092  0.6313 -1.8807
  418MOL0     H56377  11.111   0.591   1.027  0.9343 -0.5171 -3.7532
  418MOL0     H56378  11.282   0.582   1.018 -0.6821  0.6371 -0.7225
  418MOL0     H56379  11.091   0.368   1.103 -0.9082  3.4844  0.2210
  418MOL0     H56380  11.264   0.360   1.132  2.5307  5.7531  0.8501
  418MOL0     H56381  11.084   0.496   0.808  1.3060  1.2304  1.0681
  418MOL0     H56382  11.259   0.362   0.485 -1.1707  1.5744 -0.4337
  418MOL0     H56383  11.151   0.484   0.538  1.4315  4.5139  0.8747
  418MOL0     H56384  11.466   0.468   0.568 -1.3127 -1.2424  1.9731
  418MOL0     H56385  11.390   0.568   0.675  0.2685  0.4593  0.3962
  418MOL0     H56386  11.450   0.703   0.490  0.1351  1.5996 -2.4938
  418MOL0     H56387  11.271   0.712   0.509  2.9217  1.1989  3.0875
  418MOL0     H56388  11.416   0.543   0.302 -0.5315 -0.1860 -0.9032
  418MOL0     H56389  11.341   0.708   0.273 -2.5636  0.2655  0.9283
  418MOL0     H56390  10.971   0.574   0.234  0.6932 -2.1419  1.3981
  418MOL0     H56391  10.782   0.587   0.114 -0.3627  0.0922 -0.8910
  418MOL0     H56392  10.841   0.729   0.061  1.8021 -0.3750  3.2036
  418MOL0     H56393  10.782   0.612  -0.065  0.0981  0.8594 -1.4377
  418MOL0     H56394  11.091   0.738  -0.520 -1.6679  0.7439  1.0153
  418MOL0     H56395  10.948   0.708  -0.739  1.4872 -2.0614 -1.8751
  418MOL0     H56396  10.777   0.320  -0.839  1.4019 -1.1525 -2.6267
  418MOL0     H56397  10.686   0.451  -0.763  3.6391  3.1692  1.6336
  418MOL0     H56398  10.632   0.522  -1.017 -2.4374 -0.7592  0.6705
  418MOL0     H56399  10.762   0.394  -1.060 -0.2816 -0.6797 -0.3013
  418MOL0     H56400  10.483   0.349  -0.925 -1.6977 -1.2105 -2.1568
  418MOL0     H56401  10.596   0.225  -0.953  1.8264  0.6581 -0.6621
  418MOL0     H56402  10.404   0.343  -1.123 -1.5405 -0.2873 -1.6851
  418MOL0     H56403  10.564   0.395  -1.188  0.1400 -0.1623  1.9040
  418MOL0     H56404  10.517   0.110  -1.144 -0.9157 -0.8669 -4.6714
  418MOL0     H56405  10.664   0.187  -1.214 -0.5251 -0.3568 -3.8595
  418MOL0     H56406  10.495   0.076  -1.375 -0.2745  0.9043  0.3801
  418MOL0     H56407  10.372   0.180  -1.332 -0.1666  1.8419  2.3875
  418MOL0     H56408  10.611   0.238  -1.515  1.0220  3.2256 -0.1989
  418MOL0     H56409  10.591   0.360  -1.393  0.3662  1.1705  0.2883
  418MOL0     H56410  10.360   0.254  -1.573  1.1109 -0.0239 -1.0442
  418MOL0     H56411  10.461   0.397  -1.609  2.4491 -0.8591  1.3603
  418MOL0     H56412  10.902   0.305  -0.674  2.1138 -1.6767  2.2235
  418MOL0     H56413  11.010   0.314  -0.461 -1.4812 -0.9917 -1.5559
  418MOL0     H56414  11.267   0.495  -0.152  0.1809  0.6544 -0.2340
  418MOL0     H56415  11.356   0.495   0.071  0.6417 -0.9851 -2.9885
  418MOL0     H56416  10.991   0.916   1.852  2.4310 -0.2270  0.2232
  418MOL0     H56417  10.837   1.099   1.910  0.4472 -0.9191  1.3184
  418MOL0     H56418  10.649   1.361   2.297  1.6179 -1.2542 -0.5013
  418MOL0     H56419  10.555   1.571   2.385  0.6233  3.3824 -0.1433
  418MOL0     H56420  10.435   1.723   2.355 -0.5214  0.6561 -4.4334
  418MOL0     H56421  10.514   1.836   2.473  2.1253 -1.7594 -0.3292
  418MOL0     H56422  10.311   1.945   2.411  1.0257 -2.9179  1.2037
  418MOL0     H56423  10.323   1.882   2.243 -1.6907  0.8786  0.0370
  418MOL0     H56424  10.508   2.038   2.205 -0.0567 -2.4414 -0.0781
  418MOL0     H56425  10.495   2.100   2.377  1.1309 -2.2404  0.8317
  418MOL0     H56426  10.383   2.251   2.245  1.1872 -0.5062  1.1423
  418MOL0     H56427  10.255   2.164   2.333 -1.9541 -1.2318 -1.1434
  418MOL0     H56428  10.199   2.071   1.916  0.1432  2.5244 -0.9742
  418MOL0     H56429  10.782   1.808   2.114 -1.4499  0.6147 -0.1276
  418MOL0     H56430  10.910   1.606   2.045 -0.7647 -2.7509 -1.8269
  419MOL0     O56431  10.915   8.489   4.955 -1.0232  0.1624 -0.2317
  419MOL0     C56432  10.952   8.487   4.836 -0.2180  0.7734 -0.8934
  419MOL0     O56433  11.044   8.404   4.777 -0.2651  0.7422  0.1896
  419MOL0     C56434  11.115   8.305   4.842  0.1264 -0.5100  0.4044
  419MOL0     C56435  11.161   8.215   4.743  0.4621 -0.0957 -0.7708
  419MOL0     C56436  11.254   8.114   4.778  0.9537  0.6657  0.5587
  419MOL0     C56437  11.301   8.115   4.909 -0.5372  0.0707 -1.4046
  419MOL0     O56438  11.404   8.031   4.952  0.4944  0.1671  0.4429
  419MOL0     C56439  11.381   7.894   4.923 -0.1419 -0.4365  0.5956
  419MOL0     C56440  11.425   7.823   5.045 -0.2613  0.2830  0.1883
  419MOL0     C56441  11.352   7.699   5.087 -0.3097  0.3699 -0.3541
  419MOL0     C56442  11.416   7.648   5.222  0.3104  0.1842  0.1583
  419MOL0     C56443  11.350   7.513   5.251  0.6178  0.2796  0.3636
  419MOL0     C56444  11.388   7.474   5.399  0.7164 -0.2308  0.5425
  419MOL0     C56445  11.356   7.323   5.429  0.8196  0.2577  0.0169
  419MOL0     C56446  11.203   7.296   5.434 -0.1628 -0.7649 -0.5355
  419MOL0     N56447  11.146   7.366   5.555 -0.3734  0.1857  0.0649
  419MOL0     C56448  11.080   7.493   5.563 -0.0184 -0.7914  0.7241
  419MOL0     C56449  11.033   7.490   5.691  0.0608 -0.7687 -0.0741
  419MOL0     C56450  10.962   7.598   5.760 -1.2342 -0.4829 -0.0590
  419MOL0     C56451  10.962   7.609   5.917 -0.7847 -0.1686 -0.1891
  419MOL0     C56452  10.888   7.496   5.992 -1.7210 -0.8674 -0.8723
  419MOL0     C56453  10.878   7.535   6.140  0.2710  0.0127 -0.0465
  419MOL0     O56454  11.009   7.523   6.190 -0.3114  0.1181  0.7292
  419MOL0     C56455  11.037   7.511   6.325 -0.5839  0.0813 -0.7356
  419MOL0     C56456  10.933   7.519   6.423 -1.1014 -0.3977 -0.0579
  419MOL0     C56457  10.962   7.497   6.556  0.1490  0.1824 -0.0821
  419MOL0     C56458  10.844   7.509   6.653  1.3523 -0.4445  0.1963
  419MOL0     C56459  11.092   7.446   6.595  0.0163 -0.0991  0.0537
  419MOL0     C56460  11.127   7.394   6.724  0.0010 -0.3580  0.4955
  419MOL0     O56461  11.251   7.345   6.731 -0.3399  0.2817 -0.0477
  419MOL0     C56462  11.287   7.279   6.844  0.6710  0.2743 -0.4441
  419MOL0     C56463  11.329   7.146   6.829  0.2123 -0.0203  0.3244
  419MOL0     C56464  11.389   7.078   6.932 -0.0975  0.1458 -0.4161
  419MOL0     C56465  11.416   7.148   7.055 -0.2670 -0.0959  0.5498
  419MOL0     O56466  11.472   7.067   7.154 -0.3970 -0.0807  0.6634
  419MOL0     C56467  11.558   7.127   7.243  0.0407  0.0444  0.0786
  419MOL0     C56468  11.622   7.024   7.330 -0.6451 -0.4420  0.1136
  419MOL0     C56469  11.734   6.943   7.264  1.0277 -0.2876  0.6055
  419MOL0     C56470  11.679   6.821   7.177  0.1198 -0.9321  0.2146
  419MOL0     C56471  11.797   6.735   7.127 -1.0320 -0.7658 -0.7545
  419MOL0     C56472  11.767   6.673   7.001  0.5745 -0.3271 -0.0117
  419MOL0     C56473  11.872   6.591   6.935 -0.1306 -1.2586 -0.0438
  419MOL0     C56474  11.886   6.443   6.982  0.6666 -0.7307 -0.3976
  419MOL0    Cl56475  12.026   6.378   6.899  0.3397 -0.3938  0.1269
  419MOL0     C56476  11.382   7.289   7.063 -0.1498  0.4719 -0.3054
  419MOL0     C56477  11.310   7.351   6.965  0.0125  0.6145 -0.0013
  419MOL0     O56478  11.050   7.401   6.820 -0.4938 -0.6137 -0.2281
  419MOL0     C56479  11.196   7.450   6.495  0.6020  0.8027  0.1868
  419MOL0     C56480  11.165   7.474   6.363  0.0229 -0.0761 -0.4713
  419MOL0     N56481  11.070   7.372   5.752 -0.5592 -0.8456  0.7896
  419MOL0     N56482  11.138   7.302   5.668 -0.6513 -0.9830  0.1360
  419MOL0     C56483  11.267   8.215   5.000  0.3127 -0.6701 -0.4379
  419MOL0     C56484  11.167   8.310   4.975 -0.7475 -0.2950  0.4033
  419MOL0     C56485  10.900   8.594   4.749  0.3937 -0.1687 -0.0350
  419MOL0     C56486  10.968   8.630   4.627  0.0938  0.1687 -0.5999
  419MOL0     C56487  10.947   8.754   4.566  1.1293  0.3928  0.9856
  419MOL0     C56488  10.837   8.835   4.612  0.0558 -0.1998 -0.5222
  419MOL0     O56489  10.791   8.955   4.563  0.3805 -0.5366 -1.1242
  419MOL0     C56490  10.882   9.012   4.463  1.4005 -0.1360 -0.0554
  419MOL0     C56491  11.002   9.078   4.534 -0.0033 -0.4601  0.8152
  419MOL0     C56492  10.975   9.226   4.557  0.3481  0.9408  0.4955
  419MOL0     C56493  11.007   9.307   4.430 -0.4555 -0.6525  0.2726
  419MOL0     C56494  11.146   9.309   4.388  0.6651 -0.5054  0.0824
  419MOL0     C56495  11.258   9.336   4.347  0.4150  0.0192 -0.4424
  419MOL0     C56496  10.767   8.801   4.724 -0.2239  0.3648 -0.1302
  419MOL0     C56497  10.800   8.683   4.792  0.1739  0.0499 -0.4992
  419MOL0     H56498  11.125   8.222   4.641  2.5652 -1.5651 -1.6840
  419MOL0     H56499  11.281   8.034   4.710  4.5479 -0.5758  3.1717
  419MOL0     H56500  11.280   7.863   4.897  0.8518 -0.8939 -3.2934
  419MOL0     H56501  11.437   7.880   4.831  0.6890 -0.4550  1.0951
  419MOL0     H56502  11.531   7.805   5.024  0.6965  1.9771  3.0333
  419MOL0     H56503  11.417   7.887   5.133 -0.0045 -0.0705  0.4719
  419MOL0     H56504  11.244   7.711   5.098 -0.6896 -2.4826 -0.1821
  419MOL0     H56505  11.354   7.623   5.009 -1.5405  1.4910 -1.5228
  419MOL0     H56506  11.525   7.640   5.228  0.3460  1.2576  1.3455
  419MOL0     H56507  11.400   7.719   5.303 -2.7152 -1.3392  1.0413
  419MOL0     H56508  11.241   7.515   5.237  0.9188  0.6990 -2.4977
  419MOL0     H56509  11.399   7.450   5.177  0.3469  0.8994 -0.3620
  419MOL0     H56510  11.497   7.481   5.414  0.6626  1.0930  0.4105
  419MOL0     H56511  11.346   7.535   5.479  1.4983  0.8008  0.1859
  419MOL0     H56512  11.411   7.260   5.359  2.4214  3.0626 -1.4634
  419MOL0     H56513  11.385   7.293   5.530 -1.4308 -2.6659 -0.1032
  419MOL0     H56514  11.198   7.187   5.439 -0.8924 -0.7016  0.6491
  419MOL0     H56515  11.159   7.328   5.339  1.2925 -0.3355 -1.0917
  419MOL0     H56516  11.079   7.575   5.492  1.4648 -0.5867  0.9052
  419MOL0     H56517  10.996   7.694   5.717 -6.0351  2.0098  1.0419
  419MOL0     H56518  10.858   7.587   5.731 -0.8275  1.4255 -2.6980
  419MOL0     H56519  10.920   7.709   5.933 -0.0794  0.5525 -2.4643
  419MOL0     H56520  11.064   7.615   5.955  0.2733  3.1350 -2.9890
  419MOL0     H56521  10.946   7.404   5.984  0.9544  0.2402  3.1553
  419MOL0     H56522  10.787   7.489   5.949 -2.9098  2.6880  0.9403
  419MOL0     H56523  10.808   7.467   6.191 -1.9969 -0.1472 -3.1462
  419MOL0     H56524  10.837   7.634   6.161 -1.7360 -0.3689 -1.8785
  419MOL0     H56525  10.835   7.555   6.390 -0.0370  0.3928 -2.6249
  419MOL0     H56526  10.846   7.575   6.740  0.1819 -1.4294  0.9998
  419MOL0     H56527  10.756   7.541   6.596  3.1045 -1.6219 -3.5208
  419MOL0     H56528  10.820   7.412   6.697  0.8583 -1.4034 -2.0212
  419MOL0     H56529  11.317   7.101   6.731 -1.5609  2.6753 -0.8281
  419MOL0     H56530  11.405   6.974   6.905 -0.1161 -0.2053  0.8484
  419MOL0     H56531  11.630   7.192   7.193 -1.0208  1.4528  0.3331
  419MOL0     H56532  11.508   7.200   7.307  0.9728  1.3187 -0.5970
  419MOL0     H56533  11.672   7.078   7.411  1.3710 -1.5214 -0.3356
  419MOL0     H56534  11.543   6.955   7.363 -0.2817 -2.4697 -2.8718
  419MOL0     H56535  11.812   6.905   7.329  0.5524 -2.0268  0.2192
  419MOL0     H56536  11.792   7.009   7.199 -0.5058 -0.6917 -1.2791
  419MOL0     H56537  11.605   6.760   7.229 -3.1417  0.6161 -2.2739
  419MOL0     H56538  11.624   6.866   7.094  0.9155 -2.6066 -1.2888
  419MOL0     H56539  11.827   6.661   7.202 -0.5236  0.2735  0.0929
  419MOL0     H56540  11.881   6.804   7.117  0.6255 -2.5335  0.1828
  419MOL0     H56541  11.687   6.602   7.024  1.8863 -1.9373 -0.1848
  419MOL0     H56542  11.736   6.750   6.930 -0.0703 -1.2212 -0.7207
  419MOL0     H56543  11.966   6.644   6.955 -0.8407 -0.6816  2.0206
  419MOL0     H56544  11.851   6.586   6.828 -3.1716 -1.7559  0.4762
  419MOL0     H56545  11.800   6.376   6.969  0.5835 -0.3969 -1.7131
  419MOL0     H56546  11.912   6.449   7.088 -2.9441 -0.3388  0.5905
  419MOL0     H56547  11.402   7.350   7.150 -0.1099  1.7802 -1.2018
  419MOL0     H56548  11.288   7.456   6.974  0.2277  0.6595  0.0096
  419MOL0     H56549  11.296   7.431   6.532  0.5091 -0.5693 -0.2365
  419MOL0     H56550  11.242   7.472   6.287 -1.4679 -3.4183 -2.0626
  419MOL0     H56551  11.316   8.218   5.097  0.7016 -1.7963 -0.5861
  419MOL0     H56552  11.137   8.393   5.038  2.8573  0.5170  1.2552
  419MOL0     H56553  11.048   8.568   4.588  0.1223  0.7971 -1.5554
  419MOL0     H56554  10.999   8.779   4.474  0.6047 -3.9628 -0.7346
  419MOL0     H56555  10.900   8.939   4.383 -2.3728 -0.8836 -0.4518
  419MOL0     H56556  10.814   9.086   4.419  1.3654 -0.7278 -1.0331
  419MOL0     H56557  11.085   9.074   4.462  0.8922  0.9948  1.7259
  419MOL0     H56558  11.012   9.031   4.632  0.3825  0.8108  1.3973
  419MOL0     H56559  11.035   9.270   4.637  0.7168 -0.7352  1.1820
  419MOL0     H56560  10.869   9.224   4.586  0.1333  0.2667 -0.2770
  419MOL0     H56561  10.973   9.410   4.439  2.2610  0.1677  2.5415
  419MOL0     H56562  10.956   9.254   4.349  2.6926 -1.7095 -1.1798
  419MOL0     H56563  11.356   9.366   4.315  0.4122  3.6648  2.2540
  419MOL0     H56564  10.692   8.869   4.763 -0.6979 -0.3605  0.2376
  419MOL0     H56565  10.749   8.661   4.885  0.9081 -3.0570 -0.7350
  420MOL0     O56566   1.404   8.160   8.305  0.0528 -0.8264 -0.3395
  420MOL0     C56567   1.385   8.278   8.342 -0.2609  0.8801 -0.5648
  420MOL0     O56568   1.280   8.329   8.406  0.1388 -0.4257 -0.2616
  420MOL0     C56569   1.195   8.245   8.468  0.5772 -0.3895  1.1332
  420MOL0     C56570   1.247   8.127   8.531  1.0527 -0.2481  0.1953
  420MOL0     C56571   1.148   8.046   8.590 -0.1173  0.2720 -0.4436
  420MOL0     C56572   1.008   8.064   8.582  0.7047 -0.5312  0.4664
  420MOL0     O56573   0.920   7.961   8.625 -0.1655 -0.3329  0.0885
  420MOL0     C56574   0.811   8.025   8.703 -0.6704  0.1035 -0.8005
  420MOL0     C56575   0.766   7.912   8.807  0.7038  0.6502  0.1780
  420MOL0     C56576   0.697   7.794   8.742 -0.3776 -0.4271  0.3644
  420MOL0     C56577   0.684   7.675   8.834  0.0345  0.0219 -0.7221
  420MOL0     C56578   0.593   7.571   8.760  0.2633 -0.8020  0.0129
  420MOL0     C56579   0.588   7.449   8.851  0.0872 -0.1744  0.2248
  420MOL0     C56580   0.497   7.353   8.780  0.0942 -0.3807  0.0031
  420MOL0     C56581   0.483   7.229   8.865 -0.8006  0.3071 -0.0944
  420MOL0     N56582   0.612   7.165   8.870  0.7453  0.8077 -0.7850
  420MOL0     C56583   0.677   7.096   8.779  1.0419 -0.4788  0.7965
  420MOL0     C56584   0.788   7.061   8.839 -0.5413  0.3755 -1.1267
  420MOL0     C56585   0.892   6.967   8.770  0.4980  0.4316 -0.0123
  420MOL0     C56586   1.034   6.987   8.804 -0.2416 -0.1442 -0.3471
  420MOL0     C56587   1.135   6.894   8.744 -0.0967 -0.2761 -0.0319
  420MOL0     C56588   1.131   6.756   8.815 -0.4185  0.4235  0.1330
  420MOL0     O56589   1.159   6.765   8.961  0.2385 -0.0613 -0.0072
  420MOL0     C56590   1.289   6.725   8.997 -0.6705 -0.1913 -0.6273
  420MOL0     C56591   1.293   6.685   9.122 -0.3393 -0.9110 -0.1445
  420MOL0     C56592   1.399   6.613   9.177  0.0177  0.4400 -0.1316
  420MOL0     C56593   1.390   6.556   9.309 -0.1074 -0.4763 -0.3422
  420MOL0     C56594   1.524   6.603   9.099  0.7223 -0.4066 -0.1693
  420MOL0     C56595   1.648   6.534   9.161 -0.0954 -0.0156  0.6780
  420MOL0     O56596   1.676   6.413   9.099  0.2263 -0.2266 -0.0855
  420MOL0     C56597   1.710   6.302   9.174  0.3325 -0.1246  0.5144
  420MOL0     C56598   1.738   6.175   9.106  0.7988  0.4789  0.9771
  420MOL0     C56599   1.768   6.067   9.185 -0.1840  0.6425 -0.4152
  420MOL0     C56600   1.771   6.074   9.324  0.4292  0.4685 -0.0528
  420MOL0     O56601   1.809   5.967   9.416 -0.3144 -0.3553  0.6463
  420MOL0     C56602   1.747   5.838   9.391 -0.6723 -0.2446 -0.2549
  420MOL0     C56603   1.818   5.744   9.495 -0.3121 -0.0652  0.6522
  420MOL0     C56604   1.793   5.769   9.642  0.1089 -0.4636  0.4925
  420MOL0     C56605   1.660   5.721   9.688 -0.4387  0.6230  0.2333
  420MOL0     C56606   1.631   5.780   9.824 -0.2050  0.2381 -0.3486
  420MOL0     C56607   1.613   5.936   9.820 -0.9448 -1.0349  0.0780
  420MOL0     C56608   1.476   5.973   9.769  1.1003 -0.0825  0.3769
  420MOL0     C56609   1.429   6.126   9.786  0.3734  1.8320 -0.0028
  420MOL0    Cl56610   1.509   6.227   9.665  0.1646 -0.1658  0.5641
  420MOL0     C56611   1.735   6.183   9.390 -0.3822  0.1595 -1.0982
  420MOL0     C56612   1.703   6.299   9.316 -0.3013  0.0579  0.3701
  420MOL0     O56613   1.723   6.595   9.237 -0.0386 -0.6790 -0.4506
  420MOL0     C56614   1.523   6.648   8.967 -0.3899 -0.1523  0.8224
  420MOL0     C56615   1.405   6.704   8.916 -0.3071 -0.1425  0.3667
  420MOL0     N56616   0.796   7.107   8.972  0.2039  0.1179  1.1825
  420MOL0     N56617   0.685   7.167   8.985  0.6973  0.3526  0.9907
  420MOL0     C56618   0.962   8.180   8.510  0.4366 -0.5692 -0.0435
  420MOL0     C56619   1.052   8.267   8.459  0.1737 -0.4964  0.1433
  420MOL0     C56620   1.498   8.371   8.313 -0.1491 -0.0424 -0.9654
  420MOL0     C56621   1.606   8.326   8.233  0.5428 -0.8947 -0.3403
  420MOL0     C56622   1.719   8.404   8.225 -0.2469  0.4155  0.2932
  420MOL0     C56623   1.729   8.532   8.287  0.3274  0.5340  0.4492
  420MOL0     O56624   1.830   8.617   8.279 -0.1420  0.0250 -0.3816
  420MOL0     C56625   1.955   8.566   8.233  0.3476  1.1784 -0.1561
  420MOL0     C56626   2.068   8.665   8.256 -0.1145  0.0628  0.5822
  420MOL0     C56627   2.056   8.802   8.188  0.2485 -0.0371  0.3712
  420MOL0     C56628   2.151   8.902   8.256 -0.1460 -0.4520  0.6089
  420MOL0     C56629   2.286   8.860   8.290  0.2966 -0.0677  0.6168
  420MOL0     C56630   2.400   8.840   8.324 -0.1476  0.2775  0.6920
  420MOL0     C56631   1.616   8.584   8.359  0.3819 -0.7539  1.0850
  420MOL0     C56632   1.503   8.505   8.375 -0.5097  0.2706  0.2048
  420MOL0     H56633   1.349   8.093   8.547  0.7359 -2.1928 -1.5091
  420MOL0     H56634   1.191   7.968   8.652 -0.1836  0.2009 -0.4865
  420MOL0     H56635   0.846   8.103   8.771  1.0991 -2.5616  1.5490
  420MOL0     H56636   0.723   8.058   8.646 -1.3314  1.4970  0.9224
  420MOL0     H56637   0.856   7.898   8.867  1.1277 -1.8673 -0.9038
  420MOL0     H56638   0.681   7.947   8.865  0.0480 -3.8529  2.3399
  420MOL0     H56639   0.600   7.818   8.697  0.3421 -1.2741 -1.7791
  420MOL0     H56640   0.763   7.760   8.662 -2.9010  2.2821 -3.2143
  420MOL0     H56641   0.780   7.629   8.858 -0.0727 -0.4654 -1.1896
  420MOL0     H56642   0.636   7.691   8.931 -1.3734  0.8625 -1.5145
  420MOL0     H56643   0.493   7.612   8.746  0.3377  0.1196  1.8445
  420MOL0     H56644   0.647   7.544   8.669  3.0085 -0.9516  1.5761
  420MOL0     H56645   0.689   7.406   8.853 -0.6846 -2.4872 -3.1451
  420MOL0     H56646   0.535   7.486   8.939 -2.0786 -0.4154 -0.9101
  420MOL0     H56647   0.396   7.394   8.780 -0.6599 -1.9819  2.2463
  420MOL0     H56648   0.522   7.322   8.678  0.1414  1.6271 -0.6215
  420MOL0     H56649   0.402   7.168   8.824  1.1581 -1.7773 -1.0747
  420MOL0     H56650   0.454   7.254   8.967  0.8413  1.1603  0.1900
  420MOL0     H56651   0.647   7.075   8.677 -0.1185  0.9626  0.8171
  420MOL0     H56652   0.863   6.865   8.794  1.2349  0.7776  2.5965
  420MOL0     H56653   0.879   6.971   8.661 -2.2910  0.2601  0.2453
  420MOL0     H56654   1.043   6.983   8.912  0.0714 -1.6691 -0.4107
  420MOL0     H56655   1.056   7.089   8.771  0.3030  0.6160  2.1972
  420MOL0     H56656   1.235   6.936   8.758  0.2275 -0.7050 -0.9261
  420MOL0     H56657   1.115   6.880   8.637  1.1953  3.3878 -0.8827
  420MOL0     H56658   1.197   6.684   8.767 -0.7419  0.1718  0.0602
  420MOL0     H56659   1.033   6.709   8.805 -0.8184  0.7710  2.1053
  420MOL0     H56660   1.198   6.691   9.174 -0.4293  2.1732 -0.4648
  420MOL0     H56661   1.483   6.576   9.363 -0.3990  0.3082 -0.1142
  420MOL0     H56662   1.310   6.602   9.368  1.6283  1.2022  0.8155
  420MOL0     H56663   1.370   6.450   9.290 -0.6477 -0.6421  0.9621
  420MOL0     H56664   1.731   6.168   8.998 -1.7251  0.6579  1.0648
  420MOL0     H56665   1.812   5.977   9.142 -0.8797 -0.0182  0.2306
  420MOL0     H56666   1.639   5.846   9.406 -0.5024  1.9326  0.1528
  420MOL0     H56667   1.757   5.795   9.291 -4.0913 -2.4998  0.1964
  420MOL0     H56668   1.792   5.640   9.470 -0.3150 -0.6373  2.8039
  420MOL0     H56669   1.926   5.751   9.480 -0.0866  0.3315  2.2536
  420MOL0     H56670   1.815   5.876   9.654 -4.2652  0.7065 -0.2948
  420MOL0     H56671   1.866   5.715   9.704 -1.9677 -1.9352  1.7599
  420MOL0     H56672   1.580   5.750   9.619  0.2553 -0.8397 -1.2418
  420MOL0     H56673   1.657   5.612   9.688 -1.8470  0.6092 -1.5839
  420MOL0     H56674   1.705   5.752   9.900  2.3223  4.4272 -0.9486
  420MOL0     H56675   1.540   5.739   9.869  0.9590 -0.4938  1.4592
  420MOL0     H56676   1.624   5.988   9.915  2.9769  2.4006 -1.9395
  420MOL0     H56677   1.684   5.984   9.751 -3.7315  2.1696 -0.8462
  420MOL0     H56678   1.404   5.912   9.823  2.7630 -2.8243 -0.3273
  420MOL0     H56679   1.469   5.954   9.662 -0.6433 -3.6128  0.9618
  420MOL0     H56680   1.457   6.143   9.891 -2.4613  2.1737  0.7973
  420MOL0     H56681   1.320   6.119   9.777  0.2090  3.0540  0.7474
  420MOL0     H56682   1.741   6.180   9.498  2.4300 -0.2333 -1.1810
  420MOL0     H56683   1.681   6.387   9.375 -2.3846 -0.6827  0.8105
  420MOL0     H56684   1.612   6.636   8.907 -1.4964 -3.8368 -0.3645
  420MOL0     H56685   1.419   6.736   8.813  0.6441 -0.3725  0.4154
  420MOL0     H56686   0.858   8.197   8.486  0.5458 -0.1741 -0.2499
  420MOL0     H56687   1.015   8.365   8.430 -1.7526 -1.5656 -1.2739
  420MOL0     H56688   1.605   8.237   8.172  2.4182  0.3758 -2.3752
  420MOL0     H56689   1.809   8.366   8.178  2.1252  0.9835  3.9707
  420MOL0     H56690   1.980   8.469   8.277  0.7194  1.1519 -0.4218
  420MOL0     H56691   1.929   8.546   8.129 -4.7967 -1.6619  1.3094
  420MOL0     H56692   2.165   8.625   8.225 -0.6264  0.8675 -2.3997
  420MOL0     H56693   2.077   8.683   8.363  1.0719 -0.2385  0.5403
  420MOL0     H56694   1.953   8.837   8.196  0.5755  0.9486  0.3354
  420MOL0     H56695   2.081   8.787   8.082 -0.4980 -0.7117  0.2845
  420MOL0     H56696   2.109   8.957   8.340 -0.9818  1.3006 -0.8723
  420MOL0     H56697   2.156   8.986   8.186 -3.9631  0.3772  1.1461
  420MOL0     H56698   2.502   8.814   8.345 -0.3179 -0.3360  0.8072
  420MOL0     H56699   1.612   8.679   8.411 -2.2555  0.6132 -1.3658
  420MOL0     H56700   1.421   8.541   8.437 -2.0273 -0.6228 -1.2045
  421MOL0     O56701   3.748   5.482   4.146 -0.5876 -0.0175  0.5204
  421MOL0     C56702   3.745   5.590   4.211 -0.4936 -0.0844  0.0977
  421MOL0     O56703   3.780   5.611   4.341 -0.4414  0.2752  0.6131
  421MOL0     C56704   3.863   5.526   4.404  0.3378  0.1602 -0.7328
  421MOL0     C56705   3.869   5.553   4.544  0.6599 -0.2481 -0.1107
  421MOL0     C56706   3.974   5.498   4.619  0.2823  0.2342 -0.9266
  421MOL0     C56707   4.073   5.414   4.562 -0.3380  0.0584 -0.7019
  421MOL0     O56708   4.161   5.358   4.650  0.8135  0.4289  0.4769
  421MOL0     C56709   4.232   5.231   4.627  1.2048 -0.1064 -0.2499
  421MOL0     C56710   4.337   5.223   4.736 -0.5880 -0.9255  0.2524
  421MOL0     C56711   4.422   5.358   4.756 -0.1134  0.0833 -0.4359
  421MOL0     C56712   4.533   5.343   4.864 -0.3559  0.5386  0.1935
  421MOL0     C56713   4.646   5.447   4.845 -0.4512 -0.0659  0.8819
  421MOL0     C56714   4.772   5.392   4.906 -0.0940 -0.2374  0.5296
  421MOL0     C56715   4.890   5.492   4.889  0.1670 -0.3469  0.1394
  421MOL0     C56716   4.971   5.497   4.761 -0.6746 -0.9025 -0.5384
  421MOL0     N56717   5.096   5.578   4.773 -0.0214  0.3500  0.0596
  421MOL0     C56718   5.105   5.718   4.777  0.7045  0.1361 -0.3471
  421MOL0     C56719   5.238   5.744   4.781 -0.4797  1.3131  0.0916
  421MOL0     C56720   5.301   5.866   4.804  0.2177 -0.3448 -0.7215
  421MOL0     C56721   5.403   5.896   4.694  0.0947  0.2772  0.0593
  421MOL0     C56722   5.344   5.889   4.561 -0.5898  0.1073 -0.3536
  421MOL0     C56723   5.443   5.957   4.461  0.6758  0.0664 -0.6057
  421MOL0     O56724   5.461   6.092   4.498 -0.1142  0.6885  0.0883
  421MOL0     C56725   5.357   6.174   4.462 -0.6111  0.0630 -0.1701
  421MOL0     C56726   5.381   6.308   4.502  1.1063 -0.3716 -0.3998
  421MOL0     C56727   5.280   6.409   4.483 -0.2674  0.5561  0.1291
  421MOL0     C56728   5.313   6.544   4.540 -0.0940  0.3766  0.7980
  421MOL0     C56729   5.155   6.373   4.420  0.7440 -1.4280 -1.1724
  421MOL0     C56730   5.050   6.474   4.388 -0.0494  0.1462 -0.3334
  421MOL0     O56731   4.971   6.448   4.278  0.2025 -0.6405  0.2024
  421MOL0     C56732   4.880   6.540   4.219 -0.0316  0.8542 -0.6642
  421MOL0     C56733   4.913   6.678   4.208 -0.2708  0.9423  0.7614
  421MOL0     C56734   4.833   6.759   4.129  1.2458 -0.4391 -0.1071
  421MOL0     C56735   4.718   6.704   4.059 -0.1347  0.5408 -0.0324
  421MOL0     O56736   4.633   6.768   3.974  0.3369 -0.9427 -0.5797
  421MOL0     C56737   4.616   6.909   4.004  0.0366 -0.6989 -1.2776
  421MOL0     C56738   4.476   6.953   3.966  0.5094  0.1497  0.3992
  421MOL0     C56739   4.453   7.104   4.012  0.4616  0.0925 -0.0240
  421MOL0     C56740   4.324   7.164   3.961  0.1946  0.2044  0.5238
  421MOL0     C56741   4.308   7.307   4.017  0.2905  0.5795 -0.3257
  421MOL0     C56742   4.182   7.370   3.960 -0.4513  0.5245  1.0437
  421MOL0     C56743   4.184   7.379   3.805  0.4494  1.0041  0.9726
  421MOL0     C56744   4.043   7.436   3.756  0.0000  0.2584 -0.1626
  421MOL0    Cl56745   4.052   7.421   3.583 -0.0629 -0.1463 -0.1745
  421MOL0     C56746   4.698   6.566   4.065 -0.1635  0.2868  0.2552
  421MOL0     C56747   4.778   6.486   4.146 -0.0951  0.1340 -0.1142
  421MOL0     O56748   5.028   6.561   4.472 -0.5461 -0.3733 -0.0944
  421MOL0     C56749   5.143   6.244   4.375  1.3233 -0.7079  0.3792
  421MOL0     C56750   5.236   6.148   4.401 -0.3809  0.3426  0.0372
  421MOL0     N56751   5.306   5.614   4.791 -0.1710  0.0596 -0.3698
  421MOL0     N56752   5.217   5.524   4.791 -0.1947  0.0823 -0.1998
  421MOL0     C56753   4.071   5.390   4.433  0.4103  0.1485  1.3807
  421MOL0     C56754   3.970   5.449   4.350 -0.2598 -0.0176  0.4226
  421MOL0     C56755   3.676   5.704   4.136 -0.1361  0.4764 -1.3158
  421MOL0     C56756   3.613   5.704   4.010  0.1817 -0.3883  1.3698
  421MOL0     C56757   3.578   5.823   3.936 -0.5257  0.3713 -0.0184
  421MOL0     C56758   3.612   5.947   3.994 -0.0139  1.2306 -0.4773
  421MOL0     O56759   3.595   6.065   3.930  0.3183  0.0036  0.1361
  421MOL0     C56760   3.530   6.080   3.801  0.3967 -0.8320  0.6229
  421MOL0     C56761   3.378   6.050   3.801  1.0521  0.1525 -1.1761
  421MOL0     C56762   3.277   6.130   3.885 -0.0429 -0.2150 -0.4736
  421MOL0     C56763   3.275   6.278   3.858 -0.3195 -0.8001  0.8990
  421MOL0     C56764   3.262   6.312   3.718 -0.5260 -0.2444  0.0159
  421MOL0     C56765   3.244   6.322   3.597  0.2110 -0.1183  0.3228
  421MOL0     C56766   3.655   5.951   4.123 -0.5937 -0.3159  0.0502
  421MOL0     C56767   3.694   5.837   4.195  0.2891 -0.4466 -0.0709
  421MOL0     H56768   3.796   5.618   4.591 -0.1357  0.5092 -2.2660
  421MOL0     H56769   3.977   5.500   4.727  0.2299 -0.6252 -0.9033
  421MOL0     H56770   4.152   5.158   4.642 -0.3603  1.9653  2.4177
  421MOL0     H56771   4.280   5.220   4.529  1.0354 -2.2613 -0.1363
  421MOL0     H56772   4.286   5.205   4.831 -1.7347  3.0472  0.5693
  421MOL0     H56773   4.407   5.141   4.714  0.6442  0.5199 -1.5109
  421MOL0     H56774   4.479   5.360   4.664 -0.9486  0.3811 -0.9568
  421MOL0     H56775   4.350   5.440   4.767  0.6714  0.9520 -1.6222
  421MOL0     H56776   4.490   5.350   4.964  1.5867 -2.4718  1.3901
  421MOL0     H56777   4.580   5.245   4.847  1.7165  1.5166 -0.0679
  421MOL0     H56778   4.675   5.470   4.742  0.0737 -0.3712  0.9547
  421MOL0     H56779   4.612   5.537   4.896  1.7923 -0.2379  2.8857
  421MOL0     H56780   4.753   5.373   5.012 -0.1881 -0.1154  0.5350
  421MOL0     H56781   4.798   5.298   4.857 -3.5023 -0.9781 -0.1075
  421MOL0     H56782   4.856   5.594   4.907  0.4984 -0.7578  3.6970
  421MOL0     H56783   4.962   5.488   4.971  0.0761  2.4459  0.4724
  421MOL0     H56784   4.914   5.536   4.676  0.0156 -1.7385 -1.4186
  421MOL0     H56785   4.999   5.392   4.744  1.1337 -0.7921  1.3156
  421MOL0     H56786   5.029   5.794   4.797  0.1331 -1.2008  3.2672
  421MOL0     H56787   5.227   5.946   4.797  0.8177  0.2096 -0.7356
  421MOL0     H56788   5.360   5.860   4.896  1.7751 -0.3660 -1.6893
  421MOL0     H56789   5.481   5.821   4.704  2.1115  2.2862  0.0930
  421MOL0     H56790   5.434   5.997   4.723  0.4185 -0.2322  1.5389
  421MOL0     H56791   5.252   5.946   4.559  0.6562  2.2084 -0.4544
  421MOL0     H56792   5.328   5.787   4.523 -1.3715  0.6408 -1.4850
  421MOL0     H56793   5.398   5.940   4.363 -1.5262  1.0152  0.1775
  421MOL0     H56794   5.542   5.911   4.450  0.6225 -0.9346  2.2927
  421MOL0     H56795   5.469   6.338   4.557 -0.0043  1.3177  0.5358
  421MOL0     H56796   5.420   6.560   4.553  0.3209 -2.3491  1.1436
  421MOL0     H56797   5.273   6.607   4.459  1.8011 -0.8784 -1.2033
  421MOL0     H56798   5.261   6.553   4.636 -0.7661  0.5749  0.4210
  421MOL0     H56799   4.994   6.715   4.269  1.0675 -1.3440  0.5053
  421MOL0     H56800   4.861   6.863   4.117  0.8107 -0.3998 -0.8403
  421MOL0     H56801   4.630   6.932   4.110  2.0955 -2.2332 -1.1530
  421MOL0     H56802   4.683   6.965   3.938 -0.4121  2.4847  0.7282
  421MOL0     H56803   4.461   6.947   3.858 -2.0725  2.5562  0.4898
  421MOL0     H56804   4.398   6.894   4.016 -0.7461  2.1454  0.8940
  421MOL0     H56805   4.535   7.165   3.972  1.6052 -1.1990  0.2880
  421MOL0     H56806   4.451   7.109   4.121 -2.8477  2.5483 -0.0410
  421MOL0     H56807   4.335   7.160   3.853 -0.0600  0.5843  0.4827
  421MOL0     H56808   4.231   7.109   3.979  0.0200 -1.7462 -4.7612
  421MOL0     H56809   4.398   7.367   3.999  0.5339 -0.0446 -1.2374
  421MOL0     H56810   4.287   7.292   4.123 -1.1356 -1.5032 -0.8559
  421MOL0     H56811   4.095   7.323   4.007 -2.1914  2.4241 -0.1224
  421MOL0     H56812   4.178   7.474   3.994 -3.8067  0.8676 -0.0427
  421MOL0     H56813   4.191   7.281   3.759 -1.4456  1.4677 -0.4246
  421MOL0     H56814   4.266   7.447   3.777  1.1557 -0.1957  0.0407
  421MOL0     H56815   4.035   7.539   3.793  2.1055  0.5657 -0.4308
  421MOL0     H56816   3.961   7.370   3.786  0.3724 -0.0065  0.2899
  421MOL0     H56817   4.624   6.514   4.005  0.3993 -1.6563  1.1552
  421MOL0     H56818   4.753   6.380   4.147 -2.6441  0.6774  0.6791
  421MOL0     H56819   5.040   6.229   4.345  0.2563  1.5488  2.5741
  421MOL0     H56820   5.206   6.048   4.370  0.9174 -0.1212  0.2046
  421MOL0     H56821   4.138   5.324   4.379  1.1221  0.9023  1.3339
  421MOL0     H56822   3.982   5.443   4.242  0.2721  0.3973  0.4548
  421MOL0     H56823   3.617   5.611   3.955 -3.4146  0.2788 -0.3848
  421MOL0     H56824   3.552   5.826   3.831  0.8684  1.5510 -0.3648
  421MOL0     H56825   3.545   6.187   3.781  0.1791 -1.1891 -1.6890
  421MOL0     H56826   3.579   6.024   3.721 -4.1953 -0.7392 -2.7074
  421MOL0     H56827   3.361   5.951   3.843  1.2798  0.5190 -0.1986
  421MOL0     H56828   3.334   6.057   3.701 -1.8489 -0.2666 -0.0088
  421MOL0     H56829   3.293   6.124   3.993 -1.3689 -0.3786 -0.2725
  421MOL0     H56830   3.179   6.092   3.853 -1.2865  2.6170 -0.3408
  421MOL0     H56831   3.358   6.329   3.908  1.8003  0.7960 -3.7506
  421MOL0     H56832   3.194   6.325   3.914  0.2086 -1.4910  2.3286
  421MOL0     H56833   3.220   6.352   3.497  0.5511  0.9489  0.5487
  421MOL0     H56834   3.673   6.042   4.179 -0.6756  0.3273 -0.9392
  421MOL0     H56835   3.722   5.838   4.300 -2.9160 -1.2601  0.9146
  422MOL0     O56836   1.333   9.793   2.776 -0.8779  0.9073 -0.0504
  422MOL0     C56837   1.384   9.880   2.706 -0.2696 -0.1342 -0.4121
  422MOL0     O56838   1.418  10.010   2.746 -0.0123 -0.1450  0.0367
  422MOL0     C56839   1.416  10.021   2.885  0.7254  0.1384  1.1603
  422MOL0     C56840   1.333  10.116   2.950  0.4315 -0.1989  0.0442
  422MOL0     C56841   1.343  10.138   3.086 -0.1216  0.5395 -0.9584
  422MOL0     C56842   1.427  10.061   3.160 -0.5095  0.3863 -0.9693
  422MOL0     O56843   1.438  10.083   3.296 -0.3239 -0.1815 -0.3577
  422MOL0     C56844   1.445   9.973   3.384 -0.5361 -0.0758  1.0140
  422MOL0     C56845   1.368   9.999   3.508 -0.5636  0.1339 -0.0645
  422MOL0     C56846   1.326   9.873   3.586  0.4338 -0.1317  0.3617
  422MOL0     C56847   1.236   9.906   3.702  0.1224  0.1312  0.0213
  422MOL0     C56848   1.317   9.984   3.813  0.4865 -0.4297  0.9593
  422MOL0     C56849   1.248  10.016   3.946 -0.3068  0.2832  0.3498
  422MOL0     C56850   1.209   9.894   4.043  0.5121 -0.2301  0.4929
  422MOL0     C56851   1.096   9.914   4.148 -0.2195  0.0085 -0.7411
  422MOL0     N56852   0.975   9.947   4.075  0.0165 -0.5221 -0.8975
  422MOL0     C56853   0.917   9.876   3.977 -0.4449  0.7718 -0.9442
  422MOL0     C56854   0.824   9.967   3.926 -0.3498  0.2011  0.9973
  422MOL0     C56855   0.731   9.940   3.807  0.4435  0.5578  0.1746
  422MOL0     C56856   0.767  10.014   3.681 -0.2626  0.1746  0.8249
  422MOL0     C56857   0.760  10.178   3.693  0.0739 -0.0014 -0.2098
  422MOL0     C56858   0.799  10.240   3.561 -0.2396  0.4167  0.2441
  422MOL0     O56859   0.730  10.183   3.451 -0.1105 -0.4302 -0.2652
  422MOL0     C56860   0.747  10.244   3.329 -0.0550 -0.1732 -0.0235
  422MOL0     C56861   0.869  10.255   3.267 -0.8138  0.4715  0.3900
  422MOL0     C56862   0.885  10.292   3.129  0.0694 -0.1249 -0.4315
  422MOL0     C56863   1.027  10.334   3.088  0.4665  0.0179  0.7690
  422MOL0     C56864   0.773  10.334   3.060  0.7874 -0.8591 -1.1319
  422MOL0     C56865   0.780  10.381   2.924 -1.3813  1.0583  0.2574
  422MOL0     O56866   0.677  10.448   2.864 -0.0159  0.5633  0.5317
  422MOL0     C56867   0.707  10.521   2.761 -0.9085 -0.9899 -0.7097
  422MOL0     C56868   0.748  10.658   2.771 -0.5457 -0.3415 -0.4798
  422MOL0     C56869   0.767  10.730   2.656 -0.6060 -0.7414  0.4409
  422MOL0     C56870   0.740  10.670   2.529  0.2653 -0.7976  0.7493
  422MOL0     O56871   0.734  10.749   2.418  0.4090  0.5136  1.1853
  422MOL0     C56872   0.833  10.741   2.317  0.2344 -0.6293 -1.0207
  422MOL0     C56873   0.765  10.741   2.174  0.0603 -0.3450 -0.6889
  422MOL0     C56874   0.721  10.882   2.142  0.6319 -0.9384  0.2374
  422MOL0     C56875   0.687  10.892   1.992  0.1636  0.0616  0.7080
  422MOL0     C56876   0.656  11.039   1.942 -0.7328  0.1418  0.7577
  422MOL0     C56877   0.635  11.055   1.788 -0.1479  0.1742 -0.9415
  422MOL0     C56878   0.488  11.024   1.749  0.3137 -0.2095 -0.2657
  422MOL0     C56879   0.386  11.133   1.804 -0.1982  0.3486  0.2901
  422MOL0    Cl56880   0.223  11.080   1.784 -0.0353  0.5047  0.1948
  422MOL0     C56881   0.722  10.536   2.511 -0.7901  1.2228  0.2720
  422MOL0     C56882   0.710  10.460   2.632 -0.5821  0.1316  0.6387
  422MOL0     O56883   0.874  10.340   2.856  0.1059  0.1088  0.1497
  422MOL0     C56884   0.647  10.325   3.116  0.0869 -0.6162  0.5197
  422MOL0     C56885   0.633  10.281   3.248 -1.3069 -0.4782  0.2846
  422MOL0     N56886   0.833  10.082   3.990 -0.1298 -0.5848 -0.4886
  422MOL0     N56887   0.915  10.065   4.085  0.0106 -0.2251 -0.3910
  422MOL0     C56888   1.511   9.966   3.099 -0.8938 -0.4393  0.9415
  422MOL0     C56889   1.506   9.948   2.959 -0.5632  0.5653  0.2831
  422MOL0     C56890   1.424   9.859   2.563  0.0793  0.6466  0.4038
  422MOL0     C56891   1.394   9.733   2.502 -1.1959  0.1582 -0.1576
  422MOL0     C56892   1.425   9.714   2.368  0.0217 -0.3085 -0.4552
  422MOL0     C56893   1.482   9.815   2.281 -0.0834 -0.6682 -0.3904
  422MOL0     O56894   1.496   9.777   2.151  0.5378 -0.1341  0.6429
  422MOL0     C56895   1.477   9.876   2.052  0.3509 -0.1310 -0.4721
  422MOL0     C56896   1.434   9.806   1.925 -0.9609 -0.0267 -0.7385
  422MOL0     C56897   1.310   9.724   1.946  0.4413  0.0989  0.0738
  422MOL0     C56898   1.224   9.724   1.822 -0.0844 -0.4102 -0.2054
  422MOL0     C56899   1.109   9.641   1.847  0.6729 -0.7353  0.2224
  422MOL0     C56900   1.008   9.571   1.859  0.1900  0.3377  0.1925
  422MOL0     C56901   1.515   9.935   2.343  0.9438  0.0183  0.2779
  422MOL0     C56902   1.489   9.962   2.479 -0.1190  0.3683 -0.2999
  422MOL0     H56903   1.268  10.176   2.887  0.2328 -0.1569  0.2917
  422MOL0     H56904   1.295  10.225   3.130 -1.2688 -0.6703  0.2367
  422MOL0     H56905   1.399   9.884   3.341 -0.9652  1.0018 -0.8781
  422MOL0     H56906   1.550   9.948   3.405  0.7204  2.0176 -1.9687
  422MOL0     H56907   1.433  10.066   3.566  2.2718 -2.0332 -0.5284
  422MOL0     H56908   1.275  10.048   3.475  0.1647  0.5876 -1.5850
  422MOL0     H56909   1.264   9.815   3.517 -2.9252  2.1817  1.2020
  422MOL0     H56910   1.403   9.813   3.636 -1.4044 -0.8461  2.4907
  422MOL0     H56911   1.150   9.968   3.674 -3.5112 -3.8271  1.2501
  422MOL0     H56912   1.196   9.813   3.745  0.9699 -1.2058 -1.9281
  422MOL0     H56913   1.404   9.932   3.853  2.3533  2.3443  0.8061
  422MOL0     H56914   1.346  10.085   3.781 -1.5062  0.5663  2.1598
  422MOL0     H56915   1.304  10.088   4.006 -0.4186  0.7611 -0.1129
  422MOL0     H56916   1.157  10.070   3.919 -2.8503 -3.4124  0.8956
  422MOL0     H56917   1.197   9.798   3.993  1.9084  0.6038 -1.6044
  422MOL0     H56918   1.305   9.890   4.097  1.0904  1.2089 -0.3652
  422MOL0     H56919   1.123  10.002   4.207  1.3043  0.0836 -1.5015
  422MOL0     H56920   1.081   9.828   4.215  1.9301  0.4945  0.4702
  422MOL0     H56921   0.927   9.771   3.952 -3.1755 -0.0126  0.8278
  422MOL0     H56922   0.721   9.833   3.788 -0.7456  1.1095 -2.8431
  422MOL0     H56923   0.632   9.977   3.836  0.7180  1.1691  0.3664
  422MOL0     H56924   0.693   9.982   3.607  1.3687 -1.8386 -0.0403
  422MOL0     H56925   0.867   9.983   3.651 -1.3902 -0.6376 -2.5166
  422MOL0     H56926   0.817  10.217   3.778 -0.8818  1.5566 -0.2346
  422MOL0     H56927   0.662  10.207   3.732  0.3207 -0.2748  0.6449
  422MOL0     H56928   0.906  10.225   3.542 -0.4375  1.1171 -1.6320
  422MOL0     H56929   0.780  10.347   3.569  0.7686  0.5077  1.9613
  422MOL0     H56930   0.961  10.241   3.323 -0.4101  2.7748  0.4260
  422MOL0     H56931   1.018  10.422   3.024  1.0393 -0.3139  0.2265
  422MOL0     H56932   1.090  10.360   3.173 -0.2208  2.7572  0.5299
  422MOL0     H56933   1.074  10.268   3.015 -0.3747  1.3482 -1.0578
  422MOL0     H56934   0.744  10.717   2.862 -1.9141  1.2900 -1.5330
  422MOL0     H56935   0.796  10.834   2.656  0.5458 -1.0374 -0.6699
  422MOL0     H56936   0.901  10.824   2.335 -2.3770  1.5568 -0.4799
  422MOL0     H56937   0.884  10.646   2.330  0.9111 -0.0134  1.2115
  422MOL0     H56938   0.824  10.695   2.095  1.8534  2.4588 -1.1350
  422MOL0     H56939   0.675  10.680   2.183  1.5592 -2.6628 -0.4803
  422MOL0     H56940   0.796  10.954   2.174 -1.5254  0.9326  1.3428
  422MOL0     H56941   0.626  10.896   2.195  0.9445  0.7270  0.4109
  422MOL0     H56942   0.763  10.840   1.933  1.0925  1.6631  0.4485
  422MOL0     H56943   0.599  10.834   1.962 -0.0963  0.5303  0.5697
  422MOL0     H56944   0.745  11.102   1.950 -1.2837  1.3846 -1.7674
  422MOL0     H56945   0.573  11.084   1.998  0.7333  2.3642  1.2831
  422MOL0     H56946   0.669  11.156   1.763  1.0929 -0.4882 -2.0097
  422MOL0     H56947   0.698  10.987   1.730 -1.2041 -0.0496 -1.8774
  422MOL0     H56948   0.454  10.925   1.782 -0.7746  0.6628  1.3722
  422MOL0     H56949   0.482  11.024   1.639 -0.4589  2.1207 -0.2816
  422MOL0     H56950   0.395  11.235   1.766 -1.4378 -0.8910 -3.7330
  422MOL0     H56951   0.402  11.144   1.912 -1.3960 -0.1898  0.5411
  422MOL0     H56952   0.723  10.491   2.412 -0.4614  0.7316  0.4997
  422MOL0     H56953   0.703  10.352   2.625  2.2325 -0.2733  2.5969
  422MOL0     H56954   0.564  10.364   3.058  1.6473  1.5768 -0.3666
  422MOL0     H56955   0.533  10.266   3.288 -0.8716 -1.9123  0.9012
  422MOL0     H56956   1.595   9.925   3.155  1.4134  0.6429 -1.4772
  422MOL0     H56957   1.568   9.871   2.915  2.8244  3.1222  0.2101
  422MOL0     H56958   1.333   9.663   2.558 -2.9590  1.2713 -0.6039
  422MOL0     H56959   1.393   9.616   2.333  0.7687 -1.6800  2.4531
  422MOL0     H56960   1.398   9.945   2.084 -0.9088 -0.7361 -2.1041
  422MOL0     H56961   1.572   9.927   2.036  0.7196 -0.3805  0.7955
  422MOL0     H56962   1.515   9.738   1.896 -0.9043 -3.1587  5.1943
  422MOL0     H56963   1.413   9.874   1.843 -2.4736 -1.4622 -1.6107
  422MOL0     H56964   1.246   9.753   2.030  0.8199  0.0667  0.3793
  422MOL0     H56965   1.343   9.620   1.961  0.6750  0.1097 -0.3481
  422MOL0     H56966   1.288   9.682   1.745 -2.4623 -1.3243 -1.8105
  422MOL0     H56967   1.192   9.824   1.791 -1.1431 -0.6118  0.1866
  422MOL0     H56968   0.917   9.518   1.872 -0.0891  0.2801 -1.6822
  422MOL0     H56969   1.551  10.018   2.283 -3.7767  1.4536 -0.9665
  422MOL0     H56970   1.514  10.062   2.514  1.2129 -0.5541  1.5703
  423MOL0     O56971   0.409   0.951   0.801 -0.2471 -0.2910  0.2177
  423MOL0     C56972   0.445   1.062   0.782 -0.3386 -0.7985 -0.5612
  423MOL0     O56973   0.492   1.148   0.877  0.2506  0.2246  0.0642
  423MOL0     C56974   0.515   1.097   1.004 -0.2695  0.2451 -0.0599
  423MOL0     C56975   0.646   1.068   1.044  0.8201 -0.3181 -0.4240
  423MOL0     C56976   0.662   1.027   1.174  0.3138  0.4647 -0.2971
  423MOL0     C56977   0.557   1.005   1.261 -0.5238  0.3888 -1.1240
  423MOL0     O56978   0.597   0.970   1.387 -0.0897 -0.2679  0.0224
  423MOL0     C56979   0.498   0.954   1.493 -0.5061 -0.2147  0.0576
  423MOL0     C56980   0.537   0.845   1.580  0.1571  0.8405  0.2269
  423MOL0     C56981   0.541   0.712   1.493  0.4029 -0.2670 -0.4041
  423MOL0     C56982   0.555   0.594   1.585  0.4366  0.1765 -0.4838
  423MOL0     C56983   0.489   0.476   1.524 -0.0381  0.0401  0.8011
  423MOL0     C56984   0.501   0.336   1.598 -1.1440 -0.0230 -0.3387
  423MOL0     C56985   0.644   0.299   1.658  1.9900  0.4217  0.1407
  423MOL0     C56986   0.741   0.247   1.553  0.6533 -0.7636  0.2969
  423MOL0     N56987   0.695   0.131   1.488 -0.2298 -0.0187  0.3033
  423MOL0     C56988   0.711   0.010   1.535  0.8390  0.9916 -0.2152
  423MOL0     C56989   0.663  -0.074   1.446  0.3524  0.3694  0.0113
  423MOL0     C56990   0.657  -0.228   1.450 -0.6503  0.0312  1.0396
  423MOL0     C56991   0.764  -0.286   1.355 -0.9288 -0.0053  0.2009
  423MOL0     C56992   0.740  -0.410   1.265  1.2209 -0.1162  0.1629
  423MOL0     C56993   0.699  -0.521   1.353 -1.1915 -0.0384 -0.5447
  423MOL0     O56994   0.810  -0.541   1.453  0.1401 -0.3888  0.6075
  423MOL0     C56995   0.799  -0.649   1.533 -0.7555  1.2519  0.2336
  423MOL0     C56996   0.916  -0.683   1.600 -0.5532  0.3313  0.4275
  423MOL0     C56997   0.917  -0.774   1.704 -0.1212 -0.3760  0.8566
  423MOL0     C56998   1.050  -0.809   1.777 -0.7036  0.0326 -0.8144
  423MOL0     C56999   0.789  -0.842   1.738 -0.3789 -0.2895 -0.3829
  423MOL0     C57000   0.785  -0.930   1.864 -0.3643 -0.3268 -0.4611
  423MOL0     O57001   0.658  -0.954   1.904  0.0966 -0.3374  0.4370
  423MOL0     C57002   0.626  -1.034   2.013  0.4228  0.5503  0.0397
  423MOL0     C57003   0.506  -1.007   2.080 -1.1724 -0.0897 -0.2222
  423MOL0     C57004   0.480  -1.073   2.204  0.7642 -0.8602 -0.4244
  423MOL0     C57005   0.563  -1.171   2.245 -0.5534 -0.9156 -0.1254
  423MOL0     O57006   0.518  -1.233   2.357 -0.4728 -0.2249  0.0218
  423MOL0     C57007   0.591  -1.326   2.441 -0.8561 -0.3433  0.3492
  423MOL0     C57008   0.501  -1.329   2.570  1.3413 -0.5151 -0.4526
  423MOL0     C57009   0.574  -1.407   2.683  0.4938 -0.1288  0.9375
  423MOL0     C57010   0.485  -1.425   2.811  0.4268 -0.7443 -0.5590
  423MOL0     C57011   0.539  -1.512   2.914 -0.2638  0.0860 -0.7232
  423MOL0     C57012   0.459  -1.518   3.044  0.8073 -0.0691 -0.5029
  423MOL0     C57013   0.532  -1.606   3.146  0.5791 -0.4517 -0.2711
  423MOL0     C57014   0.492  -1.581   3.293 -0.0747 -0.3041  0.1700
  423MOL0    Cl57015   0.554  -1.696   3.403 -0.0302 -0.1767  0.3751
  423MOL0     C57016   0.676  -1.209   2.172 -0.4653  0.4173 -0.4402
  423MOL0     C57017   0.719  -1.133   2.061  0.1736  0.5843  0.0371
  423MOL0     O57018   0.886  -0.979   1.907  0.2688 -0.4699 -0.4030
  423MOL0     C57019   0.674  -0.809   1.671 -0.5353  1.0571  0.5308
  423MOL0     C57020   0.679  -0.718   1.562 -0.0412 -0.3119 -0.0959
  423MOL0     N57021   0.621   0.004   1.335 -0.1660  0.0776 -0.0999
  423MOL0     N57022   0.640   0.131   1.362  0.0345 -0.2384 -0.0727
  423MOL0     C57023   0.426   1.023   1.214 -0.2486 -0.4789 -0.2978
  423MOL0     C57024   0.403   1.062   1.086  0.0046  1.1374 -0.2286
  423MOL0     C57025   0.430   1.106   0.644  0.9375 -0.5724 -0.6702
  423MOL0     C57026   0.483   1.231   0.605  0.6428 -0.6719  0.1319
  423MOL0     C57027   0.463   1.277   0.471 -0.2352 -0.4273 -0.0314
  423MOL0     C57028   0.401   1.196   0.372  0.2834  0.8614 -0.0992
  423MOL0     O57029   0.378   1.258   0.245 -0.6208 -0.8367  0.1038
  423MOL0     C57030   0.293   1.185   0.160  0.7347  0.5057 -0.0517
  423MOL0     C57031   0.284   1.256   0.027 -0.6284  0.4016  0.4418
  423MOL0     C57032   0.424   1.257  -0.059 -0.4100 -0.3248 -0.2525
  423MOL0     C57033   0.454   1.395  -0.122 -0.7371 -0.2381 -0.8407
  423MOL0     C57034   0.498   1.484  -0.013 -0.4821 -0.0315 -0.1159
  423MOL0     C57035   0.562   1.525   0.083  0.2269 -0.6738 -0.0553
  423MOL0     C57036   0.361   1.065   0.411  0.4913 -0.3675 -0.8673
  423MOL0     C57037   0.366   1.023   0.549  0.3659 -0.1671 -0.7120
  423MOL0     H57038   0.732   1.104   0.989  1.9780 -1.7603  0.3653
  423MOL0     H57039   0.765   1.002   1.199 -0.5517 -2.4881  0.8132
  423MOL0     H57040   0.494   1.044   1.554  0.6124 -2.3374  3.5667
  423MOL0     H57041   0.403   0.917   1.454 -0.3333  0.3061 -0.8891
  423MOL0     H57042   0.633   0.875   1.625  0.7899  0.2537 -0.6880
  423MOL0     H57043   0.461   0.833   1.658  1.3258 -0.2751  1.2592
  423MOL0     H57044   0.451   0.697   1.433 -0.0720 -1.8062  0.6312
  423MOL0     H57045   0.608   0.713   1.406  0.2419  4.2109 -0.7167
  423MOL0     H57046   0.658   0.566   1.608 -0.8323 -5.3203 -0.1487
  423MOL0     H57047   0.509   0.624   1.680  0.3318  2.3110 -1.1547
  423MOL0     H57048   0.382   0.500   1.521 -0.1701 -0.6348 -0.4964
  423MOL0     H57049   0.534   0.478   1.424  0.7035  2.1622  1.1351
  423MOL0     H57050   0.431   0.328   1.681 -2.4237 -0.5755 -1.4468
  423MOL0     H57051   0.472   0.269   1.517 -1.0833  0.3565 -0.6806
  423MOL0     H57052   0.678   0.387   1.714 -2.6214  1.0073  2.4213
  423MOL0     H57053   0.639   0.220   1.733  2.1295 -0.0908 -0.3810
  423MOL0     H57054   0.840   0.242   1.599  0.9581 -0.4128 -0.3053
  423MOL0     H57055   0.751   0.321   1.473 -0.4592 -0.9861 -0.0629
  423MOL0     H57056   0.755  -0.013   1.631  2.4118  0.0094 -1.1256
  423MOL0     H57057   0.676  -0.270   1.549 -0.4252 -0.3127  0.8521
  423MOL0     H57058   0.561  -0.265   1.414  0.7969 -1.6279 -1.4209
  423MOL0     H57059   0.854  -0.305   1.413 -1.0989  0.3546  0.5879
  423MOL0     H57060   0.788  -0.209   1.282  1.8491 -2.6607 -1.9739
  423MOL0     H57061   0.833  -0.435   1.214  0.8181 -2.3366  0.4088
  423MOL0     H57062   0.655  -0.387   1.199  0.4385 -1.0630  0.8058
  423MOL0     H57063   0.687  -0.617   1.302 -0.7431 -1.1798  1.3830
  423MOL0     H57064   0.607  -0.503   1.410 -1.0208  0.4981 -0.4321
  423MOL0     H57065   1.005  -0.632   1.565 -1.2678  0.7781 -0.8169
  423MOL0     H57066   1.037  -0.783   1.883  1.1936  2.2349 -1.0399
  423MOL0     H57067   1.089  -0.911   1.766  1.3877  0.6660  0.1425
  423MOL0     H57068   1.137  -0.747   1.753 -0.8334  0.8182  0.6281
  423MOL0     H57069   0.451  -0.925   2.036 -2.2817  0.4855  2.0909
  423MOL0     H57070   0.396  -1.045   2.267  1.2633 -1.0571  0.3422
  423MOL0     H57071   0.607  -1.427   2.402  0.6019  0.4595 -1.2514
  423MOL0     H57072   0.689  -1.281   2.459 -0.6021  0.0321 -1.7253
  423MOL0     H57073   0.499  -1.221   2.591  0.5982 -0.1972 -2.0405
  423MOL0     H57074   0.399  -1.365   2.556  0.2434  0.5765  3.3861
  423MOL0     H57075   0.665  -1.363   2.724  0.8657 -0.2818  0.2937
  423MOL0     H57076   0.608  -1.504   2.645  1.8727  0.4091  0.7602
  423MOL0     H57077   0.475  -1.333   2.870 -1.6342 -3.4635  3.8845
  423MOL0     H57078   0.383  -1.454   2.785 -0.7753  3.0809 -0.7636
  423MOL0     H57079   0.633  -1.467   2.946  0.2342 -2.1963  1.1996
  423MOL0     H57080   0.540  -1.617   2.883 -1.0300  0.3558 -1.7627
  423MOL0     H57081   0.445  -1.414   3.076 -0.8199  0.3491 -2.3774
  423MOL0     H57082   0.363  -1.569   3.035  1.3716 -0.8997 -2.1927
  423MOL0     H57083   0.638  -1.580   3.132 -0.3486  3.5190 -1.0920
  423MOL0     H57084   0.511  -1.712   3.132 -2.5386  0.1288 -0.6683
  423MOL0     H57085   0.382  -1.589   3.295 -0.1339 -0.2015 -1.6026
  423MOL0     H57086   0.515  -1.478   3.323  1.3217 -0.4766 -0.2872
  423MOL0     H57087   0.738  -1.294   2.199 -1.7174 -1.4990 -3.0819
  423MOL0     H57088   0.810  -1.168   2.013 -0.6003 -1.6799  0.0780
  423MOL0     H57089   0.581  -0.854   1.704  1.2471 -2.6783  0.9576
  423MOL0     H57090   0.591  -0.687   1.506  2.2400  3.3535 -2.0605
  423MOL0     H57091   0.338   1.002   1.274  0.6979 -4.0243  0.0859
  423MOL0     H57092   0.299   1.062   1.057 -0.2380  0.9512  0.6415
  423MOL0     H57093   0.538   1.290   0.679 -0.8730  1.2538 -0.1982
  423MOL0     H57094   0.496   1.378   0.450  0.1888  0.2618  3.3616
  423MOL0     H57095   0.324   1.081   0.140 -0.9192  0.4023 -2.6301
  423MOL0     H57096   0.197   1.174   0.211  1.0873 -1.2054  0.3161
  423MOL0     H57097   0.246   1.355   0.053 -1.9532 -1.2216  5.9339
  423MOL0     H57098   0.209   1.202  -0.032  0.4360 -1.6402  0.8376
  423MOL0     H57099   0.408   1.199  -0.150 -1.2941  0.4925 -0.6443
  423MOL0     H57100   0.506   1.211  -0.003 -0.0179  0.5528 -0.0862
  423MOL0     H57101   0.367   1.430  -0.178  0.6375 -2.8028 -5.0716
  423MOL0     H57102   0.526   1.385  -0.205  0.3501 -0.5049  0.1021
  423MOL0     H57103   0.608   1.562   0.172  1.4322 -3.8050  0.7654
  423MOL0     H57104   0.308   0.990   0.352 -2.1761  0.6120  0.1200
  423MOL0     H57105   0.318   0.927   0.564 -1.0866  0.4697 -1.1213
  424MOL0     O57106   1.858   0.226   5.870 -0.6018 -1.4256  0.6624
  424MOL0     C57107   1.893   0.118   5.903  0.3718 -0.2831 -0.3548
  424MOL0     O57108   1.840  -0.002   5.853 -0.2522  0.2677 -0.3501
  424MOL0     C57109   1.737   0.014   5.765  0.0843  0.5087  0.5216
  424MOL0     C57110   1.616   0.071   5.801  0.5950 -0.0063 -0.5333
  424MOL0     C57111   1.507   0.081   5.710 -0.8778 -0.8252  1.1768
  424MOL0     C57112   1.524   0.040   5.572  0.6510  0.8966 -0.0117
  424MOL0     O57113   1.423   0.053   5.480 -0.6831  1.0324 -0.6361
  424MOL0     C57114   1.343  -0.068   5.484 -0.3683 -0.0643 -0.3919
  424MOL0     C57115   1.195  -0.038   5.488 -0.3160 -0.5335  0.1753
  424MOL0     C57116   1.148   0.055   5.602 -0.2315 -0.1334  0.5706
  424MOL0     C57117   1.159   0.201   5.575 -0.0440  0.4103  0.5080
  424MOL0     C57118   1.112   0.286   5.697 -0.7532  0.0420  0.9883
  424MOL0     C57119   0.962   0.302   5.688  0.1207  0.5441  0.8731
  424MOL0     C57120   0.903   0.377   5.816  1.0769 -0.7344 -0.7620
  424MOL0     C57121   0.903   0.532   5.809 -0.1842  0.0469 -0.1399
  424MOL0     N57122   0.808   0.599   5.892 -0.2132 -0.1417  0.4194
  424MOL0     C57123   0.799   0.570   6.026 -0.6964 -0.7064  0.4779
  424MOL0     C57124   0.669   0.610   6.060 -0.7373  0.5430 -1.1045
  424MOL0     C57125   0.598   0.590   6.198  0.8208  0.7111 -0.6291
  424MOL0     C57126   0.508   0.467   6.213 -0.6449 -0.5639 -0.5352
  424MOL0     C57127   0.578   0.329   6.217 -0.2342 -0.1269 -0.8400
  424MOL0     C57128   0.497   0.227   6.303  0.0655 -0.0350 -0.6649
  424MOL0     O57129   0.561   0.097   6.306 -0.2207  1.1478 -0.7949
  424MOL0     C57130   0.502  -0.017   6.369  0.2130 -0.1629  1.2360
  424MOL0     C57131   0.405   0.002   6.468  0.6482 -0.3049 -0.6795
  424MOL0     C57132   0.360  -0.111   6.539 -0.0632  0.9534  0.1472
  424MOL0     C57133   0.258  -0.103   6.649  0.0579 -0.8651  0.5610
  424MOL0     C57134   0.412  -0.240   6.504  1.0103  1.6132 -0.1427
  424MOL0     C57135   0.368  -0.356   6.587 -0.0519  0.2405  0.4882
  424MOL0     O57136   0.291  -0.445   6.529 -0.1914  0.3185  0.2504
  424MOL0     C57137   0.215  -0.541   6.605  0.1322 -0.1568 -1.0293
  424MOL0     C57138   0.175  -0.662   6.544  0.5440 -0.3615 -0.1331
  424MOL0     C57139   0.111  -0.753   6.625  0.3466 -0.4094  0.2165
  424MOL0     C57140   0.073  -0.730   6.753  0.6224 -1.2230  0.4743
  424MOL0     O57141   0.005  -0.816   6.841 -0.4682 -0.1057  0.3022
  424MOL0     C57142  -0.009  -0.950   6.790 -0.8991 -0.7662  0.2151
  424MOL0     C57143  -0.062  -1.047   6.898 -0.1614 -0.3144  0.0655
  424MOL0     C57144  -0.175  -0.982   6.987 -0.1710 -0.7323  0.6323
  424MOL0     C57145  -0.242  -1.089   7.082 -0.9526 -0.8224  0.0141
  424MOL0     C57146  -0.355  -1.032   7.166  0.6566 -0.0346  0.4564
  424MOL0     C57147  -0.471  -0.987   7.078 -0.0230 -0.8133 -0.4540
  424MOL0     C57148  -0.588  -0.954   7.179  0.3319 -0.2855 -0.2568
  424MOL0     C57149  -0.693  -0.864   7.126  0.5222  0.2397  0.0547
  424MOL0    Cl57150  -0.772  -0.902   6.966 -0.3707  0.2338 -0.0067
  424MOL0     C57151   0.110  -0.611   6.810  0.7205 -0.6770  0.4742
  424MOL0     C57152   0.175  -0.510   6.735  0.1070  0.0582  0.0316
  424MOL0     O57153   0.414  -0.356   6.698  0.5825  0.3703 -0.4730
  424MOL0     C57154   0.511  -0.257   6.402  1.2551 -0.2924  0.0563
  424MOL0     C57155   0.557  -0.144   6.339  1.5547 -1.0774 -0.1277
  424MOL0     N57156   0.618   0.686   5.958  0.3586  0.3707  0.5856
  424MOL0     N57157   0.701   0.674   5.855  0.1350  0.3904 -0.2156
  424MOL0     C57158   1.649  -0.009   5.532  0.0326  0.0851  0.0467
  424MOL0     C57159   1.753  -0.016   5.629 -0.2771 -0.1036 -0.7633
  424MOL0     C57160   1.994   0.107   6.008  0.1127  0.5640 -0.8618
  424MOL0     C57161   2.051   0.213   6.074 -1.0093  0.1819  0.2651
  424MOL0     C57162   2.145   0.192   6.176 -1.1683 -0.1693 -0.5621
  424MOL0     C57163   2.179   0.059   6.221 -1.6631 -0.5257 -0.2650
  424MOL0     O57164   2.258   0.037   6.335 -0.4674  0.8224 -0.0429
  424MOL0     C57165   2.385  -0.022   6.295 -0.0363 -0.5714  0.3201
  424MOL0     C57166   2.409  -0.138   6.393  0.5554 -0.1450  0.7631
  424MOL0     C57167   2.507  -0.245   6.342  0.9209 -0.6780 -0.1523
  424MOL0     C57168   2.501  -0.371   6.437  0.7161 -0.5803 -0.0730
  424MOL0     C57169   2.596  -0.463   6.393 -0.7365  0.6845  0.2652
  424MOL0     C57170   2.692  -0.532   6.360 -0.3626  0.8201  0.1224
  424MOL0     C57171   2.112  -0.045   6.162  0.0121 -0.4732  0.4073
  424MOL0     C57172   2.020  -0.025   6.058 -0.5717 -0.6290  0.5072
  424MOL0     H57173   1.597   0.100   5.903 -0.2573  1.0183 -0.9608
  424MOL0     H57174   1.417   0.132   5.743 -0.6697  1.4626 -1.4085
  424MOL0     H57175   1.362  -0.129   5.395 -1.3733 -2.6262  1.0112
  424MOL0     H57176   1.359  -0.129   5.574 -2.2750  1.0755  0.8052
  424MOL0     H57177   1.173   0.010   5.393  2.9986 -0.4307 -0.6519
  424MOL0     H57178   1.138  -0.131   5.498 -1.5225 -0.0175 -1.6021
  424MOL0     H57179   1.041   0.037   5.616 -1.1713  0.8676 -3.7489
  424MOL0     H57180   1.189   0.035   5.701  2.5030 -0.1924 -0.5014
  424MOL0     H57181   1.267   0.216   5.564 -0.1041 -0.5751 -2.2220
  424MOL0     H57182   1.114   0.232   5.480  0.8310 -2.4726 -0.9664
  424MOL0     H57183   1.148   0.235   5.787  2.1042 -3.4017 -1.8042
  424MOL0     H57184   1.159   0.385   5.696  1.3414 -0.8650  2.4014
  424MOL0     H57185   0.924   0.332   5.590 -4.8298 -0.7922  2.1179
  424MOL0     H57186   0.924   0.199   5.695  0.9986  0.1390 -0.0248
  424MOL0     H57187   0.799   0.353   5.835  1.4400 -0.3831  2.0565
  424MOL0     H57188   0.953   0.349   5.909  2.9021  2.3319 -0.6492
  424MOL0     H57189   0.901   0.560   5.703  1.0789  1.2977  0.1417
  424MOL0     H57190   0.999   0.573   5.841  0.7981 -0.8041 -1.8896
  424MOL0     H57191   0.869   0.524   6.095  0.8774  0.8006 -0.0273
  424MOL0     H57192   0.668   0.596   6.282  0.9639  0.8069 -0.7545
  424MOL0     H57193   0.538   0.681   6.203 -2.0047 -1.0969  2.6075
  424MOL0     H57194   0.430   0.483   6.137  0.3265 -2.0207 -1.9062
  424MOL0     H57195   0.463   0.488   6.310  2.3762 -2.3551  1.4241
  424MOL0     H57196   0.673   0.344   6.270  0.2497  0.8352 -1.9552
  424MOL0     H57197   0.597   0.306   6.112 -1.8492  0.4126 -1.2668
  424MOL0     H57198   0.398   0.224   6.258  0.5690 -0.3522 -1.7686
  424MOL0     H57199   0.502   0.261   6.407 -0.3040 -1.9870  0.0448
  424MOL0     H57200   0.358   0.097   6.490 -1.1425 -1.3659  0.2593
  424MOL0     H57201   0.303  -0.118   6.748  0.4629  1.6499  0.8309
  424MOL0     H57202   0.207  -0.007   6.661 -2.0362 -1.9654  1.0521
  424MOL0     H57203   0.175  -0.172   6.631 -2.6843  2.2474  0.2258
  424MOL0     H57204   0.184  -0.661   6.436  3.1904 -1.2532  0.0090
  424MOL0     H57205   0.088  -0.846   6.573  1.8531 -1.6857  1.7089
  424MOL0     H57206  -0.064  -0.939   6.696  0.1717  3.4100 -0.0990
  424MOL0     H57207   0.087  -0.989   6.755  0.1090  2.7319 -1.3725
  424MOL0     H57208  -0.097  -1.138   6.849 -0.8897 -0.1594  0.2752
  424MOL0     H57209   0.014  -1.077   6.970  0.5737  0.7383 -0.2582
  424MOL0     H57210  -0.256  -0.945   6.923 -0.2407 -2.5027 -0.3814
  424MOL0     H57211  -0.129  -0.896   7.036 -0.3040 -0.7747  0.8297
  424MOL0     H57212  -0.283  -1.171   7.022  1.6913 -2.3391  0.1016
  424MOL0     H57213  -0.159  -1.127   7.142 -1.0705  3.0298  2.9499
  424MOL0     H57214  -0.319  -0.952   7.232 -0.6718 -0.0106  1.1985
  424MOL0     H57215  -0.390  -1.110   7.235  1.9892  0.3660  1.6503
  424MOL0     H57216  -0.448  -0.900   7.016  0.9618  0.5433  1.7393
  424MOL0     H57217  -0.488  -1.067   7.005  2.3344 -0.0366 -1.9666
  424MOL0     H57218  -0.543  -0.900   7.263 -1.9218  0.1024  0.7732
  424MOL0     H57219  -0.642  -1.043   7.213 -1.6750  0.4931 -1.2224
  424MOL0     H57220  -0.647  -0.765   7.118 -0.1551  0.7032  1.5601
  424MOL0     H57221  -0.769  -0.853   7.203  0.1887  0.0903 -0.2468
  424MOL0     H57222   0.085  -0.597   6.914  2.4004  0.5463  0.7502
  424MOL0     H57223   0.202  -0.418   6.786  1.7450 -1.3626  1.8822
  424MOL0     H57224   0.541  -0.358   6.373  4.0745  0.7369 -0.9609
  424MOL0     H57225   0.633  -0.150   6.262  0.1193  0.1380 -1.6941
  424MOL0     H57226   1.673  -0.025   5.428  0.7471 -1.0379  0.3658
  424MOL0     H57227   1.849  -0.056   5.600  0.2878 -0.4179  1.3614
  424MOL0     H57228   2.017   0.315   6.059 -2.4114 -0.2869  0.1672
  424MOL0     H57229   2.200   0.270   6.227  1.4539 -0.1737 -3.1182
  424MOL0     H57230   2.388  -0.052   6.190 -1.1180 -2.3111  0.7443
  424MOL0     H57231   2.460   0.049   6.332 -0.3132 -1.5588  3.0150
  424MOL0     H57232   2.307  -0.176   6.402  0.5712 -1.3665 -2.7201
  424MOL0     H57233   2.439  -0.109   6.494  3.9821 -2.9906  0.7857
  424MOL0     H57234   2.606  -0.199   6.335  0.7760  0.0008  1.8204
  424MOL0     H57235   2.477  -0.273   6.240  2.3283 -2.3901 -0.1387
  424MOL0     H57236   2.400  -0.413   6.433 -0.9175  2.8931  0.2211
  424MOL0     H57237   2.511  -0.346   6.543 -0.7233  1.8211 -0.4083
  424MOL0     H57238   2.763  -0.605   6.329 -1.0797 -0.1734  0.7615
  424MOL0     H57239   2.123  -0.147   6.196  1.8754 -0.5176 -0.2181
  424MOL0     H57240   1.977  -0.119   6.025  1.6130 -1.4215 -0.2403
  425MOL0     O57241   5.529   2.698   4.868  0.1974  0.2724  0.2247
  425MOL0     C57242   5.646   2.670   4.846 -0.0415 -0.7414 -0.5602
  425MOL0     O57243   5.716   2.580   4.918  0.2858  0.5234  0.5586
  425MOL0     C57244   5.654   2.503   5.017 -0.1985 -1.3537 -0.0924
  425MOL0     C57245   5.556   2.550   5.103  0.7239  0.0921 -0.6516
  425MOL0     C57246   5.520   2.475   5.218  0.9886  0.8146 -0.7529
  425MOL0     C57247   5.584   2.348   5.236  0.4306  0.2798  0.0997
  425MOL0     O57248   5.559   2.276   5.349 -0.2292 -0.5012  0.4611
  425MOL0     C57249   5.476   2.337   5.448 -0.3343 -0.4401  0.3374
  425MOL0     C57250   5.512   2.258   5.571 -0.7728 -0.2239  1.0160
  425MOL0     C57251   5.473   2.320   5.711 -0.0524 -0.4910 -0.6199
  425MOL0     C57252   5.352   2.240   5.765  0.3672 -0.8852 -0.3270
  425MOL0     C57253   5.287   2.310   5.880 -0.1331  0.2482  0.6178
  425MOL0     C57254   5.383   2.327   5.995  0.3029  0.4109 -0.3912
  425MOL0     C57255   5.314   2.389   6.119 -0.4884 -0.1295 -1.3657
  425MOL0     C57256   5.423   2.419   6.226  0.5394 -0.4186 -0.3685
  425MOL0     N57257   5.505   2.305   6.265  0.8002  0.1227  0.8018
  425MOL0     C57258   5.629   2.269   6.231  0.0818 -1.2003 -0.4383
  425MOL0     C57259   5.654   2.146   6.279 -0.7550 -0.3060 -0.4744
  425MOL0     C57260   5.781   2.055   6.258 -0.1459  0.4705 -0.3368
  425MOL0     C57261   5.869   2.097   6.142 -0.3163  0.7874 -0.8336
  425MOL0     C57262   5.954   2.217   6.176  0.9844 -0.2716 -0.3176
  425MOL0     C57263   6.055   2.264   6.071 -0.2575 -0.5629 -0.3524
  425MOL0     O57264   6.089   2.400   6.065  0.6440  0.4719  0.1366
  425MOL0     C57265   5.990   2.487   6.042  0.3057  0.6536 -0.0751
  425MOL0     C57266   5.900   2.478   5.940 -0.7831  0.9356 -0.7810
  425MOL0     C57267   5.800   2.577   5.919  0.8786  0.5635  0.1731
  425MOL0     C57268   5.707   2.563   5.809 -0.3712  0.1285  0.5078
  425MOL0     C57269   5.789   2.684   6.008 -0.7015  0.1910 -0.0612
  425MOL0     C57270   5.685   2.786   5.991 -0.0412  0.3100 -0.2964
  425MOL0     O57271   5.715   2.914   6.022 -0.0103 -0.1834  0.5477
  425MOL0     C57272   5.627   3.011   5.979  0.1611  0.0569  0.8178
  425MOL0     C57273   5.636   3.051   5.846  0.3445 -0.3393  0.0246
  425MOL0     C57274   5.568   3.162   5.800  0.5352  0.1358  0.3068
  425MOL0     C57275   5.476   3.229   5.875 -0.0972  0.1228  0.0633
  425MOL0     O57276   5.393   3.321   5.824  0.2145  0.4682  0.1023
  425MOL0     C57277   5.294   3.266   5.731  0.3123 -0.2846  0.7330
  425MOL0     C57278   5.167   3.223   5.799 -0.3412 -0.2672 -0.3823
  425MOL0     C57279   5.063   3.159   5.707  1.0638  0.4749 -0.6117
  425MOL0     C57280   4.948   3.096   5.777  0.0435 -0.0421 -0.2231
  425MOL0     C57281   4.857   3.013   5.680  0.2755 -1.1813  0.0091
  425MOL0     C57282   4.757   3.099   5.596 -0.0876 -0.8123 -0.3384
  425MOL0     C57283   4.783   3.104   5.449  0.7350 -0.3143  0.0563
  425MOL0     C57284   4.674   3.175   5.368  0.0017  0.1707  0.1818
  425MOL0    Cl57285   4.663   3.337   5.430  0.2362 -0.1573  0.0093
  425MOL0     C57286   5.455   3.183   6.011 -0.2185 -0.5516 -0.2552
  425MOL0     C57287   5.539   3.076   6.063 -0.0378  0.1817 -0.2352
  425MOL0     O57288   5.568   2.752   5.976 -0.2267  0.9608 -0.3948
  425MOL0     C57289   5.888   2.699   6.098  0.3158  0.0900  0.7209
  425MOL0     C57290   5.987   2.602   6.123 -0.4061  0.0187 -0.3006
  425MOL0     N57291   5.541   2.112   6.345  0.3443  0.3627  0.2245
  425MOL0     N57292   5.451   2.208   6.341 -0.2493  0.0990  0.4215
  425MOL0     C57293   5.683   2.297   5.148 -0.4958 -0.0027 -0.5380
  425MOL0     C57294   5.720   2.384   5.041 -0.3218 -0.2686  0.1152
  425MOL0     C57295   5.713   2.727   4.737 -0.7918  0.1019 -0.2288
  425MOL0     C57296   5.824   2.667   4.685  0.0776 -0.1989  0.2382
  425MOL0     C57297   5.884   2.715   4.572  0.0933 -0.2487  0.4668
  425MOL0     C57298   5.834   2.826   4.501 -0.0696  0.2730 -1.1079
  425MOL0     O57299   5.908   2.893   4.412  0.3596 -0.6092 -0.3021
  425MOL0     C57300   5.996   2.817   4.333  0.4427 -0.4496  0.4824
  425MOL0     C57301   5.912   2.735   4.233 -0.3559  0.6494 -0.4629
  425MOL0     C57302   5.836   2.826   4.138 -0.5347  0.1599  0.0698
  425MOL0     C57303   5.771   2.756   4.021 -0.6606  0.1894 -0.0436
  425MOL0     C57304   5.871   2.693   3.931 -0.7673 -0.3104  0.0582
  425MOL0     C57305   5.960   2.665   3.857 -0.2484  1.1397 -0.2694
  425MOL0     C57306   5.720   2.896   4.548 -0.0501 -0.5917  0.3660
  425MOL0     C57307   5.659   2.843   4.670 -0.4418  0.1982  0.5993
  425MOL0     H57308   5.505   2.645   5.101  1.6429  0.7143  1.7731
  425MOL0     H57309   5.443   2.516   5.282  2.7392  0.9586  1.3973
  425MOL0     H57310   5.494   2.441   5.475 -2.3685 -0.2783  1.2288
  425MOL0     H57311   5.369   2.323   5.427 -0.0103  1.0310 -2.8592
  425MOL0     H57312   5.474   2.155   5.577 -3.1441  0.6222  2.1456
  425MOL0     H57313   5.621   2.256   5.566 -0.7869  0.4192  0.0446
  425MOL0     H57314   5.563   2.316   5.774 -0.4254 -1.8190 -0.1319
  425MOL0     H57315   5.452   2.423   5.682  2.2073 -0.4784 -2.5617
  425MOL0     H57316   5.273   2.230   5.690  0.7610  0.0880 -0.8988
  425MOL0     H57317   5.381   2.137   5.783 -2.1562 -1.1787  2.9682
  425MOL0     H57318   5.249   2.411   5.861  2.6822  1.9875  3.2281
  425MOL0     H57319   5.209   2.244   5.918  1.2178 -1.5761  0.3609
  425MOL0     H57320   5.432   2.233   6.022  1.3117  1.6519  2.4917
  425MOL0     H57321   5.458   2.395   5.951  0.4707  0.0524 -0.6636
  425MOL0     H57322   5.247   2.475   6.104 -0.3047 -0.0206 -1.5665
  425MOL0     H57323   5.245   2.313   6.156 -0.1606 -0.1166 -0.7285
  425MOL0     H57324   5.381   2.463   6.317  1.0174  0.7528 -0.6964
  425MOL0     H57325   5.494   2.489   6.181 -0.4079  2.2019  1.9244
  425MOL0     H57326   5.691   2.323   6.160 -2.1868  3.7676  0.9415
  425MOL0     H57327   5.839   2.065   6.350 -1.5525 -1.3867  0.8120
  425MOL0     H57328   5.746   1.952   6.251 -2.1392  1.0645  0.0195
  425MOL0     H57329   5.810   2.116   6.051  1.7451  0.3633 -2.3425
  425MOL0     H57330   5.933   2.015   6.110  0.9537  2.3595 -2.5825
  425MOL0     H57331   6.008   2.184   6.265 -0.9805 -2.8565  0.0337
  425MOL0     H57332   5.884   2.292   6.216  1.9947  0.2437  0.5119
  425MOL0     H57333   6.039   2.231   5.968  1.4878 -2.8591  0.0109
  425MOL0     H57334   6.141   2.207   6.108 -1.0518 -0.9452  0.9438
  425MOL0     H57335   5.903   2.418   5.849 -2.4911  0.3387 -0.4687
  425MOL0     H57336   5.604   2.544   5.842 -0.4727 -0.4247 -0.0938
  425MOL0     H57337   5.707   2.655   5.750  2.7836  3.3061  4.8736
  425MOL0     H57338   5.737   2.491   5.732  3.9078  1.6227  0.5158
  425MOL0     H57339   5.706   3.010   5.774  0.9876 -0.4592  0.7011
  425MOL0     H57340   5.574   3.190   5.695  0.5834  2.0156  0.7796
  425MOL0     H57341   5.265   3.340   5.656 -2.2076 -1.5545  0.3547
  425MOL0     H57342   5.338   3.179   5.682  0.0220  0.2910 -0.5795
  425MOL0     H57343   5.199   3.154   5.877 -2.9193  1.9066  2.8914
  425MOL0     H57344   5.128   3.316   5.843  0.8210 -0.5045  1.2298
  425MOL0     H57345   5.120   3.081   5.657 -1.6781 -3.4380  1.8365
  425MOL0     H57346   5.029   3.233   5.634  1.6354  1.1632 -0.2037
  425MOL0     H57347   4.980   3.031   5.859  3.1946  0.5887 -0.8090
  425MOL0     H57348   4.897   3.180   5.824  3.0917  1.8730 -0.0486
  425MOL0     H57349   4.803   2.956   5.756 -0.0251  1.5087  1.9802
  425MOL0     H57350   4.911   2.938   5.623  0.2722  0.0855 -1.7257
  425MOL0     H57351   4.661   3.048   5.606  1.3837 -3.5560  1.0776
  425MOL0     H57352   4.749   3.197   5.645 -2.7573  0.2939 -2.7329
  425MOL0     H57353   4.806   3.001   5.420  2.3864  0.2775 -0.8750
  425MOL0     H57354   4.871   3.167   5.437  1.0691 -0.8583 -0.4020
  425MOL0     H57355   4.574   3.133   5.379  0.1210 -0.5188 -1.1138
  425MOL0     H57356   4.694   3.180   5.260 -2.1364  0.0359 -0.2490
  425MOL0     H57357   5.381   3.224   6.079  3.0950  0.8098  2.8889
  425MOL0     H57358   5.528   3.048   6.167 -1.2207  0.8669 -0.1527
  425MOL0     H57359   5.882   2.785   6.164  1.3120  0.8956 -0.2091
  425MOL0     H57360   6.065   2.599   6.198 -1.3682  0.3822  0.7512
  425MOL0     H57361   5.727   2.200   5.173 -2.4169 -0.7395  0.1986
  425MOL0     H57362   5.797   2.354   4.970  2.6066  0.4665  2.7306
  425MOL0     H57363   5.857   2.572   4.726 -3.3350 -1.4806  0.3272
  425MOL0     H57364   5.975   2.670   4.534  0.2553 -0.2358  0.8406
  425MOL0     H57365   6.062   2.891   4.287 -0.2363 -0.5886 -0.7484
  425MOL0     H57366   6.068   2.755   4.387 -0.5633 -1.3607  0.8043
  425MOL0     H57367   5.844   2.673   4.292 -0.9527 -0.4875 -2.3015
  425MOL0     H57368   5.992   2.684   4.178  0.7592  1.9768 -0.1562
  425MOL0     H57369   5.900   2.902   4.092 -2.2132 -0.8970 -4.5506
  425MOL0     H57370   5.764   2.888   4.191 -1.4144 -0.3039 -0.5578
  425MOL0     H57371   5.722   2.840   3.971  3.4132  1.7970 -1.8076
  425MOL0     H57372   5.693   2.686   4.052 -3.0403  0.9703 -3.6556
  425MOL0     H57373   6.042   2.646   3.791 -0.4988  1.0211 -0.5449
  425MOL0     H57374   5.674   2.975   4.489  1.7400  0.8524  0.8011
  425MOL0     H57375   5.565   2.889   4.697 -1.0573 -1.2341  0.9894
  426MOL0     O57376   6.131   4.463   3.968 -1.0512  0.1461 -0.1956
  426MOL0     C57377   6.115   4.420   4.083  0.2530 -1.3738  0.4604
  426MOL0     O57378   6.033   4.323   4.118 -0.5027  0.2632  0.8194
  426MOL0     C57379   5.994   4.224   4.027 -0.4312 -0.0764 -0.4836
  426MOL0     C57380   5.893   4.134   4.072  0.1944 -1.8009  0.2410
  426MOL0     C57381   5.838   4.034   3.996  1.1232  0.1091 -0.7296
  426MOL0     C57382   5.889   3.998   3.871  0.2149 -0.9549  0.0185
  426MOL0     O57383   5.854   3.884   3.793  0.9862  0.0486  0.4317
  426MOL0     C57384   5.735   3.811   3.832 -0.8916  0.1611  0.3816
  426MOL0     C57385   5.730   3.686   3.747  0.4201  0.8599 -0.0168
  426MOL0     C57386   5.671   3.704   3.608 -0.3948 -0.5030  0.4054
  426MOL0     C57387   5.731   3.601   3.506 -0.0302 -0.4174 -0.9148
  426MOL0     C57388   5.678   3.465   3.550  0.0128  0.0372 -0.1316
  426MOL0     C57389   5.677   3.365   3.435  0.7418 -1.4210  0.0858
  426MOL0     C57390   5.622   3.226   3.464 -0.3199 -0.1835  1.0425
  426MOL0     C57391   5.586   3.149   3.331  0.1117 -0.8784 -0.1573
  426MOL0     N57392   5.438   3.163   3.307 -0.2536  0.5256 -0.5993
  426MOL0     C57393   5.358   3.059   3.338  0.6371  0.0739 -0.6891
  426MOL0     C57394   5.233   3.107   3.323  1.0397  0.0330 -0.1639
  426MOL0     C57395   5.101   3.035   3.349  0.1499  0.3272 -0.5261
  426MOL0     C57396   5.022   3.108   3.452 -1.1151 -0.0736  0.0205
  426MOL0     C57397   4.868   3.069   3.448 -0.3687  0.3266  0.4875
  426MOL0     C57398   4.848   2.913   3.458  0.5219 -0.6662  0.1651
  426MOL0     O57399   4.926   2.860   3.558 -0.2299  0.1537  0.0595
  426MOL0     C57400   4.908   2.729   3.591  0.9743  0.5022  0.0468
  426MOL0     C57401   4.810   2.647   3.537 -0.3364 -0.5210 -0.1713
  426MOL0     C57402   4.812   2.504   3.564  0.0695 -0.1279 -0.7240
  426MOL0     C57403   4.730   2.410   3.482 -0.3043  1.0365  0.1210
  426MOL0     C57404   4.888   2.457   3.676 -0.7032  0.7612  0.7031
  426MOL0     C57405   4.907   2.311   3.721  0.5374 -0.3968 -0.3723
  426MOL0     O57406   5.038   2.271   3.764 -0.1403 -0.2294 -0.5174
  426MOL0     C57407   5.054   2.165   3.846 -0.2490 -0.5288 -0.5582
  426MOL0     C57408   5.075   2.188   3.979  0.0385 -0.0561  0.2551
  426MOL0     C57409   5.086   2.083   4.067  0.1820  0.2717  0.3405
  426MOL0     C57410   5.074   1.954   4.025  0.5162  1.1784  0.5163
  426MOL0     O57411   5.108   1.856   4.117  0.2067 -0.1684 -0.5713
  426MOL0     C57412   5.097   1.724   4.077 -0.3889  0.4128 -0.3734
  426MOL0     C57413   5.069   1.634   4.204 -0.2260  0.9490 -0.0726
  426MOL0     C57414   5.084   1.483   4.166 -0.0369 -0.7712  0.5345
  426MOL0     C57415   4.980   1.435   4.069 -0.5391 -0.3480 -0.6500
  426MOL0     C57416   4.973   1.284   4.081 -0.0351  0.4331 -0.4702
  426MOL0     C57417   5.090   1.226   4.008  0.2077  0.3472  0.5943
  426MOL0     C57418   5.077   1.070   4.000  0.1922 -0.0881  0.3717
  426MOL0     C57419   5.200   1.015   3.921 -0.2572 -0.4802 -0.3762
  426MOL0    Cl57420   5.216   0.840   3.966 -0.0480 -0.0466 -0.4193
  426MOL0     C57421   5.032   1.933   3.894 -0.1358  0.4066  0.1998
  426MOL0     C57422   5.031   2.038   3.804  0.0530  0.0482  0.1442
  426MOL0     O57423   4.815   2.233   3.713  0.4429  0.7114 -0.0561
  426MOL0     C57424   4.968   2.551   3.741 -0.5496 -0.0683  0.1397
  426MOL0     C57425   4.983   2.680   3.693  0.5949  0.8746 -0.2990
  426MOL0     N57426   5.242   3.241   3.286  0.1435 -0.2476  0.2954
  426MOL0     N57427   5.370   3.270   3.271 -0.4855 -0.1806  0.1580
  426MOL0     C57428   5.981   4.097   3.819  0.2817  0.0830 -0.3033
  426MOL0     C57429   6.036   4.205   3.895 -0.4099  0.0493  0.1173
  426MOL0     C57430   6.201   4.483   4.192  0.3687  0.2908  0.1419
  426MOL0     C57431   6.169   4.453   4.323 -0.4306 -0.0368  0.6784
  426MOL0     C57432   6.224   4.529   4.424 -0.9429  0.4779 -0.1739
  426MOL0     C57433   6.335   4.624   4.401  0.1443 -0.4973  0.5882
  426MOL0     O57434   6.388   4.692   4.512  0.4931 -0.4489 -0.7043
  426MOL0     C57435   6.493   4.792   4.496  0.9724 -0.3909 -0.7985
  426MOL0     C57436   6.436   4.928   4.441 -0.1089 -0.0378  0.6031
  426MOL0     C57437   6.324   4.995   4.528  0.3750  0.3381 -0.4123
  426MOL0     C57438   6.343   5.144   4.516  0.1853  0.8432  0.4324
  426MOL0     C57439   6.282   5.207   4.632  0.0076 -0.0906 -0.5539
  426MOL0     C57440   6.227   5.283   4.711  0.6750  0.2436 -0.6318
  426MOL0     C57441   6.364   4.653   4.263  0.0203 -0.0659 -0.0365
  426MOL0     C57442   6.297   4.583   4.159  0.5680  1.0287 -1.0170
  426MOL0     H57443   5.854   4.174   4.164  0.4004  1.5982 -1.0251
  426MOL0     H57444   5.764   3.975   4.049  0.8220  2.2654  1.4247
  426MOL0     H57445   5.730   3.788   3.939  1.6727 -2.5555  0.0458
  426MOL0     H57446   5.643   3.861   3.801 -0.5070  0.2943 -0.5900
  426MOL0     H57447   5.834   3.656   3.739  0.1627 -0.7619  1.9042
  426MOL0     H57448   5.675   3.610   3.804 -0.2543  2.5229  1.6750
  426MOL0     H57449   5.562   3.695   3.620 -0.8905  1.2286 -2.0379
  426MOL0     H57450   5.699   3.803   3.571  3.4273 -1.6277 -0.0888
  426MOL0     H57451   5.695   3.626   3.406 -3.8338 -0.2755  0.3198
  426MOL0     H57452   5.840   3.593   3.507 -0.1181 -2.2495 -2.2872
  426MOL0     H57453   5.750   3.417   3.617 -3.1807 -1.9400  2.2423
  426MOL0     H57454   5.581   3.448   3.599  1.4143 -2.6541  2.0592
  426MOL0     H57455   5.616   3.411   3.357  0.9294  0.0874  0.8019
  426MOL0     H57456   5.777   3.356   3.392 -0.0795 -2.5123 -1.7100
  426MOL0     H57457   5.700   3.168   3.515 -1.0093 -0.1428  2.1688
  426MOL0     H57458   5.532   3.230   3.525 -0.4064  2.1983  0.8384
  426MOL0     H57459   5.621   3.047   3.349  2.2327  0.0725  1.5302
  426MOL0     H57460   5.652   3.184   3.251 -0.7551 -0.9081 -0.9039
  426MOL0     H57461   5.378   2.956   3.367  1.1551  0.2016 -0.5830
  426MOL0     H57462   5.056   3.027   3.250  3.4428 -2.8713 -2.0358
  426MOL0     H57463   5.126   2.930   3.370 -1.6209 -0.1424 -0.6137
  426MOL0     H57464   5.029   3.215   3.433 -1.1967 -0.3604 -1.7234
  426MOL0     H57465   5.074   3.086   3.546  1.8783  0.4655 -1.4030
  426MOL0     H57466   4.833   3.092   3.347 -0.2618 -0.8863  0.1562
  426MOL0     H57467   4.813   3.123   3.525  2.2822  0.3840  2.4848
  426MOL0     H57468   4.871   2.863   3.363  0.9946 -1.2566  0.5799
  426MOL0     H57469   4.743   2.889   3.482  0.5981 -1.9258 -0.6485
  426MOL0     H57470   4.739   2.688   3.466 -0.5701 -0.2312  0.2223
  426MOL0     H57471   4.633   2.394   3.530 -0.2839 -3.5279 -0.8820
  426MOL0     H57472   4.712   2.449   3.382 -2.1511  2.2041  0.8726
  426MOL0     H57473   4.784   2.315   3.480 -1.5373  0.2467  1.8399
  426MOL0     H57474   5.084   2.295   3.997 -3.4825  1.1249 -3.4023
  426MOL0     H57475   5.108   2.102   4.172 -0.8012 -0.1683  0.6327
  426MOL0     H57476   5.021   1.705   4.001 -2.6204  0.9410  1.6195
  426MOL0     H57477   5.195   1.693   4.039 -0.2694  0.3001  0.0185
  426MOL0     H57478   5.146   1.656   4.279  0.7324  0.7933 -1.0006
  426MOL0     H57479   4.972   1.646   4.253 -1.3257  0.3455 -2.0259
  426MOL0     H57480   5.080   1.427   4.260 -1.0275 -0.1118  0.9076
  426MOL0     H57481   5.179   1.458   4.118 -0.8911 -0.9722 -1.1245
  426MOL0     H57482   4.881   1.468   4.103 -0.4502 -1.5139  0.8298
  426MOL0     H57483   5.005   1.470   3.968  2.0629  1.2617  0.4278
  426MOL0     H57484   4.879   1.259   4.031 -0.3244 -0.3604  0.4455
  426MOL0     H57485   4.953   1.243   4.180  0.3477 -0.1408 -0.6277
  426MOL0     H57486   5.072   1.257   3.905 -1.7352  3.0415  1.6307
  426MOL0     H57487   5.187   1.250   4.054  0.7937 -0.7487 -0.0296
  426MOL0     H57488   4.984   1.032   3.957  1.6240 -0.8281 -2.2590
  426MOL0     H57489   5.091   1.030   4.101  0.7112 -1.2897 -0.1623
  426MOL0     H57490   5.292   1.072   3.941 -0.2245 -0.0452 -1.6697
  426MOL0     H57491   5.174   1.034   3.817 -2.8267  1.3615  0.4947
  426MOL0     H57492   5.026   1.831   3.860 -0.8377  0.1633  1.0071
  426MOL0     H57493   4.987   2.022   3.706 -0.3429 -0.5564  0.4137
  426MOL0     H57494   5.038   2.510   3.814  0.8554 -0.2563 -1.2520
  426MOL0     H57495   5.056   2.737   3.750  1.3605  0.6823 -1.0546
  426MOL0     H57496   6.013   4.076   3.717  0.9778 -0.3331 -0.0058
  426MOL0     H57497   6.120   4.252   3.845 -0.6391 -1.8439 -2.2132
  426MOL0     H57498   6.100   4.372   4.343 -1.4473  0.9733  1.3853
  426MOL0     H57499   6.197   4.511   4.527  3.0802 -0.2291  0.9553
  426MOL0     H57500   6.539   4.807   4.594  2.1991  0.9268 -1.5475
  426MOL0     H57501   6.560   4.750   4.420 -2.1833 -1.4003 -3.2410
  426MOL0     H57502   6.398   4.912   4.340 -2.1089 -2.6242  1.6382
  426MOL0     H57503   6.528   4.986   4.435 -0.7701  1.0442  0.6870
  426MOL0     H57504   6.336   4.957   4.630  0.8861 -1.0825 -0.9698
  426MOL0     H57505   6.224   4.976   4.489 -0.0574  1.5409  0.0571
  426MOL0     H57506   6.292   5.189   4.429 -1.9632  0.3450  1.3598
  426MOL0     H57507   6.451   5.161   4.518  0.5627 -1.3298  1.7999
  426MOL0     H57508   6.163   5.331   4.782 -2.4730 -1.8262 -1.8619
  426MOL0     H57509   6.438   4.729   4.243  0.4289  0.3142  2.5462
  426MOL0     H57510   6.338   4.589   4.059  0.6898  0.9838 -0.9703
  427MOL0     O57511   4.853   9.858   8.002  0.6877  0.3472  0.2548
  427MOL0     C57512   4.896   9.827   8.108 -0.5691 -0.3103 -0.1994
  427MOL0     O57513   4.830   9.827   8.226 -0.1404  0.2111  0.2347
  427MOL0     C57514   4.690   9.829   8.225 -0.5071  0.2681 -1.4179
  427MOL0     C57515   4.626   9.923   8.150  0.2704  1.3100  0.3794
  427MOL0     C57516   4.490   9.936   8.161  0.9946 -0.0619 -0.8990
  427MOL0     C57517   4.409   9.853   8.249 -0.8226  0.0874 -0.8739
  427MOL0     O57518   4.272   9.858   8.277 -0.0075  0.7750  0.3290
  427MOL0     C57519   4.221   9.982   8.245 -0.8961 -0.1783 -1.1016
  427MOL0     C57520   4.085  10.006   8.304  0.9297 -0.4935  0.5327
  427MOL0     C57521   4.061  10.029   8.454 -0.1175  0.8526 -0.3102
  427MOL0     C57522   3.930  10.102   8.472  0.9193  0.7073  0.2454
  427MOL0     C57523   3.884  10.111   8.620  0.3317  0.1606  0.9475
  427MOL0     C57524   3.985  10.196   8.706  0.1770  0.3198  0.5531
  427MOL0     C57525   3.921  10.275   8.824  0.1084  1.2397  0.5837
  427MOL0     C57526   3.888  10.178   8.932 -0.7108  0.0586  0.3225
  427MOL0     N57527   3.983  10.194   9.046  0.5028 -0.3262 -0.1751
  427MOL0     C57528   3.953  10.140   9.167 -0.3182 -0.4134 -0.5108
  427MOL0     C57529   4.068  10.160   9.234  1.2338  0.2065 -0.0478
  427MOL0     C57530   4.093  10.108   9.377  0.9259  0.9816  0.7288
  427MOL0     C57531   4.188   9.990   9.372 -0.1960 -0.1554 -0.1464
  427MOL0     C57532   4.090   9.870   9.372 -0.7514 -0.0797 -0.3398
  427MOL0     C57533   4.024   9.834   9.237 -0.1747 -0.1789 -0.3259
  427MOL0     O57534   4.011   9.691   9.226 -0.0289 -0.8308 -0.8143
  427MOL0     C57535   3.910   9.635   9.145 -0.3785 -0.9711 -0.1297
  427MOL0     C57536   3.822   9.710   9.057 -0.3728  0.3730 -0.3302
  427MOL0     C57537   3.712   9.651   8.994 -0.2637 -0.7470 -0.4653
  427MOL0     C57538   3.609   9.741   8.924 -0.5691  0.2031  0.0968
  427MOL0     C57539   3.688   9.510   9.016 -0.2420 -1.0488  0.0990
  427MOL0     C57540   3.590   9.442   8.936  0.9396  0.3626 -0.4187
  427MOL0     O57541   3.508   9.358   9.009  1.1428 -0.2003 -0.7170
  427MOL0     C57542   3.442   9.265   8.932  0.8831 -0.5016  0.2042
  427MOL0     C57543   3.525   9.173   8.868  0.1594 -0.1500  1.1343
  427MOL0     C57544   3.470   9.070   8.802  0.6651 -0.5895 -0.7725
  427MOL0     C57545   3.329   9.051   8.794  0.2927 -0.6963 -0.2177
  427MOL0     O57546   3.287   8.946   8.712  0.6321  0.2914 -0.3143
  427MOL0     C57547   3.156   8.946   8.650  0.3085 -0.3442  0.1623
  427MOL0     C57548   3.129   8.801   8.607 -0.1533 -0.3137  0.7553
  427MOL0     C57549   3.256   8.748   8.539  0.0598  0.7006  0.0772
  427MOL0     C57550   3.215   8.652   8.435 -0.3843  0.0294  0.2635
  427MOL0     C57551   3.316   8.561   8.369 -0.3482 -0.5049  0.0417
  427MOL0     C57552   3.258   8.457   8.270  0.3133  0.9826  0.4995
  427MOL0     C57553   3.370   8.382   8.190 -0.2005 -0.5033 -0.1693
  427MOL0     C57554   3.409   8.471   8.062 -0.2137 -0.0856  0.1753
  427MOL0    Cl57555   3.473   8.345   7.944  0.1532 -0.3007 -0.2655
  427MOL0     C57556   3.250   9.141   8.858 -0.1874 -0.0093  0.2715
  427MOL0     C57557   3.305   9.256   8.917  0.0608 -0.2575 -0.1570
  427MOL0     O57558   3.588   9.455   8.809  0.0396  0.0776  0.3331
  427MOL0     C57559   3.765   9.439   9.107  0.1387  0.5937  1.3915
  427MOL0     C57560   3.880   9.496   9.168 -0.3664  0.0994  0.6885
  427MOL0     N57561   4.168  10.210   9.153  0.2705  0.6898  0.0770
  427MOL0     N57562   4.116  10.227   9.038  0.6152  0.7115  0.5895
  427MOL0     C57563   4.476   9.752   8.323  0.2922  0.0010 -0.5532
  427MOL0     C57564   4.615   9.739   8.311 -0.1986 -0.2595 -0.0134
  427MOL0     C57565   5.038   9.785   8.117  0.7891  0.6087  0.4560
  427MOL0     C57566   5.107   9.746   7.996  1.4495 -0.1110  0.5009
  427MOL0     C57567   5.240   9.701   8.002 -0.5415 -0.6871 -0.6418
  427MOL0     C57568   5.307   9.690   8.124  0.4528 -0.4749 -0.9598
  427MOL0     O57569   5.431   9.642   8.131  0.0138  0.8537  0.3605
  427MOL0     C57570   5.448   9.511   8.083 -0.3247 -0.2912 -0.1450
  427MOL0     C57571   5.568   9.435   8.152 -0.4842 -0.0699  0.0315
  427MOL0     C57572   5.550   9.406   8.303 -1.3469 -1.3834  0.7013
  427MOL0     C57573   5.627   9.509   8.392 -1.0393  0.8468  1.3024
  427MOL0     C57574   5.773   9.522   8.366 -0.1667  0.6307 -0.5822
  427MOL0     C57575   5.887   9.538   8.357 -0.3404 -0.2298  0.2342
  427MOL0     C57576   5.235   9.731   8.247 -0.0150 -0.1911  0.1189
  427MOL0     C57577   5.095   9.770   8.243 -0.0956  0.9321 -0.9187
  427MOL0     H57578   4.689   9.996   8.101  1.7652  0.6719  1.2833
  427MOL0     H57579   4.437  10.013   8.105  1.0908 -0.1182 -1.0679
  427MOL0     H57580   4.291  10.052   8.292 -1.2174 -1.0847  0.8456
  427MOL0     H57581   4.216   9.999   8.137 -2.0425 -2.9705 -1.5800
  427MOL0     H57582   4.048  10.096   8.253  1.6168 -1.3869 -1.6911
  427MOL0     H57583   4.023   9.924   8.267  1.1816  0.9906 -3.7499
  427MOL0     H57584   4.061   9.935   8.510  1.9421  1.4117  0.7450
  427MOL0     H57585   4.138  10.093   8.498 -0.9794  2.3977 -0.9761
  427MOL0     H57586   3.937  10.203   8.432 -0.7265  1.0781  0.8414
  427MOL0     H57587   3.849  10.039   8.433 -0.2448  0.9271  2.1771
  427MOL0     H57588   3.789  10.164   8.628 -0.2865 -0.9207  0.8957
  427MOL0     H57589   3.860  10.015   8.666  0.3630 -0.2058  0.1968
  427MOL0     H57590   4.064  10.130   8.743  0.3431 -0.8189 -1.6442
  427MOL0     H57591   4.027  10.272   8.639 -0.0475 -0.3573 -0.3813
  427MOL0     H57592   3.993  10.354   8.846  1.6188 -0.7740  3.6259
  427MOL0     H57593   3.833  10.325   8.781  1.7083  2.8470 -1.0146
  427MOL0     H57594   3.907  10.076   8.897 -0.0825  0.3794 -0.2978
  427MOL0     H57595   3.785  10.198   8.961 -0.4937  0.3909  0.8837
  427MOL0     H57596   3.859  10.098   9.199  0.1963 -1.3067 -0.1210
  427MOL0     H57597   4.136  10.186   9.441  1.6492 -0.8065  2.5209
  427MOL0     H57598   3.996  10.086   9.423 -1.4348  1.0977 -3.6975
  427MOL0     H57599   4.262   9.980   9.453 -1.7648 -2.3620  1.1198
  427MOL0     H57600   4.243   9.990   9.278 -1.5579 -1.4675 -0.9849
  427MOL0     H57601   4.016   9.877   9.453 -1.2035  0.4920 -0.7927
  427MOL0     H57602   4.150   9.781   9.396 -0.0289 -0.1880 -2.4107
  427MOL0     H57603   4.074   9.876   9.149 -4.0141  3.1908 -1.1596
  427MOL0     H57604   3.921   9.869   9.244  0.2868  1.1616  0.1050
  427MOL0     H57605   3.836   9.818   9.055  1.4947  0.2263  1.5859
  427MOL0     H57606   3.505   9.708   8.923 -1.6218  3.1823 -0.9803
  427MOL0     H57607   3.592   9.834   8.979 -0.3046 -0.4984  1.3952
  427MOL0     H57608   3.640   9.766   8.822  0.2812 -2.8856 -0.4861
  427MOL0     H57609   3.633   9.181   8.877  0.2407  1.9157 -0.8071
  427MOL0     H57610   3.532   9.011   8.734  0.7436  1.6634 -2.8156
  427MOL0     H57611   3.084   8.980   8.725 -0.3569  1.8650 -1.3783
  427MOL0     H57612   3.152   9.014   8.564  2.4333  1.9601  1.7306
  427MOL0     H57613   3.104   8.735   8.691 -0.0202  0.9117  1.7805
  427MOL0     H57614   3.047   8.797   8.534 -1.2970  3.0213  1.6978
  427MOL0     H57615   3.315   8.691   8.611 -1.0174 -0.3446  0.1566
  427MOL0     H57616   3.307   8.834   8.496 -0.3243  1.3514  0.9049
  427MOL0     H57617   3.137   8.588   8.477  0.7108 -0.7621  1.1599
  427MOL0     H57618   3.173   8.715   8.356  3.2108  1.3048 -0.8247
  427MOL0     H57619   3.372   8.509   8.448  0.9731  1.1752  0.2575
  427MOL0     H57620   3.389   8.616   8.309  0.5182 -3.1798 -1.5172
  427MOL0     H57621   3.198   8.382   8.322 -0.5881  0.5443 -1.1139
  427MOL0     H57622   3.196   8.515   8.201  0.7740 -2.2902 -2.9426
  427MOL0     H57623   3.329   8.285   8.163 -1.6285  0.7714 -2.9492
  427MOL0     H57624   3.457   8.382   8.257 -0.4398 -0.8882  0.1469
  427MOL0     H57625   3.481   8.549   8.088 -0.0222 -0.8711  2.2447
  427MOL0     H57626   3.322   8.518   8.014 -0.0335  0.0579 -0.0118
  427MOL0     H57627   3.142   9.130   8.861 -0.0864 -0.9435  1.2863
  427MOL0     H57628   3.254   9.331   8.976  0.0057 -0.9609  0.7265
  427MOL0     H57629   3.744   9.333   9.115 -0.5454  0.3348 -2.1026
  427MOL0     H57630   3.938   9.437   9.238 -1.2379 -1.6221  0.0133
  427MOL0     H57631   4.420   9.684   8.388 -0.1282  1.6060  0.8379
  427MOL0     H57632   4.666   9.655   8.358 -0.1700 -0.9703 -1.2464
  427MOL0     H57633   5.064   9.748   7.897  0.5950 -0.3496  0.8582
  427MOL0     H57634   5.287   9.673   7.908  1.5621 -1.6498  0.6362
  427MOL0     H57635   5.358   9.450   8.095 -0.1491 -0.2603  1.8156
  427MOL0     H57636   5.460   9.515   7.975 -3.7391 -4.5443 -0.9447
  427MOL0     H57637   5.661   9.490   8.137 -1.5036  2.2192  1.5080
  427MOL0     H57638   5.586   9.336   8.109  0.4787 -1.3990  3.2139
  427MOL0     H57639   5.601   9.309   8.310 -0.7743 -1.0181  1.9355
  427MOL0     H57640   5.445   9.404   8.335 -0.7240 -3.0135  2.9327
  427MOL0     H57641   5.632   9.464   8.491  1.0760 -1.0283  0.4276
  427MOL0     H57642   5.578   9.607   8.394 -0.3381  1.2370  0.3413
  427MOL0     H57643   5.987   9.577   8.358 -0.7279  0.8072 -0.2618
  427MOL0     H57644   5.276   9.740   8.348 -0.8927  1.5915  0.3650
  427MOL0     H57645   5.046   9.785   8.338 -2.2069 -3.5923 -1.0264
  428MOL0     O57646   6.294   9.438   1.111  0.5936 -0.4854 -0.0191
  428MOL0     C57647   6.359   9.542   1.110 -0.2245 -1.3210  0.9175
  428MOL0     O57648   6.485   9.549   1.055 -0.0681 -0.0250  0.2497
  428MOL0     C57649   6.541   9.440   0.992 -0.4112  0.7835  0.9615
  428MOL0     C57650   6.664   9.388   1.024 -0.2588  0.2551  0.7067
  428MOL0     C57651   6.707   9.266   0.968  0.3238  0.1549  0.4692
  428MOL0     C57652   6.635   9.211   0.859 -0.0381 -0.4648  1.3371
  428MOL0     O57653   6.686   9.102   0.800  0.5492 -0.0473  0.7633
  428MOL0     C57654   6.816   9.115   0.744  0.7540  0.1129 -0.0442
  428MOL0     C57655   6.875   8.988   0.691 -0.2672  0.0722  0.1028
  428MOL0     C57656   7.023   9.008   0.672  0.9646 -0.0767  0.2556
  428MOL0     C57657   7.089   8.889   0.601  0.1547 -0.0645  0.3449
  428MOL0     C57658   7.245   8.867   0.643  0.8681  0.0919  0.1533
  428MOL0     C57659   7.254   8.785   0.770  0.2269 -1.4573 -0.0614
  428MOL0     C57660   7.401   8.804   0.820  0.2875 -0.1995  0.9660
  428MOL0     C57661   7.520   8.782   0.729  0.8272  0.1659  0.0859
  428MOL0     N57662   7.642   8.729   0.798  0.0445  0.6348  0.3339
  428MOL0     C57663   7.757   8.735   0.730  1.1440  0.5096 -0.0271
  428MOL0     C57664   7.850   8.695   0.818  0.1213 -1.2115  0.3768
  428MOL0     C57665   7.989   8.663   0.769 -0.7471 -0.5048 -0.0497
  428MOL0     C57666   8.089   8.758   0.847  0.1659 -0.6938  0.0919
  428MOL0     C57667   8.230   8.706   0.842 -0.4491 -0.1502  0.0797
  428MOL0     C57668   8.321   8.798   0.922 -0.5740  0.7378 -0.7607
  428MOL0     O57669   8.455   8.751   0.936  0.3176 -0.1940  0.0929
  428MOL0     C57670   8.545   8.829   0.999 -0.6701  0.6737 -1.1212
  428MOL0     C57671   8.674   8.782   1.009  0.5996 -0.3558  0.5740
  428MOL0     C57672   8.773   8.873   1.055 -0.3196  0.6606  0.4874
  428MOL0     C57673   8.918   8.806   1.044  0.3836 -0.1996  0.4878
  428MOL0     C57674   8.738   9.002   1.108 -0.1003 -0.5401  0.0751
  428MOL0     C57675   8.841   9.095   1.163 -1.2996 -0.5309 -0.0210
  428MOL0     O57676   8.969   9.065   1.133  0.3722  0.2127  0.5058
  428MOL0     C57677   9.072   9.141   1.174 -0.7544  1.7057 -0.4086
  428MOL0     C57678   9.089   9.176   1.307 -0.5107 -0.5255 -0.4800
  428MOL0     C57679   9.203   9.262   1.339  0.8014 -0.3171  0.4047
  428MOL0     C57680   9.282   9.320   1.241  0.7827  1.0730 -0.1805
  428MOL0     O57681   9.366   9.424   1.279 -0.8739  0.2181  0.0386
  428MOL0     C57682   9.507   9.387   1.265  0.3082  0.2378 -0.3645
  428MOL0     C57683   9.580   9.479   1.356 -0.4960  0.4630  0.4224
  428MOL0     C57684   9.727   9.445   1.360  0.3261 -0.1964 -1.1804
  428MOL0     C57685   9.805   9.457   1.227  1.6246  0.3916 -0.0884
  428MOL0     C57686   9.958   9.427   1.229  1.1467 -0.0560 -0.8590
  428MOL0     C57687  10.030   9.434   1.091  0.5109 -0.4050  0.0093
  428MOL0     C57688   9.992   9.561   1.005 -1.0863 -0.1566  0.8003
  428MOL0     C57689  10.098   9.598   0.889 -0.7010  0.5124 -0.1841
  428MOL0    Cl57690  10.259   9.659   0.950  0.2818 -0.1912  0.1806
  428MOL0     C57691   9.252   9.295   1.108 -0.2811  0.3231 -0.7280
  428MOL0     C57692   9.161   9.190   1.073  1.1839  0.8275 -0.4892
  428MOL0     O57693   8.805   9.196   1.220 -0.1780  0.3174  0.2210
  428MOL0     C57694   8.605   9.043   1.104  0.2061 -0.1886 -0.1262
  428MOL0     C57695   8.511   8.960   1.049  0.3056  0.4162 -0.7051
  428MOL0     N57696   7.800   8.686   0.951 -0.0251  0.0543  0.3976
  428MOL0     N57697   7.676   8.695   0.932  1.6891 -0.5648  0.2808
  428MOL0     C57698   6.529   9.275   0.814  0.2582  0.4975 -0.2202
  428MOL0     C57699   6.477   9.373   0.891  0.0368  0.4013  0.1976
  428MOL0     C57700   6.289   9.670   1.135  1.0545  0.2635  1.0537
  428MOL0     C57701   6.184   9.668   1.222  0.3147  0.1911  0.4193
  428MOL0     C57702   6.121   9.787   1.269 -0.0114 -0.6057  0.2648
  428MOL0     C57703   6.169   9.908   1.213  0.0695  0.1922  0.8007
  428MOL0     O57704   6.123  10.034   1.249  0.5361 -1.2470  0.0804
  428MOL0     C57705   6.013  10.036   1.336 -0.3093 -0.7370 -0.7750
  428MOL0     C57706   5.962  10.181   1.337  0.5244  0.3808  0.5118
  428MOL0     C57707   5.880  10.209   1.463 -0.0087  0.1893 -0.6628
  428MOL0     C57708   5.898  10.348   1.529 -1.0154 -0.3228 -0.0683
  428MOL0     C57709   5.798  10.441   1.482  0.9597 -0.8573 -0.5408
  428MOL0     C57710   5.722  10.526   1.433  0.0236  0.4438  0.9920
  428MOL0     C57711   6.268   9.904   1.118  0.5915  0.7028 -0.1020
  428MOL0     C57712   6.328   9.784   1.074 -0.1150  0.2230  0.0516
  428MOL0     H57713   6.729   9.422   1.104  0.9063  0.8643 -0.4565
  428MOL0     H57714   6.794   9.215   1.008 -0.3006  0.7971  2.7719
  428MOL0     H57715   6.826   9.194   0.670 -0.9257  2.1469  1.7723
  428MOL0     H57716   6.886   9.136   0.825  1.6966 -2.0472 -0.2120
  428MOL0     H57717   6.867   8.903   0.760 -1.9023 -2.1727 -2.6087
  428MOL0     H57718   6.831   8.965   0.593  0.2486  1.8859 -0.5876
  428MOL0     H57719   7.039   9.095   0.607 -0.0310 -0.6405 -0.7755
  428MOL0     H57720   7.069   9.029   0.769  2.8386 -0.1364 -0.5659
  428MOL0     H57721   7.042   8.792   0.623 -1.6750  0.7765  0.3489
  428MOL0     H57722   7.075   8.887   0.493  0.8573 -0.3156  0.2574
  428MOL0     H57723   7.303   8.820   0.562  0.7843  0.9257 -0.4091
  428MOL0     H57724   7.283   8.968   0.658 -0.0341  0.0820  2.9661
  428MOL0     H57725   7.185   8.803   0.853  1.2172 -2.0504  0.9185
  428MOL0     H57726   7.226   8.686   0.731  0.1242 -0.0991 -3.8160
  428MOL0     H57727   7.401   8.907   0.858 -0.8334 -0.6710  2.3375
  428MOL0     H57728   7.409   8.735   0.904  1.2741  0.3518  1.3348
  428MOL0     H57729   7.558   8.876   0.687 -0.8025  1.3487  1.1552
  428MOL0     H57730   7.500   8.704   0.656  0.6423 -2.1924  2.4992
  428MOL0     H57731   7.771   8.765   0.627 -2.2114  2.7367 -0.0021
  428MOL0     H57732   8.004   8.555   0.782 -1.2728 -0.8261 -1.7995
  428MOL0     H57733   7.982   8.676   0.661 -1.5500 -1.3004 -0.1090
  428MOL0     H57734   8.053   8.774   0.949 -2.8037 -0.3798 -0.8962
  428MOL0     H57735   8.093   8.852   0.791  2.9870  0.0075  1.3177
  428MOL0     H57736   8.274   8.702   0.743  1.8082  4.3512  0.6895
  428MOL0     H57737   8.237   8.605   0.884  0.7737 -0.7494 -1.4978
  428MOL0     H57738   8.291   8.816   1.026  3.1311  2.9104  0.1183
  428MOL0     H57739   8.313   8.896   0.875 -2.6617  0.8779 -0.2409
  428MOL0     H57740   8.696   8.686   0.963 -3.4860 -0.8031 -0.8704
  428MOL0     H57741   8.949   8.789   1.147 -4.1090 -0.7976  1.9382
  428MOL0     H57742   8.913   8.709   0.995 -0.4429 -1.6409  3.2360
  428MOL0     H57743   8.992   8.860   0.983  0.9194 -0.3531  0.9893
  428MOL0     H57744   9.019   9.137   1.380 -0.8505 -0.1468 -0.6048
  428MOL0     H57745   9.225   9.278   1.444 -0.5327 -0.4183  0.7127
  428MOL0     H57746   9.529   9.283   1.289  1.8696  0.3623 -1.1561
  428MOL0     H57747   9.532   9.393   1.158  0.5762  0.2171 -0.3021
  428MOL0     H57748   9.575   9.579   1.311  1.1003 -0.7918 -2.9247
  428MOL0     H57749   9.534   9.480   1.455 -0.1213 -0.2067  0.6155
  428MOL0     H57750   9.739   9.353   1.419 -3.0443 -1.1301 -1.7341
  428MOL0     H57751   9.763   9.522   1.429 -2.8191 -1.6312  2.4706
  428MOL0     H57752   9.776   9.372   1.164 -2.6845  1.4840  0.0680
  428MOL0     H57753   9.780   9.552   1.180  0.2329  0.1184  0.0344
  428MOL0     H57754   9.968   9.330   1.279 -2.2722  1.6016  3.7685
  428MOL0     H57755  10.001   9.507   1.289  0.8429  1.3324 -2.4286
  428MOL0     H57756  10.139   9.433   1.097  0.8527 -1.5547 -3.6692
  428MOL0     H57757  10.000   9.342   1.041  2.5863 -0.9103 -0.4158
  428MOL0     H57758   9.991   9.652   1.065 -1.5583 -1.0614  2.2178
  428MOL0     H57759   9.893   9.548   0.961  0.5712  0.8460 -3.8199
  428MOL0     H57760  10.064   9.664   0.809  1.8751 -1.6449 -3.3331
  428MOL0     H57761  10.133   9.507   0.841 -1.1613 -1.3132  2.6988
  428MOL0     H57762   9.318   9.344   1.038 -0.8335  0.7113 -0.9829
  428MOL0     H57763   9.140   9.152   0.974 -0.0795  0.4568 -0.0979
  428MOL0     H57764   8.574   9.137   1.148 -3.5778 -2.6134  3.1046
  428MOL0     H57765   8.413   9.007   1.039 -0.5129 -1.1461 -0.3100
  428MOL0     H57766   6.480   9.235   0.726  2.3959  0.2906 -1.3947
  428MOL0     H57767   6.385   9.421   0.857 -0.6720 -0.5406  0.7482
  428MOL0     H57768   6.152   9.570   1.258 -1.4173  0.6201  0.1363
  428MOL0     H57769   6.037   9.784   1.339  0.8940  1.1328  1.4807
  428MOL0     H57770   5.932   9.976   1.293 -0.6333  0.3162 -1.6816
  428MOL0     H57771   6.054  10.014   1.435  1.9854  2.7848 -0.7642
  428MOL0     H57772   5.897  10.203   1.252 -0.2047  1.1594  1.2621
  428MOL0     H57773   6.053  10.241   1.331  2.5026 -2.1493  2.4333
  428MOL0     H57774   5.922  10.138   1.535 -1.7756 -0.5622 -0.3223
  428MOL0     H57775   5.772  10.199   1.448 -0.3026 -0.8006  1.6669
  428MOL0     H57776   5.992  10.399   1.509 -0.1684 -1.9888 -0.5505
  428MOL0     H57777   5.904  10.338   1.638  3.1331  0.6253 -0.0348
  428MOL0     H57778   5.663  10.584   1.366  0.6584  1.0243  0.9253
  428MOL0     H57779   6.290  10.001   1.076  3.2013 -0.0500 -0.6367
  428MOL0     H57780   6.404   9.797   0.998  1.5733 -1.3412  1.3802
  429MOL0     O57781   4.287   4.530   6.266  0.2261  0.1512 -0.2213
  429MOL0     C57782   4.352   4.632   6.266 -0.1049  0.1490 -0.3954
  429MOL0     O57783   4.388   4.709   6.376 -0.1326  0.5961 -0.6139
  429MOL0     C57784   4.351   4.679   6.505  0.2164 -1.1292 -0.1658
  429MOL0     C57785   4.250   4.587   6.549 -0.1410  0.6642 -0.3248
  429MOL0     C57786   4.225   4.574   6.686 -0.1330  0.0973 -1.1861
  429MOL0     C57787   4.293   4.636   6.783 -0.3966  0.3452  0.5486
  429MOL0     O57788   4.256   4.621   6.915  0.0731 -0.1648 -1.2245
  429MOL0     C57789   4.249   4.493   6.971 -0.2547 -0.5706 -0.2816
  429MOL0     C57790   4.284   4.504   7.123  0.6241  0.5643  0.2591
  429MOL0     C57791   4.414   4.577   7.144  0.0887  0.0530 -0.7397
  429MOL0     C57792   4.537   4.519   7.079  0.4506  0.2799 -0.0455
  429MOL0     C57793   4.657   4.607   7.123 -0.3149 -0.0404 -0.6868
  429MOL0     C57794   4.666   4.737   7.048 -0.0257  0.0754  0.7730
  429MOL0     C57795   4.801   4.814   7.077  0.4350  0.2747  0.1891
  429MOL0     C57796   4.795   4.903   7.199  0.3159 -0.1286  0.2098
  429MOL0     N57797   4.881   5.018   7.203  0.9917  0.4837 -0.1881
  429MOL0     C57798   4.891   5.110   7.113 -0.6719  0.1636  0.0106
  429MOL0     C57799   5.005   5.186   7.140  0.0605 -0.1332 -0.3335
  429MOL0     C57800   5.070   5.296   7.054 -0.1110  0.3088 -0.1182
  429MOL0     C57801   5.203   5.237   6.998  0.8994 -0.4314 -0.8683
  429MOL0     C57802   5.275   5.340   6.908 -0.2205 -0.2569  0.6482
  429MOL0     C57803   5.432   5.330   6.872 -0.3712 -0.6906  0.0279
  429MOL0     O57804   5.485   5.204   6.862  0.0218 -0.2580  0.6204
  429MOL0     C57805   5.435   5.128   6.755 -0.1085  0.1730 -0.1428
  429MOL0     C57806   5.469   4.994   6.756 -0.0459  0.2068 -0.9540
  429MOL0     C57807   5.423   4.903   6.664  0.2302  0.4048  0.5448
  429MOL0     C57808   5.470   4.766   6.648 -0.9955 -1.1650  0.0927
  429MOL0     C57809   5.340   4.950   6.563  0.4009  0.4299  0.5730
  429MOL0     C57810   5.288   4.861   6.458 -0.1887  0.2600  0.4931
  429MOL0     O57811   5.348   4.848   6.336 -0.1803  0.2528  0.8137
  429MOL0     C57812   5.289   4.763   6.241  0.4310  0.0439 -0.9015
  429MOL0     C57813   5.325   4.625   6.249  0.2376 -0.2281 -0.3156
  429MOL0     C57814   5.261   4.533   6.161 -0.9423 -0.2730  0.2038
  429MOL0     C57815   5.170   4.576   6.060  0.4441 -0.1786  0.0847
  429MOL0     O57816   5.117   4.480   5.974  0.3161 -0.3317 -0.1773
  429MOL0     C57817   5.029   4.529   5.870  0.4346 -0.2701 -0.0078
  429MOL0     C57818   5.031   4.424   5.759 -0.3893 -1.0202 -0.5340
  429MOL0     C57819   4.968   4.282   5.791 -1.5253  0.5581 -0.4540
  429MOL0     C57820   5.055   4.192   5.890  0.0995 -1.3081 -0.5447
  429MOL0     C57821   4.984   4.081   5.955  0.1629 -0.1406  0.5733
  429MOL0     C57822   4.875   4.014   5.870 -0.1990  0.7782 -0.6954
  429MOL0     C57823   4.818   3.898   5.946 -0.4263 -0.2841  0.8658
  429MOL0     C57824   4.741   3.803   5.845 -0.7699  0.0363 -0.7249
  429MOL0    Cl57825   4.574   3.843   5.855 -0.2897 -0.0973 -0.2047
  429MOL0     C57826   5.152   4.716   6.052 -0.6220  0.6879 -0.1457
  429MOL0     C57827   5.201   4.808   6.144 -0.4693  0.8280 -0.4636
  429MOL0     O57828   5.200   4.789   6.497 -0.2980 -0.6335 -0.7873
  429MOL0     C57829   5.318   5.087   6.544  0.1552 -0.4198 -0.0419
  429MOL0     C57830   5.367   5.176   6.640  0.1281  0.0644 -0.5932
  429MOL0     N57831   5.048   5.137   7.265  0.4070 -0.5340  0.4321
  429MOL0     N57832   4.975   5.041   7.298  0.0493 -0.1962 -0.4873
  429MOL0     C57833   4.397   4.721   6.744  0.8501 -0.1370 -0.1644
  429MOL0     C57834   4.426   4.739   6.610 -0.7661 -0.1104  0.7329
  429MOL0     C57835   4.416   4.657   6.139 -0.7241  0.7164  0.3091
  429MOL0     C57836   4.547   4.694   6.128 -0.3265  0.0321 -0.0467
  429MOL0     C57837   4.602   4.734   6.010  0.0947  0.2341 -0.2483
  429MOL0     C57838   4.535   4.716   5.889  0.2230 -0.9699  0.0218
  429MOL0     O57839   4.594   4.752   5.771  0.1063  0.2774  0.5577
  429MOL0     C57840   4.735   4.738   5.738  1.0377  0.2291  0.2249
  429MOL0     C57841   4.754   4.787   5.597 -0.3618  0.6136  0.0549
  429MOL0     C57842   4.675   4.708   5.487 -0.8976 -0.5296 -0.4894
  429MOL0     C57843   4.754   4.590   5.428  0.1844 -0.7377 -0.7475
  429MOL0     C57844   4.855   4.637   5.328  0.2317  1.1612 -0.1316
  429MOL0     C57845   4.934   4.676   5.252  0.4030 -0.7727  0.0762
  429MOL0     C57846   4.399   4.667   5.891 -0.8445 -0.3145  0.5345
  429MOL0     C57847   4.348   4.629   6.015 -0.6536  0.3364 -0.4256
  429MOL0     H57848   4.189   4.529   6.480  1.6490 -1.0265 -0.5629
  429MOL0     H57849   4.152   4.503   6.724 -1.1161  2.1708  1.0852
  429MOL0     H57850   4.149   4.455   6.952  0.3685 -2.0881 -0.7078
  429MOL0     H57851   4.321   4.432   6.916  1.4560  3.1211 -2.6002
  429MOL0     H57852   4.205   4.560   7.175  1.6168  1.6322  0.6582
  429MOL0     H57853   4.289   4.400   7.157 -0.8291  0.0525 -0.9551
  429MOL0     H57854   4.408   4.683   7.116  1.2900 -0.2881 -2.4438
  429MOL0     H57855   4.420   4.570   7.253 -3.4321 -2.0107 -0.5050
  429MOL0     H57856   4.542   4.416   7.114 -1.2017  0.5419  1.0797
  429MOL0     H57857   4.528   4.514   6.970  1.0344 -1.3904 -0.0359
  429MOL0     H57858   4.656   4.623   7.231  1.6233  0.4596 -0.6992
  429MOL0     H57859   4.749   4.550   7.110 -2.0610 -3.0406 -0.6029
  429MOL0     H57860   4.674   4.717   6.940 -0.4691  0.1415  0.7275
  429MOL0     H57861   4.592   4.817   7.060  1.4758  1.5214  0.7597
  429MOL0     H57862   4.886   4.746   7.081  1.7262  1.8891  1.8561
  429MOL0     H57863   4.825   4.871   6.987 -2.8253 -0.2914 -1.2064
  429MOL0     H57864   4.817   4.844   7.289 -0.3797  0.0415  0.4956
  429MOL0     H57865   4.691   4.930   7.217 -0.2474 -2.2093  0.2867
  429MOL0     H57866   4.833   5.109   7.021  1.1046  1.9058 -1.2243
  429MOL0     H57867   5.003   5.329   6.974  1.2155  1.3731 -0.8338
  429MOL0     H57868   5.095   5.385   7.112  1.8012  0.6460 -1.3601
  429MOL0     H57869   5.194   5.138   6.953  1.7334 -0.6200 -0.6500
  429MOL0     H57870   5.267   5.225   7.087  0.8618  2.5621 -0.3298
  429MOL0     H57871   5.281   5.440   6.953 -1.4938  0.8445 -1.4580
  429MOL0     H57872   5.212   5.355   6.820 -0.4949 -0.7173  0.7648
  429MOL0     H57873   5.486   5.368   6.960 -0.9850  0.4075 -0.0494
  429MOL0     H57874   5.465   5.393   6.789  3.9734 -3.9961 -1.1518
  429MOL0     H57875   5.541   4.965   6.832 -0.1133 -1.3115 -1.4382
  429MOL0     H57876   5.526   4.738   6.558 -2.7895  0.5461 -1.6579
  429MOL0     H57877   5.536   4.746   6.733  0.1235  0.6459 -0.2888
  429MOL0     H57878   5.382   4.702   6.658 -1.4447 -0.2262  3.0292
  429MOL0     H57879   5.417   4.605   6.303  0.5718  0.1998 -0.7184
  429MOL0     H57880   5.271   4.427   6.182 -1.5312 -0.1757  1.0535
  429MOL0     H57881   4.925   4.551   5.898  1.3597  4.1156  0.5879
  429MOL0     H57882   5.074   4.619   5.829  1.8582 -0.2960  1.3994
  429MOL0     H57883   4.965   4.464   5.681 -0.0273  1.1442  0.1984
  429MOL0     H57884   5.134   4.409   5.727  0.1330 -1.7951  1.4022
  429MOL0     H57885   4.963   4.218   5.703 -0.6371 -0.8027  0.4426
  429MOL0     H57886   4.869   4.297   5.835 -0.9922 -0.8178  1.3243
  429MOL0     H57887   5.142   4.148   5.841 -0.5175 -1.8151 -1.2051
  429MOL0     H57888   5.073   4.254   5.978 -2.4626 -0.9080 -0.2384
  429MOL0     H57889   4.932   4.127   6.040 -1.0804  0.2772 -0.3766
  429MOL0     H57890   5.056   4.004   5.985 -0.7026 -2.0306 -1.8783
  429MOL0     H57891   4.790   4.078   5.842 -1.1364 -0.7106 -1.4252
  429MOL0     H57892   4.914   3.977   5.775 -1.1598  0.0480 -0.8204
  429MOL0     H57893   4.752   3.943   6.021 -2.1180  1.6758 -1.6438
  429MOL0     H57894   4.887   3.842   6.010 -3.4073 -1.9584  2.8645
  429MOL0     H57895   4.753   3.697   5.867 -0.7495 -0.5860 -3.4249
  429MOL0     H57896   4.770   3.835   5.745 -0.0825 -1.4191 -1.0155
  429MOL0     H57897   5.103   4.753   5.962  1.9780  0.8700 -1.5956
  429MOL0     H57898   5.185   4.915   6.134  2.6706  1.6308  1.8110
  429MOL0     H57899   5.263   5.115   6.454 -2.4863 -0.4329  1.4733
  429MOL0     H57900   5.351   5.283   6.634  1.4355  0.3753  0.8177
  429MOL0     H57901   4.451   4.778   6.820 -0.2325  1.7165 -0.7296
  429MOL0     H57902   4.510   4.801   6.582 -0.6289  0.6775  2.7348
  429MOL0     H57903   4.612   4.700   6.215  2.9569 -2.0418 -2.1259
  429MOL0     H57904   4.703   4.773   6.017  0.3756 -0.6219  0.8851
  429MOL0     H57905   4.799   4.803   5.798  0.0095  1.2721  0.2125
  429MOL0     H57906   4.775   4.640   5.765  0.9244  0.0766 -0.1580
  429MOL0     H57907   4.862   4.798   5.580 -0.1639  4.2272  2.5125
  429MOL0     H57908   4.714   4.889   5.591 -0.0677  0.6901 -0.8281
  429MOL0     H57909   4.645   4.770   5.402 -0.8893 -0.4579 -0.4396
  429MOL0     H57910   4.578   4.683   5.531 -0.6394 -0.8939 -0.1190
  429MOL0     H57911   4.693   4.504   5.399  1.1576 -1.4807 -0.6490
  429MOL0     H57912   4.808   4.550   5.514 -1.7669 -0.2699  0.7376
  429MOL0     H57913   5.015   4.682   5.181 -1.1036 -0.4460 -1.7077
  429MOL0     H57914   4.345   4.657   5.798  0.0986 -0.5832  0.0077
  429MOL0     H57915   4.248   4.588   6.009 -0.0833 -1.2752  0.4130
  430MOL0     O57916   6.120   1.223   1.058  0.2860  0.3114  0.9110
  430MOL0     C57917   6.121   1.105   1.041 -0.0150 -0.1658  0.7310
  430MOL0     O57918   6.122   1.039   0.918  0.1291 -0.0977  0.1624
  430MOL0     C57919   6.084   1.104   0.799  1.3611  0.9237 -0.1587
  430MOL0     C57920   6.087   1.237   0.781  0.3408  0.4720 -0.1231
  430MOL0     C57921   6.066   1.276   0.649  0.0614  0.0083 -0.6574
  430MOL0     C57922   6.043   1.190   0.534 -0.7059  0.1987 -0.7319
  430MOL0     O57923   6.044   1.238   0.404 -0.2791  0.2566  0.0131
  430MOL0     C57924   6.081   1.376   0.386 -0.1958 -0.7021 -0.2437
  430MOL0     C57925   6.107   1.411   0.242  0.0766  0.4955  0.1847
  430MOL0     C57926   6.174   1.537   0.208 -0.1157 -0.4784 -0.1661
  430MOL0     C57927   6.321   1.561   0.246 -0.3391 -0.4831 -0.9812
  430MOL0     C57928   6.353   1.715   0.238 -0.4972  1.0867 -0.6696
  430MOL0     C57929   6.273   1.797   0.334 -0.5510 -0.3529  0.0695
  430MOL0     C57930   6.328   1.932   0.363  0.0680 -0.6104 -0.4328
  430MOL0     C57931   6.237   2.014   0.464 -0.4614  0.2971 -0.4205
  430MOL0     N57932   6.253   2.159   0.438 -0.1903 -0.1542  0.4484
  430MOL0     C57933   6.257   2.213   0.304 -0.0394 -0.4127  0.5317
  430MOL0     C57934   6.244   2.343   0.322  0.2250  0.2204 -0.3653
  430MOL0     C57935   6.234   2.452   0.226  0.1818 -0.0066 -0.3494
  430MOL0     C57936   6.084   2.476   0.197 -0.9471 -0.2800 -0.3851
  430MOL0     C57937   6.010   2.369   0.120 -0.6163 -0.3047 -0.0642
  430MOL0     C57938   5.870   2.398   0.068  0.0771  0.9332 -0.2840
  430MOL0     O57939   5.830   2.268   0.014  1.0032  0.5937  0.3506
  430MOL0     C57940   5.730   2.280  -0.077 -0.5627  0.1466 -0.7811
  430MOL0     C57941   5.723   2.167  -0.173  0.2605 -0.5048 -0.6284
  430MOL0     C57942   5.631   2.168  -0.278 -0.0569  0.6441  0.2459
  430MOL0     C57943   5.643   2.067  -0.383  0.3706 -0.1732 -0.1204
  430MOL0     C57944   5.548   2.279  -0.286 -1.7795 -0.5652  0.6422
  430MOL0     C57945   5.460   2.296  -0.405 -0.4193  0.0979  0.5729
  430MOL0     O57946   5.351   2.381  -0.381  0.2490 -0.2254 -0.2190
  430MOL0     C57947   5.258   2.401  -0.476  0.6832 -0.8161  0.1039
  430MOL0     C57948   5.278   2.504  -0.565 -0.3852 -0.5422  0.5521
  430MOL0     C57949   5.184   2.527  -0.666  0.4863 -0.0104 -0.3612
  430MOL0     C57950   5.064   2.456  -0.673 -0.1713  0.3032  0.4792
  430MOL0     O57951   4.966   2.483  -0.762 -0.3746 -0.6195 -0.1644
  430MOL0     C57952   4.832   2.469  -0.712  0.6827 -0.6442  1.3848
  430MOL0     C57953   4.724   2.498  -0.819  0.0154  0.5933 -0.2725
  430MOL0     C57954   4.757   2.408  -0.933 -0.7483 -0.4105 -0.5852
  430MOL0     C57955   4.652   2.459  -1.030 -0.3786  0.9039  0.1012
  430MOL0     C57956   4.654   2.357  -1.141 -0.2510  0.2517  0.7969
  430MOL0     C57957   4.604   2.433  -1.267 -0.2257 -0.2014 -0.2617
  430MOL0     C57958   4.549   2.329  -1.370  0.1862 -0.3547 -0.2718
  430MOL0     C57959   4.569   2.371  -1.511  0.3703  0.4115  0.0669
  430MOL0    Cl57960   4.491   2.530  -1.551  0.1247 -0.2454 -0.2347
  430MOL0     C57961   5.045   2.350  -0.581  0.0980  0.4191  1.0579
  430MOL0     C57962   5.140   2.321  -0.484 -0.5031 -0.0232 -0.2720
  430MOL0     O57963   5.486   2.250  -0.520 -1.0834 -0.6377 -0.8001
  430MOL0     C57964   5.542   2.377  -0.182 -0.2081 -0.8375  0.2221
  430MOL0     C57965   5.641   2.382  -0.087 -0.1265  0.1245  0.0173
  430MOL0     N57966   6.248   2.372   0.458  0.9609 -0.8572 -0.2356
  430MOL0     N57967   6.249   2.259   0.526 -0.6240  0.1194 -0.7054
  430MOL0     C57968   6.021   1.058   0.565 -0.7887  0.0361  0.7314
  430MOL0     C57969   6.048   1.017   0.697  0.3047  0.6379  0.3548
  430MOL0     C57970   6.102   1.024   1.160  0.1829 -0.1936  0.8140
  430MOL0     C57971   6.127   0.886   1.155  0.1441 -0.4511 -0.1012
  430MOL0     C57972   6.119   0.799   1.264 -0.6369 -0.7250 -0.1028
  430MOL0     C57973   6.065   0.850   1.380 -0.2921 -0.3100  0.0340
  430MOL0     O57974   6.007   0.764   1.474  0.4111  0.2740  0.4043
  430MOL0     C57975   6.058   0.623   1.487  0.6338 -0.5678  0.8933
  430MOL0     C57976   5.979   0.522   1.393 -1.2040 -1.0423 -0.3610
  430MOL0     C57977   5.832   0.544   1.399  0.1447  0.3231 -0.3813
  430MOL0     C57978   5.778   0.462   1.278  0.0787  1.2019 -0.0360
  430MOL0     C57979   5.633   0.498   1.260  0.1634  0.6943 -0.7641
  430MOL0     C57980   5.518   0.522   1.260  0.9268 -1.1816 -0.0319
  430MOL0     C57981   6.040   0.988   1.394  0.0649  0.0563  0.5398
  430MOL0     C57982   6.052   1.076   1.286 -0.1812  0.0879 -0.3471
  430MOL0     H57983   6.106   1.318   0.851 -1.1021 -1.3955  2.6017
  430MOL0     H57984   6.064   1.384   0.640 -0.4412 -0.0733 -1.5731
  430MOL0     H57985   5.998   1.440   0.415  0.5174 -0.1486  0.6459
  430MOL0     H57986   6.178   1.384   0.436  1.1430 -4.1054 -1.9443
  430MOL0     H57987   6.166   1.327   0.205  0.7236  1.7012 -1.6227
  430MOL0     H57988   6.012   1.418   0.188 -0.7320  2.9707  1.7251
  430MOL0     H57989   6.173   1.549   0.099 -3.8849  0.2048 -0.1886
  430MOL0     H57990   6.121   1.621   0.254 -1.3378 -3.1085  3.7482
  430MOL0     H57991   6.345   1.524   0.346  1.6532 -1.8274 -1.8918
  430MOL0     H57992   6.383   1.508   0.173 -1.3878 -0.6917 -1.7492
  430MOL0     H57993   6.456   1.721   0.273 -1.0124  3.4607  0.6294
  430MOL0     H57994   6.359   1.748   0.133  5.0321 -1.9455 -1.6763
  430MOL0     H57995   6.177   1.812   0.284 -1.6477 -3.1344  1.1483
  430MOL0     H57996   6.273   1.742   0.428  1.4105  3.5176  2.5960
  430MOL0     H57997   6.424   1.906   0.410 -0.6710 -1.9676  0.3965
  430MOL0     H57998   6.341   1.984   0.268 -0.5236  2.7970  1.1923
  430MOL0     H57999   6.260   1.990   0.568 -0.9060 -0.5943 -0.5149
  430MOL0     H58000   6.135   1.978   0.448 -0.8794  0.4668  1.6624
  430MOL0     H58001   6.246   2.166   0.207 -3.0821  0.7279  0.1995
  430MOL0     H58002   6.281   2.541   0.267  2.3391 -1.4704  0.5303
  430MOL0     H58003   6.287   2.426   0.134  1.4723 -1.7558  0.8242
  430MOL0     H58004   6.073   2.567   0.138  2.1482  0.6367  0.2503
  430MOL0     H58005   6.030   2.498   0.290 -1.2186  1.7704 -0.9745
  430MOL0     H58006   6.007   2.276   0.176 -1.9572 -0.7289 -0.7787
  430MOL0     H58007   6.084   2.357   0.041 -0.9447  2.3188 -0.8904
  430MOL0     H58008   5.872   2.482  -0.002  1.0336  0.2924 -1.0475
  430MOL0     H58009   5.805   2.438   0.146 -2.0615 -0.6163 -1.1842
  430MOL0     H58010   5.800   2.091  -0.164  0.3352 -0.2964  0.6965
  430MOL0     H58011   5.691   1.978  -0.340 -1.0486 -0.6806  0.4740
  430MOL0     H58012   5.545   2.028  -0.412 -0.2523  2.0299 -1.2069
  430MOL0     H58013   5.699   2.109  -0.467 -1.5232  4.8706  0.7478
  430MOL0     H58014   5.367   2.565  -0.563  1.5891 -3.2303  0.2360
  430MOL0     H58015   5.202   2.610  -0.735  3.1129 -0.6347 -0.5170
  430MOL0     H58016   4.808   2.371  -0.672 -0.2229  0.3010  3.2621
  430MOL0     H58017   4.816   2.534  -0.626 -0.9392  0.9234 -0.0270
  430MOL0     H58018   4.623   2.487  -0.777 -0.6363  0.0311 -1.9134
  430MOL0     H58019   4.734   2.602  -0.853  0.1137  0.4267 -0.7596
  430MOL0     H58020   4.749   2.305  -0.897  1.1084  0.2010  1.8753
  430MOL0     H58021   4.858   2.422  -0.974 -1.6443 -1.2616 -3.3521
  430MOL0     H58022   4.551   2.451  -0.990 -0.7237 -0.3233 -0.9366
  430MOL0     H58023   4.682   2.560  -1.061  3.1482  0.6849  2.2709
  430MOL0     H58024   4.592   2.273  -1.110  2.2470 -2.0124 -0.0048
  430MOL0     H58025   4.754   2.315  -1.157 -0.4228  1.0882 -4.4389
  430MOL0     H58026   4.519   2.498  -1.248 -1.3870 -1.3968 -1.2125
  430MOL0     H58027   4.684   2.490  -1.315 -2.8727  1.0868 -3.5016
  430MOL0     H58028   4.442   2.310  -1.357  0.8983 -4.2268  1.4351
  430MOL0     H58029   4.605   2.236  -1.358  1.0973  0.4530  2.5560
  430MOL0     H58030   4.523   2.300  -1.580 -1.8103  0.6149  1.2383
  430MOL0     H58031   4.677   2.366  -1.532  0.0873 -0.1536 -1.3878
  430MOL0     H58032   4.967   2.276  -0.594 -0.9626  1.9021 -1.7630
  430MOL0     H58033   5.129   2.232  -0.423 -0.6120  0.3369  0.2454
  430MOL0     H58034   5.452   2.436  -0.170 -0.7648 -1.5810 -0.1938
  430MOL0     H58035   5.640   2.472  -0.025 -0.0237 -1.8090  3.0069
  430MOL0     H58036   5.999   0.987   0.486  2.3070  0.7331 -0.9244
  430MOL0     H58037   6.044   0.910   0.710 -1.9015  0.6416  0.0892
  430MOL0     H58038   6.149   0.846   1.056  2.3997  1.0216 -0.2516
  430MOL0     H58039   6.150   0.696   1.258 -0.2856 -0.5365 -2.3184
  430MOL0     H58040   6.162   0.617   1.454  0.8522 -1.6326  1.6919
  430MOL0     H58041   6.065   0.591   1.592 -2.6051 -1.6523  0.9095
  430MOL0     H58042   6.005   0.416   1.391 -0.4516 -0.9506  1.6408
  430MOL0     H58043   6.003   0.556   1.292 -1.5416 -3.0124 -1.1596
  430MOL0     H58044   5.811   0.649   1.377 -0.4709  0.3264  0.2153
  430MOL0     H58045   5.780   0.514   1.490 -0.5482  0.6692 -0.6547
  430MOL0     H58046   5.783   0.354   1.295  0.7567  0.9028 -1.8937
  430MOL0     H58047   5.832   0.474   1.184 -0.8078 -0.3612 -0.7862
  430MOL0     H58048   5.413   0.544   1.258  1.1301 -0.2041 -0.1228
  430MOL0     H58049   5.996   1.037   1.480  3.1202 -1.6576  3.2887
  430MOL0     H58050   6.016   1.176   1.308 -2.3597 -0.4565 -1.2345
  431MOL0     O58051  10.240   5.362   2.571 -0.3819 -0.5566 -0.4156
  431MOL0     C58052  10.320   5.338   2.663  1.4623 -0.8207 -0.2221
  431MOL0     O58053  10.321   5.397   2.784  0.0234 -0.0514  0.6671
  431MOL0     C58054  10.201   5.438   2.837  0.4682 -0.4079  0.6761
  431MOL0     C58055  10.193   5.567   2.893  0.9177 -1.3323  0.1319
  431MOL0     C58056  10.081   5.610   2.960  0.0096 -1.1368 -0.2647
  431MOL0     C58057   9.965   5.536   2.961  0.2379  0.4460 -0.3120
  431MOL0     O58058   9.853   5.566   3.034  0.3799  0.4133  0.2512
  431MOL0     C58059   9.844   5.700   3.097 -0.5748 -0.1694 -0.0972
  431MOL0     C58060   9.714   5.694   3.189  0.0420 -0.7630  0.2468
  431MOL0     C58061   9.686   5.838   3.233  1.0484 -0.0568  0.1276
  431MOL0     C58062   9.763   5.872   3.364  1.0682  0.4322 -0.5805
  431MOL0     C58063   9.732   6.018   3.408 -0.2422  0.5778  0.4463
  431MOL0     C58064   9.591   6.036   3.476 -0.5141 -0.0076 -0.5238
  431MOL0     C58065   9.588   6.180   3.525  0.1000  0.9355  0.8098
  431MOL0     C58066   9.440   6.209   3.576  0.5038  0.9267 -0.3321
  431MOL0     N58067   9.397   6.141   3.703  0.5363 -0.2954  0.0776
  431MOL0     C58068   9.444   6.163   3.835 -0.2920  0.4189  0.3710
  431MOL0     C58069   9.381   6.062   3.906  1.1482  0.7299  0.2794
  431MOL0     C58070   9.393   6.052   4.059  0.4369  0.2768 -0.0821
  431MOL0     C58071   9.292   6.142   4.127  0.1161  0.3265  0.4114
  431MOL0     C58072   9.300   6.112   4.271 -0.3604  0.2698 -0.3521
  431MOL0     C58073   9.201   6.214   4.337  0.7145  0.1157  0.3092
  431MOL0     O58074   9.204   6.175   4.477  0.0237  0.5542  0.0988
  431MOL0     C58075   9.118   6.234   4.557  0.2308  0.4519 -0.0063
  431MOL0     C58076   9.040   6.344   4.519 -0.3489  0.1301  0.1592
  431MOL0     C58077   8.940   6.388   4.607  1.3074 -0.5758  0.1245
  431MOL0     C58078   8.846   6.487   4.538  0.7128  0.1485  0.6950
  431MOL0     C58079   8.920   6.338   4.733 -0.5156  0.4888 -0.1549
  431MOL0     C58080   8.818   6.378   4.840 -0.5032  0.0825  0.8346
  431MOL0     O58081   8.807   6.303   4.944  0.4301 -0.1076  0.1195
  431MOL0     C58082   8.726   6.355   5.045 -0.1557  0.5835 -0.4133
  431MOL0     C58083   8.777   6.355   5.171  1.2750 -0.7845 -0.1245
  431MOL0     C58084   8.697   6.391   5.283  0.2170  0.9149 -0.1537
  431MOL0     C58085   8.564   6.425   5.262  0.6191 -0.1794 -1.2849
  431MOL0     O58086   8.506   6.475   5.369  0.1967  0.1515  0.0517
  431MOL0     C58087   8.360   6.507   5.381 -0.6686 -0.0725  0.3128
  431MOL0     C58088   8.270   6.387   5.376 -0.0302  0.3791  0.6279
  431MOL0     C58089   8.299   6.308   5.504  1.3895  0.3438  0.2674
  431MOL0     C58090   8.202   6.192   5.535  0.2311 -0.4506 -0.6278
  431MOL0     C58091   8.196   6.154   5.676 -0.1462  0.0234 -0.1176
  431MOL0     C58092   8.327   6.123   5.745 -0.1846  0.3071 -0.2854
  431MOL0     C58093   8.315   6.094   5.897 -0.3466  0.1256  0.3607
  431MOL0     C58094   8.292   5.945   5.910  1.5575  0.6975 -0.9644
  431MOL0    Cl58095   8.315   5.878   6.076  0.3086 -0.4351  0.1106
  431MOL0     C58096   8.505   6.423   5.130 -0.0516  0.1484 -0.6775
  431MOL0     C58097   8.584   6.374   5.027 -0.7584  0.9167  0.7572
  431MOL0     O58098   8.749   6.471   4.807  0.1730  0.8156  0.0477
  431MOL0     C58099   9.011   6.229   4.770 -0.1586 -0.4869  1.0309
  431MOL0     C58100   9.099   6.178   4.678 -0.7115 -0.5425 -0.6133
  431MOL0     N58101   9.289   5.994   3.818 -0.4115  0.3949  0.9234
  431MOL0     N58102   9.305   6.041   3.698 -0.3216 -0.8607 -0.5201
  431MOL0     C58103   9.966   5.414   2.892  0.4060  0.8820 -0.7320
  431MOL0     C58104  10.082   5.363   2.836  0.2998 -1.2023 -0.6995
  431MOL0     C58105  10.421   5.245   2.631  0.0041 -0.1008  0.4213
  431MOL0     C58106  10.489   5.182   2.733  0.4114  0.0566 -0.1855
  431MOL0     C58107  10.599   5.099   2.706  0.1975  0.3662 -0.8940
  431MOL0     C58108  10.651   5.088   2.578 -0.7954 -0.3562  0.5666
  431MOL0     O58109  10.760   5.013   2.537  0.6729 -0.3271  0.0875
  431MOL0     C58110  10.870   5.026   2.628 -1.0089 -0.3427 -0.0703
  431MOL0     C58111  11.003   5.037   2.549 -0.0851  0.3214 -0.0421
  431MOL0     C58112  11.030   5.173   2.490 -0.6200  0.0325 -0.0037
  431MOL0     C58113  11.164   5.179   2.420  1.0565  0.5688  0.7584
  431MOL0     C58114  11.183   5.320   2.372 -0.1467 -0.3675  0.4893
  431MOL0     C58115  11.190   5.437   2.335  0.0898  0.5456 -0.1673
  431MOL0     C58116  10.577   5.149   2.474  0.0562  0.1639  0.5947
  431MOL0     C58117  10.466   5.231   2.499 -0.6238 -0.1789 -0.6513
  431MOL0     H58118  10.279   5.634   2.895  0.0537 -0.1825 -0.4137
  431MOL0     H58119  10.087   5.707   3.008  4.4254 -1.5750  0.4702
  431MOL0     H58120   9.934   5.706   3.159 -2.7239 -1.1311  3.4034
  431MOL0     H58121   9.828   5.780   3.025 -2.1964 -0.6142 -0.2626
  431MOL0     H58122   9.629   5.655   3.133  0.6492 -0.9424 -0.5875
  431MOL0     H58123   9.724   5.629   3.276 -3.2279 -0.7890  0.7037
  431MOL0     H58124   9.706   5.902   3.147  0.7871 -0.9598 -0.6158
  431MOL0     H58125   9.579   5.846   3.256  0.6132 -3.2128 -0.3228
  431MOL0     H58126   9.733   5.814   3.453 -1.0807  0.3605 -1.2819
  431MOL0     H58127   9.870   5.857   3.348  1.4612  3.7488 -1.7955
  431MOL0     H58128   9.806   6.049   3.483  1.4122 -0.1772 -0.8191
  431MOL0     H58129   9.739   6.099   3.335 -0.2980  3.3579  3.2947
  431MOL0     H58130   9.508   6.004   3.412  0.3104 -0.2420 -1.4976
  431MOL0     H58131   9.580   5.963   3.557 -0.4450 -3.4867 -3.3972
  431MOL0     H58132   9.659   6.197   3.606  0.1174 -1.6928  1.4126
  431MOL0     H58133   9.610   6.257   3.450 -2.7085 -0.0526 -1.1944
  431MOL0     H58134   9.368   6.180   3.500  1.5326 -0.3170 -0.8793
  431MOL0     H58135   9.447   6.316   3.600 -0.1329  1.4000 -2.1293
  431MOL0     H58136   9.507   6.240   3.879  1.0069 -0.7187  0.5607
  431MOL0     H58137   9.381   5.946   4.082 -3.7150  0.1074 -2.0904
  431MOL0     H58138   9.493   6.088   4.087  0.5422 -0.0355 -0.0552
  431MOL0     H58139   9.188   6.120   4.099 -1.5430  0.8624  5.1130
  431MOL0     H58140   9.316   6.247   4.108  0.0328 -0.2443 -3.5316
  431MOL0     H58141   9.402   6.136   4.301 -0.6049 -0.0396  0.7578
  431MOL0     H58142   9.270   6.009   4.293  4.3420 -0.8682  2.2262
  431MOL0     H58143   9.103   6.219   4.288  1.1915  3.3453 -0.5808
  431MOL0     H58144   9.252   6.310   4.319 -1.0090  1.2345  1.1543
  431MOL0     H58145   9.057   6.402   4.429  1.7773  3.7987  2.6646
  431MOL0     H58146   8.828   6.576   4.598 -0.0253 -0.8110  1.9441
  431MOL0     H58147   8.878   6.504   4.434 -0.4585  0.3781  0.3599
  431MOL0     H58148   8.750   6.434   4.537  0.3611  0.7643  0.8779
  431MOL0     H58149   8.882   6.337   5.191  1.7714  2.5772  1.0391
  431MOL0     H58150   8.759   6.398   5.372 -2.1898  3.0778  1.5212
  431MOL0     H58151   8.347   6.555   5.479  1.6999 -0.5883  0.9633
  431MOL0     H58152   8.329   6.574   5.301  2.0010  0.9408  0.0041
  431MOL0     H58153   8.169   6.430   5.379 -0.7822 -0.5743 -3.7013
  431MOL0     H58154   8.267   6.322   5.288 -0.3015  1.3817 -0.1315
  431MOL0     H58155   8.278   6.379   5.584  0.2094  0.0308  0.2438
  431MOL0     H58156   8.401   6.268   5.495  0.8532 -0.6027 -3.0765
  431MOL0     H58157   8.097   6.220   5.521 -0.3493 -1.3509  1.5658
  431MOL0     H58158   8.215   6.106   5.469 -0.1065 -0.0251 -1.2589
  431MOL0     H58159   8.134   6.064   5.668  0.6152 -0.3847 -1.7942
  431MOL0     H58160   8.143   6.234   5.727 -0.4325 -1.1596  1.5325
  431MOL0     H58161   8.370   6.034   5.698  0.5859  0.2433  0.5029
  431MOL0     H58162   8.401   6.204   5.737 -0.0906  0.4511  1.5811
  431MOL0     H58163   8.226   6.151   5.927  0.9633 -0.0758  5.6720
  431MOL0     H58164   8.399   6.113   5.965 -1.1588 -2.2456  2.1246
  431MOL0     H58165   8.359   5.885   5.849  1.2090 -2.8678  1.8550
  431MOL0     H58166   8.188   5.921   5.886  1.3767 -0.1335  0.5525
  431MOL0     H58167   8.404   6.450   5.103  0.0730  1.3622 -0.0131
  431MOL0     H58168   8.551   6.346   4.928  0.1013 -3.0821  1.4426
  431MOL0     H58169   9.011   6.181   4.868  1.5743 -3.8967 -0.4557
  431MOL0     H58170   9.165   6.096   4.703  0.1431  0.0457 -0.8959
  431MOL0     H58171   9.873   5.358   2.897 -0.7429  2.8332  1.5901
  431MOL0     H58172  10.078   5.263   2.796 -0.3431 -1.5368  0.1558
  431MOL0     H58173  10.462   5.181   2.839 -1.6474  0.3309 -0.6583
  431MOL0     H58174  10.648   5.042   2.784 -1.0819 -1.4694 -1.3869
  431MOL0     H58175  10.875   5.099   2.709  0.8150 -0.6000  0.0848
  431MOL0     H58176  10.871   4.928   2.678  2.4015 -0.1116  0.5342
  431MOL0     H58177  10.998   4.968   2.465  2.8933 -0.7912  0.5788
  431MOL0     H58178  11.080   5.008   2.621 -1.1451 -2.4194  0.1228
  431MOL0     H58179  11.036   5.249   2.568  2.5665 -0.4649  0.3644
  431MOL0     H58180  10.948   5.193   2.420  0.0850 -3.1024 -1.9562
  431MOL0     H58181  11.165   5.105   2.340 -1.6962  0.3704  0.8125
  431MOL0     H58182  11.243   5.151   2.490  0.5570 -1.9647  0.4220
  431MOL0     H58183  11.187   5.543   2.321  0.3701  1.0057  2.6747
  431MOL0     H58184  10.599   5.151   2.368 -2.6243  0.6279 -0.0274
  431MOL0     H58185  10.406   5.282   2.424 -0.0689  1.6271  0.0724
  432MOL0     O58186   3.899   0.407  10.826  0.5130  0.0416  0.4228
  432MOL0     C58187   3.781   0.385  10.834  0.5035 -0.4598  0.1256
  432MOL0     O58188   3.685   0.472  10.799  0.3071  0.2963  0.4101
  432MOL0     C58189   3.711   0.569  10.700  0.3534  0.6616 -0.9715
  432MOL0     C58190   3.784   0.548  10.585  0.9972 -0.1778 -0.2713
  432MOL0     C58191   3.814   0.651  10.491 -0.3803  1.1391  0.2231
  432MOL0     C58192   3.755   0.774  10.510 -0.3818 -0.3629  0.3830
  432MOL0     O58193   3.772   0.864  10.408 -0.3607 -0.5958 -0.2720
  432MOL0     C58194   3.709   0.990  10.407 -0.2888 -0.2173  0.1626
  432MOL0     C58195   3.797   1.079  10.331  0.3410  0.1642  0.3269
  432MOL0     C58196   3.947   1.065  10.374 -0.1040 -0.8540  0.2792
  432MOL0     C58197   4.026   1.158  10.280 -0.8207 -0.3489  0.3766
  432MOL0     C58198   4.172   1.185  10.333 -0.2766  0.2010  0.3620
  432MOL0     C58199   4.182   1.276  10.451  0.6897 -0.3714  0.4585
  432MOL0     C58200   4.326   1.304  10.493  0.2505  1.0401 -0.2019
  432MOL0     C58201   4.352   1.439  10.552  0.3261  0.0116  0.5212
  432MOL0     N58202   4.277   1.459  10.679 -0.0982  0.2401  0.2673
  432MOL0     C58203   4.152   1.513  10.699 -0.4361 -0.4257 -0.8235
  432MOL0     C58204   4.144   1.514  10.834  0.7949 -0.7123  0.0590
  432MOL0     C58205   4.021   1.564  10.909 -0.2224 -0.3993  0.3351
  432MOL0     C58206   3.909   1.462  10.890 -0.1330 -0.0695 -0.2476
  432MOL0     C58207   3.823   1.491  10.763 -1.2415 -0.0489  0.1608
  432MOL0     C58208   3.716   1.392  10.750  0.1682  0.2686 -0.2294
  432MOL0     O58209   3.641   1.419  10.632  0.1929  0.0837  0.3228
  432MOL0     C58210   3.554   1.316  10.588 -0.0798 -0.6595  0.2718
  432MOL0     C58211   3.494   1.328  10.460  0.3378 -0.5129 -0.0356
  432MOL0     C58212   3.407   1.235  10.408  1.0534  0.0388 -0.2284
  432MOL0     C58213   3.370   1.242  10.256  0.1416 -0.0360  0.4089
  432MOL0     C58214   3.364   1.121  10.482 -0.7584 -0.3766 -0.4004
  432MOL0     C58215   3.258   1.028  10.440 -0.7326  0.3917  0.0005
  432MOL0     O58216   3.191   0.973  10.547  0.4558 -0.1728 -0.0939
  432MOL0     C58217   3.178   0.836  10.565  0.1596 -0.2921 -0.2197
  432MOL0     C58218   3.280   0.745  10.569 -0.3114  0.4663 -0.2073
  432MOL0     C58219   3.261   0.607  10.593 -0.7493 -0.2362 -0.2801
  432MOL0     C58220   3.128   0.557  10.609  0.7499  0.3282  0.3481
  432MOL0     O58221   3.098   0.423  10.637 -0.1610 -0.2795 -0.1823
  432MOL0     C58222   3.005   0.353  10.548 -0.2817 -0.9124 -0.6513
  432MOL0     C58223   3.017   0.401  10.399  0.4286 -0.3080 -0.6128
  432MOL0     C58224   3.154   0.374  10.346 -1.3846  0.8871  0.9835
  432MOL0     C58225   3.156   0.338  10.193 -0.0797  0.1212 -0.2462
  432MOL0     C58226   3.109   0.460  10.106 -0.0748 -0.7802  0.0457
  432MOL0     C58227   3.099   0.418   9.958 -0.0066  0.1176 -0.1352
  432MOL0     C58228   3.229   0.358   9.891 -0.8825 -0.6058 -0.0063
  432MOL0     C58229   3.189   0.301   9.744 -0.0347 -0.1346  0.0942
  432MOL0    Cl58230   3.056   0.176   9.755 -0.1894  0.1424  0.0850
  432MOL0     C58231   3.022   0.650  10.600  0.1434 -0.4301  0.0949
  432MOL0     C58232   3.045   0.785  10.588 -0.9615  0.2443  0.3340
  432MOL0     O58233   3.265   0.986  10.321 -0.2822  0.7369 -0.3993
  432MOL0     C58234   3.417   1.123  10.617  0.3987  0.0558 -0.0158
  432MOL0     C58235   3.510   1.211  10.671  0.7868  1.1983  0.3745
  432MOL0     N58236   4.271   1.487  10.893 -0.8544 -0.7147  0.1109
  432MOL0     N58237   4.350   1.460  10.798  0.3152 -0.1242  0.0643
  432MOL0     C58238   3.675   0.797  10.624 -0.6854 -0.6092  0.0625
  432MOL0     C58239   3.656   0.696  10.717 -0.2622  0.0241  0.8112
  432MOL0     C58240   3.728   0.262  10.902  0.3975 -0.7837 -0.9327
  432MOL0     C58241   3.593   0.225  10.908 -0.1874  0.1654  1.0123
  432MOL0     C58242   3.551   0.095  10.951  1.0110 -0.5570  0.2552
  432MOL0     C58243   3.639  -0.002  10.997 -0.0463 -0.3242 -0.6782
  432MOL0     O58244   3.596  -0.123  11.035  0.4512 -0.1024  0.0673
  432MOL0     C58245   3.666  -0.189  11.141 -0.0991  0.8049  1.0410
  432MOL0     C58246   3.590  -0.310  11.201  0.5688 -0.1492  0.0219
  432MOL0     C58247   3.464  -0.272  11.291 -0.3077  1.4326 -0.1830
  432MOL0     C58248   3.393  -0.401  11.341  0.0972 -0.0214  0.4664
  432MOL0     C58249   3.491  -0.460  11.441  0.1657 -0.3272  0.0344
  432MOL0     C58250   3.576  -0.494  11.524 -0.1632 -0.1887  1.1993
  432MOL0     C58251   3.777   0.036  10.988  0.6871  0.3999 -0.2688
  432MOL0     C58252   3.821   0.163  10.948 -0.2264 -0.0616  0.6990
  432MOL0     H58253   3.819   0.450  10.557 -1.1142 -0.7598 -1.1165
  432MOL0     H58254   3.872   0.628  10.402 -1.4949 -1.1522  0.0136
  432MOL0     H58255   3.608   0.978  10.366  0.7909 -1.0423 -2.4827
  432MOL0     H58256   3.701   1.037  10.505 -0.9969 -1.0795  0.5207
  432MOL0     H58257   3.778   1.056  10.226 -3.6940  1.0725  0.6756
  432MOL0     H58258   3.766   1.183  10.344  3.2785  0.9774  1.6532
  432MOL0     H58259   3.951   1.093  10.480 -2.1621 -1.8797  0.6843
  432MOL0     H58260   3.999   0.970  10.357  1.1437 -0.0366 -0.6366
  432MOL0     H58261   4.041   1.117  10.179  0.8472  1.1438 -0.0340
  432MOL0     H58262   3.974   1.254  10.280  2.2708  1.4638  0.8334
  432MOL0     H58263   4.215   1.087  10.357  3.5512  1.8603  1.0782
  432MOL0     H58264   4.234   1.238  10.260  2.7700  0.1846  2.7288
  432MOL0     H58265   4.127   1.369  10.438 -0.2939 -1.1432 -1.2145
  432MOL0     H58266   4.142   1.226  10.540 -2.0197 -2.1849 -1.6239
  432MOL0     H58267   4.354   1.225  10.563 -0.5815  0.0409 -0.9496
  432MOL0     H58268   4.399   1.306  10.412  3.7318  1.1198  2.7253
  432MOL0     H58269   4.326   1.525  10.490 -0.6904  0.6544  1.7712
  432MOL0     H58270   4.460   1.457  10.555 -0.0038  2.4839  0.1845
  432MOL0     H58271   4.084   1.542  10.620 -1.1178 -0.3576 -0.2310
  432MOL0     H58272   4.041   1.581  11.015  2.0917 -1.6236  0.1558
  432MOL0     H58273   4.002   1.659  10.858 -1.0903 -1.3649 -1.2205
  432MOL0     H58274   3.845   1.466  10.980  0.9169 -1.1725  0.5847
  432MOL0     H58275   3.951   1.361  10.880  1.2291  0.5261 -0.6898
  432MOL0     H58276   3.875   1.494  10.667 -2.2622 -2.1462 -0.5035
  432MOL0     H58277   3.772   1.588  10.772  2.1077  1.8190  0.9348
  432MOL0     H58278   3.650   1.377  10.836 -0.3072  0.5273 -0.5486
  432MOL0     H58279   3.768   1.296  10.739 -2.4928 -1.1593 -1.2511
  432MOL0     H58280   3.530   1.411  10.401  0.4588 -1.2811 -1.0883
  432MOL0     H58281   3.394   1.151  10.200  2.3257  0.0338  1.1434
  432MOL0     H58282   3.262   1.261  10.245  0.4050  0.1895 -2.8532
  432MOL0     H58283   3.407   1.335  10.212 -2.1926 -0.3109 -2.5181
  432MOL0     H58284   3.383   0.779  10.567 -0.2628  0.3899  0.7344
  432MOL0     H58285   3.355   0.563  10.622  0.4122  1.1927 -1.7325
  432MOL0     H58286   3.011   0.244  10.555 -1.4657 -1.2385 -3.4412
  432MOL0     H58287   2.908   0.379  10.591  0.5990 -0.4387  1.1412
  432MOL0     H58288   2.942   0.360  10.330  0.9542 -0.9705 -0.7980
  432MOL0     H58289   3.006   0.510  10.391 -1.2915 -0.4055  0.0205
  432MOL0     H58290   3.212   0.307  10.410 -2.0595 -0.9678 -0.2843
  432MOL0     H58291   3.205   0.470  10.356  0.3582  0.0906  0.0871
  432MOL0     H58292   3.252   0.304  10.154 -0.4554  0.9250 -1.9441
  432MOL0     H58293   3.082   0.258  10.178  0.5268 -0.8819  1.7552
  432MOL0     H58294   3.173   0.549  10.110  1.4787 -1.7717 -1.3684
  432MOL0     H58295   3.013   0.500  10.139  0.8726  1.5086  0.1864
  432MOL0     H58296   3.018   0.345   9.948 -0.0122 -0.0511  1.0574
  432MOL0     H58297   3.062   0.502   9.900 -0.2397  0.2629  0.2231
  432MOL0     H58298   3.264   0.272   9.948  0.1185  0.5222  1.1376
  432MOL0     H58299   3.303   0.438   9.879  0.7217 -2.1893 -1.2629
  432MOL0     H58300   3.284   0.267   9.701  0.9662  0.9099  1.4003
  432MOL0     H58301   3.140   0.381   9.687 -0.1667 -1.4085 -1.6906
  432MOL0     H58302   2.921   0.619  10.625  1.2949 -1.3075  4.3884
  432MOL0     H58303   2.962   0.856  10.588  0.1062  1.6003  2.4911
  432MOL0     H58304   3.370   1.057  10.690 -0.0149  0.6333  0.2550
  432MOL0     H58305   3.523   1.208  10.778  0.0540 -0.1987  0.4460
  432MOL0     H58306   3.626   0.892  10.644  1.0759  0.5054 -0.7019
  432MOL0     H58307   3.597   0.720  10.804 -0.7120  1.9548  0.0275
  432MOL0     H58308   3.522   0.288  10.855 -1.0200  0.3643  2.3295
  432MOL0     H58309   3.448   0.064  10.932  0.8943 -0.9269  1.4014
  432MOL0     H58310   3.761  -0.218  11.096 -1.0488  1.3775 -1.4811
  432MOL0     H58311   3.690  -0.115  11.218  0.1026  2.2607 -0.3614
  432MOL0     H58312   3.662  -0.366  11.260  0.1399  1.5799  2.3282
  432MOL0     H58313   3.553  -0.374  11.120 -0.3919  2.6489 -1.9194
  432MOL0     H58314   3.405  -0.232  11.209 -0.8006  0.6541 -0.2189
  432MOL0     H58315   3.481  -0.192  11.363  1.2023 -0.4473  1.6871
  432MOL0     H58316   3.373  -0.473  11.261 -2.6796 -0.1601  1.2006
  432MOL0     H58317   3.296  -0.392  11.390 -0.4656  1.7676 -0.8696
  432MOL0     H58318   3.655  -0.516  11.593 -0.6241  0.3439  1.9048
  432MOL0     H58319   3.846  -0.043  11.014 -0.1955  0.4325  2.4519
  432MOL0     H58320   3.927   0.186  10.959 -0.3092 -0.8884  4.4770
  433MOL0     O58321   0.894  11.287  10.235  0.3265  0.1263  1.1693
  433MOL0     C58322   0.872  11.398  10.181  1.0123  0.4179  0.2565
  433MOL0     O58323   0.876  11.517  10.243 -0.1643 -0.4501 -0.0238
  433MOL0     C58324   0.894  11.504  10.375  0.2146 -0.6221 -0.6250
  433MOL0     C58325   0.793  11.439  10.455 -0.1133 -0.7959  0.0535
  433MOL0     C58326   0.823  11.425  10.596 -0.7141  0.6595  0.8473
  433MOL0     C58327   0.940  11.478  10.651  0.0558  0.1887  0.9988
  433MOL0     O58328   0.955  11.457  10.782 -0.0471  0.5204 -0.1330
  433MOL0     C58329   1.078  11.461  10.852  0.4517 -0.0600  0.2901
  433MOL0     C58330   1.170  11.347  10.796  0.1157 -0.2433 -0.0887
  433MOL0     C58331   1.296  11.320  10.872 -0.2057  0.8728 -0.0132
  433MOL0     C58332   1.383  11.454  10.902  0.4372 -0.3369  0.0195
  433MOL0     C58333   1.521  11.422  10.968  0.1937 -0.0016  0.6170
  433MOL0     C58334   1.608  11.543  10.979  0.4193  0.2072 -0.1026
  433MOL0     C58335   1.726  11.504  11.060 -0.5495 -0.7872 -0.7154
  433MOL0     C58336   1.817  11.627  11.087 -0.0824 -0.2401  0.2915
  433MOL0     N58337   1.911  11.630  11.197  0.9755  0.5044  0.5626
  433MOL0     C58338   1.971  11.514  11.242  0.4181  0.2055 -0.2850
  433MOL0     C58339   2.051  11.556  11.344 -0.2510  0.1203  0.7569
  433MOL0     C58340   2.161  11.473  11.408 -0.7232 -0.5203  1.0567
  433MOL0     C58341   2.101  11.367  11.500  0.8340  0.2090  0.4515
  433MOL0     C58342   2.219  11.292  11.565 -0.6685  0.1164 -1.1518
  433MOL0     C58343   2.171  11.166  11.632 -0.5693  0.1202  0.4112
  433MOL0     O58344   2.096  11.189  11.751 -0.0434 -0.3173 -0.0367
  433MOL0     C58345   2.179  11.259  11.847  0.0131  0.0305  0.6025
  433MOL0     C58346   2.315  11.224  11.877 -0.1989 -0.8318  0.1300
  433MOL0     C58347   2.384  11.279  11.995 -0.0646 -0.3797  0.7631
  433MOL0     C58348   2.532  11.247  12.017 -0.0198  0.8417 -0.5501
  433MOL0     C58349   2.322  11.381  12.072 -0.3624  0.3599  0.9866
  433MOL0     C58350   2.388  11.444  12.192  0.7555 -0.4640  1.0552
  433MOL0     O58351   2.305  11.533  12.257 -0.6359 -0.7659  0.7373
  433MOL0     C58352   2.353  11.658  12.299  0.2361  1.7663 -0.5562
  433MOL0     C58353   2.489  11.697  12.319  0.4557  0.7629 -0.4517
  433MOL0     C58354   2.515  11.827  12.371 -0.4408 -0.6278  0.3927
  433MOL0     C58355   2.421  11.914  12.413  0.3993  0.8159  0.0879
  433MOL0     O58356   2.484  12.018  12.474  0.4000  0.0089  0.0531
  433MOL0     C58357   2.417  12.083  12.579  0.2320  0.0306 -0.4898
  433MOL0     C58358   2.431  12.233  12.557  0.1849  0.4475 -0.3785
  433MOL0     C58359   2.443  12.325  12.675 -0.3898 -0.4956  0.7108
  433MOL0     C58360   2.354  12.303  12.796 -0.1282 -0.2641 -1.0015
  433MOL0     C58361   2.351  12.412  12.901 -1.0864 -0.1533  0.1459
  433MOL0     C58362   2.320  12.362  13.039  0.0308 -0.2232 -0.1839
  433MOL0     C58363   2.175  12.319  13.072 -0.1569 -0.8935 -0.0533
  433MOL0     C58364   2.133  12.172  13.075 -0.2783  0.1186  0.2874
  433MOL0    Cl58365   2.193  12.095  13.216  0.3761 -0.4600 -0.0372
  433MOL0     C58366   2.286  11.878  12.387 -0.3053  0.4659 -0.2283
  433MOL0     C58367   2.258  11.757  12.328  1.0437  0.1765  0.5712
  433MOL0     O58368   2.504  11.411  12.223  0.3962 -0.1156  0.4630
  433MOL0     C58369   2.196  11.420  12.034 -0.6036  0.7737  0.1104
  433MOL0     C58370   2.120  11.351  11.931  1.3643  0.2136 -0.2490
  433MOL0     N58371   2.046  11.689  11.357  0.0913  0.0755  0.2127
  433MOL0     N58372   1.963  11.736  11.265 -0.2311  0.0851 -0.1683
  433MOL0     C58373   1.031  11.545  10.573 -0.4849  0.4961  0.0107
  433MOL0     C58374   1.016  11.549  10.434  0.1924  0.1727  0.3519
  433MOL0     C58375   0.826  11.398  10.052 -0.3711 -0.4558 -0.6803
  433MOL0     C58376   0.828  11.279   9.982 -1.2526  0.7769 -0.0539
  433MOL0     C58377   0.792  11.270   9.849  0.3857  0.2049 -0.7595
  433MOL0     C58378   0.760  11.386   9.775 -0.0808  0.8561 -0.0106
  433MOL0     O58379   0.737  11.362   9.642 -0.4765 -0.5746 -0.6950
  433MOL0     C58380   0.696  11.474   9.559 -0.6746 -0.0889 -0.0793
  433MOL0     C58381   0.824  11.539   9.524  0.2369  0.5123  0.0692
  433MOL0     C58382   0.823  11.603   9.386 -0.0485 -0.8227 -0.4414
  433MOL0     C58383   0.967  11.660   9.352  0.0677 -0.3689  0.1990
  433MOL0     C58384   1.006  11.776   9.439 -0.4892 -0.8713 -0.0492
  433MOL0     C58385   1.017  11.876   9.507 -0.7091 -0.4133  0.5895
  433MOL0     C58386   0.756  11.508   9.844 -0.0459 -0.7005 -1.1097
  433MOL0     C58387   0.792  11.517   9.982  0.4015  0.9764  0.4339
  433MOL0     H58388   0.705  11.401  10.404 -0.0796  1.5664 -1.9838
  433MOL0     H58389   0.768  11.363  10.666  1.9964 -1.2207  1.4437
  433MOL0     H58390   1.123  11.557  10.824  1.3522 -0.4175  0.4801
  433MOL0     H58391   1.071  11.451  10.960 -0.6737  2.7794  0.5733
  433MOL0     H58392   1.108  11.264  10.762 -1.6339  1.1378 -0.4073
  433MOL0     H58393   1.200  11.391  10.700 -1.1191  1.1852  0.1377
  433MOL0     H58394   1.266  11.263  10.960  0.3019 -2.3054 -1.7182
  433MOL0     H58395   1.353  11.247  10.813 -0.4753 -2.9696  4.0015
  433MOL0     H58396   1.417  11.504  10.810  2.3541 -3.0721 -0.8867
  433MOL0     H58397   1.325  11.526  10.960  2.7625  0.2876  1.7178
  433MOL0     H58398   1.502  11.386  11.070  0.7556 -1.8294  0.1103
  433MOL0     H58399   1.587  11.358  10.910  0.7032  0.6966  0.4218
  433MOL0     H58400   1.641  11.567  10.878 -0.2046 -3.2700 -1.2918
  433MOL0     H58401   1.547  11.626  11.016 -1.1444 -1.4184  1.1946
  433MOL0     H58402   1.695  11.472  11.160  3.8136  2.9497  2.2947
  433MOL0     H58403   1.792  11.427  11.019  3.2174  1.3188  0.8130
  433MOL0     H58404   1.751  11.713  11.100  1.1497  1.0555 -1.5678
  433MOL0     H58405   1.868  11.629  10.990 -1.0812  0.0161 -0.2435
  433MOL0     H58406   1.946  11.412  11.214 -3.0770  0.8803 -0.1006
  433MOL0     H58407   2.228  11.418  11.342  1.1937  1.1497  1.5118
  433MOL0     H58408   2.224  11.533  11.475  2.3929 -2.4769  0.1111
  433MOL0     H58409   2.046  11.303  11.430  0.1490  1.4262 -0.1547
  433MOL0     H58410   2.029  11.416  11.566  1.4520  0.2347  1.1098
  433MOL0     H58411   2.264  11.362  11.635 -0.1393 -2.2665  1.0653
  433MOL0     H58412   2.298  11.270  11.492  0.2411 -0.4950 -0.0172
  433MOL0     H58413   2.254  11.096  11.648 -2.1285 -2.1951 -0.9638
  433MOL0     H58414   2.107  11.113  11.561  0.8551 -1.3284  0.1266
  433MOL0     H58415   2.365  11.145  11.821  1.1160  0.5362 -0.7288
  433MOL0     H58416   2.583  11.341  11.995 -1.5473  2.1621  1.2190
  433MOL0     H58417   2.555  11.199  12.113  1.7917  0.8203 -0.9675
  433MOL0     H58418   2.558  11.174  11.940 -0.3688 -1.1762  1.1435
  433MOL0     H58419   2.575  11.649  12.275  0.6633  3.0715 -2.8628
  433MOL0     H58420   2.618  11.848  12.396 -1.2747  0.2962  3.4627
  433MOL0     H58421   2.314  12.046  12.581 -0.5068  2.0014 -0.5170
  433MOL0     H58422   2.468  12.051  12.671  1.2086 -0.2269 -1.1017
  433MOL0     H58423   2.525  12.250  12.502  0.8203 -4.7286 -1.4382
  433MOL0     H58424   2.349  12.272  12.496 -0.2511  1.3212  0.7259
  433MOL0     H58425   2.422  12.425  12.636  3.9009  0.0072 -0.9102
  433MOL0     H58426   2.549  12.321  12.700 -0.0597  0.1561 -0.5114
  433MOL0     H58427   2.253  12.304  12.754 -0.4337  5.0387 -0.8017
  433MOL0     H58428   2.369  12.203  12.836 -0.6353 -0.6648 -1.7881
  433MOL0     H58429   2.272  12.480  12.870 -0.4494 -1.2585 -4.7481
  433MOL0     H58430   2.443  12.470  12.889 -1.6324  0.7497  0.3216
  433MOL0     H58431   2.393  12.285  13.061 -0.0195 -0.6054 -1.2732
  433MOL0     H58432   2.345  12.453  13.095  0.0160  0.7031 -1.6032
  433MOL0     H58433   2.119  12.380  13.000 -1.4916 -1.3281  0.5861
  433MOL0     H58434   2.138  12.354  13.169 -1.3393 -1.6835 -0.2054
  433MOL0     H58435   2.174  12.131  12.983  0.3068 -0.4122  0.7740
  433MOL0     H58436   2.025  12.161  13.081 -0.5518  1.2708 -1.5573
  433MOL0     H58437   2.204  11.943  12.418 -1.9832 -1.7655  0.2527
  433MOL0     H58438   2.154  11.728  12.313  1.2453  0.6570 -2.3293
  433MOL0     H58439   2.145  11.500  12.087 -2.4670 -1.4404  1.8736
  433MOL0     H58440   2.022  11.390  11.904  1.4912  0.6157 -0.1387
  433MOL0     H58441   1.129  11.577  10.607  0.3874 -1.1554 -0.8505
  433MOL0     H58442   1.094  11.580  10.364  0.8755  1.3442  1.5897
  433MOL0     H58443   0.869  11.188  10.025 -2.2857  0.5519  0.4690
  433MOL0     H58444   0.803  11.175   9.799 -0.2140  0.7188 -1.9012
  433MOL0     H58445   0.669  11.423   9.467  1.2370  1.2109 -1.4244
  433MOL0     H58446   0.619  11.539   9.602  0.5540  2.0197 -0.8786
  433MOL0     H58447   0.895  11.456   9.516 -1.1705 -0.5648 -5.2947
  433MOL0     H58448   0.849  11.610   9.603 -3.4752  1.6251  0.4400
  433MOL0     H58449   0.754  11.687   9.382  3.1113  1.9631 -1.2189
  433MOL0     H58450   0.801  11.532   9.305  0.1524 -0.6236 -0.6731
  433MOL0     H58451   0.958  11.708   9.254 -0.9979 -1.1002 -0.0767
  433MOL0     H58452   1.051  11.590   9.359 -0.2093 -0.5646  2.1944
  433MOL0     H58453   1.027  11.969   9.559  1.7053 -2.9093  5.2861
  433MOL0     H58454   0.723  11.600   9.797  0.8591 -0.5655 -1.5079
  433MOL0     H58455   0.784  11.610  10.037 -0.3141  1.4616 -0.4588
  434MOL0     O58456   7.519   9.253  11.428  0.5821 -0.6354 -0.3105
  434MOL0     C58457   7.489   9.178  11.340  0.4376 -0.2789  0.1706
  434MOL0     O58458   7.542   9.048  11.327 -0.0251 -0.3209 -0.4451
  434MOL0     C58459   7.640   9.017  11.418  1.1047  0.7191 -0.1602
  434MOL0     C58460   7.773   9.078  11.421 -0.3326  0.5528 -0.0011
  434MOL0     C58461   7.863   9.036  11.521  0.1134  0.8184 -0.1934
  434MOL0     C58462   7.823   8.935  11.616 -0.3553  0.7995 -0.3270
  434MOL0     O58463   7.898   8.877  11.722 -0.4187  0.5277  0.6591
  434MOL0     C58464   8.029   8.932  11.751 -0.6672  0.1815 -1.1085
  434MOL0     C58465   8.076   8.876  11.886  0.7485 -0.6071  0.3503
  434MOL0     C58466   8.198   8.963  11.936 -0.2335  0.7429 -0.3608
  434MOL0     C58467   8.322   8.935  11.847  0.1025  0.9118  0.2781
  434MOL0     C58468   8.446   9.007  11.907 -0.6269 -0.4831 -0.1470
  434MOL0     C58469   8.515   8.947  12.029 -0.4426 -0.5583 -0.1348
  434MOL0     C58470   8.638   9.027  12.059 -0.0319 -0.0082 -0.1983
  434MOL0     C58471   8.729   8.965  12.172  1.7103 -0.3700  0.0981
  434MOL0     N58472   8.863   9.022  12.179 -1.1743  0.6109 -0.0933
  434MOL0     C58473   8.982   8.959  12.133 -0.3728  0.4637 -0.5696
  434MOL0     C58474   9.078   9.056  12.119  0.4345  0.1802  0.5901
  434MOL0     C58475   9.215   9.050  12.061  0.6889  0.6597  0.9687
  434MOL0     C58476   9.315   9.064  12.179  0.4588  0.4681 -0.0783
  434MOL0     C58477   9.345   9.211  12.203  0.6095 -0.3250 -0.4574
  434MOL0     C58478   9.479   9.224  12.272  0.2344  0.4285 -0.9607
  434MOL0     O58479   9.525   9.356  12.293  0.1724 -0.3542  0.5326
  434MOL0     C58480   9.621   9.395  12.218 -0.2250 -0.1010  0.0867
  434MOL0     C58481   9.590   9.448  12.091 -0.0683 -0.7097  0.2390
  434MOL0     C58482   9.691   9.508  12.011 -0.8346 -0.2438 -0.1500
  434MOL0     C58483   9.639   9.561  11.884 -0.6770 -0.0661 -0.5352
  434MOL0     C58484   9.835   9.489  12.039 -0.1675  0.2269  0.9322
  434MOL0     C58485   9.946   9.546  11.963 -0.1230 -0.3261  0.0406
  434MOL0     O58486  10.051   9.580  12.042 -0.3797  0.0948  0.3336
  434MOL0     C58487  10.172   9.576  11.980  0.4410  0.0441  0.0734
  434MOL0     C58488  10.246   9.695  11.970 -0.2851 -0.1719  0.4145
  434MOL0     C58489  10.374   9.690  11.918 -0.7003 -0.2536  0.3786
  434MOL0     C58490  10.435   9.569  11.867 -0.4274  0.4489 -1.2251
  434MOL0     O58491  10.563   9.563  11.819 -0.0719  0.1685 -0.4661
  434MOL0     C58492  10.650   9.674  11.841  0.2453  0.4661  0.2934
  434MOL0     C58493  10.716   9.654  11.977  0.2378  0.2130  0.6935
  434MOL0     C58494  10.828   9.559  11.971 -0.3417 -0.2548 -0.5394
  434MOL0     C58495  10.962   9.626  11.929  0.3391 -1.0522  0.2578
  434MOL0     C58496  11.085   9.539  11.940 -0.3152  0.1386 -0.1655
  434MOL0     C58497  11.070   9.404  11.886  0.5982  0.0925  0.0053
  434MOL0     C58498  11.192   9.316  11.908 -0.0708  0.5212 -0.2822
  434MOL0     C58499  11.298   9.344  11.802 -0.5812 -0.6928  1.1201
  434MOL0    Cl58500  11.247   9.266  11.645  0.0975 -0.0397 -0.0477
  434MOL0     C58501  10.353   9.461  11.866 -0.8402 -0.1331  0.8564
  434MOL0     C58502  10.227   9.455  11.923 -0.3197  0.4616 -0.2489
  434MOL0     O58503   9.942   9.547  11.845  0.5151 -0.4733  0.1328
  434MOL0     C58504   9.862   9.435  12.168  0.5805 -0.0146  0.8476
  434MOL0     C58505   9.760   9.382  12.253  0.5083  0.4508  0.8849
  434MOL0     N58506   9.016   9.175  12.144  0.7307  0.7937  0.0199
  434MOL0     N58507   8.890   9.155  12.177 -0.6521  0.0948  0.5137
  434MOL0     C58508   7.698   8.883  11.608  1.2869 -0.1698  0.3705
  434MOL0     C58509   7.600   8.925  11.516 -0.0140  0.0029 -0.4999
  434MOL0     C58510   7.393   9.225  11.236  1.3473  0.3953  0.1061
  434MOL0     C58511   7.300   9.326  11.274 -0.6056  0.3738 -0.0832
  434MOL0     C58512   7.197   9.359  11.182 -0.5379  0.0634 -0.2287
  434MOL0     C58513   7.180   9.294  11.057 -0.8001 -0.8873 -0.1184
  434MOL0     O58514   7.080   9.336  10.976  0.4424  0.0975  0.2300
  434MOL0     C58515   7.075   9.287  10.841 -0.1087 -0.6486 -1.1698
  434MOL0     C58516   6.940   9.323  10.792  0.9756  0.8074 -0.0152
  434MOL0     C58517   6.921   9.300  10.636 -0.1878  0.6203 -0.2675
  434MOL0     C58518   6.781   9.343  10.576 -0.0866  0.0249  0.1489
  434MOL0     C58519   6.729   9.463  10.625 -0.1792 -0.5887 -1.5864
  434MOL0     C58520   6.692   9.580  10.643  0.3269  0.4171 -0.7745
  434MOL0     C58521   7.273   9.194  11.029 -0.6136  0.6403  0.5839
  434MOL0     C58522   7.384   9.160  11.116 -0.1565  0.1700  0.2438
  434MOL0     H58523   7.791   9.157  11.349 -1.4009 -0.3453 -1.2914
  434MOL0     H58524   7.966   9.070  11.520  0.1349  0.7519 -1.3789
  434MOL0     H58525   8.089   8.908  11.663 -1.4915  0.3432 -1.7269
  434MOL0     H58526   8.026   9.036  11.783 -2.7666 -0.2835  0.4236
  434MOL0     H58527   7.998   8.887  11.962  1.9448  0.7066  1.4507
  434MOL0     H58528   8.099   8.770  11.877  0.5373 -0.6039 -0.3461
  434MOL0     H58529   8.186   9.071  11.926  1.6234  0.8329 -2.1061
  434MOL0     H58530   8.210   8.937  12.042 -0.4314  0.2089 -0.4696
  434MOL0     H58531   8.346   8.829  11.834  3.4043  1.8571 -3.3087
  434MOL0     H58532   8.308   8.975  11.746  2.2325 -2.8980 -1.7290
  434MOL0     H58533   8.505   9.020  11.816 -2.1725 -1.1505 -1.2795
  434MOL0     H58534   8.409   9.106  11.936 -0.7871 -0.3108 -0.9403
  434MOL0     H58535   8.448   8.945  12.115 -0.4787  0.3036 -0.1345
  434MOL0     H58536   8.532   8.846  11.990 -0.0592 -0.5294 -0.0501
  434MOL0     H58537   8.693   9.034  11.965  4.2419 -3.7312  1.6243
  434MOL0     H58538   8.608   9.126  12.095 -2.9541 -0.1274 -1.9669
  434MOL0     H58539   8.750   8.860  12.152  0.0373 -0.7498  0.1780
  434MOL0     H58540   8.679   8.970  12.270 -0.9768 -3.3068 -0.9681
  434MOL0     H58541   9.003   8.853  12.123  0.8650  0.8494 -2.8835
  434MOL0     H58542   9.235   8.956  12.009  1.7078  1.8312 -0.8795
  434MOL0     H58543   9.235   9.132  11.991 -0.9902  1.4329  1.3589
  434MOL0     H58544   9.401   8.999  12.158  0.8455  1.0133 -0.1913
  434MOL0     H58545   9.265   9.033  12.271  1.0283 -2.5060 -0.6448
  434MOL0     H58546   9.272   9.261  12.267  3.6340  2.8968  0.8241
  434MOL0     H58547   9.349   9.263  12.107 -1.3536  0.2274 -0.2855
  434MOL0     H58548   9.549   9.163  12.214 -2.1100 -1.6048 -1.8170
  434MOL0     H58549   9.468   9.171  12.367 -1.7212 -0.3537 -1.5678
  434MOL0     H58550   9.484   9.447  12.067  0.0755 -0.4063 -0.4241
  434MOL0     H58551   9.708   9.631  11.835  0.1404  0.9118  1.8686
  434MOL0     H58552   9.627   9.480  11.811 -2.0150  0.5136 -0.9890
  434MOL0     H58553   9.547   9.619  11.897  0.8009  2.3020  0.1417
  434MOL0     H58554  10.214   9.789  12.013  1.0641 -0.7725  2.9728
  434MOL0     H58555  10.417   9.790  11.908 -0.5412 -0.5231 -2.2602
  434MOL0     H58556  10.716   9.676  11.754 -3.4640  1.5727 -2.8009
  434MOL0     H58557  10.608   9.775  11.837 -0.1659  0.3240  0.8521
  434MOL0     H58558  10.742   9.753  12.014 -0.6041 -0.0878  2.1854
  434MOL0     H58559  10.631   9.622  12.039 -0.0066 -2.4304 -0.8528
  434MOL0     H58560  10.793   9.475  11.910  0.4991  1.1549 -3.0856
  434MOL0     H58561  10.842   9.521  12.073 -0.6677 -1.6406 -0.9840
  434MOL0     H58562  10.940   9.661  11.827 -2.6828 -2.7962  0.1921
  434MOL0     H58563  10.978   9.715  11.991  1.9837 -0.7997 -0.4899
  434MOL0     H58564  11.103   9.534  12.047 -0.8947  1.7716  0.0396
  434MOL0     H58565  11.172   9.585  11.892  0.1943 -0.9729 -0.3236
  434MOL0     H58566  10.994   9.352  11.945  1.2977 -1.5802 -0.5118
  434MOL0     H58567  11.044   9.414  11.780  1.5112 -2.7393 -0.5728
  434MOL0     H58568  11.168   9.209  11.909 -1.7730  0.8787 -0.4658
  434MOL0     H58569  11.228   9.336  12.009  0.3983 -1.0234 -0.1047
  434MOL0     H58570  11.397   9.311  11.833 -0.0199  1.5953  1.9561
  434MOL0     H58571  11.314   9.450  11.781  0.8366 -1.1709 -0.4108
  434MOL0     H58572  10.391   9.368  11.824 -2.5747 -0.4207 -0.1331
  434MOL0     H58573  10.167   9.365  11.917 -0.2716  0.2452  1.8617
  434MOL0     H58574   9.959   9.416  12.211 -0.4168 -4.1317  1.6973
  434MOL0     H58575   9.795   9.332  12.342  0.4687  1.0351  1.2319
  434MOL0     H58576   7.675   8.802  11.676 -1.5370 -0.6540 -1.0090
  434MOL0     H58577   7.498   8.887  11.517 -0.5152  1.0567 -3.2628
  434MOL0     H58578   7.316   9.369  11.372  1.8297 -2.1354  0.7449
  434MOL0     H58579   7.125   9.429  11.222 -2.6263 -2.6628  1.0597
  434MOL0     H58580   7.156   9.314  10.772  1.5568  0.6724  1.1681
  434MOL0     H58581   7.067   9.178  10.845 -1.4632 -0.5781 -1.5462
  434MOL0     H58582   6.906   9.423  10.821 -0.6908  0.4470 -0.5928
  434MOL0     H58583   6.859   9.267  10.840 -0.9870  1.7709 -1.9891
  434MOL0     H58584   6.923   9.192  10.618  0.7801  0.2556  1.7873
  434MOL0     H58585   7.012   9.342  10.593  1.0075 -0.4046  1.1943
  434MOL0     H58586   6.711   9.267  10.611  1.0361 -0.9839  0.2756
  434MOL0     H58587   6.784   9.356  10.468 -0.7519  2.5084  0.3499
  434MOL0     H58588   6.666   9.683  10.653  1.3537  0.6015  0.1264
  434MOL0     H58589   7.274   9.134  10.938  1.3846 -1.7068  2.0555
  434MOL0     H58590   7.456   9.083  11.092 -0.4802 -0.5789  1.5997
  435MOL0     O58591   5.554   6.189   5.754  0.3689 -0.4735 -0.4111
  435MOL0     C58592   5.491   6.115   5.675 -0.4996 -0.6025  0.2665
  435MOL0     O58593   5.547   6.033   5.579 -0.6554  0.2917 -0.4732
  435MOL0     C58594   5.686   6.023   5.565  0.3129 -0.5781  0.1468
  435MOL0     C58595   5.783   6.003   5.661 -0.3946  0.3746 -0.9492
  435MOL0     C58596   5.912   5.969   5.623  0.6963 -0.0473 -0.2448
  435MOL0     C58597   5.950   5.966   5.485  0.5344  0.8705  0.5003
  435MOL0     O58598   6.085   5.947   5.467  0.0171 -0.1327  1.2019
  435MOL0     C58599   6.137   5.941   5.334  0.2402  0.3082 -0.1942
  435MOL0     C58600   6.264   5.874   5.347 -0.4296  0.8985 -0.4036
  435MOL0     C58601   6.377   5.963   5.422  0.7014  0.1819 -0.2540
  435MOL0     C58602   6.377   5.936   5.578  0.5383  0.4222  0.3585
  435MOL0     C58603   6.352   6.068   5.665  0.3110 -0.3421  0.4365
  435MOL0     C58604   6.466   6.158   5.685  0.0463  1.3712  0.3772
  435MOL0     C58605   6.554   6.123   5.803 -0.1289  0.6620 -0.1781
  435MOL0     C58606   6.491   6.143   5.938 -0.0998 -0.2364  0.3768
  435MOL0     N58607   6.580   6.072   6.038  0.4936 -0.5261 -0.4768
  435MOL0     C58608   6.569   5.941   6.060  0.8760 -0.9740 -0.5274
  435MOL0     C58609   6.671   5.913   6.142  0.5132 -0.4787 -0.2287
  435MOL0     C58610   6.707   5.765   6.176  0.4215  0.2740  0.5322
  435MOL0     C58611   6.625   5.707   6.300 -0.0665 -0.0496  0.1562
  435MOL0     C58612   6.600   5.560   6.280  0.4615  0.4381 -0.3393
  435MOL0     C58613   6.546   5.500   6.405 -0.1697 -0.0157 -0.0985
  435MOL0     O58614   6.497   5.367   6.384 -0.6294 -0.0958  0.3742
  435MOL0     C58615   6.448   5.298   6.489  0.0280  0.1436 -0.1829
  435MOL0     C58616   6.392   5.176   6.450  0.0658 -0.7806 -0.1507
  435MOL0     C58617   6.307   5.101   6.535 -0.0292 -0.4659 -0.6965
  435MOL0     C58618   6.241   4.985   6.478  0.0386  0.5382 -0.0824
  435MOL0     C58619   6.277   5.150   6.663 -0.1118  1.6857 -0.1310
  435MOL0     C58620   6.196   5.073   6.767 -1.1045 -0.9328 -0.0520
  435MOL0     O58621   6.205   4.939   6.773 -0.3514  0.3033 -0.0522
  435MOL0     C58622   6.120   4.879   6.863  0.4402  0.1976  0.1083
  435MOL0     C58623   6.181   4.815   6.973 -0.2464  0.3018  0.5138
  435MOL0     C58624   6.096   4.755   7.072 -0.1853 -0.1731  0.2681
  435MOL0     C58625   5.960   4.745   7.051  1.1222  0.4256  0.6544
  435MOL0     O58626   5.886   4.682   7.146  0.4228  0.5234  0.2122
  435MOL0     C58627   5.751   4.672   7.149 -0.3192 -1.3041  0.8157
  435MOL0     C58628   5.689   4.604   7.270  0.0829  0.0422  0.4394
  435MOL0     C58629   5.735   4.451   7.273  0.0710 -0.0306  0.3033
  435MOL0     C58630   5.677   4.371   7.394 -0.5663  0.5241 -0.3657
  435MOL0     C58631   5.549   4.299   7.365  0.5914 -0.5090  0.8435
  435MOL0     C58632   5.428   4.377   7.407 -0.4201  0.3236  0.5606
  435MOL0     C58633   5.306   4.298   7.403  1.4873  0.3097  0.5043
  435MOL0     C58634   5.195   4.364   7.490 -0.3201  0.0449 -0.2322
  435MOL0    Cl58635   5.040   4.280   7.458  0.0112 -0.5512 -0.1696
  435MOL0     C58636   5.906   4.807   6.942 -0.1442 -0.4654 -0.4384
  435MOL0     C58637   5.981   4.877   6.845 -1.1619 -0.6141  0.4028
  435MOL0     O58638   6.128   5.139   6.841 -0.0078 -0.8807 -0.4641
  435MOL0     C58639   6.334   5.273   6.702  0.7658 -0.2815 -0.0100
  435MOL0     C58640   6.420   5.350   6.616 -0.0142 -0.2329 -0.7206
  435MOL0     N58641   6.737   6.029   6.175 -0.0226 -0.2994 -0.0109
  435MOL0     N58642   6.673   6.123   6.116 -0.1302 -0.4894  0.9230
  435MOL0     C58643   5.853   5.989   5.393 -0.0817 -0.4111  0.7271
  435MOL0     C58644   5.721   6.012   5.432 -0.9215  0.0727 -0.5682
  435MOL0     C58645   5.343   6.127   5.684 -0.0726  0.2652  0.2639
  435MOL0     C58646   5.265   6.074   5.578  0.2153  0.3121 -0.6441
  435MOL0     C58647   5.128   6.111   5.559 -0.0993 -0.0852 -0.6622
  435MOL0     C58648   5.067   6.195   5.649  0.1565  0.6366 -0.5390
  435MOL0     O58649   4.938   6.237   5.646 -0.2919 -0.0319 -0.0423
  435MOL0     C58650   4.845   6.181   5.548 -0.4201  0.8446 -1.0751
  435MOL0     C58651   4.812   6.280   5.448  0.3860  0.0861  0.4493
  435MOL0     C58652   4.739   6.228   5.317 -0.3691  0.1002 -0.4759
  435MOL0     C58653   4.630   6.120   5.339  0.5555 -0.0682  0.3972
  435MOL0     C58654   4.518   6.170   5.429 -1.0276 -0.4876 -1.3140
  435MOL0     C58655   4.459   6.225   5.520 -0.2563 -0.7146  0.6209
  435MOL0     C58656   5.148   6.243   5.749 -0.2226  0.0379  0.0804
  435MOL0     C58657   5.281   6.217   5.770  0.6726  0.3649  0.4209
  435MOL0     H58658   5.758   6.007   5.767  2.4344 -0.7251 -0.1385
  435MOL0     H58659   5.992   5.947   5.693 -1.7079 -2.3008  2.0172
  435MOL0     H58660   6.087   5.879   5.259  3.3183 -0.0390 -2.1317
  435MOL0     H58661   6.155   6.039   5.291 -1.8037 -0.2894 -2.6199
  435MOL0     H58662   6.265   5.770   5.381 -0.7544  0.2939 -2.1392
  435MOL0     H58663   6.288   5.860   5.241 -2.5881  0.2993 -0.8433
  435MOL0     H58664   6.482   5.939   5.404  0.4894  0.0910 -1.4499
  435MOL0     H58665   6.366   6.071   5.413 -0.8955  0.2086  1.3529
  435MOL0     H58666   6.309   5.860   5.617  0.5599 -0.5545 -1.3967
  435MOL0     H58667   6.478   5.895   5.591 -0.0297 -2.0435 -2.0582
  435MOL0     H58668   6.271   6.127   5.620 -1.2363 -0.7315  2.5641
  435MOL0     H58669   6.305   6.051   5.762  0.7970  0.1439  0.7657
  435MOL0     H58670   6.534   6.179   5.602  0.4318  5.1482  1.4590
  435MOL0     H58671   6.426   6.258   5.701  1.4662  1.5229  3.6510
  435MOL0     H58672   6.571   6.019   5.775 -0.3863  1.1387 -2.2556
  435MOL0     H58673   6.644   6.184   5.786 -1.1070  1.2847 -3.9808
  435MOL0     H58674   6.389   6.103   5.937 -0.7576  1.2829  1.6248
  435MOL0     H58675   6.481   6.250   5.960 -1.9225 -0.6035  1.5866
  435MOL0     H58676   6.494   5.878   6.013 -0.1037  0.1650 -0.5386
  435MOL0     H58677   6.686   5.700   6.091  1.5051  0.1717  0.3324
  435MOL0     H58678   6.814   5.760   6.198  0.7075  1.1538 -0.5222
  435MOL0     H58679   6.528   5.757   6.305 -0.2800 -0.5512  1.3299
  435MOL0     H58680   6.680   5.734   6.391 -1.0821  0.7784  0.5361
  435MOL0     H58681   6.692   5.509   6.250 -2.3233 -3.3897 -3.4541
  435MOL0     H58682   6.524   5.554   6.201 -0.4372  2.2403  0.3295
  435MOL0     H58683   6.464   5.565   6.435  0.4982  0.0010  1.8117
  435MOL0     H58684   6.618   5.504   6.487 -0.3974  2.1619  0.0639
  435MOL0     H58685   6.422   5.124   6.360 -3.3923  1.2016 -2.6578
  435MOL0     H58686   6.141   4.963   6.516  0.7993 -1.3617  0.9438
  435MOL0     H58687   6.235   5.000   6.370  1.0657 -2.2984 -0.6058
  435MOL0     H58688   6.294   4.891   6.496 -3.4467 -1.3382  1.2124
  435MOL0     H58689   6.287   4.802   6.993 -0.6129 -2.5486  1.0945
  435MOL0     H58690   6.149   4.711   7.155  2.1208  0.4496 -0.7887
  435MOL0     H58691   5.710   4.772   7.134 -2.0468 -1.9940  0.7268
  435MOL0     H58692   5.721   4.615   7.061 -0.0875 -1.0368  0.5634
  435MOL0     H58693   5.705   4.665   7.360 -0.3163  2.0968 -0.8168
  435MOL0     H58694   5.582   4.617   7.250 -0.3681 -1.4973  1.6017
  435MOL0     H58695   5.843   4.461   7.281  0.1522 -0.3848 -0.3301
  435MOL0     H58696   5.708   4.398   7.181  0.8264  1.0686 -0.5767
  435MOL0     H58697   5.753   4.294   7.415 -2.8569 -1.9175 -0.5144
  435MOL0     H58698   5.664   4.429   7.486  2.9946  2.0870 -0.6856
  435MOL0     H58699   5.566   4.207   7.422 -0.2970 -2.1342 -1.4014
  435MOL0     H58700   5.540   4.269   7.261  0.5702 -1.4758  1.1105
  435MOL0     H58701   5.430   4.402   7.514  0.3010 -3.2560  1.5104
  435MOL0     H58702   5.423   4.459   7.335 -1.4998  1.0641  1.4454
  435MOL0     H58703   5.323   4.192   7.422  4.6541  0.3895 -1.1758
  435MOL0     H58704   5.266   4.301   7.301 -0.7511  4.0364  1.2819
  435MOL0     H58705   5.197   4.472   7.474 -3.1111  0.3465  0.9253
  435MOL0     H58706   5.218   4.343   7.596  0.0659 -1.7835 -0.6302
  435MOL0     H58707   5.798   4.802   6.929 -0.2726  0.7053  0.0918
  435MOL0     H58708   5.924   4.915   6.761 -2.1236 -0.2165  1.2068
  435MOL0     H58709   6.306   5.316   6.798 -0.9618  1.0664 -1.0559
  435MOL0     H58710   6.451   5.450   6.643  0.3272 -0.4898 -0.1299
  435MOL0     H58711   5.893   6.006   5.294 -0.9133 -0.0067  0.4499
  435MOL0     H58712   5.642   6.041   5.364 -0.6728 -1.1948 -1.4435
  435MOL0     H58713   5.318   6.014   5.505  1.7589  1.6870 -0.7204
  435MOL0     H58714   5.092   6.076   5.462 -0.5546  0.0756 -0.5508
  435MOL0     H58715   4.880   6.084   5.511 -1.8640 -0.6107  1.1146
  435MOL0     H58716   4.754   6.155   5.603 -1.8580  0.5703 -3.4113
  435MOL0     H58717   4.905   6.328   5.416  1.2908 -0.6557  1.8654
  435MOL0     H58718   4.751   6.360   5.493  0.3871  0.9546 -1.0138
  435MOL0     H58719   4.807   6.173   5.251 -2.2491 -3.8944  0.5860
  435MOL0     H58720   4.715   6.318   5.260  1.6102 -0.4206 -2.2657
  435MOL0     H58721   4.680   6.042   5.397  0.4497 -0.0175  0.5572
  435MOL0     H58722   4.591   6.080   5.244  1.5494 -1.3162  0.4873
  435MOL0     H58723   4.405   6.264   5.604 -2.5304 -2.9487  0.2966
  435MOL0     H58724   5.102   6.320   5.810 -1.5849  0.5224 -1.4721
  435MOL0     H58725   5.333   6.267   5.851  2.7670 -0.0401 -0.5914
  436MOL0     O58726  10.341   7.100   3.304  0.0511 -0.0635 -1.1121
  436MOL0     C58727  10.315   6.985   3.346  0.1227 -0.2295  0.1287
  436MOL0     O58728  10.230   6.949   3.441  0.6813 -0.6966 -0.4796
  436MOL0     C58729  10.163   7.041   3.521  0.3815  0.4361 -0.0183
  436MOL0     C58730  10.035   6.998   3.566  0.5216 -0.1118  0.3856
  436MOL0     C58731   9.962   7.086   3.644 -0.0646  0.2596 -0.3775
  436MOL0     C58732  10.013   7.215   3.680  0.0283  0.9525 -0.5339
  436MOL0     O58733   9.945   7.306   3.759  0.6265  0.2187  0.5880
  436MOL0     C58734   9.857   7.251   3.860  0.5468  0.0115  0.1802
  436MOL0     C58735   9.829   7.343   3.982 -0.1495  0.6263  0.1786
  436MOL0     C58736   9.820   7.485   3.942  0.8969  0.1260 -0.6588
  436MOL0     C58737   9.772   7.569   4.064 -0.1391  0.4616  0.1985
  436MOL0     C58738   9.769   7.721   4.036  0.6004 -0.1754 -0.5060
  436MOL0     C58739   9.900   7.797   4.068 -0.6354 -0.6283 -0.0547
  436MOL0     C58740   9.864   7.942   4.034 -0.6761 -0.7526  0.7591
  436MOL0     C58741   9.985   8.032   4.056  0.2310  0.0722 -0.7836
  436MOL0     N58742   9.964   8.178   4.038 -0.3892  0.4181  0.1988
  436MOL0     C58743   9.873   8.241   4.105  0.6216 -0.7201 -0.5427
  436MOL0     C58744   9.904   8.372   4.100 -0.0804  0.2868  0.7883
  436MOL0     C58745   9.835   8.480   4.173 -0.2135 -0.2628  0.0302
  436MOL0     C58746   9.854   8.602   4.090  0.2625 -0.5897 -0.5782
  436MOL0     C58747   9.794   8.587   3.948 -0.5864  0.2776  0.1311
  436MOL0     C58748   9.737   8.717   3.895 -0.6076  0.2952 -0.2855
  436MOL0     O58749   9.641   8.775   3.989  0.0744  0.2521  0.4698
  436MOL0     C58750   9.577   8.885   3.947 -0.1792 -0.7223 -0.5911
  436MOL0     C58751   9.461   8.913   4.019  0.5002  0.4531  0.0668
  436MOL0     C58752   9.388   9.034   4.003 -0.5672 -0.1308  0.1238
  436MOL0     C58753   9.279   9.080   4.095  0.4524 -0.0267 -0.7147
  436MOL0     C58754   9.430   9.129   3.904 -0.4621  0.3163 -0.3531
  436MOL0     C58755   9.363   9.258   3.876 -0.8574 -0.2130  0.5742
  436MOL0     O58756   9.231   9.260   3.908 -0.7951 -0.6899 -0.5204
  436MOL0     C58757   9.181   9.382   3.934 -0.4352 -0.3476 -0.2646
  436MOL0     C58758   9.244   9.490   3.994 -0.2596 -0.1611 -0.9523
  436MOL0     C58759   9.184   9.609   4.026  0.3115 -0.2138  0.1870
  436MOL0     C58760   9.048   9.627   3.992 -1.0128  0.0643 -0.3244
  436MOL0     O58761   8.979   9.750   3.996  0.4363 -0.4109  0.3465
  436MOL0     C58762   9.056   9.867   3.981 -0.4131 -0.1376  1.3563
  436MOL0     C58763   8.944   9.978   3.985 -0.5864  0.7681 -0.5668
  436MOL0     C58764   9.004  10.122   3.991  0.4439  0.4978  0.3728
  436MOL0     C58765   9.083  10.160   3.864  0.2660 -0.0287 -0.8421
  436MOL0     C58766   9.147  10.295   3.889 -0.6698 -0.3923 -0.4248
  436MOL0     C58767   9.250  10.333   3.782  1.2665  0.9778 -0.3051
  436MOL0     C58768   9.259  10.492   3.776  0.1369 -0.0660 -0.4422
  436MOL0     C58769   9.354  10.543   3.673  0.5221 -0.4520  0.8159
  436MOL0    Cl58770   9.516  10.488   3.715 -0.0658  0.1430 -0.1330
  436MOL0     C58771   8.979   9.525   3.936 -0.5650  0.5063 -0.6359
  436MOL0     C58772   9.040   9.401   3.910  0.0397 -0.2158 -0.1356
  436MOL0     O58773   9.420   9.343   3.807 -0.8172 -0.1902  0.0673
  436MOL0     C58774   9.553   9.095   3.842  0.7746 -0.3619  0.4952
  436MOL0     C58775   9.626   8.981   3.862 -0.1543 -0.7443  0.5168
  436MOL0     N58776  10.036   8.378   4.043  0.6735 -0.4286 -0.3965
  436MOL0     N58777  10.079   8.259   4.013  1.4613 -0.5654  0.3335
  436MOL0     C58778  10.139   7.261   3.626  0.0809  0.0783  0.2687
  436MOL0     C58779  10.213   7.168   3.552 -0.1581  0.4548 -0.3532
  436MOL0     C58780  10.400   6.883   3.276 -0.9044 -0.4395 -0.7546
  436MOL0     C58781  10.404   6.760   3.330  0.4528  0.5982 -0.1238
  436MOL0     C58782  10.487   6.654   3.282  0.6987  0.3607  0.1767
  436MOL0     C58783  10.594   6.680   3.192 -0.5200 -0.5167 -0.1147
  436MOL0     O58784  10.673   6.574   3.149 -0.4854  0.4119  0.2265
  436MOL0     C58785  10.771   6.603   3.046 -0.3460  0.4851  0.6435
  436MOL0     C58786  10.818   6.461   3.004  0.2405 -0.1851 -0.4570
  436MOL0     C58787  10.928   6.482   2.901 -0.8951 -0.3729  0.1310
  436MOL0     C58788  10.873   6.499   2.759  1.0693 -1.1577 -0.0268
  436MOL0     C58789  10.807   6.381   2.704 -0.1541 -0.6730  0.6629
  436MOL0     C58790  10.761   6.286   2.659 -0.4546  0.0666 -0.1077
  436MOL0     C58791  10.583   6.806   3.126 -0.4290 -0.1295  0.7003
  436MOL0     C58792  10.492   6.904   3.176  0.7374 -0.6654  0.4439
  436MOL0     H58793   9.982   6.908   3.537 -2.9240  1.0876  2.3049
  436MOL0     H58794   9.859   7.062   3.669  0.0262  0.3379  0.0966
  436MOL0     H58795   9.763   7.226   3.810 -0.2245  0.4840  1.3516
  436MOL0     H58796   9.881   7.152   3.901 -0.7774 -0.8957 -1.1398
  436MOL0     H58797   9.737   7.298   4.021 -0.4171 -2.4297 -3.4108
  436MOL0     H58798   9.904   7.334   4.062 -0.2069  0.5781  0.2281
  436MOL0     H58799   9.924   7.513   3.923  1.6184 -1.0445  1.3051
  436MOL0     H58800   9.753   7.492   3.855  1.3974 -1.1689 -1.1776
  436MOL0     H58801   9.673   7.540   4.102  0.3592  0.3506  1.4757
  436MOL0     H58802   9.839   7.541   4.146 -0.7324 -3.3138 -0.4189
  436MOL0     H58803   9.728   7.748   3.939  1.7418  1.8341 -0.4872
  436MOL0     H58804   9.695   7.743   4.114  2.4238 -0.0927  1.3090
  436MOL0     H58805   9.916   7.795   4.177 -2.0480  0.6064  0.1895
  436MOL0     H58806   9.991   7.762   4.018  1.5703  1.5039  2.1681
  436MOL0     H58807   9.832   7.940   3.929 -1.6867  0.2160  1.0266
  436MOL0     H58808   9.778   7.978   4.091 -0.1436  2.2131 -0.0979
  436MOL0     H58809  10.063   7.989   3.992 -3.0432 -0.8047 -4.5657
  436MOL0     H58810  10.008   8.012   4.161 -1.5610 -1.5915 -0.6615
  436MOL0     H58811   9.784   8.198   4.149 -1.5184  2.1405 -1.7104
  436MOL0     H58812   9.733   8.444   4.194 -0.8120  0.2599 -1.7722
  436MOL0     H58813   9.879   8.496   4.272  2.0793 -0.4130 -0.9144
  436MOL0     H58814   9.957   8.634   4.072  0.1198 -1.2720 -2.9357
  436MOL0     H58815   9.803   8.683   4.142  1.9109  0.6709 -0.8546
  436MOL0     H58816   9.718   8.508   3.948  1.3826 -1.8396  2.7342
  436MOL0     H58817   9.875   8.562   3.879 -1.0112  1.7774 -0.9603
  436MOL0     H58818   9.685   8.692   3.802  1.2533 -2.4890 -0.6980
  436MOL0     H58819   9.823   8.781   3.874 -1.4773  0.8065 -2.6026
  436MOL0     H58820   9.415   8.855   4.097 -3.0431  1.0741 -1.3942
  436MOL0     H58821   9.288   9.186   4.123 -3.4961  0.3343 -0.1670
  436MOL0     H58822   9.184   9.061   4.044  0.1967 -0.2386 -0.1649
  436MOL0     H58823   9.277   9.041   4.197 -0.3430 -0.2053 -0.7916
  436MOL0     H58824   9.345   9.466   4.027 -1.4038 -1.8820  1.6982
  436MOL0     H58825   9.244   9.689   4.069  1.0160 -0.4988 -0.2459
  436MOL0     H58826   9.133   9.884   4.057  2.8119 -2.0894 -1.1985
  436MOL0     H58827   9.103   9.870   3.882  0.9369 -0.7373  1.9642
  436MOL0     H58828   8.870   9.970   3.906  0.0989  0.0158 -1.1450
  436MOL0     H58829   8.896   9.964   4.082 -2.1734  0.0344 -1.4283
  436MOL0     H58830   9.062  10.132   4.083 -1.9951  0.6651  1.9738
  436MOL0     H58831   8.922  10.194   4.000 -0.0005 -0.1237  1.4055
  436MOL0     H58832   9.151  10.076   3.847 -1.9115 -1.3645 -3.8353
  436MOL0     H58833   9.011  10.163   3.782  1.5165 -0.4658 -1.9978
  436MOL0     H58834   9.204  10.292   3.982 -0.0615  0.0644 -0.7704
  436MOL0     H58835   9.062  10.363   3.896 -1.1213 -1.0634  0.8323
  436MOL0     H58836   9.348  10.292   3.807  0.9984 -1.6624 -2.9910
  436MOL0     H58837   9.219  10.285   3.689  2.2926 -0.3124 -0.0002
  436MOL0     H58838   9.293  10.534   3.871 -1.9577 -1.7130  1.1287
  436MOL0     H58839   9.161  10.530   3.746 -0.8318 -1.2197  1.1160
  436MOL0     H58840   9.344  10.652   3.667  0.2289 -0.5084  0.2616
  436MOL0     H58841   9.326  10.501   3.576 -2.3101  2.5095  0.1758
  436MOL0     H58842   8.870   9.523   3.936 -0.8019  4.1807  1.4972
  436MOL0     H58843   8.984   9.315   3.877 -2.3058 -0.4864  3.9766
  436MOL0     H58844   9.603   9.164   3.774  0.3233 -2.7582 -2.4695
  436MOL0     H58845   9.729   8.975   3.829  0.0327 -0.3079  1.0000
  436MOL0     H58846  10.171   7.361   3.653 -0.8894  0.6980 -0.7404
  436MOL0     H58847  10.310   7.201   3.518  0.5681 -0.0389  1.1302
  436MOL0     H58848  10.338   6.734   3.412 -0.3720 -3.1492 -1.7555
  436MOL0     H58849  10.477   6.555   3.326 -2.3464  0.7134  0.4806
  436MOL0     H58850  10.739   6.664   2.961 -1.7359 -2.5054 -1.1466
  436MOL0     H58851  10.841   6.661   3.107  0.0245 -0.7122  1.3866
  436MOL0     H58852  10.738   6.402   2.956 -0.3870 -0.7487  1.1978
  436MOL0     H58853  10.850   6.422   3.102 -0.8421  0.0483  0.0045
  436MOL0     H58854  10.995   6.396   2.897 -2.0240 -1.2354 -0.7881
  436MOL0     H58855  10.992   6.565   2.932 -2.1522  1.2087 -1.2952
  436MOL0     H58856  10.959   6.521   2.696  1.6472 -0.3630  1.0037
  436MOL0     H58857  10.807   6.586   2.756  2.7411  0.1647  0.0817
  436MOL0     H58858  10.727   6.194   2.616 -0.3920 -0.0318  0.0540
  436MOL0     H58859  10.650   6.845   3.051 -1.9408  2.7691  0.7019
  436MOL0     H58860  10.492   6.999   3.123 -1.6492 -1.1214 -0.4886
  437MOL0     O58861   1.075   2.284   6.350 -0.0336  0.4362  0.3068
  437MOL0     C58862   1.073   2.193   6.275  0.1247  1.2343  0.5899
  437MOL0     O58863   0.998   2.188   6.164 -0.0128 -0.8714  0.4494
  437MOL0     C58864   0.934   2.294   6.115  0.0199 -0.9879 -0.0581
  437MOL0     C58865   0.804   2.329   6.154 -0.0228 -0.8035  0.4426
  437MOL0     C58866   0.745   2.448   6.110 -0.7241 -0.8454  0.3491
  437MOL0     C58867   0.805   2.516   5.998 -0.5143 -0.8456 -0.2204
  437MOL0     O58868   0.759   2.638   5.942  0.3222  0.0612  0.3701
  437MOL0     C58869   0.615   2.655   5.928 -0.0725  0.4673 -0.1399
  437MOL0     C58870   0.595   2.721   5.795  0.9353 -0.5466  0.4447
  437MOL0     C58871   0.445   2.736   5.749 -0.4390  0.1827 -0.1274
  437MOL0     C58872   0.364   2.840   5.837 -0.3545 -0.1317  0.3541
  437MOL0     C58873   0.215   2.851   5.798  0.6519 -0.9370 -0.0621
  437MOL0     C58874   0.205   2.892   5.645  0.6425 -0.3033 -0.2409
  437MOL0     C58875   0.087   2.986   5.618 -0.3284  0.5400  0.6981
  437MOL0     C58876  -0.046   2.893   5.606 -0.4777  0.9547  0.1262
  437MOL0     N58877  -0.160   2.981   5.579  1.0888  0.0568  0.4083
  437MOL0     C58878  -0.177   3.079   5.486  0.0043  0.2975  0.3887
  437MOL0     C58879  -0.311   3.109   5.484 -1.2882 -0.2337  0.3618
  437MOL0     C58880  -0.367   3.213   5.391  0.0716  0.0930  0.0690
  437MOL0     C58881  -0.495   3.274   5.450 -0.0758  0.7540  0.0600
  437MOL0     C58882  -0.487   3.426   5.473  0.0767 -0.1277 -0.4126
  437MOL0     C58883  -0.615   3.491   5.533 -0.7861  0.9777 -0.8602
  437MOL0     O58884  -0.737   3.466   5.459  0.1198 -0.3756 -0.1814
  437MOL0     C58885  -0.818   3.358   5.480 -0.3958 -1.3401  0.5141
  437MOL0     C58886  -0.814   3.265   5.588 -0.2960 -0.5513 -0.8204
  437MOL0     C58887  -0.895   3.156   5.602 -0.0800  0.6641  0.8183
  437MOL0     C58888  -0.858   3.060   5.713  0.7286  0.3396 -0.4323
  437MOL0     C58889  -1.000   3.134   5.501 -0.6117  0.9875  0.0971
  437MOL0     C58890  -1.097   3.025   5.497 -1.2929 -0.8676 -0.1549
  437MOL0     O58891  -1.189   3.013   5.388  0.2981  0.6478  0.2895
  437MOL0     C58892  -1.273   2.893   5.387 -0.1373  0.8268 -0.5800
  437MOL0     C58893  -1.275   2.770   5.462 -1.0962  0.0308  0.6464
  437MOL0     C58894  -1.360   2.673   5.435  0.5058  0.4772 -0.1064
  437MOL0     C58895  -1.468   2.693   5.341  0.3248  0.2068 -0.2268
  437MOL0     O58896  -1.549   2.601   5.291 -0.1370  0.2103 -0.4754
  437MOL0     C58897  -1.614   2.520   5.396  0.0321 -0.3041 -0.9096
  437MOL0     C58898  -1.588   2.370   5.400  0.0698 -0.3440 -0.2887
  437MOL0     C58899  -1.621   2.301   5.263 -0.7686 -1.0749 -0.9279
  437MOL0     C58900  -1.627   2.151   5.290 -0.5347 -0.3281  0.1491
  437MOL0     C58901  -1.691   2.084   5.173  0.8389  0.5098 -0.1921
  437MOL0     C58902  -1.611   2.068   5.049 -0.3491  0.1193  0.1937
  437MOL0     C58903  -1.665   2.171   4.950 -0.4978 -0.1612 -0.0573
  437MOL0     C58904  -1.580   2.166   4.821 -0.4287 -0.3874 -0.2511
  437MOL0    Cl58905  -1.414   2.196   4.843 -0.9120 -0.0709 -0.1015
  437MOL0     C58906  -1.468   2.817   5.278  0.0615 -0.6259 -0.7894
  437MOL0     C58907  -1.377   2.913   5.301  0.0052  1.1164 -0.7908
  437MOL0     O58908  -1.093   2.955   5.598 -0.8982 -0.0258  0.5286
  437MOL0     C58909  -1.009   3.220   5.399  0.9151 -0.6472  1.0495
  437MOL0     C58910  -0.922   3.336   5.384  0.8532 -1.0232 -0.1258
  437MOL0     N58911  -0.381   3.013   5.555  0.3163  0.3246  0.0022
  437MOL0     N58912  -0.282   2.947   5.614 -0.4742 -0.0846 -0.9146
  437MOL0     C58913   0.931   2.472   5.949  0.7074 -0.1915 -1.0201
  437MOL0     C58914   0.997   2.368   6.016  0.0577  0.2491  0.3955
  437MOL0     C58915   1.149   2.061   6.290  0.3568 -0.4981 -0.5341
  437MOL0     C58916   1.137   1.960   6.200  0.0015  0.4764 -0.4188
  437MOL0     C58917   1.210   1.848   6.203 -0.3693  0.0761  0.0775
  437MOL0     C58918   1.309   1.832   6.307 -0.5307  0.1536  0.5032
  437MOL0     O58919   1.380   1.720   6.293  0.8684  0.0595  0.7328
  437MOL0     C58920   1.510   1.710   6.364  0.7865  0.5578  1.2905
  437MOL0     C58921   1.627   1.661   6.277  0.7810  0.0609  0.0225
  437MOL0     C58922   1.759   1.645   6.343  0.3326 -0.1834 -0.0897
  437MOL0     C58923   1.858   1.555   6.269 -0.3735 -0.7317 -0.0416
  437MOL0     C58924   1.987   1.567   6.337 -0.4343  0.8926 -0.1438
  437MOL0     C58925   2.095   1.577   6.380 -0.0111 -0.4664 -0.1224
  437MOL0     C58926   1.322   1.936   6.401 -0.0191 -0.9662 -0.9325
  437MOL0     C58927   1.242   2.052   6.393 -0.3806 -0.6544 -0.5785
  437MOL0     H58928   0.752   2.270   6.229 -3.0628  0.4289 -0.5422
  437MOL0     H58929   0.653   2.483   6.156 -1.0810 -3.4674  1.8331
  437MOL0     H58930   0.562   2.559   5.927  2.3568 -1.0372  1.6613
  437MOL0     H58931   0.568   2.718   6.003  1.9654  1.0289  0.7251
  437MOL0     H58932   0.633   2.824   5.805  0.7195 -0.3858 -0.3477
  437MOL0     H58933   0.653   2.667   5.720  1.0417  1.6297 -1.1420
  437MOL0     H58934   0.432   2.759   5.643 -1.0065  0.5055  0.0071
  437MOL0     H58935   0.393   2.642   5.768 -0.5843  0.2023 -0.4173
  437MOL0     H58936   0.373   2.808   5.941  1.7232 -4.1259 -0.8437
  437MOL0     H58937   0.412   2.936   5.815  0.7176 -0.6757  0.2617
  437MOL0     H58938   0.161   2.760   5.825  1.4822 -0.9026  1.9585
  437MOL0     H58939   0.172   2.930   5.861  0.8463 -1.6742  1.0349
  437MOL0     H58940   0.299   2.932   5.606  0.2868 -0.6948 -1.5363
  437MOL0     H58941   0.190   2.803   5.583  1.4193 -1.0522  0.6215
  437MOL0     H58942   0.082   3.073   5.683 -0.4611  1.7393 -0.8653
  437MOL0     H58943   0.101   3.033   5.520 -4.0313  4.0317  1.6223
  437MOL0     H58944  -0.061   2.854   5.707  0.7569  0.1045  0.0037
  437MOL0     H58945  -0.037   2.818   5.527 -2.2396  2.2763 -1.4412
  437MOL0     H58946  -0.092   3.120   5.432 -0.6449 -2.2666 -2.8668
  437MOL0     H58947  -0.284   3.284   5.376 -0.9539  0.9498 -1.9340
  437MOL0     H58948  -0.389   3.162   5.297 -3.6654 -0.9683  1.3607
  437MOL0     H58949  -0.526   3.228   5.544  1.7947 -0.3177  0.1861
  437MOL0     H58950  -0.574   3.241   5.381  0.4688 -1.4444  0.4166
  437MOL0     H58951  -0.445   3.490   5.395  1.6009 -0.5699  0.0136
  437MOL0     H58952  -0.414   3.444   5.552  0.6274 -0.1843 -0.9030
  437MOL0     H58953  -0.599   3.599   5.536 -0.5823  0.9741 -1.5449
  437MOL0     H58954  -0.613   3.460   5.638 -2.3692 -2.2373 -1.6383
  437MOL0     H58955  -0.730   3.265   5.657 -1.5394  2.3262  0.8754
  437MOL0     H58956  -0.750   3.045   5.717  0.4500 -2.4229 -1.3093
  437MOL0     H58957  -0.894   3.094   5.811 -0.8317  2.2121 -1.5719
  437MOL0     H58958  -0.893   2.957   5.701 -1.6129  1.1667 -1.3340
  437MOL0     H58959  -1.191   2.759   5.530 -1.4267  0.2992  1.1025
  437MOL0     H58960  -1.350   2.579   5.487  1.8304  1.6097  1.8139
  437MOL0     H58961  -1.606   2.562   5.497  0.8395 -1.1404 -0.6122
  437MOL0     H58962  -1.723   2.528   5.390 -0.1603 -1.5301  0.2065
  437MOL0     H58963  -1.481   2.364   5.420  0.3845  3.8504  0.0703
  437MOL0     H58964  -1.646   2.325   5.481 -1.8298 -0.2496 -1.5319
  437MOL0     H58965  -1.545   2.321   5.187 -0.4238 -1.1759 -0.6127
  437MOL0     H58966  -1.710   2.350   5.224 -0.3576  0.8458  0.4425
  437MOL0     H58967  -1.522   2.122   5.299  0.0142  1.2818 -0.6263
  437MOL0     H58968  -1.670   2.120   5.385 -2.0499  1.4042  0.0973
  437MOL0     H58969  -1.785   2.135   5.150  0.3741  0.1426  0.8564
  437MOL0     H58970  -1.718   1.984   5.209 -0.5718  1.3195  1.1387
  437MOL0     H58971  -1.503   2.078   5.063 -0.4199  1.9261 -0.2806
  437MOL0     H58972  -1.641   1.968   5.017 -5.2777  0.2333  3.4117
  437MOL0     H58973  -1.658   2.271   4.994  0.6799 -0.7491  1.1675
  437MOL0     H58974  -1.768   2.144   4.924 -0.7315 -0.0463  0.7346
  437MOL0     H58975  -1.603   2.222   4.730  0.6044 -1.2506 -1.0783
  437MOL0     H58976  -1.576   2.060   4.796  2.3076  0.0185 -2.0710
  437MOL0     H58977  -1.546   2.829   5.203 -1.4153  1.6663  0.9738
  437MOL0     H58978  -1.390   2.994   5.230 -1.1308  0.4853 -1.3254
  437MOL0     H58979  -1.065   3.204   5.308  2.0668 -3.1906  0.6961
  437MOL0     H58980  -0.935   3.414   5.309 -0.0092 -0.7734  0.2661
  437MOL0     H58981   0.968   2.531   5.866 -0.2759  1.5956 -0.2325
  437MOL0     H58982   1.098   2.348   5.984 -0.2278 -2.1979  0.8734
  437MOL0     H58983   1.056   1.958   6.128 -0.4465 -1.3048  0.0950
  437MOL0     H58984   1.179   1.758   6.149 -3.0579 -1.7683  4.1550
  437MOL0     H58985   1.538   1.800   6.419  0.0160  0.8299  1.2426
  437MOL0     H58986   1.503   1.626   6.435  3.2868 -1.1797 -0.3335
  437MOL0     H58987   1.646   1.738   6.200 -1.1816  3.3966  2.5739
  437MOL0     H58988   1.589   1.566   6.238 -0.6949  1.6525 -2.7678
  437MOL0     H58989   1.733   1.618   6.445 -1.1336  0.5917 -0.2272
  437MOL0     H58990   1.794   1.748   6.353 -2.8312  0.9440  0.3767
  437MOL0     H58991   1.881   1.589   6.167 -1.6129 -2.8960 -1.1335
  437MOL0     H58992   1.827   1.450   6.265  0.7518 -1.0712 -3.2746
  437MOL0     H58993   2.185   1.585   6.438  3.0121 -0.2648 -4.3836
  437MOL0     H58994   1.390   1.933   6.485 -1.5122  1.5355  0.5022
  437MOL0     H58995   1.260   2.138   6.456  0.4635 -0.7251 -0.7065
  438MOL0     O58996  11.041  10.756   5.446 -0.1962 -0.4840  0.4465
  438MOL0     C58997  11.099  10.799   5.545 -0.5036 -0.3675 -1.4291
  438MOL0     O58998  11.056  10.909   5.630 -0.7019  0.9103 -0.7829
  438MOL0     C58999  10.933  10.953   5.595 -0.4582 -0.0083  0.6640
  438MOL0     C59000  10.822  10.880   5.626 -0.1658 -0.1677  0.1202
  438MOL0     C59001  10.694  10.928   5.583 -0.4151  0.3642 -0.3121
  438MOL0     C59002  10.681  11.043   5.508  0.1034 -0.0301  0.1545
  438MOL0     O59003  10.566  11.092   5.452  0.1295 -0.2165  0.1597
  438MOL0     C59004  10.464  11.121   5.536 -0.4966 -0.2182  0.3147
  438MOL0     C59005  10.343  11.159   5.442  0.1659 -0.4634  0.1862
  438MOL0     C59006  10.343  11.304   5.390  0.3658 -0.5889  0.0921
  438MOL0     C59007  10.203  11.362   5.336 -1.0387 -0.3466 -0.0197
  438MOL0     C59008  10.111  11.258   5.273 -0.0053  0.1666 -0.0250
  438MOL0     C59009   9.992  11.321   5.201 -0.5768 -0.0323  1.1837
  438MOL0     C59010   9.857  11.249   5.239 -0.3401 -0.2134 -0.3412
  438MOL0     C59011   9.762  11.264   5.130 -0.1309 -0.9664  0.4676
  438MOL0     N59012   9.636  11.193   5.156  1.2683  0.3145 -0.2045
  438MOL0     C59013   9.511  11.252   5.182 -0.3022  0.2546 -0.4006
  438MOL0     C59014   9.420  11.155   5.146 -0.8479  0.0662 -0.8641
  438MOL0     C59015   9.282  11.204   5.111  0.5629  0.3426 -0.3268
  438MOL0     C59016   9.160  11.121   5.152 -1.0049 -0.3102 -0.0021
  438MOL0     C59017   9.158  10.990   5.073  0.8170 -0.7731  0.5308
  438MOL0     C59018   9.010  10.938   5.056 -0.0283  0.1529  0.0951
  438MOL0     O59019   9.002  10.810   4.994 -0.0780 -0.3834  0.2632
  438MOL0     C59020   8.888  10.740   5.002  0.2833  1.5031 -0.5072
  438MOL0     C59021   8.852  10.650   4.902  0.4625  0.3142 -0.2616
  438MOL0     C59022   8.738  10.564   4.910 -0.4420  0.4055 -0.9686
  438MOL0     C59023   8.716  10.487   4.790 -0.3311  0.3960  0.4886
  438MOL0     C59024   8.657  10.560   5.023  0.8160 -0.7970 -0.6463
  438MOL0     C59025   8.545  10.468   5.044  1.0660 -0.2911  0.4961
  438MOL0     O59026   8.490  10.400   4.938 -0.1890  0.1514 -0.3245
  438MOL0     C59027   8.412  10.287   4.968  0.0999 -0.7861  0.2924
  438MOL0     C59028   8.273  10.291   4.979  0.5149  0.3138  0.2535
  438MOL0     C59029   8.208  10.171   4.999  0.0630 -1.1433 -0.1388
  438MOL0     C59030   8.273  10.051   5.011  0.4631  0.5681  0.5818
  438MOL0     O59031   8.210   9.932   5.035 -0.0425  0.3928 -0.1199
  438MOL0     C59032   8.092   9.898   4.949  0.1515 -0.3991 -1.2941
  438MOL0     C59033   8.104   9.759   4.922 -0.2484 -0.3301 -0.1278
  438MOL0     C59034   8.003   9.712   4.805  0.3806 -0.6144 -0.3548
  438MOL0     C59035   8.037   9.567   4.785 -0.2625 -0.2719 -0.0119
  438MOL0     C59036   7.935   9.491   4.693  0.1362  1.0186 -0.6979
  438MOL0     C59037   7.913   9.337   4.710  0.2615  1.4265  0.1122
  438MOL0     C59038   7.797   9.279   4.626  0.1994 -0.1511  0.6349
  438MOL0     C59039   7.816   9.296   4.481 -0.4415  0.2760 -0.5882
  438MOL0    Cl59040   7.685   9.212   4.390 -0.5423  0.2392  0.3795
  438MOL0     C59041   8.407  10.055   5.020 -0.3909 -1.1446 -0.9612
  438MOL0     C59042   8.479  10.171   4.985 -0.7306 -0.1861 -0.4984
  438MOL0     O59043   8.505  10.457   5.164 -0.3446 -0.5119 -0.2654
  438MOL0     C59044   8.700  10.643   5.132  0.0907 -0.9778  0.2101
  438MOL0     C59045   8.805  10.737   5.117  0.1085 -0.5532  0.0978
  438MOL0     N59046   9.492  11.044   5.100 -0.0454  0.0581  1.1484
  438MOL0     N59047   9.619  11.061   5.120  0.0832 -0.7798 -0.0353
  438MOL0     C59048  10.799  11.119   5.483  0.1083 -0.2050  0.0279
  438MOL0     C59049  10.918  11.081   5.538 -0.3915  0.3117 -0.1332
  438MOL0     C59050  11.215  10.716   5.585 -0.0648 -0.8037  0.0901
  438MOL0     C59051  11.249  10.714   5.723 -0.1125 -0.8006 -0.5099
  438MOL0     C59052  11.344  10.622   5.772 -0.0510  0.3373 -0.4186
  438MOL0     C59053  11.402  10.526   5.690  0.7773 -0.6486 -0.0779
  438MOL0     O59054  11.457  10.423   5.760  0.4929 -0.2346  0.1376
  438MOL0     C59055  11.552  10.360   5.678 -0.1015  0.3116 -0.1322
  438MOL0     C59056  11.607  10.250   5.770 -0.0558  0.2310 -0.6995
  438MOL0     C59057  11.730  10.177   5.708 -0.0800  0.1921 -0.3146
  438MOL0     C59058  11.770  10.057   5.791 -0.7086  0.8629  0.3870
  438MOL0     C59059  11.653   9.972   5.802 -1.6979  0.1124 -0.0185
  438MOL0     C59060  11.574   9.881   5.821  1.7160  0.6258 -0.9496
  438MOL0     C59061  11.371  10.533   5.553 -0.2015  0.2407  0.5359
  438MOL0     C59062  11.284  10.626   5.500 -0.6745  0.5964 -0.1082
  438MOL0     H59063  10.827  10.793   5.691  0.2090 -0.5269 -0.3831
  438MOL0     H59064  10.608  10.869   5.614 -3.1242  5.0911  2.2271
  438MOL0     H59065  10.443  11.033   5.597  3.4153 -1.5770 -0.0237
  438MOL0     H59066  10.498  11.202   5.603  2.0897 -0.6092 -0.4055
  438MOL0     H59067  10.351  11.099   5.351  1.4448  0.6885 -0.4915
  438MOL0     H59068  10.247  11.134   5.489  0.1154 -2.1471 -0.6967
  438MOL0     H59069  10.366  11.364   5.478 -0.5463  3.6979 -2.3295
  438MOL0     H59070  10.427  11.328   5.324  0.1835 -0.1612  0.0103
  438MOL0     H59071  10.155  11.415   5.419  0.4153  0.3789  0.4136
  438MOL0     H59072  10.220  11.435   5.256 -0.0436 -1.8100 -1.2038
  438MOL0     H59073  10.163  11.188   5.207  0.9954  0.2331  0.6721
  438MOL0     H59074  10.083  11.188   5.352  0.1835 -2.9652 -2.5453
  438MOL0     H59075   9.997  11.427   5.227  0.6688  0.7834 -1.9658
  438MOL0     H59076  10.006  11.311   5.093  0.4160  0.2602  1.2745
  438MOL0     H59077   9.875  11.142   5.253  0.5585 -0.2614 -1.7035
  438MOL0     H59078   9.822  11.293   5.333 -2.8495  0.0724 -1.3306
  438MOL0     H59079   9.810  11.223   5.040  0.9991 -2.6068  1.7605
  438MOL0     H59080   9.737  11.370   5.119 -0.6647 -0.9920  1.3835
  438MOL0     H59081   9.503  11.360   5.189  0.5636  0.2897  0.1428
  438MOL0     H59082   9.275  11.306   5.151 -1.8479  0.3079 -0.5025
  438MOL0     H59083   9.280  11.214   5.002 -2.0402 -1.5780 -0.5346
  438MOL0     H59084   9.067  11.177   5.139  0.4109  1.4506 -4.5989
  438MOL0     H59085   9.178  11.090   5.256  4.3028 -1.4741 -0.9573
  438MOL0     H59086   9.223  10.927   5.134  2.5604  0.6847  0.2597
  438MOL0     H59087   9.202  11.010   4.975 -1.9357 -2.9566 -1.3037
  438MOL0     H59088   8.951  11.013   5.002  1.8102  0.5216 -1.5302
  438MOL0     H59089   8.955  10.939   5.150 -2.5888 -1.4609 -1.2971
  438MOL0     H59090   8.926  10.640   4.823  1.0615 -2.1728  0.5020
  438MOL0     H59091   8.790  10.507   4.713 -0.4891 -0.8303 -0.0129
  438MOL0     H59092   8.711  10.383   4.824 -2.4488  0.6060  1.0081
  438MOL0     H59093   8.622  10.509   4.738  0.7838 -1.3424 -2.5454
  438MOL0     H59094   8.206  10.376   4.970 -0.7608 -0.7292 -0.4768
  438MOL0     H59095   8.102  10.171   5.024 -0.4770  1.0794 -2.0665
  438MOL0     H59096   8.002   9.898   5.012  1.7767 -0.1087  1.1681
  438MOL0     H59097   8.073   9.959   4.860  0.3523 -1.9127 -2.4091
  438MOL0     H59098   8.201   9.736   4.877  1.7587  3.2008  1.9185
  438MOL0     H59099   8.093   9.695   5.011 -2.6016  0.2147  0.0298
  438MOL0     H59100   8.024   9.768   4.713  0.7945 -0.8199 -0.3898
  438MOL0     H59101   7.896   9.722   4.825  0.1642  0.8208 -1.9253
  438MOL0     H59102   8.131   9.544   4.736 -2.2040 -1.9400 -3.3288
  438MOL0     H59103   8.045   9.520   4.883  0.2586  0.7718  0.4608
  438MOL0     H59104   7.963   9.505   4.588 -3.2786 -0.5288 -1.9761
  438MOL0     H59105   7.842   9.548   4.706  0.2556  1.0988 -0.1972
  438MOL0     H59106   8.000   9.272   4.697 -1.7451 -1.5744  0.7432
  438MOL0     H59107   7.888   9.328   4.816 -1.7537 -1.7887 -0.4734
  438MOL0     H59108   7.707   9.337   4.651  0.8990  0.9199  0.7230
  438MOL0     H59109   7.775   9.175   4.648 -1.5081  0.0648  0.1110
  438MOL0     H59110   7.910   9.248   4.452 -2.1020 -3.4270 -0.4561
  438MOL0     H59111   7.827   9.400   4.451 -1.2454 -0.0979 -2.3280
  438MOL0     H59112   8.466   9.966   5.039  1.0102 -0.6606 -2.6943
  438MOL0     H59113   8.587  10.162   4.976 -0.6450 -0.3911  0.6138
  438MOL0     H59114   8.640  10.652   5.223  1.5655  1.5070  1.0417
  438MOL0     H59115   8.822  10.794   5.209 -0.6284  0.4837 -0.3836
  438MOL0     H59116  10.780  11.212   5.430 -2.6984 -0.3392  0.6297
  438MOL0     H59117  11.003  11.148   5.538  1.7331 -2.2196  0.3112
  438MOL0     H59118  11.208  10.794   5.783 -1.0752 -1.8872  0.3155
  438MOL0     H59119  11.361  10.619   5.879 -1.5915  1.8348 -0.0853
  438MOL0     H59120  11.493  10.320   5.595 -2.3835 -1.0825  1.9892
  438MOL0     H59121  11.629  10.424   5.636  1.3925  1.5124  3.9653
  438MOL0     H59122  11.523  10.187   5.797  1.5234 -0.3275  3.5906
  438MOL0     H59123  11.645  10.295   5.862 -2.0163  0.6741 -0.0674
  438MOL0     H59124  11.808  10.253   5.722 -1.4887  1.2966  2.0623
  438MOL0     H59125  11.705  10.156   5.604 -1.5214  3.5417 -0.7521
  438MOL0     H59126  11.810  10.075   5.891 -0.9278 -1.6466  1.0063
  438MOL0     H59127  11.848   9.999   5.741 -1.6280 -1.6509  1.6619
  438MOL0     H59128  11.511   9.796   5.838  2.7794 -0.9264 -3.9439
  438MOL0     H59129  11.404  10.459   5.482  0.7174  1.5078 -0.3975
  438MOL0     H59130  11.261  10.625   5.394 -0.6820 -1.1919 -0.1217
  439MOL0     O59131   4.763   8.336   5.582  0.7355 -0.3495 -0.4893
  439MOL0     C59132   4.784   8.283   5.470  0.1598  0.1804 -0.5354
  439MOL0     O59133   4.749   8.160   5.437  0.2340 -0.1819  0.1009
  439MOL0     C59134   4.644   8.086   5.494 -0.0753 -0.5198 -0.3120
  439MOL0     C59135   4.568   8.111   5.606  0.0671  0.2944  0.6319
  439MOL0     C59136   4.454   8.042   5.633  0.8051 -0.1492  0.4361
  439MOL0     C59137   4.409   7.933   5.550 -0.5266 -1.3492 -1.0604
  439MOL0     O59138   4.301   7.860   5.586 -0.2249 -0.1492 -0.0793
  439MOL0     C59139   4.293   7.719   5.534 -0.0227 -0.1439 -0.1972
  439MOL0     C59140   4.236   7.642   5.652 -0.8113  0.3366  0.3228
  439MOL0     C59141   4.221   7.497   5.606  0.4425 -0.0498  0.2360
  439MOL0     C59142   4.152   7.405   5.712 -0.4370  1.0925  0.0135
  439MOL0     C59143   4.098   7.268   5.666  1.0445  0.0702 -0.2577
  439MOL0     C59144   4.212   7.189   5.610 -0.3107 -0.1800  0.1626
  439MOL0     C59145   4.170   7.039   5.594  0.1323  0.1870  0.1060
  439MOL0     C59146   4.277   6.953   5.528 -0.9771 -0.0775  0.2698
  439MOL0     N59147   4.296   7.009   5.388  0.5831  0.8064 -0.7266
  439MOL0     C59148   4.398   7.090   5.342 -0.4234  0.3035  0.2065
  439MOL0     C59149   4.371   7.124   5.225  0.7978  0.2797  0.6862
  439MOL0     C59150   4.437   7.235   5.151 -0.4894  0.8378  0.9573
  439MOL0     C59151   4.416   7.374   5.222 -0.3336 -0.4525  0.6338
  439MOL0     C59152   4.270   7.408   5.235 -0.4138  0.9668 -0.4047
  439MOL0     C59153   4.192   7.428   5.101  1.0821 -1.1886 -0.8171
  439MOL0     O59154   4.053   7.460   5.134 -0.2878  0.5631  0.1698
  439MOL0     C59155   3.968   7.366   5.186  0.5818 -0.1821  0.1433
  439MOL0     C59156   3.873   7.413   5.284  0.2555 -0.5381  1.0166
  439MOL0     C59157   3.781   7.314   5.331 -0.3885 -0.9365  0.3297
  439MOL0     C59158   3.694   7.349   5.444  0.5506  0.7594 -0.4605
  439MOL0     C59159   3.772   7.184   5.271 -0.6674  0.1901  0.1326
  439MOL0     C59160   3.659   7.078   5.302  0.4974 -0.1753 -0.2880
  439MOL0     O59161   3.548   7.124   5.384 -0.7316 -0.5358 -0.1380
  439MOL0     C59162   3.452   7.029   5.415 -0.0831  0.1016  0.4966
  439MOL0     C59163   3.362   6.990   5.319  0.9791  0.0344  0.0085
  439MOL0     C59164   3.261   6.903   5.354 -0.0898  0.2618 -0.7242
  439MOL0     C59165   3.255   6.850   5.482  1.0935 -0.3785 -0.9021
  439MOL0     O59166   3.144   6.778   5.538 -0.1595 -0.1346  0.4567
  439MOL0     C59167   3.042   6.742   5.449 -0.6302 -0.4671 -0.4517
  439MOL0     C59168   2.932   6.658   5.530  0.3679  1.0963  0.4537
  439MOL0     C59169   2.974   6.512   5.562  0.0354 -0.7501  0.5236
  439MOL0     C59170   2.915   6.476   5.702 -0.2489  0.2083  0.5141
  439MOL0     C59171   2.943   6.335   5.749 -0.1757 -0.3449 -0.3178
  439MOL0     C59172   3.082   6.325   5.825 -0.2089 -0.0686 -0.6425
  439MOL0     C59173   3.136   6.178   5.835 -0.4748 -0.2134 -0.3568
  439MOL0     C59174   3.242   6.167   5.942  0.2979  1.2360  0.4493
  439MOL0    Cl59175   3.392   6.265   5.912  0.3577  0.4224  0.2432
  439MOL0     C59176   3.348   6.890   5.578 -0.0902  0.1103 -0.1570
  439MOL0     C59177   3.447   6.982   5.549 -0.2414 -0.3476 -0.1488
  439MOL0     O59178   3.671   6.967   5.259  0.1117 -0.1053 -0.3375
  439MOL0     C59179   3.872   7.146   5.175  0.6123  0.8052  0.3405
  439MOL0     C59180   3.962   7.243   5.132  0.3308 -0.2754 -1.0927
  439MOL0     N59181   4.265   7.043   5.175  0.5556 -0.1494 -0.1584
  439MOL0     N59182   4.230   6.966   5.275  0.4339  0.0602 -0.8011
  439MOL0     C59183   4.473   7.917   5.430 -0.1485  0.5660  0.3647
  439MOL0     C59184   4.594   7.987   5.411 -0.4934 -0.2773 -1.2081
  439MOL0     C59185   4.883   8.337   5.375  0.4464 -0.6264 -0.5152
  439MOL0     C59186   4.879   8.311   5.240 -0.2600 -0.6239  0.2202
  439MOL0     C59187   4.983   8.346   5.158 -0.7144  0.3646  0.0250
  439MOL0     C59188   5.090   8.423   5.201  0.0814 -0.1164  0.3123
  439MOL0     O59189   5.196   8.441   5.117  0.4847 -0.2628 -0.1087
  439MOL0     C59190   5.166   8.478   4.986  0.7028  0.9161  1.1310
  439MOL0     C59191   5.262   8.574   4.917  1.1873  0.7431 -1.1143
  439MOL0     C59192   5.197   8.650   4.798  0.4124 -0.1512  0.8435
  439MOL0     C59193   5.283   8.726   4.697 -0.5897 -0.8323 -0.1112
  439MOL0     C59194   5.373   8.640   4.618  0.0214 -0.3295  0.1226
  439MOL0     C59195   5.452   8.556   4.565  0.0050 -0.3014 -0.9264
  439MOL0     C59196   5.084   8.462   5.338 -1.2139  1.2429 -0.0062
  439MOL0     C59197   4.980   8.417   5.423  0.3286 -0.4108  0.1033
  439MOL0     H59198   4.610   8.183   5.676  0.3083 -0.2768  1.0813
  439MOL0     H59199   4.415   8.062   5.733  4.7171 -1.3058  2.3906
  439MOL0     H59200   4.224   7.726   5.450  0.7382 -0.1640 -0.8323
  439MOL0     H59201   4.385   7.673   5.495 -0.4259 -0.5169 -0.7168
  439MOL0     H59202   4.300   7.648   5.741  0.3236 -2.7439 -0.1460
  439MOL0     H59203   4.144   7.692   5.683 -0.7975 -0.3435  1.5130
  439MOL0     H59204   4.156   7.503   5.518  1.8351 -3.0088 -1.1028
  439MOL0     H59205   4.316   7.449   5.581  1.3546  2.0109 -0.4719
  439MOL0     H59206   4.235   7.379   5.778  0.6887  0.6814 -1.5055
  439MOL0     H59207   4.071   7.447   5.773 -1.2714 -0.1403 -0.1953
  439MOL0     H59208   4.049   7.213   5.747 -0.4813 -1.2640 -2.0252
  439MOL0     H59209   4.019   7.283   5.592 -0.5738  0.4796  1.4718
  439MOL0     H59210   4.242   7.220   5.509 -0.1009  0.1436  0.3231
  439MOL0     H59211   4.304   7.205   5.667  0.8528  1.7393 -2.0463
  439MOL0     H59212   4.155   6.994   5.692  0.1921  0.2158  0.1287
  439MOL0     H59213   4.077   7.032   5.537  1.9555  2.5035 -3.5535
  439MOL0     H59214   4.242   6.849   5.534 -1.6026  0.2222  2.8808
  439MOL0     H59215   4.373   6.969   5.578 -0.4067  1.5704 -1.2329
  439MOL0     H59216   4.469   7.147   5.402 -1.1272  1.3808  0.0566
  439MOL0     H59217   4.544   7.215   5.149 -0.3632  1.5250 -0.2599
  439MOL0     H59218   4.396   7.234   5.049 -2.2154  0.7588  1.6162
  439MOL0     H59219   4.460   7.463   5.176  1.5695 -0.6755  1.8997
  439MOL0     H59220   4.471   7.372   5.316 -0.1300  2.7818  0.6987
  439MOL0     H59221   4.273   7.504   5.288  1.1566  2.1442 -2.4601
  439MOL0     H59222   4.221   7.337   5.301 -1.3628  2.0928  0.1359
  439MOL0     H59223   4.198   7.339   5.037  2.9335 -1.7665  0.0852
  439MOL0     H59224   4.240   7.507   5.043  0.1332 -1.2325 -1.6979
  439MOL0     H59225   3.880   7.516   5.320 -0.1135 -0.6930  1.5503
  439MOL0     H59226   3.718   7.446   5.487 -1.1166  0.7598  0.5416
  439MOL0     H59227   3.588   7.361   5.420  0.5267  0.0300 -0.7602
  439MOL0     H59228   3.693   7.273   5.524 -5.2460  1.3851  0.5385
  439MOL0     H59229   3.371   7.029   5.218  0.0708 -2.0469 -0.9451
  439MOL0     H59230   3.187   6.893   5.275  0.3421 -0.6504 -1.0319
  439MOL0     H59231   2.987   6.820   5.395  0.2265 -0.9689 -2.1352
  439MOL0     H59232   3.099   6.677   5.382  1.7303  0.9826  0.0230
  439MOL0     H59233   2.916   6.705   5.627  1.3862 -3.0451  2.8974
  439MOL0     H59234   2.833   6.644   5.484  0.5669  0.3765  0.2201
  439MOL0     H59235   3.084   6.508   5.561  0.0810  0.1687 -0.9678
  439MOL0     H59236   2.931   6.445   5.487 -0.6552 -1.0178  1.1470
  439MOL0     H59237   2.945   6.561   5.765  1.3086  0.7043 -0.8209
  439MOL0     H59238   2.806   6.474   5.696 -0.4417 -2.7312  2.5586
  439MOL0     H59239   2.941   6.264   5.666  0.7980 -1.2270  0.3880
  439MOL0     H59240   2.863   6.312   5.819  0.0347 -2.0061 -0.5674
  439MOL0     H59241   3.153   6.386   5.768  0.5406  0.6740  1.0290
  439MOL0     H59242   3.080   6.366   5.926 -0.9456 -0.0449 -0.6615
  439MOL0     H59243   3.163   6.145   5.734 -1.9437  1.3154 -1.2968
  439MOL0     H59244   3.053   6.114   5.869  0.8543 -2.5498 -1.2962
  439MOL0     H59245   3.272   6.062   5.941  3.7086  2.0692 -0.0033
  439MOL0     H59246   3.200   6.196   6.039 -0.5141 -0.2590  0.5723
  439MOL0     H59247   3.342   6.859   5.681  2.5126 -0.2042 -0.0370
  439MOL0     H59248   3.508   7.015   5.632  0.2050 -0.3631 -0.4633
  439MOL0     H59249   3.866   7.049   5.126  1.0596  1.7278 -1.6415
  439MOL0     H59250   4.023   7.209   5.049 -1.5469 -1.8305 -1.9356
  439MOL0     H59251   4.451   7.847   5.350  1.2332  1.1569 -0.5624
  439MOL0     H59252   4.659   7.962   5.328  0.1888 -0.9215 -0.4992
  439MOL0     H59253   4.800   8.243   5.210  2.5636 -3.1883 -1.9366
  439MOL0     H59254   4.994   8.302   5.059 -0.4319  1.1354 -0.2963
  439MOL0     H59255   5.157   8.386   4.928  1.2685  2.2465 -1.1778
  439MOL0     H59256   5.064   8.517   4.981  0.7028  0.8532  0.6591
  439MOL0     H59257   5.353   8.514   4.906  0.1855 -1.2165  0.5718
  439MOL0     H59258   5.281   8.656   4.987  1.1776 -1.1945  1.2833
  439MOL0     H59259   5.122   8.715   4.843  0.2250  0.1660  0.0814
  439MOL0     H59260   5.135   8.576   4.746 -1.3003  0.9277  1.2813
  439MOL0     H59261   5.339   8.801   4.754  0.2962 -0.4071 -1.5113
  439MOL0     H59262   5.219   8.782   4.628 -0.9152 -1.0335  0.0254
  439MOL0     H59263   5.511   8.475   4.527 -0.7928 -1.5569  0.4178
  439MOL0     H59264   5.173   8.508   5.378 -1.6415  0.3284  2.1538
  439MOL0     H59265   4.994   8.434   5.529  0.4699  0.0113  0.0200
  440MOL0     O59266   3.244   8.804   4.586 -0.1875  0.5411  0.4761
  440MOL0     C59267   3.159   8.817   4.502 -0.4489 -0.3326 -0.8626
  440MOL0     O59268   3.156   8.800   4.371  0.2821 -0.3352  0.7947
  440MOL0     C59269   3.256   8.733   4.312 -0.7075  0.8176 -0.3841
  440MOL0     C59270   3.251   8.591   4.301  0.6512  0.1527 -0.2341
  440MOL0     C59271   3.367   8.526   4.254  0.0456 -0.0967 -0.4024
  440MOL0     C59272   3.488   8.592   4.225  0.6868  0.1778 -0.1100
  440MOL0     O59273   3.601   8.522   4.195 -0.3949 -0.1903 -1.0791
  440MOL0     C59274   3.717   8.595   4.167 -0.5819 -0.2826 -0.0316
  440MOL0     C59275   3.844   8.507   4.133  0.1158  0.2270  0.6258
  440MOL0     C59276   3.834   8.455   3.984 -0.1491  0.3910 -0.6706
  440MOL0     C59277   3.970   8.454   3.911  0.0954 -0.1166 -1.6871
  440MOL0     C59278   3.952   8.403   3.766  0.0197  0.0973 -0.0552
  440MOL0     C59279   4.089   8.366   3.714 -0.2318  0.1821 -0.0041
  440MOL0     C59280   4.072   8.306   3.560  0.1390 -0.1801 -0.3465
  440MOL0     C59281   4.183   8.344   3.467  1.1032 -0.7178  0.1372
  440MOL0     N59282   4.311   8.333   3.526 -1.1064  1.1072  0.5238
  440MOL0     C59283   4.350   8.210   3.565 -0.6713 -0.1985  0.1768
  440MOL0     C59284   4.461   8.226   3.633 -0.0906  0.4414  0.2155
  440MOL0     C59285   4.544   8.113   3.694  0.6087  0.2379 -0.8811
  440MOL0     C59286   4.498   8.118   3.839 -0.1256  0.0167  0.2416
  440MOL0     C59287   4.583   8.033   3.938 -0.0212 -0.0407 -0.6440
  440MOL0     C59288   4.531   8.041   4.079  0.0008  0.3282  0.5641
  440MOL0     O59289   4.626   7.982   4.173  0.0379  0.0542  0.4269
  440MOL0     C59290   4.620   7.841   4.187 -0.6422  0.1456  0.2583
  440MOL0     C59291   4.725   7.794   4.271  0.0195 -0.4653 -0.0161
  440MOL0     C59292   4.733   7.666   4.296  0.0721 -0.0875  0.0243
  440MOL0     C59293   4.833   7.622   4.398  0.3150 -0.5321 -0.6762
  440MOL0     C59294   4.655   7.565   4.230  0.6064  0.3238  0.1583
  440MOL0     C59295   4.643   7.422   4.266  0.0311  0.1413 -0.3522
  440MOL0     O59296   4.554   7.378   4.364 -0.1594 -0.0852  0.8635
  440MOL0     C59297   4.542   7.250   4.406 -0.2962 -1.0459  0.3089
  440MOL0     C59298   4.418   7.206   4.446  0.5078  0.2677  0.3739
  440MOL0     C59299   4.387   7.076   4.475  0.1287 -0.2030 -0.2449
  440MOL0     C59300   4.492   6.979   4.468  1.4607  0.4042  0.8147
  440MOL0     O59301   4.460   6.848   4.485 -0.2785 -0.1719 -0.6709
  440MOL0     C59302   4.500   6.751   4.384 -0.1063  0.3948 -1.2274
  440MOL0     C59303   4.481   6.609   4.431  0.2672 -0.2387 -0.2863
  440MOL0     C59304   4.600   6.572   4.529 -0.1629  0.7187  0.1885
  440MOL0     C59305   4.600   6.412   4.535 -0.6444  0.4000 -0.7826
  440MOL0     C59306   4.706   6.357   4.636  0.5663  0.1101 -0.0806
  440MOL0     C59307   4.670   6.402   4.776 -0.4156  0.0063 -0.0631
  440MOL0     C59308   4.538   6.341   4.833 -0.5945 -0.4165 -0.5810
  440MOL0     C59309   4.513   6.380   4.983 -1.2953  0.4016  0.1994
  440MOL0    Cl59310   4.411   6.248   5.053 -0.0764 -0.5158 -0.9261
  440MOL0     C59311   4.618   7.018   4.439 -0.8599 -0.4824  1.2521
  440MOL0     C59312   4.648   7.157   4.412  0.8065 -0.3947  1.8530
  440MOL0     O59313   4.721   7.351   4.206 -0.3774  0.3783  0.6527
  440MOL0     C59314   4.552   7.617   4.141 -0.0557  0.7806 -0.1441
  440MOL0     C59315   4.542   7.750   4.115 -0.2123  0.0790  0.0555
  440MOL0     N59316   4.494   8.359   3.614  0.3757 -0.7311 -0.5185
  440MOL0     N59317   4.409   8.426   3.554  0.0997 -0.7571  0.2128
  440MOL0     C59318   3.492   8.729   4.247  0.2389  0.0604  0.0865
  440MOL0     C59319   3.377   8.800   4.284  0.8164 -0.4136  0.6726
  440MOL0     C59320   3.029   8.875   4.564  0.4045  0.0040  0.5654
  440MOL0     C59321   3.019   8.923   4.695  0.9037  1.1366  0.1477
  440MOL0     C59322   2.897   8.970   4.741 -0.9211 -1.1305  0.0980
  440MOL0     C59323   2.785   8.986   4.662 -1.0346  0.0110  1.2003
  440MOL0     O59324   2.662   9.028   4.708  0.7356  0.2220  0.6572
  440MOL0     C59325   2.550   8.946   4.668 -0.5579  0.8516 -0.0820
  440MOL0     C59326   2.441   8.924   4.776  0.2868 -0.0673 -0.1458
  440MOL0     C59327   2.505   8.901   4.917  0.8615 -1.0152  0.9202
  440MOL0     C59328   2.404   8.879   5.028 -0.4030  0.3451  0.4527
  440MOL0     C59329   2.296   8.973   5.044  0.1962  0.2866 -0.2799
  440MOL0     C59330   2.205   9.056   5.055 -0.1834 -0.5685 -0.0408
  440MOL0     C59331   2.797   8.931   4.534  0.6625 -0.4689 -0.0516
  440MOL0     C59332   2.918   8.885   4.483 -0.5244 -0.4471  0.2594
  440MOL0     H59333   3.164   8.532   4.330 -0.6645  2.6106  1.1807
  440MOL0     H59334   3.369   8.420   4.228 -1.3581  0.0648 -1.2696
  440MOL0     H59335   3.696   8.649   4.075 -2.8414 -2.4991 -0.9187
  440MOL0     H59336   3.741   8.660   4.252 -3.2208 -0.6399  1.0726
  440MOL0     H59337   3.928   8.576   4.136  0.7151 -0.3395 -1.4863
  440MOL0     H59338   3.854   8.422   4.202 -2.2452 -1.1148 -0.5554
  440MOL0     H59339   3.795   8.353   3.987 -0.8961  0.6841  1.6350
  440MOL0     H59340   3.777   8.520   3.917  2.0470  1.7850 -1.3094
  440MOL0     H59341   4.026   8.547   3.907  0.2826 -0.2583 -4.1623
  440MOL0     H59342   4.030   8.388   3.974  2.7743  2.3707 -1.4367
  440MOL0     H59343   3.883   8.319   3.764 -1.3539  1.1854 -0.1758
  440MOL0     H59344   3.901   8.476   3.702 -0.1953 -0.8988 -1.0464
  440MOL0     H59345   4.156   8.452   3.719 -0.3933  0.2465  1.6290
  440MOL0     H59346   4.128   8.289   3.782 -1.1119  1.1397  1.6673
  440MOL0     H59347   4.048   8.200   3.553  2.3374 -0.7016 -0.8030
  440MOL0     H59348   3.992   8.363   3.513  2.4403  3.0203 -0.6989
  440MOL0     H59349   4.167   8.445   3.430  1.9493 -1.5729 -2.8208
  440MOL0     H59350   4.178   8.283   3.376  2.2390 -0.8540  0.1534
  440MOL0     H59351   4.289   8.122   3.546  0.3657 -1.4855  2.4043
  440MOL0     H59352   4.515   8.017   3.650 -2.7637  0.6812  0.0606
  440MOL0     H59353   4.651   8.128   3.676  0.9082  1.0968  1.2827
  440MOL0     H59354   4.396   8.079   3.828  0.0315 -0.3922  0.2109
  440MOL0     H59355   4.494   8.221   3.875 -0.1572  0.3490 -0.6870
  440MOL0     H59356   4.685   8.073   3.934 -0.0720  0.6472  2.5547
  440MOL0     H59357   4.591   7.925   3.922  0.4623  0.0934 -1.3646
  440MOL0     H59358   4.432   7.997   4.092 -0.1868 -0.4285 -2.5462
  440MOL0     H59359   4.509   8.141   4.117 -1.5453  0.5788 -0.8652
  440MOL0     H59360   4.779   7.872   4.323 -0.1602 -0.1332 -0.3253
  440MOL0     H59361   4.939   7.623   4.374  0.9051  1.4904  1.5763
  440MOL0     H59362   4.844   7.686   4.486  2.5901 -0.6401 -0.8226
  440MOL0     H59363   4.802   7.524   4.435  0.4766 -0.2089  0.3591
  440MOL0     H59364   4.343   7.284   4.451  2.8120  2.7512 -0.6202
  440MOL0     H59365   4.285   7.053   4.503  0.1775  2.6068  2.7947
  440MOL0     H59366   4.447   6.763   4.289  1.2941 -0.8398 -2.2031
  440MOL0     H59367   4.607   6.764   4.366 -0.0071  0.7856 -0.3853
  440MOL0     H59368   4.387   6.603   4.487  0.5262  0.1408  0.1936
  440MOL0     H59369   4.483   6.538   4.348 -0.3184  0.1752 -0.6539
  440MOL0     H59370   4.576   6.624   4.622 -0.8272  0.6120  0.0865
  440MOL0     H59371   4.697   6.598   4.488 -0.5494  3.6524  0.9011
  440MOL0     H59372   4.501   6.370   4.554  0.0295 -0.3786  1.2111
  440MOL0     H59373   4.626   6.388   4.431 -0.2136 -1.4827 -0.2649
  440MOL0     H59374   4.806   6.388   4.603 -0.4774  1.3166 -2.3775
  440MOL0     H59375   4.711   6.248   4.634 -1.7122 -0.0747  1.2530
  440MOL0     H59376   4.750   6.376   4.846  0.3611 -1.9617 -1.6039
  440MOL0     H59377   4.653   6.510   4.772 -0.3573 -0.0312 -2.0383
  440MOL0     H59378   4.555   6.234   4.817  0.6959  0.0795 -2.9304
  440MOL0     H59379   4.457   6.363   4.763 -0.7779 -3.5767 -1.5342
  440MOL0     H59380   4.465   6.478   4.993 -2.9972  0.3366 -4.8236
  440MOL0     H59381   4.613   6.384   5.029 -0.4635 -1.0317 -1.3942
  440MOL0     H59382   4.687   6.934   4.431  0.1937  0.4347  0.3166
  440MOL0     H59383   4.749   7.186   4.386  0.1218 -0.9695 -2.0889
  440MOL0     H59384   4.476   7.543   4.117  1.0746  0.1006 -1.7628
  440MOL0     H59385   4.458   7.763   4.048 -1.1245 -4.5672 -0.0304
  440MOL0     H59386   3.578   8.793   4.234 -0.5717  0.8032 -2.2146
  440MOL0     H59387   3.382   8.908   4.293  1.3740 -0.5944  3.1562
  440MOL0     H59388   3.105   8.915   4.762  1.5857 -3.1501 -0.9623
  440MOL0     H59389   2.888   9.007   4.843  0.0198  0.1366 -0.2509
  440MOL0     H59390   2.510   9.002   4.583  0.1081 -0.8845 -1.5927
  440MOL0     H59391   2.581   8.845   4.639  0.0453  1.1383 -0.4405
  440MOL0     H59392   2.378   8.844   4.738  0.3318 -0.0399 -0.2774
  440MOL0     H59393   2.391   9.021   4.768 -2.3532 -1.3966 -0.8801
  440MOL0     H59394   2.550   8.995   4.949 -2.8075  1.4784 -0.5942
  440MOL0     H59395   2.571   8.814   4.909  1.1070 -0.6378 -2.4408
  440MOL0     H59396   2.456   8.880   5.125 -1.6723  2.2707  1.1680
  440MOL0     H59397   2.365   8.780   5.004  2.7716 -0.7831 -0.5545
  440MOL0     H59398   2.122   9.123   5.061  0.5049  0.2034  1.0939
  440MOL0     H59399   2.709   8.916   4.472  1.5882 -2.9878 -0.8645
  440MOL0     H59400   2.927   8.855   4.379  1.5119 -0.7405  0.4813
  441MOL0     O59401   8.182   4.056   8.884  0.0831  0.5080 -0.3812
  441MOL0     C59402   8.065   4.073   8.919 -0.1691  0.1840 -0.3824
  441MOL0     O59403   8.010   4.062   9.044 -0.8294 -0.0535 -0.6388
  441MOL0     C59404   8.073   4.014   9.156 -0.1611  0.1756  0.9464
  441MOL0     C59405   8.055   3.882   9.184 -0.2807 -0.4089  0.8416
  441MOL0     C59406   8.118   3.815   9.293 -0.0140  0.6537 -1.0160
  441MOL0     C59407   8.203   3.887   9.377  1.2405 -0.3274  0.4246
  441MOL0     O59408   8.261   3.846   9.495  0.0834  0.4203 -0.0482
  441MOL0     C59409   8.205   3.732   9.556  0.7617  0.8073 -0.3521
  441MOL0     C59410   8.268   3.699   9.693  1.4389  0.3034  0.1580
  441MOL0     C59411   8.185   3.595   9.775  0.2202  0.3715  0.1688
  441MOL0     C59412   8.064   3.660   9.849  0.2392  0.4968 -0.5192
  441MOL0     C59413   7.980   3.557   9.934 -0.6807  0.2762 -0.3780
  441MOL0     C59414   7.899   3.607  10.050  0.2936 -0.0308 -1.8378
  441MOL0     C59415   7.768   3.660  10.004  0.5881 -0.4999  0.6920
  441MOL0     C59416   7.696   3.726  10.118  0.0377 -0.7962  0.8101
  441MOL0     N59417   7.593   3.818  10.059  0.3330 -0.6799  0.2288
  441MOL0     C59418   7.572   3.948  10.090 -0.4433 -0.2323  0.2214
  441MOL0     C59419   7.458   3.991  10.028  1.0448 -0.7261 -0.8902
  441MOL0     C59420   7.410   4.131  10.039 -0.1193  0.0977  0.5163
  441MOL0     C59421   7.301   4.143  10.145  0.3695 -0.2253  0.3482
  441MOL0     C59422   7.276   4.286  10.202  0.3668  0.5236  1.2043
  441MOL0     C59423   7.403   4.353  10.251 -0.1008 -0.5038  0.4627
  441MOL0     O59424   7.478   4.262  10.319 -0.0565 -0.8646 -0.1200
  441MOL0     C59425   7.611   4.277  10.355  0.2671  0.6715  0.1072
  441MOL0     C59426   7.676   4.404  10.349 -0.3749  0.6627 -0.4753
  441MOL0     C59427   7.815   4.407  10.370 -0.5858  0.6336  0.5571
  441MOL0     C59428   7.895   4.540  10.363 -0.8975 -0.4039  0.3678
  441MOL0     C59429   7.884   4.279  10.401  0.2358  1.1438  0.2012
  441MOL0     C59430   8.027   4.264  10.442 -1.0073  0.1092  0.6530
  441MOL0     O59431   8.109   4.369  10.427 -0.2829  0.4515  0.6502
  441MOL0     C59432   8.220   4.375  10.501  0.0556 -1.0942  0.2244
  441MOL0     C59433   8.322   4.291  10.474  0.7521  0.1067  1.2469
  441MOL0     C59434   8.422   4.288  10.570 -0.5576  0.3070 -0.3798
  441MOL0     C59435   8.420   4.358  10.690 -0.8394 -1.1823  0.0796
  441MOL0     O59436   8.519   4.338  10.786 -0.4949  0.5103  0.4456
  441MOL0     C59437   8.518   4.413  10.905 -0.1344  0.0895  0.0812
  441MOL0     C59438   8.646   4.403  10.977  0.5971 -0.3854  0.5843
  441MOL0     C59439   8.767   4.477  10.918  0.3803 -0.1891  0.7048
  441MOL0     C59440   8.901   4.389  10.926  0.1672 -0.0777  0.1278
  441MOL0     C59441   8.943   4.376  11.069  0.7362  0.1082  0.3579
  441MOL0     C59442   9.082   4.322  11.079 -0.5937  0.7315 -0.3065
  441MOL0     C59443   9.141   4.344  11.227  0.3883 -0.0121  0.3461
  441MOL0     C59444   9.274   4.264  11.244  0.1081 -0.3442 -0.3955
  441MOL0    Cl59445   9.273   4.086  11.210  0.3835  0.2326 -0.9882
  441MOL0     C59446   8.322   4.455  10.705 -0.2708  0.4735 -0.5361
  441MOL0     C59447   8.218   4.461  10.612  0.1559 -0.3402 -0.3726
  441MOL0     O59448   8.057   4.159  10.501 -0.2153  1.1691  0.1856
  441MOL0     C59449   7.805   4.168  10.408  0.3747  0.7426  0.3782
  441MOL0     C59450   7.673   4.163  10.382 -0.5280  0.1287  0.6727
  441MOL0     N59451   7.403   3.875   9.981 -0.5536  0.1583  0.0843
  441MOL0     N59452   7.487   3.773   9.992  0.4842 -0.3657  0.3251
  441MOL0     C59453   8.219   4.017   9.348 -0.2534 -0.0274 -0.2262
  441MOL0     C59454   8.157   4.082   9.241 -0.4666 -0.5464 -0.4768
  441MOL0     C59455   7.959   4.120   8.817 -0.0773 -0.5565  0.3145
  441MOL0     C59456   7.838   4.170   8.860 -1.0659 -0.1511 -0.2842
  441MOL0     C59457   7.734   4.197   8.762  0.7469  0.7329 -0.0625
  441MOL0     C59458   7.754   4.178   8.628 -0.1894 -0.0471  0.5177
  441MOL0     O59459   7.654   4.183   8.544  0.1255  1.0539 -0.1548
  441MOL0     C59460   7.665   4.117   8.412  0.2400  0.1438  0.1938
  441MOL0     C59461   7.525   4.112   8.354  0.5482  0.0734  0.2064
  441MOL0     C59462   7.457   4.247   8.348  0.0061 -0.0294  0.4659
  441MOL0     C59463   7.321   4.245   8.284  0.0774  0.6240 -0.1870
  441MOL0     C59464   7.239   4.133   8.353 -1.1052 -1.3381  0.5515
  441MOL0     C59465   7.173   4.048   8.399  1.1010 -0.4398  0.0220
  441MOL0     C59466   7.886   4.151   8.589  0.1861  0.5035  0.5794
  441MOL0     C59467   7.981   4.114   8.679  0.5793 -0.2925 -0.8230
  441MOL0     H59468   7.982   3.829   9.123  0.9586 -1.4963  0.2539
  441MOL0     H59469   8.095   3.710   9.306  4.8128 -0.4516  0.5069
  441MOL0     H59470   8.096   3.736   9.563  0.6931  0.0021 -0.7434
  441MOL0     H59471   8.223   3.641   9.497 -1.9835 -0.6346  0.8624
  441MOL0     H59472   8.369   3.660   9.677  2.2074  1.9471  0.7705
  441MOL0     H59473   8.278   3.797   9.740 -1.2424  1.8187 -2.1045
  441MOL0     H59474   8.147   3.509   9.720 -2.0743  1.7022 -0.4607
  441MOL0     H59475   8.252   3.553   9.851 -1.4366  2.4768  2.9864
  441MOL0     H59476   8.093   3.739   9.919 -3.0511  0.5610  0.9801
  441MOL0     H59477   7.992   3.705   9.781 -1.6143 -0.8181  0.4779
  441MOL0     H59478   7.907   3.516   9.863 -0.1266 -1.6445  0.0977
  441MOL0     H59479   8.055   3.483   9.965  0.6690  1.1067 -1.5533
  441MOL0     H59480   7.882   3.522  10.116  0.0307  0.3540 -1.4029
  441MOL0     H59481   7.960   3.678  10.108 -1.8033 -0.5123  1.1545
  441MOL0     H59482   7.791   3.735   9.928 -0.1636 -1.3656 -0.4205
  441MOL0     H59483   7.709   3.580   9.958  2.4432 -0.8458 -1.2300
  441MOL0     H59484   7.764   3.792  10.174  0.7108  0.8960 -1.8213
  441MOL0     H59485   7.651   3.651  10.183 -3.5476  0.6034  0.1446
  441MOL0     H59486   7.640   4.004  10.154 -1.6318  1.6633 -0.0921
  441MOL0     H59487   7.497   4.193  10.060  0.4789 -1.0546  1.5667
  441MOL0     H59488   7.377   4.161   9.939 -1.6941  2.1905  1.5683
  441MOL0     H59489   7.312   4.072  10.228  2.4094  0.0073  0.3367
  441MOL0     H59490   7.205   4.122  10.097 -0.4446  0.6191  1.5660
  441MOL0     H59491   7.193   4.287  10.274 -1.8604 -1.4457 -1.1426
  441MOL0     H59492   7.232   4.332  10.114 -2.2048 -3.0328  0.3870
  441MOL0     H59493   7.365   4.434  10.314 -1.6989 -1.8877  1.3565
  441MOL0     H59494   7.463   4.400  10.172  2.7747 -1.5957  1.8289
  441MOL0     H59495   7.618   4.494  10.335 -0.9493  0.6235  1.4115
  441MOL0     H59496   7.836   4.626  10.332 -0.4942 -0.0807  0.4936
  441MOL0     H59497   7.939   4.565  10.460 -0.0119  2.0587 -0.5935
  441MOL0     H59498   7.972   4.528  10.286  0.8350 -1.8607  2.1920
  441MOL0     H59499   8.324   4.230  10.384  0.4229  0.6341  0.8744
  441MOL0     H59500   8.508   4.228  10.545  0.7813  1.3972  1.3981
  441MOL0     H59501   8.500   4.516  10.875 -1.0833 -1.2005 -4.7396
  441MOL0     H59502   8.441   4.369  10.970  1.3708 -0.6679  1.4313
  441MOL0     H59503   8.641   4.433  11.082  3.1694  1.1915  0.3434
  441MOL0     H59504   8.671   4.297  10.969  0.9672 -0.4596  2.3766
  441MOL0     H59505   8.780   4.582  10.943  4.0154  0.4437 -2.8794
  441MOL0     H59506   8.740   4.491  10.813  2.8716 -0.6621 -0.0601
  441MOL0     H59507   8.891   4.290  10.880 -1.5118  1.4554 -3.1194
  441MOL0     H59508   8.970   4.439  10.857 -1.1522 -1.5275 -2.3908
  441MOL0     H59509   8.873   4.305  11.113 -0.1350 -1.5289 -3.2417
  441MOL0     H59510   8.940   4.475  11.116 -1.7320  1.2602 -1.9089
  441MOL0     H59511   9.058   4.219  11.052 -0.7404  0.2156  1.6153
  441MOL0     H59512   9.156   4.379  11.022 -0.8449 -2.0906 -3.7969
  441MOL0     H59513   9.067   4.306  11.298 -3.3777  2.2846 -1.9980
  441MOL0     H59514   9.163   4.450  11.246  0.7380 -0.4939  3.1202
  441MOL0     H59515   9.306   4.286  11.346 -3.4846  2.1137  0.3925
  441MOL0     H59516   9.354   4.291  11.174  0.1024 -0.6992 -0.5450
  441MOL0     H59517   8.315   4.517  10.793  2.9155 -1.1286  1.0365
  441MOL0     H59518   8.134   4.529  10.619  1.0277  0.6300  1.3727
  441MOL0     H59519   7.863   4.077  10.424  3.0862  1.7461 -2.5163
  441MOL0     H59520   7.626   4.065  10.379  3.1951 -1.8383  0.9811
  441MOL0     H59521   8.277   4.080   9.414  0.1068 -1.0660  0.4761
  441MOL0     H59522   8.176   4.185   9.211  2.8893 -1.0595 -0.4614
  441MOL0     H59523   7.799   4.173   8.961 -0.9872  1.3499 -0.2884
  441MOL0     H59524   7.631   4.214   8.790 -0.1790 -1.8184 -1.5712
  441MOL0     H59525   7.735   4.177   8.353  0.5271  1.9919  2.2752
  441MOL0     H59526   7.716   4.021   8.426  2.0322  0.9802 -0.2259
  441MOL0     H59527   7.467   4.037   8.409  1.8282 -1.6836 -0.7497
  441MOL0     H59528   7.540   4.079   8.251 -1.6851  0.7811 -0.4232
  441MOL0     H59529   7.514   4.331   8.307 -0.4765  0.0248 -0.1090
  441MOL0     H59530   7.435   4.271   8.452  0.9362 -1.7631  1.1180
  441MOL0     H59531   7.330   4.240   8.176  1.5383  0.5738 -0.0809
  441MOL0     H59532   7.266   4.336   8.307  1.8419  1.3927  1.2333
  441MOL0     H59533   7.103   3.974   8.430  1.3446 -0.3206  0.8721
  441MOL0     H59534   7.918   4.157   8.486  0.4121  2.0954  0.7196
  441MOL0     H59535   8.074   4.077   8.639  0.0812 -1.0403 -1.2990
  442MOL0     O59536  10.845   7.316   9.072  0.0316  0.2508 -0.7526
  442MOL0     C59537  10.907   7.227   9.138 -0.6311 -0.0261  0.2117
  442MOL0     O59538  10.921   7.091   9.107  0.1055  0.3784  0.1409
  442MOL0     C59539  10.872   7.039   8.987  0.1529 -0.5121  0.2551
  442MOL0     C59540  10.940   6.937   8.926  0.0354 -0.5399  0.6087
  442MOL0     C59541  10.886   6.870   8.811  0.0095 -0.7874  0.6658
  442MOL0     C59542  10.769   6.910   8.751  1.1056  0.7076  0.1179
  442MOL0     O59543  10.738   6.845   8.633 -0.9815 -0.5318 -0.6046
  442MOL0     C59544  10.603   6.858   8.589  0.1367 -0.3974 -0.0687
  442MOL0     C59545  10.579   6.800   8.458 -0.3738  0.5552 -0.4554
  442MOL0     C59546  10.636   6.655   8.448 -0.8285 -0.2743  1.3049
  442MOL0     C59547  10.561   6.566   8.344 -0.3189  0.3636  0.0193
  442MOL0     C59548  10.598   6.420   8.373  1.0562  0.8452  0.1538
  442MOL0     C59549  10.752   6.385   8.356  0.5150 -0.0482  0.0001
  442MOL0     C59550  10.785   6.245   8.416 -0.1162 -0.5904 -0.2437
  442MOL0     C59551  10.759   6.123   8.328  0.4618  0.1009 -0.0523
  442MOL0     N59552  10.818   6.144   8.199 -0.1604  0.1408  0.4934
  442MOL0     C59553  10.774   6.110   8.073 -0.3200 -0.0901  0.3308
  442MOL0     C59554  10.880   6.110   7.987 -0.0426 -0.3290 -0.3478
  442MOL0     C59555  10.880   6.080   7.843 -0.2371 -0.1148 -0.7418
  442MOL0     C59556  10.974   5.966   7.803  0.3351  1.0113  0.0122
  442MOL0     C59557  10.952   5.941   7.661  0.3474 -0.0964 -0.2927
  442MOL0     C59558  11.030   5.827   7.601 -0.5131  0.8747  0.3246
  442MOL0     O59559  10.983   5.762   7.476 -0.4543 -0.7305 -0.2240
  442MOL0     C59560  11.039   5.646   7.431 -0.5690  0.6973  0.5239
  442MOL0     C59561  10.988   5.588   7.310 -0.2260 -0.9581 -0.1012
  442MOL0     C59562  11.025   5.463   7.264 -0.3723  0.1484 -0.7204
  442MOL0     C59563  10.953   5.407   7.150 -0.0400 -0.5706 -0.5689
  442MOL0     C59564  11.139   5.394   7.316 -0.7902 -0.0783  0.3390
  442MOL0     C59565  11.187   5.259   7.263 -0.2103  0.2139 -0.6052
  442MOL0     O59566  11.311   5.226   7.292 -1.2170  0.0711 -0.7704
  442MOL0     C59567  11.365   5.115   7.242 -0.4320 -0.4412  0.5456
  442MOL0     C59568  11.405   5.107   7.116  0.5411 -0.4680  0.4799
  442MOL0     C59569  11.454   4.992   7.075 -0.0117  0.1816 -0.5787
  442MOL0     C59570  11.442   4.868   7.150  0.4014 -0.8377  0.4578
  442MOL0     O59571  11.474   4.745   7.109  0.6599 -0.3914  0.7859
  442MOL0     C59572  11.431   4.717   6.971 -0.1706  0.9057 -0.2740
  442MOL0     C59573  11.435   4.574   6.935 -0.2526  0.2973  0.3376
  442MOL0     C59574  11.567   4.517   6.991 -0.5392  0.2838 -0.2677
  442MOL0     C59575  11.579   4.365   6.953 -0.1074 -0.1207 -0.0318
  442MOL0     C59576  11.721   4.319   6.918 -0.3269 -0.0989  0.4970
  442MOL0     C59577  11.753   4.172   6.942  0.1499 -0.1195 -0.7053
  442MOL0     C59578  11.894   4.151   6.913  0.3806 -0.2832 -0.0705
  442MOL0     C59579  11.918   4.005   6.914 -0.6708 -0.1676  0.3463
  442MOL0    Cl59580  12.094   3.973   6.917  0.2878 -0.1992  0.0916
  442MOL0     C59581  11.409   4.880   7.285  0.3283 -0.4470  0.6609
  442MOL0     C59582  11.366   5.004   7.326 -0.0626 -0.3212  0.7903
  442MOL0     O59583  11.106   5.186   7.206 -0.3188 -0.5439 -0.2855
  442MOL0     C59584  11.201   5.455   7.429  0.4362 -0.3048  0.0316
  442MOL0     C59585  11.149   5.574   7.492  0.2779  0.0904  0.1793
  442MOL0     N59586  10.992   6.157   8.062 -0.3592  0.0570  0.6973
  442MOL0     N59587  10.958   6.162   8.184 -0.5293  0.2494  0.2312
  442MOL0     C59588  10.701   7.022   8.818  0.1204  0.5811  0.0979
  442MOL0     C59589  10.747   7.072   8.939 -0.0943 -0.1640 -0.0195
  442MOL0     C59590  10.974   7.282   9.259  2.1752 -0.1939 -0.4266
  442MOL0     C59591  10.932   7.407   9.303  0.3644  0.3877 -0.0414
  442MOL0     C59592  10.986   7.457   9.423 -0.4557 -0.9398  0.5352
  442MOL0     C59593  11.080   7.380   9.497  0.1601  0.6532 -0.0110
  442MOL0     O59594  11.126   7.435   9.610  0.2661  0.0549 -1.4738
  442MOL0     C59595  11.205   7.351   9.698  0.3177  0.0575 -0.1076
  442MOL0     C59596  11.226   7.419   9.834 -0.3703 -0.4345 -0.5042
  442MOL0     C59597  11.328   7.530   9.845  0.3255  0.3061  0.9269
  442MOL0     C59598  11.469   7.463   9.861 -0.8206  0.1568  0.9175
  442MOL0     C59599  11.508   7.407   9.987  0.6987  0.5432 -0.3058
  442MOL0     C59600  11.549   7.344  10.088  0.1934 -0.2552  1.2983
  442MOL0     C59601  11.124   7.258   9.440  0.0256  0.4444  0.7037
  442MOL0     C59602  11.076   7.216   9.325  1.4639  1.1898  1.1657
  442MOL0     H59603  11.033   6.901   8.968  0.5770 -1.4968 -1.2849
  442MOL0     H59604  10.921   6.779   8.764 -0.4673 -0.4381 -0.3826
  442MOL0     H59605  10.541   6.795   8.654 -1.6973 -0.3128 -1.6383
  442MOL0     H59606  10.568   6.962   8.589  1.8367  0.2322 -2.2715
  442MOL0     H59607  10.471   6.804   8.443 -0.8369 -2.1896  1.3728
  442MOL0     H59608  10.634   6.863   8.388  0.2796  1.7397  1.0791
  442MOL0     H59609  10.743   6.662   8.427 -0.5905 -1.2550  2.1320
  442MOL0     H59610  10.631   6.619   8.551  0.3836  0.5533  1.6710
  442MOL0     H59611  10.452   6.577   8.354 -0.6824 -0.6301 -2.1932
  442MOL0     H59612  10.596   6.581   8.242  1.4134 -1.8497  0.2009
  442MOL0     H59613  10.578   6.408   8.480 -4.2791 -1.0881 -0.7340
  442MOL0     H59614  10.538   6.351   8.313 -1.2061  2.3642  0.5435
  442MOL0     H59615  10.778   6.378   8.250  1.1061 -1.7001  0.2319
  442MOL0     H59616  10.809   6.464   8.405 -0.3298 -0.9408  2.5867
  442MOL0     H59617  10.894   6.242   8.422 -0.0590 -0.1955 -1.0015
  442MOL0     H59618  10.731   6.228   8.510 -2.8734 -4.4205 -2.2499
  442MOL0     H59619  10.652   6.103   8.318  0.5042  0.2570 -0.9125
  442MOL0     H59620  10.802   6.037   8.379  1.6786  1.0436  0.5499
  442MOL0     H59621  10.671   6.087   8.048 -1.2115  1.1932  2.5729
  442MOL0     H59622  10.780   6.052   7.810  0.3760 -2.8996 -0.4910
  442MOL0     H59623  10.911   6.171   7.791  2.1605 -1.3774 -1.6928
  442MOL0     H59624  10.939   5.869   7.841 -1.7728 -0.4585 -4.7916
  442MOL0     H59625  11.079   5.980   7.827 -0.2651  2.3403  2.1226
  442MOL0     H59626  10.975   6.032   7.604  1.3178  0.3955  0.8534
  442MOL0     H59627  10.846   5.914   7.659  0.6861 -2.0444  2.8778
  442MOL0     H59628  11.030   5.749   7.678 -0.5145  2.4871  2.0180
  442MOL0     H59629  11.134   5.859   7.593 -0.1171 -0.4334 -0.0610
  442MOL0     H59630  10.911   5.657   7.276  0.8704  0.7008  0.6746
  442MOL0     H59631  10.902   5.489   7.099  0.5411 -1.0680 -2.0118
  442MOL0     H59632  11.015   5.359   7.074  1.7903  0.8755 -0.0536
  442MOL0     H59633  10.887   5.326   7.183  1.4588 -3.2901 -3.6649
  442MOL0     H59634  11.420   5.197   7.059  1.2762 -0.2594  0.9936
  442MOL0     H59635  11.504   4.980   6.979  0.1289  0.9880 -0.6060
  442MOL0     H59636  11.327   4.750   6.966  0.0693  1.5638 -1.1136
  442MOL0     H59637  11.503   4.764   6.903  2.5279 -2.3349  0.1208
  442MOL0     H59638  11.360   4.514   6.987  0.8804 -2.5912 -1.0879
  442MOL0     H59639  11.433   4.558   6.827 -0.4401  1.8727  0.0851
  442MOL0     H59640  11.592   4.547   7.092  4.5659 -0.2159 -1.1376
  442MOL0     H59641  11.638   4.571   6.928 -1.3965  0.2678 -1.2868
  442MOL0     H59642  11.545   4.311   7.042  1.3982  0.9649  1.2631
  442MOL0     H59643  11.504   4.326   6.884  1.2438 -0.9921 -1.0575
  442MOL0     H59644  11.797   4.360   6.985  3.2816 -2.5119 -1.7671
  442MOL0     H59645  11.750   4.349   6.817  1.5079  0.9339  1.2848
  442MOL0     H59646  11.732   4.148   7.046  1.2621  2.2773  0.1406
  442MOL0     H59647  11.689   4.109   6.879 -0.1613  0.6068 -1.1357
  442MOL0     H59648  11.954   4.219   6.974 -2.2962  1.1930  1.0919
  442MOL0     H59649  11.909   4.168   6.806 -0.3605  3.5909  0.2927
  442MOL0     H59650  11.853   3.963   6.837 -0.1155 -0.6271  0.1281
  442MOL0     H59651  11.888   3.979   7.016  1.2346  2.2829  1.6323
  442MOL0     H59652  11.415   4.794   7.351  4.7347 -0.3337  0.7132
  442MOL0     H59653  11.323   5.027   7.423 -2.1850  0.3163 -0.2339
  442MOL0     H59654  11.286   5.404   7.472  1.4622  1.9474  0.8462
  442MOL0     H59655  11.216   5.611   7.568  0.9115  0.7954 -0.6973
  442MOL0     H59656  10.600   7.055   8.793  0.7069  1.2918 -1.4467
  442MOL0     H59657  10.684   7.129   9.006 -0.7147  2.1787 -2.4031
  442MOL0     H59658  10.855   7.463   9.253  0.4953 -0.5022 -1.2783
  442MOL0     H59659  10.937   7.546   9.461  1.2851  0.5939 -0.6169
  442MOL0     H59660  11.144   7.261   9.714  0.6781  0.1229  1.9502
  442MOL0     H59661  11.300   7.325   9.651  1.3259  0.0892  1.8282
  442MOL0     H59662  11.237   7.347   9.916 -1.8409 -1.4560 -1.1468
  442MOL0     H59663  11.126   7.453   9.861 -0.6334 -1.0365 -0.7042
  442MOL0     H59664  11.296   7.575   9.939 -2.1841 -1.3423  0.9625
  442MOL0     H59665  11.315   7.601   9.763 -0.5619  1.9233  2.4060
  442MOL0     H59666  11.551   7.535   9.851  0.4508 -1.4735 -1.4302
  442MOL0     H59667  11.489   7.383   9.789 -0.4284 -0.9473  2.2234
  442MOL0     H59668  11.585   7.270  10.157 -3.1822 -2.7930  0.5658
  442MOL0     H59669  11.207   7.203   9.484  0.6602 -0.2907 -1.2881
  442MOL0     H59670  11.120   7.124   9.288  2.2705  2.2324 -0.5770
  443MOL0     O59671   7.666   1.692   2.079 -0.5197  0.6115  0.0930
  443MOL0     C59672   7.563   1.727   2.135 -0.3626  0.1499 -0.1845
  443MOL0     O59673   7.540   1.852   2.178 -0.2946  0.4387  0.8846
  443MOL0     C59674   7.632   1.944   2.206 -0.8166  0.1415 -0.2292
  443MOL0     C59675   7.627   2.074   2.144 -0.2720 -0.9041  0.5311
  443MOL0     C59676   7.718   2.176   2.170  0.0296  0.4563 -0.2889
  443MOL0     C59677   7.820   2.156   2.270 -0.1572  0.4265  0.1817
  443MOL0     O59678   7.917   2.246   2.314 -0.0303  0.1850  0.6335
  443MOL0     C59679   7.936   2.367   2.235  0.4502 -0.1200  0.2951
  443MOL0     C59680   8.082   2.400   2.222  0.0707 -0.1351 -0.2174
  443MOL0     C59681   8.143   2.343   2.092  0.5914  0.5639 -0.4027
  443MOL0     C59682   8.156   2.186   2.083 -0.1707  0.5540  0.8940
  443MOL0     C59683   8.268   2.145   1.983 -0.1707 -0.1050  0.1397
  443MOL0     C59684   8.209   2.071   1.860 -0.3357  0.1830  0.6886
  443MOL0     C59685   8.312   2.060   1.749  0.6339  0.0561 -0.8708
  443MOL0     C59686   8.423   1.954   1.789 -1.1440  0.1082 -0.1900
  443MOL0     N59687   8.452   1.860   1.676  0.4121 -0.2202 -0.0578
  443MOL0     C59688   8.524   1.889   1.564  1.5449  0.2602 -0.3522
  443MOL0     C59689   8.514   1.770   1.495  0.1513  0.1082  0.7709
  443MOL0     C59690   8.591   1.732   1.373  0.1798  0.3584 -0.2589
  443MOL0     C59691   8.568   1.809   1.249  0.4287  1.0167 -0.0682
  443MOL0     C59692   8.421   1.815   1.190  0.9061 -0.1251  0.3670
  443MOL0     C59693   8.323   1.914   1.273 -0.7697  0.8760  0.0368
  443MOL0     O59694   8.216   1.971   1.204 -0.4959 -0.4642  0.0040
  443MOL0     C59695   8.180   2.107   1.220  0.4023 -1.0506  0.7628
  443MOL0     C59696   8.181   2.168   1.342 -0.5604 -0.3964 -0.5204
  443MOL0     C59697   8.134   2.300   1.358 -0.2541 -0.2955  0.3785
  443MOL0     C59698   8.122   2.342   1.510 -0.3312  0.3226  0.1027
  443MOL0     C59699   8.112   2.383   1.250  0.8526 -0.0431  1.1200
  443MOL0     C59700   8.067   2.527   1.260  0.0920 -0.1164  0.5388
  443MOL0     O59701   7.979   2.571   1.162  0.4585  0.9741 -0.9706
  443MOL0     C59702   7.912   2.693   1.159  0.0163  0.4409  0.1542
  443MOL0     C59703   7.967   2.815   1.195  0.2416  0.7668 -0.3093
  443MOL0     C59704   7.905   2.934   1.176 -1.5632 -0.5098  0.4057
  443MOL0     C59705   7.783   2.940   1.117  0.0142 -0.6359  0.3146
  443MOL0     O59706   7.735   3.073   1.099 -0.4898  0.1626  0.3865
  443MOL0     C59707   7.595   3.093   1.067  0.5501 -0.6580 -0.2766
  443MOL0     C59708   7.576   3.249   1.083 -0.4885 -0.1025 -0.1934
  443MOL0     C59709   7.427   3.275   1.064  0.7572  0.8350 -0.1807
  443MOL0     C59710   7.348   3.265   1.198  0.2495 -0.3144  0.5497
  443MOL0     C59711   7.198   3.306   1.184  0.5745  1.0405  0.4026
  443MOL0     C59712   7.114   3.194   1.110  0.9983 -0.0365 -0.7440
  443MOL0     C59713   6.985   3.248   1.034  0.0591  0.6139 -0.5067
  443MOL0     C59714   6.970   3.187   0.896  0.8470 -0.2714  0.0664
  443MOL0    Cl59715   7.102   3.229   0.786 -0.0096 -0.0324  0.0817
  443MOL0     C59716   7.719   2.825   1.096  1.0606  0.4389 -0.1573
  443MOL0     C59717   7.785   2.697   1.108 -0.1416 -0.5959  1.1105
  443MOL0     O59718   8.094   2.593   1.353  0.1294 -0.8346  0.3230
  443MOL0     C59719   8.113   2.326   1.125 -0.2391 -0.0631  0.3291
  443MOL0     C59720   8.134   2.187   1.115  0.1474 -0.5401 -0.0620
  443MOL0     N59721   8.423   1.684   1.555  0.2656 -0.7111 -0.3133
  443MOL0     N59722   8.395   1.734   1.678 -0.0824  0.4876  0.4252
  443MOL0     C59723   7.820   2.030   2.335  0.8148 -0.1210  0.2171
  443MOL0     C59724   7.740   1.925   2.299 -0.1096 -0.0681  0.5968
  443MOL0     C59725   7.460   1.624   2.146  0.6698  0.0362  0.4153
  443MOL0     C59726   7.495   1.483   2.156  0.6785  0.2426  1.7126
  443MOL0     C59727   7.398   1.378   2.170  0.1129  0.7342 -0.1345
  443MOL0     C59728   7.265   1.422   2.153 -1.2741  0.7710  1.1681
  443MOL0     O59729   7.173   1.322   2.154  0.1825  0.2307 -0.2211
  443MOL0     C59730   7.055   1.326   2.075 -0.4366  1.7249  0.5123
  443MOL0     C59731   6.972   1.190   2.070 -0.5622 -0.8709  0.0772
  443MOL0     C59732   6.938   1.143   2.217 -0.1888  0.4105  0.3570
  443MOL0     C59733   6.851   1.019   2.193  0.1140  0.1602  0.5450
  443MOL0     C59734   6.783   0.970   2.318  0.4496  0.7275  0.0383
  443MOL0     C59735   6.734   0.927   2.420 -0.4206 -0.1431  0.0980
  443MOL0     C59736   7.231   1.563   2.135 -0.8754  0.3520  0.3644
  443MOL0     C59737   7.325   1.668   2.129 -0.6076  0.3983 -0.0075
  443MOL0     H59738   7.551   2.088   2.068 -0.3977 -2.6171  0.3042
  443MOL0     H59739   7.720   2.266   2.110 -0.5951 -1.6078 -3.6808
  443MOL0     H59740   7.902   2.346   2.134 -1.2045  1.1930  0.5340
  443MOL0     H59741   7.886   2.453   2.280  1.0470  0.3360  0.1012
  443MOL0     H59742   8.070   2.509   2.224 -1.6919 -0.3106  0.0542
  443MOL0     H59743   8.146   2.371   2.307  0.2610 -2.5976 -1.1224
  443MOL0     H59744   8.088   2.374   2.003 -1.3316  2.9335  1.4464
  443MOL0     H59745   8.245   2.381   2.083  1.7349 -1.2780  3.0799
  443MOL0     H59746   8.166   2.147   2.185  1.4832  0.3472  0.6681
  443MOL0     H59747   8.057   2.152   2.050 -0.4142  1.6681  0.4430
  443MOL0     H59748   8.326   2.229   1.944  3.8801 -3.2127 -1.2872
  443MOL0     H59749   8.335   2.075   2.034 -2.3692 -2.1438  0.4048
  443MOL0     H59750   8.169   1.974   1.889  2.4129 -0.6890  1.9478
  443MOL0     H59751   8.123   2.123   1.816  0.3699  0.4629 -0.3968
  443MOL0     H59752   8.256   2.023   1.663 -1.5282 -0.7123  0.7701
  443MOL0     H59753   8.361   2.157   1.735 -1.9000  1.6178  0.3513
  443MOL0     H59754   8.389   1.905   1.881  1.6860  0.5486  1.1737
  443MOL0     H59755   8.516   2.007   1.809 -2.2183  1.9196  0.1901
  443MOL0     H59756   8.579   1.981   1.547  1.2907  1.2726  3.4842
  443MOL0     H59757   8.697   1.723   1.398 -0.2413  0.5118  1.7325
  443MOL0     H59758   8.561   1.629   1.351  1.4812 -0.3944  1.3246
  443MOL0     H59759   8.630   1.770   1.168  0.1414  1.0847 -0.3213
  443MOL0     H59760   8.611   1.909   1.268  1.8804  1.1287 -3.2846
  443MOL0     H59761   8.394   1.710   1.176 -2.2841  0.7326 -0.7036
  443MOL0     H59762   8.426   1.843   1.084 -2.2032  0.0025  0.1737
  443MOL0     H59763   8.385   2.000   1.304  2.7924 -1.0104 -1.2517
  443MOL0     H59764   8.279   1.857   1.355 -0.9693 -0.8026 -1.1819
  443MOL0     H59765   8.197   2.105   1.429 -2.0013 -0.8862 -0.5815
  443MOL0     H59766   8.207   2.400   1.546  0.3724 -0.9524  0.5696
  443MOL0     H59767   8.038   2.408   1.530  0.4578  0.6360  2.8059
  443MOL0     H59768   8.119   2.250   1.569 -3.4397 -1.0374 -1.9156
  443MOL0     H59769   8.071   2.811   1.224  0.5868  2.5044 -1.1442
  443MOL0     H59770   7.967   3.020   1.199  0.8835 -2.2134  0.6318
  443MOL0     H59771   7.563   3.069   0.965 -4.2006  1.1955  0.5204
  443MOL0     H59772   7.530   3.040   1.137  2.3428 -1.9521  0.4953
  443MOL0     H59773   7.621   3.285   1.176  1.9456  0.6248 -1.5781
  443MOL0     H59774   7.626   3.306   1.004 -1.6460 -0.7053 -1.3939
  443MOL0     H59775   7.373   3.212   0.993 -1.5271  3.2262 -0.7341
  443MOL0     H59776   7.420   3.376   1.024  0.3358  0.4266 -1.1621
  443MOL0     H59777   7.365   3.164   1.238 -0.9769 -0.2438  1.3006
  443MOL0     H59778   7.393   3.326   1.277  1.1470 -0.3649  0.0950
  443MOL0     H59779   7.203   3.402   1.133 -0.7414  1.1242  0.4015
  443MOL0     H59780   7.148   3.324   1.280 -2.9650 -0.4552 -0.9690
  443MOL0     H59781   7.180   3.140   1.042 -2.6109 -2.9580 -2.2725
  443MOL0     H59782   7.085   3.118   1.183  1.3356  1.7150  1.3182
  443MOL0     H59783   6.993   3.356   1.017 -0.0211  0.7290  0.1829
  443MOL0     H59784   6.898   3.228   1.097  0.9680  2.4944  1.4994
  443MOL0     H59785   6.872   3.221   0.863 -0.7719  0.8119  5.1938
  443MOL0     H59786   6.968   3.078   0.909 -4.0609 -0.1592  2.3303
  443MOL0     H59787   7.619   2.831   1.053  1.6619 -1.1306 -1.9137
  443MOL0     H59788   7.757   2.603   1.062  1.9501 -1.5959  1.7252
  443MOL0     H59789   8.084   2.379   1.034  1.2328 -0.2723 -0.3029
  443MOL0     H59790   8.140   2.154   1.012  3.7501 -2.0816  0.4843
  443MOL0     H59791   7.900   2.005   2.405 -0.7627  0.6899  2.4116
  443MOL0     H59792   7.753   1.826   2.342 -0.9047  0.0295  1.0823
  443MOL0     H59793   7.595   1.441   2.159  0.1501 -1.6548 -1.4725
  443MOL0     H59794   7.420   1.273   2.159 -0.3596  0.7451 -1.4161
  443MOL0     H59795   6.995   1.405   2.122  0.1731  1.3832  1.9404
  443MOL0     H59796   7.089   1.358   1.976  3.1841 -3.7829 -0.4146
  443MOL0     H59797   7.044   1.134   2.010  3.1740  3.2387  0.2005
  443MOL0     H59798   6.881   1.200   2.011  0.2353  0.4259 -0.9983
  443MOL0     H59799   6.871   1.214   2.266  0.5455  0.8836  0.6888
  443MOL0     H59800   7.024   1.121   2.280  0.8202 -1.3663 -1.5120
  443MOL0     H59801   6.920   0.951   2.143 -1.8646 -1.5846  0.0592
  443MOL0     H59802   6.768   1.041   2.125 -3.9754 -2.2671  4.2480
  443MOL0     H59803   6.682   0.888   2.505 -2.0234 -1.3666 -1.3804
  443MOL0     H59804   7.125   1.582   2.144 -0.8546 -0.3189  2.6606
  443MOL0     H59805   7.302   1.774   2.128  1.3524  0.9011 -2.5594
  444MOL0     O59806   8.461  11.346  10.008  0.1112 -0.6606  0.0170
  444MOL0     C59807   8.387  11.248   9.990  0.1987  0.5389 -0.0021
  444MOL0     O59808   8.427  11.115   9.961  0.1019  0.0410  0.3566
  444MOL0     C59809   8.556  11.075   9.973 -0.1857 -0.2248  0.0353
  444MOL0     C59810   8.671  11.162   9.950 -0.1826  0.5591 -0.2542
  444MOL0     C59811   8.795  11.099   9.955 -0.4447  0.1770  0.3846
  444MOL0     C59812   8.817  10.957   9.967  0.8150  0.8004 -0.2169
  444MOL0     O59813   8.946  10.904   9.965 -0.2228  0.0192  0.2294
  444MOL0     C59814   9.065  10.978   9.937 -0.8003 -0.0596  0.0275
  444MOL0     C59815   9.189  10.890   9.969  0.1936 -0.1892  0.4407
  444MOL0     C59816   9.312  10.948   9.907 -0.1529 -0.2945 -0.5062
  444MOL0     C59817   9.437  10.866   9.941 -0.6372 -0.3027  0.0254
  444MOL0     C59818   9.570  10.926   9.884  0.6667 -0.0368  0.5211
  444MOL0     C59819   9.690  10.821   9.881  0.0276 -0.8916  0.3360
  444MOL0     C59820   9.814  10.855   9.784 -0.2432 -0.3357  0.1605
  444MOL0     C59821   9.903  10.974   9.810  0.1902 -0.2569  0.5039
  444MOL0     N59822  10.014  10.984   9.719 -0.4482 -0.2840 -0.1804
  444MOL0     C59823  10.059  11.095   9.646 -0.0778 -0.2020 -0.5273
  444MOL0     C59824  10.182  11.067   9.609 -0.0605  0.8514 -0.2088
  444MOL0     C59825  10.264  11.143   9.510 -0.7664 -0.3320 -0.1127
  444MOL0     C59826  10.199  11.160   9.371 -0.6200  0.4370 -0.2821
  444MOL0     C59827  10.307  11.148   9.260 -0.0917  0.3343  0.0712
  444MOL0     C59828  10.356  11.005   9.224 -0.5417 -0.0082 -0.8080
  444MOL0     O59829  10.259  10.908   9.200  0.6512  0.0027  0.4228
  444MOL0     C59830  10.301  10.780   9.175  0.5462  0.2628 -0.7813
  444MOL0     C59831  10.429  10.737   9.174 -0.2601 -0.1317 -1.0633
  444MOL0     C59832  10.462  10.604   9.155  0.6738  0.1063  1.0585
  444MOL0     C59833  10.605  10.578   9.146  0.1710 -0.2141  0.3183
  444MOL0     C59834  10.361  10.502   9.125 -0.2734 -0.2021  0.9428
  444MOL0     C59835  10.379  10.354   9.112 -1.0292 -0.6328 -0.0357
  444MOL0     O59836  10.271  10.283   9.086 -0.5577 -0.1210  0.7211
  444MOL0     C59837  10.274  10.150   9.054 -0.4404  0.5510  0.4174
  444MOL0     C59838  10.149  10.087   9.055  0.4320  0.0161  0.1556
  444MOL0     C59839  10.134   9.950   9.033  0.2634  0.2550  0.0076
  444MOL0     C59840  10.244   9.874   9.000 -0.3022  0.3102  0.5053
  444MOL0     O59841  10.252   9.736   8.999  0.2744  0.1762  0.5593
  444MOL0     C59842  10.135   9.654   9.012 -0.4665 -0.3726 -1.2810
  444MOL0     C59843  10.173   9.512   8.980 -0.0071  0.2271 -0.2511
  444MOL0     C59844  10.275   9.450   9.077  0.3566 -0.1205 -0.3557
  444MOL0     C59845  10.224   9.408   9.220  0.0323 -0.1973  0.0725
  444MOL0     C59846  10.344   9.375   9.300  0.2306 -0.3880 -0.3116
  444MOL0     C59847  10.308   9.327   9.443  0.3527 -0.3267  0.0013
  444MOL0     C59848  10.236   9.426   9.534  0.0435  0.3415  0.4524
  444MOL0     C59849  10.298   9.570   9.539 -0.5013 -0.9292 -0.0241
  444MOL0    Cl59850  10.263   9.638   9.704 -0.5543 -0.0928  0.2526
  444MOL0     C59851  10.368   9.943   9.002  0.4918  0.6937 -0.0686
  444MOL0     C59852  10.381  10.080   9.019 -0.4345  0.0885 -0.6053
  444MOL0     O59853  10.488  10.310   9.149 -0.5763  0.2953 -0.5734
  444MOL0     C59854  10.226  10.556   9.108  0.7194 -0.1763 -0.8364
  444MOL0     C59855  10.199  10.693   9.138 -0.2354 -0.1436 -0.6850
  444MOL0     N59856  10.235  10.954   9.674  0.7272 -0.2257  0.0691
  444MOL0     N59857  10.130  10.912   9.744 -0.3829 -0.2190 -0.4998
  444MOL0     C59858   8.703  10.883   9.998 -0.2559 -0.8787  0.8530
  444MOL0     C59859   8.571  10.935   9.997  0.3745 -0.0004 -0.3103
  444MOL0     C59860   8.247  11.288   9.984  0.2427  0.1217  0.2942
  444MOL0     C59861   8.146  11.191   9.970  1.0456  0.4308  0.4500
  444MOL0     C59862   8.009  11.224   9.958 -0.1996 -0.6908  1.1118
  444MOL0     C59863   7.965  11.362   9.971  0.2883  0.4848  0.2098
  444MOL0     O59864   7.832  11.401   9.968 -0.6318  0.0338  0.0114
  444MOL0     C59865   7.749  11.319  10.053 -0.0386  0.8808 -0.0192
  444MOL0     C59866   7.619  11.401  10.076 -0.2550  0.5771  0.1509
  444MOL0     C59867   7.512  11.338  10.158  0.1972  0.1295 -0.0548
  444MOL0     C59868   7.521  11.388  10.302 -0.9668  0.1001 -0.7851
  444MOL0     C59869   7.618  11.299  10.377 -0.2323  0.1364  0.3738
  444MOL0     C59870   7.707  11.230  10.427  0.9756 -0.0584  0.4484
  444MOL0     C59871   8.062  11.456   9.988  0.4029  0.8187  0.2886
  444MOL0     C59872   8.201  11.428   9.992 -0.3211  0.0056  0.3761
  444MOL0     H59873   8.664  11.269   9.932 -0.6422  0.8431  1.4610
  444MOL0     H59874   8.882  11.160   9.931  0.6272 -0.9855  1.1627
  444MOL0     H59875   9.067  11.019   9.835 -0.3210  1.2402  0.5450
  444MOL0     H59876   9.072  11.060  10.009  0.2144 -0.3529  0.2735
  444MOL0     H59877   9.198  10.898  10.078  0.1158  0.1684  0.4213
  444MOL0     H59878   9.160  10.786   9.954  0.3365 -0.2392  0.5107
  444MOL0     H59879   9.299  10.950   9.799 -1.9450 -2.8647 -0.4150
  444MOL0     H59880   9.330  11.047   9.950  2.0038 -2.0584  3.1701
  444MOL0     H59881   9.432  10.868  10.050 -2.2607 -0.3008 -0.0235
  444MOL0     H59882   9.424  10.766   9.899 -0.0128 -0.7163  0.7845
  444MOL0     H59883   9.540  10.958   9.784 -0.7460  2.1613  1.5621
  444MOL0     H59884   9.612  11.017   9.928 -0.8112  0.6233  0.6259
  444MOL0     H59885   9.716  10.813   9.986 -0.7143 -0.1642  0.5880
  444MOL0     H59886   9.644  10.729   9.842  0.7865 -0.6410 -1.2476
  444MOL0     H59887   9.870  10.762   9.797 -0.1344 -0.4147 -0.8094
  444MOL0     H59888   9.777  10.854   9.681  0.9593 -2.0021 -0.3052
  444MOL0     H59889   9.935  10.970   9.915 -1.1849 -1.4121  0.9087
  444MOL0     H59890   9.854  11.072   9.801  3.3195  1.5730  1.7314
  444MOL0     H59891  10.012  11.183   9.603  2.4399  0.7491 -1.4848
  444MOL0     H59892  10.299  11.231   9.566 -0.0307 -1.5546  1.4079
  444MOL0     H59893  10.363  11.096   9.504 -0.1472  0.8575  0.2625
  444MOL0     H59894  10.149  11.257   9.360 -1.3291 -0.0204 -1.2194
  444MOL0     H59895  10.119  11.089   9.351  2.1101 -2.6494 -1.0717
  444MOL0     H59896  10.393  11.213   9.280  0.4629  0.7162 -2.9752
  444MOL0     H59897  10.269  11.191   9.167 -2.2029  2.3923  1.7898
  444MOL0     H59898  10.419  10.987   9.311 -0.5889  1.8994 -0.3280
  444MOL0     H59899  10.426  11.008   9.141  0.8649 -1.5335  0.2636
  444MOL0     H59900  10.509  10.800   9.212  0.4001 -2.3672  1.5282
  444MOL0     H59901  10.654  10.550   9.240  7.0984  2.5981 -1.8432
  444MOL0     H59902  10.627  10.502   9.070 -1.5493 -0.8458  0.4003
  444MOL0     H59903  10.660  10.666   9.112 -1.0322  1.1617  1.7776
  444MOL0     H59904  10.066  10.146   9.091 -2.4425 -2.0264 -2.6100
  444MOL0     H59905  10.040   9.897   9.026 -0.8916  2.3276 -1.2820
  444MOL0     H59906  10.090   9.649   9.112  1.9977 -0.5988 -0.1072
  444MOL0     H59907  10.060   9.690   8.940  1.3542  3.3908 -1.5160
  444MOL0     H59908  10.084   9.447   8.980 -1.2511  1.8365 -1.3931
  444MOL0     H59909  10.208   9.519   8.877 -0.6590  0.9831 -0.4384
  444MOL0     H59910  10.368   9.506   9.081  3.5388 -4.8719  0.7095
  444MOL0     H59911  10.313   9.360   9.027 -1.8986 -0.7503 -1.0704
  444MOL0     H59912  10.163   9.484   9.270 -1.4810 -1.9274  0.9844
  444MOL0     H59913  10.159   9.320   9.221 -0.6974  0.3067  1.8839
  444MOL0     H59914  10.402   9.466   9.319  1.9325 -2.1948  4.8592
  444MOL0     H59915  10.416   9.311   9.247  0.4456  0.5831 -1.2295
  444MOL0     H59916  10.258   9.229   9.438 -0.0096 -0.1734  0.4632
  444MOL0     H59917  10.401   9.292   9.488  2.0560 -0.7733 -3.5174
  444MOL0     H59918  10.246   9.385   9.635  1.4284 -0.8569 -0.1470
  444MOL0     H59919  10.128   9.433   9.515 -0.7220 -1.5714  3.3308
  444MOL0     H59920  10.237   9.626   9.467  0.9235  1.6387  0.6315
  444MOL0     H59921  10.406   9.574   9.526 -0.4088 -0.9785  0.6987
  444MOL0     H59922  10.451   9.872   8.994 -0.5127 -0.5756  0.4048
  444MOL0     H59923  10.474  10.132   9.000 -1.8076  2.2657 -1.6483
  444MOL0     H59924  10.143  10.487   9.092  0.5615 -1.1616  3.1474
  444MOL0     H59925  10.098  10.734   9.138 -0.3015 -0.1678 -3.1817
  444MOL0     H59926   8.725  10.782  10.032 -2.6569 -0.9387  2.4529
  444MOL0     H59927   8.489  10.869  10.022 -0.3827  0.9992 -0.1012
  444MOL0     H59928   8.168  11.086   9.959 -1.3004 -0.1789  1.0102
  444MOL0     H59929   7.927  11.154   9.974 -2.0098  1.1589  0.3869
  444MOL0     H59930   7.738  11.217  10.013  3.4097 -0.6988  2.5797
  444MOL0     H59931   7.801  11.300  10.147  1.3137  0.7237 -0.7797
  444MOL0     H59932   7.582  11.416   9.974  0.5322 -1.2025 -0.4377
  444MOL0     H59933   7.645  11.499  10.118 -2.4024  0.6848  1.3739
  444MOL0     H59934   7.527  11.230  10.163  0.7955  0.2489  0.9478
  444MOL0     H59935   7.410  11.344  10.118 -0.6365 -5.5149  0.4289
  444MOL0     H59936   7.426  11.385  10.357 -0.3769 -1.5918  0.2519
  444MOL0     H59937   7.555  11.491  10.301  1.0784 -0.5059  0.5311
  444MOL0     H59938   7.792  11.173  10.459  2.1853  0.1716 -2.1118
  444MOL0     H59939   8.020  11.555  10.004  1.3726  1.1231  1.0814
  444MOL0     H59940   8.268  11.513   9.983 -0.8550  0.2008 -3.2110
  445MOL0     O59941   7.382   6.406   4.532  0.1848 -0.0379  0.1443
  445MOL0     C59942   7.457   6.390   4.631  0.5718  0.4072 -0.1109
  445MOL0     O59943   7.428   6.322   4.740  1.1417  0.5692 -0.0087
  445MOL0     C59944   7.296   6.310   4.784  0.2055  0.7798 -0.2393
  445MOL0     C59945   7.274   6.330   4.916 -0.1606  0.2722  0.3491
  445MOL0     C59946   7.145   6.330   4.975 -0.2879 -0.4097  0.7305
  445MOL0     C59947   7.032   6.288   4.893 -1.0877  0.4640  0.0749
  445MOL0     O59948   6.913   6.262   4.958  0.1795 -0.0816  0.4032
  445MOL0     C59949   6.799   6.295   4.878  0.5049 -1.7885  0.0638
  445MOL0     C59950   6.673   6.279   4.970 -0.2368 -0.4926 -0.0043
  445MOL0     C59951   6.549   6.359   4.919  0.1366  0.5380  0.3905
  445MOL0     C59952   6.421   6.364   5.004 -0.3569 -0.2900 -0.6982
  445MOL0     C59953   6.375   6.228   5.058  0.2233  0.8760 -0.5899
  445MOL0     C59954   6.321   6.139   4.947 -0.4807 -0.1015  0.1292
  445MOL0     C59955   6.171   6.173   4.911  0.8405  0.5585 -0.4695
  445MOL0     C59956   6.093   6.061   4.839  1.2650  0.2815 -0.3440
  445MOL0     N59957   6.040   5.956   4.927  0.2992 -0.0534  0.0472
  445MOL0     C59958   6.100   5.841   4.959 -0.8651  0.0089 -0.3066
  445MOL0     C59959   6.019   5.767   5.032  0.8647  0.8978 -0.1241
  445MOL0     C59960   6.059   5.630   5.084 -0.6120  0.0510  0.3601
  445MOL0     C59961   6.009   5.604   5.221  0.2874  0.7807 -0.8355
  445MOL0     C59962   6.055   5.477   5.281  0.2683  0.1916 -0.7219
  445MOL0     C59963   5.993   5.447   5.412 -0.0343  0.2951  0.0467
  445MOL0     O59964   6.037   5.545   5.506  0.2423 -0.2198  0.0730
  445MOL0     C59965   6.141   5.529   5.584  0.8341 -0.9078 -0.2529
  445MOL0     C59966   6.153   5.627   5.685 -0.2134 -0.0626  0.8178
  445MOL0     C59967   6.262   5.613   5.774 -0.6442 -0.9576  1.0260
  445MOL0     C59968   6.273   5.722   5.880  0.2135  0.0464  0.0338
  445MOL0     C59969   6.353   5.505   5.768  0.1929 -0.7475  1.2719
  445MOL0     C59970   6.480   5.500   5.854 -0.1567 -0.1396 -0.1464
  445MOL0     O59971   6.534   5.368   5.862 -0.7560  0.0646 -0.7303
  445MOL0     C59972   6.636   5.353   5.952 -0.9123  0.0994  0.7902
  445MOL0     C59973   6.627   5.295   6.079 -0.0158 -1.1687  0.3211
  445MOL0     C59974   6.731   5.276   6.161  0.2165 -0.2584 -0.0768
  445MOL0     C59975   6.864   5.306   6.119 -0.7842  0.2474  0.2950
  445MOL0     O59976   6.950   5.273   6.214  0.3856 -0.4255 -0.0981
  445MOL0     C59977   7.040   5.376   6.260 -0.0589 -1.0526 -0.1985
  445MOL0     C59978   7.090   5.343   6.399  0.8486 -0.0073 -0.5884
  445MOL0     C59979   6.973   5.321   6.493  0.8194  0.8339  0.8752
  445MOL0     C59980   7.017   5.293   6.636  0.4572  0.1158  0.5816
  445MOL0     C59981   6.900   5.286   6.734 -0.1477  0.0658 -0.4446
  445MOL0     C59982   6.837   5.144   6.738 -0.1309 -0.6398  0.3905
  445MOL0     C59983   6.715   5.147   6.832 -0.4028  0.4659  0.5586
  445MOL0     C59984   6.642   5.013   6.822 -1.1527 -0.3081  0.5440
  445MOL0    Cl59985   6.751   4.881   6.899  0.1925 -0.1814  0.4074
  445MOL0     C59986   6.883   5.357   5.987  0.2574  0.0976  0.1566
  445MOL0     C59987   6.764   5.385   5.909 -0.0645 -0.1500  0.6834
  445MOL0     O59988   6.521   5.590   5.920 -0.5779 -0.5449 -0.3584
  445MOL0     C59989   6.329   5.404   5.671  0.4880  0.2778 -0.0413
  445MOL0     C59990   6.225   5.416   5.585 -0.3941 -0.0508  0.6705
  445MOL0     N59991   5.897   5.847   5.047 -1.1430  0.0840 -0.6274
  445MOL0     N59992   5.921   5.965   4.997 -0.1386  0.3031  0.6617
  445MOL0     C59993   7.054   6.260   4.757 -0.1543  0.5052 -0.3586
  445MOL0     C59994   7.185   6.279   4.706 -0.1430  0.2311  0.1477
  445MOL0     C59995   7.585   6.459   4.628 -0.4056 -0.8508  0.5550
  445MOL0     C59996   7.638   6.515   4.516 -0.4381  0.0659 -0.7563
  445MOL0     C59997   7.763   6.587   4.531  0.0857  0.1867  0.4136
  445MOL0     C59998   7.830   6.589   4.649 -0.7226 -0.6345  0.2305
  445MOL0     O59999   7.952   6.651   4.660  0.6143 -0.5064 -0.5342
  445MOL0     C60000   8.015   6.708   4.545  0.3982  0.3537  0.4209
  445MOL0     C60001   8.170   6.741   4.562  0.7465  0.2832 -0.0867
  445MOL0     C60002   8.239   6.607   4.615  0.2994 -0.2933  0.4446
  445MOL0     C60003   8.385   6.626   4.631 -0.6340 -0.0831  0.6992
  445MOL0     C60004   8.446   6.660   4.505 -1.2945 -0.8368  0.3428
  445MOL0     C60005   8.503   6.680   4.398 -0.6022 -0.5755 -1.3003
  445MOL0     C60006   7.777   6.532   4.769 -0.5087  0.6986  0.1883
  445MOL0     C60007   7.651   6.475   4.758  0.1393  0.5647  0.3287
  445MOL0     H60008   7.357   6.364   4.977  0.8174  1.5494 -1.5776
  445MOL0     H60009   7.122   6.343   5.080 -1.8635  1.0380  0.2489
  445MOL0     H60010   6.816   6.392   4.832  2.0019 -2.0817 -0.0474
  445MOL0     H60011   6.787   6.226   4.794  3.0279 -2.8981  0.5282
  445MOL0     H60012   6.653   6.172   4.980 -1.0442 -0.5741 -2.0263
  445MOL0     H60013   6.697   6.325   5.066  0.4213  0.8040 -0.7504
  445MOL0     H60014   6.575   6.465   4.907 -0.5255  0.7555  0.8360
  445MOL0     H60015   6.511   6.318   4.826 -2.8856  0.1412  1.6963
  445MOL0     H60016   6.446   6.424   5.092  3.2480 -2.6328  0.0643
  445MOL0     H60017   6.338   6.415   4.953 -1.8005  1.4417  3.0106
  445MOL0     H60018   6.460   6.188   5.112 -0.1116  2.3351  1.1189
  445MOL0     H60019   6.306   6.247   5.141  1.1355  0.6942  0.2145
  445MOL0     H60020   6.389   6.146   4.862 -1.0363  0.6917 -0.2635
  445MOL0     H60021   6.317   6.037   4.988 -3.4931  0.2011  0.8146
  445MOL0     H60022   6.108   6.193   4.998  0.0988  0.8051 -1.0485
  445MOL0     H60023   6.166   6.263   4.848  0.5054 -0.5064 -2.0181
  445MOL0     H60024   6.156   6.019   4.760  1.5417  1.5117 -0.7965
  445MOL0     H60025   6.007   6.107   4.790 -0.9616 -0.6681  2.4260
  445MOL0     H60026   6.205   5.819   4.942 -0.4078  1.2455  0.7774
  445MOL0     H60027   6.019   5.547   5.025  0.1486 -2.2020  2.8488
  445MOL0     H60028   6.168   5.621   5.079 -0.2908  2.5515  1.4901
  445MOL0     H60029   5.901   5.588   5.209  0.6122 -1.5299 -0.9916
  445MOL0     H60030   6.028   5.687   5.290 -0.6039  0.6806 -0.4575
  445MOL0     H60031   6.163   5.489   5.291  0.9616 -2.3730 -3.6599
  445MOL0     H60032   6.044   5.399   5.205  1.0063  0.1216 -0.7669
  445MOL0     H60033   6.005   5.349   5.458 -1.2128  0.8310  1.5760
  445MOL0     H60034   5.884   5.451   5.405 -0.1983  2.7650  2.3543
  445MOL0     H60035   6.082   5.707   5.703 -0.0421 -0.4486  3.6515
  445MOL0     H60036   6.298   5.675   5.976  0.4355 -2.2343 -1.0604
  445MOL0     H60037   6.342   5.805   5.862  0.4593  0.4462  2.4308
  445MOL0     H60038   6.176   5.772   5.882  0.0208 -0.1401 -2.1613
  445MOL0     H60039   6.534   5.243   6.101 -0.0837 -1.9557 -1.5816
  445MOL0     H60040   6.716   5.238   6.262  0.5136  2.2283  0.9823
  445MOL0     H60041   7.125   5.399   6.196 -0.8320  2.7238 -0.0793
  445MOL0     H60042   6.985   5.470   6.267 -2.0125 -2.1553  0.1867
  445MOL0     H60043   7.155   5.255   6.394  0.2320 -0.4004 -2.3534
  445MOL0     H60044   7.154   5.422   6.439 -1.4706  0.3066  2.9915
  445MOL0     H60045   6.911   5.239   6.456  1.3222  1.6814 -2.0250
  445MOL0     H60046   6.909   5.409   6.495 -1.0320 -0.4707  1.8502
  445MOL0     H60047   7.083   5.206   6.643  2.2861  1.5142  1.6068
  445MOL0     H60048   7.086   5.371   6.667 -1.9398  1.4248  3.1426
  445MOL0     H60049   6.820   5.358   6.715  0.6764  0.3738 -3.1922
  445MOL0     H60050   6.940   5.328   6.826 -0.2548 -2.5259  0.8778
  445MOL0     H60051   6.812   5.115   6.636  1.0834  2.4964 -0.9291
  445MOL0     H60052   6.914   5.071   6.768  0.4124 -0.3482 -0.2750
  445MOL0     H60053   6.639   5.224   6.815 -2.9849 -0.9264  4.4310
  445MOL0     H60054   6.754   5.159   6.934  3.8734 -1.6929 -0.5911
  445MOL0     H60055   6.615   4.993   6.718 -0.1950  0.1529  0.1993
  445MOL0     H60056   6.546   5.016   6.874 -1.1215 -1.7116  0.7164
  445MOL0     H60057   6.985   5.384   5.960  0.8632  0.5148  2.6213
  445MOL0     H60058   6.763   5.434   5.812 -2.6580  1.9806  1.6880
  445MOL0     H60059   6.387   5.312   5.673  0.0092 -0.0226  0.4492
  445MOL0     H60060   6.204   5.331   5.520 -0.0381 -0.7971  1.5115
  445MOL0     H60061   6.982   6.226   4.683  0.0913 -2.4744  0.6362
  445MOL0     H60062   7.208   6.262   4.602  1.5539 -0.9085  0.6698
  445MOL0     H60063   7.591   6.513   4.418 -1.9229  0.7997 -0.0884
  445MOL0     H60064   7.807   6.625   4.440  1.4764 -2.8663 -0.3473
  445MOL0     H60065   7.998   6.634   4.467  0.2280  0.8778 -0.0418
  445MOL0     H60066   7.955   6.796   4.518 -0.8356 -0.0718  1.6407
  445MOL0     H60067   8.178   6.818   4.639 -0.9032  1.7583 -1.3204
  445MOL0     H60068   8.222   6.762   4.468  0.8074 -0.2204 -0.1700
  445MOL0     H60069   8.228   6.520   4.549  0.9682 -0.0508 -0.0051
  445MOL0     H60070   8.192   6.581   4.710  2.7741 -0.4560  1.7120
  445MOL0     H60071   8.436   6.537   4.666 -2.3884 -1.1702  0.6274
  445MOL0     H60072   8.398   6.716   4.692 -2.1427  0.6324  0.0298
  445MOL0     H60073   8.538   6.690   4.297 -0.1758  2.3893 -0.9595
  445MOL0     H60074   7.823   6.532   4.867 -1.2164  0.6174  0.5238
  445MOL0     H60075   7.600   6.442   4.848 -1.9238 -4.5222 -2.2812
  446MOL0     O60076   9.170   2.689   3.351  0.1159 -0.1073 -0.1735
  446MOL0     C60077   9.077   2.756   3.303  0.5113  0.3280  0.1651
  446MOL0     O60078   9.066   2.787   3.169  0.7761  0.7252  0.0257
  446MOL0     C60079   9.186   2.791   3.105 -0.0142 -0.9055  0.6255
  446MOL0     C60080   9.213   2.714   2.987 -0.3525  1.3825 -0.0152
  446MOL0     C60081   9.327   2.722   2.918  0.6381  0.0842  0.4250
  446MOL0     C60082   9.427   2.809   2.955 -0.7593 -0.1955  0.1683
  446MOL0     O60083   9.546   2.810   2.888  1.1284 -0.0611 -0.4678
  446MOL0     C60084   9.549   2.891   2.766 -0.4735 -0.1920 -0.0039
  446MOL0     C60085   9.616   2.813   2.654  0.5081 -0.4007  0.3196
  446MOL0     C60086   9.563   2.668   2.643  0.1219 -0.5849  0.7814
  446MOL0     C60087   9.633   2.607   2.524  0.5516 -0.0648  0.6286
  446MOL0     C60088   9.590   2.460   2.503 -0.5299 -0.6026 -0.0639
  446MOL0     C60089   9.652   2.391   2.380 -0.9624 -0.0247  0.1039
  446MOL0     C60090   9.573   2.269   2.330  0.6160 -0.6745 -0.1015
  446MOL0     C60091   9.585   2.161   2.429 -0.0611  0.2071 -0.0498
  446MOL0     N60092   9.715   2.093   2.433 -0.4998  0.3234  0.2395
  446MOL0     C60093   9.768   2.031   2.320  1.1513  0.3217  0.1226
  446MOL0     C60094   9.899   2.005   2.357 -0.4273  0.2624 -0.2256
  446MOL0     C60095  10.005   1.941   2.269  0.3419  0.2483  0.0218
  446MOL0     C60096  10.030   1.793   2.257  1.0794  0.4026 -0.2660
  446MOL0     C60097  10.056   1.729   2.397  0.7147 -0.5337  0.4004
  446MOL0     C60098  10.091   1.585   2.388  0.9518  0.0985 -0.9252
  446MOL0     O60099  10.194   1.559   2.299 -0.2527  0.2922  0.0997
  446MOL0     C60100  10.246   1.429   2.294 -0.7610 -0.6024  0.1249
  446MOL0     C60101  10.335   1.390   2.194  0.9857 -1.2954 -0.4677
  446MOL0     C60102  10.380   1.259   2.170  0.2003 -0.3500  0.2237
  446MOL0     C60103  10.484   1.245   2.061 -0.6285 -0.2511  0.2179
  446MOL0     C60104  10.331   1.160   2.255  0.0385 -0.0230 -0.4983
  446MOL0     C60105  10.375   1.021   2.238  0.6741 -1.1835 -0.2866
  446MOL0     O60106  10.458   0.986   2.128  0.1438  0.2312 -0.8350
  446MOL0     C60107  10.555   0.898   2.165 -0.1347  0.3033 -0.3540
  446MOL0     C60108  10.544   0.763   2.149  1.3674 -0.4956 -0.2464
  446MOL0     C60109  10.639   0.676   2.184 -0.8700  0.0317 -0.3362
  446MOL0     C60110  10.760   0.717   2.243 -0.4089 -0.4575 -0.5926
  446MOL0     O60111  10.860   0.628   2.289 -0.0118  0.0700 -0.1323
  446MOL0     C60112  10.813   0.495   2.337  0.1022  0.6095  0.3098
  446MOL0     C60113  10.922   0.435   2.417 -0.9475  0.0508 -0.2040
  446MOL0     C60114  10.879   0.331   2.518  0.5148  0.1146  0.5245
  446MOL0     C60115  10.984   0.292   2.613 -0.9481 -0.1211 -1.1282
  446MOL0     C60116  10.946   0.191   2.713 -0.7247  0.1460  0.3774
  446MOL0     C60117  10.910   0.058   2.651  0.7678  0.8604 -0.2046
  446MOL0     C60118  10.898  -0.058   2.752 -0.5827  0.6081  0.8934
  446MOL0     C60119  10.750  -0.067   2.798 -1.0738  0.0384  0.5280
  446MOL0    Cl60120  10.632  -0.125   2.668 -0.1811 -0.1401  0.6002
  446MOL0     C60121  10.762   0.854   2.266 -0.6746 -0.0557 -0.0281
  446MOL0     C60122  10.677   0.948   2.221  0.1382  0.9034 -0.7649
  446MOL0     O60123  10.354   0.944   2.332 -0.3900  0.2483 -0.6046
  446MOL0     C60124  10.230   1.193   2.348  0.1394  0.2970  0.3420
  446MOL0     C60125  10.192   1.327   2.376  0.8087  0.5632 -0.0742
  446MOL0     N60126   9.922   2.053   2.480  0.2641 -0.5060 -0.6004
  446MOL0     N60127   9.808   2.096   2.532  0.8447 -0.2671 -0.0800
  446MOL0     C60128   9.409   2.890   3.072  1.2009 -0.1916  0.7440
  446MOL0     C60129   9.291   2.878   3.155  0.2753  0.7753  0.2008
  446MOL0     C60130   8.974   2.798   3.403 -0.3797  0.0669 -0.8999
  446MOL0     C60131   8.844   2.841   3.364 -0.5887  0.2734  0.2043
  446MOL0     C60132   8.740   2.859   3.465 -0.0323  0.0765  0.6290
  446MOL0     C60133   8.765   2.847   3.601  0.1722 -0.9134 -0.3086
  446MOL0     O60134   8.674   2.862   3.701 -0.7416 -1.0764 -0.3403
  446MOL0     C60135   8.584   2.968   3.707 -0.6910  0.1853  0.4149
  446MOL0     C60136   8.609   3.043   3.829 -0.3790  0.2385  0.3004
  446MOL0     C60137   8.754   3.106   3.846  0.5906 -0.1287 -0.5782
  446MOL0     C60138   8.732   3.237   3.928  0.6024 -0.1352 -0.4967
  446MOL0     C60139   8.692   3.230   4.070 -0.0946  0.2461 -0.5118
  446MOL0     C60140   8.650   3.258   4.182  0.3821  0.0283 -0.3274
  446MOL0     C60141   8.897   2.812   3.635 -0.6309 -0.1157  0.4128
  446MOL0     C60142   8.995   2.782   3.541 -0.0350  0.1639  0.2570
  446MOL0     H60143   9.142   2.638   2.956  0.4750  0.5952 -0.0438
  446MOL0     H60144   9.362   2.659   2.837  1.6543 -0.0373  0.9329
  446MOL0     H60145   9.449   2.930   2.744 -1.2836 -0.2638  3.0879
  446MOL0     H60146   9.594   2.989   2.784  2.0461 -1.2473 -0.2253
  446MOL0     H60147   9.589   2.857   2.558  0.1512 -1.3994 -0.0474
  446MOL0     H60148   9.725   2.812   2.662  0.6223 -3.5526 -0.3713
  446MOL0     H60149   9.580   2.615   2.737 -2.8219  2.2678  3.1959
  446MOL0     H60150   9.455   2.677   2.627  0.4450 -0.3744 -1.7718
  446MOL0     H60151   9.611   2.655   2.428 -1.2318 -1.9426  0.0174
  446MOL0     H60152   9.742   2.616   2.536  0.4145  1.4227  0.9473
  446MOL0     H60153   9.634   2.411   2.591 -0.1659  0.8283  0.5790
  446MOL0     H60154   9.482   2.445   2.496 -0.5068 -3.5256  3.0714
  446MOL0     H60155   9.644   2.468   2.302 -3.4071 -1.5848 -1.3000
  446MOL0     H60156   9.757   2.362   2.396 -1.1284 -0.2583  0.7752
  446MOL0     H60157   9.467   2.292   2.318  0.7903 -0.5016 -1.5892
  446MOL0     H60158   9.613   2.234   2.234 -0.0694  1.3490 -1.1692
  446MOL0     H60159   9.502   2.094   2.404 -1.6200  0.8312  2.9645
  446MOL0     H60160   9.561   2.196   2.530  3.6663 -0.0204  1.0554
  446MOL0     H60161   9.708   2.008   2.233  1.0761 -0.9606  0.5011
  446MOL0     H60162   9.976   1.970   2.168 -2.6682 -1.6263  0.2168
  446MOL0     H60163  10.098   1.993   2.294  1.6286 -1.4839 -0.9001
  446MOL0     H60164  10.103   1.775   2.178  1.0467 -1.5733  0.0959
  446MOL0     H60165   9.940   1.744   2.219  1.4355 -0.1574 -0.4086
  446MOL0     H60166   9.970   1.747   2.462  1.9673 -1.0188  2.2991
  446MOL0     H60167  10.131   1.787   2.453 -1.1853  0.0646  2.4657
  446MOL0     H60168   9.996   1.535   2.365  0.1277  1.7017 -1.1181
  446MOL0     H60169  10.115   1.552   2.489  1.4584 -0.7771 -1.3152
  446MOL0     H60170  10.358   1.478   2.134  0.9087 -1.9245 -1.4438
  446MOL0     H60171  10.582   1.209   2.094  0.1781  0.1683 -1.6030
  446MOL0     H60172  10.459   1.188   1.970 -2.8272 -0.0271  0.6144
  446MOL0     H60173  10.502   1.347   2.025 -1.2735  0.0018  0.5954
  446MOL0     H60174  10.446   0.721   2.128  0.3661  1.0688  1.0840
  446MOL0     H60175  10.625   0.569   2.181  0.8678 -0.4888  3.4688
  446MOL0     H60176  10.720   0.502   2.393 -0.7842  1.2246 -1.1709
  446MOL0     H60177  10.789   0.427   2.254  1.8782  2.1196 -1.5473
  446MOL0     H60178  10.995   0.389   2.350  0.1081 -1.2147  1.7275
  446MOL0     H60179  10.985   0.510   2.467  1.8913 -3.1624  1.5000
  446MOL0     H60180  10.849   0.247   2.456  0.6482  1.2602 -1.1728
  446MOL0     H60181  10.797   0.367   2.581 -0.3852  2.4443 -1.8015
  446MOL0     H60182  11.080   0.261   2.571  1.3258  1.3063  2.4580
  446MOL0     H60183  11.004   0.379   2.675 -1.2723  0.4524 -1.8213
  446MOL0     H60184  10.860   0.218   2.776 -0.4812 -2.5737  2.0605
  446MOL0     H60185  11.030   0.178   2.782 -1.6755  2.0191  2.0014
  446MOL0     H60186  10.823   0.071   2.587  1.1669  1.0053 -0.7281
  446MOL0     H60187  10.991   0.028   2.582  1.6554 -1.0824  1.5643
  446MOL0     H60188  10.965  -0.048   2.837 -2.0543  0.5579  2.0950
  446MOL0     H60189  10.924  -0.147   2.693  0.9755  2.6408 -1.7147
  446MOL0     H60190  10.721   0.032   2.834 -0.2813  0.5436 -0.1974
  446MOL0     H60191  10.751  -0.127   2.890  2.1960 -0.0398  0.5447
  446MOL0     H60192  10.843   0.897   2.324 -1.7494  2.1070 -0.0318
  446MOL0     H60193  10.689   1.055   2.235  0.9150  0.9261 -1.4922
  446MOL0     H60194  10.188   1.113   2.407 -1.7874  1.7619  1.0613
  446MOL0     H60195  10.119   1.354   2.452  0.9327  1.4845 -0.2735
  446MOL0     H60196   9.486   2.962   3.096 -0.3910  1.7494  0.2686
  446MOL0     H60197   9.271   2.928   3.249  1.1269 -1.2661  1.5373
  446MOL0     H60198   8.816   2.837   3.259 -0.6891 -0.9473  0.2614
  446MOL0     H60199   8.641   2.881   3.425 -0.6656 -1.4193  1.3221
  446MOL0     H60200   8.587   3.046   3.630  1.7801  1.5471  1.7788
  446MOL0     H60201   8.486   2.920   3.713  1.1431 -3.8136  2.4287
  446MOL0     H60202   8.588   2.976   3.912  1.5511 -2.2173 -1.0478
  446MOL0     H60203   8.538   3.125   3.815 -0.6604 -0.2665 -1.4724
  446MOL0     H60204   8.796   3.142   3.752 -1.1261  5.6626  0.4351
  446MOL0     H60205   8.828   3.034   3.881 -0.0542 -1.3790 -1.7256
  446MOL0     H60206   8.646   3.289   3.883 -1.2178 -0.1431  2.6814
  446MOL0     H60207   8.822   3.299   3.925  2.6443 -2.4897  3.6690
  446MOL0     H60208   8.607   3.289   4.275 -1.2554 -0.8011 -0.7660
  446MOL0     H60209   8.920   2.820   3.741  1.0144 -3.2989  0.4257
  446MOL0     H60210   9.083   2.730   3.576  0.6966  0.4474 -1.0917
  447MOL0     O60211   5.549   9.332   7.843 -0.4348 -0.6081 -0.1355
  447MOL0     C60212   5.623   9.382   7.753 -0.4987 -0.1619  0.0116
  447MOL0     O60213   5.585   9.483   7.673  0.7199  0.4228  0.0965
  447MOL0     C60214   5.458   9.543   7.660  0.4614 -0.0039 -0.2561
  447MOL0     C60215   5.342   9.470   7.653 -1.6706 -0.5441 -0.4164
  447MOL0     C60216   5.223   9.545   7.632 -0.3825  1.2549 -0.3844
  447MOL0     C60217   5.213   9.682   7.631 -1.5226  0.5660  0.0064
  447MOL0     O60218   5.095   9.740   7.584 -1.2816  1.1870  0.0246
  447MOL0     C60219   5.077   9.870   7.637 -0.0645 -1.2062 -0.3006
  447MOL0     C60220   4.930   9.900   7.641  0.3522 -0.4369 -0.1798
  447MOL0     C60221   4.894  10.048   7.681 -0.6154 -0.4464 -0.3686
  447MOL0     C60222   4.743  10.064   7.680  0.3375 -0.2270 -0.4281
  447MOL0     C60223   4.698  10.207   7.709  0.4361 -0.8463  0.0668
  447MOL0     C60224   4.544  10.217   7.718  0.4032 -0.1944 -0.2947
  447MOL0     C60225   4.466  10.194   7.577 -0.4354 -0.3471 -0.3905
  447MOL0     C60226   4.320  10.187   7.578 -0.1925 -0.0271 -0.9693
  447MOL0     N60227   4.251  10.286   7.657 -0.1869  0.0514  0.3765
  447MOL0     C60228   4.219  10.269   7.793  0.9869 -0.3453 -0.9115
  447MOL0     C60229   4.224  10.391   7.845 -0.3973  0.6599 -0.6381
  447MOL0     C60230   4.187  10.425   7.983 -0.6100  0.3494 -1.4305
  447MOL0     C60231   4.323  10.453   8.064 -0.0194 -0.0432  0.0013
  447MOL0     C60232   4.410  10.332   8.061 -0.1243 -1.0100 -0.3420
  447MOL0     C60233   4.518  10.348   8.179  0.1289  0.1023  0.3841
  447MOL0     O60234   4.466  10.384   8.301 -0.6641 -0.6947 -0.4798
  447MOL0     C60235   4.553  10.452   8.393  0.4643 -0.7121  0.6776
  447MOL0     C60236   4.500  10.527   8.499 -0.3684  0.0690  0.0690
  447MOL0     C60237   4.578  10.586   8.592 -1.1095  0.9226  0.2685
  447MOL0     C60238   4.514  10.681   8.691  0.3433  0.3234  0.5390
  447MOL0     C60239   4.718  10.561   8.595 -0.8037  0.3428  0.5924
  447MOL0     C60240   4.825  10.615   8.685  0.4099  0.4447 -0.7994
  447MOL0     O60241   4.961  10.569   8.678  0.2616 -0.2026  0.1096
  447MOL0     C60242   5.046  10.566   8.788 -0.4002  1.0056  0.0487
  447MOL0     C60243   5.098  10.450   8.849 -0.9068 -0.2396 -0.1042
  447MOL0     C60244   5.196  10.463   8.951  0.8062  0.6840  0.1364
  447MOL0     C60245   5.248  10.590   8.994  0.0361  0.7263  0.5580
  447MOL0     O60246   5.348  10.586   9.091  0.5609  0.3651 -0.1619
  447MOL0     C60247   5.306  10.613   9.227 -0.5154 -0.0951  0.0561
  447MOL0     C60248   5.367  10.497   9.318 -0.4054 -0.1242  1.2028
  447MOL0     C60249   5.313  10.480   9.461 -0.1543  0.3253  0.2109
  447MOL0     C60250   5.284  10.613   9.528 -0.3171 -1.5585  0.5233
  447MOL0     C60251   5.247  10.579   9.672  0.1460  0.0058 -0.3419
  447MOL0     C60252   5.198  10.701   9.740 -0.5248  0.0823  0.0209
  447MOL0     C60253   5.140  10.658   9.876 -0.0304 -0.3579 -1.1304
  447MOL0     C60254   5.007  10.587   9.873  0.5904 -0.1748 -0.5856
  447MOL0    Cl60255   5.041  10.413   9.871  0.4975 -0.3020  0.5382
  447MOL0     C60256   5.202  10.705   8.928  0.5943  0.1042 -0.8431
  447MOL0     C60257   5.100  10.684   8.838  0.5373 -1.3205  0.3769
  447MOL0     O60258   4.784  10.696   8.773 -0.2439 -0.0835  0.1129
  447MOL0     C60259   4.768  10.475   8.490 -0.2258 -0.7455 -0.2887
  447MOL0     C60260   4.686  10.420   8.394  0.9510 -0.5660  0.5292
  447MOL0     N60261   4.246  10.475   7.746 -0.0753 -0.6621  0.3661
  447MOL0     N60262   4.262  10.418   7.636 -0.1073 -0.1289 -0.6075
  447MOL0     C60263   5.334   9.754   7.651  0.0713  0.0845 -0.7571
  447MOL0     C60264   5.460   9.681   7.663  0.3837  0.2367  1.0339
  447MOL0     C60265   5.772   9.342   7.745  0.1334 -0.1814  0.6696
  447MOL0     C60266   5.860   9.413   7.659 -0.1575  0.2712 -0.1007
  447MOL0     C60267   5.975   9.344   7.613  0.4562 -0.7577  0.6240
  447MOL0     C60268   6.028   9.232   7.668  0.0253  0.1863 -0.4169
  447MOL0     O60269   6.139   9.178   7.613  0.4035  0.6922  0.2251
  447MOL0     C60270   6.229   9.097   7.687  0.0864  0.8056 -1.0356
  447MOL0     C60271   6.298   9.183   7.791  0.8018  0.2681 -0.2494
  447MOL0     C60272   6.408   9.274   7.755 -0.5517 -0.5082  0.3877
  447MOL0     C60273   6.512   9.308   7.873 -0.5487 -0.3390 -0.4185
  447MOL0     C60274   6.461   9.421   7.948  0.0203  0.0192 -0.3344
  447MOL0     C60275   6.406   9.506   8.010  0.2130 -0.4194 -0.1486
  447MOL0     C60276   5.944   9.163   7.762 -0.0509  0.3561 -0.1812
  447MOL0     C60277   5.816   9.218   7.795  0.3629  0.5862 -0.6014
  447MOL0     H60278   5.355   9.363   7.651 -2.7693 -0.6928 -2.7114
  447MOL0     H60279   5.141   9.486   7.593  0.2578  1.6583 -2.4867
  447MOL0     H60280   5.111   9.877   7.741 -1.5971 -2.4361  0.3205
  447MOL0     H60281   5.133   9.940   7.575  2.8445 -2.1912  1.0027
  447MOL0     H60282   4.903   9.869   7.540  4.1695  0.8892 -1.8281
  447MOL0     H60283   4.899   9.836   7.723  1.7475  1.0346  1.5955
  447MOL0     H60284   4.933  10.071   7.781  1.4233 -1.7150 -0.8195
  447MOL0     H60285   4.931  10.129   7.618  1.1833  1.3908  2.7600
  447MOL0     H60286   4.714  10.040   7.577 -1.1643  1.4917 -0.4417
  447MOL0     H60287   4.698   9.988   7.744 -3.5586  0.9127 -1.5787
  447MOL0     H60288   4.743  10.240   7.803  1.9925 -1.9910 -0.2535
  447MOL0     H60289   4.724  10.281   7.632  1.0393  1.7852  2.6211
  447MOL0     H60290   4.505  10.149   7.794  0.6004 -1.9902 -1.7332
  447MOL0     H60291   4.517  10.315   7.758  1.4904 -0.3585  0.9074
  447MOL0     H60292   4.492  10.283   7.519  0.8714  0.2682  1.0535
  447MOL0     H60293   4.516  10.109   7.529  1.6667  0.3330  0.4509
  447MOL0     H60294   4.293  10.085   7.605  0.1500 -0.9211 -3.7152
  447MOL0     H60295   4.288  10.215   7.477 -1.2717  1.8498 -0.1675
  447MOL0     H60296   4.195  10.174   7.838  1.8563 -1.8545 -3.4092
  447MOL0     H60297   4.130  10.518   7.984  0.7880  1.3036  1.4345
  447MOL0     H60298   4.125  10.344   8.023 -2.0532  3.2773  3.0323
  447MOL0     H60299   4.305  10.488   8.166 -0.5023 -1.4572  0.4213
  447MOL0     H60300   4.380  10.538   8.024  1.2909  1.2185  4.0422
  447MOL0     H60301   4.461  10.322   7.965 -2.7736 -1.2263 -1.8127
  447MOL0     H60302   4.353  10.241   8.079 -3.1467  1.2810  3.1239
  447MOL0     H60303   4.593  10.421   8.149 -0.7831  1.4089  1.1941
  447MOL0     H60304   4.564  10.249   8.191  2.0656  0.0477 -4.8963
  447MOL0     H60305   4.397  10.559   8.493 -0.4787  0.5175  2.9869
  447MOL0     H60306   4.551  10.658   8.791 -0.7369 -1.8845  0.4896
  447MOL0     H60307   4.533  10.787   8.673  0.4538  0.2379  0.1472
  447MOL0     H60308   4.405  10.669   8.691  0.5216 -1.5559 -0.3020
  447MOL0     H60309   5.059  10.352   8.825 -0.1405 -0.7466  0.6511
  447MOL0     H60310   5.227  10.370   8.997 -1.2240 -0.3936 -0.5613
  447MOL0     H60311   5.354  10.706   9.261  2.2321 -1.8591  1.3334
  447MOL0     H60312   5.199  10.631   9.243 -0.1768 -0.2362  3.2681
  447MOL0     H60313   5.345  10.402   9.268 -2.3839  0.5214  0.7681
  447MOL0     H60314   5.475  10.503   9.327 -0.5196  3.3006  1.4670
  447MOL0     H60315   5.389  10.433   9.524  1.1995  2.8647  0.6113
  447MOL0     H60316   5.212  10.438   9.459  0.6974 -1.7686 -0.3799
  447MOL0     H60317   5.373  10.677   9.525 -1.5957  0.3501  1.7086
  447MOL0     H60318   5.197  10.664   9.485 -1.4246 -0.2378  4.0435
  447MOL0     H60319   5.335  10.528   9.711 -0.5730 -0.5694  0.5376
  447MOL0     H60320   5.167  10.505   9.671  0.4858 -0.3657  0.0803
  447MOL0     H60321   5.275  10.778   9.756 -0.4283 -0.1768  0.8944
  447MOL0     H60322   5.118  10.747   9.682 -0.8580  0.0015  0.4151
  447MOL0     H60323   5.121  10.751   9.930 -1.6987 -1.4661  0.2673
  447MOL0     H60324   5.218  10.611   9.937  0.6442  0.7452 -1.1145
  447MOL0     H60325   4.940  10.606   9.789  0.6521 -2.4273 -1.2089
  447MOL0     H60326   4.949  10.601   9.964  1.3557 -1.3055  0.1035
  447MOL0     H60327   5.241  10.806   8.937 -4.8258  2.4176  0.9884
  447MOL0     H60328   5.063  10.776   8.794  2.6714 -1.0140 -0.9215
  447MOL0     H60329   4.871  10.451   8.464 -0.1528  0.3581 -1.1036
  447MOL0     H60330   4.733  10.360   8.317 -0.5761  1.4087 -2.1253
  447MOL0     H60331   5.341   9.862   7.645  0.1325  0.0153 -2.4706
  447MOL0     H60332   5.559   9.720   7.641 -1.4875  4.8748 -0.4734
  447MOL0     H60333   5.824   9.510   7.629 -1.8417  0.3426  1.8985
  447MOL0     H60334   6.043   9.403   7.552 -1.4329  0.6273 -0.2508
  447MOL0     H60335   6.179   9.012   7.733 -0.6709  2.0687  0.5677
  447MOL0     H60336   6.301   9.053   7.617  1.2357  0.6545  0.2043
  447MOL0     H60337   6.351   9.108   7.850 -1.8062 -2.1011 -0.7139
  447MOL0     H60338   6.213   9.229   7.843  0.1530 -2.6022  1.4338
  447MOL0     H60339   6.371   9.367   7.712  0.7712 -0.6368 -1.1242
  447MOL0     H60340   6.454   9.219   7.672 -2.5433 -2.5151  0.4841
  447MOL0     H60341   6.614   9.323   7.837 -0.5762  1.3008  0.0931
  447MOL0     H60342   6.520   9.228   7.947 -0.6354 -0.0299 -0.0688
  447MOL0     H60343   6.347   9.566   8.076 -1.6386 -1.7282 -0.5259
  447MOL0     H60344   5.974   9.063   7.794 -0.9562 -0.3200 -1.3904
  447MOL0     H60345   5.748   9.168   7.864  1.7375  1.0657  1.1791
  448MOL0     O60346   2.873   7.380   2.795  0.0279 -0.5608  1.2467
  448MOL0     C60347   2.865   7.464   2.886  0.6544 -0.2022  0.4115
  448MOL0     O60348   2.758   7.539   2.910  0.7904 -0.6534  0.1526
  448MOL0     C60349   2.643   7.510   2.839 -0.4039 -0.8379 -0.2832
  448MOL0     C60350   2.605   7.606   2.735 -0.5666  0.7961 -0.3533
  448MOL0     C60351   2.495   7.573   2.662  0.5197 -1.0760 -0.5334
  448MOL0     C60352   2.422   7.462   2.692  0.3074 -0.8499 -0.5946
  448MOL0     O60353   2.306   7.424   2.620  0.4511 -0.1396 -0.3871
  448MOL0     C60354   2.274   7.502   2.507  0.6048 -0.8915 -0.0337
  448MOL0     C60355   2.142   7.443   2.442 -0.0672  0.0099  0.1155
  448MOL0     C60356   2.102   7.516   2.310  0.4605 -0.2525  0.1444
  448MOL0     C60357   1.976   7.457   2.248 -0.5868  0.1951  0.0737
  448MOL0     C60358   1.956   7.520   2.108 -0.4152  0.8331  0.1469
  448MOL0     C60359   1.808   7.510   2.058 -0.0446  0.3949  0.7943
  448MOL0     C60360   1.789   7.556   1.910 -0.2182  0.1775 -0.4015
  448MOL0     C60361   1.826   7.457   1.797  0.3093 -0.2073 -0.8422
  448MOL0     N60362   1.866   7.517   1.670  0.6130 -0.3564  0.5583
  448MOL0     C60363   1.783   7.596   1.590  0.2572  1.1757  0.1414
  448MOL0     C60364   1.861   7.631   1.491  0.0810  0.9313  0.1567
  448MOL0     C60365   1.819   7.702   1.369  0.0779 -0.2638 -0.3364
  448MOL0     C60366   1.741   7.837   1.391  0.1484  0.7154 -0.1468
  448MOL0     C60367   1.823   7.967   1.427  0.2869  0.3025  0.6155
  448MOL0     C60368   1.725   8.082   1.437  0.5575  0.6282 -0.0504
  448MOL0     O60369   1.790   8.210   1.444  0.6289 -0.2212 -0.5404
  448MOL0     C60370   1.724   8.316   1.499  0.1847 -1.1398  0.7640
  448MOL0     C60371   1.799   8.424   1.551  0.2125  0.3942  0.0294
  448MOL0     C60372   1.746   8.548   1.608 -0.2699  0.2762  1.1755
  448MOL0     C60373   1.841   8.653   1.651 -0.5926 -0.0082 -0.0047
  448MOL0     C60374   1.611   8.569   1.596  0.2160 -0.1282 -0.1129
  448MOL0     C60375   1.541   8.691   1.650 -0.2455 -0.8349 -0.1359
  448MOL0     O60376   1.411   8.682   1.689  0.3843 -0.1504 -0.0827
  448MOL0     C60377   1.356   8.776   1.773 -0.6353  0.2594 -0.1900
  448MOL0     C60378   1.261   8.870   1.727 -0.0937  0.4659  0.1492
  448MOL0     C60379   1.215   8.966   1.819 -0.2311  0.5315 -0.4813
  448MOL0     C60380   1.258   8.965   1.954 -0.3199 -0.0532 -1.2646
  448MOL0     O60381   1.209   9.054   2.046  0.0306  0.2548  0.0446
  448MOL0     C60382   1.254   9.053   2.179  0.2828 -0.0521 -0.1924
  448MOL0     C60383   1.194   9.163   2.248 -0.0121 -0.0965 -0.3676
  448MOL0     C60384   1.265   9.304   2.223 -1.0946  0.5081  0.1268
  448MOL0     C60385   1.169   9.390   2.146  0.6152  0.2058 -0.8042
  448MOL0     C60386   1.065   9.445   2.240  0.7772  1.0599 -0.2232
  448MOL0     C60387   0.925   9.461   2.184  0.2530 -0.3512  0.1270
  448MOL0     C60388   0.839   9.341   2.186 -0.0008  0.6097 -0.4795
  448MOL0     C60389   0.694   9.380   2.141 -0.9005  0.7100  0.0600
  448MOL0    Cl60390   0.621   9.447   2.294  0.0074  0.5280  0.3608
  448MOL0     C60391   1.352   8.880   1.993 -0.5446 -0.1904  1.1099
  448MOL0     C60392   1.399   8.771   1.908 -0.0310  0.3914 -0.2703
  448MOL0     O60393   1.608   8.796   1.663 -0.1289  0.6298  0.3658
  448MOL0     C60394   1.530   8.460   1.551  0.8529 -0.2683 -0.5962
  448MOL0     C60395   1.581   8.339   1.497 -1.2016 -0.7240 -0.5733
  448MOL0     N60396   1.991   7.580   1.504 -0.3111  0.4874 -0.2807
  448MOL0     N60397   1.991   7.515   1.615 -0.6964  0.3883 -0.6943
  448MOL0     C60398   2.451   7.374   2.799 -0.1488  0.0717  0.2328
  448MOL0     C60399   2.567   7.401   2.873  0.0936  0.9478 -0.0355
  448MOL0     C60400   2.987   7.503   2.957 -0.1324 -0.0849 -0.1650
  448MOL0     C60401   3.115   7.454   2.930  0.0125  0.8334  0.5112
  448MOL0     C60402   3.225   7.478   3.012 -0.7157 -0.3166 -0.1203
  448MOL0     C60403   3.211   7.569   3.123 -0.3266  0.4275  0.0868
  448MOL0     O60404   3.326   7.608   3.186 -0.9775 -0.4011  0.7908
  448MOL0     C60405   3.316   7.678   3.314 -0.1455  0.5937 -0.4815
  448MOL0     C60406   3.419   7.604   3.395  0.3024  0.5866 -0.2077
  448MOL0     C60407   3.423   7.615   3.552  0.2044 -0.0254  0.2480
  448MOL0     C60408   3.475   7.753   3.603  0.6072 -1.1147  0.0597
  448MOL0     C60409   3.620   7.755   3.636  0.4390 -0.4679 -0.0730
  448MOL0     C60410   3.729   7.762   3.674 -0.3417  0.0536 -0.1036
  448MOL0     C60411   3.086   7.633   3.146  0.3802  0.6733 -0.5923
  448MOL0     C60412   2.975   7.591   3.072 -0.1849 -0.7070  0.1189
  448MOL0     H60413   2.671   7.687   2.705  3.6017 -1.9750  0.4149
  448MOL0     H60414   2.484   7.641   2.577  2.8170 -0.8302 -0.7029
  448MOL0     H60415   2.260   7.605   2.538 -2.6458 -1.4355  0.6492
  448MOL0     H60416   2.350   7.483   2.430 -2.4102 -0.4206 -3.4494
  448MOL0     H60417   2.156   7.335   2.430  4.5294  0.0653  2.5380
  448MOL0     H60418   2.056   7.454   2.508  1.3350 -2.1017  2.4929
  448MOL0     H60419   2.088   7.623   2.329  1.8696  0.3111 -1.6977
  448MOL0     H60420   2.181   7.493   2.238  1.7235 -1.6588  1.8646
  448MOL0     H60421   1.978   7.348   2.241 -1.6544  0.1828 -0.1635
  448MOL0     H60422   1.893   7.484   2.316 -0.0515 -1.1453  1.3019
  448MOL0     H60423   1.975   7.628   2.113 -3.4413  1.4036  3.0435
  448MOL0     H60424   2.032   7.471   2.046 -0.5517 -1.7792  1.9014
  448MOL0     H60425   1.774   7.405   2.061 -1.1581  0.7158  0.0838
  448MOL0     H60426   1.742   7.570   2.121  0.4963  0.3646  1.3936
  448MOL0     H60427   1.684   7.580   1.894 -0.0095  0.0545 -2.2192
  448MOL0     H60428   1.849   7.644   1.881 -0.0083 -0.8841 -3.5821
  448MOL0     H60429   1.757   7.374   1.780  1.2085 -1.3204  0.6768
  448MOL0     H60430   1.919   7.405   1.822  1.1449  1.6753  0.2179
  448MOL0     H60431   1.679   7.625   1.601 -0.2869 -0.4036 -0.5772
  448MOL0     H60432   1.911   7.723   1.315 -1.0115  3.8998 -0.9396
  448MOL0     H60433   1.759   7.625   1.320  0.2222 -0.7554  0.2480
  448MOL0     H60434   1.681   7.814   1.480  0.4202  0.6780  0.0251
  448MOL0     H60435   1.680   7.853   1.301 -2.2683  3.0055  1.7341
  448MOL0     H60436   1.891   7.983   1.343 -1.7274 -4.8686 -2.4746
  448MOL0     H60437   1.884   7.949   1.516 -0.9329 -1.9935  1.0534
  448MOL0     H60438   1.662   8.072   1.526  2.9139 -1.9114  1.4441
  448MOL0     H60439   1.653   8.076   1.355 -2.7309 -1.7057  2.7202
  448MOL0     H60440   1.905   8.407   1.536  0.3386  1.4421 -0.3775
  448MOL0     H60441   1.861   8.733   1.580 -0.6499  2.5460  2.6626
  448MOL0     H60442   1.806   8.691   1.748  0.7805  0.4137  0.3490
  448MOL0     H60443   1.932   8.600   1.680 -1.4342 -0.5266  1.8632
  448MOL0     H60444   1.239   8.862   1.621  0.1945 -1.4081  0.1963
  448MOL0     H60445   1.141   9.035   1.781 -1.5475  2.3508  4.5370
  448MOL0     H60446   1.238   8.958   2.229  2.3241  1.1320  3.0632
  448MOL0     H60447   1.363   9.061   2.190  0.5678 -1.4760 -1.6083
  448MOL0     H60448   1.086   9.155   2.231 -0.2344  2.5769 -0.6664
  448MOL0     H60449   1.202   9.140   2.355 -0.1774 -0.2547 -0.3876
  448MOL0     H60450   1.347   9.284   2.154 -2.6917 -0.6172 -1.5499
  448MOL0     H60451   1.316   9.357   2.304 -0.3073  0.5185 -0.3659
  448MOL0     H60452   1.222   9.480   2.112  1.3632 -0.4683 -1.4351
  448MOL0     H60453   1.125   9.339   2.060  0.4935 -1.8811  0.4386
  448MOL0     H60454   1.101   9.545   2.270 -0.8773  1.4798  0.4540
  448MOL0     H60455   1.063   9.389   2.334 -2.0664 -0.1003 -0.8726
  448MOL0     H60456   0.874   9.535   2.247 -0.4132 -1.2560  0.6696
  448MOL0     H60457   0.921   9.509   2.086 -0.1633 -0.7195 -0.0379
  448MOL0     H60458   0.845   9.308   2.290  2.6182  0.2669 -0.6603
  448MOL0     H60459   0.869   9.261   2.119  0.1127  1.7300 -1.8193
  448MOL0     H60460   0.642   9.288   2.113  1.3061 -1.3335  2.1402
  448MOL0     H60461   0.686   9.451   2.058 -1.9055 -1.5803 -1.9257
  448MOL0     H60462   1.407   8.888   2.086  2.8099 -0.1615 -0.7492
  448MOL0     H60463   1.477   8.699   1.932  2.9169  2.7410 -2.0368
  448MOL0     H60464   1.421   8.466   1.548  0.6649  0.2103  2.9233
  448MOL0     H60465   1.521   8.260   1.453 -0.7125 -2.1852  1.2628
  448MOL0     H60466   2.376   7.299   2.822 -0.4475 -0.2886 -1.7451
  448MOL0     H60467   2.604   7.359   2.966  2.0522  2.8888  0.1552
  448MOL0     H60468   3.133   7.382   2.850 -2.4821 -1.7548  2.0789
  448MOL0     H60469   3.324   7.449   2.977  1.0308  1.8082  2.6562
  448MOL0     H60470   3.348   7.782   3.308  0.0692  0.5360 -0.3749
  448MOL0     H60471   3.223   7.670   3.370  1.5738 -1.7576  2.3403
  448MOL0     H60472   3.522   7.625   3.365  0.4014 -0.2008 -0.4453
  448MOL0     H60473   3.420   7.496   3.374  0.6911  0.4116  0.6478
  448MOL0     H60474   3.491   7.538   3.588 -1.1788 -0.8810  1.1013
  448MOL0     H60475   3.328   7.594   3.602 -0.6636 -0.6675 -1.5872
  448MOL0     H60476   3.412   7.791   3.684  0.5993 -3.0336  1.0196
  448MOL0     H60477   3.474   7.827   3.523 -0.2975 -1.6884 -0.4652
  448MOL0     H60478   3.831   7.782   3.701 -0.5760  0.0792  0.7755
  448MOL0     H60479   3.083   7.706   3.226  1.8998  0.8958 -0.7071
  448MOL0     H60480   2.882   7.642   3.096  1.4017  0.8866  3.7205
  449MOL0     O60481   8.786  10.890   2.748 -0.0245  0.7840 -0.2621
  449MOL0     C60482   8.815  10.993   2.685 -0.2231  0.7621  0.1586
  449MOL0     O60483   8.745  11.105   2.681  0.2163 -0.7776 -0.3629
  449MOL0     C60484   8.619  11.111   2.736 -0.0604 -0.5222  0.2477
  449MOL0     C60485   8.530  11.007   2.725  0.7104 -0.9588 -0.5569
  449MOL0     C60486   8.391  11.041   2.760  0.7723 -0.1567  0.9205
  449MOL0     C60487   8.348  11.169   2.797  0.0205  0.6125  1.3587
  449MOL0     O60488   8.213  11.206   2.812 -0.1466 -0.2458  0.0151
  449MOL0     C60489   8.110  11.108   2.788  0.3281 -0.0300  0.1849
  449MOL0     C60490   7.972  11.174   2.796 -0.5031  0.5748  1.0092
  449MOL0     C60491   7.862  11.079   2.793  0.1171  0.9381  1.0368
  449MOL0     C60492   7.849  11.000   2.663 -0.3376  0.4885  0.0974
  449MOL0     C60493   7.729  10.897   2.671 -0.2018 -0.6729 -0.3411
  449MOL0     C60494   7.593  10.963   2.645 -0.0571 -0.0853  0.5969
  449MOL0     C60495   7.497  10.847   2.609  0.5685 -0.8320 -1.0053
  449MOL0     C60496   7.356  10.902   2.622  0.2408 -0.0726  0.1848
  449MOL0     N60497   7.259  10.792   2.614  0.5478 -0.6260  0.3128
  449MOL0     C60498   7.183  10.740   2.714  0.2726 -0.3452 -0.6409
  449MOL0     C60499   7.106  10.638   2.664 -0.6878  0.3574  0.5539
  449MOL0     C60500   6.996  10.559   2.719  0.3217  0.6451 -0.8845
  449MOL0     C60501   6.885  10.654   2.753  1.0120  0.2795  0.9555
  449MOL0     C60502   6.758  10.587   2.825  0.1151 -0.4466 -0.3722
  449MOL0     C60503   6.651  10.687   2.879 -0.4942  0.1268 -0.2410
  449MOL0     O60504   6.540  10.617   2.899 -0.2719 -1.3289  0.5429
  449MOL0     C60505   6.435  10.680   2.962 -0.1303 -0.1016  0.2265
  449MOL0     C60506   6.410  10.817   2.984  0.1232 -0.1320  0.6030
  449MOL0     C60507   6.296  10.860   3.054 -0.0642  0.5587 -0.4399
  449MOL0     C60508   6.271  11.009   3.061 -0.1494  0.0365  0.1007
  449MOL0     C60509   6.207  10.753   3.110 -0.4830  0.1536  0.9413
  449MOL0     C60510   6.081  10.786   3.178  0.7673  0.7848  0.4634
  449MOL0     O60511   5.988  10.681   3.191 -0.1786 -0.0266 -0.7377
  449MOL0     C60512   5.857  10.701   3.221  0.2679  0.9363  1.0094
  449MOL0     C60513   5.771  10.806   3.172 -0.4849  0.7208  0.0465
  449MOL0     C60514   5.639  10.813   3.206  0.1581 -0.8364 -0.0780
  449MOL0     C60515   5.579  10.713   3.278 -0.0680  0.4655 -0.8008
  449MOL0     O60516   5.449  10.713   3.310  0.3097 -0.2781  0.0584
  449MOL0     C60517   5.357  10.646   3.222 -0.2824 -0.0295  0.3492
  449MOL0     C60518   5.211  10.682   3.239 -1.3125  0.5032 -0.6961
  449MOL0     C60519   5.177  10.680   3.387 -0.6685 -0.8056  0.4237
  449MOL0     C60520   5.169  10.533   3.438  0.9347  0.9979  0.1557
  449MOL0     C60521   5.158  10.535   3.594  0.3317  0.4265 -0.1211
  449MOL0     C60522   5.157  10.391   3.659  0.5917  0.0179 -0.0735
  449MOL0     C60523   5.242  10.383   3.786 -0.3758 -0.6820 -0.4713
  449MOL0     C60524   5.234  10.258   3.868 -0.6126  0.5299 -0.6490
  449MOL0    Cl60525   5.074  10.215   3.933 -0.2553 -0.1668 -0.2353
  449MOL0     C60526   5.662  10.614   3.333  0.2328 -0.2278  0.7654
  449MOL0     C60527   5.798  10.604   3.308 -0.1275  0.4305 -0.5970
  449MOL0     O60528   6.066  10.901   3.230 -0.4723 -0.2465  0.0154
  449MOL0     C60529   6.234  10.619   3.084  0.0568 -0.4467 -0.4827
  449MOL0     C60530   6.351  10.583   3.011  0.3237  0.5533  0.0930
  449MOL0     N60531   7.142  10.622   2.534 -0.1276 -0.8463 -0.5360
  449MOL0     N60532   7.229  10.712   2.511 -0.1761  0.2973  0.7912
  449MOL0     C60533   8.453  11.270   2.805  0.9087 -0.2203  0.2855
  449MOL0     C60534   8.580  11.245   2.768 -0.3274 -0.2391 -0.0069
  449MOL0     C60535   8.943  10.983   2.610 -0.0830  0.8147  0.3196
  449MOL0     C60536   9.017  10.861   2.607  0.8014  0.4809 -0.9035
  449MOL0     C60537   9.143  10.852   2.542  1.1256 -0.2899 -0.6831
  449MOL0     C60538   9.188  10.953   2.469 -0.6921 -0.7528 -0.5646
  449MOL0     O60539   9.316  10.943   2.409  0.0630 -0.6066 -0.6095
  449MOL0     C60540   9.341  11.044   2.310  0.7922  0.1382 -0.2282
  449MOL0     C60541   9.452  11.003   2.211  0.5185  0.6004  0.0517
  449MOL0     C60542   9.601  10.993   2.268  0.7715 -0.0945  0.3025
  449MOL0     C60543   9.653  11.138   2.288 -0.0481  0.0602  0.2305
  449MOL0     C60544   9.684  11.194   2.159  0.8951  0.4903  0.5416
  449MOL0     C60545   9.718  11.245   2.051 -0.2812 -0.5981 -1.2847
  449MOL0     C60546   9.118  11.079   2.481  0.4031 -0.3103  0.4130
  449MOL0     C60547   8.992  11.092   2.545 -0.1644 -0.3060 -0.7889
  449MOL0     H60548   8.544  10.904   2.694 -0.0221 -1.1451 -0.2813
  449MOL0     H60549   8.322  10.958   2.755  0.6819 -0.0751  0.8100
  449MOL0     H60550   8.118  11.067   2.687  1.1196  1.4650 -0.3952
  449MOL0     H60551   8.102  11.030   2.864  2.3483  0.1839  0.6676
  449MOL0     H60552   7.955  11.223   2.892 -0.5818  0.3679  1.1015
  449MOL0     H60553   7.971  11.249   2.716  0.9010  1.4752  1.8020
  449MOL0     H60554   7.880  11.005   2.872  4.3062  0.5298 -0.0593
  449MOL0     H60555   7.765  11.120   2.822 -1.6275 -0.6055 -2.1229
  449MOL0     H60556   7.834  11.073   2.583  0.2366  0.4139 -0.0829
  449MOL0     H60557   7.939  10.939   2.650  0.1748  1.0836  0.7540
  449MOL0     H60558   7.744  10.823   2.591  1.8507  1.5100 -2.1355
  449MOL0     H60559   7.736  10.842   2.765  2.0445  1.4204  0.8456
  449MOL0     H60560   7.556  11.011   2.737  1.5384 -0.4426  1.4669
  449MOL0     H60561   7.612  11.025   2.557  0.4117 -1.2027 -0.1016
  449MOL0     H60562   7.494  10.805   2.509 -1.0707 -2.2029 -0.4336
  449MOL0     H60563   7.510  10.767   2.682  0.8607 -0.0565 -0.1843
  449MOL0     H60564   7.331  10.959   2.533  0.9113 -0.1681 -0.0697
  449MOL0     H60565   7.344  10.959   2.714 -2.8483  0.0220 -0.1847
  449MOL0     H60566   7.180  10.775   2.817 -4.2788 -1.5758 -0.1502
  449MOL0     H60567   6.966  10.478   2.652 -1.1265 -0.0185  0.5003
  449MOL0     H60568   7.023  10.504   2.810 -3.1992 -0.7688 -0.5361
  449MOL0     H60569   6.853  10.695   2.656  1.7207  1.2573  1.1228
  449MOL0     H60570   6.921  10.726   2.826 -0.5658  1.3405  0.7592
  449MOL0     H60571   6.794  10.513   2.897 -1.7791 -1.9638 -0.8907
  449MOL0     H60572   6.710  10.523   2.750 -1.5586  0.8219 -0.4363
  449MOL0     H60573   6.621  10.767   2.810 -0.8667  0.4256  0.2558
  449MOL0     H60574   6.675  10.718   2.982  1.5816 -3.9102  0.6729
  449MOL0     H60575   6.463  10.902   2.942  2.6636 -1.4325  0.9707
  449MOL0     H60576   6.183  11.042   3.006 -0.9900 -1.1205  0.6817
  449MOL0     H60577   6.268  11.039   3.167 -3.3083 -0.1501  0.1569
  449MOL0     H60578   6.349  11.068   3.013 -1.1475  0.5827 -0.9017
  449MOL0     H60579   5.829  10.885   3.125 -1.4183  0.5673 -1.3905
  449MOL0     H60580   5.571  10.895   3.186  0.3645 -0.1720  1.7045
  449MOL0     H60581   5.392  10.666   3.120 -2.8680  0.5409 -0.4992
  449MOL0     H60582   5.379  10.540   3.242 -0.7313 -0.0861  0.5517
  449MOL0     H60583   5.196  10.785   3.205 -0.0775  0.8027 -0.3878
  449MOL0     H60584   5.144  10.618   3.181  0.1587 -1.2936 -0.4909
  449MOL0     H60585   5.081  10.728   3.407 -0.1686  0.7906 -0.7597
  449MOL0     H60586   5.245  10.749   3.438  0.2622  0.6543 -2.5795
  449MOL0     H60587   5.087  10.480   3.389  3.3101 -1.2336 -1.6905
  449MOL0     H60588   5.258  10.475   3.411  0.9005 -0.3504  2.6489
  449MOL0     H60589   5.067  10.593   3.610 -0.8126 -1.1056 -0.7341
  449MOL0     H60590   5.246  10.591   3.624  1.9683 -0.3833 -2.9693
  449MOL0     H60591   5.053  10.359   3.670  0.3958  1.1733  2.0435
  449MOL0     H60592   5.201  10.324   3.585 -0.4666  0.5186 -1.1859
  449MOL0     H60593   5.202  10.463   3.850 -0.7685  0.0137 -1.5544
  449MOL0     H60594   5.347  10.404   3.763  0.0509 -1.1756  0.9095
  449MOL0     H60595   5.302  10.272   3.953 -0.3286 -0.0829 -0.7707
  449MOL0     H60596   5.266  10.168   3.815 -1.6661 -1.3307  1.7429
  449MOL0     H60597   5.614  10.537   3.392  0.8523  0.3098  1.9971
  449MOL0     H60598   5.864  10.533   3.356 -4.0244 -3.6753 -0.6634
  449MOL0     H60599   6.164  10.538   3.100 -2.0682  1.5452  0.9907
  449MOL0     H60600   6.363  10.483   2.970 -2.4266  0.4295 -0.6499
  449MOL0     H60601   8.424  11.372   2.826 -3.9368 -1.4003  0.6547
  449MOL0     H60602   8.655  11.323   2.757 -1.9695  1.7531  2.0058
  449MOL0     H60603   8.971  10.772   2.649  2.1809  0.2598  0.2253
  449MOL0     H60604   9.187  10.753   2.535  0.9093 -0.3560 -1.1648
  449MOL0     H60605   9.245  11.051   2.257 -0.5911  0.8114  2.2188
  449MOL0     H60606   9.374  11.136   2.359  1.6202 -0.6020  0.6307
  449MOL0     H60607   9.457  11.076   2.130 -2.7766  0.2130 -0.6674
  449MOL0     H60608   9.420  10.906   2.170 -2.1319  1.8153 -1.0101
  449MOL0     H60609   9.667  10.933   2.205  0.7807  0.4207 -0.1882
  449MOL0     H60610   9.584  10.947   2.366 -1.5074  0.5003  0.2486
  449MOL0     H60611   9.745  11.137   2.347  2.5690  1.2927 -3.4752
  449MOL0     H60612   9.574  11.198   2.333  0.0257  0.9018 -0.7308
  449MOL0     H60613   9.764  11.283   1.962 -0.8554  2.6296 -0.3247
  449MOL0     H60614   9.157  11.166   2.428 -2.4219 -0.1676 -1.6108
  449MOL0     H60615   8.923  11.175   2.537 -2.8368 -1.6226  4.2886
  450MOL0     O60616   5.870   7.131   1.937 -0.5787 -0.6824 -0.3744
  450MOL0     C60617   5.851   7.008   1.949  0.7909 -0.4748  0.3011
  450MOL0     O60618   5.726   6.942   1.942  0.2118  0.2309  0.1181
  450MOL0     C60619   5.608   7.011   1.902  0.9360 -0.1994 -0.1901
  450MOL0     C60620   5.497   6.931   1.923  0.8039  0.6397  0.7253
  450MOL0     C60621   5.367   6.976   1.886 -0.4397  0.4206  0.3537
  450MOL0     C60622   5.345   7.105   1.833 -0.1619  0.7209  0.0332
  450MOL0     O60623   5.233   7.146   1.775  0.0816 -0.2346 -0.8173
  450MOL0     C60624   5.114   7.137   1.857 -0.5857  0.3720 -0.1397
  450MOL0     C60625   4.985   7.167   1.774  0.5744 -0.6645  0.7878
  450MOL0     C60626   4.885   7.057   1.783 -0.0558 -0.0433 -0.0897
  450MOL0     C60627   4.838   7.022   1.929  0.8192  0.3148  0.3297
  450MOL0     C60628   4.738   6.902   1.937  0.2632  0.4781 -0.1067
  450MOL0     C60629   4.603   6.947   1.886 -0.1570  0.3635 -0.1414
  450MOL0     C60630   4.503   6.831   1.924 -0.5170 -0.0897 -0.6176
  450MOL0     C60631   4.363   6.889   1.934  1.2213 -0.4801 -0.1095
  450MOL0     N60632   4.253   6.799   1.919  0.3440  0.4109  0.0588
  450MOL0     C60633   4.217   6.743   1.793  0.0919  0.2544 -0.2356
  450MOL0     C60634   4.099   6.670   1.819 -0.4772 -0.0666 -0.6409
  450MOL0     C60635   4.033   6.573   1.724  0.2336  0.1209  0.4274
  450MOL0     C60636   4.081   6.429   1.740  0.2269 -0.3041  0.1895
  450MOL0     C60637   3.990   6.330   1.664  0.9305  0.3832 -0.1046
  450MOL0     C60638   4.009   6.343   1.520 -0.2791 -0.2741  0.4253
  450MOL0     O60639   4.152   6.322   1.490  0.0921 -0.0803  0.3758
  450MOL0     C60640   4.165   6.242   1.374 -0.1913 -0.2535 -0.6966
  450MOL0     C60641   4.254   6.136   1.376 -0.4320 -0.0229  0.4259
  450MOL0     C60642   4.272   6.054   1.261 -0.3596  0.7191  0.6443
  450MOL0     C60643   4.365   5.932   1.289  0.0821 -0.2149  0.6175
  450MOL0     C60644   4.193   6.079   1.145  0.0939 -0.2564 -0.0822
  450MOL0     C60645   4.207   6.002   1.027  0.1150 -0.1888  0.4742
  450MOL0     O60646   4.092   5.979   0.951  1.1331 -0.4375 -0.1897
  450MOL0     C60647   4.098   5.918   0.828  0.3087 -1.1231 -0.2749
  450MOL0     C60648   4.208   5.931   0.740 -0.4280  0.3278 -0.1498
  450MOL0     C60649   4.200   5.883   0.610 -1.1565 -1.2785  0.2475
  450MOL0     C60650   4.090   5.815   0.567  0.7148  0.2883  0.0162
  450MOL0     O60651   4.099   5.756   0.439 -0.6438 -0.3525 -0.2741
  450MOL0     C60652   3.989   5.673   0.389 -0.9741 -0.6243 -0.3399
  450MOL0     C60653   4.013   5.647   0.238  0.3820 -0.3644 -0.5924
  450MOL0     C60654   4.082   5.762   0.169 -0.4603  1.3610  0.5294
  450MOL0     C60655   4.086   5.728   0.019 -0.6105  0.1940  0.3875
  450MOL0     C60656   4.142   5.836  -0.071  0.0584 -0.0432 -0.0063
  450MOL0     C60657   4.104   5.797  -0.210  0.0244 -0.7073  0.0521
  450MOL0     C60658   4.148   5.903  -0.312 -0.5773  0.3159 -0.5621
  450MOL0     C60659   4.108   5.867  -0.454  0.3172 -0.7894  0.5627
  450MOL0    Cl60660   4.195   5.717  -0.518  0.2066  0.1335  0.1293
  450MOL0     C60661   3.975   5.804   0.648  0.2567  0.0487 -0.4486
  450MOL0     C60662   3.986   5.855   0.780 -0.1725 -0.6491 -0.3438
  450MOL0     O60663   4.320   5.958   1.003  0.0289 -0.0207 -0.0579
  450MOL0     C60664   4.103   6.187   1.147  0.1090 -0.4114 -0.1703
  450MOL0     C60665   4.096   6.264   1.260  0.6140  0.1382 -0.1543
  450MOL0     N60666   4.067   6.674   1.958 -0.0722 -0.2988  1.0196
  450MOL0     N60667   4.160   6.747   2.014  0.4985 -0.2629  0.1495
  450MOL0     C60668   5.457   7.186   1.811 -0.0441 -0.2970  1.3227
  450MOL0     C60669   5.583   7.138   1.847  0.4250  0.2794 -0.7377
  450MOL0     C60670   5.966   6.926   1.985 -0.1279  0.3616 -0.8825
  450MOL0     C60671   6.106   6.974   1.966  0.5909 -0.9866  1.2026
  450MOL0     C60672   6.210   6.889   2.000  0.0652  0.0473  0.0084
  450MOL0     C60673   6.181   6.763   2.062 -0.6159  1.1997 -0.3200
  450MOL0     O60674   6.283   6.682   2.108 -0.4783  0.4167 -0.6638
  450MOL0     C60675   6.404   6.752   2.158  0.1705  0.2535 -0.2756
  450MOL0     C60676   6.486   6.659   2.252  0.5151 -0.1620 -0.0645
  450MOL0     C60677   6.530   6.523   2.218 -0.1480 -0.4867 -0.0839
  450MOL0     C60678   6.623   6.520   2.091 -0.4416  0.6174 -0.9564
  450MOL0     C60679   6.746   6.592   2.126  0.4464  0.9752 -0.9008
  450MOL0     C60680   6.851   6.647   2.133 -0.3080 -0.0503  0.9190
  450MOL0     C60681   6.049   6.713   2.068 -0.0002  0.1146  0.0251
  450MOL0     C60682   5.944   6.795   2.038 -0.1313  0.1788  1.2140
  450MOL0     H60683   5.512   6.827   1.950  1.2210  0.7859  1.0841
  450MOL0     H60684   5.280   6.912   1.891 -0.7460  0.6835 -1.1615
  450MOL0     H60685   5.098   7.039   1.902 -3.8900  0.7165 -0.2938
  450MOL0     H60686   5.127   7.205   1.941  1.6014 -0.4070  0.2075
  450MOL0     H60687   4.932   7.259   1.798 -0.7329 -1.7778  2.4226
  450MOL0     H60688   5.018   7.173   1.670  1.0313 -3.0982  0.7221
  450MOL0     H60689   4.799   7.094   1.727  0.0608  1.5679  0.7568
  450MOL0     H60690   4.917   6.965   1.733  1.1300  0.5144 -0.3850
  450MOL0     H60691   4.919   6.985   1.993 -1.0645 -3.1250  0.9864
  450MOL0     H60692   4.790   7.101   1.988 -0.8037  0.0183 -0.5341
  450MOL0     H60693   4.776   6.810   1.891 -1.1745 -0.5719  0.7249
  450MOL0     H60694   4.746   6.867   2.040  1.2233 -3.6243 -1.3632
  450MOL0     H60695   4.580   7.038   1.942  1.0337 -0.6709  2.1399
  450MOL0     H60696   4.589   6.963   1.778 -0.4780 -2.3785 -0.5905
  450MOL0     H60697   4.496   6.749   1.852  0.3725  0.1089 -0.9432
  450MOL0     H60698   4.539   6.774   2.011 -1.4904 -1.3820 -1.0392
  450MOL0     H60699   4.347   6.971   1.864 -0.7839  0.4766  1.3554
  450MOL0     H60700   4.340   6.934   2.031  0.2536 -1.3583  0.0832
  450MOL0     H60701   4.272   6.744   1.699  1.3582 -0.8557  0.4665
  450MOL0     H60702   3.927   6.582   1.753  1.4900  1.2087  5.6496
  450MOL0     H60703   4.050   6.596   1.618 -1.1626 -1.2844 -0.1413
  450MOL0     H60704   4.060   6.403   1.844  1.6573  0.1584  0.6215
  450MOL0     H60705   4.189   6.416   1.727  0.4481 -0.4970  1.9636
  450MOL0     H60706   3.882   6.335   1.684  0.8563  2.2693 -0.7224
  450MOL0     H60707   4.022   6.229   1.688  1.8202  0.7755  0.4007
  450MOL0     H60708   3.974   6.440   1.482  1.0622 -0.1212 -0.5059
  450MOL0     H60709   3.952   6.264   1.470  0.8934 -2.0352  1.7655
  450MOL0     H60710   4.302   6.117   1.471 -1.5255 -0.9463  0.8165
  450MOL0     H60711   4.472   5.950   1.276  1.4238 -5.6552  1.6130
  450MOL0     H60712   4.346   5.898   1.392 -0.1961 -1.3790  0.1967
  450MOL0     H60713   4.332   5.851   1.224  2.1047 -0.2459 -0.4401
  450MOL0     H60714   4.299   5.987   0.759  0.7817 -2.2274  2.2148
  450MOL0     H60715   4.288   5.878   0.546 -1.5096  0.1649 -0.3933
  450MOL0     H60716   3.966   5.580   0.442 -1.3822  0.8347  2.1904
  450MOL0     H60717   3.895   5.728   0.391 -2.4595 -2.9823  2.6639
  450MOL0     H60718   4.090   5.569   0.226 -0.1662 -1.0400  0.1820
  450MOL0     H60719   3.918   5.611   0.198  1.2450 -3.0699 -0.4266
  450MOL0     H60720   4.186   5.779   0.196 -0.1843 -1.3507  1.4369
  450MOL0     H60721   4.024   5.853   0.186  0.9369  2.2368  0.7191
  450MOL0     H60722   4.153   5.643   0.003 -1.2786 -0.2722  0.0415
  450MOL0     H60723   3.989   5.692  -0.015 -0.6154 -0.0728  0.6770
  450MOL0     H60724   4.250   5.839  -0.055 -0.2400  3.0365  2.4615
  450MOL0     H60725   4.105   5.934  -0.037 -1.1506  0.4862 -2.6245
  450MOL0     H60726   4.151   5.701  -0.233  0.4747 -0.3462 -0.5608
  450MOL0     H60727   3.996   5.779  -0.209  0.3546 -3.0194  1.5705
  450MOL0     H60728   4.257   5.915  -0.305 -0.7180  1.3071 -0.0415
  450MOL0     H60729   4.089   5.986  -0.274 -0.6611 -0.3410  0.8002
  450MOL0     H60730   4.118   5.951  -0.523 -4.6794 -0.6473 -0.3743
  450MOL0     H60731   4.001   5.845  -0.452 -0.0842  1.0326  0.6200
  450MOL0     H60732   3.876   5.770   0.616  0.5207  1.0981 -2.5438
  450MOL0     H60733   3.901   5.823   0.840 -1.2502 -0.8417 -1.9172
  450MOL0     H60734   4.045   6.215   1.060  0.6383 -1.3064 -0.8249
  450MOL0     H60735   4.027   6.347   1.249 -0.2735 -0.7228 -1.3723
  450MOL0     H60736   5.442   7.289   1.782 -0.6763 -0.2069  1.9219
  450MOL0     H60737   5.668   7.206   1.837  0.8662 -0.4194 -2.0512
  450MOL0     H60738   6.124   7.075   1.933 -0.0036 -2.1549 -3.2825
  450MOL0     H60739   6.310   6.926   1.982 -0.6017  1.2080 -1.5290
  450MOL0     H60740   6.468   6.795   2.079  0.0111  2.0265  0.4996
  450MOL0     H60741   6.376   6.834   2.224  1.0111  0.4945 -0.1967
  450MOL0     H60742   6.416   6.659   2.337  0.4223 -0.4082 -0.1420
  450MOL0     H60743   6.577   6.708   2.286  0.6510 -0.8827  0.6349
  450MOL0     H60744   6.440   6.466   2.192 -0.9007  0.4204  0.4528
  450MOL0     H60745   6.570   6.484   2.312  0.9686 -0.8105 -0.6749
  450MOL0     H60746   6.580   6.558   1.998 -1.2805  1.7105 -0.1492
  450MOL0     H60747   6.651   6.416   2.074 -3.0969 -0.7743  2.1553
  450MOL0     H60748   6.945   6.697   2.122 -2.3216  3.6482 -1.5074
  450MOL0     H60749   6.025   6.617   2.114 -1.2634 -0.4129 -1.6260
  450MOL0     H60750   5.844   6.763   2.064 -0.4055 -0.3523 -0.3858
  451MOL0     O60751   4.558   9.479   5.455 -0.6133 -0.3894 -0.0449
  451MOL0     C60752   4.577   9.399   5.545  0.3567  0.1341 -0.1097
  451MOL0     O60753   4.511   9.288   5.578 -0.1734  1.3083  0.4024
  451MOL0     C60754   4.434   9.207   5.495  0.3029 -0.7569  0.0240
  451MOL0     C60755   4.454   9.208   5.355 -0.1323 -0.3336 -0.2651
  451MOL0     C60756   4.375   9.128   5.274  0.3788 -0.5877  0.2418
  451MOL0     C60757   4.283   9.043   5.328  0.0145  0.7649 -0.0062
  451MOL0     O60758   4.216   8.955   5.243  0.4196  0.4339  0.0341
  451MOL0     C60759   4.121   9.021   5.155 -0.6057 -0.9683  0.9380
  451MOL0     C60760   4.027   8.913   5.112  0.0944  0.9362  0.5564
  451MOL0     C60761   3.941   8.940   4.992  0.7395 -0.0721 -0.4313
  451MOL0     C60762   3.819   9.021   5.037 -0.3319  0.0151  0.5176
  451MOL0     C60763   3.740   9.091   4.927 -0.0435  0.0039  0.9043
  451MOL0     C60764   3.713   8.994   4.807  0.0089  0.5734  0.8313
  451MOL0     C60765   3.594   9.042   4.724 -0.3669  0.8477 -0.7056
  451MOL0     C60766   3.586   8.999   4.574 -0.9227  0.4745  0.7584
  451MOL0     N60767   3.637   8.865   4.568 -0.1677 -0.4068  0.4638
  451MOL0     C60768   3.564   8.752   4.602 -0.2201  0.4855  0.8618
  451MOL0     C60769   3.648   8.645   4.591  0.6770  0.3631 -0.2904
  451MOL0     C60770   3.599   8.504   4.608 -0.2344 -0.9282 -0.3723
  451MOL0     C60771   3.683   8.418   4.710  0.6455  0.7352 -0.0354
  451MOL0     C60772   3.625   8.452   4.851 -0.1199 -0.1288  0.2032
  451MOL0     C60773   3.692   8.578   4.913 -0.2447  0.6490  0.1740
  451MOL0     O60774   3.667   8.604   5.048  0.2150 -0.6178 -0.0440
  451MOL0     C60775   3.536   8.609   5.091  0.1908 -0.0934  0.6875
  451MOL0     C60776   3.494   8.545   5.214 -0.1465 -0.0303 -0.3884
  451MOL0     C60777   3.357   8.539   5.250 -0.0022  0.5314  0.0528
  451MOL0     C60778   3.316   8.457   5.371 -0.0784 -0.4100  1.2542
  451MOL0     C60779   3.264   8.611   5.171  0.6425  0.2410 -0.4682
  451MOL0     C60780   3.119   8.612   5.202 -0.4437  0.0696 -0.0495
  451MOL0     O60781   3.083   8.646   5.323 -0.5875 -0.0648  0.2654
  451MOL0     C60782   2.951   8.638   5.352 -0.3318  0.3938  0.5025
  451MOL0     C60783   2.912   8.555   5.449  0.4132 -0.0913  0.8324
  451MOL0     C60784   2.775   8.556   5.488  0.5290  0.2218 -0.5875
  451MOL0     C60785   2.677   8.627   5.412 -0.1051  0.0597  0.1480
  451MOL0     O60786   2.541   8.603   5.441 -0.3859 -0.0541 -0.7955
  451MOL0     C60787   2.485   8.524   5.333 -0.2172 -0.0072 -0.3701
  451MOL0     C60788   2.386   8.424   5.393 -0.9440  0.3182  0.4016
  451MOL0     C60789   2.461   8.309   5.456 -0.6192 -0.2144  0.3054
  451MOL0     C60790   2.364   8.196   5.502  0.9181 -0.5788 -0.1557
  451MOL0     C60791   2.425   8.084   5.573 -1.3828  0.6103 -0.6393
  451MOL0     C60792   2.530   8.009   5.496  0.5215  0.0266  0.4094
  451MOL0     C60793   2.463   7.959   5.362  0.5799 -0.5111 -0.6208
  451MOL0     C60794   2.528   7.838   5.306 -0.4220 -0.0276  0.1566
  451MOL0    Cl60795   2.485   7.701   5.410  0.4888 -0.2393  0.3478
  451MOL0     C60796   2.725   8.710   5.313  0.2202  0.6470 -0.0872
  451MOL0     C60797   2.860   8.721   5.283 -0.2568  0.7235 -0.4988
  451MOL0     O60798   3.047   8.590   5.106  0.1364  0.8968  0.1062
  451MOL0     C60799   3.311   8.672   5.052 -0.7012  0.3900  0.2892
  451MOL0     C60800   3.448   8.672   5.019 -0.3647  0.7642  0.9760
  451MOL0     N60801   3.776   8.698   4.555 -0.9238  0.3959  0.3256
  451MOL0     N60802   3.761   8.827   4.525 -0.4881 -0.1584  0.3987
  451MOL0     C60803   4.269   9.023   5.469 -0.1666  0.3396 -0.2899
  451MOL0     C60804   4.348   9.106   5.550  0.5070 -0.5298 -0.1719
  451MOL0     C60805   4.691   9.440   5.639 -0.1932  0.7666 -1.1059
  451MOL0     C60806   4.724   9.370   5.753  0.0562 -0.1006  0.5880
  451MOL0     C60807   4.819   9.426   5.839  0.4850 -0.0825 -0.0026
  451MOL0     C60808   4.895   9.531   5.798  0.2931  0.1974  0.2682
  451MOL0     O60809   5.003   9.582   5.863  0.1239 -0.0947  0.7153
  451MOL0     C60810   5.031   9.543   5.993  0.2797 -0.3062  0.0139
  451MOL0     C60811   5.174   9.562   6.039 -0.0528 -0.3658  0.2695
  451MOL0     C60812   5.273   9.507   5.935  0.0412  0.5776  0.3610
  451MOL0     C60813   5.331   9.619   5.847 -0.1325 -0.1356  0.5016
  451MOL0     C60814   5.440   9.576   5.760  0.1377  0.4419  0.8855
  451MOL0     C60815   5.543   9.548   5.697 -0.1964 -0.5067 -0.0682
  451MOL0     C60816   4.858   9.604   5.688  0.3682 -0.9158 -0.1446
  451MOL0     C60817   4.748   9.565   5.612 -0.3296 -0.9524 -0.7483
  451MOL0     H60818   4.535   9.268   5.315  0.7918 -0.5858  1.1219
  451MOL0     H60819   4.385   9.135   5.166  1.9877 -0.1277  0.4033
  451MOL0     H60820   4.069   9.106   5.200  0.5729  0.1770  0.2282
  451MOL0     H60821   4.181   9.067   5.076 -0.4307  0.9710  2.1298
  451MOL0     H60822   4.083   8.825   5.081 -1.5951 -0.3738  1.0730
  451MOL0     H60823   3.965   8.891   5.199  0.5155 -1.1936  0.3732
  451MOL0     H60824   4.008   8.983   4.916  3.0467 -1.1452  0.9047
  451MOL0     H60825   3.904   8.845   4.952  0.3136  0.4197 -1.2469
  451MOL0     H60826   3.759   8.941   5.081 -1.4974  0.2976 -0.4953
  451MOL0     H60827   3.844   9.091   5.117 -2.1954 -0.9556  2.0303
  451MOL0     H60828   3.648   9.123   4.978 -0.5072  0.1072  0.0273
  451MOL0     H60829   3.785   9.187   4.901 -0.3229  0.1739  1.0392
  451MOL0     H60830   3.803   9.006   4.746  1.1146 -0.7390  2.1196
  451MOL0     H60831   3.713   8.887   4.832 -1.0706 -0.0688 -1.6542
  451MOL0     H60832   3.500   9.004   4.767  0.3161 -0.2368 -0.1082
  451MOL0     H60833   3.585   9.151   4.731  0.3387  0.8827 -0.3036
  451MOL0     H60834   3.641   9.068   4.510 -0.9385  0.1505  0.3888
  451MOL0     H60835   3.482   9.002   4.538  0.3961 -0.3144 -3.7905
  451MOL0     H60836   3.457   8.747   4.613 -0.4174 -2.6468 -0.9863
  451MOL0     H60837   3.496   8.494   4.642 -0.3162 -2.1336 -0.9353
  451MOL0     H60838   3.603   8.459   4.508  2.7045 -0.8810 -0.3559
  451MOL0     H60839   3.791   8.435   4.707  0.8458 -0.5180 -2.1928
  451MOL0     H60840   3.679   8.313   4.680 -1.6977  1.2561 -1.8981
  451MOL0     H60841   3.650   8.374   4.924 -0.5700 -1.5778 -1.1350
  451MOL0     H60842   3.516   8.463   4.853 -0.3734 -2.3336  1.3826
  451MOL0     H60843   3.659   8.663   4.853  0.9371  1.3216  0.4346
  451MOL0     H60844   3.799   8.579   4.891 -0.2151 -1.4305  0.0145
  451MOL0     H60845   3.571   8.494   5.271 -1.3069 -0.1133  1.1682
  451MOL0     H60846   3.257   8.372   5.334  1.3862 -1.4393  1.1793
  451MOL0     H60847   3.410   8.414   5.407  0.2966  0.1710  0.9807
  451MOL0     H60848   3.272   8.517   5.451  0.3466 -1.1205  2.0480
  451MOL0     H60849   2.986   8.490   5.496 -1.5066 -1.6531  1.8327
  451MOL0     H60850   2.737   8.485   5.561 -0.0613 -0.2588 -1.3488
  451MOL0     H60851   2.433   8.593   5.266  0.4767  0.7640 -0.1312
  451MOL0     H60852   2.557   8.472   5.269  3.3068  3.7200  0.1501
  451MOL0     H60853   2.309   8.478   5.448 -0.6515  1.6824 -0.4786
  451MOL0     H60854   2.334   8.390   5.303 -2.1516  1.0133  0.8119
  451MOL0     H60855   2.517   8.363   5.533 -3.3352  1.0867  1.5101
  451MOL0     H60856   2.541   8.275   5.389 -0.2057  0.5656  0.4007
  451MOL0     H60857   2.302   8.250   5.575  1.6887  0.4359 -0.2276
  451MOL0     H60858   2.300   8.161   5.421 -0.6994  1.4143  0.1630
  451MOL0     H60859   2.337   8.024   5.599 -0.1798 -0.4363  1.2044
  451MOL0     H60860   2.469   8.114   5.668  0.0429  4.8773 -2.3696
  451MOL0     H60861   2.620   8.070   5.481  0.2029  0.4166  0.0941
  451MOL0     H60862   2.555   7.926   5.563  1.8870 -0.4063 -0.5902
  451MOL0     H60863   2.475   8.028   5.278  0.3725 -0.4997 -0.6427
  451MOL0     H60864   2.357   7.946   5.385  0.2664 -1.4880 -2.5161
  451MOL0     H60865   2.637   7.850   5.307 -0.2086 -1.4607  2.5362
  451MOL0     H60866   2.505   7.811   5.202  2.8126  0.6850 -0.8788
  451MOL0     H60867   2.652   8.778   5.270  0.9626  1.9641  0.6777
  451MOL0     H60868   2.896   8.798   5.215 -1.2235  0.2943 -1.5251
  451MOL0     H60869   3.241   8.717   4.982 -1.3734 -2.3850 -0.9678
  451MOL0     H60870   3.483   8.717   4.927  3.8827 -0.8156  1.6133
  451MOL0     H60871   4.199   8.950   5.509 -0.8893  2.0606  1.7886
  451MOL0     H60872   4.353   9.099   5.659 -1.6802 -2.4715 -0.1005
  451MOL0     H60873   4.679   9.271   5.761 -0.7249  0.3369  2.0964
  451MOL0     H60874   4.841   9.370   5.929  3.1640 -0.0523 -0.5397
  451MOL0     H60875   4.967   9.604   6.057  2.1744  1.1347  0.6419
  451MOL0     H60876   5.003   9.438   6.000 -1.0997 -0.0268 -0.8578
  451MOL0     H60877   5.181   9.494   6.124 -1.8536 -0.5676  0.2889
  451MOL0     H60878   5.207   9.664   6.060  0.8966 -0.2493 -1.5548
  451MOL0     H60879   5.229   9.420   5.884  0.1295 -0.9573  2.7645
  451MOL0     H60880   5.359   9.460   5.983 -2.0130 -2.4844  1.3589
  451MOL0     H60881   5.373   9.689   5.920 -0.1901 -2.0171  2.4295
  451MOL0     H60882   5.257   9.660   5.777 -0.0392  2.6640  1.8837
  451MOL0     H60883   5.626   9.514   5.639  2.0213  4.4191 -0.2865
  451MOL0     H60884   4.911   9.695   5.663  1.9540 -1.9807 -0.7943
  451MOL0     H60885   4.707   9.635   5.541  0.9426  2.8091  1.9016
  452MOL0     O60886  11.302   1.084   5.825  0.2017  0.2059 -0.2733
  452MOL0     C60887  11.242   1.138   5.733  0.0028  0.1974  1.0539
  452MOL0     O60888  11.294   1.228   5.652 -0.1879 -0.3481  0.3629
  452MOL0     C60889  11.432   1.267   5.674 -0.8258  0.5665 -1.1315
  452MOL0     C60890  11.453   1.400   5.677 -0.7226  0.5636  0.2931
  452MOL0     C60891  11.583   1.452   5.688  0.4350 -0.2554 -0.5596
  452MOL0     C60892  11.698   1.371   5.698 -1.0520 -0.1734  0.2466
  452MOL0     O60893  11.817   1.434   5.696 -0.5299 -0.8296 -0.2027
  452MOL0     C60894  11.935   1.342   5.691  0.5323 -0.0605 -0.6405
  452MOL0     C60895  12.061   1.419   5.649  0.3041  1.3165  0.2646
  452MOL0     C60896  12.176   1.314   5.626  0.5217 -0.4253  0.2583
  452MOL0     C60897  12.308   1.362   5.570  1.2643  0.3139  1.0498
  452MOL0     C60898  12.417   1.254   5.595  0.6965  0.0306  0.2970
  452MOL0     C60899  12.557   1.304   5.543 -0.3246  0.1241  0.7181
  452MOL0     C60900  12.664   1.201   5.572  0.0105  0.5832  1.1334
  452MOL0     C60901  12.807   1.224   5.514  0.5723  0.0221 -0.9364
  452MOL0     N60902  12.906   1.125   5.564 -0.2499 -0.0168  0.3791
  452MOL0     C60903  12.981   1.046   5.472  0.4528 -0.0443  0.2380
  452MOL0     C60904  13.103   1.024   5.526 -1.0587 -0.3593  0.3556
  452MOL0     C60905  13.227   0.965   5.457  0.3662 -0.0594 -0.6891
  452MOL0     C60906  13.258   1.040   5.335 -0.4677 -0.8657  0.2971
  452MOL0     C60907  13.262   1.195   5.349  0.8306 -0.0984 -1.2818
  452MOL0     C60908  13.244   1.273   5.219 -0.0470 -0.3895  0.3068
  452MOL0     O60909  13.111   1.257   5.170 -0.4270 -1.2047 -0.1713
  452MOL0     C60910  13.007   1.338   5.215 -0.7015 -0.3475  0.1371
  452MOL0     C60911  12.883   1.330   5.156 -0.4119  0.5108  0.5640
  452MOL0     C60912  12.772   1.403   5.195 -0.9116 -1.4975  0.5718
  452MOL0     C60913  12.642   1.375   5.117 -0.6601  0.0257 -0.5692
  452MOL0     C60914  12.777   1.499   5.301  0.1775  0.1406  0.0229
  452MOL0     C60915  12.668   1.579   5.350 -0.4037 -0.2867 -0.4710
  452MOL0     O60916  12.695   1.648   5.463  0.2782  0.1550  0.6223
  452MOL0     C60917  12.595   1.728   5.527  0.2860 -0.1152 -0.2146
  452MOL0     C60918  12.637   1.825   5.625 -1.2780 -0.3875 -0.5523
  452MOL0     C60919  12.550   1.900   5.700  0.4374  0.9139  0.5154
  452MOL0     C60920  12.411   1.892   5.669  0.3797 -0.4830 -0.4186
  452MOL0     O60921  12.314   1.969   5.726 -0.1142  0.0164  0.8345
  452MOL0     C60922  12.354   2.098   5.764  0.0926 -0.9021 -0.6461
  452MOL0     C60923  12.237   2.204   5.765 -1.2485  0.7266  0.2456
  452MOL0     C60924  12.162   2.201   5.635 -0.0840 -1.0173  0.6560
  452MOL0     C60925  12.038   2.288   5.639  0.2033 -1.3057 -0.7126
  452MOL0     C60926  11.956   2.288   5.503  0.2352 -0.4538 -0.6114
  452MOL0     C60927  11.836   2.388   5.496 -0.3826 -0.8518  0.6046
  452MOL0     C60928  11.728   2.320   5.577 -0.0306 -0.2426  0.4226
  452MOL0     C60929  11.619   2.430   5.607  0.0918  0.0532 -0.0790
  452MOL0    Cl60930  11.549   2.497   5.457  0.5584 -0.4107 -0.2455
  452MOL0     C60931  12.366   1.798   5.579 -0.6176 -0.6938  0.0597
  452MOL0     C60932  12.453   1.717   5.512  0.1062  0.6703  0.5618
  452MOL0     O60933  12.572   1.598   5.272 -0.0724 -0.7345 -0.7424
  452MOL0     C60934  12.908   1.499   5.367  0.4263  0.6467 -0.3462
  452MOL0     C60935  13.017   1.417   5.327 -0.1290 -0.1223 -0.6208
  452MOL0     N60936  13.104   1.084   5.645 -0.2429  0.1348 -0.0133
  452MOL0     N60937  12.989   1.139   5.668 -0.0789  0.0565 -0.1276
  452MOL0     C60938  11.676   1.240   5.706 -0.0589  0.5607  0.2091
  452MOL0     C60939  11.547   1.185   5.706 -0.4530  0.1927 -0.1793
  452MOL0     C60940  11.093   1.121   5.716 -0.1666  0.5276  0.4600
  452MOL0     C60941  11.023   1.164   5.605  0.5298  0.0552  0.6696
  452MOL0     C60942  10.884   1.139   5.599 -0.5692  0.3143  0.0553
  452MOL0     C60943  10.816   1.073   5.696 -0.5072  0.0559 -0.3472
  452MOL0     O60944  10.680   1.056   5.673  0.5027 -0.0004 -0.1262
  452MOL0     C60945  10.629   0.932   5.729  0.6226 -0.8839  0.3105
  452MOL0     C60946  10.483   0.921   5.697 -0.3520 -0.5072 -0.1951
  452MOL0     C60947  10.409   1.008   5.791  0.5535  0.8496 -0.2641
  452MOL0     C60948  10.273   0.967   5.827 -0.3610 -0.1443 -0.0750
  452MOL0     C60949  10.273   0.863   5.930 -0.3072 -0.3421 -0.0691
  452MOL0     C60950  10.275   0.778   6.001  0.1965  0.4484 -0.5440
  452MOL0     C60951  10.893   1.026   5.805  0.4657  0.8071  0.2586
  452MOL0     C60952  11.031   1.050   5.814 -0.5162 -0.9510 -0.0529
  452MOL0     H60953  11.376   1.476   5.671  0.3325  1.9579  2.6983
  452MOL0     H60954  11.595   1.559   5.699  1.2268 -0.5205  1.5764
  452MOL0     H60955  11.937   1.280   5.781  0.0604  0.8328  0.0025
  452MOL0     H60956  11.922   1.273   5.607 -0.4300  0.5082 -0.9770
  452MOL0     H60957  12.030   1.471   5.557 -0.4081 -3.0340 -2.2037
  452MOL0     H60958  12.090   1.479   5.736  3.3782 -1.2351  1.1721
  452MOL0     H60959  12.200   1.289   5.730 -0.5914  0.1125  0.6607
  452MOL0     H60960  12.135   1.223   5.581 -1.8628  1.4100 -1.5254
  452MOL0     H60961  12.288   1.382   5.465 -3.4254  0.9025  1.8320
  452MOL0     H60962  12.335   1.461   5.609  1.8582  0.0849  1.2211
  452MOL0     H60963  12.410   1.224   5.700  1.1965  0.0651  0.3423
  452MOL0     H60964  12.390   1.177   5.522  3.3362  2.2548 -3.3608
  452MOL0     H60965  12.542   1.322   5.437 -1.2154  0.6455  0.9245
  452MOL0     H60966  12.602   1.389   5.596  2.4234 -1.8541  1.7964
  452MOL0     H60967  12.671   1.178   5.678  2.0891 -0.3641  0.8423
  452MOL0     H60968  12.627   1.116   5.514  1.3075 -0.4714  1.8150
  452MOL0     H60969  12.839   1.326   5.536 -1.3586  0.5736 -0.4922
  452MOL0     H60970  12.803   1.200   5.407  1.1385 -3.3560 -0.3271
  452MOL0     H60971  12.950   1.020   5.372 -0.4894  1.0218  0.2344
  452MOL0     H60972  13.307   0.980   5.529 -0.5012 -0.5427  0.4193
  452MOL0     H60973  13.219   0.858   5.433 -0.0545  0.4801 -3.2030
  452MOL0     H60974  13.185   0.998   5.265  2.4590 -3.4554 -1.4613
  452MOL0     H60975  13.349   1.005   5.287  1.5509  4.1052 -0.0923
  452MOL0     H60976  13.363   1.222   5.381  0.8512  1.1057 -2.2924
  452MOL0     H60977  13.188   1.228   5.423 -0.1737 -0.9862 -1.8563
  452MOL0     H60978  13.323   1.235   5.154  1.3168 -1.5421  2.4864
  452MOL0     H60979  13.259   1.380   5.236 -1.7847 -0.2581  1.2127
  452MOL0     H60980  12.877   1.267   5.068 -0.7384 -0.3099  1.1683
  452MOL0     H60981  12.663   1.299   5.041  1.5463 -0.3894  0.3676
  452MOL0     H60982  12.565   1.345   5.189 -0.3831  1.4075  0.3489
  452MOL0     H60983  12.621   1.469   5.065  0.1250  1.1930  1.1211
  452MOL0     H60984  12.744   1.832   5.641 -1.4928 -0.6669  1.1165
  452MOL0     H60985  12.581   1.958   5.786 -0.6519 -0.0704  1.6133
  452MOL0     H60986  12.412   2.088   5.857  0.5199 -1.1758 -0.9396
  452MOL0     H60987  12.430   2.137   5.697  3.1373 -2.9244  1.3297
  452MOL0     H60988  12.168   2.175   5.844 -0.4340  1.1630  1.1370
  452MOL0     H60989  12.284   2.301   5.784  2.4910 -0.9584  0.5096
  452MOL0     H60990  12.122   2.103   5.607  2.5349 -1.7042 -1.0976
  452MOL0     H60991  12.229   2.222   5.551 -0.0209 -3.2541  0.0733
  452MOL0     H60992  11.978   2.277   5.730 -1.2112 -1.9557 -1.6968
  452MOL0     H60993  12.090   2.383   5.652  2.2671 -2.7049  2.8371
  452MOL0     H60994  11.908   2.190   5.496 -4.4487  1.1765  2.9552
  452MOL0     H60995  12.020   2.303   5.416  2.1099 -0.8318  0.6313
  452MOL0     H60996  11.871   2.481   5.542  2.4657 -1.8186  0.5875
  452MOL0     H60997  11.810   2.418   5.394  1.0963  4.7180  1.5237
  452MOL0     H60998  11.764   2.285   5.674 -1.7471  0.0414  1.2089
  452MOL0     H60999  11.678   2.240   5.522  4.5959 -2.8157 -0.5104
  452MOL0     H61000  11.669   2.511   5.662  1.1878 -0.4793 -0.2570
  452MOL0     H61001  11.542   2.394   5.676  1.3537  0.1543  1.4545
  452MOL0     H61002  12.264   1.767   5.600  0.5162 -2.2292  4.2753
  452MOL0     H61003  12.402   1.643   5.452  0.0244  2.8111 -2.1877
  452MOL0     H61004  12.933   1.565   5.450  1.9538  1.1646 -1.1839
  452MOL0     H61005  13.103   1.435   5.391 -3.3852  1.7356  3.7709
  452MOL0     H61006  11.760   1.171   5.706 -0.5029 -0.0380 -1.7092
  452MOL0     H61007  11.546   1.077   5.713  0.2564  0.0679 -1.6761
  452MOL0     H61008  11.063   1.215   5.518  1.6239 -1.5697  0.1629
  452MOL0     H61009  10.843   1.175   5.505 -2.5798 -0.0058  0.7650
  452MOL0     H61010  10.682   0.851   5.679  2.1374 -0.3978  1.0737
  452MOL0     H61011  10.645   0.923   5.837 -2.4703 -0.6328  0.8853
  452MOL0     H61012  10.466   0.813   5.705 -2.3333 -0.0912  2.3867
  452MOL0     H61013  10.476   0.947   5.591 -0.5777  0.7561  0.1185
  452MOL0     H61014  10.395   1.108   5.749  0.2581  0.3197 -1.4709
  452MOL0     H61015  10.465   1.006   5.885 -1.6332 -1.8578  1.0902
  452MOL0     H61016  10.222   0.926   5.740  0.5494 -2.2686  0.3263
  452MOL0     H61017  10.209   1.050   5.858 -2.2643  0.4666 -4.8519
  452MOL0     H61018  10.267   0.694   6.068 -3.8225  1.1430  0.0836
  452MOL0     H61019  10.860   0.971   5.892  1.0518  0.2381  0.1327
  452MOL0     H61020  11.083   1.006   5.898 -0.4021  2.2585  1.7146
  453MOL0     O61021   2.640   7.612   1.715  0.0383  0.1373 -0.6764
  453MOL0     C61022   2.602   7.521   1.783 -0.9605  0.1753  0.0042
  453MOL0     O61023   2.514   7.428   1.737 -0.2804 -0.6133  0.2000
  453MOL0     C61024   2.500   7.434   1.600 -0.0826 -0.6033 -0.5733
  453MOL0     C61025   2.370   7.462   1.573  0.1746  0.4349 -0.3290
  453MOL0     C61026   2.327   7.480   1.442  0.4055  0.0074 -1.0842
  453MOL0     C61027   2.419   7.451   1.338  0.5793 -0.3884  0.4753
  453MOL0     O61028   2.357   7.455   1.215 -0.9423  0.0450  0.0714
  453MOL0     C61029   2.431   7.388   1.101 -0.1367 -0.3275 -0.2189
  453MOL0     C61030   2.360   7.400   0.962 -0.4352  0.0309  0.2975
  453MOL0     C61031   2.442   7.328   0.854  0.2933 -0.0268 -0.6541
  453MOL0     C61032   2.379   7.344   0.716 -0.1275 -0.5147 -0.3751
  453MOL0     C61033   2.439   7.239   0.620 -0.4873 -0.1945  0.0134
  453MOL0     C61034   2.454   7.300   0.477  1.2634  0.4799 -0.0026
  453MOL0     C61035   2.588   7.362   0.448  0.3894 -0.4287 -0.7598
  453MOL0     C61036   2.618   7.398   0.303  0.4047  0.2421  0.2821
  453MOL0     N61037   2.510   7.455   0.215 -0.1321  0.4659 -1.2348
  453MOL0     C61038   2.469   7.579   0.229 -0.9291 -0.3744  0.6436
  453MOL0     C61039   2.372   7.597   0.132  0.1967 -0.2691 -0.0714
  453MOL0     C61040   2.307   7.726   0.088 -0.0148 -1.6453 -0.4172
  453MOL0     C61041   2.154   7.723   0.083 -0.0499 -0.4170 -0.4122
  453MOL0     C61042   2.103   7.666  -0.046 -0.4330  0.2958  0.5296
  453MOL0     C61043   1.952   7.661  -0.067  0.0499  0.0837 -0.8599
  453MOL0     O61044   1.920   7.797  -0.119  0.1847 -0.0797  0.5152
  453MOL0     C61045   1.805   7.814  -0.197 -0.2738 -0.2934 -1.0150
  453MOL0     C61046   1.695   7.734  -0.185 -0.9266  0.1973 -0.6849
  453MOL0     C61047   1.574   7.760  -0.239  0.0871  0.3722  0.4816
  453MOL0     C61048   1.456   7.668  -0.199 -0.1264  0.4184 -1.2570
  453MOL0     C61049   1.568   7.869  -0.334 -0.2022  0.8617 -0.2679
  453MOL0     C61050   1.449   7.901  -0.408 -0.2382  0.1886 -0.5531
  453MOL0     O61051   1.426   8.031  -0.433 -1.0899 -0.5195 -0.1016
  453MOL0     C61052   1.321   8.076  -0.510  0.7083  0.3768  0.5899
  453MOL0     C61053   1.193   8.042  -0.476 -0.3532 -0.1432  0.3457
  453MOL0     C61054   1.081   8.093  -0.551 -0.1779 -0.3262 -0.2872
  453MOL0     C61055   1.100   8.176  -0.661 -0.3506 -1.1453  0.6908
  453MOL0     O61056   0.992   8.236  -0.721 -0.4390  0.0508  0.0196
  453MOL0     C61057   1.024   8.368  -0.783  0.4712  0.2743  0.3971
  453MOL0     C61058   0.902   8.438  -0.829  0.5005  0.7957  0.5590
  453MOL0     C61059   0.819   8.366  -0.941 -0.0330  0.3655  0.2283
  453MOL0     C61060   0.692   8.443  -0.971  0.1427 -0.2575 -0.8268
  453MOL0     C61061   0.617   8.378  -1.084 -0.0188  0.3263 -0.1350
  453MOL0     C61062   0.498   8.462  -1.126  0.4892 -0.0804 -0.2969
  453MOL0     C61063   0.394   8.494  -1.024 -0.5275  0.5309 -0.2431
  453MOL0     C61064   0.261   8.550  -1.055  0.4534  0.6128 -0.4764
  453MOL0    Cl61065   0.276   8.687  -1.173 -0.1698 -0.1158 -0.1872
  453MOL0     C61066   1.230   8.217  -0.682 -0.9640 -0.9858  0.5463
  453MOL0     C61067   1.344   8.172  -0.612  0.1661  0.3011  0.0447
  453MOL0     O61068   1.383   7.806  -0.454 -0.0653 -0.2971  0.5250
  453MOL0     C61069   1.681   7.952  -0.345 -0.1092 -0.0651 -0.2609
  453MOL0     C61070   1.795   7.932  -0.273 -0.0727  0.0659 -0.3529
  453MOL0     N61071   2.349   7.468   0.080  0.4769  0.1898  0.0581
  453MOL0     N61072   2.441   7.387   0.121 -0.4168  0.3376 -0.1985
  453MOL0     C61073   2.557   7.422   1.366 -0.0016  0.6755 -0.9272
  453MOL0     C61074   2.597   7.418   1.500 -0.7177  0.4766 -0.0209
  453MOL0     C61075   2.670   7.500   1.913  0.1640  0.5871 -1.0043
  453MOL0     C61076   2.672   7.376   1.981  0.3840  0.0540 -0.4949
  453MOL0     C61077   2.726   7.359   2.109 -0.3442 -0.0728 -0.4019
  453MOL0     C61078   2.787   7.469   2.179 -0.3299 -0.6581  0.4062
  453MOL0     O61079   2.858   7.431   2.286 -0.3362 -0.3552  0.0567
  453MOL0     C61080   2.877   7.532   2.385  0.6344  0.4256 -0.2873
  453MOL0     C61081   3.019   7.585   2.382 -0.0333 -0.2258 -0.7997
  453MOL0     C61082   3.035   7.734   2.410 -0.1256 -0.9654 -0.1103
  453MOL0     C61083   3.006   7.772   2.556  0.2888  0.0947  0.3145
  453MOL0     C61084   3.111   7.707   2.636 -0.4825 -0.0182 -0.6952
  453MOL0     C61085   3.213   7.686   2.704  1.3467  0.5920 -0.0961
  453MOL0     C61086   2.781   7.591   2.113 -0.4540 -0.5559  0.2723
  453MOL0     C61087   2.717   7.605   1.990 -0.0193 -0.1460  0.0181
  453MOL0     H61088   2.301   7.485   1.653 -1.6167 -0.2047 -1.6294
  453MOL0     H61089   2.227   7.517   1.426  0.3772  0.3688 -0.1127
  453MOL0     H61090   2.531   7.432   1.089 -1.3628  2.3046 -1.8324
  453MOL0     H61091   2.437   7.285   1.136 -2.4666 -0.5403 -0.2609
  453MOL0     H61092   2.263   7.351   0.976 -0.1991 -0.4028  0.4479
  453MOL0     H61093   2.353   7.505   0.933  5.1672  0.0023 -2.6759
  453MOL0     H61094   2.537   7.382   0.852  1.4418 -1.9266 -0.1068
  453MOL0     H61095   2.440   7.224   0.887 -2.0757 -0.5047 -2.0424
  453MOL0     H61096   2.271   7.331   0.720 -0.0271 -1.1587  0.4970
  453MOL0     H61097   2.394   7.448   0.687 -1.2452 -0.0346  0.6721
  453MOL0     H61098   2.535   7.193   0.645  0.4480  0.7701 -1.6204
  453MOL0     H61099   2.365   7.158   0.625 -0.8397  0.1700  0.7623
  453MOL0     H61100   2.436   7.214   0.412  1.2182  2.0469 -2.1313
  453MOL0     H61101   2.373   7.369   0.456  1.9087  1.2109 -0.1113
  453MOL0     H61102   2.605   7.442   0.521 -0.9232 -1.9453  1.3100
  453MOL0     H61103   2.659   7.286   0.482  0.7117  1.2044  2.6845
  453MOL0     H61104   2.644   7.302   0.258 -0.6021 -0.8963  2.0033
  453MOL0     H61105   2.702   7.468   0.304  0.2473  0.4678 -0.8285
  453MOL0     H61106   2.507   7.647   0.305 -2.1292 -0.0047  0.9301
  453MOL0     H61107   2.337   7.799   0.164 -3.5822 -1.5654  1.1234
  453MOL0     H61108   2.345   7.773  -0.003 -0.3957 -1.6692 -0.5906
  453MOL0     H61109   2.113   7.824   0.093  0.1470 -0.4588  1.2153
  453MOL0     H61110   2.117   7.677   0.176  1.1738 -1.1096 -0.2468
  453MOL0     H61111   2.130   7.561  -0.057 -2.1277  0.0417 -2.1463
  453MOL0     H61112   2.155   7.728  -0.120  1.2335  0.6278  1.9170
  453MOL0     H61113   1.895   7.627   0.020  0.4598 -0.7564 -0.9176
  453MOL0     H61114   1.931   7.589  -0.145  0.0440  1.3183 -2.0326
  453MOL0     H61115   1.688   7.640  -0.130 -0.1123  0.5276  0.0014
  453MOL0     H61116   1.482   7.630  -0.099 -1.9238  0.5926 -0.6833
  453MOL0     H61117   1.363   7.725  -0.193 -0.7700 -0.7210  2.5274
  453MOL0     H61118   1.458   7.577  -0.259 -0.1813 -0.0078 -0.6265
  453MOL0     H61119   1.170   7.969  -0.399 -1.1736  0.2369  0.4741
  453MOL0     H61120   0.979   8.065  -0.530 -0.8719 -0.1822 -3.1405
  453MOL0     H61121   1.067   8.439  -0.712  2.3387 -1.1053  0.7357
  453MOL0     H61122   1.090   8.357  -0.870  0.2806  0.6261  0.2097
  453MOL0     H61123   0.848   8.473  -0.740  1.2905  1.3245  0.8454
  453MOL0     H61124   0.921   8.541  -0.861  2.0236  0.0329 -1.1382
  453MOL0     H61125   0.788   8.269  -0.902 -0.6916 -0.1191 -1.4361
  453MOL0     H61126   0.864   8.366  -1.040  1.3241  1.5892  0.8116
  453MOL0     H61127   0.625   8.455  -0.886 -3.2251  0.5160 -3.3587
  453MOL0     H61128   0.719   8.549  -0.978  0.7629 -0.2661  0.9397
  453MOL0     H61129   0.584   8.281  -1.045  4.1184 -1.2073  0.1517
  453MOL0     H61130   0.694   8.355  -1.159  1.2187 -0.3198  1.2657
  453MOL0     H61131   0.536   8.560  -1.156  0.3312  0.4436  1.1295
  453MOL0     H61132   0.442   8.420  -1.209 -0.4023  2.4839 -1.0770
  453MOL0     H61133   0.441   8.579  -0.974  4.2902  1.3198 -5.1845
  453MOL0     H61134   0.383   8.408  -0.958  2.8363 -3.4565 -4.2822
  453MOL0     H61135   0.218   8.571  -0.957 -1.7697  2.3788 -1.7059
  453MOL0     H61136   0.193   8.475  -1.098  3.4423 -0.6716 -3.3787
  453MOL0     H61137   1.252   8.289  -0.760 -0.0211 -0.8307  0.9433
  453MOL0     H61138   1.446   8.207  -0.612  0.5329 -0.7283 -0.3654
  453MOL0     H61139   1.682   8.037  -0.412 -2.6482 -0.6516 -1.1259
  453MOL0     H61140   1.890   7.981  -0.286  0.0692 -0.3581 -0.9402
  453MOL0     H61141   2.627   7.394   1.287 -0.4719  0.7040 -1.3550
  453MOL0     H61142   2.704   7.407   1.511 -0.6839 -1.1858 -1.6269
  453MOL0     H61143   2.627   7.288   1.936 -0.9247  0.4268  0.0436
  453MOL0     H61144   2.731   7.266   2.163  1.1458 -0.6940 -1.5422
  453MOL0     H61145   2.811   7.614   2.357 -1.8552 -1.0648  0.9204
  453MOL0     H61146   2.844   7.504   2.485 -0.5110  1.8132 -0.2518
  453MOL0     H61147   3.052   7.575   2.278 -1.0024 -0.2858 -1.1069
  453MOL0     H61148   3.082   7.525   2.450  1.4867 -0.6946 -2.5366
  453MOL0     H61149   2.963   7.791   2.350 -2.0118 -3.3380 -0.2706
  453MOL0     H61150   3.130   7.773   2.373 -1.0315 -2.2600 -4.3285
  453MOL0     H61151   2.906   7.747   2.592 -0.7679 -0.4316 -2.6499
  453MOL0     H61152   3.027   7.879   2.557  1.8479 -0.1193  3.7588
  453MOL0     H61153   3.307   7.673   2.752  1.0635 -0.6207  0.1550
  453MOL0     H61154   2.821   7.686   2.145 -1.7695 -0.7118  2.6397
  453MOL0     H61155   2.719   7.701   1.938 -1.7551 -0.6163 -0.9751
  454MOL0     O61156   0.388   9.224   2.806  0.1078 -0.5529  0.2329
  454MOL0     C61157   0.314   9.267   2.898  0.4553 -0.0578 -0.3287
  454MOL0     O61158   0.358   9.321   3.015 -0.5481 -1.0892  0.2522
  454MOL0     C61159   0.491   9.346   3.044 -0.8876 -0.1755 -0.2390
  454MOL0     C61160   0.526   9.451   3.136  0.3177 -0.9436  1.1115
  454MOL0     C61161   0.654   9.485   3.184  0.6907  0.2903  0.2423
  454MOL0     C61162   0.762   9.399   3.152 -0.3853  0.4314  0.5379
  454MOL0     O61163   0.889   9.422   3.201  0.2460  0.7060 -1.4635
  454MOL0     C61164   0.976   9.314   3.238  0.5435 -0.1142 -0.5390
  454MOL0     C61165   0.917   9.224   3.351 -0.0323 -0.5164 -0.3680
  454MOL0     C61166   0.990   9.089   3.351 -0.7426  0.2853  1.2638
  454MOL0     C61167   0.911   8.987   3.425  0.8293  0.0274  0.5389
  454MOL0     C61168   0.981   8.852   3.425  0.5393  0.0433  0.1306
  454MOL0     C61169   0.887   8.756   3.507  0.2258  0.5904  0.0118
  454MOL0     C61170   0.901   8.602   3.484 -0.0984  0.7480 -1.3218
  454MOL0     C61171   0.817   8.549   3.366  0.0054  0.2749 -1.4323
  454MOL0     N61172   0.813   8.398   3.375  0.4509 -0.1556 -0.1034
  454MOL0     C61173   0.734   8.322   3.454 -0.4246  0.5184  0.3754
  454MOL0     C61174   0.788   8.198   3.453  0.3119 -0.5482 -0.6136
  454MOL0     C61175   0.742   8.081   3.535  0.0509 -0.1303 -0.0693
  454MOL0     C61176   0.704   8.122   3.675 -0.0145  0.1734 -1.0465
  454MOL0     C61177   0.551   8.137   3.686 -0.0238 -0.0221  0.0159
  454MOL0     C61178   0.497   8.143   3.833 -0.3964  0.3936  0.2769
  454MOL0     O61179   0.531   8.266   3.905 -0.1290  0.6535 -0.0516
  454MOL0     C61180   0.470   8.264   4.029  0.2910 -0.4639  0.0371
  454MOL0     C61181   0.376   8.356   4.059  0.4636 -0.6242 -0.1189
  454MOL0     C61182   0.321   8.358   4.189  0.0791  0.0768 -0.0182
  454MOL0     C61183   0.201   8.452   4.230 -0.3311  0.2806  0.0387
  454MOL0     C61184   0.368   8.269   4.296  0.7716 -0.0101  0.2938
  454MOL0     C61185   0.305   8.255   4.432 -0.6231 -0.1384  0.3177
  454MOL0     O61186   0.328   8.369   4.516 -0.4714  0.5855  0.2585
  454MOL0     C61187   0.260   8.382   4.633 -0.1458  0.4973  0.3495
  454MOL0     C61188   0.127   8.349   4.658  0.2128  0.1250 -0.3231
  454MOL0     C61189   0.068   8.393   4.781 -0.0178  0.0435 -0.9695
  454MOL0     C61190   0.147   8.475   4.866 -0.4033 -0.8261  0.1347
  454MOL0     O61191   0.065   8.523   4.968 -0.0056 -0.6308  0.3037
  454MOL0     C61192   0.116   8.611   5.072  0.0546 -0.1222  0.0091
  454MOL0     C61193   0.114   8.525   5.200 -0.2381 -0.3746 -0.0485
  454MOL0     C61194   0.213   8.409   5.185 -0.3063  0.7439 -1.0804
  454MOL0     C61195   0.235   8.322   5.313 -0.1758  0.3868 -0.0002
  454MOL0     C61196   0.108   8.253   5.365 -0.7507  0.4415  0.4858
  454MOL0     C61197   0.122   8.175   5.501  0.2507  0.6721 -0.1708
  454MOL0     C61198   0.162   8.262   5.621  0.3541  1.0882 -0.5184
  454MOL0     C61199   0.187   8.192   5.758  0.2577  1.1957 -0.4122
  454MOL0    Cl61200   0.259   8.024   5.729 -0.0589  0.3154 -0.4081
  454MOL0     C61201   0.285   8.506   4.845  0.0879 -0.1947  0.0367
  454MOL0     C61202   0.337   8.466   4.721  0.6571 -0.4024  1.1390
  454MOL0     O61203   0.252   8.154   4.470 -0.1577  0.2299  0.7612
  454MOL0     C61204   0.462   8.177   4.260 -0.0844  0.1598 -0.2391
  454MOL0     C61205   0.509   8.172   4.130  0.8348 -0.1521  0.4241
  454MOL0     N61206   0.892   8.206   3.367 -1.5794  0.1256 -0.3655
  454MOL0     N61207   0.900   8.323   3.315  0.5648 -0.4756 -1.0177
  454MOL0     C61208   0.730   9.284   3.060 -0.7147 -0.3092  0.3048
  454MOL0     C61209   0.599   9.267   2.999 -0.1650  0.3134  0.8085
  454MOL0     C61210   0.165   9.243   2.884  0.6829 -0.1391 -0.6182
  454MOL0     C61211   0.075   9.271   2.993 -0.3872 -1.0301 -0.1722
  454MOL0     C61212  -0.062   9.236   2.976  1.0556  0.4456  0.2830
  454MOL0     C61213  -0.116   9.182   2.861  0.6274 -0.0232  0.1738
  454MOL0     O61214  -0.245   9.134   2.862 -0.1906 -0.0305 -0.4760
  454MOL0     C61215  -0.313   9.131   2.732  0.1759  0.2687  0.8764
  454MOL0     C61216  -0.461   9.161   2.758 -0.3058 -0.0607 -0.0873
  454MOL0     C61217  -0.492   9.304   2.814 -0.4983  0.1040 -0.6892
  454MOL0     C61218  -0.626   9.349   2.754 -0.2247  0.1896 -0.7737
  454MOL0     C61219  -0.735   9.275   2.826 -0.0697 -0.0695  0.1337
  454MOL0     C61220  -0.828   9.225   2.883 -0.4562 -0.0171 -0.1481
  454MOL0     C61221  -0.018   9.157   2.762 -0.0171 -0.5636 -0.4466
  454MOL0     C61222   0.118   9.186   2.768 -0.3779  0.6358 -0.6923
  454MOL0     H61223   0.443   9.517   3.156 -1.4934 -2.3876 -1.0254
  454MOL0     H61224   0.663   9.572   3.249  1.8092 -1.3123  2.3679
  454MOL0     H61225   1.010   9.256   3.152  1.5513 -2.7426  1.4862
  454MOL0     H61226   1.069   9.361   3.271  0.2711 -1.2114  1.9858
  454MOL0     H61227   0.944   9.275   3.444  1.0191 -0.1055 -0.8887
  454MOL0     H61228   0.811   9.220   3.324 -0.4061  2.1554  0.4019
  454MOL0     H61229   1.010   9.053   3.249  3.2351  2.7146  0.9573
  454MOL0     H61230   1.092   9.100   3.389  0.5660 -0.8535 -1.5943
  454MOL0     H61231   0.909   9.015   3.531  1.3476  2.4183 -0.0114
  454MOL0     H61232   0.807   8.988   3.392  0.3382  0.2887  1.9877
  454MOL0     H61233   0.980   8.811   3.324 -1.3384 -0.4097  0.3024
  454MOL0     H61234   1.085   8.865   3.457  0.7091  1.0446 -0.7778
  454MOL0     H61235   0.916   8.783   3.609  0.1491  3.9386 -0.7292
  454MOL0     H61236   0.782   8.788   3.506 -0.3790 -1.2143  1.0131
  454MOL0     H61237   1.008   8.576   3.484 -0.1499 -0.0940  2.8164
  454MOL0     H61238   0.866   8.569   3.582 -0.6096  3.3464 -0.5523
  454MOL0     H61239   0.856   8.574   3.267 -0.5143 -0.3114 -1.7937
  454MOL0     H61240   0.715   8.588   3.361 -0.4526 -0.9710 -2.4982
  454MOL0     H61241   0.652   8.345   3.521 -1.7835 -1.4290 -0.5236
  454MOL0     H61242   0.659   8.037   3.479  0.6448  1.9747 -2.8078
  454MOL0     H61243   0.824   8.009   3.537  0.0501 -0.1268  0.2464
  454MOL0     H61244   0.750   8.212   3.718 -0.1978 -0.8564  1.4516
  454MOL0     H61245   0.733   8.047   3.749 -1.5630 -0.0359 -0.6381
  454MOL0     H61246   0.506   8.045   3.649 -1.1405  1.3653 -2.2965
  454MOL0     H61247   0.514   8.220   3.626 -0.3146 -0.4830 -0.4503
  454MOL0     H61248   0.541   8.061   3.890 -0.0937  1.7508  2.0640
  454MOL0     H61249   0.389   8.121   3.832 -1.0096  3.0415  0.9626
  454MOL0     H61250   0.343   8.424   3.980 -0.5917 -1.4707 -0.4408
  454MOL0     H61251   0.233   8.511   4.317  0.4803  0.4632 -0.3763
  454MOL0     H61252   0.168   8.517   4.148  0.2299  0.2711 -0.2015
  454MOL0     H61253   0.110   8.400   4.260 -0.5837  1.2453  1.0333
  454MOL0     H61254   0.067   8.282   4.598 -2.6977  4.1323 -2.3613
  454MOL0     H61255  -0.037   8.379   4.803 -0.0941 -2.4032 -2.5023
  454MOL0     H61256   0.205   8.673   5.056  0.4745 -1.0577 -1.4086
  454MOL0     H61257   0.036   8.680   5.101  1.5122  0.9026  1.8989
  454MOL0     H61258   0.134   8.583   5.290 -2.1660 -2.7952  2.1102
  454MOL0     H61259   0.014   8.483   5.211 -2.1506  2.9110 -2.8254
  454MOL0     H61260   0.305   8.456   5.148 -0.4971  3.0780  1.1575
  454MOL0     H61261   0.167   8.335   5.119 -2.7810  1.3305 -0.1031
  454MOL0     H61262   0.315   8.248   5.307  2.1278  2.7759 -0.4275
  454MOL0     H61263   0.267   8.384   5.397  0.7102  0.1260 -0.1393
  454MOL0     H61264   0.076   8.181   5.289 -0.6241  1.2973 -0.4065
  454MOL0     H61265   0.025   8.323   5.384 -0.0399  1.1686  0.9923
  454MOL0     H61266   0.027   8.126   5.523 -0.0326  0.7212 -1.2667
  454MOL0     H61267   0.193   8.093   5.486 -1.1273 -0.4612 -0.6866
  454MOL0     H61268   0.086   8.340   5.633 -1.4970 -0.3021 -2.4762
  454MOL0     H61269   0.256   8.314   5.601  0.5561  0.8763 -0.1278
  454MOL0     H61270   0.097   8.172   5.816  0.0947  0.1052 -1.0049
  454MOL0     H61271   0.250   8.254   5.823  1.7824  1.0248 -1.6533
  454MOL0     H61272   0.326   8.563   4.928 -3.4677 -0.9809  2.5466
  454MOL0     H61273   0.438   8.493   4.689  1.2780 -1.7413  1.8772
  454MOL0     H61274   0.498   8.113   4.341  0.9830 -0.5477 -1.2347
  454MOL0     H61275   0.597   8.114   4.106  0.3377 -0.9645  0.5279
  454MOL0     H61276   0.803   9.206   3.040 -0.7668 -0.5524  1.0259
  454MOL0     H61277   0.583   9.180   2.935  2.4068  1.3466 -1.4470
  454MOL0     H61278   0.109   9.312   3.087  0.9618  0.9014 -1.4405
  454MOL0     H61279  -0.127   9.251   3.062  1.7962  3.0165  0.4756
  454MOL0     H61280  -0.274   9.200   2.656 -0.2113 -1.8799 -1.3811
  454MOL0     H61281  -0.305   9.031   2.690 -2.2380 -0.8316  2.8123
  454MOL0     H61282  -0.517   9.091   2.821  1.3628 -1.8484 -0.4919
  454MOL0     H61283  -0.513   9.159   2.662 -0.8699 -0.3286  0.2209
  454MOL0     H61284  -0.408   9.370   2.790 -0.3141  0.6187  1.1642
  454MOL0     H61285  -0.497   9.304   2.924 -5.6577 -3.5888 -0.5867
  454MOL0     H61286  -0.633   9.324   2.648 -0.3676 -4.7993  0.1541
  454MOL0     H61287  -0.634   9.458   2.763 -0.8231  0.2075 -1.4636
  454MOL0     H61288  -0.908   9.176   2.934  0.7592 -0.6676  1.2147
  454MOL0     H61289  -0.047   9.090   2.682  0.4986  0.6124 -1.6386
  454MOL0     H61290   0.189   9.166   2.688  1.5317 -0.1394  1.0883
  455MOL0     O61291   7.620   7.025   5.056  0.7870  0.2096  0.7947
  455MOL0     C61292   7.644   6.971   4.951 -0.4117  0.2498  0.7102
  455MOL0     O61293   7.619   6.846   4.921 -0.3009  0.3436  0.1562
  455MOL0     C61294   7.544   6.769   5.004  0.2538 -0.4685 -0.5934
  455MOL0     C61295   7.598   6.708   5.116 -0.1692 -0.1201 -0.6103
  455MOL0     C61296   7.520   6.622   5.203 -0.8349 -0.3009  0.5895
  455MOL0     C61297   7.377   6.606   5.176  0.2320  0.3431  0.1105
  455MOL0     O61298   7.292   6.524   5.253  0.1620 -0.1278 -0.0968
  455MOL0     C61299   7.349   6.426   5.339  0.4456 -0.7349  0.6640
  455MOL0     C61300   7.234   6.383   5.438  0.0839  0.2485 -0.9525
  455MOL0     C61301   7.194   6.516   5.520 -0.4004  0.1823 -0.6099
  455MOL0     C61302   7.131   6.456   5.641 -0.4573  0.0999  0.6191
  455MOL0     C61303   6.991   6.394   5.591 -0.0428 -0.2199 -0.6724
  455MOL0     C61304   6.894   6.362   5.707 -0.4565 -0.7051  0.0697
  455MOL0     C61305   6.961   6.286   5.817 -1.2573  0.2334 -1.2021
  455MOL0     C61306   7.018   6.372   5.923 -0.0450  0.1406  0.0243
  455MOL0     N61307   7.078   6.279   6.023 -0.1325  0.3963 -0.0660
  455MOL0     C61308   7.010   6.210   6.116  0.3953  0.5212 -0.7190
  455MOL0     C61309   7.101   6.156   6.198 -0.0708 -0.4314  0.2500
  455MOL0     C61310   7.075   6.076   6.327 -0.0568 -0.4871 -0.8417
  455MOL0     C61311   7.058   6.145   6.462 -0.0656  0.2143 -0.6539
  455MOL0     C61312   7.165   6.253   6.487  0.2302  0.1429 -0.7544
  455MOL0     C61313   7.151   6.301   6.637 -0.1069 -0.3958  0.2380
  455MOL0     O61314   7.063   6.409   6.653  0.7043  0.3736  0.2568
  455MOL0     C61315   7.105   6.541   6.656  0.0438 -0.7275 -0.3962
  455MOL0     C61316   7.229   6.588   6.620  0.7099 -0.9055  0.7883
  455MOL0     C61317   7.278   6.718   6.629 -0.4022  0.0435  0.5845
  455MOL0     C61318   7.420   6.748   6.570  0.8760 -0.4589  1.0939
  455MOL0     C61319   7.177   6.817   6.675  0.0533  0.1037  1.0586
  455MOL0     C61320   7.207   6.966   6.681  0.6942 -0.1993  0.4256
  455MOL0     O61321   7.338   7.006   6.699  0.3248  0.8164  0.2441
  455MOL0     C61322   7.390   7.116   6.647 -0.0402 -0.2506  0.3247
  455MOL0     C61323   7.501   7.167   6.708 -1.1691 -0.2062 -0.0438
  455MOL0     C61324   7.573   7.278   6.668  0.2481  0.1814 -0.1760
  455MOL0     C61325   7.523   7.348   6.557  0.0049  0.0678  0.7282
  455MOL0     O61326   7.584   7.470   6.542 -0.3343  0.3244  0.0371
  455MOL0     C61327   7.542   7.546   6.429 -0.0699  0.3636  0.9251
  455MOL0     C61328   7.665   7.639   6.404  0.2206 -0.2635  0.3516
  455MOL0     C61329   7.637   7.787   6.375  0.6747  0.4890  1.1326
  455MOL0     C61330   7.585   7.804   6.233 -0.1109  0.7377  0.9637
  455MOL0     C61331   7.528   7.940   6.197  0.2408  0.2767  0.0235
  455MOL0     C61332   7.628   8.043   6.196 -0.2109 -0.9986  0.7678
  455MOL0     C61333   7.595   8.190   6.170 -0.3773 -0.1239  0.2679
  455MOL0     C61334   7.708   8.292   6.172 -0.4390 -0.1866  0.1429
  455MOL0    Cl61335   7.643   8.460   6.190  0.0074 -0.8438 -0.4934
  455MOL0     C61336   7.410   7.306   6.481 -0.0202 -0.4202 -0.4322
  455MOL0     C61337   7.341   7.187   6.533 -0.3748 -0.2714 -0.3405
  455MOL0     O61338   7.109   7.043   6.665 -0.0324  0.7264  0.7669
  455MOL0     C61339   7.044   6.773   6.715 -0.9939 -0.1518 -1.0267
  455MOL0     C61340   7.010   6.636   6.719  0.0484 -0.1373  0.3596
  455MOL0     N61341   7.226   6.178   6.145 -0.3728  0.2346  0.5070
  455MOL0     N61342   7.216   6.260   6.041 -0.9184 -0.5430 -0.1016
  455MOL0     C61343   7.329   6.679   5.067  0.0199 -0.0702 -0.5609
  455MOL0     C61344   7.405   6.755   4.977 -1.2859  0.2807  0.2609
  455MOL0     C61345   7.696   7.055   4.848 -0.9660 -0.0186  0.1803
  455MOL0     C61346   7.732   7.193   4.877 -0.5402 -0.1854  0.6268
  455MOL0     C61347   7.793   7.270   4.782 -0.2371  0.0430 -0.3406
  455MOL0     C61348   7.820   7.222   4.654 -0.3805 -0.7132 -0.0965
  455MOL0     O61349   7.896   7.295   4.566  0.3458 -0.4127 -0.3097
  455MOL0     C61350   7.992   7.387   4.624 -0.7127 -0.5984  0.2497
  455MOL0     C61351   8.089   7.453   4.515  0.4887  0.3845  0.0815
  455MOL0     C61352   8.214   7.504   4.573  0.2323  0.1672  0.4985
  455MOL0     C61353   8.193   7.638   4.653 -0.2042 -0.8471  0.4667
  455MOL0     C61354   8.323   7.693   4.704  0.1779  0.1307  0.8151
  455MOL0     C61355   8.412   7.712   4.780  0.7942 -0.0498 -0.4289
  455MOL0     C61356   7.787   7.089   4.624  0.3428  0.4087  0.2813
  455MOL0     C61357   7.735   7.003   4.719  0.3010 -0.6925 -0.5199
  455MOL0     H61358   7.705   6.711   5.128  0.0274 -1.9186 -1.6205
  455MOL0     H61359   7.572   6.570   5.282  2.2967  3.2656  1.1077
  455MOL0     H61360   7.402   6.344   5.288  0.8279 -0.3390  0.4106
  455MOL0     H61361   7.427   6.472   5.401 -0.7079  0.6462  1.1275
  455MOL0     H61362   7.151   6.335   5.385 -2.5817  2.5736  0.8538
  455MOL0     H61363   7.281   6.312   5.506 -1.9931  1.4158  1.9007
  455MOL0     H61364   7.280   6.579   5.544  0.9858 -2.4193  1.9194
  455MOL0     H61365   7.122   6.570   5.459  1.8319  5.1368  0.6068
  455MOL0     H61366   7.208   6.398   5.692 -0.0135 -0.0481 -0.2108
  455MOL0     H61367   7.117   6.546   5.702 -0.5813  0.3295  0.2555
  455MOL0     H61368   6.939   6.466   5.529 -2.0348  1.3977  2.5826
  455MOL0     H61369   7.009   6.297   5.544  0.6213 -0.5078  0.1462
  455MOL0     H61370   6.827   6.440   5.746 -0.2213  0.8781 -2.4820
  455MOL0     H61371   6.814   6.293   5.681  0.0146 -2.4756  2.8483
  455MOL0     H61372   6.886   6.220   5.862 -0.0714  0.7503  1.7549
  455MOL0     H61373   7.035   6.210   5.787 -1.3644 -1.7740  2.9302
  455MOL0     H61374   6.941   6.431   5.973 -0.7143 -1.4889  1.0143
  455MOL0     H61375   7.104   6.429   5.886 -0.1028 -0.6954 -1.4608
  455MOL0     H61376   6.902   6.198   6.121  0.5971 -2.2804 -1.0400
  455MOL0     H61377   6.984   6.016   6.316 -1.2229  1.2426 -1.2470
  455MOL0     H61378   7.153   6.002   6.341 -0.9444 -1.6073 -1.5652
  455MOL0     H61379   7.049   6.069   6.541 -0.3017 -0.2185 -1.0930
  455MOL0     H61380   6.957   6.186   6.467  0.3688  1.1710  2.5535
  455MOL0     H61381   7.140   6.335   6.418  3.5429 -0.1248 -2.5069
  455MOL0     H61382   7.265   6.218   6.458  0.5128 -0.1881  0.5536
  455MOL0     H61383   7.255   6.315   6.668 -0.1681 -1.2404  0.8705
  455MOL0     H61384   7.113   6.220   6.701  1.8897 -0.0379  1.9937
  455MOL0     H61385   7.301   6.517   6.582 -0.3157 -2.4438  1.6040
  455MOL0     H61386   7.416   6.824   6.492 -1.0983  0.4972  2.0337
  455MOL0     H61387   7.490   6.785   6.645  0.6666  2.9676 -0.2011
  455MOL0     H61388   7.460   6.658   6.522 -0.8961  0.5623 -2.6734
  455MOL0     H61389   7.543   7.114   6.792 -2.1533 -1.2526 -0.1925
  455MOL0     H61390   7.660   7.306   6.727  1.2938 -1.9937 -0.5887
  455MOL0     H61391   7.529   7.479   6.343  2.5311 -0.3101  0.9524
  455MOL0     H61392   7.452   7.599   6.458 -0.8316 -0.7831  0.7196
  455MOL0     H61393   7.723   7.657   6.496  0.9971 -3.4824  0.6071
  455MOL0     H61394   7.737   7.595   6.335 -0.0127 -1.1054  0.6368
  455MOL0     H61395   7.733   7.837   6.385 -0.6305  3.6852 -0.7579
  455MOL0     H61396   7.566   7.823   6.451 -0.0758 -2.8911  2.2206
  455MOL0     H61397   7.659   7.776   6.158  0.5309  1.2935  1.3842
  455MOL0     H61398   7.504   7.732   6.216 -2.1926  3.6465 -3.2076
  455MOL0     H61399   7.451   7.960   6.272  3.6949 -2.1496  4.7314
  455MOL0     H61400   7.500   7.927   6.092  1.1652  1.6881 -0.4207
  455MOL0     H61401   7.668   8.032   6.297 -2.2071  0.4689  1.7973
  455MOL0     H61402   7.702   8.008   6.124 -0.8344 -3.1683  1.1103
  455MOL0     H61403   7.529   8.218   6.253 -1.5121  1.8052 -1.1844
  455MOL0     H61404   7.538   8.211   6.079 -0.5165  1.9712  0.7802
  455MOL0     H61405   7.770   8.283   6.083  0.4001  0.4161  0.6553
  455MOL0     H61406   7.765   8.274   6.264 -2.2648 -3.4067  0.7852
  455MOL0     H61407   7.362   7.369   6.407  1.3766  2.8017  1.2278
  455MOL0     H61408   7.261   7.148   6.471  0.1961  0.0169 -1.2811
  455MOL0     H61409   6.968   6.848   6.734 -1.6049 -0.6919 -1.3111
  455MOL0     H61410   6.904   6.619   6.739 -1.1093  1.5296 -3.5421
  455MOL0     H61411   7.227   6.650   5.045 -0.1586  0.4128 -0.3695
  455MOL0     H61412   7.342   6.793   4.897 -0.7942 -2.5890 -1.6391
  455MOL0     H61413   7.706   7.241   4.971  0.5018  1.4205  0.1325
  455MOL0     H61414   7.796   7.377   4.803  1.0258 -0.0776  0.1735
  455MOL0     H61415   7.949   7.463   4.690  0.4027 -0.0295  0.3512
  455MOL0     H61416   8.060   7.333   4.692  1.3523  1.0854 -0.3611
  455MOL0     H61417   8.045   7.529   4.450  3.8860  1.9055 -0.6763
  455MOL0     H61418   8.110   7.371   4.446 -1.4612  0.6287 -0.8463
  455MOL0     H61419   8.282   7.515   4.488  2.2841 -0.3682  2.0090
  455MOL0     H61420   8.263   7.431   4.638  1.4667 -0.2911 -0.8739
  455MOL0     H61421   8.129   7.617   4.740  1.9980 -3.4940  1.6212
  455MOL0     H61422   8.152   7.716   4.589  1.8903  1.8197  2.1453
  455MOL0     H61423   8.491   7.740   4.847  2.2342 -0.6272 -1.8283
  455MOL0     H61424   7.814   7.050   4.526  1.3161  3.3366 -0.7345
  455MOL0     H61425   7.724   6.899   4.690 -1.9210 -1.4775  2.6317
  456MOL0     O61426  10.291   8.125   5.818  0.6582  0.2710 -0.1808
  456MOL0     C61427  10.179   8.160   5.798 -0.1569  0.1459 -0.3190
  456MOL0     O61428  10.090   8.079   5.732  0.2631  0.1186 -0.8511
  456MOL0     C61429  10.137   7.959   5.689 -0.8621 -1.2276  0.8260
  456MOL0     C61430  10.101   7.847   5.762  0.3400  0.3351 -0.6147
  456MOL0     C61431  10.127   7.723   5.713 -0.1731 -0.5444  0.7991
  456MOL0     C61432  10.191   7.707   5.594  0.2458 -0.2307  0.0964
  456MOL0     O61433  10.230   7.590   5.544  0.0744  0.7363 -0.1673
  456MOL0     C61434  10.123   7.514   5.487 -0.6174  0.1670  0.9549
  456MOL0     C61435  10.196   7.411   5.401 -0.0246 -0.3092 -0.2590
  456MOL0     C61436  10.110   7.301   5.340  0.4117 -0.0854  0.1541
  456MOL0     C61437  10.078   7.188   5.443 -0.1761 -1.4854 -0.0128
  456MOL0     C61438   9.973   7.093   5.392 -0.4600 -0.2631 -0.8175
  456MOL0     C61439  10.027   7.004   5.290  0.3940 -0.0243 -0.4384
  456MOL0     C61440   9.926   6.915   5.229 -0.2494  0.0563  0.1445
  456MOL0     C61441   9.995   6.812   5.139 -1.1712 -0.6630  0.7575
  456MOL0     N61442   9.906   6.820   5.014  0.8259  0.4337  0.1655
  456MOL0     C61443   9.776   6.777   5.010  0.2207  0.1813  0.6400
  456MOL0     C61444   9.736   6.794   4.879  0.1854 -0.1277 -0.2136
  456MOL0     C61445   9.597   6.790   4.826 -0.1950  0.1795 -0.0647
  456MOL0     C61446   9.550   6.935   4.775 -0.2051 -0.3664  0.2048
  456MOL0     C61447   9.514   7.029   4.890 -0.5137 -0.5560  0.8579
  456MOL0     C61448   9.416   6.978   4.999  0.0948  0.3421  0.0875
  456MOL0     O61449   9.483   6.894   5.099  0.4599 -0.1093  0.1516
  456MOL0     C61450   9.514   6.960   5.219  0.0092 -0.5406 -0.8216
  456MOL0     C61451   9.481   6.902   5.336  0.4862 -0.4315 -0.7609
  456MOL0     C61452   9.525   6.963   5.456  0.6334  0.5356 -0.2820
  456MOL0     C61453   9.493   6.885   5.578  0.0070 -0.2556 -0.0671
  456MOL0     C61454   9.596   7.088   5.458 -0.2918  0.0858 -0.4656
  456MOL0     C61455   9.647   7.159   5.576  0.3520  0.2501 -0.7194
  456MOL0     O61456   9.749   7.249   5.566 -0.6374  0.4478 -0.5907
  456MOL0     C61457   9.745   7.368   5.642 -0.8088  0.5335 -0.0111
  456MOL0     C61458   9.635   7.456   5.652 -0.3565 -0.3822 -0.9064
  456MOL0     C61459   9.648   7.564   5.745  0.0783 -0.1401  0.2896
  456MOL0     C61460   9.767   7.580   5.830  0.3385 -0.7568 -0.8240
  456MOL0     O61461   9.789   7.687   5.920 -0.2117 -0.2925  0.2602
  456MOL0     C61462   9.691   7.790   5.922 -0.3035 -0.5957 -0.1734
  456MOL0     C61463   9.743   7.905   6.009 -0.1824  0.1992 -0.3336
  456MOL0     C61464   9.639   8.018   6.031  0.1897 -0.2746  0.3739
  456MOL0     C61465   9.652   8.058   6.177 -0.0312  0.5901 -0.1758
  456MOL0     C61466   9.708   8.198   6.203  0.2614 -0.2144  0.3765
  456MOL0     C61467   9.853   8.207   6.143  0.8577 -0.3580  0.5884
  456MOL0     C61468   9.928   8.120   6.232 -0.5524  0.0405 -0.0789
  456MOL0     C61469  10.082   8.151   6.220 -0.0733 -0.5420 -0.4337
  456MOL0    Cl61470  10.112   8.322   6.265  0.3312 -0.1710 -0.1896
  456MOL0     C61471   9.862   7.480   5.830 -0.8673  0.6618 -0.2785
  456MOL0     C61472   9.852   7.381   5.727 -0.4625 -0.8040  0.5881
  456MOL0     O61473   9.577   7.152   5.677  0.5202  0.3213 -0.0171
  456MOL0     C61474   9.620   7.147   5.334 -0.3364 -0.0574 -0.1155
  456MOL0     C61475   9.587   7.086   5.212 -0.3059  0.5385  0.5830
  456MOL0     N61476   9.849   6.835   4.810  0.5593  0.2005 -0.1307
  456MOL0     N61477   9.949   6.849   4.889  0.5016  0.2642  0.0291
  456MOL0     C61478  10.237   7.821   5.521 -0.7760 -0.2491  0.8054
  456MOL0     C61479  10.203   7.940   5.571  0.5356  0.8128  0.3912
  456MOL0     C61480  10.135   8.289   5.838  0.1341  0.4207  0.0125
  456MOL0     C61481  10.018   8.347   5.794 -0.0871 -0.0580 -0.6022
  456MOL0     C61482   9.972   8.477   5.833 -0.1965  0.2340 -0.0166
  456MOL0     C61483  10.051   8.551   5.923  0.2544  0.2336  0.2692
  456MOL0     O61484   9.995   8.670   5.963 -0.1569  0.4680 -0.3117
  456MOL0     C61485  10.068   8.772   6.030 -0.0098 -0.1214 -0.2210
  456MOL0     C61486  10.159   8.857   5.939  1.0468 -0.7220 -0.2766
  456MOL0     C61487  10.277   8.939   6.004  0.5848 -0.3773 -0.9007
  456MOL0     C61488  10.390   8.849   6.038  0.1452  0.3117  0.0797
  456MOL0     C61489  10.488   8.925   6.117  0.5569 -0.6746  0.5543
  456MOL0     C61490  10.567   8.975   6.191 -0.0435 -0.4471  0.0070
  456MOL0     C61491  10.175   8.493   5.955  0.0630 -0.3730 -0.4204
  456MOL0     C61492  10.216   8.366   5.923  0.1527 -0.2311 -0.9030
  456MOL0     H61493  10.058   7.854   5.861  0.3174 -1.7015 -0.4402
  456MOL0     H61494  10.103   7.638   5.776 -0.7547 -1.8836 -1.1502
  456MOL0     H61495  10.065   7.464   5.565 -0.4020  0.4719  1.3127
  456MOL0     H61496  10.063   7.577   5.421  1.4124  0.4948 -0.6995
  456MOL0     H61497  10.248   7.464   5.320 -0.5848  0.6973  0.0225
  456MOL0     H61498  10.275   7.366   5.463  1.0731  1.4600 -0.3085
  456MOL0     H61499  10.012   7.337   5.308  0.0239 -0.1942  1.1988
  456MOL0     H61500  10.159   7.260   5.251 -2.1036 -4.2022  0.3937
  456MOL0     H61501  10.171   7.135   5.463  1.1043  0.3497 -0.8190
  456MOL0     H61502  10.037   7.237   5.531 -1.0821  0.7276 -1.5814
  456MOL0     H61503   9.933   7.045   5.482  0.3946  0.3077 -0.1134
  456MOL0     H61504   9.892   7.155   5.353 -0.0685  0.9035  0.1554
  456MOL0     H61505  10.068   7.057   5.204 -1.0408  1.4473 -0.2636
  456MOL0     H61506  10.100   6.946   5.347  0.7178  0.3230 -0.4960
  456MOL0     H61507   9.881   6.855   5.309  0.5062  2.1947  2.3199
  456MOL0     H61508   9.846   6.972   5.181 -1.9777 -3.0910 -1.0122
  456MOL0     H61509  10.010   6.715   5.187  3.2587 -0.1277  0.8938
  456MOL0     H61510  10.100   6.831   5.113 -1.0766 -2.0402  0.0697
  456MOL0     H61511   9.712   6.756   5.096  0.2996 -0.5993  0.5179
  456MOL0     H61512   9.601   6.720   4.742  3.7931  2.1641 -1.8106
  456MOL0     H61513   9.520   6.761   4.898 -0.5104  1.7389  0.2684
  456MOL0     H61514   9.462   6.923   4.712 -0.4684 -2.3212  0.8780
  456MOL0     H61515   9.621   6.981   4.705 -1.5826 -0.1023 -1.0654
  456MOL0     H61516   9.468   7.118   4.845  0.0142 -0.7435 -0.0673
  456MOL0     H61517   9.608   7.051   4.942  1.5953  1.7316 -3.3630
  456MOL0     H61518   9.337   6.919   4.952 -0.2536  1.2098 -0.4203
  456MOL0     H61519   9.393   7.073   5.047 -1.1883  0.3067 -0.4193
  456MOL0     H61520   9.428   6.808   5.338 -2.8733  1.3105 -1.0881
  456MOL0     H61521   9.416   6.811   5.552  1.0155 -1.6803  0.9014
  456MOL0     H61522   9.579   6.835   5.622  1.4317  2.8502  0.9459
  456MOL0     H61523   9.445   6.953   5.650 -1.0287  0.1786 -1.1277
  456MOL0     H61524   9.550   7.434   5.588 -2.4319 -2.0655  2.1622
  456MOL0     H61525   9.565   7.634   5.747  2.0522  2.3419  1.1007
  456MOL0     H61526   9.668   7.836   5.825  0.1799  1.2095  0.5236
  456MOL0     H61527   9.596   7.759   5.966 -0.8890  3.2084  1.6630
  456MOL0     H61528   9.759   7.855   6.105  1.8642 -0.1001 -0.7732
  456MOL0     H61529   9.839   7.939   5.968 -0.0633 -0.3911 -0.5678
  456MOL0     H61530   9.537   7.981   6.015  0.4246  0.0809 -2.6755
  456MOL0     H61531   9.655   8.101   5.961  2.4599 -0.8058  0.1856
  456MOL0     H61532   9.550   8.068   6.217  0.9433  0.5251  2.5233
  456MOL0     H61533   9.691   7.984   6.247 -0.8829  0.6357  0.3715
  456MOL0     H61534   9.704   8.234   6.306  0.4221  3.3072 -0.7052
  456MOL0     H61535   9.653   8.280   6.155  1.3112 -0.0470 -0.5793
  456MOL0     H61536   9.867   8.181   6.037  1.2587  0.6191  0.3917
  456MOL0     H61537   9.880   8.312   6.153 -1.0308  0.3811 -1.2179
  456MOL0     H61538   9.914   8.015   6.203  2.7123 -0.2280 -1.1731
  456MOL0     H61539   9.898   8.147   6.333  4.4216  0.5843  1.5097
  456MOL0     H61540  10.106   8.123   6.117  1.0119 -0.0876 -0.3166
  456MOL0     H61541  10.141   8.087   6.287  2.1193  1.2835 -0.5092
  456MOL0     H61542   9.947   7.489   5.897 -1.5295 -2.7224  1.1901
  456MOL0     H61543   9.931   7.307   5.731 -1.0124 -1.4093  0.4624
  456MOL0     H61544   9.682   7.236   5.325  2.5342 -1.6467  2.0842
  456MOL0     H61545   9.616   7.141   5.123 -1.1154 -0.1870 -0.1429
  456MOL0     H61546  10.286   7.824   5.424 -1.3037  0.8753  0.5561
  456MOL0     H61547  10.233   8.029   5.518 -0.6914  1.7824  1.2788
  456MOL0     H61548   9.952   8.277   5.744  0.4230  0.1750 -1.6178
  456MOL0     H61549   9.876   8.518   5.802  0.0651  2.3234  1.6854
  456MOL0     H61550   9.990   8.834   6.076  2.0351  3.1636 -0.8670
  456MOL0     H61551  10.121   8.731   6.116  1.0098  1.3300 -0.1227
  456MOL0     H61552  10.081   8.924   5.902  2.9101  0.9849 -1.2645
  456MOL0     H61553  10.200   8.794   5.859  1.1367 -2.6731  1.2323
  456MOL0     H61554  10.245   8.985   6.097  0.9852 -2.0715  0.1262
  456MOL0     H61555  10.297   9.025   5.940 -1.9933  1.8238  1.0849
  456MOL0     H61556  10.434   8.814   5.944  0.0598  0.8224 -0.1519
  456MOL0     H61557  10.368   8.757   6.092  1.9660 -1.5459 -2.1082
  456MOL0     H61558  10.647   9.011   6.252  1.6042 -0.7315 -1.8643
  456MOL0     H61559  10.239   8.555   6.017 -1.4893 -0.3544  1.2410
  456MOL0     H61560  10.308   8.316   5.952  0.9347  0.7757 -1.5653
  457MOL0     O61561   8.732   5.059   2.199 -0.0200 -0.2591 -0.4666
  457MOL0     C61562   8.754   5.135   2.104 -0.1306  0.2805 -0.4346
  457MOL0     O61563   8.886   5.157   2.048  0.4825 -0.1611  0.0734
  457MOL0     C61564   9.006   5.102   2.090  0.9709  0.1575  0.0315
  457MOL0     C61565   9.102   5.084   1.998  0.0603  0.2913  0.3934
  457MOL0     C61566   9.228   5.013   2.037 -0.0470  0.5710 -0.7760
  457MOL0     C61567   9.252   4.980   2.170 -0.2106 -0.0175 -0.8185
  457MOL0     O61568   9.359   4.905   2.205 -0.0530 -0.6202 -0.5537
  457MOL0     C61569   9.367   4.832   2.323  0.4095 -0.8366  0.8025
  457MOL0     C61570   9.507   4.763   2.326  0.0428 -0.1133 -0.5748
  457MOL0     C61571   9.518   4.654   2.225 -0.3359 -0.9402 -0.4814
  457MOL0     C61572   9.649   4.568   2.251  0.3414 -0.6334  0.1697
  457MOL0     C61573   9.621   4.417   2.287 -0.6412 -0.4188 -0.4280
  457MOL0     C61574   9.567   4.401   2.437 -0.0888 -0.5719 -0.7729
  457MOL0     C61575   9.632   4.287   2.512  0.0493 -0.3569  0.6253
  457MOL0     C61576   9.593   4.286   2.666  0.1202 -0.4551 -0.6250
  457MOL0     N61577   9.443   4.295   2.683 -0.0030 -0.0955  0.7481
  457MOL0     C61578   9.353   4.194   2.657 -0.7679 -0.3556  0.0691
  457MOL0     C61579   9.230   4.260   2.661  0.0342  0.1631 -0.2804
  457MOL0     C61580   9.097   4.195   2.643  0.8356 -0.3436  0.3316
  457MOL0     C61581   9.075   4.104   2.769 -1.1547  0.1805 -0.7763
  457MOL0     C61582   8.926   4.058   2.774 -0.1611 -0.1778  0.4560
  457MOL0     C61583   8.830   4.169   2.815  0.4001  0.1939  0.3799
  457MOL0     O61584   8.738   4.111   2.909 -0.1856 -0.6083 -0.4818
  457MOL0     C61585   8.645   4.195   2.965  0.7554  0.6797  0.2317
  457MOL0     C61586   8.533   4.136   3.031 -0.3818  0.3492  0.8048
  457MOL0     C61587   8.447   4.217   3.101 -0.2899  0.8805 -0.0377
  457MOL0     C61588   8.339   4.139   3.170  1.1528  0.3128 -0.1796
  457MOL0     C61589   8.454   4.357   3.099  0.5269  0.4560  0.3184
  457MOL0     C61590   8.364   4.446   3.167  0.6942 -0.0341  1.1777
  457MOL0     O61591   8.326   4.399   3.284 -0.8461 -0.0290 -0.2472
  457MOL0     C61592   8.221   4.456   3.351  0.4571 -0.8554  1.1921
  457MOL0     C61593   8.245   4.544   3.452  0.0992  0.0454  0.1794
  457MOL0     C61594   8.138   4.588   3.532  0.3362  0.1281 -0.3296
  457MOL0     C61595   8.002   4.556   3.516 -0.4064  0.5524  0.8323
  457MOL0     O61596   7.915   4.627   3.590 -0.4646  0.2273 -0.2667
  457MOL0     C61597   7.776   4.633   3.556  1.1993 -0.1924 -0.4628
  457MOL0     C61598   7.689   4.725   3.647 -0.3057 -0.5222 -0.7757
  457MOL0     C61599   7.543   4.700   3.601 -0.2180  0.1814 -0.3731
  457MOL0     C61600   7.452   4.770   3.702  0.1516  0.8385  0.5028
  457MOL0     C61601   7.306   4.788   3.656  0.3027  0.1102  0.0369
  457MOL0     C61602   7.221   4.662   3.661 -0.5381  0.1014 -0.3134
  457MOL0     C61603   7.075   4.662   3.607 -0.2640 -0.7207  0.0432
  457MOL0     C61604   6.992   4.535   3.634 -0.0264 -1.2222  0.4708
  457MOL0    Cl61605   6.940   4.504   3.806  0.2167  0.0829 -0.4560
  457MOL0     C61606   7.975   4.461   3.411  0.1581  0.6361 -0.3067
  457MOL0     C61607   8.083   4.411   3.334  0.2422 -0.0245  0.5538
  457MOL0     O61608   8.337   4.560   3.129 -0.2634 -0.0881 -0.2141
  457MOL0     C61609   8.559   4.408   3.025 -0.9431 -0.1716  0.2557
  457MOL0     C61610   8.655   4.334   2.951 -0.1072 -0.2845 -0.5756
  457MOL0     N61611   9.247   4.389   2.701 -0.3106  0.3958 -0.3146
  457MOL0     N61612   9.371   4.400   2.715 -0.2024  0.5204  0.3495
  457MOL0     C61613   9.158   5.025   2.261  0.1717 -0.2768  0.2847
  457MOL0     C61614   9.037   5.083   2.223 -0.4144  1.1327  0.4803
  457MOL0     C61615   8.649   5.223   2.047 -0.2122 -0.2250  0.4323
  457MOL0     C61616   8.521   5.213   2.096  0.3818  0.4990  0.0249
  457MOL0     C61617   8.422   5.302   2.050  0.1543 -0.0383 -0.2355
  457MOL0     C61618   8.450   5.405   1.967  0.7602  0.3914  0.7252
  457MOL0     O61619   8.341   5.491   1.950  0.2520 -0.3466  0.1071
  457MOL0     C61620   8.369   5.623   1.894  0.3781  0.0365 -0.7457
  457MOL0     C61621   8.247   5.712   1.893 -0.2211 -0.0287 -0.8573
  457MOL0     C61622   8.306   5.855   1.854  0.1617  0.7688  0.3661
  457MOL0     C61623   8.188   5.931   1.795 -0.1938 -0.9907 -0.6611
  457MOL0     C61624   8.200   6.075   1.774 -0.4966 -0.1190 -0.2650
  457MOL0     C61625   8.209   6.186   1.746  0.3621 -0.0343  0.2782
  457MOL0     C61626   8.574   5.407   1.908  0.1363 -0.6775 -0.2782
  457MOL0     C61627   8.670   5.319   1.942 -0.7068  0.3984 -0.2043
  457MOL0     H61628   9.083   5.106   1.893  0.5217 -0.8815  0.0488
  457MOL0     H61629   9.309   5.002   1.965 -0.3591 -0.5129 -0.9631
  457MOL0     H61630   9.357   4.902   2.407  1.3518  0.5968 -0.2394
  457MOL0     H61631   9.295   4.750   2.336  1.1584 -2.1819 -2.4453
  457MOL0     H61632   9.572   4.850   2.309 -3.5879  3.0850  0.3160
  457MOL0     H61633   9.519   4.722   2.427 -0.4383 -0.4393 -0.6505
  457MOL0     H61634   9.428   4.592   2.228  0.8220 -2.6576  0.4875
  457MOL0     H61635   9.536   4.696   2.126  0.2925  1.4128  0.5615
  457MOL0     H61636   9.708   4.558   2.159 -0.7270  0.9659 -0.7496
  457MOL0     H61637   9.707   4.624   2.325 -1.7384 -0.4771  1.7802
  457MOL0     H61638   9.568   4.362   2.209  0.1929  1.5056 -2.4641
  457MOL0     H61639   9.722   4.375   2.296  0.2632  1.8500  0.9063
  457MOL0     H61640   9.589   4.493   2.493 -3.6495  0.5001 -0.8428
  457MOL0     H61641   9.457   4.401   2.439 -0.1741 -0.6322  2.8829
  457MOL0     H61642   9.600   4.189   2.475 -2.3673 -0.1829  2.0496
  457MOL0     H61643   9.741   4.291   2.511  0.6883 -3.6191  7.0117
  457MOL0     H61644   9.635   4.381   2.700 -0.3080  0.2390 -1.9574
  457MOL0     H61645   9.630   4.192   2.707 -2.9078 -0.7224  1.8352
  457MOL0     H61646   9.370   4.095   2.616 -1.2128 -0.5623  0.3778
  457MOL0     H61647   9.022   4.273   2.628  0.6779 -0.9762 -2.8065
  457MOL0     H61648   9.088   4.136   2.552 -0.1041  1.7106 -0.9819
  457MOL0     H61649   9.104   4.156   2.861 -0.0040 -0.9575 -0.4673
  457MOL0     H61650   9.136   4.014   2.769 -0.2999  0.7449 -0.0426
  457MOL0     H61651   8.932   3.985   2.855 -1.1095  0.1694  0.8460
  457MOL0     H61652   8.908   4.003   2.680 -0.0656  2.4892 -1.2127
  457MOL0     H61653   8.772   4.213   2.733 -0.1087  3.1683  2.1919
  457MOL0     H61654   8.881   4.242   2.878  1.2957  0.4570 -0.6238
  457MOL0     H61655   8.534   4.028   3.034  0.5114  0.3660  2.3328
  457MOL0     H61656   8.250   4.202   3.158  0.4436 -1.1296 -3.2248
  457MOL0     H61657   8.322   4.038   3.132  1.2956  0.6300 -1.0932
  457MOL0     H61658   8.361   4.117   3.275  1.0093 -0.2203 -0.2587
  457MOL0     H61659   8.351   4.568   3.458  0.5060 -1.9671  4.3741
  457MOL0     H61660   8.162   4.666   3.604  2.2587 -0.6008 -0.1250
  457MOL0     H61661   7.787   4.683   3.459  0.4296  0.9134  0.0061
  457MOL0     H61662   7.730   4.534   3.552  0.5987  0.1169 -2.3031
  457MOL0     H61663   7.710   4.691   3.749  2.4438  2.9284  0.0116
  457MOL0     H61664   7.708   4.832   3.647  0.5702 -0.6568  0.4846
  457MOL0     H61665   7.512   4.595   3.606 -2.5686  0.6335 -2.9710
  457MOL0     H61666   7.516   4.739   3.502 -1.6530  1.2591  0.4070
  457MOL0     H61667   7.444   4.711   3.793 -1.5165  0.4817  0.1552
  457MOL0     H61668   7.498   4.864   3.737  0.1435  1.5385 -1.2631
  457MOL0     H61669   7.319   4.845   3.563  1.8070  0.5759  0.4980
  457MOL0     H61670   7.256   4.853   3.729 -0.0955  2.1020 -1.8932
  457MOL0     H61671   7.269   4.591   3.593  0.4827  0.4967 -0.0178
  457MOL0     H61672   7.226   4.633   3.766  3.8694  1.7013  0.1376
  457MOL0     H61673   7.059   4.690   3.502 -2.6328 -0.7503  0.3468
  457MOL0     H61674   7.020   4.739   3.662 -1.9229 -2.3109  0.6949
  457MOL0     H61675   7.052   4.452   3.596  2.6921  1.2893 -1.2204
  457MOL0     H61676   6.903   4.536   3.570 -0.0630  2.4199  0.3793
  457MOL0     H61677   7.869   4.446   3.395  0.4144 -0.2807 -1.1957
  457MOL0     H61678   8.057   4.351   3.247 -0.8997  0.7001  0.3776
  457MOL0     H61679   8.557   4.515   3.003  1.9358  0.3223  1.9251
  457MOL0     H61680   8.716   4.395   2.885  0.6643  0.7211  1.0314
  457MOL0     H61681   9.179   5.002   2.365  0.8079 -2.8183 -0.3512
  457MOL0     H61682   8.964   5.110   2.299 -0.4919 -0.6315  1.0659
  457MOL0     H61683   8.505   5.133   2.168 -1.3750 -0.9663 -1.8652
  457MOL0     H61684   8.325   5.294   2.098 -0.0225  1.2047 -0.3507
  457MOL0     H61685   8.455   5.657   1.953  2.7033 -0.5306 -3.5873
  457MOL0     H61686   8.404   5.613   1.791 -0.4941 -0.2715 -1.0174
  457MOL0     H61687   8.201   5.702   1.992 -0.3797  2.6678 -0.5795
  457MOL0     H61688   8.165   5.684   1.826 -2.0677 -2.6181  2.1801
  457MOL0     H61689   8.389   5.866   1.782  1.6830 -2.2241  1.5144
  457MOL0     H61690   8.333   5.900   1.950 -2.7046 -1.2172  2.2311
  457MOL0     H61691   8.105   5.908   1.862  0.4153 -3.7763 -0.7544
  457MOL0     H61692   8.173   5.878   1.701  2.1815 -1.3078 -0.9168
  457MOL0     H61693   8.222   6.290   1.724 -0.5743 -0.1036 -0.7310
  457MOL0     H61694   8.596   5.482   1.832 -3.4003  1.6201  0.7033
  457MOL0     H61695   8.763   5.320   1.886 -0.2204 -1.5068  0.4620
  458MOL0     O61696   8.859   2.300   8.176  0.0071  0.5555  0.1871
  458MOL0     C61697   8.838   2.357   8.277  0.1383  0.9568 -1.1057
  458MOL0     O61698   8.914   2.452   8.342 -0.2878  0.1671  0.0203
  458MOL0     C61699   9.022   2.508   8.280  0.0861  0.1309  0.9156
  458MOL0     C61700   9.146   2.491   8.332  0.0851 -0.3122  0.6937
  458MOL0     C61701   9.252   2.569   8.288 -0.0139  0.0086  0.6328
  458MOL0     C61702   9.235   2.672   8.193  0.8889 -0.1710  0.9383
  458MOL0     O61703   9.331   2.753   8.150  0.2665 -0.5841 -0.6907
  458MOL0     C61704   9.435   2.689   8.073  0.0740  0.5953 -0.3129
  458MOL0     C61705   9.517   2.796   8.010 -0.0589  0.3848 -0.8676
  458MOL0     C61706   9.439   2.877   7.914 -0.8361 -0.2994  0.8079
  458MOL0     C61707   9.525   2.968   7.827 -0.2654  0.0810  1.0372
  458MOL0     C61708   9.453   3.063   7.736  0.4063 -0.4996 -0.1186
  458MOL0     C61709   9.542   3.146   7.642 -0.5143 -0.1518  0.3632
  458MOL0     C61710   9.457   3.237   7.568 -0.7846  0.4356  0.5197
  458MOL0     C61711   9.547   3.311   7.460  0.1583  0.4119  0.2061
  458MOL0     N61712   9.636   3.419   7.510  0.3148  0.3910  0.0963
  458MOL0     C61713   9.756   3.399   7.572 -1.2492  0.5507 -0.2387
  458MOL0     C61714   9.805   3.517   7.607 -0.4124 -0.3524  0.1834
  458MOL0     C61715   9.947   3.531   7.644 -0.0371 -0.6865 -0.1601
  458MOL0     C61716   9.983   3.671   7.704 -0.2569  0.1380  0.8042
  458MOL0     C61717   9.899   3.721   7.820  0.6671  0.0486 -0.3229
  458MOL0     C61718   9.925   3.623   7.939  0.4166  0.3899  0.0220
  458MOL0     O61719  10.056   3.649   7.991  0.2959 -0.9949  0.6139
  458MOL0     C61720  10.095   3.596   8.106 -0.3319  0.7889 -0.0042
  458MOL0     C61721  10.218   3.618   8.169 -0.5329 -0.1131  0.1618
  458MOL0     C61722  10.257   3.554   8.289 -0.9843 -1.0166  1.1641
  458MOL0     C61723  10.403   3.591   8.336  0.2273  0.2013  0.1310
  458MOL0     C61724  10.175   3.457   8.344 -0.0312 -0.8803 -0.0457
  458MOL0     C61725  10.191   3.404   8.475  0.7063 -0.8422 -0.6616
  458MOL0     O61726  10.086   3.327   8.515  0.4305  0.1549 -0.3752
  458MOL0     C61727  10.085   3.270   8.637 -0.7514 -0.5768 -0.0307
  458MOL0     C61728  10.059   3.131   8.646 -0.1299 -0.2171  0.3363
  458MOL0     C61729  10.060   3.070   8.773 -0.2409  0.4625 -0.3337
  458MOL0     C61730  10.081   3.147   8.891  0.2118 -0.0656  0.0202
  458MOL0     O61731  10.071   3.077   9.012  0.5752 -0.4402 -0.2506
  458MOL0     C61732  10.154   3.122   9.123 -0.3649 -0.7118  0.6402
  458MOL0     C61733  10.095   3.062   9.253  0.2115 -0.5898  0.0385
  458MOL0     C61734  10.156   2.921   9.289 -0.7933 -0.4992 -0.1497
  458MOL0     C61735  10.105   2.863   9.415  0.5089 -0.9217  0.2502
  458MOL0     C61736  10.162   2.726   9.451  0.8393 -0.0322 -0.0671
  458MOL0     C61737  10.123   2.607   9.369 -0.1532  0.1013  0.0831
  458MOL0     C61738  10.227   2.485   9.380  0.0754 -0.1639 -0.1276
  458MOL0     C61739  10.202   2.358   9.293 -0.5260 -1.0800  0.0482
  458MOL0    Cl61740  10.170   2.229   9.421  0.1246  0.3965 -0.1410
  458MOL0     C61741  10.119   3.282   8.883  0.0567  0.4873 -0.8148
  458MOL0     C61742  10.121   3.340   8.755 -0.4571 -0.7280 -0.7710
  458MOL0     O61743  10.290   3.428   8.538  0.0066  0.7561 -0.5141
  458MOL0     C61744  10.050   3.429   8.274 -0.4681  0.3365 -0.0088
  458MOL0     C61745  10.017   3.489   8.158  0.0136  0.8449 -0.2161
  458MOL0     N61746   9.710   3.615   7.566  0.0670  0.5069 -1.0233
  458MOL0     N61747   9.619   3.550   7.502  0.2800  0.2953 -0.0639
  458MOL0     C61748   9.111   2.702   8.140 -0.5284  0.2496 -0.2350
  458MOL0     C61749   9.001   2.623   8.187 -0.3808  0.4600  0.1665
  458MOL0     C61750   8.700   2.328   8.340 -0.1871  0.1917  0.7698
  458MOL0     C61751   8.647   2.417   8.447  0.2893 -0.7117  0.1245
  458MOL0     C61752   8.527   2.371   8.511  0.0399 -0.4002 -0.3914
  458MOL0     C61753   8.462   2.253   8.477  0.6144  0.1389 -0.2345
  458MOL0     O61754   8.346   2.217   8.540 -0.1875  0.4943 -0.1776
  458MOL0     C61755   8.345   2.252   8.675  0.1993 -0.0725  0.4666
  458MOL0     C61756   8.210   2.206   8.726  0.3672  0.2445 -0.2455
  458MOL0     C61757   8.180   2.226   8.886  0.0752  0.1513  0.3552
  458MOL0     C61758   8.093   2.124   8.958 -0.0868  0.3918 -0.0393
  458MOL0     C61759   7.950   2.157   8.919 -0.4716 -0.0554  0.6448
  458MOL0     C61760   7.840   2.198   8.894 -0.1886 -0.5410  0.5276
  458MOL0     C61761   8.502   2.184   8.360 -0.0096  0.8720 -0.4146
  458MOL0     C61762   8.626   2.208   8.298  0.5797 -0.5551 -0.2594
  458MOL0     H61763   9.153   2.423   8.416 -0.3490 -0.4194  0.6449
  458MOL0     H61764   9.355   2.548   8.315  0.3103 -1.5228 -1.5479
  458MOL0     H61765   9.493   2.625   8.140 -0.7758 -3.3895 -2.9901
  458MOL0     H61766   9.393   2.621   7.998 -0.5723 -0.2898  0.8110
  458MOL0     H61767   9.549   2.864   8.089 -0.7992 -2.0629  1.7087
  458MOL0     H61768   9.610   2.756   7.967  0.0904  1.2514 -1.3712
  458MOL0     H61769   9.401   2.804   7.842  0.9284 -1.5055  1.0544
  458MOL0     H61770   9.349   2.927   7.952 -0.9959 -1.1647  1.6300
  458MOL0     H61771   9.599   3.021   7.887 -3.0522  1.9852  3.0372
  458MOL0     H61772   9.573   2.900   7.756 -0.0952  2.0214 -0.7996
  458MOL0     H61773   9.377   3.013   7.675 -0.1207 -0.3013  0.3754
  458MOL0     H61774   9.399   3.142   7.789 -0.5357  1.7881 -4.0485
  458MOL0     H61775   9.613   3.199   7.707  0.3611 -1.6831  0.7085
  458MOL0     H61776   9.606   3.089   7.574  2.6334  3.8756 -0.4384
  458MOL0     H61777   9.386   3.177   7.510  2.0049 -0.7197 -1.9489
  458MOL0     H61778   9.415   3.318   7.629  1.8229  1.5792  0.9220
  458MOL0     H61779   9.477   3.358   7.391 -1.9254  0.2346  2.0858
  458MOL0     H61780   9.612   3.243   7.405  1.0426  1.6228 -0.2865
  458MOL0     H61781   9.806   3.302   7.574 -1.2447  0.5647  0.4424
  458MOL0     H61782   9.973   3.456   7.719 -0.7026 -1.2126 -0.4376
  458MOL0     H61783  10.004   3.508   7.553  0.1671  4.2969 -1.6307
  458MOL0     H61784   9.967   3.741   7.621 -2.4937 -1.0557  0.1398
  458MOL0     H61785  10.089   3.669   7.729  0.2543 -0.4982 -1.2168
  458MOL0     H61786   9.799   3.742   7.782  0.4227  3.2558  1.7184
  458MOL0     H61787   9.944   3.816   7.851  2.6685 -0.9468  0.0295
  458MOL0     H61788   9.914   3.516   7.914 -2.5806  0.9165 -1.3225
  458MOL0     H61789   9.851   3.639   8.017  1.9168  2.3091  1.1389
  458MOL0     H61790  10.289   3.684   8.120 -3.2047  2.5821 -0.3368
  458MOL0     H61791  10.464   3.502   8.353  3.3842  2.2252  0.2271
  458MOL0     H61792  10.453   3.652   8.260 -1.0218  1.6795  0.4349
  458MOL0     H61793  10.385   3.641   8.432 -0.3666 -0.0442  0.1521
  458MOL0     H61794  10.049   3.060   8.565  1.3255  1.4598 -1.3912
  458MOL0     H61795  10.043   2.963   8.772  1.5117  0.1560 -0.6779
  458MOL0     H61796  10.260   3.094   9.112  0.9660  4.0767 -0.9157
  458MOL0     H61797  10.141   3.229   9.143  2.3715 -0.1357 -0.2556
  458MOL0     H61798  10.102   3.140   9.329 -0.9098 -0.1742 -0.2658
  458MOL0     H61799   9.986   3.049   9.254  0.0470  0.6184  1.9029
  458MOL0     H61800  10.264   2.930   9.303 -0.6005 -2.6613  0.1724
  458MOL0     H61801  10.144   2.857   9.201 -2.7572  3.1233 -2.7637
  458MOL0     H61802  10.114   2.945   9.487  0.4968 -0.2846 -0.4647
  458MOL0     H61803   9.998   2.843   9.404  0.0167  1.8375 -0.6216
  458MOL0     H61804  10.146   2.700   9.556  0.3599  1.7761  0.3537
  458MOL0     H61805  10.268   2.739   9.427  0.1048 -0.7618 -4.5817
  458MOL0     H61806  10.024   2.571   9.398 -0.0799  0.2472  0.5267
  458MOL0     H61807  10.124   2.624   9.261  0.9223 -1.5559 -0.2270
  458MOL0     H61808  10.215   2.458   9.485 -0.3518  2.1364  0.4573
  458MOL0     H61809  10.332   2.515   9.372 -0.3484  1.2506 -0.7058
  458MOL0     H61810  10.292   2.339   9.235  0.9992  5.4726 -0.5349
  458MOL0     H61811  10.120   2.377   9.224 -0.0459  2.1040  0.1830
  458MOL0     H61812  10.162   3.338   8.965  2.0124 -1.3091 -0.5162
  458MOL0     H61813  10.152   3.443   8.761  4.3065 -1.8747 -1.4407
  458MOL0     H61814   9.971   3.357   8.292  0.4697 -0.3882  1.2933
  458MOL0     H61815   9.931   3.443   8.110 -1.5315 -0.6923  3.6248
  458MOL0     H61816   9.103   2.786   8.072 -0.4388  0.8637  0.4915
  458MOL0     H61817   8.905   2.655   8.149  0.1734 -0.7749 -2.5382
  458MOL0     H61818   8.693   2.510   8.477 -3.2263  2.3157 -2.9018
  458MOL0     H61819   8.501   2.442   8.589  0.2846  1.3989 -1.8788
  458MOL0     H61820   8.418   2.209   8.744  1.7410  0.7132 -0.6312
  458MOL0     H61821   8.345   2.361   8.687  4.9177  0.3004 -0.9141
  458MOL0     H61822   8.208   2.096   8.724  0.8952  0.0023  3.5898
  458MOL0     H61823   8.131   2.255   8.669 -0.9486 -0.4341  0.9252
  458MOL0     H61824   8.152   2.330   8.898 -2.2386 -0.2533 -0.9177
  458MOL0     H61825   8.281   2.218   8.928  0.1720 -1.1939 -0.0768
  458MOL0     H61826   8.104   2.124   9.066 -0.3786 -1.0982  0.0152
  458MOL0     H61827   8.119   2.022   8.929 -0.7471  0.3034 -0.3445
  458MOL0     H61828   7.739   2.226   8.871  0.3676 -1.0878 -3.1265
  458MOL0     H61829   8.448   2.097   8.326  0.6985  1.2653 -2.6675
  458MOL0     H61830   8.658   2.134   8.225 -0.4455 -2.3372  1.0376
  459MOL0     O61831   0.886   5.259   3.257  0.0859  0.0739  0.3064
  459MOL0     C61832   0.901   5.372   3.208 -0.0161 -0.5139 -0.3953
  459MOL0     O61833   1.026   5.434   3.173 -0.1161 -0.3086 -0.5579
  459MOL0     C61834   1.149   5.392   3.221 -0.0571 -0.0325  0.1997
  459MOL0     C61835   1.186   5.294   3.320  0.6873 -0.1415 -0.3257
  459MOL0     C61836   1.321   5.283   3.368 -0.8012  0.4944  0.2302
  459MOL0     C61837   1.419   5.354   3.296 -0.7130 -0.9262 -0.5145
  459MOL0     O61838   1.555   5.348   3.317 -0.0391  0.3040  0.5064
  459MOL0     C61839   1.610   5.265   3.417  0.0415 -0.4570 -0.1591
  459MOL0     C61840   1.760   5.274   3.388 -0.8340  0.8041  0.0149
  459MOL0     C61841   1.851   5.165   3.448 -0.2519 -0.1296 -0.1108
  459MOL0     C61842   1.987   5.179   3.372  0.6033  0.3973 -0.1909
  459MOL0     C61843   2.092   5.069   3.405  0.2261  0.0883 -0.3651
  459MOL0     C61844   2.139   5.075   3.550  0.3148  0.6165  0.4470
  459MOL0     C61845   2.250   4.973   3.569  0.1916  0.7131 -0.2484
  459MOL0     C61846   2.329   5.026   3.680 -0.9946 -0.2498 -0.6408
  459MOL0     N61847   2.246   5.042   3.802  0.0709  0.2424 -0.6032
  459MOL0     C61848   2.251   5.156   3.885  0.4761 -0.5622 -0.5439
  459MOL0     C61849   2.185   5.141   3.993  0.7509 -0.2984  0.2796
  459MOL0     C61850   2.188   5.237   4.112  0.2605  0.0977 -0.0923
  459MOL0     C61851   2.053   5.245   4.173 -0.1713 -0.7355  0.5540
  459MOL0     C61852   2.022   5.375   4.240 -0.6308  0.6421 -0.1216
  459MOL0     C61853   1.876   5.378   4.311 -0.5608 -0.8119  0.8549
  459MOL0     O61854   1.842   5.518   4.346  0.9283  0.5734  0.0940
  459MOL0     C61855   1.919   5.592   4.429 -0.1391 -0.5515 -0.5234
  459MOL0     C61856   1.885   5.730   4.445  0.2077  0.7336 -0.1533
  459MOL0     C61857   1.956   5.827   4.525 -0.3417 -0.1837 -0.7740
  459MOL0     C61858   1.901   5.965   4.509 -0.5912 -0.2516 -0.9217
  459MOL0     C61859   2.081   5.786   4.589 -0.3185 -0.5218  1.0338
  459MOL0     C61860   2.165   5.889   4.662  0.1644 -0.0783  0.2083
  459MOL0     O61861   2.163   6.020   4.630  0.6564  0.1278  0.2400
  459MOL0     C61862   2.253   6.100   4.700  0.4576  0.1296  0.3884
  459MOL0     C61863   2.375   6.124   4.638  0.4598 -0.3745 -0.1894
  459MOL0     C61864   2.454   6.229   4.701 -0.2002  0.1320  0.4718
  459MOL0     C61865   2.421   6.291   4.817 -0.8700 -1.0692  0.3080
  459MOL0     O61866   2.501   6.397   4.850  0.0182  0.2395  0.3728
  459MOL0     C61867   2.457   6.478   4.953  0.0587  1.1700  0.4076
  459MOL0     C61868   2.549   6.599   4.950 -0.6334 -0.1458  0.9705
  459MOL0     C61869   2.697   6.560   4.968  0.1815 -0.0049 -0.0503
  459MOL0     C61870   2.786   6.690   4.965 -0.7859  0.7367 -0.5341
  459MOL0     C61871   2.930   6.644   4.933  0.7612  1.0620 -0.5693
  459MOL0     C61872   3.032   6.764   4.953  0.4222  0.0465 -0.3754
  459MOL0     C61873   3.166   6.719   4.891 -0.1883  0.1873  0.3306
  459MOL0     C61874   3.266   6.835   4.887 -0.1801  0.8666 -0.8883
  459MOL0    Cl61875   3.194   6.957   4.766 -0.5387 -0.0484 -0.2426
  459MOL0     C61876   2.298   6.247   4.882 -0.3957 -0.1319  0.5506
  459MOL0     C61877   2.219   6.155   4.824  0.2762  0.9037 -0.6911
  459MOL0     O61878   2.240   5.838   4.741 -1.0925  0.2466 -0.3063
  459MOL0     C61879   2.121   5.649   4.571 -0.1775 -0.2167 -0.4084
  459MOL0     C61880   2.041   5.562   4.490 -0.3888  0.3726 -1.3781
  459MOL0     N61881   2.113   5.021   3.966 -0.5769 -0.7650 -0.1670
  459MOL0     N61882   2.143   4.969   3.853 -0.1929  1.2448 -0.5228
  459MOL0     C61883   1.385   5.452   3.196 -0.2593  0.1727 -0.6918
  459MOL0     C61884   1.250   5.472   3.169 -0.8534 -0.9007 -0.1761
  459MOL0     C61885   0.780   5.458   3.189  0.0130 -0.6934 -0.3053
  459MOL0     C61886   0.774   5.566   3.106  0.0690 -0.6980 -0.1686
  459MOL0     C61887   0.651   5.636   3.064 -0.3173  0.3303  0.3770
  459MOL0     C61888   0.529   5.575   3.106  0.2505 -0.0669 -0.4515
  459MOL0     O61889   0.436   5.664   3.063 -0.9142 -0.1011 -0.0129
  459MOL0     C61890   0.297   5.646   3.092 -0.8589  0.1930 -0.4131
  459MOL0     C61891   0.213   5.769   3.071 -0.1620 -0.9721 -0.1099
  459MOL0     C61892   0.087   5.764   3.152 -0.6016  0.1454  0.3301
  459MOL0     C61893   0.026   5.906   3.158 -0.5389  0.0716  0.5038
  459MOL0     C61894  -0.108   5.905   3.223 -0.7288  0.1344  0.5960
  459MOL0     C61895  -0.217   5.908   3.257  0.1401 -0.4093 -0.3170
  459MOL0     C61896   0.527   5.461   3.185  0.7898 -0.4606  0.1658
  459MOL0     C61897   0.652   5.404   3.221 -0.1259 -0.1675  0.1634
  459MOL0     H61898   1.108   5.236   3.370 -0.3902 -0.1681 -1.9566
  459MOL0     H61899   1.366   5.215   3.439 -1.9082  1.4064  1.8808
  459MOL0     H61900   1.584   5.305   3.515  0.2200  0.6912 -0.5591
  459MOL0     H61901   1.582   5.160   3.405  1.9297 -0.8716 -1.4092
  459MOL0     H61902   1.756   5.266   3.279 -2.5339  1.7375 -0.0397
  459MOL0     H61903   1.789   5.376   3.415 -0.5306  0.3994  1.2572
  459MOL0     H61904   1.850   5.183   3.556 -1.1705 -1.6659  0.1600
  459MOL0     H61905   1.809   5.065   3.433  3.5041 -1.6234 -1.9362
  459MOL0     H61906   1.977   5.173   3.263  2.9378 -1.8123 -0.3752
  459MOL0     H61907   2.028   5.278   3.395 -0.6705  0.4308  2.2319
  459MOL0     H61908   2.054   4.970   3.377  0.9057 -0.0414 -0.8377
  459MOL0     H61909   2.178   5.091   3.341  1.3618 -0.1786  1.0101
  459MOL0     H61910   2.175   5.178   3.564  1.0286  0.4677 -0.2225
  459MOL0     H61911   2.054   5.049   3.613 -1.6845  0.3490 -2.2052
  459MOL0     H61912   2.206   4.874   3.583 -6.3660  2.9665 -1.3880
  459MOL0     H61913   2.320   4.979   3.485  0.4286 -0.2795 -0.1294
  459MOL0     H61914   2.381   5.120   3.661 -0.0220 -0.5842  0.2482
  459MOL0     H61915   2.405   4.955   3.714 -1.2654 -0.3185 -0.1692
  459MOL0     H61916   2.319   5.239   3.867 -1.0904  1.4086  1.8607
  459MOL0     H61917   2.261   5.199   4.184  0.4426  3.8109  1.9154
  459MOL0     H61918   2.216   5.338   4.080  0.9592 -0.0214  0.1295
  459MOL0     H61919   2.054   5.171   4.254 -1.5031 -0.6477  0.6786
  459MOL0     H61920   1.966   5.224   4.110  1.3788  0.7679 -2.2484
  459MOL0     H61921   2.018   5.457   4.168 -2.3024  1.6688  1.0709
  459MOL0     H61922   2.106   5.399   4.306 -0.7276 -0.3762  0.3970
  459MOL0     H61923   1.868   5.320   4.403 -0.0252  0.9672  2.0673
  459MOL0     H61924   1.804   5.355   4.231  0.2207  0.2037 -0.1679
  459MOL0     H61925   1.792   5.762   4.399 -1.1435 -1.6254  0.7424
  459MOL0     H61926   1.795   5.960   4.481 -1.9836  0.7837  3.4197
  459MOL0     H61927   1.910   6.018   4.604  0.7080 -2.9192  0.5521
  459MOL0     H61928   1.956   6.024   4.435 -0.9659  0.0274 -0.9807
  459MOL0     H61929   2.413   6.086   4.543  1.0681 -0.4884  0.0931
  459MOL0     H61930   2.536   6.276   4.648 -0.9969  1.3455  0.2786
  459MOL0     H61931   2.355   6.514   4.937 -0.8797 -1.0341  1.0488
  459MOL0     H61932   2.462   6.428   5.050 -0.7453  0.8099  0.2707
  459MOL0     H61933   2.541   6.642   4.850  0.8087 -1.6697  0.1471
  459MOL0     H61934   2.524   6.670   5.030 -0.9851 -1.3878  1.9994
  459MOL0     H61935   2.736   6.491   4.893  0.6341 -0.3892  0.5334
  459MOL0     H61936   2.715   6.508   5.063 -1.1608  2.1149  1.4812
  459MOL0     H61937   2.745   6.757   4.889 -4.7426 -0.8272 -0.0534
  459MOL0     H61938   2.784   6.736   5.064 -0.0861 -1.5887  0.6297
  459MOL0     H61939   2.941   6.637   4.824  1.2422  0.8545 -0.5058
  459MOL0     H61940   2.953   6.553   4.987  0.2076 -0.6111 -2.9701
  459MOL0     H61941   2.991   6.859   4.916  2.2746  0.2934 -1.9093
  459MOL0     H61942   3.048   6.783   5.060  0.9515  1.8589 -0.7413
  459MOL0     H61943   3.154   6.685   4.788 -1.2070  0.9755  0.1759
  459MOL0     H61944   3.196   6.635   4.955 -3.5712 -0.2019  1.6082
  459MOL0     H61945   3.367   6.803   4.861  0.1106  0.4608  0.6120
  459MOL0     H61946   3.268   6.882   4.986 -4.0522  1.4191 -0.8941
  459MOL0     H61947   2.262   6.308   4.964 -0.1364  4.7271 -2.5587
  459MOL0     H61948   2.133   6.118   4.879  0.8700 -1.8326 -1.4344
  459MOL0     H61949   2.200   5.611   4.636 -0.5896 -3.4420 -1.6339
  459MOL0     H61950   2.077   5.460   4.490 -1.2214  0.0693 -0.9005
  459MOL0     H61951   1.458   5.520   3.154  0.1438 -0.2818 -0.7414
  459MOL0     H61952   1.216   5.546   3.097 -1.4266 -3.0201 -2.1989
  459MOL0     H61953   0.866   5.589   3.053  0.4891 -2.2508 -0.1661
  459MOL0     H61954   0.660   5.715   2.990  0.7845 -0.0041  0.1374
  459MOL0     H61955   0.261   5.549   3.056  1.3016 -2.5195  3.9159
  459MOL0     H61956   0.290   5.615   3.196  1.4814  0.1614 -0.2101
  459MOL0     H61957   0.191   5.799   2.968 -0.0870  2.5300  0.7621
  459MOL0     H61958   0.281   5.847   3.107 -0.3423 -2.0651  2.9047
  459MOL0     H61959   0.098   5.727   3.255 -0.4370  1.0750  0.6626
  459MOL0     H61960   0.015   5.696   3.106  0.1687 -2.1585  2.3263
  459MOL0     H61961   0.016   5.952   3.060  4.9861 -0.0238 -0.3886
  459MOL0     H61962   0.088   5.978   3.213 -0.8680  0.7304  0.0256
  459MOL0     H61963  -0.314   5.936   3.293  0.1588 -3.1645  2.3455
  459MOL0     H61964   0.428   5.417   3.198 -0.5322  1.8703 -1.2237
  459MOL0     H61965   0.638   5.310   3.273  0.1984 -0.3705 -0.1065
  460MOL0     O61966   5.461   6.292   0.574 -0.0582 -0.7487  0.6671
  460MOL0     C61967   5.520   6.383   0.522 -0.4287 -0.0438  0.4164
  460MOL0     O61968   5.634   6.363   0.454 -0.7383 -0.1601  0.4089
  460MOL0     C61969   5.725   6.258   0.475 -0.2608  0.2777  0.7585
  460MOL0     C61970   5.830   6.249   0.376 -0.7468 -0.4461  0.1160
  460MOL0     C61971   5.927   6.156   0.391 -0.4353 -0.5481  0.0709
  460MOL0     C61972   5.923   6.069   0.502 -0.2416 -0.2276  1.1355
  460MOL0     O61973   6.018   5.977   0.544 -0.7335 -0.6271 -0.3797
  460MOL0     C61974   6.080   5.913   0.435 -0.2298 -0.0818  1.1692
  460MOL0     C61975   6.208   5.842   0.481 -0.5677 -1.0609 -1.2399
  460MOL0     C61976   6.302   5.943   0.538 -0.0513  0.6696  0.6872
  460MOL0     C61977   6.419   5.858   0.585 -0.5593  0.1354  0.3027
  460MOL0     C61978   6.517   5.938   0.680  0.0883  0.8145 -0.3250
  460MOL0     C61979   6.636   5.848   0.717  0.7724  0.3857  0.1537
  460MOL0     C61980   6.761   5.934   0.768  0.4879 -0.0248 -0.3567
  460MOL0     C61981   6.878   5.858   0.851  0.5202  0.6086 -0.2411
  460MOL0     N61982   6.933   5.748   0.780  0.3282 -0.9776 -0.2055
  460MOL0     C61983   6.877   5.628   0.787 -0.2151 -0.5477  0.0728
  460MOL0     C61984   6.960   5.543   0.721  0.5614  0.5286 -0.1817
  460MOL0     C61985   6.921   5.406   0.656 -0.7184 -0.2384  0.7234
  460MOL0     C61986   6.765   5.372   0.650 -0.5605 -0.1418 -0.5219
  460MOL0     C61987   6.749   5.249   0.567 -0.7002  0.0219 -0.5597
  460MOL0     C61988   6.606   5.206   0.548 -0.1725  0.2022 -0.2265
  460MOL0     O61989   6.562   5.140   0.665  0.0660  1.1407 -0.8760
  460MOL0     C61990   6.426   5.113   0.703 -0.0255  0.4200 -0.3628
  460MOL0     C61991   6.319   5.149   0.626  0.0837  0.4400  0.7788
  460MOL0     C61992   6.188   5.112   0.662 -0.6568 -0.0542 -1.2371
  460MOL0     C61993   6.088   5.147   0.562 -0.4708 -0.2726 -0.2161
  460MOL0     C61994   6.174   5.028   0.778  0.3802 -0.2661 -1.1082
  460MOL0     C61995   6.039   5.008   0.828 -0.4451  0.2536 -0.2177
  460MOL0     O61996   6.009   4.882   0.874 -0.0377  0.2596 -0.0822
  460MOL0     C61997   5.879   4.855   0.908 -0.3209  0.0262 -0.7831
  460MOL0     C61998   5.784   4.876   0.813  0.5051  0.0750  0.9092
  460MOL0     C61999   5.660   4.810   0.834  0.6492  0.0406 -0.3357
  460MOL0     C62000   5.630   4.742   0.950 -0.5036  0.4456  0.2594
  460MOL0     O62001   5.519   4.689   1.004  0.1713 -0.4529 -0.1883
  460MOL0     C62002   5.400   4.701   0.931 -0.7099 -0.5540 -0.4395
  460MOL0     C62003   5.305   4.606   0.997 -0.6195  1.0597 -0.4930
  460MOL0     C62004   5.268   4.645   1.132 -0.5036 -0.3420  0.2453
  460MOL0     C62005   5.160   4.544   1.198  0.8785 -0.9519  0.1659
  460MOL0     C62006   5.134   4.589   1.341 -0.4846 -0.4274 -0.0748
  460MOL0     C62007   5.243   4.528   1.437  0.4359  0.2600  0.3628
  460MOL0     C62008   5.267   4.593   1.570  0.0990  0.1638  0.4708
  460MOL0     C62009   5.139   4.619   1.648 -0.3971 -0.6073 -0.2739
  460MOL0    Cl62010   5.031   4.466   1.652  0.4290 -0.1353 -0.1089
  460MOL0     C62011   5.726   4.720   1.047  0.1391 -0.4244  0.3623
  460MOL0     C62012   5.852   4.775   1.017 -0.8442 -0.5863  0.5101
  460MOL0     O62013   5.972   5.113   0.834  0.1967  0.3562 -0.0995
  460MOL0     C62014   6.288   4.990   0.862  1.1737 -0.4108 -0.5468
  460MOL0     C62015   6.416   5.031   0.815  0.6413 -0.3760  0.8889
  460MOL0     N62016   7.071   5.613   0.690  0.7514 -0.7324 -0.5913
  460MOL0     N62017   7.055   5.740   0.714  0.4061  0.0182 -0.3693
  460MOL0     C62018   5.812   6.067   0.587 -0.8939  0.0907  0.8659
  460MOL0     C62019   5.718   6.162   0.581  1.0603 -1.4925  0.8762
  460MOL0     C62020   5.448   6.507   0.510  0.3583  0.2263  0.8980
  460MOL0     C62021   5.361   6.553   0.606 -0.3725 -0.1340 -0.4281
  460MOL0     C62022   5.304   6.682   0.585 -0.0163 -0.2745  0.3158
  460MOL0     C62023   5.328   6.756   0.463  0.5639  0.9219 -0.7774
  460MOL0     O62024   5.295   6.887   0.438 -0.4287 -0.1737 -0.1633
  460MOL0     C62025   5.206   6.949   0.530  0.5331 -0.3527 -0.5067
  460MOL0     C62026   5.155   7.087   0.485 -0.5380 -0.1162  0.0912
  460MOL0     C62027   5.064   7.143   0.598 -0.4185  0.5818  0.0662
  460MOL0     C62028   5.035   7.290   0.579  0.1972 -0.2713  0.9587
  460MOL0     C62029   4.939   7.301   0.475 -0.0978 -0.3273  0.1325
  460MOL0     C62030   4.865   7.310   0.384 -0.4635 -0.4145  0.7385
  460MOL0     C62031   5.405   6.701   0.366  0.5267  0.4258 -0.1511
  460MOL0     C62032   5.462   6.576   0.388  0.9823 -0.3456  0.2965
  460MOL0     H62033   5.839   6.335   0.310 -0.4043  0.8582  1.8048
  460MOL0     H62034   6.024   6.166   0.343 -1.3145 -2.9833 -2.4470
  460MOL0     H62035   6.013   5.837   0.393 -0.0898  0.5150 -0.2044
  460MOL0     H62036   6.110   5.980   0.354  1.1134 -3.4865 -1.4418
  460MOL0     H62037   6.186   5.780   0.569  2.1402  0.7029  0.8777
  460MOL0     H62038   6.250   5.792   0.394  0.9385 -2.4646  0.2161
  460MOL0     H62039   6.324   6.021   0.464 -2.6382  1.9034  1.0794
  460MOL0     H62040   6.259   5.992   0.627 -0.7270 -2.2662  2.1080
  460MOL0     H62041   6.394   5.765   0.637  3.4760 -0.9295  0.6972
  460MOL0     H62042   6.463   5.825   0.489 -1.5317  1.0740 -0.4826
  460MOL0     H62043   6.561   6.029   0.638 -0.3710  1.3041  0.2487
  460MOL0     H62044   6.465   5.964   0.773  1.4459  1.1039  0.3783
  460MOL0     H62045   6.596   5.788   0.799 -0.6745 -0.6422 -1.2337
  460MOL0     H62046   6.665   5.778   0.638 -2.0372 -1.5514  0.7030
  460MOL0     H62047   6.811   5.969   0.678  0.0134 -1.4980 -1.2430
  460MOL0     H62048   6.734   6.018   0.832  1.5011  0.9368 -1.1419
  460MOL0     H62049   6.838   5.828   0.949  2.6142 -1.6070  0.0140
  460MOL0     H62050   6.961   5.924   0.876 -1.1722  2.8300 -0.1727
  460MOL0     H62051   6.777   5.620   0.830 -0.5984 -2.7194 -1.0617
  460MOL0     H62052   6.978   5.405   0.563  1.7817 -0.0805  2.1476
  460MOL0     H62053   6.972   5.330   0.717  0.9434  1.5004  1.5986
  460MOL0     H62054   6.721   5.457   0.596 -0.4740 -0.5024 -1.1792
  460MOL0     H62055   6.714   5.363   0.746 -2.2773  1.8000 -1.1788
  460MOL0     H62056   6.797   5.175   0.632 -4.2753  0.3087  2.7970
  460MOL0     H62057   6.801   5.273   0.474 -0.3268  3.7325  0.4442
  460MOL0     H62058   6.598   5.134   0.466 -0.9690 -0.5917  0.5264
  460MOL0     H62059   6.533   5.280   0.515 -0.2413  0.3090  0.1636
  460MOL0     H62060   6.319   5.214   0.538  2.1746 -1.6023 -0.8686
  460MOL0     H62061   6.002   5.081   0.553 -2.6997  2.6906 -3.0923
  460MOL0     H62062   6.054   5.246   0.595  3.0684  0.1216  2.9248
  460MOL0     H62063   6.121   5.160   0.458  1.0403 -0.5148  0.2039
  460MOL0     H62064   5.810   4.933   0.724  2.0219  1.8888  2.4603
  460MOL0     H62065   5.579   4.837   0.767  1.7247  1.9808 -0.9327
  460MOL0     H62066   5.369   4.804   0.947  0.0214 -0.3640 -0.2045
  460MOL0     H62067   5.399   4.688   0.822  1.7249 -0.5591 -0.5214
  460MOL0     H62068   5.217   4.583   0.936 -1.3479 -0.1526  0.9600
  460MOL0     H62069   5.359   4.512   1.007  2.1185  2.6263  0.6187
  460MOL0     H62070   5.226   4.745   1.125  1.2065  0.9617  4.8747
  460MOL0     H62071   5.351   4.654   1.202 -2.0708  0.2459  2.1067
  460MOL0     H62072   5.073   4.555   1.134  1.2801  1.2030 -0.1107
  460MOL0     H62073   5.188   4.439   1.198 -2.4106 -1.9455  0.9289
  460MOL0     H62074   5.041   4.540   1.373 -0.1303 -0.7528  0.4676
  460MOL0     H62075   5.125   4.698   1.350 -1.5657 -0.3537 -1.5959
  460MOL0     H62076   5.218   4.422   1.449 -1.4786  0.4460 -1.3554
  460MOL0     H62077   5.334   4.523   1.376 -0.1726  0.0979 -0.5609
  460MOL0     H62078   5.321   4.687   1.549  1.2984 -0.8902 -1.4763
  460MOL0     H62079   5.343   4.539   1.627 -0.1018 -0.9940 -0.3183
  460MOL0     H62080   5.080   4.709   1.625 -2.7095 -1.7293  0.9401
  460MOL0     H62081   5.163   4.635   1.754 -1.5323  1.0007 -0.2281
  460MOL0     H62082   5.710   4.665   1.140 -0.9975 -0.9702 -0.1323
  460MOL0     H62083   5.927   4.750   1.091  0.0997 -1.6181 -0.7554
  460MOL0     H62084   6.270   4.935   0.953 -0.6753  1.3878  0.2641
  460MOL0     H62085   6.507   4.987   0.856  1.4148  0.5844  0.2570
  460MOL0     H62086   5.808   5.996   0.669 -2.6973  0.1936  0.9067
  460MOL0     H62087   5.642   6.170   0.658  1.4513  2.1066  1.0481
  460MOL0     H62088   5.348   6.487   0.692  0.0007 -0.1732 -0.4005
  460MOL0     H62089   5.247   6.722   0.668 -1.2575 -1.6654  0.1651
  460MOL0     H62090   5.117   6.887   0.544  2.0795 -2.5385  0.2222
  460MOL0     H62091   5.244   6.961   0.632  1.0673 -0.6971 -0.6579
  460MOL0     H62092   5.100   7.067   0.393 -0.0034  0.3231 -0.3335
  460MOL0     H62093   5.243   7.147   0.460 -1.3402  0.6565 -0.9683
  460MOL0     H62094   5.110   7.118   0.694 -1.0530  1.4672  0.6017
  460MOL0     H62095   4.974   7.082   0.596 -0.8269  0.9698  2.9965
  460MOL0     H62096   5.121   7.353   0.557 -1.8780  3.1808  1.7803
  460MOL0     H62097   4.978   7.332   0.664  0.7764  4.0029 -0.5227
  460MOL0     H62098   4.798   7.307   0.300  1.0307  0.3382 -0.5425
  460MOL0     H62099   5.422   6.756   0.274  0.8813  0.3766 -0.1132
  460MOL0     H62100   5.516   6.523   0.310 -1.0309 -1.6392 -0.2876
  461MOL0     O62101   6.381   4.359   0.542 -0.4009 -0.4073  0.5582
  461MOL0     C62102   6.325   4.469   0.544 -0.2308 -0.4733 -1.0223
  461MOL0     O62103   6.387   4.595   0.543 -0.2881 -0.7712 -0.0455
  461MOL0     C62104   6.520   4.618   0.582  0.3946 -0.1355 -0.1726
  461MOL0     C62105   6.573   4.746   0.556  0.4671  0.0899  1.4964
  461MOL0     C62106   6.692   4.789   0.611 -0.5300 -0.0825  0.0800
  461MOL0     C62107   6.765   4.699   0.695 -0.3091  0.0975 -0.5434
  461MOL0     O62108   6.873   4.729   0.772 -0.6698 -0.0262 -0.3390
  461MOL0     C62109   6.906   4.870   0.799  0.4556 -0.8429 -0.4654
  461MOL0     C62110   7.021   4.882   0.901 -0.7296 -0.4954 -0.1580
  461MOL0     C62111   7.075   5.031   0.908  0.9748  0.0155  0.1172
  461MOL0     C62112   7.191   5.034   1.009  0.5375 -0.1203 -0.4638
  461MOL0     C62113   7.240   5.168   1.034 -0.1076 -0.0961 -0.1357
  461MOL0     C62114   7.273   5.241   0.907 -0.4194  0.7597 -0.6946
  461MOL0     C62115   7.353   5.373   0.946  0.5565  0.1583  0.4333
  461MOL0     C62116   7.399   5.444   0.824 -0.8230 -1.4746  0.5345
  461MOL0     N62117   7.511   5.354   0.767 -0.3455  0.0239 -0.1083
  461MOL0     C62118   7.614   5.298   0.848 -0.3326 -0.7164 -0.2243
  461MOL0     C62119   7.684   5.226   0.760 -0.3050  0.1170  0.4194
  461MOL0     C62120   7.803   5.152   0.804  0.0056  0.0560 -0.0455
  461MOL0     C62121   7.806   5.005   0.751 -0.8456 -0.1790 -0.3072
  461MOL0     C62122   7.686   4.911   0.787  1.3110 -0.6587  0.3308
  461MOL0     C62123   7.544   4.957   0.737 -1.2794  0.0018  0.3540
  461MOL0     O62124   7.463   4.846   0.721  0.4209 -0.0801 -0.4593
  461MOL0     C62125   7.345   4.872   0.641  1.5322  0.2339  0.0216
  461MOL0     C62126   7.301   4.982   0.570 -0.0673 -0.4742  0.5899
  461MOL0     C62127   7.187   4.993   0.489 -0.0748  0.3119 -0.1435
  461MOL0     C62128   7.156   5.119   0.409  0.2287 -0.4991 -0.0572
  461MOL0     C62129   7.106   4.869   0.476 -0.2163 -0.6676  0.3007
  461MOL0     C62130   6.986   4.855   0.393  0.9598 -0.2111  0.3979
  461MOL0     O62131   6.950   4.733   0.343 -0.4901 -0.2649 -0.1271
  461MOL0     C62132   6.863   4.718   0.246  0.3966 -0.1193 -0.0464
  461MOL0     C62133   6.859   4.801   0.137  0.5163 -0.0205 -0.4119
  461MOL0     C62134   6.763   4.769   0.043 -0.6033 -0.3228 -0.7388
  461MOL0     C62135   6.687   4.653   0.044  0.0123  0.0776  0.2820
  461MOL0     O62136   6.596   4.628  -0.059  0.4717  0.3800  0.1920
  461MOL0     C62137   6.548   4.495  -0.092  0.8173 -0.4173  0.1964
  461MOL0     C62138   6.495   4.502  -0.235 -0.4018  0.1185 -0.3124
  461MOL0     C62139   6.436   4.365  -0.290 -0.0710  0.2598 -0.8922
  461MOL0     C62140   6.457   4.344  -0.435  0.1385 -0.4490 -0.9116
  461MOL0     C62141   6.376   4.218  -0.477  0.1428 -0.5904  0.8023
  461MOL0     C62142   6.403   4.089  -0.409  0.2144  0.8570 -0.5426
  461MOL0     C62143   6.534   4.028  -0.453  0.0564  0.6453  0.6159
  461MOL0     C62144   6.587   3.925  -0.357 -0.3772 -0.2723 -1.0465
  461MOL0    Cl62145   6.622   3.997  -0.184 -0.6637  0.0245  0.5936
  461MOL0     C62146   6.697   4.574   0.155 -0.0721  0.9581 -0.4323
  461MOL0     C62147   6.782   4.600   0.255 -0.5809 -1.0859  0.8429
  461MOL0     O62148   6.909   4.954   0.380 -0.7890  0.2260  0.3283
  461MOL0     C62149   7.147   4.755   0.549 -0.0073 -1.1083  0.8865
  461MOL0     C62150   7.263   4.767   0.631  0.0056 -0.0735  0.1333
  461MOL0     N62151   7.636   5.241   0.638 -0.4852  0.1477 -0.6655
  461MOL0     N62152   7.533   5.312   0.638 -0.6450 -0.2160  0.4319
  461MOL0     C62153   6.726   4.560   0.713  0.2773 -0.0450 -0.1760
  461MOL0     C62154   6.599   4.524   0.656  0.1529 -0.7090  0.5559
  461MOL0     C62155   6.180   4.466   0.559  0.6667 -0.6387  0.0461
  461MOL0     C62156   6.113   4.346   0.594 -0.9271 -0.3532 -0.1014
  461MOL0     C62157   5.981   4.344   0.615 -0.1596  0.2612  0.9667
  461MOL0     C62158   5.907   4.455   0.592  0.2650  0.1629  0.3863
  461MOL0     O62159   5.767   4.464   0.590  0.0928  0.2923  0.4383
  461MOL0     C62160   5.685   4.351   0.553 -0.4762 -0.2907 -0.1307
  461MOL0     C62161   5.709   4.312   0.408  0.0725 -0.6348 -0.5839
  461MOL0     C62162   5.650   4.414   0.300  0.2580  0.0950 -0.0446
  461MOL0     C62163   5.500   4.431   0.303 -0.0757 -0.1259 -0.0351
  461MOL0     C62164   5.453   4.359   0.185 -0.8808  0.7552  0.9620
  461MOL0     C62165   5.430   4.307   0.077 -0.4169  0.5659 -0.4675
  461MOL0     C62166   5.969   4.574   0.546  0.5513 -0.0279 -1.3041
  461MOL0     C62167   6.105   4.583   0.539 -0.1234 -0.7498 -0.0328
  461MOL0     H62168   6.523   4.807   0.481  0.7291 -0.1582  1.1134
  461MOL0     H62169   6.727   4.889   0.587 -1.6186  0.9714  2.5484
  461MOL0     H62170   6.935   4.934   0.715 -0.0385  2.1795  1.5329
  461MOL0     H62171   6.810   4.906   0.837  1.6029 -2.4815  4.8197
  461MOL0     H62172   6.991   4.857   1.003 -3.0668  0.3626 -0.5606
  461MOL0     H62173   7.095   4.812   0.863 -1.5312 -0.1687 -2.4720
  461MOL0     H62174   7.110   5.055   0.807 -1.7882 -1.8227 -1.3904
  461MOL0     H62175   6.985   5.090   0.929  1.6237  0.6430  1.2754
  461MOL0     H62176   7.160   4.983   1.101  2.0143 -3.9694 -1.8886
  461MOL0     H62177   7.280   4.980   0.976  1.9984  3.0806 -2.1657
  461MOL0     H62178   7.159   5.224   1.082 -0.5077 -1.1194  0.3921
  461MOL0     H62179   7.320   5.170   1.109 -0.9001  0.0995  0.7278
  461MOL0     H62180   7.333   5.185   0.835 -0.2698  0.0876 -0.0545
  461MOL0     H62181   7.178   5.266   0.857 -0.9992 -0.6962 -0.3762
  461MOL0     H62182   7.286   5.436   1.005 -2.5408  0.4874 -3.0624
  461MOL0     H62183   7.437   5.336   1.004  0.4335 -1.1862 -0.2104
  461MOL0     H62184   7.433   5.545   0.850 -1.4500 -1.3549  0.9231
  461MOL0     H62185   7.317   5.458   0.753  1.7296  0.7405 -2.2553
  461MOL0     H62186   7.626   5.301   0.956 -0.6556 -0.0076 -0.2042
  461MOL0     H62187   7.892   5.211   0.780 -0.5081  0.9980  0.3236
  461MOL0     H62188   7.794   5.124   0.910  0.4763 -0.6288 -0.1793
  461MOL0     H62189   7.888   4.954   0.801 -0.9788 -0.1667 -0.0718
  461MOL0     H62190   7.822   5.003   0.643 -1.0392  2.3160 -0.4496
  461MOL0     H62191   7.661   4.899   0.893 -2.8071  0.6897 -0.3174
  461MOL0     H62192   7.700   4.814   0.739 -1.8715 -1.8104  1.4645
  461MOL0     H62193   7.565   4.999   0.639  2.0212  1.2150  1.4512
  461MOL0     H62194   7.499   5.034   0.800 -0.4060 -0.0033  1.0165
  461MOL0     H62195   7.354   5.074   0.592  1.3777 -0.4336 -2.5087
  461MOL0     H62196   7.161   5.099   0.302 -0.1048 -3.3181  0.3963
  461MOL0     H62197   7.054   5.154   0.427 -0.2605 -2.2099  0.7117
  461MOL0     H62198   7.218   5.204   0.441 -1.8852 -0.0479  3.3557
  461MOL0     H62199   6.916   4.893   0.129 -1.1205  1.0157 -0.7285
  461MOL0     H62200   6.744   4.828  -0.046 -4.9780  1.3273  1.0059
  461MOL0     H62201   6.632   4.425  -0.090  2.9265  1.9348 -0.7199
  461MOL0     H62202   6.467   4.462  -0.026  1.4337 -0.3528  1.0018
  461MOL0     H62203   6.430   4.589  -0.240  1.8049  1.7660 -2.4106
  461MOL0     H62204   6.576   4.529  -0.303  1.0142  0.4271  1.4477
  461MOL0     H62205   6.326   4.367  -0.284 -0.2518  1.2283 -3.3807
  461MOL0     H62206   6.486   4.281  -0.242 -0.2096  0.2947 -0.6873
  461MOL0     H62207   6.412   4.426  -0.493 -0.4364  0.4009  0.6855
  461MOL0     H62208   6.564   4.332  -0.457 -0.2476 -2.7017 -1.7978
  461MOL0     H62209   6.383   4.194  -0.583 -2.2565 -0.0133  0.4429
  461MOL0     H62210   6.269   4.238  -0.486  0.8080  2.4778 -3.9598
  461MOL0     H62211   6.384   4.099  -0.302  0.8298  0.0089 -0.3402
  461MOL0     H62212   6.338   4.012  -0.452  1.2951 -0.8493  0.7473
  461MOL0     H62213   6.608   4.109  -0.460 -0.6787  1.3265  0.5559
  461MOL0     H62214   6.509   3.983  -0.549 -0.7686  3.5958 -0.6648
  461MOL0     H62215   6.683   3.897  -0.401 -0.4999 -1.2342 -0.7135
  461MOL0     H62216   6.525   3.837  -0.340  0.9051 -0.9404  0.4476
  461MOL0     H62217   6.638   4.487   0.181  2.8746 -0.5579  1.7501
  461MOL0     H62218   6.805   4.538   0.341  0.7822 -2.0794 -0.1724
  461MOL0     H62219   7.079   4.673   0.571 -3.5138  1.8442  2.2609
  461MOL0     H62220   7.296   4.683   0.692  1.9939  0.5766  0.0327
  461MOL0     H62221   6.781   4.492   0.777 -0.7194  0.4001  1.1978
  461MOL0     H62222   6.564   4.426   0.686  0.6462 -0.1794  3.0654
  461MOL0     H62223   6.170   4.255   0.611  0.1791 -0.0993 -2.1337
  461MOL0     H62224   5.938   4.248   0.644 -2.5323  0.9249 -0.0795
  461MOL0     H62225   5.700   4.258   0.608 -0.0078 -0.0772  0.1088
  461MOL0     H62226   5.587   4.390   0.583  0.2022  0.4356  1.2625
  461MOL0     H62227   5.673   4.209   0.396  1.4281 -1.3078  0.8310
  461MOL0     H62228   5.813   4.301   0.377 -0.0273 -1.5038 -0.6426
  461MOL0     H62229   5.692   4.387   0.203 -1.7369  1.2667 -1.3213
  461MOL0     H62230   5.684   4.514   0.327 -2.7450  1.1029  0.3737
  461MOL0     H62231   5.467   4.535   0.293  0.2094  0.0340  0.6204
  461MOL0     H62232   5.453   4.406   0.399  0.4270  2.3216  0.9407
  461MOL0     H62233   5.402   4.262  -0.016  1.7290  0.5612 -1.1660
  461MOL0     H62234   5.902   4.658   0.529  3.1741  1.9067 -2.8982
  461MOL0     H62235   6.171   4.664   0.507 -0.6047  0.9513  2.9183
  462MOL0     O62236   6.754  11.209   7.849  0.2699 -0.4543  0.5476
  462MOL0     C62237   6.707  11.136   7.759  0.2638 -0.1590 -0.6982
  462MOL0     O62238   6.764  11.120   7.630 -0.1827  0.2362  0.0160
  462MOL0     C62239   6.886  11.181   7.621 -0.6197  0.8780  0.5231
  462MOL0     C62240   6.899  11.287   7.535 -0.1834  0.4381 -0.1088
  462MOL0     C62241   7.027  11.346   7.518  1.8111 -0.7674 -0.1146
  462MOL0     C62242   7.136  11.299   7.585 -1.6714 -0.1968  0.0928
  462MOL0     O62243   7.252  11.375   7.593  0.7599 -0.1107  0.5807
  462MOL0     C62244   7.363  11.300   7.542 -0.4054 -0.3381 -0.2936
  462MOL0     C62245   7.502  11.353   7.593 -0.6712  0.0677 -0.6702
  462MOL0     C62246   7.511  11.343   7.749 -0.1692  0.3915 -0.4185
  462MOL0     C62247   7.630  11.423   7.806  1.0727  0.7906 -0.6156
  462MOL0     C62248   7.657  11.392   7.949  0.3932  0.1029  0.3000
  462MOL0     C62249   7.806  11.391   7.977 -0.4626  0.0981  0.4082
  462MOL0     C62250   7.831  11.394   8.129  0.1131 -0.6881  0.1376
  462MOL0     C62251   7.814  11.540   8.181  0.4601 -0.6072  0.2279
  462MOL0     N62252   7.838  11.544   8.321 -0.2937  1.0092  0.5297
  462MOL0     C62253   7.790  11.462   8.414  0.5537  0.1387 -0.5672
  462MOL0     C62254   7.809  11.538   8.527  0.5658 -0.2952  0.7192
  462MOL0     C62255   7.781  11.519   8.676 -0.2100 -0.7631 -0.0344
  462MOL0     C62256   7.631  11.478   8.700  0.8396 -0.2660 -0.0136
  462MOL0     C62257   7.609  11.440   8.844  1.2395  0.0993  0.9048
  462MOL0     C62258   7.472  11.378   8.868  0.1812  0.2499  0.1731
  462MOL0     O62259   7.475  11.295   8.988 -0.3655 -0.2994  1.5898
  462MOL0     C62260   7.490  11.355   9.112  0.5619 -0.2254 -0.2896
  462MOL0     C62261   7.394  11.436   9.154  0.3190  0.3016 -0.5993
  462MOL0     C62262   7.385  11.506   9.272 -0.6741  0.1825  0.9354
  462MOL0     C62263   7.282  11.610   9.299 -0.1756 -0.1759  0.4300
  462MOL0     C62264   7.495  11.479   9.368  0.2051 -0.2429  1.2536
  462MOL0     C62265   7.498  11.550   9.499 -0.6946  0.5711 -0.2078
  462MOL0     O62266   7.618  11.580   9.553 -0.9836 -0.3027 -0.8937
  462MOL0     C62267   7.608  11.678   9.652 -0.9105  0.5322 -0.0267
  462MOL0     C62268   7.619  11.812   9.615 -0.0879  0.5493 -0.9030
  462MOL0     C62269   7.608  11.909   9.710 -0.0230 -0.6946 -1.1044
  462MOL0     C62270   7.610  11.881   9.849  0.5009  0.8205 -0.6039
  462MOL0     O62271   7.614  11.969   9.951 -0.6318  0.0433 -0.3058
  462MOL0     C62272   7.550  12.098   9.923 -0.1464  0.9184  0.1939
  462MOL0     C62273   7.399  12.086   9.918  0.4559 -0.4629 -0.2916
  462MOL0     C62274   7.331  12.042  10.044 -0.4475 -0.1145 -0.1016
  462MOL0     C62275   7.316  12.151  10.153 -0.1012 -0.2266 -0.3910
  462MOL0     C62276   7.262  12.092  10.282  0.1444 -0.1113  0.7836
  462MOL0     C62277   7.239  12.201  10.394 -0.2322 -0.8517 -0.1749
  462MOL0     C62278   7.142  12.308  10.354  0.6113  0.1818 -0.2684
  462MOL0     C62279   7.002  12.257  10.333 -0.0763 -0.2444 -0.2187
  462MOL0    Cl62280   6.946  12.182  10.488 -0.3232  0.3692 -0.3425
  462MOL0     C62281   7.617  11.752   9.888  0.3616 -0.5675  0.1695
  462MOL0     C62282   7.609  11.649   9.790  0.6718 -0.0978 -0.5117
  462MOL0     O62283   7.395  11.564   9.565 -0.7013 -0.4281  0.4529
  462MOL0     C62284   7.593  11.385   9.334 -0.0088 -0.4709 -0.3756
  462MOL0     C62285   7.594  11.322   9.207  0.5503 -0.2845  0.3248
  462MOL0     N62286   7.889  11.646   8.505  0.1517 -0.6727  1.3878
  462MOL0     N62287   7.899  11.650   8.377  0.3224  0.4022 -0.1968
  462MOL0     C62288   7.124  11.199   7.677 -0.3589 -0.1181  0.0620
  462MOL0     C62289   7.004  11.136   7.686 -0.0148  0.1297 -0.5337
  462MOL0     C62290   6.584  11.048   7.790 -0.0396  0.6508  0.1297
  462MOL0     C62291   6.516  11.060   7.912  0.9838  0.0593 -0.1917
  462MOL0     C62292   6.403  10.979   7.948 -0.2772 -0.0685  0.6493
  462MOL0     C62293   6.366  10.882   7.855  0.1015 -0.2366  0.4864
  462MOL0     O62294   6.278  10.780   7.889  0.2562  0.3099  0.7193
  462MOL0     C62295   6.159  10.818   7.954  0.5235 -0.3172  0.1682
  462MOL0     C62296   6.098  10.708   8.029  0.4397 -0.7705  0.6114
  462MOL0     C62297   6.172  10.686   8.164  1.0624  1.2231  0.7395
  462MOL0     C62298   6.105  10.576   8.247  0.0118 -0.1912  0.4779
  462MOL0     C62299   5.968  10.597   8.283 -0.4467  0.1502 -0.0402
  462MOL0     C62300   5.858  10.626   8.320  0.5373 -0.1960  0.0148
  462MOL0     C62301   6.439  10.864   7.736  0.6508  0.4156  0.1070
  462MOL0     C62302   6.545  10.947   7.691  0.8259 -0.4987 -0.7622
  462MOL0     H62303   6.814  11.328   7.482 -1.4394  0.0472  1.5187
  462MOL0     H62304   7.029  11.423   7.441  1.4937 -0.5143  0.1290
  462MOL0     H62305   7.361  11.197   7.578  0.5309  0.3804  1.9977
  462MOL0     H62306   7.366  11.299   7.433  1.6728  4.2947 -0.5193
  462MOL0     H62307   7.581  11.296   7.544  0.3304  2.6314 -2.2849
  462MOL0     H62308   7.517  11.458   7.564  2.6977 -0.8458 -2.8785
  462MOL0     H62309   7.421  11.375   7.803 -0.5748 -0.4960 -0.5395
  462MOL0     H62310   7.535  11.243   7.788 -2.9914  0.1964  1.1729
  462MOL0     H62311   7.718  11.411   7.742  1.6699 -1.2428  0.5063
  462MOL0     H62312   7.614  11.531   7.802  0.9510  1.0456  3.2362
  462MOL0     H62313   7.605  11.466   8.011  1.3721  0.9232  0.1651
  462MOL0     H62314   7.622  11.291   7.973 -0.8637  0.0659 -1.5598
  462MOL0     H62315   7.861  11.312   7.926  0.8544 -1.4998  4.0099
  462MOL0     H62316   7.858  11.471   7.924  3.2177 -1.7461  0.9691
  462MOL0     H62317   7.767  11.324   8.183 -0.8469 -0.0707 -0.1791
  462MOL0     H62318   7.938  11.370   8.124  1.1354  3.2868 -2.7635
  462MOL0     H62319   7.715  11.586   8.173 -1.4798 -3.7498  3.2069
  462MOL0     H62320   7.884  11.605   8.128 -0.1516 -0.5812 -0.5635
  462MOL0     H62321   7.725  11.376   8.416  0.4980  0.1755  1.7316
  462MOL0     H62322   7.855  11.450   8.717  0.2903 -1.9211 -2.6890
  462MOL0     H62323   7.798  11.611   8.734 -5.3174 -0.3464  1.2673
  462MOL0     H62324   7.601  11.399   8.630 -0.1068 -0.2845  0.4072
  462MOL0     H62325   7.575  11.568   8.675 -3.2173 -3.4192 -3.8545
  462MOL0     H62326   7.624  11.521   8.917  0.4564  3.5696 -2.4893
  462MOL0     H62327   7.666  11.350   8.868 -0.1527 -1.3162 -0.8652
  462MOL0     H62328   7.453  11.303   8.791  3.2973 -2.0573  1.4253
  462MOL0     H62329   7.394  11.453   8.880  3.0295  3.4633  0.2716
  462MOL0     H62330   7.317  11.463   9.082 -0.1560 -2.3739 -1.2168
  462MOL0     H62331   7.337  11.699   9.330 -0.1629  0.5333 -1.5103
  462MOL0     H62332   7.225  11.619   9.206  0.2388  0.3318  0.2228
  462MOL0     H62333   7.211  11.577   9.376 -3.3661  0.3068 -2.0673
  462MOL0     H62334   7.634  11.849   9.514  0.9942 -1.4442 -1.5242
  462MOL0     H62335   7.622  12.011   9.674 -0.2962  0.0263  0.7127
  462MOL0     H62336   7.585  12.173   9.995  3.7449  2.4833 -2.9451
  462MOL0     H62337   7.572  12.139   9.824 -1.9133  1.8381  0.1502
  462MOL0     H62338   7.353  12.179   9.884 -1.4383 -1.5491 -0.8472
  462MOL0     H62339   7.366  12.018   9.838 -0.3957 -3.5219  2.4449
  462MOL0     H62340   7.374  11.944  10.069  2.0624  0.5215 -1.5881
  462MOL0     H62341   7.233  12.010  10.007 -0.3307 -1.9334  1.0140
  462MOL0     H62342   7.418  12.188  10.168  0.4386 -2.0084  0.5987
  462MOL0     H62343   7.249  12.231  10.122  0.6163  0.9234  0.9235
  462MOL0     H62344   7.328  12.008  10.307 -0.3365 -1.0053 -0.8155
  462MOL0     H62345   7.167  12.042  10.260  0.4059 -1.0309  1.6940
  462MOL0     H62346   7.212  12.164  10.494 -3.1450 -0.2915 -0.6552
  462MOL0     H62347   7.332  12.255  10.414 -1.7862  0.8011  3.5093
  462MOL0     H62348   7.173  12.367  10.267  1.0306  2.0175  1.0656
  462MOL0     H62349   7.140  12.385  10.431  0.7554  0.9141 -0.9801
  462MOL0     H62350   6.997  12.185  10.251 -0.8353 -0.9944  0.4668
  462MOL0     H62351   6.948  12.349  10.308 -1.0116 -1.0821 -1.3901
  462MOL0     H62352   7.613  11.741   9.996 -1.6310  0.3811  0.2369
  462MOL0     H62353   7.608  11.546   9.821 -0.2646 -0.2790 -1.0750
  462MOL0     H62354   7.676  11.379   9.404 -0.2772 -0.1909 -0.0342
  462MOL0     H62355   7.678  11.258   9.184  1.7316  0.2630  2.7985
  462MOL0     H62356   7.208  11.162   7.735 -2.0015 -0.3486  2.4318
  462MOL0     H62357   6.994  11.053   7.754 -1.8667 -0.1493 -1.1043
  462MOL0     H62358   6.539  11.135   7.987 -4.0116  0.6462  1.0616
  462MOL0     H62359   6.365  10.986   8.050  0.1589  2.5736  0.7161
  462MOL0     H62360   6.163  10.907   8.017  0.1478 -0.0479 -0.1917
  462MOL0     H62361   6.090  10.849   7.876 -0.4888 -2.3200  0.1934
  462MOL0     H62362   6.101  10.620   7.965 -0.1435  0.8609 -1.8054
  462MOL0     H62363   5.992  10.734   8.021  0.8267  0.2955 -2.4248
  462MOL0     H62364   6.180  10.775   8.227  2.6729 -0.7874  3.6512
  462MOL0     H62365   6.276  10.660   8.142  0.6585  0.1304  0.0570
  462MOL0     H62366   6.165  10.564   8.337  1.2562  1.7274 -0.0288
  462MOL0     H62367   6.115  10.483   8.191  1.4331  0.1242  0.1573
  462MOL0     H62368   5.766  10.668   8.355 -0.0371 -0.1534 -1.4784
  462MOL0     H62369   6.398  10.792   7.666 -0.2975  0.6092  0.4458
  462MOL0     H62370   6.591  10.944   7.593  1.8483  2.7142 -0.5199
  463MOL0     O62371   4.667   6.733   5.193  0.4159 -0.1187 -0.7399
  463MOL0     C62372   4.633   6.736   5.312  0.0287  0.2147  0.7466
  463MOL0     O62373   4.718   6.771   5.416  0.2322  0.5946  0.3348
  463MOL0     C62374   4.784   6.887   5.402 -0.3082 -0.6316  0.8453
  463MOL0     C62375   4.771   6.990   5.293  0.4615 -0.0657  0.3330
  463MOL0     C62376   4.860   7.096   5.301 -1.5379  0.1241 -0.2288
  463MOL0     C62377   4.956   7.108   5.398  0.2448 -0.8844 -0.6078
  463MOL0     O62378   5.040   7.218   5.386 -0.2531 -0.1005  0.6517
  463MOL0     C62379   5.175   7.199   5.423 -0.4697 -1.5897  0.8234
  463MOL0     C62380   5.258   7.142   5.305  0.0713 -0.1987  0.1256
  463MOL0     C62381   5.264   7.236   5.185 -0.2250  0.1827 -0.1464
  463MOL0     C62382   5.172   7.178   5.080  0.4310 -1.0325  0.1991
  463MOL0     C62383   5.247   7.094   4.968 -0.2143 -0.0375 -0.3178
  463MOL0     C62384   5.159   7.070   4.842  0.0210 -0.9663  0.0842
  463MOL0     C62385   5.122   6.921   4.826 -0.8177 -0.5789 -0.0124
  463MOL0     C62386   5.036   6.898   4.701 -0.6090 -1.2037  0.7608
  463MOL0     N62387   5.094   6.928   4.560 -0.0386 -1.1423  0.5101
  463MOL0     C62388   5.222   6.895   4.525 -0.2700  0.4160  1.0374
  463MOL0     C62389   5.259   6.980   4.435 -0.0070 -0.3479 -0.5627
  463MOL0     C62390   5.389   6.990   4.367  0.7149 -0.1522  1.0792
  463MOL0     C62391   5.481   7.068   4.456 -0.8324 -0.7507 -0.2716
  463MOL0     C62392   5.460   7.213   4.437  0.3937 -0.0084  0.7915
  463MOL0     C62393   5.555   7.307   4.523  0.0348  0.1069 -0.0038
  463MOL0     O62394   5.692   7.272   4.533 -0.5883 -0.0941 -0.0857
  463MOL0     C62395   5.784   7.350   4.599 -0.4493 -0.4148 -0.5248
  463MOL0     C62396   5.767   7.470   4.656 -0.6924  0.1185  0.1630
  463MOL0     C62397   5.873   7.525   4.733  0.1017 -0.6025  0.8032
  463MOL0     C62398   5.847   7.671   4.777 -0.3887  0.3912  1.2431
  463MOL0     C62399   6.003   7.461   4.746  0.2332  0.4477  1.0247
  463MOL0     C62400   6.113   7.500   4.837 -0.3836 -0.0533  0.1098
  463MOL0     O62401   6.224   7.423   4.820 -0.5289 -0.7341  0.2604
  463MOL0     C62402   6.340   7.451   4.899  0.6481  0.6505 -0.2326
  463MOL0     C62403   6.348   7.407   5.031 -0.6579  0.0406  0.7076
  463MOL0     C62404   6.474   7.420   5.091  0.4683  0.3069  0.3236
  463MOL0     C62405   6.575   7.502   5.041 -0.5263 -0.7106 -0.3835
  463MOL0     O62406   6.690   7.513   5.118 -0.4728 -0.0717 -0.5218
  463MOL0     C62407   6.708   7.653   5.168  0.6498 -0.3201  0.1941
  463MOL0     C62408   6.834   7.713   5.095  1.2289 -0.1595  0.4112
  463MOL0     C62409   6.956   7.648   5.142  0.9085  0.2459  0.3583
  463MOL0     C62410   7.079   7.734   5.166  1.2276 -0.5264  0.5068
  463MOL0     C62411   7.187   7.648   5.238 -0.2686 -0.2888  0.5169
  463MOL0     C62412   7.332   7.700   5.209 -0.6397 -0.5109 -0.2690
  463MOL0     C62413   7.426   7.585   5.237  0.2701  0.0842  0.2690
  463MOL0     C62414   7.546   7.598   5.141  0.6975  0.2842  0.1209
  463MOL0    Cl62415   7.631   7.748   5.154  0.7189  0.2135  0.2524
  463MOL0     C62416   6.563   7.555   4.912 -0.0401  1.4005  0.0233
  463MOL0     C62417   6.448   7.515   4.836 -0.2419 -0.0130 -0.2635
  463MOL0     O62418   6.097   7.585   4.921 -0.0504 -0.7793 -0.1993
  463MOL0     C62419   6.013   7.337   4.675  1.0235 -0.7899  1.2191
  463MOL0     C62420   5.904   7.283   4.606 -0.1438  0.5485  0.1546
  463MOL0     N62421   5.159   7.076   4.416 -0.4285 -0.0779  0.2638
  463MOL0     N62422   5.062   7.041   4.498 -0.3232 -0.5592 -0.7584
  463MOL0     C62423   4.957   7.028   5.505  0.6005  0.5676 -0.2386
  463MOL0     C62424   4.873   6.917   5.510  0.0580  0.4432 -0.6692
  463MOL0     C62425   4.514   6.680   5.363  0.6563  0.2162  0.3115
  463MOL0     C62426   4.484   6.672   5.500 -0.2102 -0.5965 -0.4585
  463MOL0     C62427   4.375   6.604   5.545  0.6712  1.1457 -0.1455
  463MOL0     C62428   4.291   6.530   5.460 -0.3015 -0.4353 -0.2084
  463MOL0     O62429   4.191   6.456   5.519  0.2141 -0.0187  0.2320
  463MOL0     C62430   4.078   6.425   5.445  0.4971  0.1702 -0.0323
  463MOL0     C62431   3.997   6.546   5.393 -0.4053 -0.2812 -0.2753
  463MOL0     C62432   3.945   6.634   5.511 -0.1435 -0.0906  0.3688
  463MOL0     C62433   3.863   6.755   5.458 -0.2315  0.3062 -0.5144
  463MOL0     C62434   3.808   6.847   5.562 -0.6281 -0.0432  0.4694
  463MOL0     C62435   3.768   6.912   5.656 -0.0671 -0.7882  0.0823
  463MOL0     C62436   4.312   6.553   5.320  0.4890 -0.6710 -0.2875
  463MOL0     C62437   4.418   6.621   5.266  0.5481 -0.1468  0.1866
  463MOL0     H62438   4.698   6.979   5.214 -1.9959  3.1828  1.9143
  463MOL0     H62439   4.863   7.164   5.217  0.5645 -0.8827 -1.0335
  463MOL0     H62440   5.220   7.297   5.442 -2.2012 -0.9984  2.1412
  463MOL0     H62441   5.192   7.146   5.517  4.3224  1.0097  1.7508
  463MOL0     H62442   5.361   7.130   5.341 -0.3284 -0.0665  1.3544
  463MOL0     H62443   5.221   7.044   5.275 -3.1492  0.0822  2.5687
  463MOL0     H62444   5.236   7.336   5.220 -0.7373 -0.3364  0.9707
  463MOL0     H62445   5.363   7.249   5.142 -0.0201 -1.2863 -0.1574
  463MOL0     H62446   5.095   7.119   5.129  0.0710 -0.6090  0.1477
  463MOL0     H62447   5.116   7.257   5.028  2.1352 -0.4250 -0.7973
  463MOL0     H62448   5.342   7.140   4.939  0.0227  0.7971  1.6426
  463MOL0     H62449   5.273   6.995   5.009 -2.8747 -0.6344  0.1057
  463MOL0     H62450   5.064   7.125   4.834 -1.4525 -3.3907 -0.0099
  463MOL0     H62451   5.217   7.099   4.753 -0.2004 -0.5694  0.0663
  463MOL0     H62452   5.205   6.850   4.823 -0.7965 -0.5567 -2.8753
  463MOL0     H62453   5.065   6.890   4.914  2.0552 -3.3699  1.0410
  463MOL0     H62454   4.940   6.946   4.724  0.7900  2.1293  0.1777
  463MOL0     H62455   5.014   6.793   4.684  1.0542 -0.9902 -4.3520
  463MOL0     H62456   5.275   6.806   4.559 -0.1071 -1.0659 -2.6726
  463MOL0     H62457   5.422   6.888   4.348 -0.7026 -0.0150 -3.2431
  463MOL0     H62458   5.384   7.042   4.270  0.8233 -1.6760  0.2331
  463MOL0     H62459   5.584   7.045   4.424 -1.3394 -1.9066 -1.1520
  463MOL0     H62460   5.466   7.032   4.558  0.8289  1.2358  0.7628
  463MOL0     H62461   5.361   7.244   4.472  0.2898  1.5892 -0.7954
  463MOL0     H62462   5.463   7.240   4.331  0.8073 -3.7971 -0.3099
  463MOL0     H62463   5.513   7.294   4.623 -0.6155 -1.9594 -0.5067
  463MOL0     H62464   5.548   7.416   4.509 -2.9057 -0.1707 -1.3846
  463MOL0     H62465   5.674   7.526   4.654 -0.0655  1.3711  2.6236
  463MOL0     H62466   5.744   7.702   4.756 -0.9055 -0.4271  2.4609
  463MOL0     H62467   5.848   7.692   4.884 -1.5664  0.0438  1.3413
  463MOL0     H62468   5.915   7.733   4.719 -0.8323 -0.3714 -0.1418
  463MOL0     H62469   6.260   7.356   5.068 -0.4313  0.1516  1.4118
  463MOL0     H62470   6.494   7.389   5.193  2.3522  2.4477  0.6963
  463MOL0     H62471   6.612   7.703   5.151  0.0155 -0.6626  2.4332
  463MOL0     H62472   6.741   7.664   5.272  2.9469  2.6120 -0.6898
  463MOL0     H62473   6.825   7.707   4.986 -2.4147  1.1484  0.4805
  463MOL0     H62474   6.848   7.819   5.118 -1.9247  0.7767 -1.2950
  463MOL0     H62475   6.975   7.562   5.077 -1.5439  0.3541 -0.5774
  463MOL0     H62476   6.920   7.605   5.236 -1.9510 -2.3606 -1.7284
  463MOL0     H62477   7.097   7.766   5.062 -0.6181  1.4932  0.7393
  463MOL0     H62478   7.061   7.823   5.226 -0.7635 -2.1261  2.4365
  463MOL0     H62479   7.174   7.547   5.197  1.1178 -0.4233  0.3504
  463MOL0     H62480   7.162   7.648   5.345  0.4777 -1.3369  0.7014
  463MOL0     H62481   7.330   7.718   5.101 -1.0465  2.1644  0.1184
  463MOL0     H62482   7.354   7.792   5.263  1.5692 -0.1679 -1.6253
  463MOL0     H62483   7.372   7.492   5.218 -0.6412 -0.0076  2.9362
  463MOL0     H62484   7.453   7.584   5.343  0.9769  1.9172  0.1578
  463MOL0     H62485   7.503   7.578   5.042 -1.4883  1.4225  0.7700
  463MOL0     H62486   7.616   7.514   5.148  0.8269  0.4571  1.0135
  463MOL0     H62487   6.632   7.617   4.856  2.1919 -0.0627  0.9958
  463MOL0     H62488   6.443   7.552   4.735  1.9414  1.2942  0.0255
  463MOL0     H62489   6.100   7.278   4.649  2.0529  1.8617 -1.9807
  463MOL0     H62490   5.916   7.182   4.565 -2.2090 -0.8351  2.6828
  463MOL0     H62491   5.012   7.053   5.596  2.1981 -1.8096 -0.4605
  463MOL0     H62492   4.859   6.865   5.604 -3.7063  0.7948 -0.8805
  463MOL0     H62493   4.538   6.727   5.576  1.6089 -1.1556 -1.2929
  463MOL0     H62494   4.364   6.618   5.652  1.5010 -1.7179  0.3876
  463MOL0     H62495   4.103   6.360   5.360 -1.0317  0.6730 -0.9054
  463MOL0     H62496   4.007   6.368   5.505 -0.9674  2.5484  0.6295
  463MOL0     H62497   3.903   6.505   5.353 -3.8043  2.3641  4.0582
  463MOL0     H62498   4.055   6.595   5.314 -1.6069  3.2556  0.8646
  463MOL0     H62499   4.021   6.678   5.576 -1.1462  2.9385 -0.2983
  463MOL0     H62500   3.876   6.572   5.568  0.1416 -0.0357  0.7753
  463MOL0     H62501   3.779   6.709   5.406 -1.2692  2.1238 -0.5576
  463MOL0     H62502   3.922   6.818   5.391  1.2931  1.9360  2.1471
  463MOL0     H62503   3.737   6.969   5.742  0.8728  3.6982 -2.2168
  463MOL0     H62504   4.239   6.505   5.255 -1.4329  3.2635 -1.2883
  463MOL0     H62505   4.429   6.649   5.162  0.7188 -3.0150 -0.6533
  464MOL0     O62506   8.527   7.030   5.420 -0.6911 -0.1238  0.1055
  464MOL0     C62507   8.419   6.968   5.410 -0.4139  0.8516 -0.7130
  464MOL0     O62508   8.364   6.911   5.307  0.6430 -0.3184  0.6077
  464MOL0     C62509   8.448   6.920   5.198  0.2535  0.2170 -0.0716
  464MOL0     C62510   8.539   6.812   5.169  0.0210  0.4980  0.4018
  464MOL0     C62511   8.620   6.809   5.057 -0.4366 -0.2915  0.6625
  464MOL0     C62512   8.618   6.924   4.969 -1.0696  0.3417 -0.4992
  464MOL0     O62513   8.697   6.936   4.854  0.2445 -0.6990 -0.0940
  464MOL0     C62514   8.777   6.819   4.817  0.0933  0.1432 -0.7997
  464MOL0     C62515   8.857   6.863   4.690  0.5103  0.6517 -0.6062
  464MOL0     C62516   8.955   6.984   4.708 -0.5163 -0.4741 -0.1869
  464MOL0     C62517   9.017   7.016   4.567  0.0497  0.7503 -1.2650
  464MOL0     C62518   9.099   7.140   4.565 -0.9837 -0.0786 -0.7655
  464MOL0     C62519   9.241   7.134   4.634  0.9526 -0.2382  1.3744
  464MOL0     C62520   9.310   7.270   4.615  0.5773  0.5566 -0.4168
  464MOL0     C62521   9.332   7.313   4.468  0.0392  0.7661 -0.3310
  464MOL0     N62522   9.423   7.428   4.453  0.0828  0.0150 -0.5670
  464MOL0     C62523   9.394   7.556   4.476 -0.5020  0.5926  0.5935
  464MOL0     C62524   9.502   7.630   4.464  0.9710 -0.1633 -0.1922
  464MOL0     C62525   9.511   7.783   4.476 -0.6340  0.0108  0.4875
  464MOL0     C62526   9.539   7.857   4.338 -0.5509  0.5529  0.5638
  464MOL0     C62527   9.527   8.018   4.339 -0.4607  0.3455 -0.2895
  464MOL0     C62528   9.658   8.071   4.405 -0.3439 -0.6757  0.7963
  464MOL0     O62529   9.698   8.204   4.363 -0.2413 -0.0586  0.0823
  464MOL0     C62530   9.702   8.300   4.455 -0.6436  0.4956  0.2999
  464MOL0     C62531   9.590   8.360   4.523  0.4349 -0.8822 -1.0805
  464MOL0     C62532   9.602   8.465   4.611  1.0720 -0.8746 -0.2326
  464MOL0     C62533   9.468   8.505   4.689 -0.7992 -0.7696 -0.3954
  464MOL0     C62534   9.731   8.516   4.649  0.4621  0.3463 -0.4756
  464MOL0     C62535   9.762   8.619   4.757  1.0615 -0.1217  0.5681
  464MOL0     O62536   9.864   8.702   4.723  0.2120  0.6410 -0.2870
  464MOL0     C62537   9.926   8.768   4.823 -0.2057  0.7405 -0.3093
  464MOL0     C62538  10.018   8.706   4.906 -0.3996 -0.3994  0.2395
  464MOL0     C62539  10.070   8.774   5.018 -0.2238  0.6604 -0.2509
  464MOL0     C62540  10.032   8.911   5.046 -0.3790  0.8050 -0.2027
  464MOL0     O62541  10.086   8.993   5.138  0.5683  0.7704 -0.3393
  464MOL0     C62542  10.142   8.926   5.248  0.1646 -0.2784 -0.1391
  464MOL0     C62543  10.120   9.019   5.360 -0.0597 -1.6363 -0.2625
  464MOL0     C62544  10.168   8.976   5.494 -0.1273  0.1308  0.2719
  464MOL0     C62545  10.301   8.901   5.504 -0.3310  0.1207 -1.0050
  464MOL0     C62546  10.424   8.976   5.455 -0.4155 -0.9795 -0.0186
  464MOL0     C62547  10.438   9.114   5.525  0.8449  0.9513 -0.0063
  464MOL0     C62548  10.440   9.092   5.681  0.5423  0.2163  0.1638
  464MOL0     C62549  10.579   9.055   5.743  0.6272  0.4130  0.2256
  464MOL0    Cl62550  10.706   9.152   5.676  0.6317  0.7111  0.0526
  464MOL0     C62551   9.940   8.969   4.965  0.0998  0.2928 -0.5402
  464MOL0     C62552   9.882   8.900   4.857 -0.1290 -0.3584 -0.3512
  464MOL0     O62553   9.713   8.610   4.862  0.7759  0.2901  0.3915
  464MOL0     C62554   9.840   8.469   4.574 -0.2726  0.2169 -0.7433
  464MOL0     C62555   9.820   8.356   4.491 -0.6265  0.4559  0.3893
  464MOL0     N62556   9.602   7.546   4.416 -1.4039 -0.1042 -1.2311
  464MOL0     N62557   9.555   7.425   4.422  0.2260  0.4043 -0.5618
  464MOL0     C62558   8.542   7.027   4.995  0.5007  0.1001 -0.0996
  464MOL0     C62559   8.453   7.031   5.110  0.7682  0.5214  0.3971
  464MOL0     C62560   8.361   6.926   5.545  0.4210  0.2132 -0.4701
  464MOL0     C62561   8.440   6.938   5.664  0.4515  0.4213 -1.1585
  464MOL0     C62562   8.400   6.865   5.778  0.4360 -0.1444  0.2339
  464MOL0     C62563   8.284   6.789   5.785 -0.1943 -0.7929 -0.5001
  464MOL0     O62564   8.241   6.710   5.891  0.7419  0.5731  0.6090
  464MOL0     C62565   8.316   6.586   5.889  0.5630  0.8815  0.6049
  464MOL0     C62566   8.291   6.495   6.008 -0.1064  0.0575  0.3182
  464MOL0     C62567   8.316   6.565   6.144 -0.4027 -0.1566 -0.3697
  464MOL0     C62568   8.260   6.483   6.253 -0.0346  0.2841 -1.0880
  464MOL0     C62569   8.332   6.354   6.267 -0.2112  1.1358 -1.4466
  464MOL0     C62570   8.386   6.247   6.277  0.8922  0.9789 -0.5043
  464MOL0     C62571   8.207   6.785   5.674  0.0644 -0.4666  0.0097
  464MOL0     C62572   8.247   6.842   5.553 -0.4780  0.1015  0.4927
  464MOL0     H62573   8.559   6.741   5.248 -2.7354  0.1223  0.8706
  464MOL0     H62574   8.669   6.714   5.041 -0.0805 -0.1199  0.7313
  464MOL0     H62575   8.845   6.790   4.898 -1.0307  1.5296  0.7233
  464MOL0     H62576   8.716   6.735   4.782  1.0613 -0.1526 -1.8398
  464MOL0     H62577   8.922   6.778   4.672 -1.3033 -1.0407  0.4246
  464MOL0     H62578   8.786   6.871   4.607 -0.9912 -1.7976  0.3427
  464MOL0     H62579   8.892   7.070   4.729  0.4317  0.0964  0.4153
  464MOL0     H62580   9.046   6.969   4.768 -0.2169 -0.0586 -0.5310
  464MOL0     H62581   9.086   6.936   4.539  1.9751  1.8055  0.2410
  464MOL0     H62582   8.939   7.017   4.491  1.5055  3.4386 -2.8840
  464MOL0     H62583   9.113   7.173   4.462 -1.1527  1.2980 -0.3631
  464MOL0     H62584   9.051   7.220   4.622  1.3859 -0.1252  1.5021
  464MOL0     H62585   9.241   7.103   4.739 -0.6138  2.4596  2.2736
  464MOL0     H62586   9.301   7.052   4.593 -1.2890 -1.8604  1.1918
  464MOL0     H62587   9.256   7.349   4.668 -2.0284 -0.7793 -0.9151
  464MOL0     H62588   9.412   7.271   4.655  0.9744  2.9168 -1.3743
  464MOL0     H62589   9.235   7.341   4.428 -0.6065  2.6466  2.2521
  464MOL0     H62590   9.371   7.225   4.416 -2.7370 -0.2410 -0.8314
  464MOL0     H62591   9.291   7.586   4.495 -1.5288 -1.4642 -1.1918
  464MOL0     H62592   9.419   7.822   4.522  1.4215  1.0969  4.0161
  464MOL0     H62593   9.593   7.790   4.548  0.2632 -1.8618 -0.2932
  464MOL0     H62594   9.454   7.826   4.278 -0.4537  3.3026 -1.2083
  464MOL0     H62595   9.633   7.829   4.290 -1.4948  2.0755 -2.4008
  464MOL0     H62596   9.432   8.048   4.383 -1.6173 -1.2574 -1.5753
  464MOL0     H62597   9.514   8.066   4.241 -4.5931  3.0184  1.2831
  464MOL0     H62598   9.744   8.005   4.387  3.0025  3.4315  0.2242
  464MOL0     H62599   9.647   8.072   4.514  1.4760  1.1378  1.0317
  464MOL0     H62600   9.491   8.317   4.506 -1.1710  2.1833 -0.2539
  464MOL0     H62601   9.394   8.427   4.670 -0.4460 -0.8292 -1.5745
  464MOL0     H62602   9.476   8.523   4.797  0.6711  2.7210 -0.9448
  464MOL0     H62603   9.424   8.595   4.644  2.4479  0.3018 -1.7033
  464MOL0     H62604  10.050   8.607   4.877 -1.0935 -0.1657 -1.4116
  464MOL0     H62605  10.144   8.711   5.066 -0.7765  0.5775  0.5080
  464MOL0     H62606  10.114   8.821   5.261  0.4096 -0.2485  0.6430
  464MOL0     H62607  10.251   8.923   5.243  0.2112  0.5719  0.2389
  464MOL0     H62608  10.187   9.103   5.339 -1.2413 -0.3690  0.8420
  464MOL0     H62609  10.016   9.052   5.370  0.0107  0.3534 -3.9701
  464MOL0     H62610  10.093   8.905   5.529  0.2966 -1.0367 -1.0906
  464MOL0     H62611  10.171   9.056   5.569 -2.7389 -1.4576  2.2667
  464MOL0     H62612  10.317   8.866   5.607 -1.2117  1.1502 -0.4977
  464MOL0     H62613  10.285   8.816   5.437 -1.1717  2.0301 -3.3559
  464MOL0     H62614  10.419   9.005   5.350  2.9036  0.9716  0.2355
  464MOL0     H62615  10.515   8.918   5.471 -0.9874 -2.2286 -1.0523
  464MOL0     H62616  10.531   9.157   5.488  0.8921 -0.5646 -1.8166
  464MOL0     H62617  10.358   9.179   5.489  0.5345 -0.1939 -1.4603
  464MOL0     H62618  10.362   9.026   5.720  1.5168  0.1437  2.1015
  464MOL0     H62619  10.422   9.191   5.724  1.0760  1.0667 -1.4606
  464MOL0     H62620  10.571   8.948   5.726 -2.0426  0.4358  1.0054
  464MOL0     H62621  10.572   9.065   5.851  0.1595 -4.2402  0.8223
  464MOL0     H62622   9.906   9.068   4.991 -0.9136 -1.0250  4.2185
  464MOL0     H62623   9.806   8.938   4.790  0.4404 -2.6250 -2.4159
  464MOL0     H62624   9.942   8.497   4.599 -0.2637 -0.8218  0.5271
  464MOL0     H62625   9.910   8.324   4.440 -1.3018  3.3444 -2.9615
  464MOL0     H62626   8.539   7.114   4.930  0.6439 -1.9254 -2.9632
  464MOL0     H62627   8.392   7.119   5.129  2.7037  1.8008  0.9742
  464MOL0     H62628   8.536   6.988   5.667  1.0143 -0.6435 -1.0838
  464MOL0     H62629   8.461   6.868   5.868 -1.1646 -0.8028  1.3978
  464MOL0     H62630   8.286   6.520   5.807 -1.2258  2.1354  0.1923
  464MOL0     H62631   8.420   6.615   5.880  0.5841  0.4587 -0.6281
  464MOL0     H62632   8.370   6.420   6.004  0.3755  0.6182 -1.2962
  464MOL0     H62633   8.194   6.445   6.008  0.4130 -1.0323 -1.8542
  464MOL0     H62634   8.268   6.663   6.148  0.8636  0.4559  0.3917
  464MOL0     H62635   8.424   6.581   6.139  0.0882 -3.0340 -3.7398
  464MOL0     H62636   8.152   6.469   6.244  0.0714 -0.5205 -1.2102
  464MOL0     H62637   8.287   6.531   6.348 -1.0802  0.6168 -0.9506
  464MOL0     H62638   8.443   6.157   6.285  0.3952  0.8148  3.4617
  464MOL0     H62639   8.105   6.751   5.682 -0.9182  2.1484 -0.6231
  464MOL0     H62640   8.194   6.833   5.459  0.7308 -1.3726 -0.0949
  465MOL0     O62641   4.363   0.322   7.416 -0.6252  0.2336 -0.4482
  465MOL0     C62642   4.400   0.428   7.454  0.5287  1.3026  1.0017
  465MOL0     O62643   4.481   0.514   7.385 -0.3700  0.1227  0.3488
  465MOL0     C62644   4.552   0.466   7.275  0.1897 -0.4655  0.0890
  465MOL0     C62645   4.683   0.443   7.300 -0.4859 -0.2806  0.0326
  465MOL0     C62646   4.767   0.399   7.197  0.0846 -0.1645 -0.4175
  465MOL0     C62647   4.716   0.352   7.073  0.0123  0.0765  1.1607
  465MOL0     O62648   4.806   0.306   6.982 -0.0147 -0.0132 -0.7252
  465MOL0     C62649   4.826   0.398   6.881  0.1166 -0.3769 -0.0347
  465MOL0     C62650   4.933   0.504   6.921 -0.1789  0.5071 -0.1961
  465MOL0     C62651   4.979   0.571   6.787 -0.1130 -0.2517 -0.5816
  465MOL0     C62652   5.037   0.704   6.822 -0.8384 -0.4124  0.3134
  465MOL0     C62653   5.134   0.752   6.715  0.3737 -0.4179  0.0040
  465MOL0     C62654   5.218   0.878   6.749 -0.0238  0.1203 -0.4290
  465MOL0     C62655   5.310   0.917   6.635  0.4567 -0.5724  0.0316
  465MOL0     C62656   5.379   1.058   6.657 -0.1861 -0.2033  0.0952
  465MOL0     N62657   5.482   1.046   6.765  0.6045 -0.4458  0.5339
  465MOL0     C62658   5.595   0.968   6.744  0.2451 -0.0785  0.2472
  465MOL0     C62659   5.648   0.979   6.868 -0.1834 -0.9711 -0.4847
  465MOL0     C62660   5.787   0.938   6.892 -0.3438  0.2059  0.2751
  465MOL0     C62661   5.818   0.785   6.859  0.1700 -0.0482 -0.8066
  465MOL0     C62662   5.763   0.699   6.973  0.1911  0.2075 -0.7200
  465MOL0     C62663   5.721   0.561   6.919  0.5510  0.1801  0.5206
  465MOL0     O62664   5.819   0.492   6.832  0.0245 -0.2303  0.5548
  465MOL0     C62665   5.783   0.371   6.781 -0.8021 -0.8034  0.2621
  465MOL0     C62666   5.877   0.309   6.703  0.0811  0.3704 -0.0824
  465MOL0     C62667   5.848   0.193   6.631  0.1643 -0.2130  0.0998
  465MOL0     C62668   5.957   0.128   6.543 -0.4108  0.4339 -0.1149
  465MOL0     C62669   5.718   0.140   6.624 -0.4983  0.0449  0.1771
  465MOL0     C62670   5.672   0.030   6.534 -0.3770 -1.0435  0.1969
  465MOL0     O62671   5.571   0.051   6.443 -0.0293 -0.9012 -0.7650
  465MOL0     C62672   5.520  -0.042   6.362 -0.0949 -0.2883 -0.4717
  465MOL0     C62673   5.392  -0.027   6.348  1.0188 -0.5822  0.1917
  465MOL0     C62674   5.314  -0.098   6.249  0.4810 -0.3815  0.5244
  465MOL0     C62675   5.377  -0.196   6.162 -0.3345  0.3043  0.1224
  465MOL0     O62676   5.300  -0.262   6.069 -0.2763 -0.4049  0.0191
  465MOL0     C62677   5.231  -0.182   5.973  0.0032 -0.2781 -0.4212
  465MOL0     C62678   5.288  -0.198   5.829  0.0146  0.0727 -0.5577
  465MOL0     C62679   5.215  -0.096   5.747 -0.1167 -0.5164 -1.0010
  465MOL0     C62680   5.209  -0.140   5.600 -0.2034  1.0121 -0.0905
  465MOL0     C62681   5.085  -0.220   5.570 -0.3870 -0.0597  0.3477
  465MOL0     C62682   5.086  -0.272   5.429 -0.1250  0.1718  0.2212
  465MOL0     C62683   5.176  -0.389   5.395  0.6290  0.0170  0.0332
  465MOL0     C62684   5.180  -0.437   5.252 -0.1051  0.2032 -0.2981
  465MOL0    Cl62685   5.014  -0.485   5.212  0.2848  0.0035  0.4531
  465MOL0     C62686   5.515  -0.190   6.162 -0.8767 -0.2144  0.2411
  465MOL0     C62687   5.592  -0.118   6.262  0.4880  0.0897 -0.5017
  465MOL0     O62688   5.726  -0.077   6.541  0.4691  0.0450 -0.0680
  465MOL0     C62689   5.618   0.200   6.708  0.3098 -0.1791 -0.4637
  465MOL0     C62690   5.655   0.310   6.785 -0.0378 -0.2295 -0.4557
  465MOL0     N62691   5.565   1.058   6.945  0.2624 -0.2334 -0.8778
  465MOL0     N62692   5.456   1.084   6.884 -1.0532 -0.4974 -0.7994
  465MOL0     C62693   4.573   0.362   7.050 -0.0072  0.6285  0.3139
  465MOL0     C62694   4.493   0.424   7.152 -0.6502 -0.6325  0.7698
  465MOL0     C62695   4.356   0.468   7.585  0.1934  0.2846  0.5188
  465MOL0     C62696   4.235   0.422   7.627  0.3270  1.1949  0.4729
  465MOL0     C62697   4.194   0.443   7.762  0.4446 -0.1587  0.3699
  465MOL0     C62698   4.278   0.522   7.842  0.6521  0.1763 -0.0431
  465MOL0     O62699   4.233   0.557   7.972  0.4242 -0.4580  0.4043
  465MOL0     C62700   4.189   0.697   8.001 -0.7668  0.3567 -1.3270
  465MOL0     C62701   4.037   0.685   8.005 -0.4318 -0.0356  0.4182
  465MOL0     C62702   3.977   0.572   8.095 -0.0278 -0.4659  0.1871
  465MOL0     C62703   3.857   0.612   8.174 -0.1513 -0.4502  0.2132
  465MOL0     C62704   3.912   0.696   8.273  0.0368 -0.4708 -0.5159
  465MOL0     C62705   3.952   0.780   8.350  0.1436 -0.0465 -0.7533
  465MOL0     C62706   4.398   0.565   7.793  0.4999  0.0694  0.5718
  465MOL0     C62707   4.440   0.541   7.666 -0.1904  0.4659 -0.0971
  465MOL0     H62708   4.731   0.473   7.392  1.6905  1.6527 -1.5874
  465MOL0     H62709   4.874   0.402   7.216  0.0713  1.7575 -0.4275
  465MOL0     H62710   4.858   0.338   6.796  0.0884  1.1142 -1.1389
  465MOL0     H62711   4.737   0.458   6.860  0.1788 -0.2027  0.1838
  465MOL0     H62712   4.885   0.575   6.990  0.0950  2.3641 -1.8460
  465MOL0     H62713   5.018   0.456   6.971 -0.6649  1.2583  1.4451
  465MOL0     H62714   5.037   0.507   6.718 -2.3513  0.2221 -3.0618
  465MOL0     H62715   4.894   0.604   6.727  0.5760  0.9032 -0.9521
  465MOL0     H62716   4.960   0.782   6.824 -0.8441 -0.3969 -0.3210
  465MOL0     H62717   5.082   0.702   6.922 -0.9700  1.0958  0.4363
  465MOL0     H62718   5.209   0.676   6.688 -0.1084 -0.3838 -1.5239
  465MOL0     H62719   5.079   0.782   6.626 -2.5341 -1.4682  1.3317
  465MOL0     H62720   5.142   0.954   6.768  0.8123  0.8367  0.1463
  465MOL0     H62721   5.265   0.869   6.847 -0.8184  3.6926  0.3972
  465MOL0     H62722   5.388   0.842   6.615  3.1196  1.2839  2.5692
  465MOL0     H62723   5.249   0.932   6.546 -1.5075 -0.5921  1.3246
  465MOL0     H62724   5.310   1.139   6.684 -0.3461 -0.2794 -0.0825
  465MOL0     H62725   5.421   1.080   6.558 -1.9895 -2.1034 -1.1723
  465MOL0     H62726   5.642   0.924   6.657  1.0459 -1.0330  1.1399
  465MOL0     H62727   5.851   1.006   6.835 -0.0327 -0.6078 -0.3626
  465MOL0     H62728   5.803   0.962   6.998 -0.0938 -0.3766  0.3723
  465MOL0     H62729   5.924   0.762   6.844  0.4958  0.1078  1.0186
  465MOL0     H62730   5.771   0.763   6.762  0.1015  0.6894 -0.9446
  465MOL0     H62731   5.670   0.739   7.014 -0.8909 -0.9796 -1.9234
  465MOL0     H62732   5.839   0.675   7.048 -0.6851 -1.8425 -0.4163
  465MOL0     H62733   5.630   0.584   6.863  1.2109 -0.5253 -0.8903
  465MOL0     H62734   5.689   0.501   7.004 -2.0050  1.8001  0.8064
  465MOL0     H62735   5.968   0.362   6.680 -1.0809  2.0754 -0.9166
  465MOL0     H62736   6.059   0.140   6.582 -0.3491 -0.4211  0.0052
  465MOL0     H62737   5.941   0.020   6.532  3.7848 -0.3238 -0.5497
  465MOL0     H62738   5.946   0.177   6.446 -2.2044 -0.9596 -0.6624
  465MOL0     H62739   5.343   0.053   6.403 -2.8787 -0.5435 -2.8377
  465MOL0     H62740   5.207  -0.084   6.235  0.4266 -0.7608  0.5449
  465MOL0     H62741   5.124  -0.206   5.981  0.1245 -0.4307  0.9795
  465MOL0     H62742   5.235  -0.074   5.991 -2.8115  0.0191 -1.1133
  465MOL0     H62743   5.396  -0.183   5.832  0.4141 -2.4471  0.1637
  465MOL0     H62744   5.262  -0.299   5.797  0.7864 -0.2800 -0.0818
  465MOL0     H62745   5.257   0.005   5.758 -0.7037 -0.1831 -1.6763
  465MOL0     H62746   5.115  -0.083   5.789 -0.0809 -1.3401 -0.6574
  465MOL0     H62747   5.212  -0.048   5.541  0.5507 -0.1293 -1.9298
  465MOL0     H62748   5.297  -0.200   5.574 -0.9729  1.1667 -3.5967
  465MOL0     H62749   5.002  -0.150   5.582 -0.1807  0.2135  0.1961
  465MOL0     H62750   5.065  -0.300   5.641 -0.1431 -0.8991 -0.5157
  465MOL0     H62751   4.983  -0.303   5.413 -0.5155 -0.3371  3.1936
  465MOL0     H62752   5.101  -0.184   5.366 -0.8014  0.6287  0.6910
  465MOL0     H62753   5.158  -0.483   5.448 -0.4960 -0.2266 -0.7248
  465MOL0     H62754   5.278  -0.359   5.418  0.5381  0.7672 -0.5220
  465MOL0     H62755   5.249  -0.521   5.251  0.5482  0.7149 -2.4417
  465MOL0     H62756   5.217  -0.358   5.186 -2.0758  1.1603 -0.3347
  465MOL0     H62757   5.568  -0.251   6.089 -2.6891  2.1522 -3.4233
  465MOL0     H62758   5.699  -0.112   6.275  0.0425  0.9666  4.5672
  465MOL0     H62759   5.516   0.164   6.699  0.6561 -1.0854 -0.9433
  465MOL0     H62760   5.576   0.364   6.836 -0.2356 -0.8630 -0.0787
  465MOL0     H62761   4.512   0.326   6.968  0.3277  2.0057 -0.5772
  465MOL0     H62762   4.389   0.436   7.125 -0.8550  0.3951  1.9110
  465MOL0     H62763   4.178   0.363   7.556 -0.1292  2.5446 -0.3277
  465MOL0     H62764   4.099   0.408   7.801  1.1982  0.4609  2.9547
  465MOL0     H62765   4.230   0.725   8.098 -3.5942 -2.3471  0.8333
  465MOL0     H62766   4.218   0.763   7.918 -0.1465 -1.1920 -2.3957
  465MOL0     H62767   3.984   0.689   7.910  0.2602 -1.7966 -0.0694
  465MOL0     H62768   4.019   0.783   8.051  4.2860  2.0010 -1.4123
  465MOL0     H62769   4.046   0.527   8.167 -0.1646  0.1156  0.6907
  465MOL0     H62770   3.948   0.503   8.015 -1.5500  1.9990 -1.5016
  465MOL0     H62771   3.803   0.530   8.221 -4.6682  2.4258  0.6649
  465MOL0     H62772   3.781   0.669   8.120  0.4340  1.1408  0.9790
  465MOL0     H62773   4.012   0.857   8.396  2.2293  0.2021 -3.6540
  465MOL0     H62774   4.459   0.627   7.858 -2.0639  0.2755  2.9615
  465MOL0     H62775   4.527   0.587   7.621  0.2973 -0.5991 -0.2733
  466MOL0     O62776   5.392   1.685   7.865  0.0844 -0.0612 -0.5850
  466MOL0     C62777   5.267   1.659   7.861  0.4001 -1.1741 -0.5025
  466MOL0     O62778   5.201   1.620   7.754  0.6659  0.3309 -0.1845
  466MOL0     C62779   5.271   1.591   7.643  0.2820 -1.2526 -0.1427
  466MOL0     C62780   5.360   1.687   7.581 -0.2286 -0.1972  0.3038
  466MOL0     C62781   5.433   1.660   7.472  0.3856  0.2276  0.4392
  466MOL0     C62782   5.433   1.533   7.416  0.9078 -0.2371  0.2244
  466MOL0     O62783   5.516   1.509   7.308  0.8933 -0.0154 -0.0378
  466MOL0     C62784   5.539   1.387   7.243  0.7597 -0.1704  0.5102
  466MOL0     C62785   5.641   1.414   7.135 -0.2574  0.3727 -0.8986
  466MOL0     C62786   5.602   1.495   7.020 -0.6294  0.2990 -0.0514
  466MOL0     C62787   5.551   1.410   6.905 -0.9080  0.2299 -0.2461
  466MOL0     C62788   5.485   1.488   6.793 -0.4981 -0.6461 -0.1930
  466MOL0     C62789   5.559   1.621   6.745 -0.2958 -0.1612 -0.6418
  466MOL0     C62790   5.502   1.674   6.612  0.5019 -1.4290 -0.3590
  466MOL0     C62791   5.589   1.775   6.530 -0.1473 -0.7010  0.7614
  466MOL0     N62792   5.703   1.705   6.466 -0.2126  0.9350 -0.4533
  466MOL0     C62793   5.828   1.740   6.483 -0.3560 -0.2264  0.4073
  466MOL0     C62794   5.895   1.657   6.396 -0.7787  0.1389  0.2258
  466MOL0     C62795   6.044   1.673   6.363 -0.0242 -0.1697 -0.0884
  466MOL0     C62796   6.060   1.749   6.235  0.3566 -0.1549  0.7390
  466MOL0     C62797   6.206   1.749   6.181  0.0352  0.3131 -0.4840
  466MOL0     C62798   6.227   1.848   6.070  0.1484 -0.2061  0.4189
  466MOL0     O62799   6.149   1.797   5.954  0.7061 -0.3814 -0.7529
  466MOL0     C62800   6.125   1.893   5.866  0.0779  0.4217 -0.8678
  466MOL0     C62801   5.993   1.934   5.846 -0.4883  0.8482 -0.0967
  466MOL0     C62802   5.960   2.035   5.756 -0.4564  0.3930  0.9447
  466MOL0     C62803   5.820   2.086   5.743  0.1083 -0.0952 -0.7406
  466MOL0     C62804   6.064   2.088   5.671 -0.6349  0.2389 -1.0702
  466MOL0     C62805   6.049   2.205   5.571 -0.3271  0.1611  0.5843
  466MOL0     O62806   5.960   2.309   5.608  0.1213  0.5258  0.3402
  466MOL0     C62807   5.959   2.417   5.525 -0.1174  0.0758  0.4450
  466MOL0     C62808   6.069   2.508   5.541  0.2763 -0.3054  0.2087
  466MOL0     C62809   6.061   2.628   5.471  0.5746 -0.9459 -0.2695
  466MOL0     C62810   5.946   2.653   5.389 -0.2769  0.5552  0.9124
  466MOL0     O62811   5.941   2.775   5.329  0.9397 -0.6240 -0.6913
  466MOL0     C62812   5.881   2.783   5.203  0.7088 -0.3371  1.0311
  466MOL0     C62813   5.909   2.925   5.162 -0.3696 -0.2212  1.3818
  466MOL0     C62814   5.808   2.975   5.053  0.6553  0.6455 -0.2023
  466MOL0     C62815   5.788   3.124   5.046 -0.4714 -0.3952  0.1339
  466MOL0     C62816   5.916   3.195   4.995 -1.1869 -0.2614  0.6724
  466MOL0     C62817   5.950   3.201   4.851  0.4280  0.7261 -0.1728
  466MOL0     C62818   6.080   3.262   4.809 -0.5463  0.4305 -0.0709
  466MOL0     C62819   6.100   3.257   4.656  0.4333 -0.4273 -0.7438
  466MOL0    Cl62820   6.251   3.347   4.613 -0.0179  0.4073 -0.0201
  466MOL0     C62821   5.839   2.555   5.376 -0.8642  1.2172 -1.0471
  466MOL0     C62822   5.852   2.432   5.447  0.8298  0.7789 -0.4126
  466MOL0     O62823   6.102   2.188   5.464  0.6670  0.4884 -0.2335
  466MOL0     C62824   6.194   2.045   5.693  0.7728 -0.3587 -0.4528
  466MOL0     C62825   6.225   1.944   5.786 -0.0253 -0.0792  1.1959
  466MOL0     N62826   5.806   1.578   6.330  0.2634  0.2678  0.4951
  466MOL0     N62827   5.693   1.602   6.383  0.5046  0.1336 -0.0309
  466MOL0     C62828   5.351   1.430   7.476  0.4279  0.3606 -1.3485
  466MOL0     C62829   5.282   1.463   7.593 -0.1025  0.2696  0.2662
  466MOL0     C62830   5.193   1.657   7.983  0.5779 -0.2615 -0.3621
  466MOL0     C62831   5.055   1.627   7.987 -0.3221 -0.6327  0.4120
  466MOL0     C62832   4.970   1.632   8.102  0.0062 -0.5619  0.2342
  466MOL0     C62833   5.030   1.660   8.228 -0.3289 -1.6153  0.6487
  466MOL0     O62834   4.943   1.658   8.338 -0.3086  0.7882  0.4443
  466MOL0     C62835   4.991   1.613   8.462 -0.0732  0.0390 -0.7836
  466MOL0     C62836   5.048   1.471   8.458 -1.1461  0.3380 -0.3825
  466MOL0     C62837   4.939   1.354   8.449  0.0351  0.0010  0.8196
  466MOL0     C62838   4.903   1.337   8.303 -0.0905  0.8345 -0.3415
  466MOL0     C62839   4.872   1.196   8.266 -1.0079  0.2969 -0.2172
  466MOL0     C62840   4.866   1.072   8.268 -0.0398  0.6445  0.1673
  466MOL0     C62841   5.173   1.686   8.234 -0.7159  0.0627 -0.6605
  466MOL0     C62842   5.249   1.679   8.112  0.1786  0.2409  0.1174
  466MOL0     H62843   5.376   1.791   7.610 -1.0577  0.1951 -0.5941
  466MOL0     H62844   5.492   1.737   7.423  1.5809 -0.9588 -0.0443
  466MOL0     H62845   5.590   1.327   7.319 -1.6228 -2.2300  0.6213
  466MOL0     H62846   5.449   1.334   7.213  0.2210  0.6908  0.5656
  466MOL0     H62847   5.729   1.461   7.180  0.6220 -1.3935 -0.6785
  466MOL0     H62848   5.688   1.318   7.108 -0.1974 -1.2419  4.0327
  466MOL0     H62849   5.535   1.577   7.045  0.6396  2.1123 -2.2638
  466MOL0     H62850   5.694   1.546   6.990 -1.8372  1.6855 -1.5844
  466MOL0     H62851   5.628   1.347   6.859 -1.8488 -0.0050 -1.5665
  466MOL0     H62852   5.476   1.341   6.943 -1.0722  0.0810 -0.8350
  466MOL0     H62853   5.491   1.422   6.706 -1.8888 -0.8795 -0.1382
  466MOL0     H62854   5.380   1.502   6.822 -0.3140  0.2960  0.0654
  466MOL0     H62855   5.537   1.703   6.813 -1.4893  0.3334 -1.5808
  466MOL0     H62856   5.665   1.594   6.740 -0.1509 -1.2529  3.8692
  466MOL0     H62857   5.476   1.586   6.553 -1.1475 -1.7533  0.7922
  466MOL0     H62858   5.407   1.726   6.628  1.3832  0.2397 -0.3169
  466MOL0     H62859   5.628   1.854   6.595 -1.1872 -2.6838  4.0543
  466MOL0     H62860   5.534   1.819   6.446  2.0879  0.7943 -0.0272
  466MOL0     H62861   5.866   1.828   6.535  0.1537  2.8466 -4.5362
  466MOL0     H62862   6.096   1.725   6.444  1.8955 -1.3223 -0.5316
  466MOL0     H62863   6.090   1.575   6.347 -0.0215 -0.4950  1.7630
  466MOL0     H62864   6.037   1.850   6.269  2.5584  0.0556  1.7416
  466MOL0     H62865   5.985   1.723   6.159  2.7319  0.5429 -2.0306
  466MOL0     H62866   6.235   1.649   6.147  3.1115 -0.0927  2.7043
  466MOL0     H62867   6.268   1.768   6.269 -0.3575 -0.1115 -0.1085
  466MOL0     H62868   6.329   1.841   6.032  0.9380  1.6924  2.0263
  466MOL0     H62869   6.204   1.952   6.095  0.7212  0.6673 -2.2891
  466MOL0     H62870   5.921   1.881   5.907  1.3846  0.6064  2.0413
  466MOL0     H62871   5.790   2.092   5.638  1.8782 -0.6516 -1.3129
  466MOL0     H62872   5.756   2.012   5.793 -0.5170 -0.4170 -1.9726
  466MOL0     H62873   5.811   2.185   5.789  3.2724 -0.2677  0.5363
  466MOL0     H62874   6.141   2.488   5.621 -1.6029 -4.4516  1.1490
  466MOL0     H62875   6.137   2.705   5.478  0.2897 -0.7527  0.9907
  466MOL0     H62876   5.915   2.709   5.130  0.3329 -1.3292  1.8324
  466MOL0     H62877   5.774   2.760   5.204  0.7761 -0.9261 -0.9111
  466MOL0     H62878   5.901   2.997   5.244  0.6118 -1.0431  2.2254
  466MOL0     H62879   6.006   2.926   5.112 -1.7052 -0.7161 -1.3748
  466MOL0     H62880   5.707   2.932   5.052  1.1807 -0.6636  0.5839
  466MOL0     H62881   5.846   2.946   4.955  2.0429  1.1626  0.1589
  466MOL0     H62882   5.717   3.139   4.964  0.1144 -0.6530 -0.4324
  466MOL0     H62883   5.755   3.167   5.141 -2.3534 -2.1108  0.3218
  466MOL0     H62884   6.007   3.150   5.036  0.3253  2.9329  1.1111
  466MOL0     H62885   5.924   3.290   5.048 -0.2479 -0.3393  0.6994
  466MOL0     H62886   5.947   3.097   4.818  0.0562  0.5651  0.3456
  466MOL0     H62887   5.873   3.252   4.793  2.6771  1.6736 -2.5343
  466MOL0     H62888   6.162   3.211   4.860 -0.3887 -0.6215 -1.3290
  466MOL0     H62889   6.069   3.366   4.842 -1.3038  0.0190  1.0307
  466MOL0     H62890   6.021   3.308   4.600  1.3147  0.3229 -1.3228
  466MOL0     H62891   6.091   3.156   4.616  0.5031 -0.1122 -1.5722
  466MOL0     H62892   5.756   2.573   5.309 -1.4004  1.0971 -0.4244
  466MOL0     H62893   5.775   2.356   5.431 -1.6558  2.1425  3.5762
  466MOL0     H62894   6.276   2.085   5.633 -0.3798  0.5685 -1.4498
  466MOL0     H62895   6.327   1.908   5.775 -1.0175 -2.7285 -0.3507
  466MOL0     H62896   5.347   1.333   7.428  1.2046  0.7439 -2.2312
  466MOL0     H62897   5.212   1.393   7.637 -0.7899  1.0327  0.4168
  466MOL0     H62898   5.005   1.619   7.891  0.4250 -1.9735  0.1162
  466MOL0     H62899   4.865   1.613   8.080 -0.3419 -2.4570  3.0698
  466MOL0     H62900   5.061   1.689   8.499 -2.0204  2.2791 -1.4251
  466MOL0     H62901   4.909   1.610   8.535  1.8820  0.0159  1.5548
  466MOL0     H62902   5.080   1.454   8.562 -2.5739  1.3929  0.2725
  466MOL0     H62903   5.130   1.461   8.386 -0.8777  0.4491 -0.0986
  466MOL0     H62904   4.843   1.384   8.492 -1.2640  0.2929 -2.0693
  466MOL0     H62905   4.965   1.262   8.502  0.0762 -0.0161  0.7704
  466MOL0     H62906   4.991   1.347   8.239  0.6282 -1.2851  0.2315
  466MOL0     H62907   4.820   1.406   8.283  0.2629  1.2719 -0.3229
  466MOL0     H62908   4.853   0.966   8.264 -0.6802  0.7063  0.4655
  466MOL0     H62909   5.219   1.712   8.329  0.2978 -0.5024 -0.9733
  466MOL0     H62910   5.352   1.714   8.107 -0.0557  0.7469 -1.9483
  467MOL0     O62911   8.744   7.974   7.099  0.2163 -0.1252  0.3804
  467MOL0     C62912   8.675   8.067   7.120 -0.1094 -0.4937 -0.4253
  467MOL0     O62913   8.559   8.074   7.199 -0.1137 -1.1386  0.1959
  467MOL0     C62914   8.490   7.958   7.224  0.0498  0.3704  0.2586
  467MOL0     C62915   8.420   7.891   7.122 -0.6418 -0.0326  1.0607
  467MOL0     C62916   8.355   7.766   7.150 -0.4438  0.0959 -0.1842
  467MOL0     C62917   8.357   7.718   7.285 -1.2499 -1.0742 -0.4047
  467MOL0     O62918   8.314   7.590   7.309  0.7533 -0.6361 -0.1227
  467MOL0     C62919   8.363   7.519   7.423  0.2551  0.4829 -0.4000
  467MOL0     C62920   8.267   7.552   7.545  1.3164 -0.4738  0.3089
  467MOL0     C62921   8.331   7.511   7.676  0.1024  0.5707  0.1120
  467MOL0     C62922   8.254   7.486   7.805  0.0784  0.3517 -0.7006
  467MOL0     C62923   8.354   7.444   7.923  0.4337 -0.3335  0.0408
  467MOL0     C62924   8.273   7.445   8.054  0.4925  0.4377  0.9983
  467MOL0     C62925   8.352   7.424   8.187  0.5104 -0.6864  0.8396
  467MOL0     C62926   8.454   7.546   8.218 -0.7796 -0.3548 -0.2043
  467MOL0     N62927   8.401   7.679   8.217  0.2586  0.2445 -0.9885
  467MOL0     C62928   8.398   7.753   8.097 -0.1790  1.0210  0.1960
  467MOL0     C62929   8.345   7.867   8.141  1.3257  0.4875  0.0311
  467MOL0     C62930   8.333   7.995   8.062 -0.4888 -0.7456 -0.3946
  467MOL0     C62931   8.300   7.986   7.918  0.4167  0.7019  0.4019
  467MOL0     C62932   8.164   7.912   7.895  0.1003 -0.4421 -0.2246
  467MOL0     C62933   8.129   7.919   7.742 -0.0162  0.7315  0.3858
  467MOL0     O62934   7.999   7.854   7.736 -0.4666  0.1908  0.4730
  467MOL0     C62935   7.941   7.815   7.616  0.6643 -0.0909 -0.1628
  467MOL0     C62936   7.983   7.841   7.485  0.8858 -0.5469  0.3363
  467MOL0     C62937   7.905   7.790   7.372 -0.1299  0.2123 -0.0704
  467MOL0     C62938   7.957   7.837   7.229  0.3331 -0.2093  0.0026
  467MOL0     C62939   7.789   7.718   7.391 -0.4700  0.0961  0.1160
  467MOL0     C62940   7.702   7.667   7.288 -0.1492 -0.0023  0.0311
  467MOL0     O62941   7.573   7.633   7.332 -0.4310 -0.6070  0.0787
  467MOL0     C62942   7.481   7.608   7.239 -0.0722  0.0043 -0.3158
  467MOL0     C62943   7.457   7.699   7.138 -1.0933 -0.4470 -0.0634
  467MOL0     C62944   7.371   7.657   7.030  0.2249 -0.4152  0.1901
  467MOL0     C62945   7.293   7.545   7.034  0.3141 -0.2747 -0.0175
  467MOL0     O62946   7.201   7.513   6.940  0.2925  0.8615 -0.0563
  467MOL0     C62947   7.219   7.549   6.801 -0.5041  0.7132 -0.0408
  467MOL0     C62948   7.091   7.504   6.731 -0.1171  1.3226 -0.1578
  467MOL0     C62949   7.083   7.519   6.584  0.5737  0.3405  0.0755
  467MOL0     C62950   6.943   7.485   6.541 -0.8776  0.3238 -0.8235
  467MOL0     C62951   6.916   7.545   6.400 -0.1583 -0.9718 -0.4690
  467MOL0     C62952   6.773   7.528   6.372 -0.0857  0.1824  0.1427
  467MOL0     C62953   6.733   7.533   6.219  0.2225 -0.2292  0.1074
  467MOL0     C62954   6.696   7.670   6.166  0.2400  0.4539 -0.9271
  467MOL0    Cl62955   6.844   7.770   6.142  0.0665 -0.5411 -0.0036
  467MOL0     C62956   7.322   7.458   7.135  0.6136 -0.1521  0.4654
  467MOL0     C62957   7.419   7.487   7.239  0.7238  0.9656 -0.4896
  467MOL0     O62958   7.743   7.648   7.172  0.6319  1.0087 -0.3898
  467MOL0     C62959   7.753   7.695   7.527 -0.2510 -1.0494  0.7481
  467MOL0     C62960   7.822   7.749   7.630 -0.9720 -0.8955 -0.1853
  467MOL0     N62961   8.306   7.851   8.276  0.6389 -0.7953  0.1305
  467MOL0     N62962   8.353   7.745   8.327  0.1504 -0.9012 -0.0778
  467MOL0     C62963   8.421   7.799   7.380 -0.7431  0.5147  0.4325
  467MOL0     C62964   8.485   7.910   7.349 -0.1476  0.1231  0.4152
  467MOL0     C62965   8.713   8.201   7.062  0.3422 -0.4779 -1.0261
  467MOL0     C62966   8.834   8.214   6.989  0.3082 -0.1551 -0.2703
  467MOL0     C62967   8.887   8.339   6.958 -0.3681  0.1986  1.1895
  467MOL0     C62968   8.811   8.456   6.981  0.0802 -0.1858 -0.2590
  467MOL0     O62969   8.875   8.571   6.955  0.2052  0.0156  0.8549
  467MOL0     C62970   8.810   8.697   6.990  0.3836  0.7162  0.6048
  467MOL0     C62971   8.814   8.726   7.136  0.1728 -0.2252 -0.3999
  467MOL0     C62972   8.733   8.857   7.157 -0.5152  0.0999 -0.2936
  467MOL0     C62973   8.658   8.864   7.281 -0.2216  0.8190 -0.1092
  467MOL0     C62974   8.519   8.810   7.253 -0.1997 -0.2982  0.5518
  467MOL0     C62975   8.413   8.755   7.240  0.0142  0.8062  0.1631
  467MOL0     C62976   8.684   8.446   7.042 -0.0285  0.4841 -0.4560
  467MOL0     C62977   8.642   8.322   7.086  0.3390  0.7419  1.3414
  467MOL0     H62978   8.426   7.937   7.024  0.7036 -1.8899  0.1924
  467MOL0     H62979   8.315   7.697   7.076  0.5167 -1.7664  0.9501
  467MOL0     H62980   8.369   7.410   7.413 -1.0270  0.2382  1.0454
  467MOL0     H62981   8.466   7.554   7.432  0.5334  1.1904 -4.4171
  467MOL0     H62982   8.245   7.659   7.558 -1.0740 -0.9804  1.0570
  467MOL0     H62983   8.170   7.501   7.539  1.0226  0.0871  0.1068
  467MOL0     H62984   8.386   7.419   7.654 -0.2411  0.4662 -0.3292
  467MOL0     H62985   8.409   7.583   7.702  1.8787 -1.4304  0.6259
  467MOL0     H62986   8.197   7.575   7.833 -1.0414 -1.0332  1.7537
  467MOL0     H62987   8.177   7.411   7.790 -0.7018  1.5106 -2.9120
  467MOL0     H62988   8.384   7.340   7.910 -0.3161 -0.5495 -0.0027
  467MOL0     H62989   8.440   7.511   7.935 -0.6649  1.0165  0.8468
  467MOL0     H62990   8.212   7.536   8.057 -0.7208 -0.1764 -1.8692
  467MOL0     H62991   8.197   7.367   8.048  0.5814  0.4389 -0.6581
  467MOL0     H62992   8.278   7.426   8.266  0.4564  0.8744  0.7709
  467MOL0     H62993   8.402   7.327   8.195 -1.1866 -1.8248 -1.2902
  467MOL0     H62994   8.532   7.541   8.141 -0.7396  2.8565 -0.5253
  467MOL0     H62995   8.507   7.534   8.312  1.1345 -2.1487 -1.4291
  467MOL0     H62996   8.461   7.748   8.009 -1.1331 -3.8335 -0.5106
  467MOL0     H62997   8.255   8.055   8.110 -0.0206  1.5545 -2.3474
  467MOL0     H62998   8.428   8.048   8.074 -1.1802  0.7298 -1.2462
  467MOL0     H62999   8.376   7.921   7.873  2.2978  2.3730  1.0451
  467MOL0     H63000   8.300   8.087   7.877  1.1501  0.8092  0.6538
  467MOL0     H63001   8.081   7.960   7.948  2.5190  0.4859  3.0764
  467MOL0     H63002   8.179   7.809   7.926  1.9425  0.6131  2.8457
  467MOL0     H63003   8.192   7.854   7.681  0.6256 -0.0013  1.7796
  467MOL0     H63004   8.118   8.024   7.713 -3.4576  0.2618 -0.3539
  467MOL0     H63005   8.077   7.894   7.474  1.2232  0.5672  5.8663
  467MOL0     H63006   7.893   7.916   7.189  0.2284  0.9303  2.2614
  467MOL0     H63007   8.058   7.879   7.233  1.1331 -1.8773 -1.4526
  467MOL0     H63008   7.980   7.755   7.161 -0.1210  0.0126 -0.4234
  467MOL0     H63009   7.508   7.794   7.151  0.1369 -1.4040  2.9856
  467MOL0     H63010   7.359   7.724   6.945 -0.4456 -0.9971 -0.1817
  467MOL0     H63011   7.244   7.653   6.780 -0.4603  0.2516 -2.5545
  467MOL0     H63012   7.311   7.499   6.770 -0.7813  0.8085 -1.0654
  467MOL0     H63013   7.094   7.396   6.751 -0.9755  0.5843 -3.4162
  467MOL0     H63014   7.006   7.556   6.776 -2.0133 -0.7199 -1.1883
  467MOL0     H63015   7.158   7.459   6.530 -0.6416 -0.9828 -0.1807
  467MOL0     H63016   7.103   7.626   6.582 -3.1512  1.1602 -1.4190
  467MOL0     H63017   6.928   7.376   6.545 -0.8941  0.3148  3.8544
  467MOL0     H63018   6.867   7.504   6.617 -0.5443 -0.1110 -0.3685
  467MOL0     H63019   6.967   7.496   6.317 -0.3305  0.7551 -1.6576
  467MOL0     H63020   6.933   7.653   6.402 -1.6192 -0.7090  1.9724
  467MOL0     H63021   6.740   7.432   6.413 -3.2278  1.2600  0.4309
  467MOL0     H63022   6.720   7.609   6.422 -0.9542  1.0035 -2.0085
  467MOL0     H63023   6.638   7.481   6.208 -0.5123  1.0801  0.1018
  467MOL0     H63024   6.795   7.477   6.148 -0.5309  0.1882 -0.9057
  467MOL0     H63025   6.629   7.734   6.225  1.1827  2.0055 -1.5033
  467MOL0     H63026   6.650   7.638   6.072 -2.3672  0.2839  0.3194
  467MOL0     H63027   7.263   7.367   7.138  1.4457 -0.6753  2.0453
  467MOL0     H63028   7.415   7.421   7.325  4.7611 -1.7052 -2.0347
  467MOL0     H63029   7.662   7.645   7.560 -0.6758 -1.8160 -1.3849
  467MOL0     H63030   7.784   7.736   7.731  0.5662  2.9232  1.0622
  467MOL0     H63031   8.425   7.763   7.483 -3.6171 -3.0759 -0.4833
  467MOL0     H63032   8.547   7.954   7.426 -1.0429 -1.2328  1.9618
  467MOL0     H63033   8.901   8.128   6.990 -2.2633 -2.2666  0.3814
  467MOL0     H63034   8.990   8.347   6.923 -0.4890  1.1249  1.0333
  467MOL0     H63035   8.863   8.770   6.928  2.3995 -2.1429 -1.2807
  467MOL0     H63036   8.709   8.713   6.952  0.6828 -0.0400 -0.5753
  467MOL0     H63037   8.914   8.727   7.180 -0.0910  2.8460  0.3916
  467MOL0     H63038   8.748   8.651   7.180  0.7992 -1.5137 -1.5632
  467MOL0     H63039   8.674   8.882   7.069  2.3308  1.5945 -1.9098
  467MOL0     H63040   8.815   8.930   7.162  1.2733 -1.8512  1.0675
  467MOL0     H63041   8.665   8.964   7.325  2.1852 -0.6899  3.4181
  467MOL0     H63042   8.717   8.811   7.357  1.6782  1.0970 -1.3184
  467MOL0     H63043   8.321   8.701   7.226  0.5281  0.5205 -2.4926
  467MOL0     H63044   8.615   8.526   7.068  0.7494  1.0909 -0.2210
  467MOL0     H63045   8.553   8.325   7.149 -1.3343 -0.1217 -0.8412
  468MOL0     O63046  11.263   2.916   0.316 -0.2411 -0.1816  0.4419
  468MOL0     C63047  11.315   2.807   0.317  0.1616 -1.0040 -0.3241
  468MOL0     O63048  11.285   2.698   0.237  0.1734 -0.1261  0.1744
  468MOL0     C63049  11.206   2.725   0.127  0.0966  0.5570  0.0328
  468MOL0     C63050  11.260   2.736  -0.002  0.0023 -0.6017 -0.5369
  468MOL0     C63051  11.180   2.752  -0.119 -0.6122  0.7915 -0.0552
  468MOL0     C63052  11.038   2.756  -0.103 -0.3701  0.2741  0.7346
  468MOL0     O63053  10.965   2.762  -0.218 -0.1560 -0.3648 -0.5713
  468MOL0     C63054  10.822   2.791  -0.214 -0.0470  0.2650  0.4643
  468MOL0     C63055  10.776   2.775  -0.364  0.2211 -0.5268  1.0773
  468MOL0     C63056  10.640   2.851  -0.386  0.1542 -0.5882 -0.4301
  468MOL0     C63057  10.663   2.998  -0.422  0.1985 -0.4246 -0.3200
  468MOL0     C63058  10.530   3.064  -0.464  0.3252  0.5215 -0.1914
  468MOL0     C63059  10.495   3.008  -0.601 -0.3209 -0.7521  0.2509
  468MOL0     C63060  10.383   3.081  -0.672  0.4579 -1.3331  0.7895
  468MOL0     C63061  10.245   3.064  -0.604 -0.4827  0.2903 -0.8201
  468MOL0     N63062  10.133   3.117  -0.679  0.7652  0.1624 -0.4397
  468MOL0     C63063  10.103   3.080  -0.802 -0.2597 -0.6493  0.1837
  468MOL0     C63064   9.982   3.125  -0.831 -0.5140  1.7230 -0.6818
  468MOL0     C63065   9.924   3.105  -0.969 -0.0473 -0.9389 -0.2204
  468MOL0     C63066   9.877   3.247  -1.030 -0.0877  0.1420  0.4664
  468MOL0     C63067   9.821   3.238  -1.171 -0.1114  0.2944 -0.5063
  468MOL0     C63068   9.718   3.135  -1.191 -0.2930 -0.2684 -0.5603
  468MOL0     O63069   9.697   3.117  -1.330  0.4878  0.1465  0.0120
  468MOL0     C63070   9.586   3.166  -1.390  0.6617 -0.5674  0.1442
  468MOL0     C63071   9.454   3.183  -1.340 -0.4425  1.1183  0.3072
  468MOL0     C63072   9.356   3.238  -1.416  0.1388 -0.0653  0.9269
  468MOL0     C63073   9.213   3.222  -1.371  0.9848 -0.0776  0.3406
  468MOL0     C63074   9.376   3.276  -1.551 -0.8095 -0.3306 -0.0610
  468MOL0     C63075   9.273   3.337  -1.647  0.3118  0.2515  0.1287
  468MOL0     O63076   9.309   3.345  -1.777 -0.0556  0.0537  0.0152
  468MOL0     C63077   9.225   3.429  -1.847 -0.2156  0.7120 -0.4461
  468MOL0     C63078   9.109   3.384  -1.896 -0.3419 -1.1359 -0.3509
  468MOL0     C63079   9.023   3.452  -1.984 -0.6394 -0.3746  0.1388
  468MOL0     C63080   9.071   3.577  -2.019 -0.1791 -1.2679 -1.3453
  468MOL0     O63081   8.993   3.660  -2.093 -0.3876 -0.4660  0.0573
  468MOL0     C63082   9.042   3.714  -2.218 -0.4835  0.4270 -0.3538
  468MOL0     C63083   8.945   3.732  -2.330  0.8290 -0.5021 -0.3895
  468MOL0     C63084   8.902   3.602  -2.395 -0.0668 -0.1666 -0.5002
  468MOL0     C63085   8.799   3.517  -2.323  1.3360  0.4052  0.0494
  468MOL0     C63086   8.667   3.580  -2.269  1.3783  0.6055 -0.0339
  468MOL0     C63087   8.598   3.658  -2.383 -0.0314  0.1403 -0.7683
  468MOL0     C63088   8.456   3.696  -2.330 -0.8890  0.4184 -0.2382
  468MOL0     C63089   8.377   3.748  -2.441 -0.0421 -0.4207 -0.1522
  468MOL0    Cl63090   8.349   3.624  -2.568 -0.2278 -0.4538  0.1859
  468MOL0     C63091   9.185   3.634  -1.965  0.2540 -0.4161 -0.3293
  468MOL0     C63092   9.259   3.556  -1.872 -0.5075 -0.8012 -0.0535
  468MOL0     O63093   9.173   3.389  -1.601  0.8197  0.1930 -0.3955
  468MOL0     C63094   9.515   3.272  -1.599 -0.1912 -0.6578 -0.6375
  468MOL0     C63095   9.613   3.221  -1.514 -0.3167  0.0698  0.5758
  468MOL0     N63096   9.949   3.200  -0.724  0.8782  0.4226 -0.4233
  468MOL0     N63097  10.030   3.186  -0.626  0.8848  0.6107  0.7481
  468MOL0     C63098  10.986   2.753   0.029 -0.3230 -0.0320  0.2384
  468MOL0     C63099  11.063   2.741   0.138  0.0202  0.7928 -0.8792
  468MOL0     C63100  11.417   2.795   0.422  0.0646 -0.1040  0.3768
  468MOL0     C63101  11.455   2.894   0.508  0.2638  0.5231  0.5862
  468MOL0     C63102  11.539   2.873   0.614  0.0227  0.1670 -0.5739
  468MOL0     C63103  11.595   2.747   0.639 -0.7791  0.4712 -0.7252
  468MOL0     O63104  11.695   2.733   0.735  0.3394 -0.3469  0.3513
  468MOL0     C63105  11.804   2.640   0.701 -0.2023  0.1679  0.2524
  468MOL0     C63106  11.936   2.668   0.767  0.4248 -0.1960  0.1747
  468MOL0     C63107  12.025   2.548   0.730 -0.3404  0.1543 -0.7545
  468MOL0     C63108  12.168   2.569   0.786 -0.3521  0.4573 -0.5431
  468MOL0     C63109  12.245   2.683   0.737 -0.2569  0.4321  0.4361
  468MOL0     C63110  12.314   2.767   0.692 -0.0834  0.2677 -0.3734
  468MOL0     C63111  11.576   2.647   0.541  0.7190 -0.7681 -0.7023
  468MOL0     C63112  11.472   2.666   0.445  0.3046  0.3888  0.1002
  468MOL0     H63113  11.367   2.723  -0.006  0.0465  0.1038 -2.6696
  468MOL0     H63114  11.224   2.754  -0.218  1.6456 -0.2152  0.8792
  468MOL0     H63115  10.768   2.714  -0.158 -1.2285 -0.5815 -1.7210
  468MOL0     H63116  10.797   2.891  -0.177 -0.4310  0.4482 -0.2805
  468MOL0     H63117  10.852   2.813  -0.433  0.0359 -1.3446  0.4125
  468MOL0     H63118  10.745   2.673  -0.390  0.9669 -0.2519 -1.1161
  468MOL0     H63119  10.581   2.802  -0.465 -1.4229  1.3961 -0.5648
  468MOL0     H63120  10.579   2.853  -0.295  3.5328 -3.3186  2.1423
  468MOL0     H63121  10.708   3.058  -0.344 -1.1007  1.4164 -0.9100
  468MOL0     H63122  10.731   3.000  -0.508  1.8892 -0.1461  0.9870
  468MOL0     H63123  10.447   3.057  -0.394 -0.0439  1.4293 -0.5348
  468MOL0     H63124  10.542   3.172  -0.476  1.2868  0.4733  0.2026
  468MOL0     H63125  10.586   3.013  -0.661 -1.0132 -2.3540 -1.0430
  468MOL0     H63126  10.468   2.902  -0.606  0.4354 -0.9750  0.8489
  468MOL0     H63127  10.408   3.188  -0.668 -1.0557 -0.9978  2.0926
  468MOL0     H63128  10.370   3.055  -0.777 -2.1277 -1.5809  1.1194
  468MOL0     H63129  10.258   3.107  -0.504  3.4216 -0.0888 -1.0267
  468MOL0     H63130  10.225   2.957  -0.599 -0.9129  0.3923 -0.1607
  468MOL0     H63131  10.162   3.025  -0.874 -0.9111 -0.6632 -0.3422
  468MOL0     H63132  10.001   3.056  -1.029  1.2388  0.2012  0.4531
  468MOL0     H63133   9.837   3.040  -0.959 -0.6094 -0.2977 -0.8275
  468MOL0     H63134   9.959   3.320  -1.028 -1.3981  1.6429  0.7811
  468MOL0     H63135   9.800   3.287  -0.964 -0.7746 -1.4546  0.6775
  468MOL0     H63136   9.901   3.227  -1.244 -1.0905 -0.0388 -1.5480
  468MOL0     H63137   9.778   3.334  -1.201 -0.2389  0.5110  0.3231
  468MOL0     H63138   9.624   3.173  -1.147  0.4099  0.8978 -0.0101
  468MOL0     H63139   9.748   3.037  -1.153  0.9339  0.3539  0.1397
  468MOL0     H63140   9.431   3.137  -1.244  4.0213  2.0722  2.0868
  468MOL0     H63141   9.217   3.188  -1.267 -0.9093  1.8081  1.1116
  468MOL0     H63142   9.162   3.319  -1.370 -1.0853 -1.0654 -1.5222
  468MOL0     H63143   9.154   3.152  -1.431  0.9483  1.2958 -1.2891
  468MOL0     H63144   9.077   3.282  -1.874 -0.1605 -1.6215 -2.1969
  468MOL0     H63145   8.927   3.409  -2.013  0.5550 -2.9664 -0.3268
  468MOL0     H63146   9.086   3.812  -2.198 -1.0454  0.5885  0.1122
  468MOL0     H63147   9.132   3.656  -2.244  1.3623  1.4566  3.1582
  468MOL0     H63148   8.860   3.786  -2.286 -0.3346 -2.4262 -0.1447
  468MOL0     H63149   8.994   3.797  -2.402 -0.0793  2.3366  1.3673
  468MOL0     H63150   8.997   3.549  -2.408  0.8674  1.5992 -1.1226
  468MOL0     H63151   8.864   3.616  -2.496  1.3432  0.0273 -1.0247
  468MOL0     H63152   8.769   3.437  -2.392 -1.8951  0.0058  1.7470
  468MOL0     H63153   8.848   3.475  -2.234 -0.9130 -0.3191  1.0090
  468MOL0     H63154   8.686   3.654  -2.192 -0.3468  0.5093  0.5044
  468MOL0     H63155   8.609   3.494  -2.236  4.7508 -0.4967  3.8539
  468MOL0     H63156   8.650   3.749  -2.418 -0.0244 -0.7491 -3.2993
  468MOL0     H63157   8.596   3.602  -2.477  2.0731 -0.5430 -0.4597
  468MOL0     H63158   8.452   3.776  -2.255 -0.5823  0.5799 -0.3917
  468MOL0     H63159   8.399   3.608  -2.300  1.1798 -1.8754 -2.5849
  468MOL0     H63160   8.430   3.829  -2.492 -0.1500  0.9112  1.7548
  468MOL0     H63161   8.281   3.766  -2.391  0.6220 -0.8618  1.3346
  468MOL0     H63162   9.209   3.739  -1.973 -0.5486 -0.1284  0.7913
  468MOL0     H63163   9.342   3.608  -1.824 -1.7287 -0.0386  1.3051
  468MOL0     H63164   9.524   3.330  -1.691  0.8421  3.1427  1.6518
  468MOL0     H63165   9.712   3.228  -1.558 -0.4186 -0.1127  0.3167
  468MOL0     H63166  10.880   2.756   0.051 -0.0844  2.9674  1.5352
  468MOL0     H63167  11.026   2.732   0.240  0.0293  3.0635 -0.6179
  468MOL0     H63168  11.419   2.996   0.500  1.4088  0.9642  0.9958
  468MOL0     H63169  11.561   2.955   0.680  3.3955 -0.8808 -0.2125
  468MOL0     H63170  11.758   2.542   0.715  0.0952 -0.6121 -3.2198
  468MOL0     H63171  11.829   2.638   0.594 -1.2502  1.8535 -0.0696
  468MOL0     H63172  11.930   2.677   0.876 -0.5479  0.5422  0.0735
  468MOL0     H63173  11.967   2.767   0.732 -2.2872  0.6807  0.0693
  468MOL0     H63174  12.042   2.528   0.624 -0.3568  0.1811 -0.7627
  468MOL0     H63175  11.984   2.456   0.773  1.4703  1.2831  4.0649
  468MOL0     H63176  12.225   2.476   0.776 -0.9221  0.0549 -0.1310
  468MOL0     H63177  12.162   2.584   0.895  1.0058  0.2958 -0.4356
  468MOL0     H63178  12.380   2.844   0.658 -1.3557  0.8446 -1.6224
  468MOL0     H63179  11.608   2.547   0.569  1.7642  0.8910  5.4685
  468MOL0     H63180  11.436   2.584   0.383  1.2365 -0.3614  0.5236
  469MOL0     O63181   7.637  11.455   6.862 -0.2232 -0.6189  0.0460
  469MOL0     C63182   7.553  11.527   6.914  0.5148  0.0368  0.2867
  469MOL0     O63183   7.540  11.556   7.045 -0.3143 -0.3981  0.7250
  469MOL0     C63184   7.621  11.509   7.135  0.2043  0.3563  0.7293
  469MOL0     C63185   7.702  11.594   7.208  0.0391  0.3363  0.3906
  469MOL0     C63186   7.756  11.546   7.327  0.2950 -0.3207 -1.0887
  469MOL0     C63187   7.774  11.409   7.340  0.4966  0.4238 -0.5355
  469MOL0     O63188   7.853  11.361   7.437 -0.4806  0.4647  0.0750
  469MOL0     C63189   7.865  11.221   7.473  0.8557  0.2105  0.4953
  469MOL0     C63190   8.009  11.190   7.475  0.1785  0.6201  0.9136
  469MOL0     C63191   8.079  11.286   7.581  0.2562 -0.7219  1.4353
  469MOL0     C63192   8.224  11.247   7.580  0.5503 -0.5804 -0.9255
  469MOL0     C63193   8.319  11.354   7.660  1.0135  0.0191 -0.5943
  469MOL0     C63194   8.464  11.305   7.668 -0.5975 -0.2039 -0.2777
  469MOL0     C63195   8.548  11.397   7.753 -0.2768 -0.0169 -0.0095
  469MOL0     C63196   8.699  11.343   7.782 -0.1866  0.2043  0.1515
  469MOL0     N63197   8.796  11.381   7.673  0.8093 -0.9118  0.0011
  469MOL0     C63198   8.807  11.347   7.541  0.4861  0.1375  0.7893
  469MOL0     C63199   8.907  11.414   7.487 -0.3603  0.4531  0.1278
  469MOL0     C63200   8.961  11.432   7.350  0.0032  0.3907 -0.3574
  469MOL0     C63201   9.092  11.359   7.308 -0.4755 -0.1153  0.9495
  469MOL0     C63202   9.139  11.249   7.401 -0.4954 -1.3342  0.1317
  469MOL0     C63203   9.289  11.219   7.384 -0.4762  0.5266  0.0544
  469MOL0     O63204   9.306  11.110   7.480 -0.2096 -0.0891  0.0492
  469MOL0     C63205   9.361  10.988   7.449 -1.0648 -0.6156 -0.2554
  469MOL0     C63206   9.309  10.896   7.357 -0.2571 -0.2063 -0.5900
  469MOL0     C63207   9.361  10.773   7.314  0.6803 -0.5198  0.1761
  469MOL0     C63208   9.280  10.684   7.224  0.0599 -0.2661 -0.4828
  469MOL0     C63209   9.492  10.741   7.372  0.2778 -0.8933  0.2508
  469MOL0     C63210   9.559  10.614   7.358  0.4036 -0.6984  0.2603
  469MOL0     O63211   9.523  10.541   7.245 -0.1463  0.6548  0.7173
  469MOL0     C63212   9.585  10.420   7.200 -0.1335 -0.9286 -0.6780
  469MOL0     C63213   9.657  10.322   7.284  0.6537 -0.8892 -0.4122
  469MOL0     C63214   9.724  10.215   7.235  0.1532 -0.0430 -0.0562
  469MOL0     C63215   9.733  10.188   7.089 -0.0266  0.6951  0.6142
  469MOL0     O63216   9.795  10.081   7.030 -0.6857  0.1811  0.1423
  469MOL0     C63217   9.755   9.943   7.064 -0.9817  0.2333 -0.6100
  469MOL0     C63218   9.612   9.911   7.020 -0.3185 -0.2421  0.0576
  469MOL0     C63219   9.600   9.762   7.015  0.0115 -0.2709  0.5649
  469MOL0     C63220   9.463   9.723   6.961  0.9643 -0.5446  0.2031
  469MOL0     C63221   9.447   9.575   6.950  0.0570  0.4652 -0.0274
  469MOL0     C63222   9.328   9.549   6.859  0.2180  0.1540  0.7267
  469MOL0     C63223   9.305   9.400   6.842  0.1943 -0.3511  0.0907
  469MOL0     C63224   9.403   9.343   6.739  0.2249 -0.6064 -0.2304
  469MOL0    Cl63225   9.419   9.427   6.578 -0.0852 -0.4161  0.4508
  469MOL0     C63226   9.664  10.278   7.002  0.2281  0.0177 -0.0670
  469MOL0     C63227   9.592  10.392   7.063  0.0818  0.2860 -0.2316
  469MOL0     O63228   9.650  10.591   7.433 -0.1231  0.3592  0.3819
  469MOL0     C63229   9.546  10.838   7.461  0.4258  0.2746 -0.4048
  469MOL0     C63230   9.486  10.959   7.503  0.3186 -0.9813 -0.3881
  469MOL0     N63231   8.966  11.490   7.587 -0.2357  0.2381 -0.0418
  469MOL0     N63232   8.908  11.455   7.697  0.3790 -0.1511  0.5282
  469MOL0     C63233   7.690  11.322   7.260 -0.3640  0.0487 -0.8256
  469MOL0     C63234   7.608  11.374   7.165  0.1779  0.4984 -0.6729
  469MOL0     C63235   7.445  11.572   6.825 -0.1738 -0.0592  0.2290
  469MOL0     C63236   7.348  11.648   6.882  1.0004 -0.0609 -0.1865
  469MOL0     C63237   7.245  11.704   6.802 -0.4579 -0.0475 -0.0385
  469MOL0     C63238   7.227  11.664   6.667 -1.1876 -1.1687  0.3341
  469MOL0     O63239   7.146  11.725   6.578 -0.0536  0.0089  0.1444
  469MOL0     C63240   7.110  11.863   6.596 -0.2566  0.3133 -0.2230
  469MOL0     C63241   6.982  11.878   6.665 -0.5115 -0.1067 -0.0804
  469MOL0     C63242   6.854  11.890   6.578 -0.9236  0.4793  0.3054
  469MOL0     C63243   6.839  11.766   6.501 -0.0374 -0.0251  1.1063
  469MOL0     C63244   6.705  11.750   6.437  0.5412  0.0092 -0.2794
  469MOL0     C63245   6.588  11.740   6.378 -0.6352 -0.0410  0.1037
  469MOL0     C63246   7.321  11.575   6.614 -0.3634  0.8902  1.0294
  469MOL0     C63247   7.427  11.533   6.695 -0.3000 -0.9087  0.4395
  469MOL0     H63248   7.702  11.700   7.185 -3.7697  0.5556  0.7247
  469MOL0     H63249   7.819  11.618   7.379  1.0074 -1.0896 -0.8658
  469MOL0     H63250   7.810  11.208   7.566 -2.1068  2.0583 -0.8189
  469MOL0     H63251   7.825  11.148   7.401  2.0324 -0.3627  0.4069
  469MOL0     H63252   8.017  11.088   7.513 -0.8390  0.2027  0.0281
  469MOL0     H63253   8.055  11.178   7.377  0.2043 -4.5514  1.3232
  469MOL0     H63254   8.071  11.391   7.550  0.1178  0.2235  4.4063
  469MOL0     H63255   8.032  11.278   7.679 -0.1941  0.6417  1.3578
  469MOL0     H63256   8.231  11.150   7.630 -3.4058  0.1070  1.4165
  469MOL0     H63257   8.257  11.230   7.478 -1.0495  1.7545 -1.9127
  469MOL0     H63258   8.295  11.448   7.611  1.0208  0.0205 -0.5957
  469MOL0     H63259   8.285  11.358   7.764  0.1218  3.5769 -0.9228
  469MOL0     H63260   8.461  11.204   7.709 -1.4827 -0.8221 -1.7816
  469MOL0     H63261   8.511  11.314   7.570  3.6795 -1.4738  1.3997
  469MOL0     H63262   8.569  11.486   7.694  0.3035 -0.7242 -0.8913
  469MOL0     H63263   8.507  11.429   7.849  1.6334  0.3071  0.7425
  469MOL0     H63264   8.695  11.234   7.788  2.2047 -0.0805 -1.8725
  469MOL0     H63265   8.741  11.394   7.870  0.2767 -1.0079  0.6466
  469MOL0     H63266   8.737  11.282   7.490  2.9858 -2.3740  0.3787
  469MOL0     H63267   8.884  11.402   7.278  0.5679 -1.0661 -0.3890
  469MOL0     H63268   8.980  11.539   7.337  0.4772 -0.0513 -5.1102
  469MOL0     H63269   9.166  11.438   7.292 -3.0457  1.7223 -3.8634
  469MOL0     H63270   9.066  11.312   7.213  1.1241 -2.0452  1.3913
  469MOL0     H63271   9.071  11.165   7.384 -3.4410  0.7358  0.7778
  469MOL0     H63272   9.121  11.286   7.502 -0.3052  0.8514 -0.5750
  469MOL0     H63273   9.362  11.295   7.414  2.4768 -2.6717  1.6598
  469MOL0     H63274   9.311  11.213   7.277  2.0278  2.8402  0.3292
  469MOL0     H63275   9.216  10.938   7.318 -0.6985 -0.5953  0.0458
  469MOL0     H63276   9.332  10.668   7.129  1.5551 -0.4984  0.3460
  469MOL0     H63277   9.266  10.591   7.280 -1.2091 -0.9906 -1.9223
  469MOL0     H63278   9.184  10.730   7.199 -0.6162 -1.6290 -0.4455
  469MOL0     H63279   9.637  10.341   7.389  2.1503  1.6152 -0.5150
  469MOL0     H63280   9.787  10.161   7.305  2.4517 -1.3885 -2.9229
  469MOL0     H63281   9.823   9.872   7.016 -0.9370  0.5784 -1.0659
  469MOL0     H63282   9.766   9.925   7.172 -1.2349  0.6097 -0.5219
  469MOL0     H63283   9.546   9.945   7.101  0.4834 -0.1502  0.6809
  469MOL0     H63284   9.587   9.960   6.926  2.2872 -3.1146 -2.3532
  469MOL0     H63285   9.625   9.736   7.118  1.0875  1.0479  0.6768
  469MOL0     H63286   9.676   9.725   6.946 -0.5912 -0.7453  0.1520
  469MOL0     H63287   9.389   9.766   7.030 -0.8774 -1.4112 -1.1369
  469MOL0     H63288   9.456   9.776   6.865  2.1850 -3.2539 -1.4858
  469MOL0     H63289   9.430   9.527   7.047 -0.8536  3.6508  1.5495
  469MOL0     H63290   9.541   9.533   6.915 -0.0258  0.0229  0.2787
  469MOL0     H63291   9.239   9.590   6.907 -0.9085 -0.0961 -1.0339
  469MOL0     H63292   9.331   9.595   6.760 -1.0383  2.5366  1.7294
  469MOL0     H63293   9.206   9.375   6.803  0.9008 -1.4436 -1.1031
  469MOL0     H63294   9.310   9.346   6.937  0.6500 -1.4582 -0.5426
  469MOL0     H63295   9.384   9.235   6.736 -1.6865 -0.7281  5.0633
  469MOL0     H63296   9.504   9.354   6.781  0.6393  3.2835 -1.8217
  469MOL0     H63297   9.675  10.254   6.897  2.4507 -1.0153  0.3314
  469MOL0     H63298   9.556  10.459   6.986  0.6572 -0.2681 -0.9916
  469MOL0     H63299   9.646  10.814   7.496 -0.5346  0.6864  3.0158
  469MOL0     H63300   9.542  11.020   7.573  0.8692 -1.3991 -0.4576
  469MOL0     H63301   7.690  11.215   7.278  2.8422 -0.3499 -2.4122
  469MOL0     H63302   7.538  11.310   7.113  0.8393 -1.4788  0.7545
  469MOL0     H63303   7.326  11.674   6.985 -0.5721  2.7764 -1.0872
  469MOL0     H63304   7.178  11.776   6.848 -0.3373 -0.8018  1.3948
  469MOL0     H63305   7.192  11.903   6.656 -1.2352  2.4702 -0.2158
  469MOL0     H63306   7.104  11.926   6.507 -0.4715  1.4929  0.5879
  469MOL0     H63307   6.990  11.969   6.725  0.0690 -1.4616  2.0241
  469MOL0     H63308   6.971  11.806   6.748  2.4099  2.5609  2.9196
  469MOL0     H63309   6.859  11.976   6.511  1.1214 -0.1731 -0.4662
  469MOL0     H63310   6.762  11.898   6.637 -1.2511  3.4274 -0.4711
  469MOL0     H63311   6.844  11.685   6.575  0.1180  0.5288  1.7104
  469MOL0     H63312   6.918  11.756   6.427  0.7444  1.6566  1.6765
  469MOL0     H63313   6.494  11.746   6.327 -0.1125 -1.1647 -1.0645
  469MOL0     H63314   7.318  11.559   6.507  5.1394  0.4637  0.6223
  469MOL0     H63315   7.512  11.484   6.650 -0.3153 -1.9600  1.4844
  470MOL0     O63316   1.052   5.287   0.735  0.2489  1.0316  0.2130
  470MOL0     C63317   1.000   5.177   0.750 -0.3833  0.6506  0.1367
  470MOL0     O63318   1.065   5.064   0.800 -0.1154  0.5430  0.2132
  470MOL0     C63319   1.199   5.052   0.834  0.2768  0.7053  0.0897
  470MOL0     C63320   1.271   4.926   0.826  0.3032 -0.5016  0.6392
  470MOL0     C63321   1.407   4.912   0.863  0.5430 -0.7280 -0.0372
  470MOL0     C63322   1.471   5.020   0.929  0.5218  0.6157  0.1597
  470MOL0     O63323   1.600   4.996   0.978 -0.5515 -0.3938 -1.3647
  470MOL0     C63324   1.700   5.097   1.011 -0.1221  0.2397  0.2791
  470MOL0     C63325   1.691   5.164   1.148  0.1137  0.1975  0.5341
  470MOL0     C63326   1.824   5.238   1.179  0.8351  0.9975  0.5614
  470MOL0     C63327   1.792   5.360   1.268  0.1827  0.9073  0.0512
  470MOL0     C63328   1.921   5.389   1.347  0.3756 -0.8386  0.0707
  470MOL0     C63329   1.887   5.513   1.442  0.0355  0.7366  0.8736
  470MOL0     C63330   2.002   5.525   1.530  0.3529 -0.4919  0.0604
  470MOL0     C63331   2.126   5.592   1.462  0.3034 -0.7284  0.1684
  470MOL0     N63332   2.220   5.622   1.566 -0.2203 -1.0376  0.2490
  470MOL0     C63333   2.331   5.537   1.593  0.0738 -0.1405  0.4932
  470MOL0     C63334   2.380   5.576   1.711 -0.6969  0.5221 -0.5642
  470MOL0     C63335   2.504   5.529   1.791 -0.4233 -0.2134  0.4690
  470MOL0     C63336   2.554   5.392   1.736 -0.7627  0.6085  0.0091
  470MOL0     C63337   2.670   5.347   1.828 -0.7377  0.9674 -0.5089
  470MOL0     C63338   2.717   5.202   1.792  0.2535  0.2789 -0.2910
  470MOL0     O63339   2.604   5.117   1.789 -0.5358 -1.0052 -0.1877
  470MOL0     C63340   2.621   4.983   1.822 -0.2766  0.6466  0.6481
  470MOL0     C63341   2.507   4.901   1.851  0.1914 -0.1821 -0.0787
  470MOL0     C63342   2.517   4.763   1.871 -0.0770  1.1433 -1.2980
  470MOL0     C63343   2.381   4.694   1.898  0.8441 -0.6575  0.6445
  470MOL0     C63344   2.640   4.698   1.880 -0.3197 -0.9539 -0.4180
  470MOL0     C63345   2.656   4.559   1.913  0.2554  1.6466  0.2514
  470MOL0     O63346   2.740   4.527   2.021  0.4882 -0.1977 -0.5410
  470MOL0     C63347   2.768   4.390   2.042  0.2084  0.3458  0.1774
  470MOL0     C63348   2.836   4.322   1.943 -0.2326 -0.1076 -0.4545
  470MOL0     C63349   2.845   4.181   1.944  0.4681  0.4170 -0.1583
  470MOL0     C63350   2.799   4.103   2.058 -0.8165 -0.0048  1.1658
  470MOL0     O63351   2.793   3.964   2.054  0.2272 -0.1350  0.0206
  470MOL0     C63352   2.825   3.898   1.931 -0.4333  0.6162 -0.0028
  470MOL0     C63353   2.811   3.742   1.959 -0.5785 -0.7263 -0.5019
  470MOL0     C63354   2.673   3.705   1.983 -0.8069  0.6230  0.4145
  470MOL0     C63355   2.653   3.566   2.037  0.2364 -0.0136  0.0488
  470MOL0     C63356   2.500   3.518   2.056  0.3332  0.4748  0.2460
  470MOL0     C63357   2.491   3.372   2.102 -0.2107 -0.9054  0.5349
  470MOL0     C63358   2.503   3.343   2.251 -0.6633 -0.2747 -0.3027
  470MOL0     C63359   2.390   3.259   2.304 -0.2575 -0.3476  0.1718
  470MOL0    Cl63360   2.403   3.221   2.469 -0.2244 -0.3168 -0.5434
  470MOL0     C63361   2.723   4.169   2.146 -0.0855  0.7102  0.1673
  470MOL0     C63362   2.706   4.311   2.143  0.1266 -0.0179 -0.2477
  470MOL0     O63363   2.588   4.485   1.847 -0.2145 -0.8221  0.1610
  470MOL0     C63364   2.756   4.777   1.843  0.3961  0.4633  0.1774
  470MOL0     C63365   2.744   4.912   1.815 -0.0361 -1.1212 -0.2449
  470MOL0     N63366   2.301   5.684   1.757 -0.5914 -0.0959 -0.0875
  470MOL0     N63367   2.206   5.708   1.669 -0.2221 -0.6729  0.1240
  470MOL0     C63368   1.412   5.148   0.928 -0.5857 -0.2223 -0.1726
  470MOL0     C63369   1.278   5.163   0.883  0.3527  0.9942  0.7728
  470MOL0     C63370   0.865   5.169   0.694 -0.4155  0.6384 -0.2384
  470MOL0     C63371   0.807   5.047   0.664  0.2417 -0.4739 -0.1018
  470MOL0     C63372   0.685   5.043   0.597 -0.2430  0.2293  0.7080
  470MOL0     C63373   0.621   5.163   0.564  0.3096  1.5030  0.2155
  470MOL0     O63374   0.502   5.146   0.496  0.1724 -0.4801 -0.8223
  470MOL0     C63375   0.391   5.219   0.537  0.0091 -0.1363  0.3027
  470MOL0     C63376   0.276   5.208   0.438 -0.1527  0.6253 -0.0301
  470MOL0     C63377   0.177   5.090   0.471  0.4925 -0.0129  0.5819
  470MOL0     C63378   0.223   4.967   0.391 -0.0940  0.1371 -0.1860
  470MOL0     C63379   0.142   4.851   0.422  0.0829 -0.2650 -0.0860
  470MOL0     C63380   0.096   4.753   0.471 -0.6996  0.0313  0.4776
  470MOL0     C63381   0.673   5.282   0.606  0.7915 -0.7352 -0.4729
  470MOL0     C63382   0.789   5.284   0.671  0.3620 -0.2008  0.1252
  470MOL0     H63383   1.223   4.841   0.778  1.9245 -1.0954 -0.0171
  470MOL0     H63384   1.450   4.814   0.840 -1.9497 -1.6328 -1.2977
  470MOL0     H63385   1.801   5.057   0.998  0.1402  1.4889 -2.0371
  470MOL0     H63386   1.701   5.175   0.935  0.3547  0.3238  0.3658
  470MOL0     H63387   1.601   5.226   1.143  0.5462  0.8959  1.1749
  470MOL0     H63388   1.671   5.078   1.213 -0.4642  0.1034  0.2403
  470MOL0     H63389   1.872   5.165   1.245 -2.7014 -2.5767 -0.4590
  470MOL0     H63390   1.882   5.259   1.089 -1.4044 -0.3439 -1.2899
  470MOL0     H63391   1.754   5.452   1.223 -2.8016 -0.2768 -0.0802
  470MOL0     H63392   1.713   5.325   1.335  0.9517  1.0837  1.0815
  470MOL0     H63393   1.957   5.306   1.409  2.2242 -0.5148 -0.4995
  470MOL0     H63394   2.004   5.416   1.280 -2.2900  1.2479 -2.6572
  470MOL0     H63395   1.871   5.606   1.386 -0.6829 -1.6454 -3.2366
  470MOL0     H63396   1.792   5.488   1.490 -0.6015 -0.2090 -0.7888
  470MOL0     H63397   1.972   5.590   1.613  3.2832  1.1959 -0.0553
  470MOL0     H63398   2.022   5.431   1.582 -1.8871 -0.7372  0.5927
  470MOL0     H63399   2.090   5.688   1.424 -1.7507 -1.1792  0.8573
  470MOL0     H63400   2.167   5.522   1.389  0.8531 -0.9576  0.6943
  470MOL0     H63401   2.369   5.465   1.521  0.0410  3.3354 -3.3293
  470MOL0     H63402   2.573   5.613   1.778 -0.3626 -0.7035 -3.8521
  470MOL0     H63403   2.470   5.506   1.892 -0.5507  0.1488  0.5104
  470MOL0     H63404   2.583   5.383   1.632  0.3678 -0.1767  0.3784
  470MOL0     H63405   2.465   5.329   1.748 -0.4652  0.5711  2.7204
  470MOL0     H63406   2.638   5.354   1.933  2.0651 -0.8227  0.5889
  470MOL0     H63407   2.745   5.426   1.823 -0.2101  0.5265  0.1891
  470MOL0     H63408   2.789   5.158   1.863 -0.7196  1.6428  1.6313
  470MOL0     H63409   2.768   5.193   1.696 -1.0508 -2.5842 -0.8434
  470MOL0     H63410   2.403   4.933   1.850 -0.5340 -2.3361  0.4688
  470MOL0     H63411   2.291   4.751   1.872  1.3680  0.0743  0.3927
  470MOL0     H63412   2.375   4.599   1.844  0.7658  0.9561 -2.3588
  470MOL0     H63413   2.384   4.664   2.003 -3.1250 -0.4347  0.9835
  470MOL0     H63414   2.876   4.368   1.853  0.8463  2.0768  1.0547
  470MOL0     H63415   2.901   4.128   1.867  0.8269 -1.1689  1.1397
  470MOL0     H63416   2.754   3.931   1.855  0.4608  0.3790 -0.9684
  470MOL0     H63417   2.931   3.916   1.911  0.0809 -2.4876 -0.6511
  470MOL0     H63418   2.863   3.678   1.887 -0.6114 -1.2310 -0.0783
  470MOL0     H63419   2.869   3.736   2.052 -1.4529 -1.1775  0.0275
  470MOL0     H63420   2.620   3.708   1.888  0.7019  0.7817 -0.4439
  470MOL0     H63421   2.625   3.769   2.058  0.9295 -1.5967  3.6724
  470MOL0     H63422   2.711   3.510   1.964  1.6872 -1.8719  2.4654
  470MOL0     H63423   2.713   3.561   2.128  5.1861  0.4782 -2.8357
  470MOL0     H63424   2.455   3.532   1.957  2.1348  2.0830 -0.4254
  470MOL0     H63425   2.448   3.577   2.133 -0.3963  0.6596 -0.3787
  470MOL0     H63426   2.395   3.331   2.070  0.4049 -1.4122 -0.7646
  470MOL0     H63427   2.567   3.314   2.047 -0.3805 -0.8693  0.2631
  470MOL0     H63428   2.505   3.442   2.298  0.5855 -0.3265 -0.2030
  470MOL0     H63429   2.601   3.308   2.284  0.8493  2.4565 -1.5385
  470MOL0     H63430   2.369   3.165   2.252  0.7339 -0.2472 -0.4366
  470MOL0     H63431   2.304   3.320   2.274  2.2137  2.5300 -1.6563
  470MOL0     H63432   2.679   4.100   2.218  0.5606 -1.6215 -1.5531
  470MOL0     H63433   2.630   4.345   2.213 -0.4562  2.2367 -1.8549
  470MOL0     H63434   2.844   4.715   1.832  0.3235  0.4321 -0.2246
  470MOL0     H63435   2.829   4.968   1.779  0.6850 -2.0398 -0.0194
  470MOL0     H63436   1.470   5.237   0.954  0.6484 -1.4224  1.3629
  470MOL0     H63437   1.245   5.266   0.880  1.9402  1.5799 -3.0674
  470MOL0     H63438   0.854   4.951   0.681 -1.1880 -1.6790 -2.4575
  470MOL0     H63439   0.640   4.949   0.570 -1.6301  1.0679 -0.0168
  470MOL0     H63440   0.366   5.171   0.631  1.5082 -4.2522 -1.1654
  470MOL0     H63441   0.411   5.326   0.550  1.4505 -0.3440  0.0177
  470MOL0     H63442   0.306   5.191   0.334 -1.9237  1.4152 -0.7104
  470MOL0     H63443   0.216   5.299   0.435 -4.4322 -1.9296 -0.4429
  470MOL0     H63444   0.085   5.119   0.420  0.3151  0.5193  1.1903
  470MOL0     H63445   0.162   5.066   0.576  0.2848 -1.0885  0.3213
  470MOL0     H63446   0.329   4.946   0.408  0.4686  1.1312 -2.0913
  470MOL0     H63447   0.224   4.995   0.285 -0.9149  1.7269  0.2030
  470MOL0     H63448   0.040   4.669   0.506 -3.0478  1.1318 -0.4219
  470MOL0     H63449   0.613   5.370   0.582 -2.3864 -2.4987  0.3536
  470MOL0     H63450   0.827   5.383   0.697 -1.6756  0.5323  0.5117
  471MOL0     O63451   3.729   4.511   0.240  0.5757  0.2423 -0.3028
  471MOL0     C63452   3.695   4.400   0.195  0.0083 -1.4093  0.2022
  471MOL0     O63453   3.567   4.346   0.191  0.4328  0.1524 -0.2067
  471MOL0     C63454   3.469   4.433   0.231 -0.8235 -0.1526  0.3555
  471MOL0     C63455   3.448   4.544   0.154  0.4294  1.1862  0.1300
  471MOL0     C63456   3.349   4.637   0.201 -0.2653  0.9703  0.4966
  471MOL0     C63457   3.298   4.619   0.322  0.4984  0.4868 -0.0801
  471MOL0     O63458   3.221   4.724   0.366  0.2239  0.5164 -0.1634
  471MOL0     C63459   3.126   4.703   0.474 -0.0521 -0.0809  0.1560
  471MOL0     C63460   3.050   4.839   0.471 -0.2910 -0.7165  0.2676
  471MOL0     C63461   2.936   4.840   0.577 -0.4356  1.2390  0.9873
  471MOL0     C63462   2.876   4.981   0.582  0.2397 -0.0239  0.6916
  471MOL0     C63463   2.833   5.020   0.726 -0.0714 -0.6149 -0.0768
  471MOL0     C63464   2.727   4.932   0.791  0.4367  0.5399 -0.4237
  471MOL0     C63465   2.730   4.952   0.942  0.6345 -0.9755 -0.0709
  471MOL0     C63466   2.826   4.872   1.025 -0.3773 -0.9028 -0.0644
  471MOL0     N63467   2.850   4.945   1.151  0.1839 -0.2097  0.0513
  471MOL0     C63468   2.959   4.952   1.233  0.6730  0.5452 -0.4992
  471MOL0     C63469   2.912   5.010   1.338  0.2681 -0.1890 -0.0995
  471MOL0     C63470   3.008   5.039   1.451 -0.2491  0.1335  0.5744
  471MOL0     C63471   3.126   5.140   1.427 -0.0087 -0.0803  0.6627
  471MOL0     C63472   3.088   5.283   1.423  0.0048  0.7041  0.0461
  471MOL0     C63473   3.034   5.330   1.281  0.5025  0.1356  0.8221
  471MOL0     O63474   2.973   5.458   1.285 -0.3016 -0.2825  0.7948
  471MOL0     C63475   2.844   5.480   1.247 -0.3058 -0.4934  0.1303
  471MOL0     C63476   2.819   5.617   1.224 -0.4272  0.9909 -0.4925
  471MOL0     C63477   2.691   5.668   1.193  0.2425  0.4862 -0.3099
  471MOL0     C63478   2.683   5.816   1.166 -0.1246 -0.4512 -0.4044
  471MOL0     C63479   2.577   5.577   1.179  0.3335 -0.1361  0.1624
  471MOL0     C63480   2.449   5.609   1.117  0.4273  0.2365 -1.1740
  471MOL0     O63481   2.332   5.542   1.172  0.6163  0.2644 -0.4148
  471MOL0     C63482   2.207   5.580   1.122 -0.1875  0.2976  0.0056
  471MOL0     C63483   2.156   5.712   1.137 -0.4316 -0.1472 -0.3711
  471MOL0     C63484   2.021   5.744   1.107  0.4869 -0.1142  0.8050
  471MOL0     C63485   1.941   5.643   1.050  0.4416 -0.4258  0.6065
  471MOL0     O63486   1.810   5.658   1.007  0.3566 -0.2602 -0.7017
  471MOL0     C63487   1.747   5.789   1.002 -0.2163  1.0398 -0.0900
  471MOL0     C63488   1.605   5.768   0.970 -0.3991  0.2051  0.2863
  471MOL0     C63489   1.518   5.706   1.088  0.2106  0.0624 -0.3323
  471MOL0     C63490   1.370   5.675   1.060 -1.1056  0.3281  0.4745
  471MOL0     C63491   1.290   5.626   1.178 -0.0934  0.9185  0.1168
  471MOL0     C63492   1.247   5.483   1.152  0.0088 -0.5957 -0.0013
  471MOL0     C63493   1.162   5.420   1.264  0.4361 -0.1619 -0.6130
  471MOL0     C63494   1.107   5.293   1.218  0.8762  0.0408 -0.5765
  471MOL0    Cl63495   1.001   5.297   1.069  0.0999  0.1095 -0.0322
  471MOL0     C63496   1.995   5.519   1.018  0.8651 -0.3855 -0.4586
  471MOL0     C63497   2.125   5.483   1.065 -0.1832 -0.3787  0.2565
  471MOL0     O63498   2.443   5.694   1.035  0.6688 -0.3740  0.5472
  471MOL0     C63499   2.607   5.443   1.203 -0.4126 -0.3282  0.0738
  471MOL0     C63500   2.734   5.393   1.240 -0.8522  0.0897  0.9265
  471MOL0     N63501   2.775   5.041   1.324 -0.2940 -0.2125  0.4053
  471MOL0     N63502   2.742   5.002   1.209  0.6689  0.7235  0.2803
  471MOL0     C63503   3.319   4.503   0.400  0.2049  0.3230 -0.1193
  471MOL0     C63504   3.400   4.408   0.345 -0.3150  0.1902 -0.0928
  471MOL0     C63505   3.806   4.309   0.150 -0.8599  0.1162 -1.4203
  471MOL0     C63506   3.941   4.338   0.175 -0.9254  0.0746  0.0047
  471MOL0     C63507   4.037   4.257   0.120 -0.2031  0.6438  0.5486
  471MOL0     C63508   4.011   4.142   0.042  0.9273 -0.6898 -0.0999
  471MOL0     O63509   4.117   4.085  -0.025  0.5271  0.3852  0.1390
  471MOL0     C63510   4.124   3.945   0.009 -0.0355  0.5214 -0.1016
  471MOL0     C63511   4.204   3.945   0.151  0.2002  0.2772 -0.0609
  471MOL0     C63512   4.237   3.792   0.178  0.0609 -0.3404  0.1611
  471MOL0     C63513   4.314   3.758   0.309  0.4177  0.2795 -0.5630
  471MOL0     C63514   4.460   3.743   0.296 -0.5159 -0.5063 -0.4789
  471MOL0     C63515   4.580   3.726   0.287  0.3983  0.0071  0.0538
  471MOL0     C63516   3.881   4.113   0.020  0.0623 -0.6686 -0.2929
  471MOL0     C63517   3.775   4.196   0.078  0.0103  0.2759  0.5945
  471MOL0     H63518   3.503   4.578   0.067 -2.4366  2.7671 -1.2047
  471MOL0     H63519   3.324   4.731   0.152 -0.2478  2.1105  2.5579
  471MOL0     H63520   3.052   4.628   0.445  0.0343 -0.4116  0.7710
  471MOL0     H63521   3.169   4.680   0.572  0.1142  0.0985  0.1251
  471MOL0     H63522   3.116   4.923   0.496  0.5415 -0.2653 -2.9517
  471MOL0     H63523   3.020   4.854   0.367  2.4929 -1.1128 -0.6776
  471MOL0     H63524   2.866   4.759   0.553  1.5855 -0.4176  0.3430
  471MOL0     H63525   2.979   4.810   0.673 -1.5351 -1.4788  0.7160
  471MOL0     H63526   2.947   5.056   0.546 -0.5319  0.8736  0.9773
  471MOL0     H63527   2.787   4.982   0.518  0.3815 -4.7548  0.1303
  471MOL0     H63528   2.920   5.025   0.792  1.1890 -2.0625 -1.5465
  471MOL0     H63529   2.790   5.121   0.722 -1.4349 -1.1750 -3.9811
  471MOL0     H63530   2.628   4.953   0.749  1.7899  2.7578 -2.8201
  471MOL0     H63531   2.750   4.826   0.779  1.4644  0.3460  2.4810
  471MOL0     H63532   2.753   5.057   0.960  1.6143 -0.6437 -2.7359
  471MOL0     H63533   2.626   4.951   0.977 -0.1058  0.3447 -2.0220
  471MOL0     H63534   2.921   4.866   0.971  0.4096  0.8938  1.0379
  471MOL0     H63535   2.789   4.771   1.045 -0.4039 -1.1345 -1.1883
  471MOL0     H63536   3.060   4.912   1.241  0.2262 -0.2495  2.0123
  471MOL0     H63537   2.955   5.072   1.541 -0.0110  0.2215  0.6830
  471MOL0     H63538   3.066   4.953   1.487  3.3126  2.2895  0.4844
  471MOL0     H63539   3.184   5.122   1.336  1.2232 -1.9191  1.7373
  471MOL0     H63540   3.201   5.120   1.504 -0.1777 -1.7206  0.4368
  471MOL0     H63541   3.172   5.351   1.439  1.3726 -0.7081 -0.8422
  471MOL0     H63542   3.013   5.281   1.503  0.2947  1.6897  0.3547
  471MOL0     H63543   2.954   5.260   1.254 -1.0100  1.9924  0.3142
  471MOL0     H63544   3.111   5.316   1.205  1.6075 -0.1374  1.9508
  471MOL0     H63545   2.906   5.679   1.238  0.8582 -0.9732  0.7452
  471MOL0     H63546   2.594   5.872   1.196 -0.1784 -1.1106  0.7463
  471MOL0     H63547   2.770   5.851   1.223  1.2790 -1.5207 -1.8107
  471MOL0     H63548   2.696   5.839   1.060 -0.1683  2.3891  0.1269
  471MOL0     H63549   2.204   5.786   1.200 -1.9286  0.1571  0.4783
  471MOL0     H63550   1.982   5.842   1.133 -2.2152 -0.8307 -0.1833
  471MOL0     H63551   1.759   5.851   1.091  0.6333 -2.1556  2.2038
  471MOL0     H63552   1.806   5.840   0.925  0.4339 -2.2032 -1.9342
  471MOL0     H63553   1.560   5.865   0.948  0.1462  0.4480  0.2352
  471MOL0     H63554   1.599   5.703   0.881 -2.6069 -0.2257  0.6798
  471MOL0     H63555   1.524   5.786   1.162 -1.0100 -0.8564  0.8282
  471MOL0     H63556   1.572   5.617   1.124 -1.2570 -0.6137  0.2849
  471MOL0     H63557   1.316   5.761   1.018 -2.3621 -1.7887 -2.6449
  471MOL0     H63558   1.375   5.601   0.980  2.0534  0.1032  0.7485
  471MOL0     H63559   1.195   5.680   1.171 -2.0920 -2.4077 -0.5119
  471MOL0     H63560   1.353   5.627   1.267  0.2813 -3.5581  0.1304
  471MOL0     H63561   1.194   5.493   1.057  1.7716  0.8438 -0.9030
  471MOL0     H63562   1.333   5.416   1.139  2.8431  1.7842  4.0086
  471MOL0     H63563   1.084   5.495   1.280  1.4192  0.8599 -0.4640
  471MOL0     H63564   1.230   5.407   1.349  0.7470 -3.4648 -1.2307
  471MOL0     H63565   1.065   5.237   1.302 -0.3659  0.1840 -1.0698
  471MOL0     H63566   1.185   5.222   1.190 -0.5100 -1.1720 -1.5061
  471MOL0     H63567   1.919   5.458   0.970 -0.0233  2.4975 -3.0491
  471MOL0     H63568   2.158   5.380   1.058  0.8086 -0.1653  1.5082
  471MOL0     H63569   2.535   5.363   1.189  2.1141 -2.5843 -1.1406
  471MOL0     H63570   2.754   5.290   1.266  0.2861 -0.8438 -3.0223
  471MOL0     H63571   3.289   4.491   0.503  0.2673  2.3637  0.1676
  471MOL0     H63572   3.429   4.310   0.383 -0.3481 -0.0391 -0.6541
  471MOL0     H63573   3.975   4.432   0.219  3.4883 -0.5500 -1.5108
  471MOL0     H63574   4.136   4.302   0.126 -0.6111  1.6959 -0.1893
  471MOL0     H63575   4.032   3.887  -0.006  1.6979 -2.1130 -1.1696
  471MOL0     H63576   4.191   3.907  -0.069 -2.3564 -1.1070 -1.4207
  471MOL0     H63577   4.136   3.997   0.219  0.7920  0.4956  0.3792
  471MOL0     H63578   4.296   4.002   0.132  0.9071 -1.1360 -1.0510
  471MOL0     H63579   4.299   3.759   0.094 -0.2391  0.3342 -0.3277
  471MOL0     H63580   4.145   3.732   0.177  0.4305 -0.9394  0.7152
  471MOL0     H63581   4.277   3.665   0.352  1.2101  0.5885  0.8513
  471MOL0     H63582   4.291   3.831   0.387 -1.5543 -0.5143 -0.3449
  471MOL0     H63583   4.686   3.725   0.301  0.3407  3.1817  1.7242
  471MOL0     H63584   3.865   4.036  -0.055  2.9311 -0.3914 -1.2963
  471MOL0     H63585   3.673   4.166   0.055 -0.6905 -0.1248  3.7847
  472MOL0     O63586   9.318   5.624   4.845  0.0649 -0.2051 -0.0658
  472MOL0     C63587   9.307   5.514   4.906  0.8277 -0.4813  1.4025
  472MOL0     O63588   9.406   5.445   4.957  0.1882  0.4786  0.9172
  472MOL0     C63589   9.530   5.484   4.925 -0.3593  0.4920 -0.6174
  472MOL0     C63590   9.601   5.562   5.023  0.3927  0.7670 -0.4461
  472MOL0     C63591   9.730   5.603   5.008  0.5637 -0.3498  0.2293
  472MOL0     C63592   9.793   5.584   4.885  0.3455  0.0653  0.3426
  472MOL0     O63593   9.915   5.633   4.876  0.3861 -1.0063  0.6727
  472MOL0     C63594   9.951   5.679   4.741 -0.2390  0.6626 -0.6048
  472MOL0     C63595  10.078   5.746   4.742  0.4073 -0.4023 -0.5617
  472MOL0     C63596  10.188   5.664   4.797 -0.1958  0.1624 -0.4871
  472MOL0     C63597  10.312   5.751   4.815  0.5430 -0.4880 -0.2954
  472MOL0     C63598  10.445   5.678   4.850  0.9282  0.3226  0.5043
  472MOL0     C63599  10.450   5.620   4.995  0.2771  0.9793 -0.3658
  472MOL0     C63600  10.563   5.519   5.019 -0.2200 -0.3332 -0.2243
  472MOL0     C63601  10.570   5.500   5.173  0.4761  0.7222  0.8152
  472MOL0     N63602  10.652   5.388   5.221  0.7436  0.3982  0.8871
  472MOL0     C63603  10.684   5.281   5.151 -1.0402  0.1417  0.3191
  472MOL0     C63604  10.803   5.243   5.196  0.2096 -0.3779  0.0417
  472MOL0     C63605  10.894   5.147   5.119 -0.7539 -0.3965  0.1521
  472MOL0     C63606  11.031   5.154   5.175 -0.4006 -0.5077 -0.7927
  472MOL0     C63607  11.112   5.049   5.100  0.0762 -0.3723 -0.0883
  472MOL0     C63608  11.265   5.079   5.130 -0.3017 -0.4819 -0.3863
  472MOL0     O63609  11.281   5.038   5.268 -0.5642  0.8266 -0.0022
  472MOL0     C63610  11.350   5.125   5.353 -0.1368  0.4964 -0.1591
  472MOL0     C63611  11.332   5.262   5.378  0.4284 -0.7097 -0.2168
  472MOL0     C63612  11.420   5.340   5.464  1.2905  0.2298  0.6423
  472MOL0     C63613  11.381   5.491   5.488 -0.0105 -0.1848 -0.7664
  472MOL0     C63614  11.540   5.273   5.505 -0.2741 -0.3492  0.1814
  472MOL0     C63615  11.655   5.351   5.559  0.0911 -0.1136  0.0875
  472MOL0     O63616  11.639   5.487   5.562 -0.1688  0.1338 -0.6969
  472MOL0     C63617  11.717   5.576   5.635  0.2457 -0.2497 -0.3410
  472MOL0     C63618  11.666   5.703   5.680  0.2100  0.8133  0.6824
  472MOL0     C63619  11.742   5.781   5.763  0.2941 -0.4644  0.4455
  472MOL0     C63620  11.883   5.767   5.772  0.1392 -0.9743 -0.3460
  472MOL0     O63621  11.950   5.878   5.804  0.0302 -0.0240  0.3902
  472MOL0     C63622  12.076   5.864   5.879  0.1423  0.4289  0.1866
  472MOL0     C63623  12.202   5.867   5.779  0.8629  0.2278 -0.1680
  472MOL0     C63624  12.222   6.009   5.716 -0.5290 -0.6308 -0.4837
  472MOL0     C63625  12.210   6.022   5.569 -0.8839  0.2102  0.9295
  472MOL0     C63626  12.090   5.965   5.502 -0.0800  0.2162  0.2172
  472MOL0     C63627  11.956   6.044   5.505  0.1239 -0.7825  0.0844
  472MOL0     C63628  11.844   5.958   5.428 -0.1630 -0.6651 -0.9820
  472MOL0     C63629  11.840   5.969   5.274 -0.1805 -0.3478  0.4051
  472MOL0    Cl63630  11.694   5.910   5.206 -0.0817  0.0219  0.6023
  472MOL0     C63631  11.937   5.649   5.715 -0.2409 -0.6830  0.1938
  472MOL0     C63632  11.861   5.554   5.654  0.3685 -0.2017 -0.2894
  472MOL0     O63633  11.748   5.290   5.606 -0.5788 -0.0317 -0.8907
  472MOL0     C63634  11.558   5.127   5.490  0.5870 -1.2453  0.3825
  472MOL0     C63635  11.454   5.066   5.423  1.0601 -0.2119 -0.9817
  472MOL0     N63636  10.837   5.322   5.306  0.1516 -0.0479  0.9825
  472MOL0     N63637  10.734   5.397   5.321  0.3180  0.1789  0.0899
  472MOL0     C63638   9.733   5.500   4.787 -0.1233 -0.1285  0.0956
  472MOL0     C63639   9.600   5.452   4.810  0.2587  0.5537 -0.8542
  472MOL0     C63640   9.172   5.457   4.918  0.3955 -0.1755 -0.9430
  472MOL0     C63641   9.141   5.350   5.002 -0.2751  0.4772 -0.4368
  472MOL0     C63642   9.017   5.301   5.024 -0.0968 -0.2450  0.2233
  472MOL0     C63643   8.910   5.347   4.948  0.1206  0.0479 -0.0964
  472MOL0     O63644   8.784   5.306   4.992 -0.1555  0.1393 -0.6695
  472MOL0     C63645   8.673   5.374   4.922  0.0252  0.0322 -0.5048
  472MOL0     C63646   8.540   5.306   4.954 -0.4760 -0.1840 -0.3407
  472MOL0     C63647   8.512   5.315   5.109  1.3486 -0.7053 -0.5738
  472MOL0     C63648   8.382   5.247   5.147  0.7117 -0.7998 -0.1952
  472MOL0     C63649   8.403   5.105   5.150 -0.1195 -0.0574 -0.1534
  472MOL0     C63650   8.435   4.991   5.165 -0.5713  0.7048 -0.2114
  472MOL0     C63651   8.941   5.434   4.844  0.1065  0.5588 -1.2213
  472MOL0     C63652   9.062   5.497   4.838 -0.4935 -0.8186 -0.1343
  472MOL0     H63653   9.556   5.598   5.115 -0.3088  2.4920 -1.4124
  472MOL0     H63654   9.782   5.662   5.082  1.2204 -2.1987  1.3189
  472MOL0     H63655   9.956   5.605   4.661 -2.9772  1.5425 -1.7366
  472MOL0     H63656   9.877   5.750   4.701 -3.0426 -0.2910  2.4425
  472MOL0     H63657  10.104   5.780   4.641  1.1345 -1.5754 -0.7891
  472MOL0     H63658  10.074   5.838   4.800  0.3445 -0.7682  0.0247
  472MOL0     H63659  10.163   5.625   4.896 -1.1024  2.7862  0.4001
  472MOL0     H63660  10.207   5.583   4.725  0.0007  1.0330 -1.4420
  472MOL0     H63661  10.333   5.817   4.730  1.8416  1.9575  1.8003
  472MOL0     H63662  10.292   5.819   4.898  0.7753  1.2722 -1.6328
  472MOL0     H63663  10.478   5.596   4.785  1.6170 -0.8302  2.2143
  472MOL0     H63664  10.529   5.747   4.844  0.5672  0.7037 -0.2388
  472MOL0     H63665  10.464   5.711   5.054 -2.1028  0.2793  1.4153
  472MOL0     H63666  10.354   5.575   5.020  0.3883 -0.1555 -1.8460
  472MOL0     H63667  10.550   5.429   4.958 -0.2992  1.6621 -3.3955
  472MOL0     H63668  10.655   5.561   4.977 -0.9892  1.2409 -0.4081
  472MOL0     H63669  10.467   5.496   5.209  1.0386 -3.4006  2.5693
  472MOL0     H63670  10.605   5.592   5.221 -2.2852  2.5852 -0.4712
  472MOL0     H63671  10.633   5.231   5.068  1.0981 -2.1503  0.2688
  472MOL0     H63672  10.868   5.041   5.127  3.4480 -1.4461  5.2258
  472MOL0     H63673  10.891   5.169   5.012  3.2476  2.1415  0.3877
  472MOL0     H63674  11.038   5.127   5.281 -0.4150 -1.8470 -1.1130
  472MOL0     H63675  11.075   5.251   5.152  3.9086 -2.0189  0.0454
  472MOL0     H63676  11.084   5.053   4.994 -3.0776  1.7211  0.6903
  472MOL0     H63677  11.081   4.951   5.137 -3.9781  0.1776 -1.5827
  472MOL0     H63678  11.279   5.185   5.110 -0.7707 -0.0138  1.6018
  472MOL0     H63679  11.335   5.017   5.072 -0.3558 -2.9414  1.9563
  472MOL0     H63680  11.247   5.308   5.328 -1.3563 -1.6564  1.7780
  472MOL0     H63681  11.430   5.550   5.411 -0.8833 -1.7312 -2.5901
  472MOL0     H63682  11.272   5.485   5.478  0.0243 -1.7595 -0.5830
  472MOL0     H63683  11.409   5.526   5.588  3.5179 -1.8554 -1.0291
  472MOL0     H63684  11.563   5.728   5.657  0.5504  0.0051 -2.0633
  472MOL0     H63685  11.705   5.876   5.801  2.5693  1.1779 -1.1984
  472MOL0     H63686  12.089   5.943   5.954  1.5780 -0.4258  0.8824
  472MOL0     H63687  12.062   5.768   5.930 -3.0305 -0.6424 -2.2834
  472MOL0     H63688  12.290   5.829   5.832 -0.7382 -2.3287  0.8992
  472MOL0     H63689  12.173   5.786   5.711 -3.7361 -0.4438  2.1163
  472MOL0     H63690  12.316   6.055   5.747 -0.2371  0.9054 -3.3153
  472MOL0     H63691  12.140   6.076   5.745 -0.5574 -0.3257 -1.2361
  472MOL0     H63692  12.225   6.128   5.548 -1.7906  0.0643 -0.5173
  472MOL0     H63693  12.294   5.969   5.522  0.1125  3.5217 -1.3255
  472MOL0     H63694  12.073   5.870   5.554  0.4489 -1.3353 -2.2598
  472MOL0     H63695  12.125   5.939   5.402  4.1145 -1.5087  1.9287
  472MOL0     H63696  11.943   6.057   5.613  1.5922 -1.0959  0.3177
  472MOL0     H63697  11.973   6.140   5.456  2.1152  0.4619  2.9200
  472MOL0     H63698  11.744   5.995   5.453 -0.2929 -0.9631 -1.0568
  472MOL0     H63699  11.846   5.855   5.466 -0.8368 -1.1229 -2.1290
  472MOL0     H63700  11.931   5.923   5.235  1.0867  0.5309  2.1956
  472MOL0     H63701  11.844   6.075   5.246  0.3604  0.3564  2.9404
  472MOL0     H63702  12.043   5.640   5.734  0.0029  1.0912 -0.1804
  472MOL0     H63703  11.903   5.458   5.626  0.0546 -1.4122  2.9560
  472MOL0     H63704  11.650   5.078   5.517  1.8862  0.2192 -1.1697
  472MOL0     H63705  11.444   4.958   5.431  0.0682 -0.0069  3.1115
  472MOL0     H63706   9.777   5.462   4.695  1.4707 -0.7170  1.0643
  472MOL0     H63707   9.546   5.389   4.741  1.0476 -1.6791  0.4648
  472MOL0     H63708   9.213   5.310   5.073  0.5794 -1.8016 -2.4556
  472MOL0     H63709   8.984   5.245   5.111  1.3231  3.0774  3.1411
  472MOL0     H63710   8.679   5.479   4.952  1.6559 -0.4597  1.1107
  472MOL0     H63711   8.677   5.376   4.812 -2.1312 -2.2887 -0.7173
  472MOL0     H63712   8.545   5.204   4.915  2.4885  0.0325 -0.6970
  472MOL0     H63713   8.470   5.355   4.885  1.8719  0.0544 -2.6762
  472MOL0     H63714   8.503   5.419   5.143 -2.4374 -1.3752  1.0395
  472MOL0     H63715   8.587   5.277   5.178  0.4082  2.2657  2.3337
  472MOL0     H63716   8.304   5.281   5.077  1.1441  0.9332  0.1111
  472MOL0     H63717   8.353   5.272   5.249 -1.2584 -2.5379 -0.2701
  472MOL0     H63718   8.449   4.888   5.191 -2.5341 -0.0392 -1.8612
  472MOL0     H63719   8.880   5.483   4.769  0.2731  0.0779 -1.6838
  472MOL0     H63720   9.075   5.572   4.761 -0.4618  0.0569  0.7098
  473MOL0     O63721   3.592   0.678   3.917 -0.1758  0.3566 -0.8398
  473MOL0     C63722   3.702   0.730   3.927  0.6169  0.0606  1.2005
  473MOL0     O63723   3.792   0.701   4.031 -0.7812 -0.4283  0.4983
  473MOL0     C63724   3.752   0.604   4.116  1.3758  0.2599 -0.1572
  473MOL0     C63725   3.826   0.483   4.120  0.5598 -0.2352 -1.2621
  473MOL0     C63726   3.794   0.391   4.220  0.0406  0.1528  0.4601
  473MOL0     C63727   3.691   0.414   4.310  0.5380  0.3957  0.0580
  473MOL0     O63728   3.671   0.334   4.424 -0.8134  0.3111 -0.1333
  473MOL0     C63729   3.712   0.193   4.420  0.7799 -0.1090 -0.2784
  473MOL0     C63730   3.693   0.112   4.553  0.2544  0.0320  0.1613
  473MOL0     C63731   3.777   0.176   4.667  0.0970  0.0646 -0.0686
  473MOL0     C63732   3.748   0.100   4.792 -0.2542 -0.4517 -0.4366
  473MOL0     C63733   3.822   0.154   4.908 -0.3353  0.0563  0.0688
  473MOL0     C63734   3.845   0.058   5.028 -0.7178 -0.0316  0.4594
  473MOL0     C63735   3.728  -0.025   5.057  1.0529 -0.5975  0.4614
  473MOL0     C63736   3.608   0.056   5.107 -0.5447 -0.6473 -0.4937
  473MOL0     N63737   3.634   0.112   5.242  0.1750 -0.4886 -0.3888
  473MOL0     C63738   3.676   0.239   5.265  0.6311 -0.7036 -0.1065
  473MOL0     C63739   3.650   0.266   5.398 -0.8616  0.6326 -0.0174
  473MOL0     C63740   3.693   0.386   5.473 -0.4835  0.2697  0.0777
  473MOL0     C63741   3.808   0.355   5.565 -0.4618  0.6714  0.8930
  473MOL0     C63742   3.839   0.476   5.657  0.2213 -0.8153 -0.0403
  473MOL0     C63743   3.978   0.470   5.713  0.2367  0.3772 -0.5055
  473MOL0     O63744   3.984   0.560   5.825 -0.1628 -0.4075 -0.3394
  473MOL0     C63745   4.098   0.561   5.898  0.2872 -0.8465 -0.1593
  473MOL0     C63746   4.107   0.650   6.003  1.4375 -0.7466  0.1738
  473MOL0     C63747   4.213   0.653   6.094 -0.5366  0.5784  0.7141
  473MOL0     C63748   4.219   0.754   6.211 -0.2331 -0.2901  0.0741
  473MOL0     C63749   4.323   0.557   6.064 -0.8878  0.2378 -0.3307
  473MOL0     C63750   4.433   0.539   6.167 -0.5228 -0.7800  0.0107
  473MOL0     O63751   4.560   0.549   6.113 -0.9310 -0.0953 -0.5432
  473MOL0     C63752   4.678   0.537   6.183 -0.7073  0.4753 -0.6405
  473MOL0     C63753   4.684   0.593   6.315  0.3294 -0.0712  0.5105
  473MOL0     C63754   4.808   0.596   6.384  0.8176 -0.6148 -0.0973
  473MOL0     C63755   4.926   0.553   6.314  0.2934 -0.2271 -0.0679
  473MOL0     O63756   5.052   0.561   6.371  0.2232  0.1540 -0.0115
  473MOL0     C63757   5.170   0.489   6.328 -0.8888 -0.6258  0.5913
  473MOL0     C63758   5.278   0.515   6.438 -0.1055  0.8156  0.4610
  473MOL0     C63759   5.418   0.462   6.404  0.0567  0.5532  0.1975
  473MOL0     C63760   5.513   0.501   6.512  0.3758  0.3150  0.6174
  473MOL0     C63761   5.658   0.480   6.464  0.0904 -0.4980  0.3402
  473MOL0     C63762   5.711   0.561   6.355  0.0452 -0.1220  0.5874
  473MOL0     C63763   5.865   0.534   6.336  0.2481  1.8211  0.1636
  473MOL0     C63764   5.923   0.614   6.205  0.3315  0.9993 -0.1535
  473MOL0    Cl63765   5.870   0.554   6.034  0.2310 -0.6748  0.2636
  473MOL0     C63766   4.921   0.524   6.181  0.3958 -0.2749  0.5751
  473MOL0     C63767   4.796   0.516   6.118 -0.3492  0.2986 -0.0907
  473MOL0     O63768   4.399   0.513   6.279  0.6915 -1.0030 -0.1110
  473MOL0     C63769   4.321   0.480   5.946 -0.1048  0.2325 -0.2192
  473MOL0     C63770   4.206   0.484   5.868  0.4912 -0.7528 -0.9571
  473MOL0     N63771   3.583   0.153   5.451 -0.2302  0.0426 -0.1112
  473MOL0     N63772   3.587   0.064   5.362  0.5018  0.0987  0.6171
  473MOL0     C63773   3.625   0.534   4.311  0.3549  0.0174 -0.0031
  473MOL0     C63774   3.647   0.629   4.210  0.2676 -0.5162  0.4882
  473MOL0     C63775   3.745   0.821   3.817  0.0012  0.0579 -0.9268
  473MOL0     C63776   3.653   0.843   3.716  0.5749  0.2089 -0.1656
  473MOL0     C63777   3.691   0.910   3.604  0.0318  0.3485  0.3046
  473MOL0     C63778   3.819   0.969   3.596  0.1853 -0.0920 -0.6385
  473MOL0     O63779   3.833   1.056   3.491 -0.1990 -0.0807 -0.2857
  473MOL0     C63780   3.939   1.152   3.504 -0.0905 -0.1080  0.3527
  473MOL0     C63781   3.907   1.261   3.406  1.0460 -0.3819  0.4212
  473MOL0     C63782   3.928   1.203   3.259 -0.4392 -0.3796 -0.5356
  473MOL0     C63783   3.873   1.294   3.145 -0.6892  0.1440 -0.4621
  473MOL0     C63784   3.935   1.276   3.012  0.1638 -0.0421  0.6173
  473MOL0     C63785   3.986   1.248   2.907 -0.1006 -0.2173 -0.4683
  473MOL0     C63786   3.903   0.943   3.703 -0.5358 -0.6926  0.3602
  473MOL0     C63787   3.873   0.868   3.811 -0.3020  0.2027 -0.6328
  473MOL0     H63788   3.912   0.468   4.056 -0.5049 -1.5166 -2.4679
  473MOL0     H63789   3.868   0.312   4.236 -0.0627 -0.1115 -0.3088
  473MOL0     H63790   3.657   0.139   4.342  1.6718 -0.1216 -0.9177
  473MOL0     H63791   3.818   0.177   4.400  0.4947 -2.0293 -0.4561
  473MOL0     H63792   3.589   0.099   4.585 -1.0226  4.5234 -1.3878
  473MOL0     H63793   3.748   0.020   4.533  1.2129  0.3065  1.4176
  473MOL0     H63794   3.882   0.179   4.636  0.0749  2.3062 -0.0768
  473MOL0     H63795   3.742   0.277   4.689  3.0114  0.6746  2.3900
  473MOL0     H63796   3.642   0.117   4.811  0.2222  2.1535  0.2480
  473MOL0     H63797   3.773  -0.006   4.776  3.3956  0.5137 -2.1320
  473MOL0     H63798   3.918   0.191   4.873 -0.4379  1.3787  1.0912
  473MOL0     H63799   3.764   0.241   4.941  0.9632  0.3797  1.6205
  473MOL0     H63800   3.923  -0.014   5.004 -0.4707  0.2557  0.3947
  473MOL0     H63801   3.887   0.119   5.109 -0.3085  0.9083 -0.4317
  473MOL0     H63802   3.701  -0.079   4.966 -4.4487  3.2364 -0.7265
  473MOL0     H63803   3.759  -0.104   5.126 -0.7995 -1.8319 -0.0639
  473MOL0     H63804   3.524  -0.014   5.098  1.0071 -2.5771 -0.5244
  473MOL0     H63805   3.590   0.137   5.036  0.2846 -3.1488 -3.7875
  473MOL0     H63806   3.702   0.311   5.188  0.0325 -1.6549 -1.2204
  473MOL0     H63807   3.709   0.475   5.410 -5.0930  3.0901  2.3345
  473MOL0     H63808   3.605   0.422   5.527 -0.3847  1.4985 -0.5365
  473MOL0     H63809   3.894   0.329   5.502 -2.2607 -1.6321 -0.7921
  473MOL0     H63810   3.774   0.270   5.624 -0.1579  1.2282  1.8773
  473MOL0     H63811   3.769   0.463   5.740  0.8126 -0.7525  0.4746
  473MOL0     H63812   3.814   0.573   5.614 -0.2932 -1.2019 -0.6477
  473MOL0     H63813   4.057   0.486   5.639  0.9216  4.0167  0.7802
  473MOL0     H63814   3.984   0.371   5.759 -2.4715  0.0898 -0.5895
  473MOL0     H63815   4.026   0.719   6.022 -0.6071 -3.2502  1.0790
  473MOL0     H63816   4.301   0.743   6.282 -0.4538  1.7243  0.7195
  473MOL0     H63817   4.222   0.852   6.162 -2.6968 -0.9923 -1.6774
  473MOL0     H63818   4.126   0.748   6.269 -0.8115  0.0463 -0.7962
  473MOL0     H63819   4.600   0.620   6.378  0.8360  1.1860  0.6857
  473MOL0     H63820   4.800   0.640   6.482  0.0460 -0.3059 -0.2957
  473MOL0     H63821   5.150   0.381   6.323  0.9030 -0.9676  0.0032
  473MOL0     H63822   5.205   0.537   6.236 -3.7136  0.6307  0.0753
  473MOL0     H63823   5.280   0.624   6.447  3.1968  0.8424  0.6117
  473MOL0     H63824   5.244   0.468   6.531  0.7863 -0.9976 -0.0715
  473MOL0     H63825   5.445   0.512   6.311  1.6130  1.9252  1.3280
  473MOL0     H63826   5.429   0.355   6.386 -1.4709  0.7585 -2.4518
  473MOL0     H63827   5.504   0.605   6.542 -0.4258  1.7426 -3.8073
  473MOL0     H63828   5.487   0.450   6.605 -2.8572  1.7856  0.6752
  473MOL0     H63829   5.676   0.377   6.432 -0.6748 -0.9013  1.1488
  473MOL0     H63830   5.705   0.498   6.562 -1.1641 -2.9797  1.4823
  473MOL0     H63831   5.663   0.546   6.258  1.0770  0.7285 -0.0686
  473MOL0     H63832   5.696   0.667   6.379  0.3599 -0.2458  1.3812
  473MOL0     H63833   5.879   0.427   6.316  1.9074  2.3061 -1.6440
  473MOL0     H63834   5.935   0.541   6.420  2.1842  2.1411 -1.4072
  473MOL0     H63835   6.031   0.609   6.221  0.4305  4.0462  0.7139
  473MOL0     H63836   5.906   0.721   6.200  1.9738  1.2288 -2.6037
  473MOL0     H63837   5.018   0.515   6.132 -0.7324 -0.3501 -1.7737
  473MOL0     H63838   4.795   0.495   6.011 -1.1050  0.0552 -0.0393
  473MOL0     H63839   4.412   0.426   5.923  0.5924  1.0117  0.6102
  473MOL0     H63840   4.214   0.410   5.788 -1.3824 -1.9617 -0.1054
  473MOL0     H63841   3.550   0.546   4.389  1.7082  1.1764  1.1603
  473MOL0     H63842   3.589   0.719   4.195  0.8861 -0.4652 -2.2475
  473MOL0     H63843   3.547   0.820   3.708  0.0292  2.7348 -0.9307
  473MOL0     H63844   3.609   0.930   3.536 -0.1499  0.3325  0.5179
  473MOL0     H63845   3.944   1.196   3.605 -2.3841 -1.5926  1.1931
  473MOL0     H63846   4.032   1.105   3.471 -0.6802 -1.7394  0.9016
  473MOL0     H63847   3.966   1.349   3.431  1.2859 -0.0016 -1.3917
  473MOL0     H63848   3.801   1.286   3.412  0.9561 -1.0030  1.7149
  473MOL0     H63849   3.870   1.111   3.256  0.0553 -0.6677 -2.6487
  473MOL0     H63850   4.036   1.191   3.245 -0.1171  0.9329  0.5903
  473MOL0     H63851   3.881   1.397   3.182 -2.1009 -0.4909  1.8185
  473MOL0     H63852   3.767   1.269   3.137 -1.0415  1.6144 -0.6376
  473MOL0     H63853   4.021   1.228   2.808  1.1782  0.9111 -0.2826
  473MOL0     H63854   4.002   0.985   3.692 -0.1008 -1.6216  0.5978
  473MOL0     H63855   3.940   0.849   3.894  1.8236  5.8598 -0.6176
  474MOL0     O63856   2.755   8.404   9.946  0.2849 -0.4953  0.6609
  474MOL0     C63857   2.740   8.377   9.824 -0.0267  0.1014 -0.0051
  474MOL0     O63858   2.837   8.333   9.737 -0.1773  0.2598 -0.1541
  474MOL0     C63859   2.976   8.335   9.769  0.7839  1.8502 -0.3629
  474MOL0     C63860   3.057   8.365   9.660  0.1377  0.3405 -0.3246
  474MOL0     C63861   3.197   8.388   9.680  0.3716 -0.2168 -0.6761
  474MOL0     C63862   3.257   8.357   9.802 -1.1768 -1.2610 -1.3842
  474MOL0     O63863   3.394   8.375   9.812 -0.3898 -0.6841 -0.4937
  474MOL0     C63864   3.466   8.350   9.934 -0.9053 -0.3076  0.5858
  474MOL0     C63865   3.612   8.382   9.909 -0.1194  0.1914 -0.0775
  474MOL0     C63866   3.690   8.347  10.039 -0.1409 -0.0848 -0.2541
  474MOL0     C63867   3.840   8.364  10.033 -0.2104 -0.6915 -0.4166
  474MOL0     C63868   3.903   8.329  10.166 -0.1578 -0.6128 -0.2965
  474MOL0     C63869   4.053   8.344  10.156  0.2683  0.1203  0.1951
  474MOL0     C63870   4.129   8.326  10.290 -0.0931 -0.3767  0.0596
  474MOL0     C63871   4.098   8.183  10.344  0.7146  0.4719  0.0239
  474MOL0     N63872   4.159   8.080  10.251  0.7806 -0.1490 -1.0034
  474MOL0     C63873   4.290   8.062  10.205  0.4156 -0.9035  0.8733
  474MOL0     C63874   4.287   7.941  10.137 -0.4004  0.0715  0.6992
  474MOL0     C63875   4.410   7.883  10.073 -1.4645  0.3546  0.1361
  474MOL0     C63876   4.468   7.764  10.156  0.3743  0.4546  0.2826
  474MOL0     C63877   4.371   7.642  10.152 -0.2873  0.5075  0.5319
  474MOL0     C63878   4.422   7.519  10.230 -0.1304  0.0279  0.5962
  474MOL0     O63879   4.531   7.456  10.159  0.0220 -0.3744 -0.1614
  474MOL0     C63880   4.499   7.386  10.048  0.7531  0.4798 -0.2312
  474MOL0     C63881   4.551   7.421   9.921  0.0449  0.2833 -0.2012
  474MOL0     C63882   4.513   7.344   9.804  0.1600 -0.8087  0.5484
  474MOL0     C63883   4.575   7.406   9.683  0.4751 -0.3416  0.7638
  474MOL0     C63884   4.433   7.228   9.817 -0.3609  0.1249 -0.4740
  474MOL0     C63885   4.377   7.142   9.709 -0.1233  0.8851  0.3635
  474MOL0     O63886   4.390   7.010   9.743  0.2540 -0.1278  0.3124
  474MOL0     C63887   4.318   6.926   9.659 -0.4039  0.4270  0.3542
  474MOL0     C63888   4.199   6.882   9.706  0.1469  0.1919 -0.0354
  474MOL0     C63889   4.120   6.785   9.635  0.4071  0.2394  0.5895
  474MOL0     C63890   4.176   6.740   9.508 -0.1682 -0.2330  0.7343
  474MOL0     O63891   4.118   6.640   9.443  0.4785  0.6391 -0.0873
  474MOL0     C63892   4.032   6.691   9.341 -0.1139  0.0471 -0.1578
  474MOL0     C63893   4.037   6.605   9.226 -0.2281  0.7547  0.1199
  474MOL0     C63894   3.959   6.666   9.107 -0.0053  0.0040  0.3853
  474MOL0     C63895   3.964   6.579   8.987 -0.8835 -0.2660 -0.0188
  474MOL0     C63896   3.887   6.645   8.881  1.3714 -0.5525 -0.6686
  474MOL0     C63897   3.865   6.533   8.769 -0.4069 -0.0188 -0.9051
  474MOL0     C63898   3.997   6.500   8.701  0.1287  0.2018  0.4711
  474MOL0     C63899   3.972   6.413   8.576  0.7037  0.5232 -0.1863
  474MOL0    Cl63900   3.931   6.489   8.415 -0.4397 -0.0563 -0.3204
  474MOL0     C63901   4.304   6.782   9.474  0.0829  0.0515 -0.4111
  474MOL0     C63902   4.371   6.882   9.544  0.3986  0.1666  0.2520
  474MOL0     O63903   4.327   7.185   9.607 -0.0723  0.2925 -0.3953
  474MOL0     C63904   4.390   7.196   9.945  0.8739 -0.6429 -0.0804
  474MOL0     C63905   4.415   7.272  10.059  1.1854 -0.2128 -1.1096
  474MOL0     N63906   4.158   7.891  10.145  0.1503 -0.4130  0.1285
  474MOL0     N63907   4.081   7.976  10.210 -0.2199  0.0532 -0.0235
  474MOL0     C63908   3.175   8.314   9.911 -0.4253 -0.5809 -0.4471
  474MOL0     C63909   3.033   8.303   9.896 -0.2127 -0.1046  0.3407
  474MOL0     C63910   2.618   8.409   9.758  0.9012 -1.5983 -0.4307
  474MOL0     C63911   2.600   8.376   9.625  0.8279  0.3769  0.5619
  474MOL0     C63912   2.471   8.393   9.564 -0.4279  1.0057 -0.1329
  474MOL0     C63913   2.357   8.428   9.629 -0.0544 -0.2511  0.5832
  474MOL0     O63914   2.241   8.447   9.557  0.4890 -0.6021  0.2361
  474MOL0     C63915   2.129   8.384   9.616  0.0089  0.2731  0.7470
  474MOL0     C63916   2.011   8.398   9.513  0.5627 -0.4304 -0.1758
  474MOL0     C63917   1.873   8.367   9.571  0.7619 -1.1946  0.3110
  474MOL0     C63918   1.832   8.457   9.693 -0.1098 -0.1332 -0.0972
  474MOL0     C63919   1.783   8.589   9.651  0.3317 -1.1650 -0.2122
  474MOL0     C63920   1.729   8.700   9.627  0.9737 -0.6552  0.3072
  474MOL0     C63921   2.370   8.450   9.765 -0.1903 -0.7205  0.3501
  474MOL0     C63922   2.501   8.448   9.826 -0.2696 -0.5920  0.5632
  474MOL0     H63923   3.021   8.390   9.560  0.1964  2.0848  0.0587
  474MOL0     H63924   3.247   8.413   9.587  1.4133 -1.6093 -0.5288
  474MOL0     H63925   3.438   8.417  10.016  2.2024 -0.4919  1.9442
  474MOL0     H63926   3.467   8.247   9.970  0.1820  0.7693  4.0314
  474MOL0     H63927   3.643   8.321   9.824 -2.4862 -0.3682 -0.6275
  474MOL0     H63928   3.631   8.486   9.881 -0.4684  0.0968 -0.6681
  474MOL0     H63929   3.662   8.407  10.126  0.8784 -1.5349  1.1334
  474MOL0     H63930   3.676   8.246  10.079 -0.6109  0.5736  1.2981
  474MOL0     H63931   3.879   8.288   9.965 -0.9318 -1.6081  0.1774
  474MOL0     H63932   3.865   8.464   9.996 -1.0573 -1.0427 -2.0549
  474MOL0     H63933   3.872   8.395  10.247 -3.3832 -0.4992 -1.4926
  474MOL0     H63934   3.868   8.229  10.193  1.7378 -1.5276 -1.0068
  474MOL0     H63935   4.082   8.273  10.078  0.1235 -3.9569  3.5189
  474MOL0     H63936   4.080   8.444  10.121  0.1296  0.5274  1.2388
  474MOL0     H63937   4.234   8.331  10.260 -0.3767  2.1588 -0.7830
  474MOL0     H63938   4.109   8.406  10.362 -1.9676  0.8843 -1.7489
  474MOL0     H63939   3.990   8.164  10.347  0.3222  2.5405  1.3433
  474MOL0     H63940   4.139   8.160  10.443  0.4502 -2.1888 -0.4109
  474MOL0     H63941   4.378   8.120  10.229 -0.7297  1.7486 -0.9139
  474MOL0     H63942   4.377   7.851   9.974 -1.1226  0.1069  0.1000
  474MOL0     H63943   4.481   7.965  10.059 -2.3101  1.4565  1.9095
  474MOL0     H63944   4.479   7.796  10.260 -0.2811 -0.6726  0.7185
  474MOL0     H63945   4.565   7.730  10.119 -0.6118 -2.8190  0.3542
  474MOL0     H63946   4.357   7.611  10.048 -1.3171 -0.4288  0.9269
  474MOL0     H63947   4.278   7.683  10.193 -0.1316  1.6431 -0.2075
  474MOL0     H63948   4.333   7.458  10.248 -0.1375  0.1489  0.9851
  474MOL0     H63949   4.464   7.557  10.324  1.2426  1.6338 -0.6097
  474MOL0     H63950   4.602   7.517   9.915  0.4793  0.1788  1.4575
  474MOL0     H63951   4.545   7.511   9.686 -2.4107 -1.0611  0.0070
  474MOL0     H63952   4.681   7.382   9.682  0.1265 -2.1356 -1.5988
  474MOL0     H63953   4.526   7.368   9.593 -0.3847  1.5761  0.3892
  474MOL0     H63954   4.166   6.930   9.797  1.9873  2.1409 -0.3170
  474MOL0     H63955   4.026   6.751   9.678 -0.0650  1.0322  0.2035
  474MOL0     H63956   3.932   6.721   9.376 -0.6323  3.1458 -3.7007
  474MOL0     H63957   4.072   6.783   9.296  1.4345 -0.2447  0.5520
  474MOL0     H63958   4.143   6.591   9.201 -0.3707 -0.9666  0.3128
  474MOL0     H63959   3.994   6.507   9.249 -1.0572  0.8650 -0.9376
  474MOL0     H63960   4.009   6.757   9.072 -0.4984  1.1672  2.5168
  474MOL0     H63961   3.853   6.677   9.131 -0.3848  0.3944 -1.3215
  474MOL0     H63962   4.065   6.551   8.959  0.2523  2.0717  1.3910
  474MOL0     H63963   3.919   6.484   9.016  1.7930 -1.9024 -0.8987
  474MOL0     H63964   3.951   6.727   8.847 -0.0562  0.6982 -0.4431
  474MOL0     H63965   3.792   6.692   8.908  0.4992 -1.7111 -1.6065
  474MOL0     H63966   3.831   6.445   8.824 -2.7263  0.9375 -0.7049
  474MOL0     H63967   3.790   6.565   8.696 -0.7116 -0.8222 -0.9537
  474MOL0     H63968   4.070   6.453   8.766  1.3363  2.6086  0.9973
  474MOL0     H63969   4.051   6.588   8.662 -0.7234  1.0164  1.1001
  474MOL0     H63970   3.890   6.346   8.603  0.0288  1.4816  0.1592
  474MOL0     H63971   4.064   6.355   8.564  1.5958  2.1965 -1.8560
  474MOL0     H63972   4.361   6.729   9.399  0.9382 -2.8848  2.1177
  474MOL0     H63973   4.468   6.927   9.525  0.1745  1.1473  1.2876
  474MOL0     H63974   4.327   7.109   9.963 -0.0469  0.0538  0.1717
  474MOL0     H63975   4.371   7.252  10.156  0.7209  3.8843 -0.2644
  474MOL0     H63976   3.223   8.286  10.005  1.2566  0.0392 -1.0827
  474MOL0     H63977   2.979   8.253   9.976 -0.5884 -2.7658 -1.4466
  474MOL0     H63978   2.681   8.356   9.556 -2.2055 -0.9546 -2.9656
  474MOL0     H63979   2.468   8.383   9.456 -1.4538 -0.1091 -0.0221
  474MOL0     H63980   2.142   8.276   9.631 -0.1067  0.2993  1.0465
  474MOL0     H63981   2.107   8.427   9.713  1.4394 -1.5271  1.9474
  474MOL0     H63982   2.046   8.333   9.432  2.1942 -1.9602  1.6465
  474MOL0     H63983   1.998   8.502   9.483 -1.1736 -0.6740 -0.3752
  474MOL0     H63984   1.867   8.268   9.618  1.3422 -1.0996  0.5888
  474MOL0     H63985   1.783   8.375   9.510  1.5401  1.7010 -0.5907
  474MOL0     H63986   1.909   8.466   9.770 -1.4290  3.6432  1.0193
  474MOL0     H63987   1.753   8.402   9.745  1.4883 -1.4657  1.0259
  474MOL0     H63988   1.671   8.788   9.609  0.8932 -0.1514  2.6834
  474MOL0     H63989   2.285   8.470   9.830 -1.4919  0.3632 -1.5666
  474MOL0     H63990   2.520   8.479   9.928 -1.1601 -1.1487  0.9007
  475MOL0     O63991   1.409   4.879  10.132  0.3687 -0.3794  0.1998
  475MOL0     C63992   1.408   4.854  10.254 -0.0111 -0.5613 -0.0988
  475MOL0     O63993   1.521   4.839  10.333 -0.0551 -0.2072  0.0742
  475MOL0     C63994   1.644   4.874  10.292  0.5990 -0.2599  1.0860
  475MOL0     C63995   1.675   4.981  10.209 -0.0380  0.6240 -0.7284
  475MOL0     C63996   1.812   4.989  10.173 -0.3096  0.3692 -0.4500
  475MOL0     C63997   1.921   4.924  10.239 -0.7602 -0.1667  0.4460
  475MOL0     O63998   2.054   4.925  10.195  0.1484  0.0242 -0.3235
  475MOL0     C63999   2.087   5.018  10.085  0.2341  0.1667  1.0705
  475MOL0     C64000   2.232   5.036  10.033 -0.1523  0.2425  0.4010
  475MOL0     C64001   2.329   5.063  10.147 -0.1383  0.1849 -0.0727
  475MOL0     C64002   2.468   5.033  10.102 -0.1671 -0.2193  0.2107
  475MOL0     C64003   2.579   5.076  10.193 -0.0285  1.0913 -0.8841
  475MOL0     C64004   2.703   5.123  10.114 -0.5459 -1.1730 -0.4277
  475MOL0     C64005   2.842   5.109  10.182  0.1854  0.0476  0.4457
  475MOL0     C64006   2.837   5.158  10.329 -0.2829  0.3383  0.7609
  475MOL0     N64007   2.971   5.165  10.394  0.0112  0.3948 -0.0915
  475MOL0     C64008   3.077   5.078  10.365 -0.3185 -1.2989  0.3216
  475MOL0     C64009   3.175   5.114  10.444  0.5607  0.0679 -0.5672
  475MOL0     C64010   3.306   5.053  10.460  0.7575  0.7297 -0.5845
  475MOL0     C64011   3.414   5.143  10.410  0.3204  0.5321  0.4662
  475MOL0     C64012   3.550   5.071  10.430 -0.0476  0.4746 -0.7350
  475MOL0     C64013   3.676   5.155  10.396 -0.1804 -0.2188  0.8551
  475MOL0     O64014   3.672   5.197  10.259  0.3309 -0.6015 -0.0984
  475MOL0     C64015   3.721   5.116  10.163  0.1283 -0.1974 -0.5802
  475MOL0     C64016   3.853   5.139  10.136  0.0444  0.4012 -0.0900
  475MOL0     C64017   3.922   5.053  10.050  0.7431 -1.1947 -0.1141
  475MOL0     C64018   4.064   5.074  10.016  0.1397  0.6810 -0.2198
  475MOL0     C64019   3.850   4.947   9.988  0.4169 -0.5141 -0.0028
  475MOL0     C64020   3.914   4.872   9.885  0.4924 -0.2226 -0.3239
  475MOL0     O64021   4.003   4.785   9.933 -0.1649  0.7987  0.0495
  475MOL0     C64022   4.075   4.724   9.838 -0.5382 -1.1680 -0.3499
  475MOL0     C64023   4.037   4.607   9.791 -0.1917  0.8036  0.4134
  475MOL0     C64024   4.111   4.546   9.691  0.7132  0.9991 -0.4432
  475MOL0     C64025   4.227   4.607   9.639 -0.3323  0.7729 -0.0502
  475MOL0     O64026   4.309   4.564   9.531 -0.4120 -0.1526  0.1549
  475MOL0     C64027   4.261   4.460   9.448 -0.6861 -0.9877  0.8233
  475MOL0     C64028   4.139   4.507   9.371 -0.7285 -0.2522  0.9984
  475MOL0     C64029   4.137   4.420   9.249 -0.6936  0.0279 -0.0265
  475MOL0     C64030   4.216   4.477   9.133 -0.6992  0.3125 -0.3407
  475MOL0     C64031   4.209   4.389   9.002 -0.3601  0.1683  0.3666
  475MOL0     C64032   4.073   4.392   8.922  0.2827 -0.6325  0.5672
  475MOL0     C64033   3.997   4.525   8.914  0.6189 -0.5117  0.0935
  475MOL0     C64034   4.072   4.615   8.817 -0.2445 -0.0309 -0.5874
  475MOL0    Cl64035   4.103   4.564   8.647 -0.0094  0.5635 -0.0996
  475MOL0     C64036   4.262   4.737   9.687 -0.7345  0.7468  0.2067
  475MOL0     C64037   4.188   4.786   9.786 -0.7689 -0.4632 -0.4952
  475MOL0     O64038   3.863   4.874   9.777  0.2841  0.4318  0.1352
  475MOL0     C64039   3.712   4.941  10.010 -0.5610 -0.8652  0.9366
  475MOL0     C64040   3.653   5.020  10.098 -0.0328 -0.2024 -0.3258
  475MOL0     N64041   3.136   5.222  10.515 -0.0025 -0.2670  0.1518
  475MOL0     N64042   3.015   5.252  10.489  0.8950 -0.3850  0.4052
  475MOL0     C64043   1.881   4.830  10.333  0.9309  0.9922  0.6455
  475MOL0     C64044   1.742   4.812  10.360 -0.2363  0.7583  0.0326
  475MOL0     C64045   1.280   4.838  10.320  0.6375  0.3017 -0.1471
  475MOL0     C64046   1.285   4.804  10.456  0.1870 -0.3827  0.4990
  475MOL0     C64047   1.162   4.780  10.521  0.3420 -0.8719 -0.2565
  475MOL0     C64048   1.041   4.790  10.457 -0.1376  0.7931 -0.1279
  475MOL0     O64049   0.921   4.780  10.530 -0.2729  0.6079  0.6047
  475MOL0     C64050   0.794   4.754  10.461 -0.1977  0.3242  1.1966
  475MOL0     C64051   0.703   4.711  10.570 -0.4251  0.2034 -0.4837
  475MOL0     C64052   0.574   4.657  10.492 -0.1079  0.0516  0.7216
  475MOL0     C64053   0.470   4.582  10.587  0.2340 -0.1981 -0.8873
  475MOL0     C64054   0.366   4.670  10.645  0.3100 -0.1294  0.2168
  475MOL0     C64055   0.295   4.754  10.692  0.2140 -0.1044 -0.7190
  475MOL0     C64056   1.041   4.826  10.324 -0.1975  0.4515  0.3591
  475MOL0     C64057   1.157   4.866  10.254 -0.9130  0.7060 -0.6102
  475MOL0     H64058   1.596   5.043  10.169  0.9377  2.2893 -0.1838
  475MOL0     H64059   1.853   5.072  10.116  1.3096  0.3236  0.5853
  475MOL0     H64060   2.029   4.977  10.001  2.6152 -1.3341  0.0463
  475MOL0     H64061   2.056   5.121  10.105  0.2271  0.6864 -1.2968
  475MOL0     H64062   2.272   4.942   9.992  1.6058  1.3078 -0.4197
  475MOL0     H64063   2.249   5.114   9.958  0.9961  0.7644  1.1842
  475MOL0     H64064   2.326   5.168  10.176 -0.5841 -0.5299  2.7208
  475MOL0     H64065   2.313   5.000  10.235 -1.1356 -0.1736 -0.5042
  475MOL0     H64066   2.471   4.927  10.073 -3.1496  0.8890 -5.8986
  475MOL0     H64067   2.467   5.084  10.005  0.0785 -1.1614 -0.3007
  475MOL0     H64068   2.541   5.145  10.269 -1.2519 -1.3054  0.8406
  475MOL0     H64069   2.606   4.987  10.252  1.5568  2.3601  0.4186
  475MOL0     H64070   2.715   5.065  10.022  0.3951  1.1044 -1.8375
  475MOL0     H64071   2.685   5.223  10.073  0.9129 -1.3345 -1.5095
  475MOL0     H64072   2.869   5.003  10.176  1.7220  0.4797 -0.8053
  475MOL0     H64073   2.915   5.163  10.121 -0.7781  1.2688  0.3376
  475MOL0     H64074   2.763   5.094  10.380 -2.0234 -0.5212 -2.5422
  475MOL0     H64075   2.801   5.261  10.331  2.2349  1.3219 -0.8495
  475MOL0     H64076   3.080   4.997  10.293  1.2931 -0.8188 -0.1798
  475MOL0     H64077   3.325   5.021  10.563  0.5571  1.7736 -0.2031
  475MOL0     H64078   3.292   4.962  10.402  3.0725  0.9804 -1.6627
  475MOL0     H64079   3.417   5.243  10.454  0.8996  2.6486 -3.8951
  475MOL0     H64080   3.402   5.164  10.304  1.2592 -2.3862 -0.3044
  475MOL0     H64081   3.555   4.971  10.386  1.8348  0.5950 -0.8966
  475MOL0     H64082   3.562   5.053  10.538  2.0394 -2.3630 -1.3088
  475MOL0     H64083   3.769   5.100  10.411 -0.2307  0.0580  2.4166
  475MOL0     H64084   3.676   5.248  10.454  0.8951 -0.4396  1.2373
  475MOL0     H64085   3.908   5.221  10.180 -0.5290  1.3254 -1.0578
  475MOL0     H64086   4.127   4.996  10.060 -0.9596  0.2835  0.6798
  475MOL0     H64087   4.084   5.061   9.909  0.2335  0.9825 -0.2394
  475MOL0     H64088   4.094   5.174  10.049 -0.6485  1.1129 -0.7788
  475MOL0     H64089   3.961   4.552   9.846  0.2701 -0.7374 -0.4269
  475MOL0     H64090   4.070   4.449   9.663  0.1835  1.0969 -0.0275
  475MOL0     H64091   4.344   4.456   9.377 -1.2251 -0.9207  0.1805
  475MOL0     H64092   4.257   4.363   9.499  1.9653 -0.5387  2.0620
  475MOL0     H64093   4.048   4.508   9.432 -0.5718  1.8177  1.2861
  475MOL0     H64094   4.167   4.608   9.340  3.0594 -1.7738 -1.2675
  475MOL0     H64095   4.034   4.412   9.212 -1.9473 -0.3592  3.1997
  475MOL0     H64096   4.176   4.320   9.273 -1.1354 -0.2547 -0.4697
  475MOL0     H64097   4.187   4.581   9.111 -1.8863  0.7174  2.6321
  475MOL0     H64098   4.323   4.481   9.155 -0.9317 -3.0564  2.1759
  475MOL0     H64099   4.221   4.283   9.029 -2.3358  0.5665  3.1759
  475MOL0     H64100   4.292   4.426   8.941  0.9120 -1.2088  1.2017
  475MOL0     H64101   4.078   4.356   8.818  0.9145 -0.2888  0.4765
  475MOL0     H64102   4.009   4.321   8.975 -1.2747 -0.2915 -0.7519
  475MOL0     H64103   3.994   4.569   9.014 -2.3577  2.5336 -1.1621
  475MOL0     H64104   3.891   4.512   8.893  0.1364  3.3391 -0.5193
  475MOL0     H64105   4.166   4.651   8.861 -0.7262 -0.5775  0.9481
  475MOL0     H64106   4.002   4.697   8.804 -3.4657 -2.4879  0.1014
  475MOL0     H64107   4.356   4.786   9.663 -0.1398  0.8303  2.4198
  475MOL0     H64108   4.217   4.888   9.811 -2.0454 -0.5412  1.4163
  475MOL0     H64109   3.657   4.857   9.967  0.3802 -1.6710  1.2879
  475MOL0     H64110   3.550   5.012  10.132  0.8043  1.0816  2.9105
  475MOL0     H64111   1.953   4.776  10.393  0.7970  0.9838  0.8016
  475MOL0     H64112   1.710   4.746  10.440  0.8483  0.8691  0.5857
  475MOL0     H64113   1.377   4.773  10.505  2.2725  1.3318 -2.0308
  475MOL0     H64114   1.170   4.750  10.624 -1.0720  0.8244  0.4021
  475MOL0     H64115   0.751   4.837  10.403  3.7844  0.3444 -2.2163
  475MOL0     H64116   0.818   4.672  10.392  1.1536 -0.3817  2.4467
  475MOL0     H64117   0.683   4.801  10.628  2.4566  0.1092  0.8274
  475MOL0     H64118   0.746   4.632  10.633 -2.4791 -2.8835 -2.6540
  475MOL0     H64119   0.596   4.589  10.409 -4.2403  0.6606 -1.1001
  475MOL0     H64120   0.506   4.729  10.447 -2.1028 -0.9719  1.9346
  475MOL0     H64121   0.526   4.550  10.676 -3.0037 -1.2027  0.9377
  475MOL0     H64122   0.426   4.497  10.535 -2.4629  1.2354 -1.1037
  475MOL0     H64123   0.223   4.834  10.699  1.6682  1.1690  0.4553
  475MOL0     H64124   0.947   4.829  10.270  0.7488 -1.0309 -1.4898
  475MOL0     H64125   1.139   4.875  10.147  0.5342  0.0287 -0.9316
  476MOL0     O64126   3.515   4.045  10.093 -0.5652  0.5405  0.8177
  476MOL0     C64127   3.430   4.134  10.096  0.3499  0.9589 -0.7429
  476MOL0     O64128   3.375   4.190  10.209  0.1388  0.4876  0.2324
  476MOL0     C64129   3.419   4.137  10.328 -0.6412 -0.0674  0.3679
  476MOL0     C64130   3.320   4.097  10.413 -0.3823 -0.4339 -0.1378
  476MOL0     C64131   3.360   4.051  10.546 -1.1063 -0.2815 -0.3574
  476MOL0     C64132   3.495   4.055  10.591  0.0813 -0.6746  0.6267
  476MOL0     O64133   3.531   3.984  10.709 -0.5501 -0.3157 -0.2217
  476MOL0     C64134   3.665   3.996  10.772 -0.3223  0.0695  0.0494
  476MOL0     C64135   3.663   4.136  10.832 -0.1037  0.7903  0.0857
  476MOL0     C64136   3.771   4.160  10.936 -0.2328  0.2585 -0.4027
  476MOL0     C64137   3.783   4.303  10.987 -0.5745  1.1606  0.0844
  476MOL0     C64138   3.869   4.334  11.113  0.0562 -0.4301 -0.9943
  476MOL0     C64139   4.008   4.281  11.118 -0.2511 -0.0923  0.9347
  476MOL0     C64140   4.102   4.353  11.014 -0.5495  0.3788  0.3747
  476MOL0     C64141   4.239   4.278  11.016 -0.1491  0.4999 -0.5861
  476MOL0     N64142   4.321   4.327  10.907  0.1887 -0.8491  0.0425
  476MOL0     C64143   4.320   4.276  10.780 -0.1096 -0.2342 -0.8873
  476MOL0     C64144   4.401   4.364  10.710  0.0909  0.5568  0.4992
  476MOL0     C64145   4.441   4.346  10.567 -0.1346 -0.1652  1.1112
  476MOL0     C64146   4.570   4.408  10.514  0.4470  0.1618 -0.9106
  476MOL0     C64147   4.690   4.353  10.591  0.4831 -0.4063 -0.6271
  476MOL0     C64148   4.760   4.246  10.500 -1.0377 -0.5937  0.6237
  476MOL0     O64149   4.860   4.189  10.583  0.1365  0.8957 -1.0178
  476MOL0     C64150   4.972   4.255  10.622  0.4646  0.1783 -0.4780
  476MOL0     C64151   5.037   4.360  10.560  0.2334 -0.2349 -0.6064
  476MOL0     C64152   5.159   4.414  10.601 -1.1700 -0.2002 -0.9067
  476MOL0     C64153   5.214   4.524  10.513 -0.6305  0.3612  0.4361
  476MOL0     C64154   5.224   4.354  10.717 -0.4810 -1.1215  0.1721
  476MOL0     C64155   5.353   4.398  10.773  0.4322  0.2525 -0.4624
  476MOL0     O64156   5.368   4.377  10.924  0.1223  0.3227  0.2690
  476MOL0     C64157   5.497   4.380  10.978 -0.1165 -0.0337 -0.5993
  476MOL0     C64158   5.601   4.466  10.937 -0.5454  0.3473 -1.1327
  476MOL0     C64159   5.728   4.465  10.998  0.3495 -0.1654  0.4697
  476MOL0     C64160   5.743   4.394  11.120  0.8096 -0.1489 -0.4214
  476MOL0     O64161   5.861   4.395  11.204  0.0347  0.2269 -0.1988
  476MOL0     C64162   5.966   4.465  11.145 -0.3537 -0.9782 -0.7739
  476MOL0     C64163   6.090   4.455  11.247  0.3273  0.4496 -0.1118
  476MOL0     C64164   6.056   4.529  11.367 -0.3667  0.8272  0.2465
  476MOL0     C64165   6.189   4.566  11.441  0.4509  0.3141 -0.5411
  476MOL0     C64166   6.158   4.624  11.583 -0.7225  0.2284 -0.0496
  476MOL0     C64167   6.269   4.717  11.630  0.5644 -0.5320  0.5695
  476MOL0     C64168   6.229   4.866  11.610 -0.2354 -0.4179 -0.2512
  476MOL0     C64169   6.346   4.948  11.644 -0.6251  0.0184 -0.7440
  476MOL0    Cl64170   6.368   4.958  11.816 -0.0566  0.2941  0.1176
  476MOL0     C64171   5.640   4.304  11.158 -1.3257 -0.1135  0.0829
  476MOL0     C64172   5.525   4.296  11.086  0.4277 -0.3711  0.7131
  476MOL0     O64173   5.435   4.437  10.694 -0.5308  0.1763  0.5384
  476MOL0     C64174   5.146   4.264  10.790 -0.0291  0.1119  0.3759
  476MOL0     C64175   5.027   4.212  10.738  0.3373  0.1916 -0.4064
  476MOL0     N64176   4.433   4.464  10.793 -0.2678  0.5267  0.1690
  476MOL0     N64177   4.393   4.435  10.912 -0.3044  0.1103 -0.5802
  476MOL0     C64178   3.585   4.128  10.511 -0.4593  0.4883  0.5758
  476MOL0     C64179   3.553   4.155  10.377 -0.7303 -0.2331  0.3653
  476MOL0     C64180   3.367   4.175   9.970  0.2972 -0.3737 -0.5726
  476MOL0     C64181   3.278   4.287   9.967  0.5748 -0.5818 -0.7372
  476MOL0     C64182   3.217   4.335   9.847 -0.2200 -0.3031  1.0863
  476MOL0     C64183   3.241   4.271   9.727  0.4722 -1.0660  0.8013
  476MOL0     O64184   3.182   4.319   9.611 -0.4006 -0.4661  0.3101
  476MOL0     C64185   3.238   4.272   9.486  0.1001  0.0501 -0.0217
  476MOL0     C64186   3.155   4.153   9.438 -0.5252 -0.2814 -0.0155
  476MOL0     C64187   3.061   4.176   9.322  0.4358  0.6129  0.2821
  476MOL0     C64188   2.923   4.223   9.372  0.0520  0.7314 -0.2270
  476MOL0     C64189   2.842   4.256   9.253 -0.3546  0.1967  0.0180
  476MOL0     C64190   2.765   4.292   9.165  0.4710 -1.0708  0.3168
  476MOL0     C64191   3.322   4.153   9.729  0.3959 -0.3585 -0.2224
  476MOL0     C64192   3.389   4.113   9.847  1.1015  0.4257  0.5975
  476MOL0     H64193   3.221   4.097  10.369 -0.5258 -1.5114  0.1668
  476MOL0     H64194   3.292   4.019  10.625 -0.4116  2.8737  1.6902
  476MOL0     H64195   3.673   3.917  10.847  0.6149  1.2436  1.2307
  476MOL0     H64196   3.748   3.988  10.701  1.5072  0.9929  1.9728
  476MOL0     H64197   3.679   4.214  10.757 -0.8913  2.9903  2.1215
  476MOL0     H64198   3.562   4.147  10.871 -0.3060 -1.7038  0.4830
  476MOL0     H64199   3.747   4.090  11.016 -0.5574  0.4658 -0.3171
  476MOL0     H64200   3.868   4.118  10.906 -1.3836 -2.1270 -1.0735
  476MOL0     H64201   3.830   4.362  10.907  1.3599  1.9297  1.7030
  476MOL0     H64202   3.686   4.350  11.004 -0.6136  0.7132  1.1667
  476MOL0     H64203   3.876   4.441  11.135 -0.4697 -0.7111  0.7042
  476MOL0     H64204   3.803   4.297  11.192  1.2000 -0.6028 -0.0949
  476MOL0     H64205   4.036   4.300  11.222 -1.3195  2.7788  0.7957
  476MOL0     H64206   4.021   4.173  11.103  0.8522 -0.0353  1.3776
  476MOL0     H64207   4.069   4.343  10.911  1.3017 -1.2088 -0.1335
  476MOL0     H64208   4.105   4.460  11.037  2.6110 -0.2406  4.0933
  476MOL0     H64209   4.225   4.170  11.007 -3.0435  0.8591 -1.4931
  476MOL0     H64210   4.296   4.304  11.106 -2.6508 -0.2560  1.3347
  476MOL0     H64211   4.267   4.186  10.751 -0.0028 -1.8101  3.0597
  476MOL0     H64212   4.454   4.237  10.565  2.5265  0.0986 -0.0706
  476MOL0     H64213   4.353   4.369  10.507  0.0735 -0.2079  0.7876
  476MOL0     H64214   4.568   4.517  10.523 -3.6479  0.3650 -2.6146
  476MOL0     H64215   4.598   4.382  10.412  1.5282 -2.6996  0.0142
  476MOL0     H64216   4.645   4.303  10.678  0.5851  2.7642  1.4270
  476MOL0     H64217   4.754   4.432  10.631 -1.4323  1.4170 -0.9701
  476MOL0     H64218   4.791   4.303  10.413 -2.2031  0.7405  1.0483
  476MOL0     H64219   4.687   4.174  10.460 -2.4955  0.8195  0.6406
  476MOL0     H64220   5.001   4.407  10.469  1.0576  1.3056 -0.1580
  476MOL0     H64221   5.142   4.557  10.437  2.1122 -0.0489 -2.5605
  476MOL0     H64222   5.251   4.615  10.562 -1.3257  0.0943  1.4787
  476MOL0     H64223   5.298   4.482  10.458  0.2063 -1.5908  3.0731
  476MOL0     H64224   5.593   4.529  10.850 -0.1202 -1.2378 -2.3624
  476MOL0     H64225   5.809   4.529  10.965  2.0492 -0.7628  3.1427
  476MOL0     H64226   6.008   4.410  11.061 -0.2071  0.5880 -1.7570
  476MOL0     H64227   5.946   4.568  11.116 -0.6022 -1.6232 -3.0641
  476MOL0     H64228   6.097   4.346  11.253 -1.3851  0.2081 -1.5391
  476MOL0     H64229   6.173   4.502  11.194  1.1330 -1.6469 -0.8021
  476MOL0     H64230   5.984   4.471  11.426 -2.8952  1.9893 -1.5297
  476MOL0     H64231   5.996   4.613  11.331 -1.6952  0.7759  2.1701
  476MOL0     H64232   6.257   4.481  11.453 -0.2094 -0.4055 -1.6581
  476MOL0     H64233   6.246   4.635  11.378 -2.7979  3.8398 -0.0026
  476MOL0     H64234   6.134   4.550  11.660  0.0199 -0.6814 -0.6772
  476MOL0     H64235   6.075   4.695  11.573 -2.0274 -1.2483 -0.2154
  476MOL0     H64236   6.295   4.696  11.734 -1.1166 -0.3392  1.0659
  476MOL0     H64237   6.361   4.697  11.575 -0.0555  1.3070 -1.2570
  476MOL0     H64238   6.152   4.916  11.670  1.9926  1.2548  1.4243
  476MOL0     H64239   6.199   4.885  11.507  1.3154  0.0397 -0.6514
  476MOL0     H64240   6.334   5.048  11.601 -1.5103  0.1589 -0.1900
  476MOL0     H64241   6.443   4.915  11.605 -0.8474  1.0629 -2.2463
  476MOL0     H64242   5.652   4.259  11.256 -1.3546  1.5343  0.8706
  476MOL0     H64243   5.444   4.232  11.116 -0.2824  0.5753  0.8562
  476MOL0     H64244   5.174   4.211  10.881  2.9692 -2.7951 -2.0262
  476MOL0     H64245   4.991   4.126  10.794  1.3570 -0.3310 -0.5168
  476MOL0     H64246   3.682   4.140  10.558 -0.3836  2.9485 -0.0717
  476MOL0     H64247   3.622   4.216  10.320  3.1348 -2.7649  1.9772
  476MOL0     H64248   3.266   4.345  10.058  1.8496  1.8343 -2.0070
  476MOL0     H64249   3.156   4.425   9.840 -1.6772 -1.2658  0.9932
  476MOL0     H64250   3.233   4.353   9.412  0.4408 -1.5401 -1.8750
  476MOL0     H64251   3.340   4.231   9.487 -0.2746 -1.0394 -1.7882
  476MOL0     H64252   3.092   4.105   9.514 -1.2813  0.6651 -0.0176
  476MOL0     H64253   3.231   4.085   9.401  0.8508  1.0601  0.2385
  476MOL0     H64254   3.047   4.083   9.267  2.7323  0.5683 -0.3283
  476MOL0     H64255   3.093   4.256   9.254 -2.8174  4.1156  2.4668
  476MOL0     H64256   2.933   4.315   9.431 -0.1983  1.1896 -0.8891
  476MOL0     H64257   2.859   4.157   9.432 -1.1037 -1.4223 -3.5906
  476MOL0     H64258   2.703   4.308   9.080  1.0461 -1.2698 -0.1478
  476MOL0     H64259   3.353   4.090   9.647  1.6444 -0.7992  0.5547
  476MOL0     H64260   3.448   4.022   9.839  0.8139  0.3856 -2.0276
  477MOL0     O64261  10.479   7.295   9.030 -0.2572 -0.6633  0.1452
  477MOL0     C64262  10.397   7.389   9.039 -0.8181  0.7090 -0.1028
  477MOL0     O64263  10.261   7.384   9.030  0.0317  0.2555 -0.0334
  477MOL0     C64264  10.189   7.262   9.047 -0.0967  0.6255  0.8033
  477MOL0     C64265  10.054   7.269   9.002 -0.9514 -0.5936 -0.6420
  477MOL0     C64266   9.975   7.153   8.999  0.9014 -0.1845  0.0586
  477MOL0     C64267  10.031   7.028   9.026  0.3953 -0.5471 -0.3995
  477MOL0     O64268   9.957   6.918   9.010 -0.6520 -0.7466  1.0555
  477MOL0     C64269   9.841   6.918   8.919 -0.0882 -0.3112  0.1039
  477MOL0     C64270   9.818   6.780   8.869 -0.4728  0.0537 -0.1275
  477MOL0     C64271   9.721   6.769   8.742  0.1944 -0.0773 -0.2477
  477MOL0     C64272   9.679   6.622   8.740 -0.3144 -0.2418  0.1022
  477MOL0     C64273   9.541   6.587   8.669  0.1192 -0.8125  0.4272
  477MOL0     C64274   9.506   6.453   8.720 -0.1988 -0.4706  0.2418
  477MOL0     C64275   9.356   6.421   8.723 -0.7678  1.0276  0.5853
  477MOL0     C64276   9.279   6.413   8.591 -0.0051 -0.4826  1.3151
  477MOL0     N64277   9.354   6.345   8.483  0.8837  0.1715  0.6046
  477MOL0     C64278   9.384   6.211   8.485 -0.1911 -0.9698 -0.4535
  477MOL0     C64279   9.478   6.200   8.376 -0.0578  0.5065 -0.1117
  477MOL0     C64280   9.551   6.083   8.348 -0.8088  0.1715 -0.3415
  477MOL0     C64281   9.469   5.972   8.269 -0.5687 -0.0469 -0.1513
  477MOL0     C64282   9.554   5.853   8.220 -0.4439 -0.7936  0.1622
  477MOL0     C64283   9.470   5.745   8.141 -1.0012  0.5800 -0.1096
  477MOL0     O64284   9.373   5.689   8.223 -0.2015  0.1666  0.5689
  477MOL0     C64285   9.413   5.566   8.254 -0.2910  0.5103 -0.1272
  477MOL0     C64286   9.379   5.460   8.171 -0.3277  0.5865 -0.1419
  477MOL0     C64287   9.406   5.331   8.210  0.2284  0.0423 -0.0222
  477MOL0     C64288   9.339   5.219   8.132  0.2550 -0.6891  0.9105
  477MOL0     C64289   9.476   5.308   8.330 -0.9183 -0.5256  0.2126
  477MOL0     C64290   9.499   5.167   8.376  0.6098  0.4312  0.2295
  477MOL0     O64291   9.497   5.148   8.507 -0.2387  0.4477  0.0122
  477MOL0     C64292   9.503   5.019   8.558 -0.6387  0.4920 -0.4165
  477MOL0     C64293   9.634   4.957   8.577 -0.2991  0.5888  0.2142
  477MOL0     C64294   9.645   4.831   8.639 -0.3050 -0.7433 -0.2833
  477MOL0     C64295   9.532   4.774   8.684 -0.3762  1.4619 -0.7464
  477MOL0     O64296   9.560   4.662   8.760 -0.1266  0.5646 -0.3353
  477MOL0     C64297   9.451   4.570   8.784 -0.7258  0.6803 -1.1533
  477MOL0     C64298   9.504   4.437   8.860  0.8329  0.7970  1.1999
  477MOL0     C64299   9.553   4.446   9.002 -0.4842  0.0929 -0.9413
  477MOL0     C64300   9.675   4.534   9.033  0.4539 -0.0015  1.0753
  477MOL0     C64301   9.789   4.490   8.934 -0.2390 -0.2740  0.5829
  477MOL0     C64302   9.914   4.583   8.961  0.1429 -0.6876 -0.1439
  477MOL0     C64303  10.039   4.543   8.883  0.0515  0.0105 -0.0508
  477MOL0     C64304  10.039   4.525   8.727 -0.7489  0.4909 -0.3884
  477MOL0    Cl64305   9.959   4.666   8.663  0.5100 -0.0180  0.3365
  477MOL0     C64306   9.401   4.820   8.664 -0.2442 -0.5094  0.4286
  477MOL0     C64307   9.379   4.944   8.594 -0.8708 -1.0116  0.4020
  477MOL0     O64308   9.534   5.093   8.281  0.1180  0.5730  0.0363
  477MOL0     C64309   9.519   5.415   8.415 -0.5058  0.1916  0.5087
  477MOL0     C64310   9.491   5.546   8.376 -0.7691  0.5484  1.0561
  477MOL0     N64311   9.492   6.317   8.312  0.1076  0.1028 -0.9279
  477MOL0     N64312   9.414   6.410   8.375 -0.2329  0.0423 -0.1881
  477MOL0     C64313  10.161   7.018   9.066  0.2451  0.4280  0.0439
  477MOL0     C64314  10.237   7.136   9.088 -1.0065  0.2353  0.3991
  477MOL0     C64315  10.461   7.530   9.058  0.3838 -0.8163  0.6241
  477MOL0     C64316  10.379   7.637   9.084 -0.6198 -0.3631  0.3313
  477MOL0     C64317  10.429   7.767   9.116  0.1387 -0.0992  0.0700
  477MOL0     C64318  10.571   7.786   9.112 -0.1058 -0.1299  1.3408
  477MOL0     O64319  10.631   7.901   9.145  0.3986 -0.1167 -0.4315
  477MOL0     C64320  10.577   8.020   9.084  0.0186 -0.3768  0.0921
  477MOL0     C64321  10.664   8.042   8.958  0.4203 -0.8003 -0.2445
  477MOL0     C64322  10.800   8.094   9.001  0.0384  0.0789  0.3702
  477MOL0     C64323  10.886   8.126   8.871  1.4435  0.2644 -0.3193
  477MOL0     C64324  10.949   8.011   8.804 -0.5389  0.4525  0.0336
  477MOL0     C64325  10.983   7.909   8.739  0.2803  0.0988  0.0086
  477MOL0     C64326  10.650   7.675   9.086 -0.7790 -0.4015 -0.6014
  477MOL0     C64327  10.599   7.546   9.054 -0.4945  0.2582 -0.2068
  477MOL0     H64328  10.006   7.366   8.999  1.3314  0.7697  1.9885
  477MOL0     H64329   9.872   7.153   8.964 -0.1923 -2.4329  2.8956
  477MOL0     H64330   9.758   6.957   8.979  0.0276 -1.9227  1.3711
  477MOL0     H64331   9.855   6.984   8.833 -0.9629 -2.2318 -1.5994
  477MOL0     H64332   9.915   6.738   8.839  0.0747  1.3722 -0.2532
  477MOL0     H64333   9.787   6.723   8.957  3.0030 -1.4933  0.2510
  477MOL0     H64334   9.639   6.839   8.762  1.8749  2.4104 -1.5891
  477MOL0     H64335   9.767   6.794   8.646 -1.1929  2.0177 -0.4242
  477MOL0     H64336   9.763   6.563   8.702  1.5316  0.6660  2.5280
  477MOL0     H64337   9.667   6.589   8.843  2.1212 -3.3084 -0.4637
  477MOL0     H64338   9.468   6.663   8.699 -1.3251 -1.8463 -0.3241
  477MOL0     H64339   9.543   6.591   8.560  2.6230 -0.1146  0.4486
  477MOL0     H64340   9.567   6.378   8.669  2.1630  1.2945  0.2810
  477MOL0     H64341   9.533   6.437   8.825 -0.0832  0.4640  0.3648
  477MOL0     H64342   9.352   6.318   8.761 -1.7817  0.0146 -2.0139
  477MOL0     H64343   9.305   6.486   8.794 -1.9283 -1.2481  1.9628
  477MOL0     H64344   9.262   6.516   8.558  1.9962 -0.8108 -1.0060
  477MOL0     H64345   9.187   6.361   8.619 -1.3775  2.1797  2.0952
  477MOL0     H64346   9.354   6.137   8.559 -1.6685  2.0223  2.2036
  477MOL0     H64347   9.639   6.110   8.289 -0.5583  1.9729  0.7774
  477MOL0     H64348   9.599   6.046   8.440 -2.0907  0.0487  0.3063
  477MOL0     H64349   9.419   6.019   8.183 -1.8354  0.1329  0.6537
  477MOL0     H64350   9.394   5.936   8.340  1.1316 -1.0527  1.2061
  477MOL0     H64351   9.604   5.810   8.307 -0.7451  0.1429  0.8097
  477MOL0     H64352   9.635   5.891   8.158  1.2687 -5.0300 -0.5602
  477MOL0     H64353   9.541   5.671   8.102  0.8407  0.3808  3.2545
  477MOL0     H64354   9.427   5.790   8.051 -0.0683 -0.7107 -1.2576
  477MOL0     H64355   9.323   5.488   8.083 -1.0786  1.8507  0.6993
  477MOL0     H64356   9.287   5.142   8.190 -2.7851 -1.5456 -2.5587
  477MOL0     H64357   9.254   5.247   8.068 -0.2399  1.0592  2.2452
  477MOL0     H64358   9.412   5.180   8.061 -1.0498  0.4359 -1.1672
  477MOL0     H64359   9.720   5.003   8.529  1.1903 -1.9583  0.2503
  477MOL0     H64360   9.741   4.781   8.644 -0.9439 -2.1699 -1.5424
  477MOL0     H64361   9.382   4.614   8.856  0.2388 -0.1765  0.3582
  477MOL0     H64362   9.406   4.528   8.694 -4.6744 -0.5288  1.1397
  477MOL0     H64363   9.424   4.362   8.857 -0.6929  2.3371 -2.2312
  477MOL0     H64364   9.564   4.382   8.788  1.1157 -0.1723  2.1485
  477MOL0     H64365   9.559   4.344   9.040 -1.6759  0.2339 -0.2987
  477MOL0     H64366   9.477   4.475   9.075  0.6064 -2.3564  1.3292
  477MOL0     H64367   9.651   4.639   9.013  0.2109  0.3854  3.1251
  477MOL0     H64368   9.704   4.537   9.139 -1.8113 -1.2359  1.7956
  477MOL0     H64369   9.760   4.490   8.828  0.6513 -1.6458  0.3073
  477MOL0     H64370   9.811   4.384   8.949 -3.5156 -0.6846  3.8951
  477MOL0     H64371   9.877   4.683   8.937 -1.7387 -1.6557 -1.5108
  477MOL0     H64372   9.930   4.583   9.069 -0.0792 -1.7933 -0.0952
  477MOL0     H64373  10.070   4.452   8.935  0.8693 -1.0534 -2.2677
  477MOL0     H64374  10.114   4.620   8.902  1.0513 -0.5781 -1.4462
  477MOL0     H64375   9.967   4.444   8.715 -1.5588  0.8241  1.8330
  477MOL0     H64376  10.138   4.499   8.688 -0.5847  0.0088  0.3242
  477MOL0     H64377   9.315   4.777   8.712 -1.1715  1.8172  0.9823
  477MOL0     H64378   9.279   4.985   8.589 -0.8824 -0.9040  1.4213
  477MOL0     H64379   9.581   5.388   8.499  0.2353  1.2972  0.3373
  477MOL0     H64380   9.533   5.632   8.427  1.1724 -0.2473  0.8927
  477MOL0     H64381  10.191   6.921   9.105  0.3912  0.2895 -0.4037
  477MOL0     H64382  10.340   7.123   9.120 -1.0708 -3.5179 -0.4143
  477MOL0     H64383  10.271   7.625   9.089 -1.2813  3.3736 -1.2897
  477MOL0     H64384  10.360   7.851   9.123  0.2227  0.0919 -1.0512
  477MOL0     H64385  10.473   8.015   9.049  0.1862  1.4896 -0.8237
  477MOL0     H64386  10.604   8.100   9.154  0.4730 -0.1347 -0.3541
  477MOL0     H64387  10.619   8.119   8.894 -0.3412 -0.0936  1.1033
  477MOL0     H64388  10.669   7.957   8.889 -0.8585  1.4599 -3.3342
  477MOL0     H64389  10.865   8.035   9.066 -0.1235  1.8986  2.2774
  477MOL0     H64390  10.771   8.180   9.062  1.1412  0.3531  0.5242
  477MOL0     H64391  10.972   8.173   8.919 -0.5742  1.7727  2.1128
  477MOL0     H64392  10.827   8.186   8.802  3.4673  0.7482 -1.7069
  477MOL0     H64393  11.012   7.828   8.675  0.2683 -1.9495  2.4292
  477MOL0     H64394  10.758   7.687   9.087 -0.5493 -2.2020 -0.3590
  477MOL0     H64395  10.657   7.459   9.023 -0.1355  0.9412 -1.5370
  478MOL0     O64396   5.354   8.348   2.712  0.8609  0.5808  0.2503
  478MOL0     C64397   5.277   8.257   2.696 -0.0537 -0.0099  0.1964
  478MOL0     O64398   5.311   8.123   2.716 -0.3385  1.1735  0.4500
  478MOL0     C64399   5.439   8.073   2.748  0.8657  0.0178  0.4232
  478MOL0     C64400   5.443   7.934   2.742  0.1224 -0.2124  0.6032
  478MOL0     C64401   5.566   7.863   2.762  0.7800  0.8638 -0.0613
  478MOL0     C64402   5.680   7.934   2.799  0.4846 -0.6337  0.3964
  478MOL0     O64403   5.791   7.850   2.825  0.0285 -0.8928 -0.2914
  478MOL0     C64404   5.910   7.925   2.873  0.1692  0.4635  0.5572
  478MOL0     C64405   5.998   7.818   2.938  1.0256  0.3639 -0.1247
  478MOL0     C64406   6.119   7.879   2.999  0.1322 -0.4175  0.2623
  478MOL0     C64407   6.225   7.775   3.050 -0.1256 -0.0580  0.4931
  478MOL0     C64408   6.340   7.851   3.120 -0.7630  0.1552 -0.4644
  478MOL0     C64409   6.410   7.755   3.221  0.5612 -0.1579  0.5289
  478MOL0     C64410   6.510   7.810   3.321 -0.7948  0.6380 -0.4043
  478MOL0     C64411   6.652   7.834   3.262  0.0161  0.1077 -0.0638
  478MOL0     N64412   6.681   7.854   3.120  0.8061  0.4366  0.3815
  478MOL0     C64413   6.652   7.771   3.011  0.5629  0.4147 -0.5373
  478MOL0     C64414   6.656   7.848   2.906  0.7203 -0.1356  0.0164
  478MOL0     C64415   6.641   7.819   2.767  0.8080 -0.0878  0.2725
  478MOL0     C64416   6.501   7.766   2.728 -0.0556  0.9703  0.3562
  478MOL0     C64417   6.404   7.888   2.703 -0.1322  0.5037 -0.4215
  478MOL0     C64418   6.279   7.850   2.639  1.2766  0.8154  1.0575
  478MOL0     O64419   6.204   7.972   2.613  0.1084 -0.5190 -0.1899
  478MOL0     C64420   6.083   7.956   2.554 -0.3058  0.8651 -0.3926
  478MOL0     C64421   6.025   8.075   2.520 -0.0336  0.2426 -0.6466
  478MOL0     C64422   5.892   8.086   2.481 -0.0315  1.2859  0.7695
  478MOL0     C64423   5.850   8.226   2.452 -0.3557  0.0437 -0.0038
  478MOL0     C64424   5.813   7.968   2.463  0.9988 -0.4308 -0.2291
  478MOL0     C64425   5.666   7.956   2.440  0.1721 -0.4475 -0.1206
  478MOL0     O64426   5.592   8.074   2.427 -0.5366  1.1426 -0.8363
  478MOL0     C64427   5.475   8.076   2.351  0.1358 -0.2772 -0.6676
  478MOL0     C64428   5.449   7.987   2.240  0.8231 -0.7584 -0.7673
  478MOL0     C64429   5.342   8.010   2.154  0.4023 -0.2023  0.0332
  478MOL0     C64430   5.249   8.126   2.173 -0.6522  0.4449 -0.4795
  478MOL0     O64431   5.129   8.122   2.104  0.5759 -1.1104 -0.0301
  478MOL0     C64432   5.048   8.235   2.136 -0.6400 -0.4141  0.2588
  478MOL0     C64433   4.933   8.240   2.031  0.3818  0.8924 -0.3692
  478MOL0     C64434   4.963   8.211   1.887  0.0169  0.8971 -0.2412
  478MOL0     C64435   4.844   8.195   1.797 -0.2830  1.0415  0.1945
  478MOL0     C64436   4.866   8.221   1.645  0.8557  0.3624 -0.2640
  478MOL0     C64437   4.962   8.117   1.585  1.4175  0.5122  0.9879
  478MOL0     C64438   5.023   8.151   1.453  0.2596  0.4309 -0.4326
  478MOL0     C64439   5.115   8.048   1.389 -0.1477  0.5440  0.2556
  478MOL0    Cl64440   5.195   8.123   1.254  0.4046  0.1609  0.3329
  478MOL0     C64441   5.286   8.222   2.275 -0.7795  0.9191  0.4331
  478MOL0     C64442   5.392   8.184   2.360 -1.2565 -0.8816  0.2919
  478MOL0     O64443   5.617   7.849   2.430  0.0200 -0.0818  0.2831
  478MOL0     C64444   5.875   7.844   2.501  0.0047 -0.1519 -0.0229
  478MOL0     C64445   6.009   7.838   2.550  0.7698 -0.4734  0.8069
  478MOL0     N64446   6.687   7.978   2.954  0.2979  0.6354 -0.7009
  478MOL0     N64447   6.702   7.980   3.080 -0.0830 -0.1114  0.2831
  478MOL0     C64448   5.676   8.079   2.808 -0.9512 -0.5247 -0.1409
  478MOL0     C64449   5.554   8.157   2.778 -0.2463  0.8464 -0.3138
  478MOL0     C64450   5.151   8.292   2.622  0.2517  0.0559 -0.1121
  478MOL0     C64451   5.089   8.187   2.548  0.0797 -0.0348 -0.3729
  478MOL0     C64452   4.966   8.212   2.485  0.5320 -1.0744 -0.4696
  478MOL0     C64453   4.915   8.341   2.479  0.2339  0.3319 -0.6448
  478MOL0     O64454   4.791   8.387   2.439  0.1676  0.6443 -0.1088
  478MOL0     C64455   4.686   8.281   2.423 -0.5148 -0.3287  1.0927
  478MOL0     C64456   4.562   8.339   2.353 -0.0212 -0.2265  1.2159
  478MOL0     C64457   4.512   8.471   2.418 -0.2445  0.0334  0.2647
  478MOL0     C64458   4.436   8.548   2.318  0.0766 -0.0575  0.2940
  478MOL0     C64459   4.393   8.685   2.357 -0.1180  0.5726 -0.3617
  478MOL0     C64460   4.351   8.789   2.376 -0.2330 -0.9847 -0.8967
  478MOL0     C64461   4.986   8.435   2.556  0.9569  0.1124 -0.3955
  478MOL0     C64462   5.105   8.419   2.625 -0.1529  0.1337 -0.5707
  478MOL0     H64463   5.350   7.890   2.709 -0.4306  0.6354  1.0088
  478MOL0     H64464   5.570   7.756   2.744 -1.1669  0.9132 -1.0306
  478MOL0     H64465   5.961   7.975   2.790 -1.3442  0.9810 -0.0957
  478MOL0     H64466   5.876   7.996   2.949 -2.8133 -3.6053  3.3984
  478MOL0     H64467   5.934   7.767   3.011 -1.9663  2.4428 -1.1323
  478MOL0     H64468   6.044   7.760   2.857  2.2599  0.4491  0.4857
  478MOL0     H64469   6.162   7.935   2.915 -2.7141  0.2571 -0.8576
  478MOL0     H64470   6.078   7.951   3.070 -3.3898  0.5908 -2.5010
  478MOL0     H64471   6.181   7.702   3.119  0.3224  1.6232  2.6599
  478MOL0     H64472   6.262   7.716   2.966  1.9063 -0.3411  1.5154
  478MOL0     H64473   6.405   7.898   3.046 -1.0807  3.7890  1.3313
  478MOL0     H64474   6.292   7.929   3.180  0.8146  0.3302  0.6501
  478MOL0     H64475   6.337   7.700   3.281  1.5618  0.9092  2.8899
  478MOL0     H64476   6.462   7.688   3.152  1.3596  3.2798 -2.5301
  478MOL0     H64477   6.470   7.907   3.352 -1.1456  1.0713 -2.1590
  478MOL0     H64478   6.509   7.740   3.406  0.7782 -0.0179 -0.8976
  478MOL0     H64479   6.708   7.745   3.289  0.5135  0.1484 -0.9179
  478MOL0     H64480   6.697   7.904   3.332 -0.7132 -1.3134  1.9089
  478MOL0     H64481   6.615   7.670   2.997  0.3655  0.1080  1.7846
  478MOL0     H64482   6.659   7.917   2.721  1.0593  0.4733  1.5190
  478MOL0     H64483   6.720   7.751   2.734  0.1754  0.2194 -2.0614
  478MOL0     H64484   6.465   7.701   2.808  1.0824  1.7781  1.5626
  478MOL0     H64485   6.498   7.708   2.635 -2.5911  1.0766  0.2854
  478MOL0     H64486   6.452   7.961   2.637  0.0813  1.1411  0.4191
  478MOL0     H64487   6.382   7.941   2.796  2.3168 -1.0723  1.1624
  478MOL0     H64488   6.224   7.793   2.714  0.7622 -1.0097 -0.6407
  478MOL0     H64489   6.289   7.790   2.548 -0.9866  2.2795 -0.2540
  478MOL0     H64490   6.090   8.161   2.530 -0.1458  0.0883  2.3579
  478MOL0     H64491   5.787   8.252   2.537 -0.6888 -3.0455  0.8104
  478MOL0     H64492   5.927   8.300   2.430 -1.9565  1.8989  0.3225
  478MOL0     H64493   5.796   8.223   2.356  0.2510  1.5954 -0.4209
  478MOL0     H64494   5.509   7.898   2.224  0.9314 -0.9804  0.6632
  478MOL0     H64495   5.317   7.948   2.069 -1.7960  1.1690 -0.4034
  478MOL0     H64496   5.012   8.230   2.240  0.5885  3.4289  0.9923
  478MOL0     H64497   5.099   8.331   2.128 -2.7000  0.8525  1.4996
  478MOL0     H64498   4.855   8.165   2.047  0.8783  0.3636 -0.4026
  478MOL0     H64499   4.890   8.340   2.040  3.0695  2.6048 -4.0374
  478MOL0     H64500   5.043   8.137   1.878  0.8384  1.7569 -0.0708
  478MOL0     H64501   5.016   8.298   1.848  2.8866 -1.0756 -1.0575
  478MOL0     H64502   4.803   8.097   1.825  0.2805  1.1603  1.4782
  478MOL0     H64503   4.777   8.273   1.831 -2.0872 -1.8570  4.0360
  478MOL0     H64504   4.913   8.319   1.631 -0.3940  1.3228  1.6596
  478MOL0     H64505   4.767   8.229   1.601  0.5673 -2.0816 -0.1829
  478MOL0     H64506   5.053   8.108   1.645  1.7136  0.3716  0.5266
  478MOL0     H64507   4.904   8.024   1.574 -0.4526  1.7626 -0.2417
  478MOL0     H64508   5.081   8.242   1.474  0.8067  0.4367 -1.8441
  478MOL0     H64509   4.938   8.175   1.389  1.5741  0.7091 -2.1392
  478MOL0     H64510   5.055   7.963   1.354 -0.4074  0.0112  1.8992
  478MOL0     H64511   5.189   8.011   1.460  0.9172 -0.6517 -1.4172
  478MOL0     H64512   5.222   8.298   2.316  0.6818  1.2327  2.2441
  478MOL0     H64513   5.392   8.239   2.454  1.1578 -0.0218 -0.1582
  478MOL0     H64514   5.837   7.742   2.492 -0.2008 -0.4056  2.6864
  478MOL0     H64515   6.051   7.742   2.579  1.8398 -0.7006 -1.3042
  478MOL0     H64516   5.766   8.135   2.833  0.2460 -1.8002 -1.4110
  478MOL0     H64517   5.555   8.265   2.786  0.5151  0.7199  2.0927
  478MOL0     H64518   5.122   8.084   2.552  1.3363  0.3810  1.6081
  478MOL0     H64519   4.932   8.127   2.427  2.8608 -2.5178  0.1240
  478MOL0     H64520   4.726   8.205   2.354  0.1725  0.8106  0.1917
  478MOL0     H64521   4.669   8.225   2.515  2.7389 -1.8564  0.8753
  478MOL0     H64522   4.485   8.261   2.343 -1.0928  0.6284  2.4868
  478MOL0     H64523   4.586   8.359   2.248  0.8714  3.8647  2.0353
  478MOL0     H64524   4.590   8.541   2.449 -0.8309  1.0849 -0.5882
  478MOL0     H64525   4.461   8.451   2.513 -1.5268  0.5116 -0.3044
  478MOL0     H64526   4.357   8.483   2.279  1.8140 -1.9956 -0.1635
  478MOL0     H64527   4.505   8.572   2.237  0.5550 -0.1844  0.6615
  478MOL0     H64528   4.309   8.882   2.408  2.2288 -0.4484  1.1358
  478MOL0     H64529   4.969   8.543   2.554  0.8821  0.1866  1.8143
  478MOL0     H64530   5.152   8.506   2.670  1.0021  0.5018 -2.3944
  479MOL0     O64531   5.618   5.005   6.076  0.0565  0.1047  0.4774
  479MOL0     C64532   5.599   5.022   6.192  0.3438 -0.1618  0.4598
  479MOL0     O64533   5.527   5.121   6.237 -0.0485 -0.2113  1.0537
  479MOL0     C64534   5.461   5.221   6.161 -0.2943  0.8185  0.0109
  479MOL0     C64535   5.495   5.259   6.026 -0.0984  0.7469 -0.6556
  479MOL0     C64536   5.420   5.355   5.954 -0.4822 -0.3447  0.0095
  479MOL0     C64537   5.309   5.416   6.017  0.1201 -0.0160  0.0984
  479MOL0     O64538   5.222   5.505   5.961  0.4366 -0.4430  0.5223
  479MOL0     C64539   5.246   5.571   5.830  0.1978  0.4148  0.3634
  479MOL0     C64540   5.199   5.481   5.717 -0.3375  0.3819  0.2519
  479MOL0     C64541   5.049   5.497   5.679  0.4119 -0.7852  0.0548
  479MOL0     C64542   4.965   5.374   5.708  0.8279  0.2611 -0.5666
  479MOL0     C64543   4.854   5.353   5.611 -0.3655  0.0042 -0.0906
  479MOL0     C64544   4.747   5.267   5.673  0.9431 -0.2381  0.1458
  479MOL0     C64545   4.614   5.283   5.584 -1.0268 -0.3885  0.1375
  479MOL0     C64546   4.495   5.192   5.614 -0.1228  0.4907 -1.0554
  479MOL0     N64547   4.450   5.214   5.756  0.2952 -0.8427  0.3186
  479MOL0     C64548   4.480   5.136   5.866 -1.0467 -0.0242 -0.7358
  479MOL0     C64549   4.394   5.173   5.964 -0.6312 -0.3999 -0.5059
  479MOL0     C64550   4.388   5.110   6.103 -1.1401 -1.0404  0.1061
  479MOL0     C64551   4.511   5.148   6.189  0.9255  0.4905  0.7531
  479MOL0     C64552   4.518   5.043   6.299  0.6808 -0.0044  0.0294
  479MOL0     C64553   4.388   5.032   6.386  0.5345 -0.4220  0.2933
  479MOL0     O64554   4.377   5.163   6.451 -0.1544  0.0246  0.8974
  479MOL0     C64555   4.442   5.204   6.560 -0.8350 -0.6207 -0.6754
  479MOL0     C64556   4.410   5.333   6.607  0.2681 -0.9550 -0.6940
  479MOL0     C64557   4.462   5.395   6.718 -0.2960 -0.2399  0.0668
  479MOL0     C64558   4.429   5.535   6.742  0.3615 -0.0670  0.3015
  479MOL0     C64559   4.559   5.330   6.787 -0.1260  0.4033 -0.4116
  479MOL0     C64560   4.650   5.395   6.886  0.1749 -1.5820 -0.6729
  479MOL0     O64561   4.616   5.515   6.939 -0.1186 -0.0965  0.2958
  479MOL0     C64562   4.709   5.577   7.005 -0.1534  0.6628 -0.9187
  479MOL0     C64563   4.787   5.670   6.942 -0.4502  0.5108  0.3917
  479MOL0     C64564   4.886   5.738   7.016 -0.2236 -0.1275  0.8674
  479MOL0     C64565   4.920   5.712   7.149 -0.3491  0.1870  0.6801
  479MOL0     O64566   5.009   5.795   7.208  0.2440  0.1567  0.0360
  479MOL0     C64567   5.060   5.773   7.335 -1.1368  1.2532 -0.2551
  479MOL0     C64568   5.157   5.649   7.331 -0.0287 -0.8144 -0.8145
  479MOL0     C64569   5.258   5.668   7.223  0.7677  0.1851 -1.2652
  479MOL0     C64570   5.388   5.604   7.246  0.9222  0.6695  0.6686
  479MOL0     C64571   5.498   5.636   7.142  0.2579 -0.0126 -0.9753
  479MOL0     C64572   5.542   5.786   7.134 -0.3379  0.4881  0.2974
  479MOL0     C64573   5.665   5.811   7.229  0.2580 -0.2646 -0.3115
  479MOL0     C64574   5.764   5.922   7.181 -0.1633 -0.9498  0.3278
  479MOL0    Cl64575   5.906   5.886   7.267  0.5108  0.4638  0.0680
  479MOL0     C64576   4.848   5.605   7.210  0.8649  0.2609  0.0032
  479MOL0     C64577   4.744   5.539   7.139  0.1444 -0.5081  1.0003
  479MOL0     O64578   4.759   5.340   6.909  0.4061  0.3155 -0.1539
  479MOL0     C64579   4.600   5.204   6.744 -0.1789 -0.5427 -0.2831
  479MOL0     C64580   4.542   5.138   6.631  0.4923 -0.6404 -0.0267
  479MOL0     N64581   4.322   5.280   5.915  0.0841  0.6895 -0.1530
  479MOL0     N64582   4.353   5.301   5.788 -0.5106  0.0607 -0.1826
  479MOL0     C64583   5.273   5.381   6.148 -0.6244  0.4494  1.3990
  479MOL0     C64584   5.345   5.279   6.213  0.3205 -0.2359  0.8915
  479MOL0     C64585   5.672   4.937   6.280  0.1464 -0.1673 -0.5869
  479MOL0     C64586   5.772   4.858   6.229 -0.3492 -0.1481  0.6348
  479MOL0     C64587   5.862   4.792   6.313  0.6372 -0.3385  0.1813
  479MOL0     C64588   5.845   4.790   6.449 -0.6973 -0.6475 -0.1990
  479MOL0     O64589   5.939   4.743   6.534 -0.7320  0.1515 -0.6985
  479MOL0     C64590   5.928   4.610   6.587  0.2143  0.6670  0.3681
  479MOL0     C64591   6.074   4.552   6.609  0.0863  0.0190 -0.4548
  479MOL0     C64592   6.080   4.405   6.655 -0.2454 -0.2597  0.4526
  479MOL0     C64593   6.006   4.365   6.790 -1.5973 -0.0221 -0.0795
  479MOL0     C64594   5.979   4.223   6.782 -0.2213  0.7821  0.0855
  479MOL0     C64595   5.946   4.104   6.787  0.6816 -0.3693  1.0712
  479MOL0     C64596   5.755   4.880   6.506  0.5667  0.0434 -0.0207
  479MOL0     C64597   5.664   4.951   6.423  0.4171 -0.2789  0.0672
  479MOL0     H64598   5.579   5.216   5.972  1.3046  1.8500  0.5516
  479MOL0     H64599   5.447   5.376   5.851 -3.6407 -2.2117 -1.3791
  479MOL0     H64600   5.177   5.655   5.818 -0.8203 -0.4895 -0.3600
  479MOL0     H64601   5.350   5.603   5.829  0.4282 -0.2793 -1.0210
  479MOL0     H64602   5.260   5.513   5.632  0.1586  3.0289  1.4840
  479MOL0     H64603   5.217   5.375   5.739 -1.0028 -0.1579 -1.6443
  479MOL0     H64604   5.004   5.583   5.730  0.6637 -2.0774  2.6274
  479MOL0     H64605   5.053   5.525   5.574  2.3981  1.1811  0.5791
  479MOL0     H64606   5.020   5.279   5.707  0.8925  0.2969 -0.4277
  479MOL0     H64607   4.923   5.395   5.807 -1.9161  0.7544 -1.7641
  479MOL0     H64608   4.811   5.453   5.598  1.6104  1.4561  3.0777
  479MOL0     H64609   4.887   5.315   5.514  3.0788  1.6781  0.2684
  479MOL0     H64610   4.777   5.163   5.693 -1.2671 -1.0677 -0.4735
  479MOL0     H64611   4.718   5.305   5.771  2.4170  0.5260  0.3062
  479MOL0     H64612   4.580   5.387   5.594  0.5150 -0.0446  3.0420
  479MOL0     H64613   4.647   5.264   5.482  2.2247 -0.1304  1.0412
  479MOL0     H64614   4.510   5.087   5.588  2.4706  0.8774 -1.4779
  479MOL0     H64615   4.416   5.237   5.553  1.3769  2.6100 -1.5651
  479MOL0     H64616   4.553   5.060   5.893 -2.2022 -0.8754  0.1151
  479MOL0     H64617   4.292   5.143   6.144 -0.9723 -1.4637  0.8529
  479MOL0     H64618   4.386   5.001   6.096 -0.4740 -1.2366  2.2497
  479MOL0     H64619   4.498   5.247   6.233  0.7470  0.3055  1.1212
  479MOL0     H64620   4.603   5.143   6.130  1.2376 -1.7758  1.3366
  479MOL0     H64621   4.597   5.071   6.369  0.0371  0.1181  0.7186
  479MOL0     H64622   4.534   4.947   6.248 -1.1796 -1.0148  1.2406
  479MOL0     H64623   4.394   4.952   6.460 -4.5376 -0.3316  1.1309
  479MOL0     H64624   4.304   5.002   6.323  3.5259  0.0648 -4.4587
  479MOL0     H64625   4.325   5.377   6.556  1.1312  2.2788  0.4254
  479MOL0     H64626   4.372   5.562   6.652 -0.2882 -0.0623  0.7076
  479MOL0     H64627   4.364   5.533   6.830  0.5789 -0.9298  0.4555
  479MOL0     H64628   4.517   5.599   6.751 -0.3837  0.6886  3.0015
  479MOL0     H64629   4.766   5.702   6.840 -0.3516 -0.2710  0.1153
  479MOL0     H64630   4.939   5.816   6.963  0.7049 -0.8557  0.6960
  479MOL0     H64631   5.124   5.861   7.350 -1.3805  1.6616 -1.5013
  479MOL0     H64632   4.985   5.756   7.412 -1.3466 -0.8878 -0.8861
  479MOL0     H64633   5.203   5.648   7.430 -1.0550 -0.8546 -0.3191
  479MOL0     H64634   5.099   5.557   7.320  2.0699 -2.2418 -0.4102
  479MOL0     H64635   5.283   5.774   7.225  2.7591 -0.1718  2.8385
  479MOL0     H64636   5.220   5.627   7.129  0.9785 -3.6587  0.1494
  479MOL0     H64637   5.414   5.627   7.350  0.0016  2.1084  0.5964
  479MOL0     H64638   5.363   5.497   7.247  0.3402  0.7955 -0.1974
  479MOL0     H64639   5.449   5.612   7.047 -2.3589 -0.7434  0.4697
  479MOL0     H64640   5.589   5.580   7.168  0.2162  0.9331  1.4377
  479MOL0     H64641   5.577   5.810   7.033  1.8439  0.8152  1.0751
  479MOL0     H64642   5.452   5.845   7.155 -0.1645  0.4547  1.1771
  479MOL0     H64643   5.716   5.718   7.254  0.0176  0.1705  2.0415
  479MOL0     H64644   5.612   5.858   7.312 -2.0962 -0.3401 -1.6645
  479MOL0     H64645   5.726   6.018   7.216  0.2272  0.2130 -2.2153
  479MOL0     H64646   5.773   5.924   7.072  2.6098 -0.2663  0.5108
  479MOL0     H64647   4.877   5.551   7.299  2.7656 -1.0985 -1.3318
  479MOL0     H64648   4.697   5.452   7.184  1.5189 -0.5252  2.4987
  479MOL0     H64649   4.680   5.146   6.789 -1.9201 -3.0515 -0.2089
  479MOL0     H64650   4.564   5.034   6.611 -1.4813 -0.8234 -1.5685
  479MOL0     H64651   5.179   5.424   6.181 -0.8548  1.3433 -0.2534
  479MOL0     H64652   5.318   5.242   6.312  2.0947  0.2369  1.5995
  479MOL0     H64653   5.785   4.858   6.121 -1.5485 -0.1191  0.4675
  479MOL0     H64654   5.940   4.729   6.271 -0.7348 -2.7231  1.0393
  479MOL0     H64655   5.879   4.608   6.685  0.5227  0.7383  0.5258
  479MOL0     H64656   5.880   4.542   6.516  0.9415  1.2295 -0.6872
  479MOL0     H64657   6.111   4.608   6.696  0.3255 -0.2750 -0.3665
  479MOL0     H64658   6.133   4.570   6.519  0.2758 -1.8706 -0.7420
  479MOL0     H64659   6.180   4.361   6.652  0.4687  0.9293  3.4158
  479MOL0     H64660   6.029   4.349   6.576 -0.7271 -0.1321  0.6693
  479MOL0     H64661   5.906   4.407   6.799 -1.3750  1.1308 -2.3025
  479MOL0     H64662   6.063   4.382   6.881 -2.0929 -0.8404  0.3930
  479MOL0     H64663   5.924   4.000   6.779  1.5719 -0.5647  1.0689
  479MOL0     H64664   5.742   4.892   6.613  1.1709 -1.2721  0.2081
  479MOL0     H64665   5.593   5.019   6.469  2.6625  2.7389 -0.6319
  480MOL0     O64666   8.081   5.619   0.928  0.4862  1.0478  0.3536
  480MOL0     C64667   8.026   5.577   0.824  0.3402  0.4551 -0.3928
  480MOL0     O64668   7.891   5.568   0.802 -0.1973  0.0376  0.1941
  480MOL0     C64669   7.815   5.615   0.909 -0.6224  0.5416  0.3954
  480MOL0     C64670   7.773   5.529   1.001  0.4634 -0.1903  0.0928
  480MOL0     C64671   7.700   5.573   1.104  0.3970 -0.0942 -0.5619
  480MOL0     C64672   7.665   5.711   1.120 -0.0985  0.1455 -0.8421
  480MOL0     O64673   7.595   5.763   1.223 -0.5236  0.6971  0.0272
  480MOL0     C64674   7.538   5.673   1.323 -0.3673  0.3342 -0.8233
  480MOL0     C64675   7.391   5.633   1.297 -0.7305 -0.5871  0.9252
  480MOL0     C64676   7.322   5.604   1.431 -0.5862  0.9495  0.6639
  480MOL0     C64677   7.196   5.518   1.423  0.5352  0.2590  0.1935
  480MOL0     C64678   7.082   5.594   1.357 -0.2353 -1.3788 -0.7200
  480MOL0     C64679   6.970   5.510   1.304  0.5574  0.2471 -0.3572
  480MOL0     C64680   6.856   5.605   1.257 -0.2642 -0.4337 -0.2339
  480MOL0     C64681   6.723   5.545   1.241  0.5504 -0.4674  0.1176
  480MOL0     N64682   6.722   5.412   1.173  0.1777 -0.4752 -0.1874
  480MOL0     C64683   6.733   5.294   1.237  0.2521  0.0990  0.6867
  480MOL0     C64684   6.709   5.212   1.128 -0.2263 -0.5095  0.2660
  480MOL0     C64685   6.739   5.065   1.134 -0.8545  0.5988  0.1747
  480MOL0     C64686   6.616   4.970   1.160  0.3702  0.1813 -0.8819
  480MOL0     C64687   6.670   4.826   1.121 -0.1039  0.3796 -0.8897
  480MOL0     C64688   6.560   4.727   1.147  0.4137  0.3895  0.4610
  480MOL0     O64689   6.454   4.740   1.053 -0.0193 -0.2920 -0.1647
  480MOL0     C64690   6.358   4.637   1.033  0.8757 -0.1653 -0.5592
  480MOL0     C64691   6.335   4.538   1.130 -0.9374 -0.4931  0.0877
  480MOL0     C64692   6.235   4.443   1.108  0.0004  0.9299 -0.9563
  480MOL0     C64693   6.243   4.317   1.191  0.5590  0.9511 -0.0161
  480MOL0     C64694   6.152   4.448   0.999  0.1409  0.4137  0.1828
  480MOL0     C64695   6.043   4.357   0.977 -0.2075 -0.3804  0.0843
  480MOL0     O64696   5.937   4.370   1.051  0.5142  0.5673 -0.5809
  480MOL0     C64697   5.819   4.328   0.999 -0.1567 -0.4108 -0.2935
  480MOL0     C64698   5.761   4.205   1.017 -0.4271 -0.2183  0.0760
  480MOL0     C64699   5.632   4.178   0.981  0.1905  0.3426 -0.0196
  480MOL0     C64700   5.549   4.260   0.901 -0.6710  0.6587  1.5986
  480MOL0     O64701   5.419   4.241   0.851  0.4460  0.4691  0.1873
  480MOL0     C64702   5.359   4.114   0.865  0.4675 -0.0080 -0.0760
  480MOL0     C64703   5.211   4.126   0.827 -0.1983  0.7003 -0.2949
  480MOL0     C64704   5.119   4.212   0.913  0.1895 -0.4342  0.7952
  480MOL0     C64705   5.107   4.166   1.058  0.5403  0.7389 -0.3457
  480MOL0     C64706   4.977   4.207   1.139 -0.5104  1.1876 -0.4372
  480MOL0     C64707   5.006   4.176   1.282 -0.2984  0.3750 -0.7473
  480MOL0     C64708   4.904   4.237   1.376 -0.0645  0.8742 -0.3656
  480MOL0     C64709   4.912   4.188   1.522 -0.3354  0.7167 -0.5714
  480MOL0    Cl64710   4.835   4.026   1.538 -0.0844 -0.5188  0.9117
  480MOL0     C64711   5.613   4.387   0.863 -0.2385  0.5102  0.0905
  480MOL0     C64712   5.746   4.420   0.921  0.7400  0.4329  0.6003
  480MOL0     O64713   6.064   4.261   0.902 -0.0138  0.3722 -0.2980
  480MOL0     C64714   6.172   4.556   0.911 -0.2929 -0.9046 -0.2238
  480MOL0     C64715   6.272   4.653   0.929 -0.9830  0.4180  0.5503
  480MOL0     N64716   6.676   5.281   1.018  0.2740 -0.4030  0.1071
  480MOL0     N64717   6.695   5.400   1.040 -0.5529 -0.2280  0.1855
  480MOL0     C64718   7.711   5.797   1.028  0.7940  0.9170 -0.2085
  480MOL0     C64719   7.778   5.749   0.916 -0.1518  0.7466 -1.1480
  480MOL0     C64720   8.110   5.525   0.714 -0.4834  0.4328  0.3520
  480MOL0     C64721   8.052   5.499   0.588  0.5273 -0.9044  0.1814
  480MOL0     C64722   8.135   5.474   0.476  0.2305 -0.0110  0.3523
  480MOL0     C64723   8.268   5.453   0.487 -0.1897  0.8937  0.3652
  480MOL0     O64724   8.333   5.444   0.367 -0.5817 -0.1992 -0.4803
  480MOL0     C64725   8.471   5.481   0.370 -0.1031  0.6130 -0.1628
  480MOL0     C64726   8.550   5.351   0.374  0.2900  0.3608  0.1135
  480MOL0     C64727   8.695   5.394   0.339 -0.5467  0.6901 -0.9876
  480MOL0     C64728   8.763   5.260   0.318 -0.4361 -0.1516  0.4038
  480MOL0     C64729   8.888   5.275   0.244 -0.6782 -0.3750 -0.5047
  480MOL0     C64730   8.993   5.303   0.193  0.1329  0.3415  0.2378
  480MOL0     C64731   8.324   5.450   0.620 -0.3260  0.6902 -0.5466
  480MOL0     C64732   8.241   5.503   0.722 -0.8728 -0.6926 -0.6546
  480MOL0     H64733   7.796   5.423   0.989  1.9134 -0.0371  1.2065
  480MOL0     H64734   7.659   5.499   1.172 -1.6242  0.1771 -1.4112
  480MOL0     H64735   7.592   5.581   1.344 -0.5660  0.5456  0.7004
  480MOL0     H64736   7.548   5.727   1.418  4.7895 -0.4906 -0.6088
  480MOL0     H64737   7.348   5.717   1.241  3.6659 -0.9638 -3.7490
  480MOL0     H64738   7.374   5.547   1.230 -2.0472  0.6175 -0.3647
  480MOL0     H64739   7.390   5.553   1.499  2.0367  1.2263 -1.5734
  480MOL0     H64740   7.295   5.698   1.480  0.2515  1.8804 -0.5918
  480MOL0     H64741   7.224   5.434   1.359  1.4269  3.2205 -3.7415
  480MOL0     H64742   7.155   5.487   1.519  0.0827  1.7597  0.5244
  480MOL0     H64743   7.058   5.676   1.425  0.4187 -1.1913 -0.7043
  480MOL0     H64744   7.130   5.641   1.270 -1.0749 -0.3663 -0.6551
  480MOL0     H64745   7.001   5.457   1.214  0.0799  1.0370 -1.0003
  480MOL0     H64746   6.939   5.433   1.375 -2.7843 -0.3287 -2.2522
  480MOL0     H64747   6.826   5.681   1.330 -0.2518 -0.4306 -0.2325
  480MOL0     H64748   6.878   5.646   1.158 -0.0468  0.5655  0.2212
  480MOL0     H64749   6.672   5.617   1.176 -2.2711 -1.7100  0.7941
  480MOL0     H64750   6.662   5.534   1.331  0.5752 -2.4168 -0.0652
  480MOL0     H64751   6.775   5.265   1.333  2.1361 -0.7982 -0.3679
  480MOL0     H64752   6.778   5.039   1.035 -2.4465  0.6634 -0.4943
  480MOL0     H64753   6.815   5.040   1.208 -1.8026  0.5599  1.1572
  480MOL0     H64754   6.524   4.996   1.107  1.0687  2.6210 -0.9950
  480MOL0     H64755   6.600   4.971   1.269  1.1350 -0.3133 -0.7604
  480MOL0     H64756   6.755   4.790   1.179 -0.7472 -1.5088 -1.0450
  480MOL0     H64757   6.691   4.815   1.014 -1.3594 -0.9191 -1.0430
  480MOL0     H64758   6.522   4.739   1.249  2.1755  4.1918  0.8504
  480MOL0     H64759   6.602   4.626   1.145  0.7356  0.4573  2.4015
  480MOL0     H64760   6.396   4.533   1.219 -0.2576 -1.7850 -0.4266
  480MOL0     H64761   6.270   4.344   1.294 -0.1110  1.9562 -0.0898
  480MOL0     H64762   6.148   4.262   1.192  1.3813 -0.5869 -1.4180
  480MOL0     H64763   6.324   4.257   1.149  1.1636  1.5666  0.2469
  480MOL0     H64764   5.826   4.129   1.059  2.3973  3.0193  2.0811
  480MOL0     H64765   5.606   4.074   0.992  4.0268 -0.7721  0.2233
  480MOL0     H64766   5.394   4.043   0.790  0.5121 -0.9350  0.7961
  480MOL0     H64767   5.362   4.072   0.966 -1.5274  0.6356  0.3066
  480MOL0     H64768   5.206   4.180   0.732  5.7807  1.5886 -0.4542
  480MOL0     H64769   5.165   4.027   0.815 -0.5754  0.0881  4.3826
  480MOL0     H64770   5.016   4.215   0.876 -0.2128 -0.5752  1.8762
  480MOL0     H64771   5.147   4.318   0.915 -2.5503  0.3940  0.1364
  480MOL0     H64772   5.102   4.057   1.049 -1.3112  0.8786 -1.3914
  480MOL0     H64773   5.198   4.205   1.103  0.9018 -0.1403 -0.2802
  480MOL0     H64774   4.890   4.154   1.101  0.4212  0.7409 -2.1009
  480MOL0     H64775   4.959   4.315   1.131  2.4056  1.8703  0.6406
  480MOL0     H64776   5.011   4.067   1.288  1.2031  0.3300 -2.0627
  480MOL0     H64777   5.105   4.216   1.306 -0.1196 -0.3410 -0.2512
  480MOL0     H64778   4.807   4.208   1.336  1.2167 -1.7828 -1.8426
  480MOL0     H64779   4.910   4.344   1.356 -3.6184  1.2174 -0.1651
  480MOL0     H64780   4.853   4.263   1.575 -3.9595 -1.7651 -0.7526
  480MOL0     H64781   5.013   4.183   1.563 -0.3533  1.8432 -0.3518
  480MOL0     H64782   5.560   4.462   0.805  0.5293  0.8589 -0.1736
  480MOL0     H64783   5.786   4.519   0.899 -0.8388  1.1668  0.9386
  480MOL0     H64784   6.110   4.552   0.821  0.1413  0.7878 -0.6207
  480MOL0     H64785   6.282   4.730   0.853  1.4385  0.5017  0.8844
  480MOL0     H64786   7.688   5.903   1.032 -4.2960  0.1913 -1.9791
  480MOL0     H64787   7.811   5.813   0.835  0.7056 -2.1177 -3.2251
  480MOL0     H64788   7.945   5.516   0.585  0.5077 -1.2057 -1.2934
  480MOL0     H64789   8.089   5.469   0.377  0.7680  0.3738  0.0742
  480MOL0     H64790   8.489   5.524   0.271 -2.7388  2.5150  0.0636
  480MOL0     H64791   8.505   5.555   0.443  0.5391 -0.0320  0.1965
  480MOL0     H64792   8.496   5.290   0.301 -2.6414  1.3377  1.3071
  480MOL0     H64793   8.546   5.296   0.468  0.3300 -1.1911 -0.7562
  480MOL0     H64794   8.743   5.450   0.420 -1.6989  0.1546  0.0913
  480MOL0     H64795   8.693   5.451   0.246  0.5259  1.9452 -0.2757
  480MOL0     H64796   8.693   5.188   0.274 -0.3339 -0.4620  0.7433
  480MOL0     H64797   8.788   5.210   0.412  0.2069 -2.5251 -0.9584
  480MOL0     H64798   9.072   5.323   0.123 -0.5085 -0.7471 -0.8281
  480MOL0     H64799   8.428   5.422   0.629  0.0772  1.0084 -3.1952
  480MOL0     H64800   8.286   5.514   0.820  1.4665  0.7645 -1.8011
  481MOL0     O64801   3.712   9.877  10.121 -0.2482 -0.5185 -0.3680
  481MOL0     C64802   3.609   9.938  10.131 -0.2985 -0.9349 -0.9939
  481MOL0     O64803   3.539   9.962  10.250  0.4585  0.9736  0.1501
  481MOL0     C64804   3.598   9.911  10.362 -0.4409 -1.0354 -1.0653
  481MOL0     C64805   3.574   9.782  10.411  0.8734  0.0579  1.1931
  481MOL0     C64806   3.629   9.742  10.527  0.7686  0.8369 -1.6180
  481MOL0     C64807   3.700   9.829  10.614 -0.9979  0.3975 -0.3323
  481MOL0     O64808   3.763   9.810  10.737  0.4475 -0.1079  0.5791
  481MOL0     C64809   3.766   9.667  10.788  0.0534  1.0695  0.6446
  481MOL0     C64810   3.872   9.645  10.889  0.1657 -0.2997 -1.1416
  481MOL0     C64811   4.003   9.716  10.852  0.3336  0.0014  0.2641
  481MOL0     C64812   4.121   9.672  10.939 -0.5439 -0.2288 -0.0144
  481MOL0     C64813   4.106   9.691  11.094  0.0996  0.2027 -0.1606
  481MOL0     C64814   4.242   9.657  11.172 -1.1823 -0.2484 -0.2418
  481MOL0     C64815   4.241   9.524  11.251 -0.4509 -0.6465  0.0464
  481MOL0     C64816   4.330   9.413  11.181 -0.3675  0.0666 -1.5867
  481MOL0     N64817   4.338   9.282  11.258  0.3529  0.2578  0.3862
  481MOL0     C64818   4.447   9.249  11.349  0.5269 -0.5216  0.9491
  481MOL0     C64819   4.445   9.117  11.362 -0.3393 -0.3747 -0.4383
  481MOL0     C64820   4.545   9.041  11.448 -0.4186 -0.7480  0.3474
  481MOL0     C64821   4.509   9.028  11.596  0.6998 -0.7419  0.5291
  481MOL0     C64822   4.567   8.901  11.667  0.4723 -0.3123  0.5320
  481MOL0     C64823   4.558   8.912  11.815  0.1343  1.0586  0.6446
  481MOL0     O64824   4.609   8.779  11.850 -0.2611 -1.6338 -0.4308
  481MOL0     C64825   4.542   8.699  11.930  0.7356 -1.0164 -0.1003
  481MOL0     C64826   4.605   8.638  12.041  0.4774 -0.8392  0.4859
  481MOL0     C64827   4.537   8.540  12.121  0.1331 -0.2619  0.8454
  481MOL0     C64828   4.626   8.479  12.220  0.9573 -0.6596 -0.0971
  481MOL0     C64829   4.406   8.508  12.081 -0.1547 -0.1335 -0.2137
  481MOL0     C64830   4.328   8.426  12.161  0.5786 -0.0875 -0.4156
  481MOL0     O64831   4.370   8.399  12.295  0.3189  0.6852  0.1755
  481MOL0     C64832   4.279   8.329  12.371  0.4043 -0.4991 -0.3946
  481MOL0     C64833   4.256   8.194  12.349 -0.2543  0.3113 -0.2586
  481MOL0     C64834   4.182   8.127  12.438  0.6710  0.3293  0.2702
  481MOL0     C64835   4.110   8.186  12.542 -0.5640  0.5439  0.0414
  481MOL0     O64836   4.029   8.115  12.621  0.2075  0.6824 -0.1235
  481MOL0     C64837   3.963   7.996  12.575  0.2437  0.1570 -0.3188
  481MOL0     C64838   3.865   7.939  12.677 -0.6367  0.5018  0.8411
  481MOL0     C64839   3.730   8.020  12.688 -0.7421  0.2652  0.7433
  481MOL0     C64840   3.625   7.961  12.597 -0.1164 -0.1973  0.1605
  481MOL0     C64841   3.488   8.019  12.628  0.3364  0.5763  0.2919
  481MOL0     C64842   3.395   7.945  12.532  0.0959 -0.6877 -0.7169
  481MOL0     C64843   3.253   7.994  12.557  0.4863  0.4672 -0.7182
  481MOL0     C64844   3.148   7.904  12.461 -0.3375  0.1327  0.3235
  481MOL0    Cl64845   3.168   7.960  12.291 -0.0012 -0.1020  0.3287
  481MOL0     C64846   4.120   8.321  12.558 -0.4990 -1.4419  0.8270
  481MOL0     C64847   4.215   8.392  12.478  0.4496 -0.6929 -0.0334
  481MOL0     O64848   4.231   8.366  12.111 -0.3795 -0.2063  0.6680
  481MOL0     C64849   4.339   8.577  11.980  0.2458  0.3825 -0.0885
  481MOL0     C64850   4.403   8.681  11.909  0.7773  0.4609 -0.3635
  481MOL0     N64851   4.358   9.067  11.268 -0.2712  0.5624  0.6019
  481MOL0     N64852   4.293   9.164  11.209 -0.4135  0.5190 -0.3678
  481MOL0     C64853   3.728   9.951  10.559 -0.4068 -0.2031  0.2195
  481MOL0     C64854   3.690   9.989  10.430 -0.0360 -0.0707 -1.2652
  481MOL0     C64855   3.547   9.993  10.002  0.1959 -0.9080 -0.6762
  481MOL0     C64856   3.420  10.046  10.004 -0.1393  0.2466 -0.2691
  481MOL0     C64857   3.366  10.096   9.883  0.0874 -0.0141 -1.4217
  481MOL0     C64858   3.444  10.087   9.762  0.3252 -0.5146 -0.5994
  481MOL0     O64859   3.389  10.129   9.643 -0.7525 -0.7847  0.3265
  481MOL0     C64860   3.280  10.219   9.630 -0.0410 -1.0161 -0.9953
  481MOL0     C64861   3.266  10.280   9.492 -0.3680  0.0893 -0.1184
  481MOL0     C64862   3.365  10.396   9.460 -0.2532 -0.1688 -0.1541
  481MOL0     C64863   3.323  10.531   9.546 -0.4008 -0.0362 -0.1024
  481MOL0     C64864   3.218  10.601   9.474 -0.1438  0.5965 -1.0821
  481MOL0     C64865   3.124  10.634   9.415  0.7425 -0.7433  0.0678
  481MOL0     C64866   3.568  10.026   9.765 -0.3556  0.0757 -0.2374
  481MOL0     C64867   3.616   9.971   9.884 -0.4986  0.1681 -0.9858
  481MOL0     H64868   3.513   9.710  10.357  0.6458  0.4978  0.8600
  481MOL0     H64869   3.601   9.645  10.567  2.2599  1.0006 -0.0667
  481MOL0     H64870   3.669   9.641  10.831 -0.1966  0.9716  0.0305
  481MOL0     H64871   3.774   9.593  10.708 -0.9531  0.3717  1.1661
  481MOL0     H64872   3.826   9.678  10.983 -1.3776 -1.8485 -1.3086
  481MOL0     H64873   3.891   9.538  10.896 -0.9728 -0.6067 -2.3747
  481MOL0     H64874   4.034   9.689  10.751  3.2426 -3.7996  1.9232
  481MOL0     H64875   3.996   9.823  10.876  0.6400  0.1042 -0.0968
  481MOL0     H64876   4.139   9.568  10.908  3.7372 -0.1625  1.6221
  481MOL0     H64877   4.210   9.733  10.921  0.1564 -1.6215 -1.5812
  481MOL0     H64878   4.070   9.791  11.118 -1.3597 -0.6652  1.4965
  481MOL0     H64879   4.024   9.629  11.134  0.2388 -3.0903 -4.2573
  481MOL0     H64880   4.322   9.644  11.098 -1.3380 -1.1147 -0.2699
  481MOL0     H64881   4.270   9.733  11.245  0.7671 -0.8554 -0.2987
  481MOL0     H64882   4.280   9.542  11.351 -1.9400  1.7264  0.2671
  481MOL0     H64883   4.137   9.490  11.258 -0.7456  0.5553  2.4051
  481MOL0     H64884   4.438   9.430  11.185 -0.7495  2.9726  1.8718
  481MOL0     H64885   4.303   9.398  11.076  2.9616 -0.5814 -2.4897
  481MOL0     H64886   4.504   9.322  11.405 -1.8362  3.6072 -1.4859
  481MOL0     H64887   4.538   8.937  11.413 -3.3700  0.0969 -2.0570
  481MOL0     H64888   4.647   9.081  11.447 -0.6939 -0.0141 -0.6193
  481MOL0     H64889   4.400   9.039  11.599  0.6513 -0.6071 -1.1706
  481MOL0     H64890   4.545   9.116  11.650 -0.8400  1.0778 -1.2578
  481MOL0     H64891   4.673   8.891  11.640  0.3151 -4.9184  0.8348
  481MOL0     H64892   4.515   8.813  11.628  0.8513  0.6033 -2.3153
  481MOL0     H64893   4.459   8.944  11.849 -0.2594 -0.6837  1.2262
  481MOL0     H64894   4.627   8.994  11.838  1.6452  0.3400 -1.0621
  481MOL0     H64895   4.708   8.667  12.060 -0.7360  3.2613  1.8823
  481MOL0     H64896   4.634   8.546  12.306 -1.4413 -2.1691  1.3977
  481MOL0     H64897   4.584   8.382  12.246 -2.4357  0.6971 -0.0785
  481MOL0     H64898   4.724   8.463  12.174  1.1705  1.1779 -0.3744
  481MOL0     H64899   4.308   8.141  12.270 -0.2881  1.2162 -0.8968
  481MOL0     H64900   4.172   8.019  12.433 -4.7015  0.5522  0.0739
  481MOL0     H64901   3.915   8.030  12.483  0.7401  0.8901 -0.3149
  481MOL0     H64902   4.043   7.925  12.551 -0.0880 -0.7153  1.0581
  481MOL0     H64903   3.846   7.835  12.647 -1.9309 -0.4000  4.2931
  481MOL0     H64904   3.924   7.950  12.769  0.9655  0.5760 -0.1417
  481MOL0     H64905   3.751   8.124  12.662  0.3035  0.2849  1.6029
  481MOL0     H64906   3.695   8.015  12.791 -1.5848  0.3663  0.4670
  481MOL0     H64907   3.656   7.968  12.492  0.0593 -0.0107  0.2238
  481MOL0     H64908   3.632   7.854  12.620  0.6133  0.2500  2.1659
  481MOL0     H64909   3.495   8.127  12.608  2.0113  0.4083 -0.1836
  481MOL0     H64910   3.467   8.011  12.735 -0.6344  0.4077  0.0948
  481MOL0     H64911   3.424   7.976  12.431  3.8278 -0.3393  0.3192
  481MOL0     H64912   3.420   7.838  12.541  2.1575 -0.3056 -1.3496
  481MOL0     H64913   3.236   8.101  12.543 -2.2001  0.7210  2.9972
  481MOL0     H64914   3.227   7.975  12.661 -4.0048  0.1280 -1.7254
  481MOL0     H64915   3.045   7.931  12.489 -1.8858 -0.3550 -4.1138
  481MOL0     H64916   3.156   7.795  12.475 -0.6761  0.0845  0.1661
  481MOL0     H64917   4.060   8.378  12.628  2.3333 -0.6753  2.7746
  481MOL0     H64918   4.231   8.499  12.477 -1.2850 -0.2510  3.7568
  481MOL0     H64919   4.237   8.551  11.952  0.3462  1.1822 -1.2625
  481MOL0     H64920   4.361   8.739  11.828  0.4907 -1.3344 -1.5455
  481MOL0     H64921   3.795  10.016  10.615  2.4861 -1.8322 -1.1624
  481MOL0     H64922   3.730  10.084  10.396 -0.6733 -0.3196 -2.7967
  481MOL0     H64923   3.365  10.066  10.095  0.3960  3.7190 -0.5421
  481MOL0     H64924   3.263  10.132   9.880  0.6102  1.6668 -0.5876
  481MOL0     H64925   3.191  10.157   9.643 -1.2492  0.5991 -1.2720
  481MOL0     H64926   3.286  10.296   9.708  0.9295 -0.6242 -1.4421
  481MOL0     H64927   3.162  10.309   9.477 -0.3773  1.0103  1.5079
  481MOL0     H64928   3.274  10.208   9.409  0.0835  1.9814 -1.8066
  481MOL0     H64929   3.373  10.411   9.351 -0.9991 -1.3102 -0.3761
  481MOL0     H64930   3.463  10.368   9.498 -0.4672 -1.5756 -0.6132
  481MOL0     H64931   3.404  10.603   9.561 -0.5600  0.3523 -1.0421
  481MOL0     H64932   3.298  10.508   9.650 -1.3704 -0.8862 -0.4992
  481MOL0     H64933   3.035  10.664   9.363  1.7112 -2.7590 -3.0496
  481MOL0     H64934   3.625  10.030   9.673 -0.8691 -1.7054 -0.6639
  481MOL0     H64935   3.715   9.926   9.884  0.4466  2.0606  0.7911
  482MOL0     O64936   2.523   1.273   5.421 -0.8271  0.7378  0.5241
  482MOL0     C64937   2.468   1.261   5.532  0.0763  0.5911  0.3919
  482MOL0     O64938   2.332   1.220   5.547  0.0973 -0.1553  0.3884
  482MOL0     C64939   2.264   1.175   5.427  0.3867 -0.9005 -0.7773
  482MOL0     C64940   2.212   1.048   5.432 -1.8264  0.0382 -0.0213
  482MOL0     C64941   2.154   0.991   5.322 -0.5815  0.6018  0.1101
  482MOL0     C64942   2.133   1.062   5.203  0.2751 -0.8493 -0.2288
  482MOL0     O64943   2.067   1.026   5.088 -0.2065 -0.2765 -0.0399
  482MOL0     C64944   2.085   0.885   5.052 -1.3081  0.9254  1.3802
  482MOL0     C64945   2.189   0.883   4.944 -0.0422  0.0422  0.0172
  482MOL0     C64946   2.334   0.932   4.977 -0.2078  0.1460  0.4126
  482MOL0     C64947   2.403   0.869   5.092 -0.2797  0.4313  1.1376
  482MOL0     C64948   2.518   0.967   5.143  0.1971  0.6785 -1.0826
  482MOL0     C64949   2.617   1.018   5.047 -0.5255 -0.0464 -0.0075
  482MOL0     C64950   2.747   1.079   5.106 -0.1521 -0.3597 -1.0799
  482MOL0     C64951   2.853   1.124   5.009  0.3983 -0.1414  0.2176
  482MOL0     N64952   2.934   1.238   5.056  0.5654 -0.0727  0.0743
  482MOL0     C64953   2.996   1.327   4.981  0.7347 -0.1138  0.0210
  482MOL0     C64954   3.079   1.395   5.061 -0.1508 -0.0826  0.2546
  482MOL0     C64955   3.166   1.509   5.031  0.3041  0.2190 -0.0890
  482MOL0     C64956   3.216   1.570   5.157  0.5705  0.5621 -0.1241
  482MOL0     C64957   3.313   1.684   5.106 -0.3131  0.5455  0.3298
  482MOL0     C64958   3.382   1.749   5.221  0.1792 -0.1849  0.4836
  482MOL0     O64959   3.499   1.827   5.173  0.1428 -1.4000  0.3239
  482MOL0     C64960   3.594   1.860   5.265 -0.0090 -0.3631 -0.1794
  482MOL0     C64961   3.705   1.778   5.286  0.2506 -1.2502 -0.5327
  482MOL0     C64962   3.799   1.808   5.393 -0.0132 -0.0236  1.2635
  482MOL0     C64963   3.921   1.734   5.407  0.0512 -0.4064 -0.1226
  482MOL0     C64964   3.765   1.909   5.479 -0.1321  0.6340 -0.3662
  482MOL0     C64965   3.835   1.938   5.608 -0.3164 -0.7891  0.5127
  482MOL0     O64966   3.865   2.070   5.629 -0.5462 -0.1268 -0.7986
  482MOL0     C64967   3.875   2.114   5.757  1.2598 -0.9265  0.1491
  482MOL0     C64968   3.977   2.083   5.855  0.6647 -0.0470  0.2710
  482MOL0     C64969   3.993   2.150   5.974  0.0357 -0.0337  0.6753
  482MOL0     C64970   3.889   2.236   6.014 -0.3821  0.5688  0.4762
  482MOL0     O64971   3.876   2.288   6.143 -0.8115  0.1361 -0.1295
  482MOL0     C64972   3.991   2.350   6.197 -0.3725 -0.2966 -0.8257
  482MOL0     C64973   3.945   2.494   6.238 -0.5468  0.1917 -0.0095
  482MOL0     C64974   3.950   2.600   6.133 -0.0885  0.8387 -0.6436
  482MOL0     C64975   3.877   2.724   6.186  0.4325 -0.2365 -0.9926
  482MOL0     C64976   3.918   2.845   6.090  0.2617 -0.0562 -0.1536
  482MOL0     C64977   3.868   2.972   6.165  0.1167 -0.4912  0.3969
  482MOL0     C64978   3.857   3.098   6.073 -0.5477  1.1449 -0.9489
  482MOL0     C64979   3.996   3.119   6.011  0.1778 -0.6072 -0.5643
  482MOL0    Cl64980   3.976   3.270   5.932  0.5235  0.0671  0.0984
  482MOL0     C64981   3.785   2.273   5.923 -0.3334  0.5937 -0.3073
  482MOL0     C64982   3.783   2.214   5.795  0.8707  0.1466  0.7230
  482MOL0     O64983   3.860   1.850   5.697  0.2365  0.4720  0.1899
  482MOL0     C64984   3.652   1.993   5.450 -1.0866 -0.9296 -0.2154
  482MOL0     C64985   3.578   1.966   5.349  0.7280  1.0785 -0.8405
  482MOL0     N64986   3.049   1.350   5.186 -0.0559  1.0311 -0.3608
  482MOL0     N64987   2.972   1.242   5.184 -0.0503 -0.6432  0.1095
  482MOL0     C64988   2.188   1.190   5.202 -0.0585 -1.2772  0.8865
  482MOL0     C64989   2.261   1.250   5.310  0.3940  0.0205  0.5841
  482MOL0     C64990   2.558   1.284   5.646  0.3077  0.5901  0.9610
  482MOL0     C64991   2.531   1.232   5.768 -0.5020  0.9691  0.8096
  482MOL0     C64992   2.611   1.259   5.876 -0.2160  1.0291 -0.8479
  482MOL0     C64993   2.722   1.341   5.868 -0.5011 -1.0679 -0.3327
  482MOL0     O64994   2.785   1.397   5.980  0.2490 -0.2511 -0.3040
  482MOL0     C64995   2.739   1.367   6.113 -0.3757 -0.0382  0.6389
  482MOL0     C64996   2.807   1.436   6.231  0.0241 -0.0641  0.1854
  482MOL0     C64997   2.961   1.411   6.251 -0.1630  0.2834  0.0586
  482MOL0     C64998   3.007   1.468   6.386  0.7202 -0.2053 -0.0277
  482MOL0     C64999   3.150   1.471   6.396 -0.6708 -0.4229 -0.1181
  482MOL0     C65000   3.269   1.450   6.418 -0.1943 -0.0672 -0.3182
  482MOL0     C65001   2.757   1.394   5.748  0.6244  0.0613 -0.6055
  482MOL0     C65002   2.678   1.364   5.639  0.2419  0.2512  0.3228
  482MOL0     H65003   2.226   0.998   5.527  2.0787  1.5285  0.3639
  482MOL0     H65004   2.114   0.891   5.339  4.4804 -1.6253  0.8083
  482MOL0     H65005   2.101   0.821   5.139 -2.7130  2.7606  3.1014
  482MOL0     H65006   1.998   0.846   4.997 -0.9971 -1.0480  2.2366
  482MOL0     H65007   2.205   0.783   4.902  3.2543  0.5564 -0.1927
  482MOL0     H65008   2.149   0.934   4.856 -3.0700 -2.3094 -0.1682
  482MOL0     H65009   2.396   0.916   4.889 -0.1288 -0.1086  0.5129
  482MOL0     H65010   2.339   1.040   4.992  3.2934  0.3263 -1.1142
  482MOL0     H65011   2.339   0.848   5.178 -1.5208 -1.1812 -0.1041
  482MOL0     H65012   2.459   0.785   5.049 -1.8127  0.7402 -1.7620
  482MOL0     H65013   2.471   1.051   5.195  0.4025 -0.5163  1.1622
  482MOL0     H65014   2.573   0.911   5.218  0.5814 -0.6588 -2.3167
  482MOL0     H65015   2.645   0.929   4.990  1.5960  0.3708  0.3121
  482MOL0     H65016   2.566   1.084   4.976 -0.7446 -1.5141 -1.2652
  482MOL0     H65017   2.710   1.163   5.166 -0.4941 -1.0055 -0.3648
  482MOL0     H65018   2.791   1.018   5.185  0.3719  0.7832 -0.4749
  482MOL0     H65019   2.808   1.161   4.916  1.3504  0.2823 -0.0928
  482MOL0     H65020   2.922   1.044   4.980  2.7834  1.6800  0.4596
  482MOL0     H65021   2.978   1.339   4.875 -0.8494  2.4587  0.5228
  482MOL0     H65022   3.244   1.462   4.971 -0.6006 -0.3283 -0.8564
  482MOL0     H65023   3.117   1.592   4.979 -0.2031  2.7791  3.9678
  482MOL0     H65024   3.280   1.497   5.206  1.6192 -0.0019 -2.1970
  482MOL0     H65025   3.136   1.597   5.226  0.4996 -4.2237  2.0059
  482MOL0     H65026   3.257   1.766   5.059  0.4165  1.3561  0.8314
  482MOL0     H65027   3.388   1.653   5.033 -1.1242  3.2636 -1.8391
  482MOL0     H65028   3.424   1.662   5.273 -0.1112 -2.1411 -2.3369
  482MOL0     H65029   3.319   1.821   5.274  1.8991  2.6884 -1.1071
  482MOL0     H65030   3.714   1.707   5.204 -2.4275 -1.1873 -0.9555
  482MOL0     H65031   4.002   1.803   5.381 -1.3627  1.2746 -0.2278
  482MOL0     H65032   3.927   1.693   5.508  1.1048 -3.8792 -1.4615
  482MOL0     H65033   3.935   1.648   5.341 -0.3771 -0.4390 -0.1740
  482MOL0     H65034   4.053   2.007   5.841  1.5060  0.2210  2.8227
  482MOL0     H65035   4.085   2.123   6.025  0.1905 -3.3375 -1.0711
  482MOL0     H65036   4.022   2.298   6.288 -3.6891  0.8989  1.1800
  482MOL0     H65037   4.081   2.361   6.136  0.9532  1.7637  1.3464
  482MOL0     H65038   3.844   2.478   6.278 -0.6816  2.5135  0.7230
  482MOL0     H65039   4.004   2.533   6.321 -0.2970 -2.0301  0.9144
  482MOL0     H65040   3.911   2.561   6.039 -0.4191  0.6170 -0.4187
  482MOL0     H65041   4.056   2.617   6.114  0.7335 -2.0056  0.7748
  482MOL0     H65042   3.771   2.705   6.203  0.8813 -0.5318  2.1796
  482MOL0     H65043   3.906   2.747   6.289  1.2550 -0.3608 -1.1829
  482MOL0     H65044   3.862   2.842   5.997  0.9763 -0.4715 -0.5774
  482MOL0     H65045   4.024   2.846   6.062  0.1652 -0.3984 -0.5441
  482MOL0     H65046   3.766   2.944   6.192  0.5610 -1.4591  1.1382
  482MOL0     H65047   3.934   2.996   6.249  0.4351 -1.8991  0.5785
  482MOL0     H65048   3.829   3.190   6.124 -2.0892  1.7176 -2.7064
  482MOL0     H65049   3.786   3.072   5.994  0.6896  2.9614 -2.7700
  482MOL0     H65050   4.032   3.044   5.940 -1.1471 -0.2864 -1.6092
  482MOL0     H65051   4.067   3.116   6.094 -1.8443  0.2590  1.3155
  482MOL0     H65052   3.713   2.350   5.949 -0.7506  0.3847 -0.8129
  482MOL0     H65053   3.704   2.239   5.725  1.1912  3.2556  1.3588
  482MOL0     H65054   3.638   2.080   5.513  0.3212 -0.7189 -0.1755
  482MOL0     H65055   3.498   2.036   5.324  1.3128  1.4016 -1.8955
  482MOL0     H65056   2.160   1.248   5.115 -3.9770  0.5886  3.1220
  482MOL0     H65057   2.319   1.340   5.301  0.2726 -0.0891 -1.7597
  482MOL0     H65058   2.451   1.159   5.775  0.7741 -0.7102 -0.9683
  482MOL0     H65059   2.582   1.209   5.967  1.5484 -2.6340 -2.0999
  482MOL0     H65060   2.636   1.404   6.115 -1.1285 -1.8693 -1.0271
  482MOL0     H65061   2.732   1.261   6.136  0.2939 -0.4341 -0.8615
  482MOL0     H65062   2.756   1.403   6.322 -2.4061  3.8971  0.5465
  482MOL0     H65063   2.795   1.545   6.222  3.3000  0.5152  1.6126
  482MOL0     H65064   3.012   1.466   6.172  1.3066 -2.4707 -1.0268
  482MOL0     H65065   2.992   1.307   6.241 -0.8201  0.1172 -0.2859
  482MOL0     H65066   2.984   1.395   6.465  0.3276  0.0940  0.1404
  482MOL0     H65067   2.956   1.558   6.421  0.8294 -0.4310  0.7383
  482MOL0     H65068   3.371   1.444   6.449  0.3161 -1.8460 -2.1074
  482MOL0     H65069   2.834   1.470   5.742  0.1293  0.4702 -2.2370
  482MOL0     H65070   2.708   1.404   5.543 -4.2472  3.3310 -0.1391
  483MOL0     O65071  10.146   3.919  11.377  0.6902  0.4178 -0.3092
  483MOL0     C65072  10.203   3.861  11.283 -0.4030  0.0528 -0.1784
  483MOL0     O65073  10.146   3.785  11.190  0.4399  0.5147  0.4066
  483MOL0     C65074  10.035   3.716  11.225  0.2818  0.0912  0.1734
  483MOL0     C65075   9.984   3.675  11.351  0.3360 -0.2308 -0.2435
  483MOL0     C65076   9.863   3.600  11.357 -0.0666  0.4463  0.4272
  483MOL0     C65077   9.790   3.567  11.248  0.3144  0.5790  0.3616
  483MOL0     O65078   9.669   3.495  11.255  0.8842  0.6491  0.4150
  483MOL0     C65079   9.582   3.541  11.365  0.3394 -0.0163  0.2242
  483MOL0     C65080   9.432   3.536  11.327  0.0905 -0.0907 -0.3847
  483MOL0     C65081   9.401   3.626  11.208 -0.7343 -0.6759  0.2742
  483MOL0     C65082   9.256   3.622  11.168 -0.1740 -0.6958  0.2880
  483MOL0     C65083   9.224   3.712  11.044 -0.2285 -0.4149 -0.0184
  483MOL0     C65084   9.089   3.664  10.982  0.3033  0.0505  0.6192
  483MOL0     C65085   9.040   3.768  10.884  0.9146 -0.3909  0.7097
  483MOL0     C65086   8.992   3.905  10.928  0.4500 -0.2857  0.2376
  483MOL0     N65087   8.880   3.910  11.025 -0.0707 -0.0350  0.7015
  483MOL0     C65088   8.768   3.825  11.032 -1.0086  0.1982  0.4203
  483MOL0     C65089   8.674   3.888  11.112  0.1095 -0.2157 -0.3334
  483MOL0     C65090   8.526   3.848  11.154  0.1609 -0.0212 -0.0305
  483MOL0     C65091   8.414   3.918  11.071 -0.1554  0.1432  0.4867
  483MOL0     C65092   8.391   4.075  11.099 -0.2917 -0.3031  0.3323
  483MOL0     C65093   8.284   4.118  11.005 -0.2194 -0.4125  0.3755
  483MOL0     O65094   8.210   4.231  11.054  0.3607  0.2559  0.1263
  483MOL0     C65095   8.106   4.282  10.982  0.9702  0.1032 -1.3061
  483MOL0     C65096   8.048   4.393  11.042  0.7851  0.1615 -0.7819
  483MOL0     C65097   7.950   4.471  10.981  0.3281  0.5996  0.0974
  483MOL0     C65098   7.910   4.594  11.053 -0.1890  0.3406  0.7814
  483MOL0     C65099   7.892   4.421  10.852  0.0840  0.3895 -0.6540
  483MOL0     C65100   7.779   4.490  10.783 -1.0716  0.1702 -0.0811
  483MOL0     O65101   7.689   4.408  10.722  0.6379 -0.0131  0.0235
  483MOL0     C65102   7.576   4.456  10.663  0.0627 -0.5582 -0.4238
  483MOL0     C65103   7.568   4.574  10.583 -0.4310 -0.4477  0.5618
  483MOL0     C65104   7.440   4.608  10.528 -0.3066  0.2838  0.8557
  483MOL0     C65105   7.329   4.534  10.558  0.1143 -0.4585 -0.6978
  483MOL0     O65106   7.221   4.575  10.492 -0.3569 -0.0508  0.1434
  483MOL0     C65107   7.083   4.553  10.536 -0.1781 -0.7299 -0.3595
  483MOL0     C65108   6.991   4.625  10.449  0.8132 -0.2853 -0.4269
  483MOL0     C65109   6.993   4.777  10.470 -0.1783  0.1168  0.0234
  483MOL0     C65110   6.972   4.815  10.610 -0.0064 -0.1165  0.1956
  483MOL0     C65111   6.898   4.946  10.609  0.5466 -0.5026  0.3598
  483MOL0     C65112   6.890   4.995  10.759  0.2889  0.0729  1.4407
  483MOL0     C65113   6.837   5.145  10.771 -0.4821  0.0066 -0.6469
  483MOL0     C65114   6.823   5.185  10.925 -0.9525  0.7971 -0.1332
  483MOL0    Cl65115   6.771   5.352  10.928 -0.3879  0.7620 -0.3949
  483MOL0     C65116   7.332   4.425  10.641  0.1779 -0.1348  0.0258
  483MOL0     C65117   7.454   4.383  10.690  0.7984 -0.1076  0.1231
  483MOL0     O65118   7.788   4.603  10.773  0.0153  0.1765 -0.2776
  483MOL0     C65119   7.948   4.302  10.799 -0.3687 -0.3980  0.4829
  483MOL0     C65120   8.059   4.239  10.858  0.2110 -0.3912 -0.6224
  483MOL0     N65121   8.733   4.007  11.152  0.5530  0.1242  1.0216
  483MOL0     N65122   8.851   4.026  11.093 -0.5344 -0.1963  0.5938
  483MOL0     C65123   9.828   3.613  11.125 -1.0167 -0.7323 -0.0310
  483MOL0     C65124   9.951   3.686  11.117  0.0219  0.5620 -0.9165
  483MOL0     C65125  10.347   3.886  11.265  0.2607  0.2979  0.5292
  483MOL0     C65126  10.406   3.993  11.325  0.1050  0.9500 -0.1786
  483MOL0     C65127  10.540   4.013  11.307  0.4862 -0.4320 -0.8437
  483MOL0     C65128  10.619   3.943  11.216  0.1422  0.0581 -0.1667
  483MOL0     O65129  10.750   3.980  11.204 -0.1557  0.7937 -0.4079
  483MOL0     C65130  10.808   3.951  11.074 -0.1875  0.2779 -0.4826
  483MOL0     C65131  10.897   4.077  11.055  0.6514  0.1345  1.1578
  483MOL0     C65132  11.016   4.087  11.143  0.4101 -0.1824  0.3966
  483MOL0     C65133  11.103   4.207  11.112 -0.9167  0.4358 -0.4791
  483MOL0     C65134  11.219   4.214  11.206 -0.4718  0.4850  0.2016
  483MOL0     C65135  11.287   4.214  11.306 -0.0074  0.5022  0.7072
  483MOL0     C65136  10.556   3.830  11.150 -0.3467 -0.4970 -0.2994
  483MOL0     C65137  10.421   3.805  11.180 -1.0177  0.2042  0.0414
  483MOL0     H65138  10.033   3.690  11.447 -2.5918  0.4599  1.2601
  483MOL0     H65139   9.843   3.556  11.454  4.5231 -1.7092  0.6608
  483MOL0     H65140   9.590   3.468  11.446 -1.2563  0.3613  0.7508
  483MOL0     H65141   9.597   3.644  11.396 -1.6309  0.1679  0.7189
  483MOL0     H65142   9.396   3.437  11.297 -2.0757  0.4238  0.3381
  483MOL0     H65143   9.373   3.571  11.412 -2.1304  0.1751 -1.9386
  483MOL0     H65144   9.446   3.725  11.225  1.4083 -1.9538  2.8720
  483MOL0     H65145   9.462   3.573  11.134  3.1127 -0.5014  2.9990
  483MOL0     H65146   9.224   3.520  11.145  2.7500 -1.6561 -0.0188
  483MOL0     H65147   9.202   3.668  11.251 -1.1659  0.7762 -1.0986
  483MOL0     H65148   9.217   3.818  11.070 -1.1449 -0.1368 -1.3361
  483MOL0     H65149   9.303   3.718  10.969  1.4424 -3.1676  1.3215
  483MOL0     H65150   9.105   3.567  10.935 -2.1778 -1.2262  2.1788
  483MOL0     H65151   9.011   3.646  11.057 -1.2997  3.7598  0.0535
  483MOL0     H65152   9.124   3.785  10.817  0.0830  1.1588  0.0216
  483MOL0     H65153   8.956   3.715  10.840 -1.0505 -0.4565  4.1889
  483MOL0     H65154   8.959   3.970  10.846 -2.3627 -1.2690  0.4842
  483MOL0     H65155   9.072   3.959  10.978 -0.6272 -1.1549  3.0948
  483MOL0     H65156   8.759   3.732  10.976  0.8385  2.4463 -4.1117
  483MOL0     H65157   8.526   3.739  11.144 -0.2668 -0.1261  0.9817
  483MOL0     H65158   8.515   3.856  11.263 -1.8361 -5.9540  0.5693
  483MOL0     H65159   8.322   3.868  11.104  0.7993 -0.5261  2.2767
  483MOL0     H65160   8.435   3.904  10.965  1.7734  1.2199  0.6816
  483MOL0     H65161   8.485   4.130  11.088  0.2716 -1.1606  0.7490
  483MOL0     H65162   8.359   4.101  11.199  0.9080  0.2929  0.5793
  483MOL0     H65163   8.219   4.033  10.981  0.3744 -0.2102 -2.2850
  483MOL0     H65164   8.339   4.154  10.917  0.5763  1.4780  1.5820
  483MOL0     H65165   8.083   4.425  11.140  0.7072  1.8182 -1.2650
  483MOL0     H65166   7.923   4.573  11.160 -1.7574 -0.3516  0.8581
  483MOL0     H65167   7.977   4.674  11.022 -1.4908  0.8233 -0.9210
  483MOL0     H65168   7.806   4.619  11.030  0.3782  0.1325 -2.4279
  483MOL0     H65169   7.654   4.629  10.547 -1.4920  0.6156 -0.4768
  483MOL0     H65170   7.431   4.683  10.450 -0.2387 -0.8498 -0.2900
  483MOL0     H65171   7.069   4.445  10.546 -0.7837 -0.4517  3.2823
  483MOL0     H65172   7.080   4.586  10.640 -1.6865  0.7625 -0.8332
  483MOL0     H65173   6.995   4.594  10.344  0.8684 -1.2859 -0.1400
  483MOL0     H65174   6.891   4.593  10.481  0.3489  4.3622  3.9442
  483MOL0     H65175   6.931   4.829  10.396  0.1648 -1.3136 -1.3215
  483MOL0     H65176   7.092   4.818  10.449 -0.6356  0.2869 -2.0467
  483MOL0     H65177   6.897   4.750  10.657  1.3074 -1.0718  1.0203
  483MOL0     H65178   7.065   4.824  10.666  1.4949 -1.0413 -2.0159
  483MOL0     H65179   6.797   4.930  10.573  0.8147 -1.9269  0.2002
  483MOL0     H65180   6.944   5.030  10.555 -1.9815  0.7337  0.0178
  483MOL0     H65181   6.826   4.926  10.815 -1.3558 -0.4287 -0.9036
  483MOL0     H65182   6.982   4.971  10.813 -0.7680 -0.2382  3.2124
  483MOL0     H65183   6.734   5.147  10.734 -1.4409 -1.7136  1.7320
  483MOL0     H65184   6.897   5.217  10.714  0.5980  1.2980  1.9504
  483MOL0     H65185   6.908   5.171  10.992 -1.2728 -1.6557 -0.1372
  483MOL0     H65186   6.747   5.119  10.968 -1.0492  0.1023 -1.3305
  483MOL0     H65187   7.245   4.366  10.667 -1.6197  1.4426 -1.9765
  483MOL0     H65188   7.466   4.300  10.758  0.3825  3.4817  5.1939
  483MOL0     H65189   7.902   4.248  10.718 -0.2218 -1.8027  1.2977
  483MOL0     H65190   8.086   4.148  10.805  0.0711 -0.9510  0.2454
  483MOL0     H65191   9.776   3.593  11.033  1.1274 -2.4632 -0.9713
  483MOL0     H65192   9.979   3.722  11.018 -3.1738 -3.9414 -3.8737
  483MOL0     H65193  10.357   4.055  11.400  1.2480  0.7635  0.7617
  483MOL0     H65194  10.574   4.107  11.349 -1.4836 -0.4676  0.9996
  483MOL0     H65195  10.870   3.862  11.082  2.0432  1.9147  1.7029
  483MOL0     H65196  10.745   3.943  10.985  1.7746  3.6349 -2.3997
  483MOL0     H65197  10.832   4.164  11.070  1.7309  0.6326  3.1760
  483MOL0     H65198  10.935   4.079  10.952 -0.5843  0.0169  0.6745
  483MOL0     H65199  11.080   3.998  11.134  2.7494  1.5853 -2.0690
  483MOL0     H65200  10.987   4.113  11.245  0.3983  2.9788 -0.3261
  483MOL0     H65201  11.044   4.298  11.120  0.0660  0.9354  2.4128
  483MOL0     H65202  11.145   4.199  11.011  0.3055  0.1504  0.0295
  483MOL0     H65203  11.344   4.219  11.397  0.6972 -0.7155  0.3524
  483MOL0     H65204  10.609   3.769  11.077 -3.0161  0.6475 -3.4480
  483MOL0     H65205  10.381   3.713  11.139  1.3598 -3.0644  4.1938
  484MOL0     O65206   9.415   3.104   3.415  1.2660 -0.0162  0.1111
  484MOL0     C65207   9.363   3.211   3.369 -0.5194  0.4383  0.4112
  484MOL0     O65208   9.405   3.279   3.265 -0.0318  0.2016  0.2251
  484MOL0     C65209   9.503   3.238   3.183 -0.2080 -0.0392 -0.0806
  484MOL0     C65210   9.619   3.162   3.224  0.9511 -0.7862  0.0710
  484MOL0     C65211   9.712   3.130   3.126 -0.4221  0.1621  0.1704
  484MOL0     C65212   9.702   3.170   2.992  0.2599  0.7793  0.1612
  484MOL0     O65213   9.803   3.139   2.893 -0.6422  0.1968  0.5077
  484MOL0     C65214   9.919   3.058   2.931 -0.0943 -0.1645 -0.7447
  484MOL0     C65215   9.885   2.913   2.906  0.4903  0.7334 -0.8636
  484MOL0     C65216   9.995   2.819   2.964 -0.9772 -0.3000 -0.3769
  484MOL0     C65217   9.964   2.676   2.924 -0.8766  0.0467  0.5501
  484MOL0     C65218  10.068   2.565   2.971 -0.3441 -0.3454 -0.4277
  484MOL0     C65219  10.014   2.434   2.953  0.1991  0.0320  0.4219
  484MOL0     C65220  10.081   2.322   3.039  0.3474  0.0889  0.6070
  484MOL0     C65221  10.228   2.291   3.015  0.1911  0.5648 -0.0121
  484MOL0     N65222  10.260   2.167   3.073 -0.8128  0.2875  0.2588
  484MOL0     C65223  10.391   2.113   3.061 -0.4015  0.2504 -0.3554
  484MOL0     C65224  10.383   2.002   3.145 -0.0530 -0.5833 -0.4468
  484MOL0     C65225  10.493   1.898   3.135 -1.2575 -0.7984  0.2842
  484MOL0     C65226  10.538   1.835   3.282 -0.5237 -0.8134  0.0386
  484MOL0     C65227  10.644   1.927   3.352  0.4950  0.1766 -0.4448
  484MOL0     C65228  10.673   1.867   3.490 -0.1696 -0.1732  0.8307
  484MOL0     O65229  10.677   1.724   3.488 -0.1573 -0.1566 -0.0300
  484MOL0     C65230  10.808   1.688   3.488 -0.1925  0.2046  0.8272
  484MOL0     C65231  10.872   1.673   3.601 -0.9306 -0.7359  0.5065
  484MOL0     C65232  10.998   1.621   3.609 -0.7952  0.6013  0.0204
  484MOL0     C65233  11.045   1.567   3.745 -0.1886 -0.2048  0.0656
  484MOL0     C65234  11.063   1.574   3.485 -0.2446 -0.1276  0.1857
  484MOL0     C65235  11.183   1.490   3.471  1.3779  0.5939  0.5544
  484MOL0     O65236  11.189   1.390   3.384  0.1513 -0.3010  0.3540
  484MOL0     C65237  11.298   1.309   3.382 -0.0805  0.1492 -0.9106
  484MOL0     C65238  11.404   1.313   3.282 -0.7654 -0.9227  0.3654
  484MOL0     C65239  11.510   1.216   3.289 -0.1689 -0.4020  0.5628
  484MOL0     C65240  11.513   1.111   3.392 -0.1162 -0.3535 -0.5642
  484MOL0     O65241  11.626   1.034   3.386  0.0597 -0.6198  0.3194
  484MOL0     C65242  11.626   0.908   3.445 -0.1883 -0.0381 -0.0794
  484MOL0     C65243  11.757   0.840   3.414 -0.3283 -0.8222  0.9878
  484MOL0     C65244  11.846   0.873   3.534  0.2261  0.0042 -0.3895
  484MOL0     C65245  11.973   0.793   3.522 -0.0397  0.2229 -0.5014
  484MOL0     C65246  12.093   0.871   3.573 -0.5042  0.1116  0.2415
  484MOL0     C65247  12.215   0.782   3.561  0.6143  0.0295  0.0730
  484MOL0     C65248  12.322   0.852   3.640 -0.7378 -0.8150  0.6561
  484MOL0     C65249  12.361   0.992   3.591 -0.2304  0.0041 -1.0996
  484MOL0    Cl65250  12.499   1.059   3.691  0.0752 -0.0180  0.3215
  484MOL0     C65251  11.404   1.098   3.482 -0.2806  0.3872 -0.1201
  484MOL0     C65252  11.300   1.201   3.475 -0.3466  0.2424 -0.7839
  484MOL0     O65253  11.281   1.540   3.528  0.0848  0.6006  0.4731
  484MOL0     C65254  10.996   1.605   3.365 -0.4925  0.8386 -0.0689
  484MOL0     C65255  10.864   1.660   3.368 -0.4987 -0.4948  0.1810
  484MOL0     N65256  10.253   1.993   3.197  0.0389 -0.2848 -0.5607
  484MOL0     N65257  10.185   2.093   3.158  0.2527 -0.5756  0.2994
  484MOL0     C65258   9.592   3.244   2.953 -0.8731 -0.3665 -0.4113
  484MOL0     C65259   9.497   3.279   3.050  0.1075 -0.9270  0.4716
  484MOL0     C65260   9.250   3.273   3.447 -0.6156 -0.0689  0.6512
  484MOL0     C65261   9.196   3.213   3.560 -0.2638  0.6317 -0.2121
  484MOL0     C65262   9.113   3.291   3.645  1.0244  0.5090  0.1455
  484MOL0     C65263   9.061   3.414   3.611 -0.2895  0.2123 -0.0290
  484MOL0     O65264   8.966   3.468   3.686  0.3478 -0.8741  0.1570
  484MOL0     C65265   8.979   3.605   3.714 -1.1762  0.1794 -0.8314
  484MOL0     C65266   8.860   3.631   3.809  0.1115 -0.5041  0.0067
  484MOL0     C65267   8.906   3.594   3.953  0.6559 -0.1786  0.1205
  484MOL0     C65268   8.800   3.621   4.066  0.4698  0.2423 -0.4867
  484MOL0     C65269   8.851   3.566   4.185 -0.2309  0.3695  0.1996
  484MOL0     C65270   8.904   3.521   4.292  0.8102 -0.1563  0.1834
  484MOL0     C65271   9.096   3.456   3.478 -0.4536  0.0970 -0.2912
  484MOL0     C65272   9.196   3.399   3.414 -0.2132  0.0918  0.6387
  484MOL0     H65273   9.642   3.128   3.324  0.3087 -1.3876  0.0268
  484MOL0     H65274   9.804   3.101   3.177 -1.6488 -0.2746  2.2853
  484MOL0     H65275   9.995   3.088   2.858 -0.6125  2.3480 -0.3510
  484MOL0     H65276   9.954   3.075   3.034 -1.1930 -4.2097  0.4803
  484MOL0     H65277   9.788   2.882   2.945  1.0339 -1.1096 -0.8912
  484MOL0     H65278   9.879   2.899   2.797 -1.6879  2.5724 -1.0591
  484MOL0     H65279  10.096   2.851   2.937 -0.2264 -0.9668  1.4612
  484MOL0     H65280   9.993   2.825   3.074  0.0666 -0.4957 -0.3368
  484MOL0     H65281   9.867   2.649   2.966 -0.9330 -0.2378  0.2450
  484MOL0     H65282   9.953   2.652   2.818 -0.4372  1.0552  0.2657
  484MOL0     H65283  10.165   2.553   2.923  1.9342  1.7841  3.1322
  484MOL0     H65284  10.079   2.583   3.079  0.8059 -0.7975 -0.4597
  484MOL0     H65285   9.908   2.441   2.979  0.2019 -0.4295  0.5824
  484MOL0     H65286  10.026   2.401   2.850  2.1661 -0.0543  0.6427
  484MOL0     H65287  10.055   2.328   3.145 -4.0703  1.4184 -0.3006
  484MOL0     H65288  10.025   2.233   3.007  2.2616 -0.9339 -0.0438
  484MOL0     H65289  10.299   2.364   3.054  1.5190 -0.2720 -0.7964
  484MOL0     H65290  10.246   2.289   2.907 -1.5267 -1.5725 -0.3394
  484MOL0     H65291  10.469   2.129   2.987 -1.0470  1.2966 -0.8276
  484MOL0     H65292  10.466   1.818   3.065  1.8957 -1.0102 -0.8561
  484MOL0     H65293  10.573   1.942   3.075 -1.4346 -1.2038 -0.2582
  484MOL0     H65294  10.589   1.740   3.261  1.1241 -0.0109  0.1950
  484MOL0     H65295  10.453   1.817   3.348  0.7408 -0.4183  1.8656
  484MOL0     H65296  10.617   2.032   3.361  0.1753  0.0261  0.4614
  484MOL0     H65297  10.736   1.919   3.293  0.1203 -2.0262 -0.8312
  484MOL0     H65298  10.595   1.898   3.561  0.9607  3.4714  0.6808
  484MOL0     H65299  10.770   1.913   3.507 -0.1132 -0.1711  0.5011
  484MOL0     H65300  10.810   1.688   3.688  0.7341  0.1243  1.5780
  484MOL0     H65301  11.099   1.472   3.738  0.0138 -0.0120 -1.5268
  484MOL0     H65302  11.115   1.637   3.792 -1.5539  1.9843 -0.9919
  484MOL0     H65303  10.955   1.547   3.803  0.0367  1.5582  1.0916
  484MOL0     H65304  11.414   1.392   3.208  0.7026 -0.8554  0.5922
  484MOL0     H65305  11.590   1.235   3.218  1.9188  3.8256  3.6473
  484MOL0     H65306  11.594   0.918   3.549 -2.5896  1.5088 -0.8734
  484MOL0     H65307  11.543   0.850   3.405  0.5308 -1.5831  0.5764
  484MOL0     H65308  11.747   0.734   3.392  2.0366 -0.2262 -4.9574
  484MOL0     H65309  11.808   0.875   3.324 -0.3874  1.4349  1.7682
  484MOL0     H65310  11.797   0.859   3.631  0.9993  0.9958  0.1643
  484MOL0     H65311  11.862   0.981   3.529 -1.3600  0.4210  1.9247
  484MOL0     H65312  11.963   0.698   3.576  2.2477  0.7923  1.0650
  484MOL0     H65313  11.983   0.771   3.416 -3.1766  0.3314 -0.9160
  484MOL0     H65314  12.088   0.898   3.679  1.4612 -2.6727  1.1506
  484MOL0     H65315  12.118   0.959   3.512  1.4551 -0.6351 -0.1048
  484MOL0     H65316  12.195   0.681   3.598  3.7221 -1.7543 -2.5088
  484MOL0     H65317  12.239   0.776   3.454  1.7218  0.3721  0.2845
  484MOL0     H65318  12.415   0.796   3.631 -0.2787 -0.1250  1.0095
  484MOL0     H65319  12.281   0.853   3.741  1.2976 -3.2805  1.5986
  484MOL0     H65320  12.281   1.066   3.592 -1.2185 -0.8337  3.6447
  484MOL0     H65321  12.398   0.980   3.488  1.5345 -1.0418 -0.3956
  484MOL0     H65322  11.408   1.021   3.559  4.2668  0.6237  0.1145
  484MOL0     H65323  11.216   1.193   3.544 -0.7808  1.3102 -1.1574
  484MOL0     H65324  11.042   1.575   3.272  0.9234  1.0275  0.5406
  484MOL0     H65325  10.816   1.676   3.272 -1.6779 -2.6278  0.3459
  484MOL0     H65326   9.578   3.292   2.856 -0.1258  1.3967  0.3090
  484MOL0     H65327   9.418   3.343   3.012 -0.8310 -0.8726  2.4156
  484MOL0     H65328   9.228   3.114   3.592  2.7553  1.0534 -1.5142
  484MOL0     H65329   9.078   3.246   3.737  2.1624 -3.5688 -1.2060
  484MOL0     H65330   9.076   3.637   3.753 -0.7432 -1.7075 -0.2638
  484MOL0     H65331   8.963   3.670   3.627  0.8022  4.4724  1.6764
  484MOL0     H65332   8.776   3.568   3.778 -1.2623 -0.2338  2.8256
  484MOL0     H65333   8.842   3.738   3.816 -2.5925 -0.9245  0.7542
  484MOL0     H65334   8.996   3.651   3.976 -0.4271  1.9135 -0.5441
  484MOL0     H65335   8.932   3.488   3.943  0.4496 -0.0955 -1.6323
  484MOL0     H65336   8.702   3.573   4.060  1.1653 -1.4204  0.7844
  484MOL0     H65337   8.783   3.729   4.071  0.2820  0.4505 -3.4232
  484MOL0     H65338   8.956   3.505   4.384  1.1216 -0.5166 -0.0526
  484MOL0     H65339   9.045   3.547   3.450  1.1547  2.7609  4.2804
  484MOL0     H65340   9.246   3.464   3.344 -0.5947 -1.4088 -1.1087
  485MOL0     O65341   1.134   5.424  10.996  0.3849  0.9434 -0.8533
  485MOL0     C65342   1.218   5.335  11.019 -0.3626  1.1644  0.2766
  485MOL0     O65343   1.197   5.222  11.093 -0.1048  0.3994  0.0202
  485MOL0     C65344   1.091   5.202  11.173  0.2047  0.8315  0.3962
  485MOL0     C65345   1.046   5.065  11.183 -0.2836 -0.3325  0.8336
  485MOL0     C65346   0.927   5.041  11.253  0.8246 -0.1324 -0.9149
  485MOL0     C65347   0.854   5.134  11.321 -0.9083 -0.8187 -1.0685
  485MOL0     O65348   0.748   5.098  11.393 -0.4012 -0.0037  0.1339
  485MOL0     C65349   0.642   5.175  11.424  0.1138 -1.1971  0.9883
  485MOL0     C65350   0.522   5.090  11.440  0.1664  0.0561  0.2189
  485MOL0     C65351   0.406   5.119  11.339 -0.1218  0.0829  0.1155
  485MOL0     C65352   0.282   5.025  11.358 -0.3531 -1.1795  0.1774
  485MOL0     C65353   0.183   5.077  11.463 -0.3142 -0.1425  0.2093
  485MOL0     C65354   0.059   4.981  11.453 -0.0546  0.0940 -0.3861
  485MOL0     C65355  -0.048   5.023  11.552  0.4238 -0.0066  1.2396
  485MOL0     C65356  -0.168   4.935  11.532 -0.7681  0.4860  0.5804
  485MOL0     N65357  -0.262   4.952  11.638 -0.0696  0.8808 -0.8581
  485MOL0     C65358  -0.253   4.884  11.756 -0.5727  0.1828 -0.2242
  485MOL0     C65359  -0.346   4.933  11.836  0.5887 -0.1967  1.2020
  485MOL0     C65360  -0.383   4.884  11.976  0.9224 -0.3806  0.4796
  485MOL0     C65361  -0.302   4.937  12.096 -0.2630 -0.5844  0.5725
  485MOL0     C65362  -0.307   5.094  12.115  1.0434  0.5794  0.0508
  485MOL0     C65363  -0.439   5.146  12.160  0.2631  0.3992  0.4883
  485MOL0     O65364  -0.440   5.295  12.173  0.3692 -0.1564 -0.5268
  485MOL0     C65365  -0.562   5.351  12.189 -0.0068  0.4556  0.9585
  485MOL0     C65366  -0.667   5.294  12.264 -0.5666  0.3221 -0.6483
  485MOL0     C65367  -0.788   5.353  12.277 -0.0942 -0.2139  0.6647
  485MOL0     C65368  -0.902   5.286  12.349 -0.2091  0.7449 -0.0827
  485MOL0     C65369  -0.808   5.484  12.222  1.1318 -0.3134 -0.3930
  485MOL0     C65370  -0.927   5.577  12.250  0.0097 -0.4757 -0.2278
  485MOL0     O65371  -1.020   5.557  12.350  0.2767 -0.9584  0.2041
  485MOL0     C65372  -1.137   5.614  12.332 -0.4302  0.3178 -1.4693
  485MOL0     C65373  -1.225   5.554  12.255  1.4767  1.0991 -0.4966
  485MOL0     C65374  -1.358   5.604  12.255 -0.0866  0.3564  0.4763
  485MOL0     C65375  -1.402   5.711  12.331 -0.4555  0.0946  0.5119
  485MOL0     O65376  -1.532   5.762  12.317  0.0481 -0.6077 -0.6298
  485MOL0     C65377  -1.618   5.797  12.431  0.5810 -0.0915  0.1298
  485MOL0     C65378  -1.718   5.677  12.446 -0.3540 -0.3179  1.0107
  485MOL0     C65379  -1.801   5.665  12.571 -0.4023 -0.4502 -0.0944
  485MOL0     C65380  -1.898   5.785  12.590  0.5128  0.0484  0.2302
  485MOL0     C65381  -2.030   5.739  12.648 -0.4632  0.3604 -0.3661
  485MOL0     C65382  -2.015   5.702  12.798  0.0513  1.1238 -0.1114
  485MOL0     C65383  -2.134   5.630  12.851  1.6061  0.1846 -0.7187
  485MOL0     C65384  -2.254   5.729  12.849 -0.1724  0.7219 -0.6627
  485MOL0    Cl65385  -2.383   5.637  12.944  0.1940  0.3724 -0.0536
  485MOL0     C65386  -1.302   5.781  12.403 -0.0788 -0.7775  0.3023
  485MOL0     C65387  -1.175   5.734  12.405  0.7662  0.1573  0.0090
  485MOL0     O65388  -0.937   5.662  12.162 -0.0834  0.3336 -0.1433
  485MOL0     C65389  -0.708   5.534  12.144 -0.8005  0.1057  1.0158
  485MOL0     C65390  -0.583   5.472  12.120 -0.3979 -0.2188 -0.5577
  485MOL0     N65391  -0.408   5.039  11.759 -0.1622  0.1400  0.5089
  485MOL0     N65392  -0.360   5.045  11.636  0.5861 -0.3695 -0.7740
  485MOL0     C65393   0.908   5.266  11.322  0.0267 -0.2115  0.2809
  485MOL0     C65394   1.020   5.299  11.241 -0.4141 -0.5795  0.1382
  485MOL0     C65395   1.358   5.353  10.972 -0.9304  1.4067  0.5452
  485MOL0     C65396   1.400   5.478  10.922  0.5080 -0.6088 -0.1989
  485MOL0     C65397   1.528   5.503  10.902 -0.7386  0.2565  0.3110
  485MOL0     C65398   1.628   5.401  10.911 -0.5395  0.6706 -0.2245
  485MOL0     O65399   1.759   5.416  10.883 -0.0755 -0.2494 -0.6132
  485MOL0     C65400   1.784   5.518  10.789  0.3130 -0.3855  0.6878
  485MOL0     C65401   1.925   5.517  10.731 -0.0362  0.8437  0.3463
  485MOL0     C65402   2.024   5.482  10.837  0.3709 -0.6311  0.2358
  485MOL0     C65403   2.171   5.479  10.781 -0.4334  1.5124 -0.7956
  485MOL0     C65404   2.260   5.452  10.897  0.4943  0.1913 -0.0570
  485MOL0     C65405   2.332   5.468  10.994  0.4756  0.2345  0.1223
  485MOL0     C65406   1.587   5.279  10.962  0.4825 -0.7193  0.0430
  485MOL0     C65407   1.455   5.256  10.998 -0.1795  0.7839  0.3828
  485MOL0     H65408   1.102   4.988  11.131 -1.8358 -1.5117  0.8486
  485MOL0     H65409   0.893   4.939  11.269  0.0252  0.3886  1.0160
  485MOL0     H65410   0.675   5.229  11.513 -0.0093 -0.5080  0.6199
  485MOL0     H65411   0.630   5.249  11.344 -1.0190 -1.9290  0.4487
  485MOL0     H65412   0.560   4.988  11.427 -0.9808 -0.5940  1.6127
  485MOL0     H65413   0.486   5.092  11.544 -1.5680  1.0225 -0.3562
  485MOL0     H65414   0.379   5.225  11.346  2.6365  0.9091 -0.7701
  485MOL0     H65415   0.438   5.102  11.236 -0.9654  0.2603 -0.1835
  485MOL0     H65416   0.227   5.021  11.264  0.6886 -0.8570 -0.4544
  485MOL0     H65417   0.327   4.929  11.386 -0.3699 -1.1242  0.3938
  485MOL0     H65418   0.233   5.085  11.561 -1.5095  2.4672  0.6971
  485MOL0     H65419   0.144   5.175  11.435 -1.8610 -0.9310 -0.5452
  485MOL0     H65420   0.018   4.977  11.351  1.6291 -4.3068 -1.1291
  485MOL0     H65421   0.099   4.882  11.478  1.7036  1.5113  3.1334
  485MOL0     H65422  -0.002   5.016  11.651  0.1616 -0.5906  1.3199
  485MOL0     H65423  -0.071   5.126  11.523  2.4048  0.6907  1.9422
  485MOL0     H65424  -0.135   4.831  11.533 -1.1292  0.2998 -1.7773
  485MOL0     H65425  -0.226   4.948  11.440 -0.5163 -1.0826  0.1813
  485MOL0     H65426  -0.180   4.807  11.780  1.9999  3.1068  2.2057
  485MOL0     H65427  -0.485   4.921  11.992  1.1194 -0.9178  3.7927
  485MOL0     H65428  -0.383   4.774  11.972 -1.4977 -0.5129  2.0162
  485MOL0     H65429  -0.198   4.910  12.077 -0.8939 -0.8812 -3.4110
  485MOL0     H65430  -0.334   4.887  12.187  1.5878 -3.5368 -0.2700
  485MOL0     H65431  -0.283   5.144  12.020 -2.3557  0.7978 -0.8364
  485MOL0     H65432  -0.233   5.125  12.190  0.9233  0.6982  0.1212
  485MOL0     H65433  -0.459   5.089  12.251 -2.1376 -0.7754 -0.6729
  485MOL0     H65434  -0.520   5.116  12.093 -0.2894  1.0392  0.8657
  485MOL0     H65435  -0.653   5.206  12.325 -1.4156 -0.0763 -1.0202
  485MOL0     H65436  -0.879   5.181  12.371 -3.1229  0.2297  0.9282
  485MOL0     H65437  -0.892   5.324  12.451 -1.4043 -3.0172  1.5995
  485MOL0     H65438  -1.001   5.290  12.304 -0.5184  3.1389  0.6506
  485MOL0     H65439  -1.216   5.467  12.191  0.2452  1.3245 -1.0056
  485MOL0     H65440  -1.427   5.546  12.195  1.2285 -1.0284  0.2390
  485MOL0     H65441  -1.570   5.807  12.529 -3.4077 -0.7441  2.3558
  485MOL0     H65442  -1.660   5.895  12.408  0.7209  0.0831  0.6110
  485MOL0     H65443  -1.790   5.691  12.364  1.1760  0.2459 -0.2778
  485MOL0     H65444  -1.661   5.585  12.431 -0.4056 -0.0250 -1.4481
  485MOL0     H65445  -1.729   5.673  12.652  2.5075  0.1940 -2.5456
  485MOL0     H65446  -1.851   5.567  12.571 -1.1122 -0.1020 -1.0317
  485MOL0     H65447  -1.851   5.865  12.648 -0.9205  1.5370 -0.5767
  485MOL0     H65448  -1.918   5.831  12.493  3.5814 -0.4284 -0.7257
  485MOL0     H65449  -2.074   5.657  12.590  1.2735 -1.6499  1.0297
  485MOL0     H65450  -2.099   5.824  12.650  0.4250  1.0910  1.3953
  485MOL0     H65451  -1.932   5.631  12.809 -2.1286 -1.9111 -1.7738
  485MOL0     H65452  -1.989   5.788  12.861  2.2102  0.1459  0.4215
  485MOL0     H65453  -2.123   5.597  12.955 -0.3613 -2.5762 -1.2624
  485MOL0     H65454  -2.151   5.539  12.793  0.8646  1.3993 -2.4675
  485MOL0     H65455  -2.292   5.757  12.751 -0.6017  1.3112 -0.3292
  485MOL0     H65456  -2.225   5.823  12.897  0.3395  1.7755 -2.9031
  485MOL0     H65457  -1.333   5.869  12.458  0.7596 -1.3826  1.7918
  485MOL0     H65458  -1.100   5.794  12.455  0.6945  2.0551 -1.9893
  485MOL0     H65459  -0.704   5.629  12.091  4.2457  0.4343  1.4679
  485MOL0     H65460  -0.508   5.525  12.063 -1.0506  0.0701 -1.1520
  485MOL0     H65461   0.846   5.341  11.370 -1.9355 -2.4731  1.5681
  485MOL0     H65462   1.050   5.403  11.235 -0.5446 -0.5437  0.1076
  485MOL0     H65463   1.323   5.554  10.909  0.3858 -0.9010 -1.2409
  485MOL0     H65464   1.542   5.606  10.872 -1.0501  0.1687 -0.1498
  485MOL0     H65465   1.711   5.509  10.708 -2.1866 -2.1324  2.9460
  485MOL0     H65466   1.763   5.618  10.828  1.6410  0.4842 -0.7036
  485MOL0     H65467   1.956   5.601  10.669 -1.5886 -1.2214 -3.5850
  485MOL0     H65468   1.917   5.433  10.661  0.5151  1.7431 -0.8273
  485MOL0     H65469   2.000   5.390  10.890  2.1909  0.1617  2.6458
  485MOL0     H65470   2.025   5.563  10.910 -0.7008  1.1998 -1.6522
  485MOL0     H65471   2.204   5.581  10.760  0.0065  0.8422 -3.6858
  485MOL0     H65472   2.170   5.405  10.701 -1.6872  3.3971 -2.6263
  485MOL0     H65473   2.401   5.470  11.075 -0.5144 -2.7719  1.1776
  485MOL0     H65474   1.670   5.213  10.984  0.9206  0.3387  1.7526
  485MOL0     H65475   1.432   5.155  11.030 -0.3909  0.2578 -1.3472
  486MOL0     O65476  10.966  11.409   5.611 -0.8099  0.2513 -0.8538
  486MOL0     C65477  10.940  11.477   5.512 -0.0272 -0.6792 -0.0459
  486MOL0     O65478  11.030  11.522   5.422  0.2212 -0.1875 -0.0595
  486MOL0     C65479  11.159  11.480   5.440 -1.0635 -0.2833  0.2195
  486MOL0     C65480  11.241  11.553   5.539  0.2501 -0.7951  0.2957
  486MOL0     C65481  11.379  11.523   5.543  0.3189 -0.4608  0.3982
  486MOL0     C65482  11.436  11.434   5.453 -0.1394 -0.0587  0.8698
  486MOL0     O65483  11.573  11.403   5.465 -0.5882 -0.3829  0.4498
  486MOL0     C65484  11.634  11.316   5.368 -0.1993 -0.3708  0.1622
  486MOL0     C65485  11.780  11.280   5.410 -0.1500 -0.4565  0.0686
  486MOL0     C65486  11.861  11.415   5.422 -0.0516  0.5422  0.4963
  486MOL0     C65487  11.989  11.388   5.505 -0.4445 -0.3776 -0.3451
  486MOL0     C65488  12.071  11.513   5.510 -0.0100  0.1010 -0.5827
  486MOL0     C65489  12.145  11.535   5.370  0.4526 -0.3463 -0.3178
  486MOL0     C65490  12.260  11.642   5.398 -0.7221 -0.7973  0.3503
  486MOL0     C65491  12.342  11.667   5.270  0.4222 -0.6036 -0.3312
  486MOL0     N65492  12.412  11.796   5.254 -0.6488  0.6561  0.2569
  486MOL0     C65493  12.531  11.817   5.179  0.6549  0.4883  0.0211
  486MOL0     C65494  12.552  11.949   5.172 -0.2963 -0.3924 -0.0907
  486MOL0     C65495  12.673  12.010   5.094  0.5284 -0.1038 -1.0531
  486MOL0     C65496  12.767  12.089   5.186 -0.3578  0.6403 -0.5045
  486MOL0     C65497  12.909  12.110   5.133  0.4629 -0.6233  1.5071
  486MOL0     C65498  12.993  12.184   5.245 -0.0012  0.2948 -0.1726
  486MOL0     O65499  13.108  12.246   5.187  0.7625 -0.2627  0.8161
  486MOL0     C65500  13.175  12.180   5.093  0.1368 -0.1137  0.0594
  486MOL0     C65501  13.204  12.259   4.986 -0.7565 -0.1688 -0.1557
  486MOL0     C65502  13.273  12.209   4.865  0.3669  0.1215 -0.5970
  486MOL0     C65503  13.274  12.310   4.751 -0.4634  0.2154 -1.0703
  486MOL0     C65504  13.325  12.072   4.867 -0.5041  0.3886  0.0087
  486MOL0     C65505  13.401  12.001   4.763 -0.3573  0.4437  0.8409
  486MOL0     O65506  13.429  12.079   4.650  0.4661 -0.4876 -0.5634
  486MOL0     C65507  13.541  12.053   4.566  0.2286 -0.1436  0.2693
  486MOL0     C65508  13.541  12.135   4.452  0.2074 -0.1326  0.7146
  486MOL0     C65509  13.659  12.136   4.376 -0.1202 -0.5891  0.0177
  486MOL0     C65510  13.769  12.045   4.395  0.8206  0.3228  0.7994
  486MOL0     O65511  13.864  12.034   4.302 -1.0027  0.0390 -0.2734
  486MOL0     C65512  13.833  12.076   4.164  0.2600 -0.8510 -0.9258
  486MOL0     C65513  13.904  11.999   4.064 -0.3966 -0.3338  1.2106
  486MOL0     C65514  13.866  11.848   4.074 -0.7981 -1.0559 -0.0520
  486MOL0     C65515  13.966  11.767   3.996  0.1988  0.5286 -0.9548
  486MOL0     C65516  13.911  11.633   3.974 -0.0098  0.6585  0.2931
  486MOL0     C65517  13.833  11.611   3.843 -0.8000 -0.2682 -0.5910
  486MOL0     C65518  13.808  11.455   3.827  0.3374 -0.4286  0.7022
  486MOL0     C65519  13.673  11.426   3.750  0.6236  0.1580 -0.2118
  486MOL0    Cl65520  13.692  11.469   3.575  0.1220  0.6768  0.1221
  486MOL0     C65521  13.761  11.963   4.502  0.1675  0.3778 -0.6822
  486MOL0     C65522  13.654  11.967   4.589  0.4669 -0.6668 -0.6985
  486MOL0     O65523  13.449  11.888   4.784 -0.3086 -0.3471 -0.1756
  486MOL0     C65524  13.288  11.991   4.982  0.5084  0.0513  1.0574
  486MOL0     C65525  13.215  12.049   5.090 -0.5647  0.2583  1.0954
  486MOL0     N65526  12.449  12.005   5.248  1.0657  0.0518 -0.7053
  486MOL0     N65527  12.360  11.917   5.292  0.0803  0.4101  0.5995
  486MOL0     C65528  11.355  11.372   5.352 -0.8762 -0.1387 -0.2574
  486MOL0     C65529  11.220  11.400   5.343 -0.1085  0.5246 -0.5688
  486MOL0     C65530  10.799  11.502   5.484 -0.1020 -0.1338  0.9790
  486MOL0     C65531  10.705  11.506   5.592 -0.1379  0.1886 -0.1802
  486MOL0     C65532  10.567  11.531   5.579 -1.1671  0.6341  0.5326
  486MOL0     C65533  10.520  11.568   5.456  0.5689  0.4044  0.0186
  486MOL0     O65534  10.398  11.628   5.448 -0.6710  0.1042 -0.4484
  486MOL0     C65535  10.306  11.616   5.558  0.3640 -0.0178  0.1793
  486MOL0     C65536  10.170  11.693   5.542 -0.2736 -0.5603  0.2582
  486MOL0     C65537  10.182  11.846   5.521  0.2823 -0.4003 -0.3585
  486MOL0     C65538  10.041  11.905   5.531  0.1717  0.0709 -0.9098
  486MOL0     C65539  10.048  12.051   5.540 -0.5186  0.0868  0.8616
  486MOL0     C65540  10.045  12.174   5.534 -0.2969 -0.4674  0.2956
  486MOL0     C65541  10.606  11.586   5.350 -0.6141  0.3631  0.4012
  486MOL0     C65542  10.741  11.543   5.363  0.3309  0.2661 -0.7807
  486MOL0     H65543  11.197  11.622   5.611 -0.1246 -1.2260  0.4887
  486MOL0     H65544  11.447  11.577   5.608 -2.0227  0.3264  2.3230
  486MOL0     H65545  11.579  11.221   5.368  0.0430 -0.5173  1.2045
  486MOL0     H65546  11.628  11.360   5.268  1.6152  0.7677  0.5066
  486MOL0     H65547  11.788  11.242   5.512  0.2942  2.8088  1.3871
  486MOL0     H65548  11.815  11.210   5.334 -1.4810 -1.0030 -0.0647
  486MOL0     H65549  11.889  11.452   5.323 -1.1908 -1.0540 -0.4666
  486MOL0     H65550  11.808  11.499   5.468 -0.0726  0.1794  1.1373
  486MOL0     H65551  11.962  11.373   5.610 -0.6682  1.8654 -0.0257
  486MOL0     H65552  12.051  11.305   5.469  2.6620  1.1164  1.1892
  486MOL0     H65553  12.000  11.595   5.520  1.4684  1.2543  1.0666
  486MOL0     H65554  12.134  11.508   5.599 -2.8411 -3.3522  1.4865
  486MOL0     H65555  12.198  11.448   5.331  2.2784  1.2623 -1.5872
  486MOL0     H65556  12.071  11.573   5.299 -2.9925 -2.7938  1.6087
  486MOL0     H65557  12.220  11.738   5.432 -1.8094 -1.5847  1.4038
  486MOL0     H65558  12.325  11.599   5.475 -1.1569 -0.5177  0.8862
  486MOL0     H65559  12.273  11.666   5.185 -0.4205  1.2877  0.2717
  486MOL0     H65560  12.414  11.585   5.267  1.7644  0.1946  3.6370
  486MOL0     H65561  12.580  11.739   5.123  0.4475  0.0144  0.4921
  486MOL0     H65562  12.728  11.932   5.041 -0.0063 -0.4036 -1.1782
  486MOL0     H65563  12.627  12.081   5.024  1.5173  1.6126 -0.0170
  486MOL0     H65564  12.775  12.041   5.284  4.5043  0.2521 -0.8384
  486MOL0     H65565  12.720  12.185   5.206 -1.2160 -0.0127  0.7462
  486MOL0     H65566  12.907  12.183   5.051  0.6108 -2.6054 -0.3604
  486MOL0     H65567  12.953  12.017   5.095 -0.9205 -0.3485 -0.9832
  486MOL0     H65568  13.022  12.126   5.333 -0.1144 -1.3447 -1.1933
  486MOL0     H65569  12.925  12.261   5.283  0.6784  0.9193 -0.1887
  486MOL0     H65570  13.164  12.359   4.978 -3.0381 -0.8928  1.3600
  486MOL0     H65571  13.264  12.262   4.653 -2.4447  1.1442 -1.3729
  486MOL0     H65572  13.200  12.390   4.752  1.0993  1.7343  0.5278
  486MOL0     H65573  13.372  12.359   4.753  0.5323 -1.6289  1.4119
  486MOL0     H65574  13.456  12.200   4.435  1.7740  2.1247  0.9189
  486MOL0     H65575  13.667  12.206   4.293  1.9012 -1.2857 -0.4353
  486MOL0     H65576  13.726  12.080   4.141  0.6913  0.9143 -2.8973
  486MOL0     H65577  13.867  12.179   4.153  0.7258 -0.7626  1.0135
  486MOL0     H65578  13.874  12.039   3.967  4.7979 -1.0292 -0.9663
  486MOL0     H65579  14.012  12.013   4.072  0.0307  1.7157 -4.2174
  486MOL0     H65580  13.771  11.827   4.024  0.3976  0.9730 -3.4760
  486MOL0     H65581  13.857  11.815   4.178  0.8056 -1.0293  0.1160
  486MOL0     H65582  14.006  11.812   3.904  0.1944  1.2228 -0.6221
  486MOL0     H65583  14.048  11.744   4.064 -2.7846 -4.6981  1.4933
  486MOL0     H65584  13.848  11.604   4.059 -1.0868  2.7490  0.2708
  486MOL0     H65585  13.992  11.560   3.969 -0.3059  0.4245 -2.2754
  486MOL0     H65586  13.737  11.661   3.857 -0.9102 -1.0031  1.8654
  486MOL0     H65587  13.889  11.652   3.758  1.2609  0.7768  1.1610
  486MOL0     H65588  13.796  11.410   3.926 -0.0300  0.3001  1.0007
  486MOL0     H65589  13.891  11.416   3.768 -0.1941 -0.0820 -0.3065
  486MOL0     H65590  13.596  11.493   3.789 -2.4514 -3.0195 -0.2535
  486MOL0     H65591  13.635  11.323   3.760  0.6227 -0.0905 -2.3707
  486MOL0     H65592  13.846  11.899   4.525 -0.1756  0.1395 -0.0434
  486MOL0     H65593  13.656  11.905   4.678 -1.4051  1.2727  0.8001
  486MOL0     H65594  13.320  11.888   4.977  3.2025  0.8190 -3.5877
  486MOL0     H65595  13.209  11.986   5.178 -2.5752  0.2624  1.0201
  486MOL0     H65596  11.396  11.299   5.283  1.7983  1.8408 -0.9517
  486MOL0     H65597  11.161  11.364   5.260 -3.1859 -1.7575  2.3274
  486MOL0     H65598  10.745  11.488   5.692  0.7010 -0.2968 -0.5966
  486MOL0     H65599  10.510  11.547   5.671 -0.6526  0.3163  0.9124
  486MOL0     H65600  10.276  11.512   5.572 -0.5624  0.3338  0.9014
  486MOL0     H65601  10.344  11.672   5.644 -0.8967  3.7093 -1.4727
  486MOL0     H65602  10.109  11.689   5.633  0.1831  2.6780  0.8016
  486MOL0     H65603  10.121  11.654   5.452  0.3404 -0.5846 -0.0741
  486MOL0     H65604  10.228  11.885   5.430 -3.2096  1.2974 -1.5674
  486MOL0     H65605  10.237  11.884   5.608  0.5072  2.0592 -1.4840
  486MOL0     H65606   9.996  11.868   5.624  4.2979 -1.0824  0.8237
  486MOL0     H65607   9.978  11.885   5.444  0.4720 -1.0365 -0.8843
  486MOL0     H65608  10.045  12.281   5.531 -2.4168 -0.3421  2.2200
  486MOL0     H65609  10.583  11.629   5.253  0.1432 -1.4399 -0.6238
  486MOL0     H65610  10.810  11.553   5.280 -0.3094  0.1030 -1.3380
  487MOL0     O65611   5.003   0.370   4.947  0.9576  0.5562  0.2053
  487MOL0     C65612   5.024   0.473   5.005 -0.3520 -0.6479  0.3653
  487MOL0     O65613   5.136   0.553   5.000  0.1201  0.4910  0.6545
  487MOL0     C65614   5.255   0.518   4.934 -0.3092 -0.4099  0.3810
  487MOL0     C65615   5.366   0.564   4.995  0.1997  0.6156 -0.5568
  487MOL0     C65616   5.488   0.524   4.959 -0.4457  0.1345  0.2316
  487MOL0     C65617   5.515   0.433   4.857  0.9543 -0.8307 -0.1749
  487MOL0     O65618   5.651   0.421   4.838 -0.0301  0.6531  0.3981
  487MOL0     C65619   5.683   0.350   4.717  0.1093  0.4003 -0.8938
  487MOL0     C65620   5.835   0.351   4.696 -0.1364  0.6802  0.4290
  487MOL0     C65621   5.897   0.486   4.713  1.3405  0.5466 -0.5367
  487MOL0     C65622   6.051   0.464   4.702  0.4893  0.5000  0.0728
  487MOL0     C65623   6.125   0.592   4.731  0.0086 -0.7726 -0.3480
  487MOL0     C65624   6.107   0.662   4.868  0.3622  0.0910 -0.4560
  487MOL0     C65625   6.103   0.576   4.991 -0.4405 -0.1982  0.2052
  487MOL0     C65626   6.090   0.667   5.116  0.4431  0.8209  0.0693
  487MOL0     N65627   6.122   0.587   5.231  0.2203 -0.0969 -0.1005
  487MOL0     C65628   6.104   0.453   5.262  0.0946  0.5446 -0.1081
  487MOL0     C65629   6.132   0.449   5.396 -0.0771 -0.1914  0.6361
  487MOL0     C65630   6.130   0.333   5.499  0.3772  0.6698  0.5246
  487MOL0     C65631   6.159   0.189   5.437  0.6664 -0.1987 -0.4927
  487MOL0     C65632   6.168   0.088   5.552 -0.0082  0.1110  0.7828
  487MOL0     C65633   6.035   0.035   5.609  0.5317 -0.4263 -0.4438
  487MOL0     O65634   5.929   0.042   5.509 -0.1086 -0.4580  0.4064
  487MOL0     C65635   5.860  -0.065   5.467  0.6680 -0.9521  0.6691
  487MOL0     C65636   5.791  -0.153   5.562  0.6047  0.4456  1.0390
  487MOL0     C65637   5.712  -0.260   5.516  0.2441 -0.0623 -0.1981
  487MOL0     C65638   5.646  -0.341   5.622 -0.0434 -0.2577 -0.2745
  487MOL0     C65639   5.698  -0.285   5.379  0.1613 -0.3283  0.6193
  487MOL0     C65640   5.616  -0.401   5.322 -0.0272 -0.3868  0.7728
  487MOL0     O65641   5.581  -0.391   5.190  0.0053  0.2711 -0.2769
  487MOL0     C65642   5.548  -0.505   5.114 -0.1083 -0.7818 -0.1412
  487MOL0     C65643   5.453  -0.488   5.017 -0.0382  0.1949 -0.4591
  487MOL0     C65644   5.398  -0.605   4.954 -0.3665 -0.5502  0.2511
  487MOL0     C65645   5.466  -0.725   4.966 -0.2728  0.0101  0.7172
  487MOL0     O65646   5.439  -0.817   4.866 -0.5583 -0.3106 -0.1354
  487MOL0     C65647   5.475  -0.958   4.906 -0.4504  0.5736 -0.8545
  487MOL0     C65648   5.413  -1.064   4.805 -0.2037  0.3829  0.1618
  487MOL0     C65649   5.489  -1.049   4.669 -0.4090  0.4176 -0.2833
  487MOL0     C65650   5.452  -1.137   4.551  1.3551  0.1171  0.5369
  487MOL0     C65651   5.325  -1.079   4.487 -0.9083 -0.3794  0.2978
  487MOL0     C65652   5.285  -1.150   4.361 -0.1843 -0.7645  0.6886
  487MOL0     C65653   5.159  -1.117   4.295  0.1698  0.0972 -0.8452
  487MOL0     C65654   5.046  -1.204   4.354 -0.0966  0.9557  0.0635
  487MOL0    Cl65655   4.990  -1.121   4.494 -0.6664 -0.0921  0.0981
  487MOL0     C65656   5.568  -0.742   5.057  0.3341  0.2171 -0.1675
  487MOL0     C65657   5.602  -0.635   5.135 -0.4793 -0.2587 -0.1725
  487MOL0     O65658   5.595  -0.501   5.386  0.3721  0.2113  0.6019
  487MOL0     C65659   5.761  -0.192   5.281  0.7214  0.2671 -0.1441
  487MOL0     C65660   5.836  -0.082   5.331  0.6189 -0.3061  0.8158
  487MOL0     N65661   6.164   0.581   5.443 -0.3671 -0.8242  0.6233
  487MOL0     N65662   6.159   0.655   5.339  0.1597 -0.7961  0.1836
  487MOL0     C65663   5.402   0.378   4.793  0.3268 -0.2433 -0.0638
  487MOL0     C65664   5.273   0.427   4.821  0.3257  0.1834 -0.0061
  487MOL0     C65665   4.916   0.532   5.081 -0.6100 -0.1244 -0.2353
  487MOL0     C65666   4.936   0.647   5.157 -0.1392  0.8837 -0.5553
  487MOL0     C65667   4.832   0.708   5.234 -0.6055  0.5473 -0.7740
  487MOL0     C65668   4.706   0.660   5.232 -0.5440 -0.5178  0.1267
  487MOL0     O65669   4.602   0.698   5.310  0.5315 -0.8414 -0.8786
  487MOL0     C65670   4.541   0.819   5.266  1.0644  0.1131  0.4851
  487MOL0     C65671   4.598   0.945   5.326 -0.0260  0.0800  0.8537
  487MOL0     C65672   4.657   0.924   5.466  0.1291  0.4634 -0.2582
  487MOL0     C65673   4.748   1.035   5.524  0.3983 -0.0535  0.3095
  487MOL0     C65674   4.676   1.161   5.551 -0.2821 -0.1895 -0.8916
  487MOL0     C65675   4.606   1.258   5.549 -0.6272 -1.5952 -0.5096
  487MOL0     C65676   4.675   0.558   5.138 -0.7927  0.7868 -0.0726
  487MOL0     C65677   4.782   0.484   5.073 -0.1877 -0.2459 -0.5094
  487MOL0     H65678   5.358   0.625   5.085  0.3653 -0.9905  0.5998
  487MOL0     H65679   5.570   0.578   5.006 -1.0798  1.1702  0.1636
  487MOL0     H65680   5.649   0.247   4.717 -1.2798  0.7378  2.5415
  487MOL0     H65681   5.630   0.388   4.629 -1.8226  0.2336  0.1616
  487MOL0     H65682   5.888   0.277   4.757 -1.7173 -3.4752 -2.7131
  487MOL0     H65683   5.857   0.316   4.595  0.0870 -0.1699  0.7610
  487MOL0     H65684   5.860   0.562   4.644 -1.0357  1.4486  1.5714
  487MOL0     H65685   5.872   0.513   4.816 -2.2061  1.5160 -1.5093
  487MOL0     H65686   6.089   0.382   4.763  0.7342 -0.4785 -1.3456
  487MOL0     H65687   6.089   0.445   4.601 -1.7346 -1.1939 -0.5262
  487MOL0     H65688   6.232   0.583   4.708 -0.3207 -0.6793 -2.0226
  487MOL0     H65689   6.098   0.671   4.661  5.0850  2.7231  1.0059
  487MOL0     H65690   6.188   0.730   4.896 -0.9491  0.8339  1.7465
  487MOL0     H65691   6.018   0.724   4.879  0.8950  0.6919  0.5778
  487MOL0     H65692   6.025   0.500   4.979 -0.4959 -0.2645  0.9640
  487MOL0     H65693   6.198   0.521   4.996  0.7345  1.1705 -3.4422
  487MOL0     H65694   5.984   0.692   5.126  0.2796  0.3424 -0.4608
  487MOL0     H65695   6.156   0.755   5.116 -0.5353  1.6112  1.6860
  487MOL0     H65696   6.063   0.376   5.199 -1.2187  0.6750  0.5479
  487MOL0     H65697   6.211   0.346   5.571  0.5794 -0.7991  0.5948
  487MOL0     H65698   6.026   0.333   5.532 -0.7824 -1.6055 -2.5738
  487MOL0     H65699   6.254   0.202   5.386  2.6640  1.3190  3.2426
  487MOL0     H65700   6.081   0.162   5.365 -0.3057 -1.0951  0.8264
  487MOL0     H65701   6.230   0.134   5.630  1.8051  0.6389 -0.8893
  487MOL0     H65702   6.225   0.004   5.511  4.7528  2.5171  1.7549
  487MOL0     H65703   6.005   0.092   5.697 -2.1138  0.8801 -2.0942
  487MOL0     H65704   6.040  -0.070   5.641  2.1427 -0.0505  0.6638
  487MOL0     H65705   5.813  -0.141   5.667  0.7826  1.9512  0.8542
  487MOL0     H65706   5.537  -0.335   5.620  0.0105  2.4080  0.9205
  487MOL0     H65707   5.675  -0.446   5.613  0.6145 -0.0769 -0.3028
  487MOL0     H65708   5.682  -0.315   5.721  1.5813  1.2554 -1.2018
  487MOL0     H65709   5.413  -0.390   4.990  0.2231  0.0302 -1.4936
  487MOL0     H65710   5.319  -0.581   4.884 -0.9920 -0.6143  0.9188
  487MOL0     H65711   5.584  -0.972   4.911 -0.4275  0.2598 -2.1393
  487MOL0     H65712   5.421  -0.969   5.001 -1.5147 -0.6052 -1.5785
  487MOL0     H65713   5.425  -1.161   4.856  1.2323 -0.7890 -2.2546
  487MOL0     H65714   5.307  -1.046   4.785 -0.1016  1.5753  0.6381
  487MOL0     H65715   5.591  -1.080   4.694 -0.1239  1.1523 -0.4933
  487MOL0     H65716   5.482  -0.947   4.629 -0.4302  0.4124 -0.2941
  487MOL0     H65717   5.539  -1.153   4.487 -0.0387  0.3768 -1.5072
  487MOL0     H65718   5.424  -1.234   4.593  1.9963 -0.7912 -1.0453
  487MOL0     H65719   5.337  -0.974   4.458 -0.3431 -1.2146 -2.9308
  487MOL0     H65720   5.245  -1.092   4.560 -1.7678  0.4541 -0.4521
  487MOL0     H65721   5.359  -1.111   4.291 -0.3818 -0.7161  0.5067
  487MOL0     H65722   5.300  -1.258   4.364 -0.8760 -0.8644  0.6762
  487MOL0     H65723   5.171  -1.128   4.187  1.2515  1.2077 -0.8620
  487MOL0     H65724   5.138  -1.010   4.310  1.1514  0.3176 -1.0198
  487MOL0     H65725   5.075  -1.305   4.386 -2.5037  0.0615 -0.3335
  487MOL0     H65726   4.968  -1.216   4.278  1.9782  4.0019 -2.8682
  487MOL0     H65727   5.618  -0.835   5.082  2.2006  0.5593 -2.3205
  487MOL0     H65728   5.678  -0.650   5.211 -1.2440  2.8574  1.4056
  487MOL0     H65729   5.759  -0.208   5.174  0.1376 -2.4260  0.2066
  487MOL0     H65730   5.884  -0.019   5.257 -0.1057  0.5464  1.0460
  487MOL0     H65731   5.413   0.307   4.712 -2.0398 -1.3240  0.4797
  487MOL0     H65732   5.184   0.386   4.775 -0.5592  1.6045  0.3660
  487MOL0     H65733   5.038   0.680   5.168  0.2496  0.1121 -1.7486
  487MOL0     H65734   4.860   0.786   5.304  0.2141 -1.8848  1.7984
  487MOL0     H65735   4.542   0.829   5.157 -0.9235  0.4467  0.4678
  487MOL0     H65736   4.435   0.810   5.292  0.6730 -1.9270 -1.5376
  487MOL0     H65737   4.530   1.030   5.328 -0.1863 -0.0212  3.3318
  487MOL0     H65738   4.682   0.981   5.266 -2.1746 -0.4247 -2.7473
  487MOL0     H65739   4.720   0.835   5.456 -1.5402 -0.9752  1.2450
  487MOL0     H65740   4.577   0.899   5.537  0.9127  0.6987  0.7390
  487MOL0     H65741   4.818   1.061   5.443 -2.2569  0.9306 -1.8491
  487MOL0     H65742   4.806   1.011   5.613  1.3900  3.6751  0.8363
  487MOL0     H65743   4.561   1.354   5.562  0.1897 -1.1283 -1.0209
  487MOL0     H65744   4.573   0.524   5.122 -0.3537 -0.2172 -0.7973
  487MOL0     H65745   4.760   0.392   5.019  1.0231 -0.7510 -0.1784
  488MOL0     O65746   1.876   3.546  11.154 -0.6035  0.3926 -0.7871
  488MOL0     C65747   1.803   3.448  11.131  0.0321  0.4814  0.1709
  488MOL0     O65748   1.835   3.327  11.163  0.3067 -0.1334  0.2519
  488MOL0     C65749   1.919   3.291  11.263 -1.1677 -0.7588 -0.8136
  488MOL0     C65750   1.986   3.370  11.354 -0.1491 -0.0441 -0.5114
  488MOL0     C65751   2.076   3.307  11.449  0.1381 -1.3119  0.3536
  488MOL0     C65752   2.097   3.171  11.451 -0.0037 -0.9112 -0.7952
  488MOL0     O65753   2.199   3.121  11.534 -0.6419  0.0719  0.3519
  488MOL0     C65754   2.241   2.987  11.538  0.2827  0.1869 -0.5512
  488MOL0     C65755   2.282   2.959  11.687  0.0902  0.2014  0.0788
  488MOL0     C65756   2.157   2.930  11.774 -1.0134 -0.3893 -0.0377
  488MOL0     C65757   2.216   2.892  11.912  0.2946  0.1751 -1.0736
  488MOL0     C65758   2.120   2.839  12.016 -0.7558  0.0279  0.2303
  488MOL0     C65759   2.048   2.712  11.974 -0.6303  0.1432 -0.9032
  488MOL0     C65760   2.137   2.591  11.947 -0.0022  0.4531  0.1071
  488MOL0     C65761   2.049   2.465  11.946 -0.0685 -0.0044  0.3135
  488MOL0     N65762   2.132   2.345  11.909 -0.6002  0.7044 -0.7713
  488MOL0     C65763   2.225   2.286  11.994  0.5926  0.3450  1.7308
  488MOL0     C65764   2.282   2.182  11.917 -0.4438 -0.4304  0.7363
  488MOL0     C65765   2.390   2.090  11.965 -0.4435 -0.1146 -0.1432
  488MOL0     C65766   2.531   2.150  11.999 -0.0249 -0.0004  1.1400
  488MOL0     C65767   2.634   2.049  12.015 -0.0484  0.8174 -0.6296
  488MOL0     C65768   2.760   2.141  12.054 -1.6533  0.0324  0.4467
  488MOL0     O65769   2.822   2.226  11.950 -0.0998 -0.3047 -0.2949
  488MOL0     C65770   2.878   2.171  11.836  0.1066 -0.9888 -0.0533
  488MOL0     C65771   2.888   2.037  11.797 -0.0710  0.3481  0.3302
  488MOL0     C65772   2.953   1.998  11.671 -0.8084 -0.1257  0.2793
  488MOL0     C65773   2.976   1.852  11.647  0.1834 -0.2374  1.0741
  488MOL0     C65774   2.987   2.101  11.579 -0.5223 -1.7235  0.8722
  488MOL0     C65775   3.031   2.076  11.442 -0.7908 -0.2670  0.2272
  488MOL0     O65776   3.043   2.197  11.363 -0.2525  0.4281  0.3752
  488MOL0     C65777   3.113   2.183  11.241  1.1181  0.7263  0.8016
  488MOL0     C65778   3.048   2.203  11.117 -0.0549 -0.4843  0.0522
  488MOL0     C65779   3.127   2.196  11.000 -0.4770  0.7447 -0.1127
  488MOL0     C65780   3.256   2.155  10.997 -1.1478 -0.4670 -0.4178
  488MOL0     O65781   3.332   2.150  10.882  0.1546  0.4297  0.7339
  488MOL0     C65782   3.283   2.167  10.742 -0.7920 -0.1655 -0.4072
  488MOL0     C65783   3.399   2.135  10.640  0.3293  0.9765 -0.0568
  488MOL0     C65784   3.362   2.189  10.500 -0.4294  0.0233 -0.1886
  488MOL0     C65785   3.468   2.132  10.410  0.8278  0.5394  0.4445
  488MOL0     C65786   3.442   2.176  10.262  0.2151 -0.2804 -0.8917
  488MOL0     C65787   3.527   2.105  10.157 -0.2040  0.5635 -0.7098
  488MOL0     C65788   3.676   2.131  10.182 -0.3473  0.1916 -0.9731
  488MOL0     C65789   3.761   2.128  10.056 -0.0300  0.2835 -0.3495
  488MOL0    Cl65790   3.701   2.226   9.908  0.1988  0.1680  0.4169
  488MOL0     C65791   3.324   2.126  11.119  0.5387 -0.3951  0.4250
  488MOL0     C65792   3.247   2.148  11.238 -0.5765 -0.3078 -1.3112
  488MOL0     O65793   3.061   1.966  11.407  0.1334  0.0684 -0.2229
  488MOL0     C65794   2.975   2.235  11.629 -1.2533  0.1948  0.0745
  488MOL0     C65795   2.928   2.272  11.752 -0.2476 -0.8802  0.2049
  488MOL0     N65796   2.210   2.171  11.800  0.1053  0.4764 -0.3238
  488MOL0     N65797   2.117   2.262  11.798 -0.1161  0.5164 -0.5247
  488MOL0     C65798   2.013   3.095  11.366 -0.2222  0.3176  0.3454
  488MOL0     C65799   1.935   3.154  11.267  0.6431 -0.4366 -0.2125
  488MOL0     C65800   1.680   3.472  11.044 -0.4747  0.2550  0.4283
  488MOL0     C65801   1.600   3.366  11.002 -0.1498  0.1781 -0.3375
  488MOL0     C65802   1.483   3.383  10.936  0.3939  0.2065  0.2396
  488MOL0     C65803   1.446   3.508  10.892  0.2672  0.2257 -0.5875
  488MOL0     O65804   1.343   3.527  10.806 -0.0231  0.2784 -0.6451
  488MOL0     C65805   1.229   3.435  10.802  0.4196  0.1603  1.0108
  488MOL0     C65806   1.106   3.480  10.719  0.6646 -0.1676  0.2275
  488MOL0     C65807   1.148   3.478  10.572  0.2832  0.2572  0.0850
  488MOL0     C65808   1.021   3.501  10.489 -0.0383 -0.3348  0.8455
  488MOL0     C65809   0.986   3.642  10.487  0.4145  0.0986 -0.0485
  488MOL0     C65810   0.946   3.759  10.467  0.3209 -0.3407  0.2088
  488MOL0     C65811   1.522   3.614  10.937  0.7496  0.1862 -0.0269
  488MOL0     C65812   1.638   3.597  11.007 -0.9389  0.3879 -1.3838
  488MOL0     H65813   1.984   3.479  11.347  0.4976 -0.0048 -0.1797
  488MOL0     H65814   2.128   3.372  11.519 -0.4347  1.0489 -1.2657
  488MOL0     H65815   2.167   2.914  11.502 -1.6676  1.8126 -0.0043
  488MOL0     H65816   2.330   2.971  11.477  1.2668 -0.0481  0.8896
  488MOL0     H65817   2.344   2.868  11.690 -1.5175 -0.9861 -0.7341
  488MOL0     H65818   2.341   3.041  11.728  0.9725  0.3512 -1.3978
  488MOL0     H65819   2.089   3.015  11.770  0.0058  0.4102 -1.1126
  488MOL0     H65820   2.099   2.843  11.742 -1.9051  0.0595  0.3304
  488MOL0     H65821   2.292   2.818  11.886 -0.6367 -0.0995 -3.2363
  488MOL0     H65822   2.260   2.977  11.965  2.3992 -2.7661  2.2949
  488MOL0     H65823   2.191   2.801  12.090  1.6857  1.4969 -1.2304
  488MOL0     H65824   2.051   2.916  12.052 -2.6794 -0.6252 -1.8368
  488MOL0     H65825   1.980   2.681  12.054 -5.3649  1.7444 -3.9168
  488MOL0     H65826   1.988   2.733  11.885 -1.4122  3.1353  0.2023
  488MOL0     H65827   2.183   2.598  11.847  1.7088 -0.4707  0.7870
  488MOL0     H65828   2.218   2.571  12.017  2.9103  0.0348 -3.0750
  488MOL0     H65829   1.988   2.476  11.856  1.7798 -1.0312 -1.1342
  488MOL0     H65830   2.003   2.458  12.046  1.0785  0.0832  0.8637
  488MOL0     H65831   2.246   2.320  12.095  0.8098  0.6331  1.5884
  488MOL0     H65832   2.364   2.045  12.062 -0.7635  1.1361  0.3720
  488MOL0     H65833   2.403   2.010  11.892  1.8593  0.1894 -0.1366
  488MOL0     H65834   2.515   2.199  12.095  0.1801  1.7997  0.3049
  488MOL0     H65835   2.567   2.211  11.915 -3.0798 -4.2715 -3.9372
  488MOL0     H65836   2.649   1.982  11.930  1.5434  1.0025 -0.5279
  488MOL0     H65837   2.609   1.985  12.100 -0.0834 -1.3001 -2.1720
  488MOL0     H65838   2.835   2.070  12.091 -1.7662  0.2526  1.1195
  488MOL0     H65839   2.743   2.212  12.136  1.0983  2.3625 -0.8379
  488MOL0     H65840   2.871   1.953  11.863 -0.3053  0.6451  0.6453
  488MOL0     H65841   3.085   1.840  11.645  0.2707  0.6083  0.7253
  488MOL0     H65842   2.947   1.792  11.734 -2.0324 -2.5253 -1.0753
  488MOL0     H65843   2.924   1.807  11.562  2.5131  0.1982 -0.6797
  488MOL0     H65844   2.945   2.234  11.126  0.6423  1.9047  0.3239
  488MOL0     H65845   3.070   2.229  10.913 -2.4899 -1.1191  0.3945
  488MOL0     H65846   3.199   2.099  10.726 -1.4134  0.3813  0.4636
  488MOL0     H65847   3.237   2.264  10.718 -2.5469 -0.8900 -0.1200
  488MOL0     H65848   3.496   2.179  10.665  1.7663  0.0131 -3.3153
  488MOL0     H65849   3.409   2.026  10.633 -0.8717  0.9446 -1.9951
  488MOL0     H65850   3.367   2.299  10.503 -2.0302  0.1349 -0.4428
  488MOL0     H65851   3.259   2.167  10.469 -0.6772  2.5809 -1.4659
  488MOL0     H65852   3.565   2.156  10.455  1.2554 -1.4606  0.6537
  488MOL0     H65853   3.446   2.026  10.398 -2.6161  1.4236 -3.0770
  488MOL0     H65854   3.451   2.285  10.262  0.3655 -0.2911 -0.5689
  488MOL0     H65855   3.336   2.155  10.244  0.5378 -2.0415 -0.8308
  488MOL0     H65856   3.516   1.997  10.167 -0.1704  0.5222 -1.0906
  488MOL0     H65857   3.491   2.127  10.056 -0.0556 -0.0754 -0.9018
  488MOL0     H65858   3.723   2.069  10.259  1.5853 -2.2498 -3.8477
  488MOL0     H65859   3.676   2.231  10.226  0.1205 -0.6829  1.1067
  488MOL0     H65860   3.764   2.023  10.025 -4.6416  0.3667 -1.8212
  488MOL0     H65861   3.865   2.150  10.084  0.4259  0.3896 -2.0446
  488MOL0     H65862   3.431   2.107  11.112 -0.0128 -4.0411 -0.1199
  488MOL0     H65863   3.291   2.158  11.337  0.6531 -0.1057 -1.8531
  488MOL0     H65864   3.010   2.322  11.574 -0.2375  0.3210  0.8951
  488MOL0     H65865   2.914   2.378  11.774 -1.7421 -1.1694  0.7213
  488MOL0     H65866   2.014   2.987  11.352  2.1035  0.1405  1.4735
  488MOL0     H65867   1.880   3.084  11.205  1.6472 -2.5304  1.1374
  488MOL0     H65868   1.626   3.267  11.037  1.9550 -0.7176 -3.8887
  488MOL0     H65869   1.434   3.290  10.906  2.2265 -0.4642 -0.8493
  488MOL0     H65870   1.254   3.334  10.768  3.2821  1.6898 -1.9949
  488MOL0     H65871   1.190   3.401  10.898 -0.7225 -1.6645 -0.0443
  488MOL0     H65872   1.071   3.579  10.751 -2.5320 -1.3572  0.7529
  488MOL0     H65873   1.018   3.416  10.719  2.1401 -2.2910 -0.5698
  488MOL0     H65874   1.200   3.388  10.536  1.1188  0.1733  1.4132
  488MOL0     H65875   1.210   3.566  10.553  0.2932  0.6635  1.8472
  488MOL0     H65876   0.932   3.451  10.527 -1.8182  2.3708  0.5820
  488MOL0     H65877   1.045   3.460  10.390  0.8020  0.2710  0.7830
  488MOL0     H65878   0.899   3.854  10.450 -0.8200 -0.7841  0.7922
  488MOL0     H65879   1.500   3.715  10.904  4.1175  0.6457 -1.2278
  488MOL0     H65880   1.703   3.682  11.027 -1.6615  1.1759 -2.3117
  489MOL0     O65881   1.199  11.313   2.187  0.3765  0.1407 -0.0216
  489MOL0     C65882   1.220  11.432   2.207 -0.4636 -1.2164 -0.1465
  489MOL0     O65883   1.274  11.478   2.320 -0.5136  0.5124  0.2240
  489MOL0     C65884   1.362  11.404   2.397  0.9961 -0.4553 -1.2268
  489MOL0     C65885   1.485  11.371   2.350  0.2024 -0.0045 -0.2464
  489MOL0     C65886   1.556  11.288   2.429  0.1583  0.5897  0.3196
  489MOL0     C65887   1.519  11.230   2.553 -1.1592  0.7205  0.1579
  489MOL0     O65888   1.608  11.159   2.630  0.5415 -0.2985 -0.3203
  489MOL0     C65889   1.579  11.123   2.771  0.9876  0.3599  0.2087
  489MOL0     C65890   1.698  11.085   2.866 -0.1439  0.0345  0.4199
  489MOL0     C65891   1.709  11.188   2.977 -0.0545 -0.6147 -0.1985
  489MOL0     C65892   1.844  11.175   3.048  1.2973  0.7602 -0.2244
  489MOL0     C65893   1.845  11.275   3.165  0.3187  0.0718  0.0002
  489MOL0     C65894   1.972  11.245   3.249 -0.1281  0.5748 -1.0293
  489MOL0     C65895   1.976  11.303   3.387  0.0798  0.8455 -0.3321
  489MOL0     C65896   1.862  11.293   3.483 -0.4288  0.0515 -0.8843
  489MOL0     N65897   1.834  11.149   3.515 -0.9078 -0.3372  0.5024
  489MOL0     C65898   1.892  11.083   3.615  0.6581  0.3424  0.5534
  489MOL0     C65899   1.840  10.958   3.596  0.3790  0.0544 -1.0091
  489MOL0     C65900   1.895  10.844   3.674  0.2390 -0.0590  0.4689
  489MOL0     C65901   2.047  10.810   3.654  0.5984  0.3994  0.3716
  489MOL0     C65902   2.087  10.786   3.517  0.3801 -0.7956  0.7458
  489MOL0     C65903   2.052  10.644   3.478 -0.2229  0.1783 -0.4017
  489MOL0     O65904   2.099  10.596   3.355  0.4419  0.0676 -0.4934
  489MOL0     C65905   2.025  10.637   3.253 -0.4957 -0.1747  0.8499
  489MOL0     C65906   1.901  10.712   3.257 -0.1143  0.6242  0.2217
  489MOL0     C65907   1.830  10.747   3.139 -0.8373 -0.1858 -0.1248
  489MOL0     C65908   1.696  10.812   3.154 -0.0426  0.0874  1.1142
  489MOL0     C65909   1.893  10.722   3.016 -0.3225  0.4120 -0.6654
  489MOL0     C65910   1.828  10.754   2.888  0.8740  0.2948 -0.2266
  489MOL0     O65911   1.695  10.728   2.867 -0.5261 -0.1115  0.0746
  489MOL0     C65912   1.631  10.729   2.743 -0.2898  0.9473 -0.9400
  489MOL0     C65913   1.506  10.766   2.740 -0.4972 -0.1193 -0.3052
  489MOL0     C65914   1.433  10.770   2.621 -0.0193 -0.5120 -0.1089
  489MOL0     C65915   1.475  10.728   2.495 -0.4433 -0.3112  0.4010
  489MOL0     O65916   1.406  10.719   2.375  0.3590  0.0177 -0.2433
  489MOL0     C65917   1.293  10.802   2.354 -0.1940  0.6389 -0.3981
  489MOL0     C65918   1.229  10.756   2.234 -0.2564 -0.2699 -0.3794
  489MOL0     C65919   1.315  10.794   2.119  0.7416  0.0196 -0.1814
  489MOL0     C65920   1.299  10.938   2.079  0.6051 -1.7779 -0.1905
  489MOL0     C65921   1.210  10.943   1.950  0.1332 -0.3823 -0.3201
  489MOL0     C65922   1.168  11.089   1.912  0.7014 -0.3860  0.5500
  489MOL0     C65923   1.083  11.073   1.780  0.0111 -0.1071  0.8697
  489MOL0     C65924   1.024  11.212   1.734 -1.0606  1.2029 -0.0718
  489MOL0    Cl65925   0.895  11.300   1.836 -0.3807  0.5582  0.2266
  489MOL0     C65926   1.608  10.676   2.505  0.1681  0.0870  0.0396
  489MOL0     C65927   1.685  10.677   2.626 -0.4335  0.9638 -0.7043
  489MOL0     O65928   1.892  10.835   2.814  0.0936 -0.0368 -0.1605
  489MOL0     C65929   2.010  10.651   3.007 -0.3707 -0.8514 -0.9985
  489MOL0     C65930   2.072  10.605   3.121  0.6067  0.2841  0.6616
  489MOL0     N65931   1.758  10.951   3.491 -0.2808 -0.4542 -0.0916
  489MOL0     N65932   1.763  11.067   3.437  0.1073 -0.6410 -0.3098
  489MOL0     C65933   1.387  11.254   2.599  0.1567 -0.3171 -0.4720
  489MOL0     C65934   1.309  11.338   2.519  0.1876  0.4374  0.6516
  489MOL0     C65935   1.152  11.531   2.118 -0.6801  0.1941 -0.1761
  489MOL0     C65936   1.073  11.489   2.017 -0.2977  0.1218  0.3774
  489MOL0     C65937   1.016  11.589   1.935  0.0698  0.6503  0.3780
  489MOL0     C65938   1.050  11.725   1.948  0.3551 -0.2107  0.7292
  489MOL0     O65939   0.978  11.809   1.864 -0.1871  0.7739 -0.1422
  489MOL0     C65940   1.027  11.938   1.846 -0.2001  0.4963 -0.3451
  489MOL0     C65941   0.949  12.018   1.734 -0.9271 -0.2322 -0.6236
  489MOL0     C65942   1.046  12.135   1.683  0.2998 -1.1486  0.5965
  489MOL0     C65943   0.973  12.232   1.584  0.0182  0.3982  1.0721
  489MOL0     C65944   0.948  12.170   1.457  0.2190 -0.7583 -0.8137
  489MOL0     C65945   0.922  12.136   1.340  0.4810  0.1398  0.1465
  489MOL0     C65946   1.124  11.761   2.059 -0.4830  0.2666  0.1044
  489MOL0     C65947   1.185  11.667   2.138  0.1762  0.3391 -0.0478
  489MOL0     H65948   1.526  11.421   2.263  2.2854 -2.1805 -0.6325
  489MOL0     H65949   1.656  11.259   2.397  1.2102  1.2761  2.7342
  489MOL0     H65950   1.522  11.204   2.815  1.2020 -0.3833  1.9060
  489MOL0     H65951   1.515  11.038   2.746 -2.1195  3.5228 -4.1539
  489MOL0     H65952   1.681  10.987   2.910  1.3582 -0.5177 -0.1941
  489MOL0     H65953   1.791  11.100   2.811  1.1185 -0.6490  2.2642
  489MOL0     H65954   1.700  11.286   2.929  0.3529 -0.0362  0.8766
  489MOL0     H65955   1.621  11.174   3.040 -1.1986  4.2457 -0.3238
  489MOL0     H65956   1.853  11.075   3.090  0.0967 -0.6631 -3.0714
  489MOL0     H65957   1.927  11.184   2.978  0.9937 -1.7868 -1.0166
  489MOL0     H65958   1.867  11.376   3.128  3.4177 -0.1910  0.8337
  489MOL0     H65959   1.749  11.269   3.216  0.2702 -1.8265 -0.2399
  489MOL0     H65960   1.996  11.140   3.268 -1.0254  1.0451  3.7473
  489MOL0     H65961   2.061  11.285   3.199  0.8250 -2.9459 -2.4887
  489MOL0     H65962   2.057  11.250   3.438  0.9344 -2.0147 -4.1606
  489MOL0     H65963   2.002  11.408   3.371  2.0458  0.6359  1.1196
  489MOL0     H65964   1.779  11.351   3.443  1.3541  0.1899 -4.8150
  489MOL0     H65965   1.888  11.338   3.580 -3.2495 -1.2259  0.5851
  489MOL0     H65966   1.968  11.117   3.685 -0.6765 -0.5165  2.5309
  489MOL0     H65967   1.870  10.858   3.780  0.4359 -0.6454  0.5946
  489MOL0     H65968   1.843  10.757   3.634  1.5255  0.7281 -3.3552
  489MOL0     H65969   2.074  10.725   3.717 -1.3437  1.0742  2.2521
  489MOL0     H65970   2.104  10.893   3.697 -2.2171  1.9363  1.4495
  489MOL0     H65971   2.189  10.820   3.496 -0.4510  2.9068  1.8005
  489MOL0     H65972   2.025  10.857   3.461  0.0476 -2.7246 -1.4820
  489MOL0     H65973   1.946  10.631   3.500 -0.0859  0.0758  0.2153
  489MOL0     H65974   2.098  10.569   3.543  1.6229  0.5026 -1.2781
  489MOL0     H65975   1.860  10.754   3.348 -1.7913  2.3437 -1.2266
  489MOL0     H65976   1.613  10.757   3.108  1.2882 -0.8460 -0.2234
  489MOL0     H65977   1.682  10.829   3.262 -1.3866  2.4338  0.6581
  489MOL0     H65978   1.698  10.915   3.115  0.2555  0.4267  1.9994
  489MOL0     H65979   1.476  10.789   2.841  0.6273  0.8472 -0.1791
  489MOL0     H65980   1.332  10.808   2.629  1.2080  2.5592  2.9059
  489MOL0     H65981   1.224  10.799   2.440 -0.2725 -1.2291 -0.4724
  489MOL0     H65982   1.327  10.905   2.358  1.6964  0.0329  0.6568
  489MOL0     H65983   1.189  10.655   2.239 -3.1869  0.6884 -1.9266
  489MOL0     H65984   1.141  10.821   2.235 -0.9464 -1.1795  0.5155
  489MOL0     H65985   1.294  10.726   2.036 -0.7235 -3.5694  2.8355
  489MOL0     H65986   1.419  10.772   2.148 -0.0703 -2.7301  1.0277
  489MOL0     H65987   1.254  10.992   2.163 -0.4048 -0.3269 -1.5865
  489MOL0     H65988   1.386  11.001   2.064 -1.5482  2.4859  2.9433
  489MOL0     H65989   1.118  10.889   1.975 -1.1887  1.0411 -1.8938
  489MOL0     H65990   1.262  10.899   1.864  0.6071  0.9966 -0.7752
  489MOL0     H65991   1.120  11.130   2.001 -0.2894  2.9851 -1.3627
  489MOL0     H65992   1.249  11.161   1.896  1.4066 -1.0998  0.8363
  489MOL0     H65993   1.001  11.002   1.796  0.3324  0.0281  3.6453
  489MOL0     H65994   1.156  11.032   1.709 -3.5194 -2.1794 -1.9143
  489MOL0     H65995   0.980  11.202   1.634  2.1149 -2.4420 -1.3260
  489MOL0     H65996   1.111  11.279   1.735  1.2457 -1.6080 -0.5775
  489MOL0     H65997   1.652  10.636   2.414 -0.9522 -2.9569  0.7276
  489MOL0     H65998   1.789  10.647   2.617 -1.2237 -1.3373 -4.7526
  489MOL0     H65999   2.058  10.645   2.910  1.9476  0.7098 -0.0378
  489MOL0     H66000   2.161  10.545   3.105  0.4250  0.1225  0.2304
  489MOL0     H66001   1.349  11.223   2.696  1.1422 -0.4828 -0.1268
  489MOL0     H66002   1.207  11.354   2.553  0.5454 -0.2296  2.0968
  489MOL0     H66003   1.055  11.382   2.008  1.3912 -0.2100  0.4127
  489MOL0     H66004   0.939  11.561   1.864  0.7982 -1.8003  0.4630
  489MOL0     H66005   1.038  11.998   1.937 -1.9432  0.2949  0.0317
  489MOL0     H66006   1.128  11.915   1.812  0.3717  3.0788 -0.5779
  489MOL0     H66007   0.860  12.051   1.788  0.6154 -2.0329  3.3846
  489MOL0     H66008   0.928  11.952   1.649 -1.8662 -1.1795  0.3035
  489MOL0     H66009   1.142  12.099   1.646 -0.8510 -3.2851 -0.4789
  489MOL0     H66010   1.065  12.201   1.768 -0.2795  1.0473 -0.8814
  489MOL0     H66011   1.037  12.319   1.568  1.0011 -0.6756 -1.2655
  489MOL0     H66012   0.872  12.268   1.608 -1.6284 -1.0128 -2.9293
  489MOL0     H66013   0.909  12.121   1.235 -1.0981  2.5479 -0.0933
  489MOL0     H66014   1.130  11.864   2.092 -1.2415  0.4743 -0.3908
  489MOL0     H66015   1.247  11.697   2.222 -0.6814 -2.4687  1.7013
  490MOL0     O66016   1.493  11.093   8.077 -0.1034  0.0297  0.1752
  490MOL0     C66017   1.526  10.978   8.112 -1.1809 -0.7613 -0.3293
  490MOL0     O66018   1.647  10.914   8.077  0.3218 -1.3697 -0.6006
  490MOL0     C66019   1.700  10.948   7.957  0.0079 -0.4184  1.4806
  490MOL0     C66020   1.796  11.050   7.935  0.5390  0.6549 -0.5178
  490MOL0     C66021   1.828  11.094   7.806 -0.1073 -0.3224  0.0063
  490MOL0     C66022   1.763  11.048   7.693  0.4175 -0.9040 -0.1304
  490MOL0     O66023   1.800  11.104   7.572  0.2420 -0.0192  0.2393
  490MOL0     C66024   1.712  11.093   7.459 -0.1221 -0.3662  1.7857
  490MOL0     C66025   1.768  11.176   7.346  0.0789 -0.1491 -0.2929
  490MOL0     C66026   1.790  11.324   7.401 -1.3622 -0.3639  0.1488
  490MOL0     C66027   1.821  11.425   7.289 -0.6247  0.1692 -0.4343
  490MOL0     C66028   1.963  11.414   7.227  0.0269  0.6917  0.3850
  490MOL0     C66029   1.994  11.534   7.142 -0.7117 -1.2847  0.6775
  490MOL0     C66030   2.146  11.530   7.104  0.3700 -1.4163  0.4104
  490MOL0     C66031   2.158  11.444   6.980 -0.0843  0.9367  0.2509
  490MOL0     N66032   2.291  11.443   6.911 -0.0119  0.2461  0.5321
  490MOL0     C66033   2.411  11.482   6.973  0.8028  0.7699 -0.5138
  490MOL0     C66034   2.498  11.476   6.877  0.2461  0.3541  0.2502
  490MOL0     C66035   2.640  11.487   6.913 -0.3267 -0.0625  0.5367
  490MOL0     C66036   2.714  11.358   6.898  0.2679 -0.2565 -1.4649
  490MOL0     C66037   2.860  11.381   6.933 -0.1726  0.3990 -0.3203
  490MOL0     C66038   2.948  11.243   6.921  0.1119  0.0589  0.6312
  490MOL0     O66039   2.928  11.167   7.043  0.0088  0.4040  0.4301
  490MOL0     C66040   3.000  11.201   7.161 -0.2199 -0.1059 -0.4585
  490MOL0     C66041   2.953  11.137   7.280  0.2588  0.2013  0.4043
  490MOL0     C66042   3.024  11.146   7.398 -0.6997 -0.6391 -0.2775
  490MOL0     C66043   2.978  11.081   7.522  0.5136  0.6157  0.0879
  490MOL0     C66044   3.139  11.231   7.400 -0.6574 -0.1983 -0.3070
  490MOL0     C66045   3.225  11.262   7.522  0.5993 -0.0332  0.4298
  490MOL0     O66046   3.362  11.266   7.514  0.9426 -0.0602 -0.2509
  490MOL0     C66047   3.439  11.335   7.587  0.9258  0.0284  0.4992
  490MOL0     C66048   3.572  11.312   7.576 -0.6545  0.6593 -0.0072
  490MOL0     C66049   3.660  11.379   7.661  0.3185 -0.1529  1.2344
  490MOL0     C66050   3.607  11.476   7.761  0.7135  0.7846 -0.7946
  490MOL0     O66051   3.677  11.526   7.868 -0.0385 -0.2762 -0.8250
  490MOL0     C66052   3.811  11.477   7.882 -0.3804  0.5739  0.1727
  490MOL0     C66053   3.891  11.522   8.011 -0.2039  0.5506  0.4709
  490MOL0     C66054   3.893  11.675   8.036  0.1080  0.0396 -0.7013
  490MOL0     C66055   3.952  11.697   8.179 -0.0323  0.4158  0.7980
  490MOL0     C66056   4.094  11.733   8.167 -0.0124  1.0684  0.5716
  490MOL0     C66057   4.139  11.779   8.299  0.3938  0.1586 -0.0414
  490MOL0     C66058   4.283  11.826   8.303 -0.2298 -0.7423  0.2901
  490MOL0     C66059   4.290  11.960   8.373  0.0423 -0.5133  0.3743
  490MOL0    Cl66060   4.454  12.031   8.369 -0.5997 -0.1545 -0.0544
  490MOL0     C66061   3.475  11.504   7.759  0.2441 -0.3948  0.6503
  490MOL0     C66062   3.394  11.443   7.671  0.0340  0.0496  0.3893
  490MOL0     O66063   3.160  11.293   7.625 -0.0796 -0.1242  0.5505
  490MOL0     C66064   3.182  11.294   7.284 -1.1920  0.1501  0.0251
  490MOL0     C66065   3.114  11.279   7.165 -0.3285 -0.4062  0.1751
  490MOL0     N66066   2.443  11.425   6.767  0.1046  0.9593 -0.1568
  490MOL0     N66067   2.323  11.392   6.790  0.9695  0.3636  0.1439
  490MOL0     C66068   1.652  10.964   7.709 -1.0789  0.0883  0.5695
  490MOL0     C66069   1.629  10.913   7.840  0.2145 -0.3821 -0.0377
  490MOL0     C66070   1.454  10.925   8.222  0.0986  0.5045  0.4169
  490MOL0     C66071   1.498  10.808   8.290  0.1783 -0.4691 -0.9629
  490MOL0     C66072   1.419  10.740   8.381 -0.3115  0.0099  0.3837
  490MOL0     C66073   1.296  10.789   8.414  1.1123 -0.5426  0.2037
  490MOL0     O66074   1.231  10.718   8.515 -0.2425 -0.1151  0.3295
  490MOL0     C66075   1.098  10.753   8.558 -0.2373 -0.4806 -0.1320
  490MOL0     C66076   1.029  10.646   8.643 -0.1973  0.2659  0.9525
  490MOL0     C66077   1.011  10.507   8.577 -0.0205 -0.2051  0.8074
  490MOL0     C66078   1.003  10.388   8.673  0.2938 -0.4646  0.2686
  490MOL0     C66079   0.912  10.409   8.784 -0.6306 -0.1118 -0.0279
  490MOL0     C66080   0.826  10.425   8.866 -0.3191 -0.2151 -0.1831
  490MOL0     C66081   1.245  10.916   8.357 -0.4669 -0.7219 -0.3516
  490MOL0     C66082   1.329  10.987   8.260 -0.1603 -0.1783  0.7811
  490MOL0     H66083   1.852  11.081   8.024  2.1703  2.9564 -2.1958
  490MOL0     H66084   1.913  11.161   7.799  0.0866 -0.3211  1.7559
  490MOL0     H66085   1.711  10.988   7.428  0.6705 -0.0084  0.4941
  490MOL0     H66086   1.613  11.121   7.495  0.1317  1.2639  1.3265
  490MOL0     H66087   1.866  11.127   7.334  0.0766 -0.9739  2.2765
  490MOL0     H66088   1.709  11.180   7.254  1.5724  0.9956 -1.2411
  490MOL0     H66089   1.699  11.351   7.455 -1.2796  0.4310 -0.0944
  490MOL0     H66090   1.876  11.319   7.467  1.6486  1.2713 -3.2846
  490MOL0     H66091   1.743  11.415   7.213 -3.1383  4.8567  1.1295
  490MOL0     H66092   1.817  11.520   7.344  1.8105 -1.1051  2.1840
  490MOL0     H66093   2.038  11.402   7.306  0.3123  1.8040  0.2996
  490MOL0     H66094   1.966  11.321   7.169  2.1254  1.7639 -1.4394
  490MOL0     H66095   1.940  11.545   7.048  3.3923 -0.1747 -1.7569
  490MOL0     H66096   1.974  11.630   7.192  1.3021 -0.4903  0.0546
  490MOL0     H66097   2.190  11.627   7.079  1.9518 -2.4207 -1.0209
  490MOL0     H66098   2.193  11.494   7.196 -0.7150 -1.0517  1.1187
  490MOL0     H66099   2.097  11.473   6.894  0.9060  1.0394 -0.4352
  490MOL0     H66100   2.126  11.342   7.006 -0.3858  0.3721 -2.1272
  490MOL0     H66101   2.421  11.526   7.072  0.3013  3.3953 -1.5542
  490MOL0     H66102   2.680  11.561   6.844 -1.3719 -0.0334 -0.0573
  490MOL0     H66103   2.651  11.522   7.016 -0.9553  3.5931 -0.5048
  490MOL0     H66104   2.715  11.313   6.799  1.4160  1.2402 -2.1686
  490MOL0     H66105   2.677  11.283   6.969  0.7045 -0.7881 -1.7940
  490MOL0     H66106   2.863  11.420   7.036 -0.2911  0.0029 -0.1644
  490MOL0     H66107   2.914  11.458   6.878  2.5272 -0.0717  1.4627
  490MOL0     H66108   3.054  11.264   6.901  0.5211 -2.0345  0.4353
  490MOL0     H66109   2.913  11.187   6.834 -0.6661  1.4089  0.0382
  490MOL0     H66110   2.854  11.092   7.269 -0.0433  0.9462  0.0157
  490MOL0     H66111   3.010  11.133   7.613  1.3225 -0.2792  0.3285
  490MOL0     H66112   2.869  11.074   7.521  0.4206  1.0392  2.2734
  490MOL0     H66113   3.027  10.983   7.523  0.8943  0.8080  0.7442
  490MOL0     H66114   3.592  11.245   7.493 -1.4996  1.8739 -1.2082
  490MOL0     H66115   3.763  11.350   7.649  0.2805  0.4781 -1.1088
  490MOL0     H66116   3.820  11.368   7.880  4.3797  0.6301  3.0579
  490MOL0     H66117   3.866  11.509   7.793 -0.2673 -1.6383 -0.6126
  490MOL0     H66118   3.856  11.469   8.100 -0.9181  2.0572  1.1327
  490MOL0     H66119   3.994  11.491   7.995 -0.5398 -0.2799 -0.1683
  490MOL0     H66120   3.792  11.716   8.034  0.1989  0.5880  1.8742
  490MOL0     H66121   3.951  11.720   7.955  1.1820  2.0063  1.0534
  490MOL0     H66122   3.907  11.788   8.220 -2.7333 -0.1991 -0.5776
  490MOL0     H66123   3.924  11.624   8.255 -2.5962  1.5142  0.9995
  490MOL0     H66124   4.100  11.803   8.084 -1.3398  0.1402 -0.3567
  490MOL0     H66125   4.134  11.637   8.132  0.3626  1.9453 -1.5682
  490MOL0     H66126   4.068  11.854   8.336 -0.3554 -0.4867 -0.1444
  490MOL0     H66127   4.134  11.693   8.368  0.3013  0.4194  0.2810
  490MOL0     H66128   4.314  11.845   8.200 -2.5957 -1.0406 -0.5364
  490MOL0     H66129   4.353  11.760   8.356 -0.3961 -1.4235 -0.3173
  490MOL0     H66130   4.266  11.958   8.480 -0.6392  3.1626  0.4161
  490MOL0     H66131   4.218  12.026   8.324 -0.0093  0.1782  1.3418
  490MOL0     H66132   3.425  11.578   7.820  0.3275 -0.6945  1.0835
  490MOL0     H66133   3.296  11.488   7.670 -0.1189 -0.2168 -2.2643
  490MOL0     H66134   3.276  11.349   7.292 -2.8976  2.9852  2.3816
  490MOL0     H66135   3.145  11.336   7.077 -2.8422  3.0557  1.3138
  490MOL0     H66136   1.593  10.927   7.626 -0.5074  0.4752 -0.0153
  490MOL0     H66137   1.543  10.847   7.848 -0.0507 -0.3575 -2.0854
  490MOL0     H66138   1.603  10.780   8.285  0.0623 -2.3019  2.9287
  490MOL0     H66139   1.446  10.642   8.417 -0.8969 -0.0885  0.5686
  490MOL0     H66140   1.099  10.846   8.617  1.0364 -0.9842  0.6959
  490MOL0     H66141   1.033  10.765   8.471  2.7024 -3.3466 -2.9833
  490MOL0     H66142   0.939  10.674   8.697 -1.2203  0.0908 -0.5866
  490MOL0     H66143   1.101  10.617   8.720 -0.6905  0.9702  1.6988
  490MOL0     H66144   1.093  10.487   8.508  2.3566 -3.2535  4.1267
  490MOL0     H66145   0.923  10.510   8.512 -1.3594 -1.8393  2.4306
  490MOL0     H66146   1.107  10.377   8.708 -0.0998 -1.3791  1.2013
  490MOL0     H66147   0.989  10.284   8.642  3.6887 -1.6397  2.0681
  490MOL0     H66148   0.749  10.448   8.936 -0.3926  0.1485 -0.3780
  490MOL0     H66149   1.152  10.964   8.388 -0.2715  0.5490 -1.6263
  490MOL0     H66150   1.302  11.078   8.208  1.5870 -0.7691 -1.3277
  491MOL0     O66151   9.395   0.095   8.163 -0.2301 -0.5712 -0.0931
  491MOL0     C66152   9.455   0.037   8.258  0.2581 -0.6380  0.3456
  491MOL0     O66153   9.451   0.075   8.385 -0.4530 -0.5659  0.0553
  491MOL0     C66154   9.398   0.195   8.425  0.1155  0.2816 -0.3666
  491MOL0     C66155   9.332   0.205   8.545 -0.4097  0.1205 -0.5543
  491MOL0     C66156   9.269   0.326   8.599  0.2147  0.1578  0.2247
  491MOL0     C66157   9.265   0.435   8.510  0.1919  0.2973  0.2074
  491MOL0     O66158   9.202   0.542   8.558 -0.0519  0.1492  0.0123
  491MOL0     C66159   9.151   0.642   8.473  0.0291  0.0222  0.2970
  491MOL0     C66160   9.042   0.722   8.534  0.1797 -0.0592  0.2023
  491MOL0     C66161   8.931   0.630   8.596 -0.7296 -0.9857 -0.1628
  491MOL0     C66162   8.815   0.708   8.656 -0.5313 -0.8666  0.6514
  491MOL0     C66163   8.696   0.623   8.678 -0.3564  0.0021  0.2491
  491MOL0     C66164   8.578   0.710   8.734 -0.6122  0.7318  0.3651
  491MOL0     C66165   8.442   0.636   8.748  0.0858  0.9773 -0.2436
  491MOL0     C66166   8.454   0.544   8.870  0.0071 -0.3216 -0.0914
  491MOL0     N66167   8.324   0.495   8.907  0.4755  0.2040 -0.6638
  491MOL0     C66168   8.264   0.377   8.869 -0.7901 -0.1748  0.4410
  491MOL0     C66169   8.156   0.371   8.936  0.5552 -0.7345  0.1927
  491MOL0     C66170   8.064   0.245   8.949  0.0761  0.2482  0.0326
  491MOL0     C66171   7.974   0.246   9.073 -0.2752  0.4634 -0.1766
  491MOL0     C66172   8.059   0.211   9.195  0.9747 -1.4291 -0.1020
  491MOL0     C66173   7.967   0.194   9.318  0.5171  0.0807 -0.8673
  491MOL0     O66174   7.909   0.323   9.353  0.5504  0.4011 -0.3935
  491MOL0     C66175   7.961   0.386   9.457  0.8943 -0.2508 -0.9686
  491MOL0     C66176   7.952   0.338   9.589  0.5716 -1.0481 -0.4180
  491MOL0     C66177   7.982   0.422   9.702  0.1357  0.9337 -0.2516
  491MOL0     C66178   7.987   0.356   9.844 -0.0422  0.2148 -0.6788
  491MOL0     C66179   8.037   0.546   9.672  0.3989  0.9670  0.3728
  491MOL0     C66180   8.093   0.631   9.774  0.2862  0.7855  0.3775
  491MOL0     O66181   7.999   0.682   9.855 -0.3584 -0.1221  0.2542
  491MOL0     C66182   8.018   0.767   9.960 -0.3530 -0.1546 -0.7958
  491MOL0     C66183   8.116   0.871   9.970  0.3252 -0.1019 -0.8337
  491MOL0     C66184   8.134   0.955  10.085 -0.3011  0.2072 -0.0461
  491MOL0     C66185   8.048   0.940  10.192 -0.2243  0.2767  0.0785
  491MOL0     O66186   8.044   1.027  10.296  0.1829 -0.8261 -0.6681
  491MOL0     C66187   7.957   1.137  10.268  0.1116  0.7256  0.4937
  491MOL0     C66188   7.948   1.200  10.402  0.6595 -0.5615  0.0869
  491MOL0     C66189   7.851   1.317  10.403 -0.2942 -0.3670  0.7401
  491MOL0     C66190   7.718   1.283  10.460  0.0767  0.3514  0.5944
  491MOL0     C66191   7.621   1.394  10.432  0.4822  0.6819  0.3734
  491MOL0     C66192   7.484   1.335  10.394  0.9291  0.5150  0.3090
  491MOL0     C66193   7.422   1.233  10.497  0.0397  0.0104  0.7548
  491MOL0     C66194   7.284   1.199  10.460 -0.4926 -0.4657  0.3080
  491MOL0    Cl66195   7.173   1.339  10.438 -0.3382 -0.2736 -0.1507
  491MOL0     C66196   7.951   0.833  10.183  0.5738  0.1113 -0.1353
  491MOL0     C66197   7.942   0.750  10.072 -0.0850 -0.8783 -0.2215
  491MOL0     O66198   8.215   0.643   9.791 -0.5100 -0.6302  0.1503
  491MOL0     C66199   8.043   0.598   9.539 -0.9259  1.0422  0.1423
  491MOL0     C66200   7.997   0.516   9.432 -0.5294 -0.0852 -0.4958
  491MOL0     N66201   8.133   0.491   9.009  0.7358 -0.2723 -0.3381
  491MOL0     N66202   8.244   0.554   9.002 -0.0080  0.0180 -0.5860
  491MOL0     C66203   9.326   0.420   8.384  0.0377 -0.5450  0.2484
  491MOL0     C66204   9.403   0.302   8.347 -0.0015 -0.9533  0.3110
  491MOL0     C66205   9.497  -0.101   8.228 -0.5178 -0.0873 -0.0231
  491MOL0     C66206   9.481  -0.141   8.093 -0.2536  1.0986 -0.5959
  491MOL0     C66207   9.528  -0.271   8.061 -1.2963 -0.2442  0.6079
  491MOL0     C66208   9.575  -0.362   8.156  0.2622 -0.8710  0.1765
  491MOL0     O66209   9.642  -0.475   8.128  0.2983 -0.0163 -0.5060
  491MOL0     C66210   9.657  -0.514   7.992 -0.3062  0.2970 -0.9597
  491MOL0     C66211   9.736  -0.644   7.961  0.0940  0.2122 -0.7426
  491MOL0     C66212   9.684  -0.771   8.033 -0.0011  0.4522  0.0311
  491MOL0     C66213   9.538  -0.813   8.009  0.2966  0.8625  0.0746
  491MOL0     C66214   9.438  -0.744   8.097  0.2215 -0.1240  0.4308
  491MOL0     C66215   9.347  -0.684   8.145  0.4570  0.3610 -0.6509
  491MOL0     C66216   9.581  -0.320   8.289  0.1052  0.5038  0.6931
  491MOL0     C66217   9.548  -0.191   8.325  0.4655  0.2523  0.2012
  491MOL0     H66218   9.324   0.113   8.601 -0.6072 -0.0392 -0.8442
  491MOL0     H66219   9.218   0.328   8.694 -0.5045  0.7696 -0.1684
  491MOL0     H66220   9.229   0.713   8.442 -0.8896  1.4471  1.1033
  491MOL0     H66221   9.121   0.602   8.376  0.6175 -0.6850  0.4009
  491MOL0     H66222   9.076   0.790   8.612 -1.3074  0.8861  0.0710
  491MOL0     H66223   9.002   0.791   8.460  4.6286  2.9085  0.2050
  491MOL0     H66224   8.903   0.563   8.514  2.8835  1.4161 -3.7152
  491MOL0     H66225   8.973   0.561   8.669 -1.7076 -1.6484 -0.2008
  491MOL0     H66226   8.843   0.759   8.749  1.3127  0.4381 -0.5368
  491MOL0     H66227   8.792   0.787   8.584  1.3471 -0.4367  0.4614
  491MOL0     H66228   8.666   0.576   8.584  2.0700 -0.2403 -0.4811
  491MOL0     H66229   8.721   0.541   8.746 -0.2412 -0.4846 -0.3748
  491MOL0     H66230   8.617   0.738   8.832  0.1074 -2.8399  1.2523
  491MOL0     H66231   8.576   0.797   8.668  3.4726  0.0891 -0.9469
  491MOL0     H66232   8.363   0.711   8.765 -0.3945  0.0991  1.7595
  491MOL0     H66233   8.412   0.571   8.666 -3.7636 -0.9355  2.3300
  491MOL0     H66234   8.488   0.601   8.957  0.4099 -0.9062  0.1338
  491MOL0     H66235   8.530   0.467   8.856 -0.1408 -0.3795 -0.6237
  491MOL0     H66236   8.307   0.298   8.808  1.4805 -1.2307  3.1787
  491MOL0     H66237   7.997   0.242   8.863 -0.1110  1.5294  0.1133
  491MOL0     H66238   8.121   0.152   8.939  1.8114  1.5032 -3.1204
  491MOL0     H66239   7.891   0.176   9.068  1.5245 -1.9359  1.2107
  491MOL0     H66240   7.935   0.347   9.090  1.0038  0.6394  2.1235
  491MOL0     H66241   8.134   0.289   9.206 -1.8135  1.5415 -0.5940
  491MOL0     H66242   8.108   0.114   9.185 -0.0594 -2.2362  2.0242
  491MOL0     H66243   8.020   0.162   9.409 -3.1550 -3.3169  0.3516
  491MOL0     H66244   7.899   0.113   9.292  3.5080 -1.9271 -3.0819
  491MOL0     H66245   7.912   0.239   9.609 -0.0960 -0.5788  0.6209
  491MOL0     H66246   7.920   0.269   9.840 -0.4270  0.5055 -0.6473
  491MOL0     H66247   8.083   0.326   9.887 -1.4389 -2.8730  0.6267
  491MOL0     H66248   7.937   0.424   9.913  0.5427 -1.2389  1.2697
  491MOL0     H66249   8.160   0.890   9.873 -2.2403  0.9637 -1.8809
  491MOL0     H66250   8.210   1.031  10.096  0.5492 -0.1923 -2.5469
  491MOL0     H66251   8.010   1.214  10.210 -1.6992  4.6480  3.5205
  491MOL0     H66252   7.865   1.111  10.214  1.5909  1.8140 -2.8791
  491MOL0     H66253   7.925   1.124  10.477 -1.1372  2.0813  2.3781
  491MOL0     H66254   8.045   1.243  10.427 -0.0938  1.7897 -0.7833
  491MOL0     H66255   7.835   1.365  10.306 -4.3709  1.4056  2.0865
  491MOL0     H66256   7.899   1.401  10.453 -4.8267  1.8907  1.7795
  491MOL0     H66257   7.684   1.186  10.422 -0.5467  0.5403  0.6664
  491MOL0     H66258   7.735   1.280  10.568  0.4716  0.2847  0.5316
  491MOL0     H66259   7.649   1.462  10.351 -0.5690 -1.5389 -1.9904
  491MOL0     H66260   7.606   1.462  10.517  0.2748  3.1438 -1.5366
  491MOL0     H66261   7.417   1.421  10.396  1.1381  0.6754  0.6946
  491MOL0     H66262   7.483   1.293  10.294 -3.6485 -1.2538  0.8723
  491MOL0     H66263   7.434   1.278  10.596 -1.8674  0.2161  0.9199
  491MOL0     H66264   7.480   1.141  10.511  0.9384  0.6929  1.7001
  491MOL0     H66265   7.242   1.131  10.535 -2.2884 -2.7045 -2.4911
  491MOL0     H66266   7.277   1.136  10.371 -2.6047 -2.8758  2.0301
  491MOL0     H66267   7.886   0.824  10.269  4.6433 -3.0529  3.0254
  491MOL0     H66268   7.870   0.669  10.064  0.1640 -1.3263  1.6018
  491MOL0     H66269   8.088   0.696   9.527 -1.7004  1.1854 -1.8825
  491MOL0     H66270   7.983   0.553   9.331 -1.3389  0.9310 -0.0213
  491MOL0     H66271   9.323   0.501   8.312  1.2962  0.2459  1.0576
  491MOL0     H66272   9.448   0.307   8.248  0.4639  2.4328  0.5510
  491MOL0     H66273   9.432  -0.076   8.021 -0.6512  0.2309 -1.1210
  491MOL0     H66274   9.510  -0.291   7.955  2.0821 -1.4577  0.1505
  491MOL0     H66275   9.557  -0.539   7.956  0.0355 -0.8907 -1.1166
  491MOL0     H66276   9.701  -0.431   7.936 -1.1249  1.8343  0.6024
  491MOL0     H66277   9.835  -0.615   7.999  0.2925  2.0340 -2.4979
  491MOL0     H66278   9.736  -0.677   7.857  0.2614 -3.5543  0.2945
  491MOL0     H66279   9.707  -0.769   8.139 -1.4951 -0.0559  0.3841
  491MOL0     H66280   9.742  -0.853   7.991 -2.3988 -0.4428 -1.8049
  491MOL0     H66281   9.526  -0.920   8.028 -2.3995  1.1913  0.6030
  491MOL0     H66282   9.513  -0.814   7.902  0.1854  1.8656  0.0775
  491MOL0     H66283   9.257  -0.656   8.195  0.2906 -1.4613  0.1751
  491MOL0     H66284   9.635  -0.394   8.348  0.3192  0.4098  0.3854
  491MOL0     H66285   9.575  -0.145   8.420  2.7060 -0.8276  0.1537
  492MOL0     O66286   5.894   3.497   6.314 -0.3469 -0.2268 -0.3786
  492MOL0     C66287   5.927   3.389   6.258  0.3317 -0.2193 -1.2874
  492MOL0     O66288   5.941   3.270   6.320  0.7055 -0.3540  0.3725
  492MOL0     C66289   5.839   3.221   6.396  0.3799  0.2707  0.4108
  492MOL0     C66290   5.877   3.126   6.491  1.2500 -0.7835 -0.7107
  492MOL0     C66291   5.770   3.080   6.575 -0.1124 -0.0667  0.3909
  492MOL0     C66292   5.641   3.118   6.562  0.0811  0.1325 -0.1496
  492MOL0     O66293   5.556   3.072   6.655 -0.6673  0.0223 -0.3410
  492MOL0     C66294   5.544   2.931   6.687  0.7712 -0.0218 -0.6416
  492MOL0     C66295   5.495   2.920   6.827  0.5622 -0.0612 -0.9399
  492MOL0     C66296   5.459   2.777   6.875 -0.0409  0.5341  1.2120
  492MOL0     C66297   5.394   2.786   7.012 -0.1979 -0.8102 -0.0788
  492MOL0     C66298   5.365   2.656   7.077  0.4335 -0.0147  0.6888
  492MOL0     C66299   5.260   2.577   7.003  0.2353  1.0256 -0.2073
  492MOL0     C66300   5.234   2.442   7.067  0.2599  1.1377  0.1926
  492MOL0     C66301   5.347   2.341   7.031 -0.6348  0.4946  0.2893
  492MOL0     N66302   5.302   2.206   7.050 -0.8166  0.0773  0.1559
  492MOL0     C66303   5.264   2.149   7.170  0.2247 -0.2842 -0.6095
  492MOL0     C66304   5.267   2.008   7.153 -0.5758 -0.3845  0.1732
  492MOL0     C66305   5.232   1.901   7.258 -0.5188 -0.2135  0.5693
  492MOL0     C66306   5.122   1.822   7.219 -0.0796  1.0714 -0.6112
  492MOL0     C66307   5.112   1.689   7.293 -1.5493 -0.1251 -0.7519
  492MOL0     C66308   5.008   1.596   7.225  0.7513  0.5941  0.0209
  492MOL0     O66309   4.992   1.485   7.316  0.8491 -0.0201  0.1644
  492MOL0     C66310   5.062   1.373   7.306  0.3254  0.4158  0.5493
  492MOL0     C66311   5.035   1.284   7.407 -0.2272 -0.5150 -0.6203
  492MOL0     C66312   5.065   1.139   7.405 -0.9209 -0.3931  0.1214
  492MOL0     C66313   4.996   1.061   7.516  0.4576  0.0365 -0.1312
  492MOL0     C66314   5.151   1.086   7.301  0.7681 -0.5647  0.1435
  492MOL0     C66315   5.182   0.945   7.285  0.1943 -0.5217  0.2351
  492MOL0     O66316   5.169   0.864   7.390  0.7910  0.3562 -0.2610
  492MOL0     C66317   5.137   0.725   7.377 -0.5620  0.4771 -1.0474
  492MOL0     C66318   5.106   0.664   7.502  0.8606  0.4035  0.8983
  492MOL0     C66319   5.081   0.529   7.513 -0.5472  0.9880  0.1723
  492MOL0     C66320   5.101   0.448   7.398  0.7910  0.6993 -1.2762
  492MOL0     O66321   5.088   0.311   7.418 -0.9237 -0.2776 -0.8166
  492MOL0     C66322   5.108   0.221   7.298 -0.1885 -0.3282 -0.6956
  492MOL0     C66323   5.088   0.084   7.349 -0.3663 -0.3777  0.5337
  492MOL0     C66324   5.196   0.046   7.457  0.2716 -0.1031  0.2299
  492MOL0     C66325   5.202  -0.106   7.480 -0.3261  0.1898 -0.1692
  492MOL0     C66326   5.309  -0.131   7.587 -0.0127 -0.3177 -0.2784
  492MOL0     C66327   5.289  -0.276   7.631  0.5649 -0.5630  0.6200
  492MOL0     C66328   5.387  -0.340   7.730  0.0772  0.0250  0.0764
  492MOL0     C66329   5.329  -0.309   7.870  0.2026 -0.0533 -0.9397
  492MOL0    Cl66330   5.458  -0.372   7.992  0.4850 -0.0499  0.2221
  492MOL0     C66331   5.118   0.508   7.274 -0.1409 -0.2326 -0.2277
  492MOL0     C66332   5.146   0.645   7.262 -0.4456 -0.3977 -0.8263
  492MOL0     O66333   5.240   0.917   7.175  0.5853  0.4451 -0.4280
  492MOL0     C66334   5.194   1.187   7.207  0.2685  0.1804 -0.3459
  492MOL0     C66335   5.143   1.317   7.202 -0.0280 -0.5436  0.6676
  492MOL0     N66336   5.327   1.980   7.035 -1.0163 -0.9049  0.0608
  492MOL0     N66337   5.357   2.099   6.980 -0.5955  0.3351 -0.0376
  492MOL0     C66338   5.609   3.200   6.452  0.3939  0.5407  1.2397
  492MOL0     C66339   5.707   3.247   6.367  0.5797 -0.8492  0.7221
  492MOL0     C66340   5.969   3.395   6.120  1.0286 -0.3663 -0.3933
  492MOL0     C66341   6.033   3.515   6.076 -0.7749 -0.4845  0.0988
  492MOL0     C66342   6.083   3.515   5.941  0.8515 -0.7193 -0.6190
  492MOL0     C66343   6.059   3.409   5.849  0.3141 -0.1744 -0.0965
  492MOL0     O66344   6.099   3.426   5.720  0.8467  0.5045 -0.1439
  492MOL0     C66345   6.065   3.316   5.623 -0.0140 -0.6245 -0.4664
  492MOL0     C66346   6.180   3.218   5.623  0.2305 -0.2509 -0.2194
  492MOL0     C66347   6.165   3.114   5.513  0.2596  0.8875 -0.3957
  492MOL0     C66348   6.057   3.017   5.532  0.6344 -0.3801 -0.8750
  492MOL0     C66349   6.058   2.943   5.665  0.2778 -0.6705  1.4125
  492MOL0     C66350   6.065   2.899   5.776  0.4256  0.8738  0.0733
  492MOL0     C66351   5.994   3.294   5.904  1.2958 -0.6062 -0.1568
  492MOL0     C66352   5.946   3.283   6.038 -0.0735  0.3005 -0.1440
  492MOL0     H66353   5.979   3.091   6.502  1.6151  0.7300  1.2833
  492MOL0     H66354   5.802   3.006   6.648  2.4787  2.1676  1.6940
  492MOL0     H66355   5.470   2.893   6.616  2.9634 -0.9434 -2.5760
  492MOL0     H66356   5.634   2.871   6.668  0.1091 -0.7730 -1.4685
  492MOL0     H66357   5.570   2.953   6.900  1.5720 -4.1647  0.1718
  492MOL0     H66358   5.403   2.978   6.830  1.2413  1.0088  0.9596
  492MOL0     H66359   5.383   2.743   6.804 -0.5628  1.6137  1.2257
  492MOL0     H66360   5.540   2.704   6.867 -0.5542  0.1244 -3.6974
  492MOL0     H66361   5.463   2.828   7.085  0.3914 -0.4578 -0.8198
  492MOL0     H66362   5.307   2.852   7.004  0.2485 -0.2303 -0.1539
  492MOL0     H66363   5.450   2.590   7.091  0.2753 -0.2201  0.6940
  492MOL0     H66364   5.326   2.671   7.178  0.9231 -0.3917  0.9379
  492MOL0     H66365   5.166   2.632   7.009  0.4804  1.4563 -0.2517
  492MOL0     H66366   5.306   2.555   6.906  6.3349  0.0191  2.4271
  492MOL0     H66367   5.239   2.446   7.177  1.9128 -3.6263  0.5185
  492MOL0     H66368   5.143   2.390   7.037  2.1410 -2.2557 -0.1277
  492MOL0     H66369   5.437   2.361   7.090 -1.5170  1.0664  1.4860
  492MOL0     H66370   5.376   2.355   6.926 -1.7816  0.5474 -0.0334
  492MOL0     H66371   5.240   2.198   7.264 -0.3972 -1.8084  0.0532
  492MOL0     H66372   5.317   1.832   7.266 -0.2576 -1.0305 -5.0209
  492MOL0     H66373   5.209   1.962   7.346  2.1811  2.5833 -0.4457
  492MOL0     H66374   5.132   1.798   7.112  2.6995  1.8371 -0.5965
  492MOL0     H66375   5.026   1.870   7.236 -2.1590 -2.6726 -0.6723
  492MOL0     H66376   5.083   1.703   7.397  2.0398  1.2853  0.2054
  492MOL0     H66377   5.200   1.625   7.290 -1.0789  0.3588  1.2766
  492MOL0     H66378   5.047   1.579   7.125  2.8713  1.9747  0.5429
  492MOL0     H66379   4.909   1.642   7.219 -0.3012 -1.6835 -1.4416
  492MOL0     H66380   4.964   1.328   7.477  0.3783  2.1559 -1.5750
  492MOL0     H66381   5.067   1.027   7.592 -0.1315 -2.4958 -0.6290
  492MOL0     H66382   4.920   1.123   7.565 -1.5794 -2.4270  0.0068
  492MOL0     H66383   4.944   0.977   7.469  0.6822  0.8985 -2.0020
  492MOL0     H66384   5.106   0.728   7.590 -2.0157  0.4345  0.9752
  492MOL0     H66385   5.066   0.489   7.613  0.1321 -1.2347 -0.5646
  492MOL0     H66386   5.036   0.257   7.223  0.9158  1.6231 -0.8823
  492MOL0     H66387   5.213   0.227   7.268  0.4963 -0.7709  1.4448
  492MOL0     H66388   4.990   0.070   7.397 -0.1735 -0.7400  0.8289
  492MOL0     H66389   5.089   0.020   7.261 -1.4662 -1.4727  1.2738
  492MOL0     H66390   5.179   0.100   7.551 -2.5089 -1.3386  0.5350
  492MOL0     H66391   5.294   0.067   7.413  1.1379 -3.0746  0.4499
  492MOL0     H66392   5.112  -0.150   7.524  0.7223 -2.7543 -0.6854
  492MOL0     H66393   5.221  -0.171   7.394  2.3641 -0.6817  0.9731
  492MOL0     H66394   5.286  -0.063   7.670 -1.6848  0.8939 -1.6477
  492MOL0     H66395   5.412  -0.114   7.557  0.1932 -0.1999  0.4729
  492MOL0     H66396   5.188  -0.298   7.667  0.4040 -1.2490 -0.2129
  492MOL0     H66397   5.288  -0.339   7.542  0.8996 -0.3789  0.4834
  492MOL0     H66398   5.487  -0.298   7.718 -1.0965  2.9737 -0.1767
  492MOL0     H66399   5.385  -0.447   7.708 -2.5839  0.2029 -0.9348
  492MOL0     H66400   5.236  -0.359   7.898  2.3933 -2.0161  4.1728
  492MOL0     H66401   5.305  -0.204   7.887 -1.5576 -0.2138 -2.1232
  492MOL0     H66402   5.103   0.454   7.181  0.1372 -0.7090 -0.0005
  492MOL0     H66403   5.153   0.690   7.164 -0.1902 -1.3461 -1.2550
  492MOL0     H66404   5.258   1.145   7.130  2.4418 -1.0917  2.0210
  492MOL0     H66405   5.170   1.369   7.110 -0.4416  0.6004  1.1700
  492MOL0     H66406   5.513   3.251   6.446 -0.2882 -0.6434  1.5062
  492MOL0     H66407   5.686   3.308   6.280 -1.5916 -3.1184 -0.4603
  492MOL0     H66408   6.051   3.602   6.137 -2.4102 -1.1149  1.5638
  492MOL0     H66409   6.141   3.599   5.904 -0.5004  0.4821 -0.0814
  492MOL0     H66410   5.977   3.263   5.660 -0.1093  0.8171  1.5670
  492MOL0     H66411   6.050   3.354   5.522  2.2773 -1.2855 -1.1113
  492MOL0     H66412   6.202   3.183   5.725  1.2404 -2.0389 -1.0088
  492MOL0     H66413   6.275   3.264   5.593 -0.4199 -0.5269 -2.8893
  492MOL0     H66414   6.258   3.057   5.504 -0.4103 -0.1375 -0.9043
  492MOL0     H66415   6.145   3.163   5.417 -0.8265  2.8174  0.7487
  492MOL0     H66416   6.070   2.949   5.447  1.5506 -0.7104 -0.4840
  492MOL0     H66417   5.963   3.072   5.521 -0.1682 -0.8768  2.2990
  492MOL0     H66418   6.064   2.863   5.877 -1.8341  0.1500 -0.1306
  492MOL0     H66419   5.971   3.202   5.852 -1.8780 -0.9462  1.6361
  492MOL0     H66420   5.892   3.193   6.064  1.2974 -1.8028 -3.7447
  493MOL0     O66421   8.968   9.338   9.435 -0.2329  0.2316  0.1606
  493MOL0     C66422   8.853   9.336   9.383  0.1882 -0.9558 -0.4103
  493MOL0     O66423   8.753   9.247   9.406  0.3090  0.0515 -0.1192
  493MOL0     C66424   8.785   9.153   9.503 -0.9335 -1.2533 -0.8889
  493MOL0     C66425   8.778   9.174   9.639  0.4385 -0.9442 -0.0563
  493MOL0     C66426   8.805   9.074   9.734  0.0590  0.3188  0.1913
  493MOL0     C66427   8.854   8.951   9.687 -0.5029  0.2929  0.7143
  493MOL0     O66428   8.894   8.850   9.767  0.0934 -0.5550  0.3053
  493MOL0     C66429   8.929   8.881   9.906 -0.9674  0.2441 -0.1480
  493MOL0     C66430   9.045   8.786   9.954 -0.7382  0.5857 -0.2150
  493MOL0     C66431   9.167   8.779   9.854 -0.7646  0.2927 -1.2881
  493MOL0     C66432   9.154   8.644   9.770  0.2687  0.1143  0.7606
  493MOL0     C66433   9.276   8.621   9.684 -0.3254 -0.4141  0.9509
  493MOL0     C66434   9.327   8.737   9.597 -0.2284  0.7156  0.2510
  493MOL0     C66435   9.213   8.799   9.523 -0.6169  0.3992 -0.5318
  493MOL0     C66436   9.256   8.873   9.393 -0.3342 -0.1362 -0.2240
  493MOL0     N66437   9.150   8.932   9.321 -0.0032 -0.3552  0.1147
  493MOL0     C66438   9.135   9.060   9.286 -0.9776 -0.1046  0.3037
  493MOL0     C66439   9.037   9.060   9.191  0.2090 -0.8404  0.3623
  493MOL0     C66440   8.989   9.173   9.107  0.0046  0.4012 -0.6947
  493MOL0     C66441   9.014   9.152   8.960 -0.4669  0.0931  1.1460
  493MOL0     C66442   8.926   9.244   8.876 -0.7660  0.9447 -0.3077
  493MOL0     C66443   8.917   9.209   8.732  0.0428  1.0288 -0.1082
  493MOL0     O66444   9.063   9.200   8.685 -0.4409 -0.1541 -0.5374
  493MOL0     C66445   9.082   9.187   8.551  0.4583  0.7549 -0.3334
  493MOL0     C66446   9.215   9.175   8.507 -1.0165 -0.0344 -0.2136
  493MOL0     C66447   9.250   9.156   8.376  0.2890 -0.1882  0.6865
  493MOL0     C66448   9.395   9.119   8.354 -0.1991 -0.0280 -0.7135
  493MOL0     C66449   9.149   9.168   8.276 -0.4335  0.1796 -0.4302
  493MOL0     C66450   9.181   9.158   8.126  0.3976  0.6583 -0.0727
  493MOL0     O66451   9.292   9.104   8.078 -0.2460  0.0471 -0.5576
  493MOL0     C66452   9.282   8.965   8.064 -0.0729  0.3883 -0.6305
  493MOL0     C66453   9.166   8.889   8.085  0.5560  0.1658  0.0760
  493MOL0     C66454   9.173   8.749   8.089 -0.6448 -0.3534 -0.0355
  493MOL0     C66455   9.286   8.685   8.068 -0.9804 -0.0656 -0.5632
  493MOL0     O66456   9.308   8.548   8.068  0.5251 -0.1320 -0.4130
  493MOL0     C66457   9.187   8.460   8.076 -0.9035  0.4115 -0.9217
  493MOL0     C66458   9.213   8.335   7.998  0.0970  0.5398 -0.6682
  493MOL0     C66459   9.091   8.241   8.010 -0.8071  0.2267  1.1128
  493MOL0     C66460   9.096   8.122   7.907 -0.3631  0.1372 -0.3976
  493MOL0     C66461   8.954   8.095   7.847 -0.1931  0.3422 -1.0157
  493MOL0     C66462   8.950   8.018   7.711  0.5525 -0.2800  0.2658
  493MOL0     C66463   8.836   7.922   7.697 -0.7267 -0.6007 -1.2334
  493MOL0     C66464   8.717   8.025   7.715 -0.6245 -0.1189  0.5973
  493MOL0    Cl66465   8.565   7.940   7.676  0.0868 -0.0480 -0.3908
  493MOL0     C66466   9.397   8.750   8.033  0.1504  0.1507 -0.6333
  493MOL0     C66467   9.406   8.890   8.041  0.0529  0.2117 -0.8719
  493MOL0     O66468   9.097   9.219   8.057  0.4336 -0.1004  0.4980
  493MOL0     C66469   9.013   9.184   8.315 -0.0090 -0.2597  0.7270
  493MOL0     C66470   8.980   9.182   8.451 -0.5570  0.0090 -0.3594
  493MOL0     N66471   9.008   8.925   9.171 -0.1166 -0.2837  0.2085
  493MOL0     N66472   9.079   8.855   9.245  0.3922  0.5356 -0.0861
  493MOL0     C66473   8.864   8.928   9.548  1.2977 -0.0472  0.4632
  493MOL0     C66474   8.839   9.035   9.459  0.0464 -0.0555  0.6214
  493MOL0     C66475   8.833   9.441   9.287 -0.1499  0.6046 -0.7015
  493MOL0     C66476   8.730   9.430   9.195 -0.2071  0.3585 -0.1795
  493MOL0     C66477   8.712   9.530   9.094 -0.3111  0.9772 -0.0437
  493MOL0     C66478   8.805   9.637   9.085  0.5352  0.0422  0.3020
  493MOL0     O66479   8.817   9.734   8.989 -0.4287 -0.4188 -0.2766
  493MOL0     C66480   8.762   9.695   8.855  0.1242 -0.6732  0.5783
  493MOL0     C66481   8.833   9.771   8.732 -0.8244 -0.4094 -0.3518
  493MOL0     C66482   8.955   9.689   8.679  0.3547  0.5481 -0.0277
  493MOL0     C66483   8.949   9.683   8.520  0.7095 -0.0434  0.2427
  493MOL0     C66484   9.059   9.604   8.463 -0.3884 -0.8500  0.0242
  493MOL0     C66485   9.153   9.548   8.405  0.4673 -0.2280 -0.5642
  493MOL0     C66486   8.902   9.645   9.178 -1.3593 -0.3141  0.1472
  493MOL0     C66487   8.919   9.551   9.279  0.0331 -1.4178 -0.9176
  493MOL0     H66488   8.732   9.267   9.670  3.1908  2.0154 -3.7916
  493MOL0     H66489   8.778   9.086   9.838 -0.1258  0.4389  0.1300
  493MOL0     H66490   8.968   8.983   9.899 -0.2495 -0.0600 -0.6790
  493MOL0     H66491   8.845   8.881   9.976 -1.7169 -1.2260 -0.9883
  493MOL0     H66492   9.081   8.824  10.050 -2.1688 -0.4094  0.7522
  493MOL0     H66493   9.003   8.687   9.977 -1.3936 -0.0401 -3.5391
  493MOL0     H66494   9.172   8.867   9.790  1.4287  0.7173 -0.5909
  493MOL0     H66495   9.260   8.759   9.908  0.8550  2.8297 -2.9440
  493MOL0     H66496   9.130   8.558   9.833 -2.2960  1.4169  1.7062
  493MOL0     H66497   9.069   8.655   9.702 -0.6241  4.7697  2.2437
  493MOL0     H66498   9.360   8.591   9.747  0.9379  0.8313 -0.0792
  493MOL0     H66499   9.255   8.529   9.629  1.7744 -0.0361 -0.6169
  493MOL0     H66500   9.386   8.807   9.658 -0.1088  0.1879  0.7607
  493MOL0     H66501   9.403   8.684   9.539 -1.0420 -1.2780  0.9183
  493MOL0     H66502   9.147   8.716   9.498  1.0446 -0.3767 -2.7842
  493MOL0     H66503   9.156   8.874   9.578 -1.4822  0.1116 -1.0262
  493MOL0     H66504   9.305   8.805   9.322 -1.5427  1.0047 -2.2365
  493MOL0     H66505   9.322   8.953   9.426 -1.6288  1.7573 -1.9562
  493MOL0     H66506   9.194   9.140   9.330 -2.6462 -0.0359  2.6042
  493MOL0     H66507   8.883   9.165   9.134  0.4771 -2.5423  0.7793
  493MOL0     H66508   9.026   9.272   9.134  0.3731  0.5835 -1.8049
  493MOL0     H66509   8.988   9.053   8.924 -2.5877  1.9160 -2.9479
  493MOL0     H66510   9.115   9.174   8.925 -2.2280  2.2736 -3.3430
  493MOL0     H66511   8.948   9.350   8.885  4.6144  0.1794 -1.0041
  493MOL0     H66512   8.828   9.226   8.922 -1.2548 -0.9919 -1.9759
  493MOL0     H66513   8.867   9.296   8.690  0.4975  0.6329 -1.5458
  493MOL0     H66514   8.870   9.113   8.707  1.6822  0.0413  0.4022
  493MOL0     H66515   9.285   9.162   8.588 -4.1652  3.8371  3.5730
  493MOL0     H66516   9.403   9.010   8.344 -3.1905 -0.3857  0.0304
  493MOL0     H66517   9.439   9.168   8.266  0.0371  1.7066  0.3256
  493MOL0     H66518   9.442   9.155   8.446 -1.0965 -1.3297  0.2803
  493MOL0     H66519   9.070   8.939   8.096  0.5351  0.3528 -0.8608
  493MOL0     H66520   9.071   8.719   8.110 -0.6173 -0.3649  0.0845
  493MOL0     H66521   9.169   8.429   8.179  1.7289  0.9780 -0.2225
  493MOL0     H66522   9.093   8.499   8.036 -2.3382 -1.9409 -0.0655
  493MOL0     H66523   9.241   8.349   7.893  0.1859  1.1156 -0.5671
  493MOL0     H66524   9.303   8.285   8.035 -0.8612 -0.4251  0.4602
  493MOL0     H66525   8.999   8.299   7.998 -0.6226  0.3002 -0.0765
  493MOL0     H66526   9.084   8.210   8.115 -2.4441 -2.1066  0.3728
  493MOL0     H66527   9.168   8.139   7.827 -0.7665  0.3411 -0.7270
  493MOL0     H66528   9.140   8.038   7.960  1.0132 -0.1871 -1.9951
  493MOL0     H66529   8.912   8.195   7.832 -2.6845 -0.0065  2.4590
  493MOL0     H66530   8.892   8.053   7.927 -0.1575  2.5230  0.2448
  493MOL0     H66531   8.963   8.089   7.628 -0.5544 -1.1309 -0.6718
  493MOL0     H66532   9.039   7.955   7.702  0.8718  0.3682 -1.6744
  493MOL0     H66533   8.825   7.849   7.778  0.6214  2.9809  2.5602
  493MOL0     H66534   8.832   7.889   7.593  1.1808  1.9912 -2.2499
  493MOL0     H66535   8.707   8.108   7.644 -3.4351  0.7147  1.8359
  493MOL0     H66536   8.719   8.059   7.818  2.3112  1.5235  0.1107
  493MOL0     H66537   9.480   8.683   8.013 -0.4237  0.4381 -5.0010
  493MOL0     H66538   9.503   8.936   8.024 -0.1989  1.8982  1.6558
  493MOL0     H66539   8.940   9.191   8.235  1.6570  1.2118 -0.7644
  493MOL0     H66540   8.874   9.202   8.464 -0.4884  0.6033 -0.6760
  493MOL0     H66541   8.896   8.830   9.514  1.6605 -0.8456  2.8659
  493MOL0     H66542   8.855   9.023   9.352  3.4483  2.7948  0.6465
  493MOL0     H66543   8.656   9.351   9.198 -1.2847  1.2928 -0.8992
  493MOL0     H66544   8.634   9.513   9.020 -1.4881  0.8917  1.1791
  493MOL0     H66545   8.764   9.586   8.842  0.0939 -0.7184  0.9331
  493MOL0     H66546   8.660   9.735   8.851  0.4083  0.0223  0.1308
  493MOL0     H66547   8.861   9.871   8.768 -3.1836  0.5766 -1.0532
  493MOL0     H66548   8.768   9.794   8.647 -0.5514  1.7313 -0.0523
  493MOL0     H66549   8.964   9.595   8.735  1.6270 -0.0133 -1.1074
  493MOL0     H66550   9.053   9.729   8.709  1.2367 -2.0567  0.9101
  493MOL0     H66551   8.949   9.787   8.486 -0.7613  0.0653  0.5200
  493MOL0     H66552   8.858   9.641   8.477  0.2180  3.7208 -2.9925
  493MOL0     H66553   9.227   9.504   8.341  0.5682  3.1529 -3.0382
  493MOL0     H66554   8.970   9.729   9.175 -0.5981 -0.9042  0.5588
  493MOL0     H66555   8.994   9.570   9.355 -0.5302 -0.3582 -0.5977
  494MOL0     O66556   9.158   4.988   6.785 -0.1469 -0.1235  0.2951
  494MOL0     C66557   9.164   5.107   6.797 -0.5597 -0.0639 -1.1321
  494MOL0     O66558   9.057   5.195   6.789 -0.2443  0.1088 -0.8110
  494MOL0     C66559   8.932   5.149   6.778 -0.0322  1.2467  0.4154
  494MOL0     C66560   8.823   5.217   6.839  0.2083  1.2077 -0.4303
  494MOL0     C66561   8.692   5.175   6.817  1.0028 -0.3096 -0.9741
  494MOL0     C66562   8.663   5.076   6.721  0.0246 -0.1839  0.3199
  494MOL0     O66563   8.536   5.039   6.687 -0.2831 -0.3764  0.2243
  494MOL0     C66564   8.434   5.135   6.676 -0.6477  0.1178 -0.4121
  494MOL0     C66565   8.342   5.057   6.582 -0.2942  0.4376 -0.9956
  494MOL0     C66566   8.198   5.107   6.594 -0.1653  0.1546 -0.0195
  494MOL0     C66567   8.123   5.048   6.720  0.2380  0.0306  0.0619
  494MOL0     C66568   7.987   5.120   6.734 -0.3211 -0.2697 -0.0863
  494MOL0     C66569   7.897   5.115   6.607  0.2390  0.3973 -0.0995
  494MOL0     C66570   7.857   4.976   6.571  0.1244  0.2507  0.4847
  494MOL0     C66571   7.749   4.995   6.461 -0.0303 -0.8304 -0.5557
  494MOL0     N66572   7.726   4.864   6.396 -0.9897  0.0557 -0.3320
  494MOL0     C66573   7.629   4.776   6.425  0.5161 -0.7467  0.5035
  494MOL0     C66574   7.611   4.692   6.323 -0.5028 -0.9575  0.5452
  494MOL0     C66575   7.499   4.598   6.311 -0.1818  0.6415  0.6708
  494MOL0     C66576   7.477   4.569   6.165 -0.2867 -0.3121  0.5618
  494MOL0     C66577   7.372   4.451   6.152  0.7174 -0.9230  1.0099
  494MOL0     C66578   7.380   4.396   6.011 -0.0129  0.7029  0.2298
  494MOL0     O66579   7.321   4.270   6.002  0.1513 -1.1122 -1.1870
  494MOL0     C66580   7.195   4.265   5.946  0.7033  0.3935  0.9834
  494MOL0     C66581   7.138   4.138   5.955  0.4582 -0.4067 -0.5953
  494MOL0     C66582   7.014   4.119   5.904  0.1286  0.4958  1.3085
  494MOL0     C66583   6.952   3.983   5.896 -0.6913 -0.8074 -0.6145
  494MOL0     C66584   6.934   4.224   5.856 -0.4330  0.0795  0.2160
  494MOL0     C66585   6.795   4.207   5.803  0.4403  0.6073  0.7057
  494MOL0     O66586   6.692   4.240   5.887  0.2252 -0.1068  0.0106
  494MOL0     C66587   6.565   4.203   5.853  0.1278 -0.6406  0.4401
  494MOL0     C66588   6.496   4.277   5.760 -0.6919 -0.1382  0.1868
  494MOL0     C66589   6.359   4.251   5.748  0.2772 -0.1228  0.7716
  494MOL0     C66590   6.301   4.144   5.819  0.0940 -0.0811 -1.1413
  494MOL0     O66591   6.169   4.116   5.812  0.6366  0.2205 -0.8170
  494MOL0     C66592   6.072   4.227   5.811  1.0077  0.6739  0.4242
  494MOL0     C66593   5.940   4.177   5.768  0.4551  0.5226 -0.3152
  494MOL0     C66594   5.932   4.142   5.616 -0.4046 -0.3062 -0.9771
  494MOL0     C66595   5.796   4.097   5.590 -0.4178 -0.2929  0.1478
  494MOL0     C66596   5.791   4.114   5.429 -0.4766 -0.8252  0.3829
  494MOL0     C66597   5.671   4.046   5.360  0.2900  0.3298  0.0164
  494MOL0     C66598   5.538   4.119   5.386 -0.4853  0.8150  0.1595
  494MOL0     C66599   5.454   4.053   5.502  0.9150 -0.6107  0.2016
  494MOL0    Cl66600   5.286   4.107   5.509  0.3248  0.0661 -0.3337
  494MOL0     C66601   6.374   4.075   5.914 -0.0958 -0.8175  0.1930
  494MOL0     C66602   6.510   4.100   5.932  0.2314 -0.7735 -0.3589
  494MOL0     O66603   6.777   4.161   5.687  0.0379 -0.1317  0.5630
  494MOL0     C66604   6.980   4.347   5.856 -0.5360 -1.5491 -0.9397
  494MOL0     C66605   7.109   4.370   5.899  0.1194 -0.3826 -0.3399
  494MOL0     N66606   7.720   4.710   6.243  0.5020 -0.3983  0.0355
  494MOL0     N66607   7.785   4.819   6.285  0.3321  0.1311  0.5991
  494MOL0     C66608   8.766   5.007   6.666  0.6099  0.7069  0.4747
  494MOL0     C66609   8.899   5.039   6.686 -0.1009 -0.0979 -0.1617
  494MOL0     C66610   9.303   5.165   6.816 -0.0986  1.1883 -0.5152
  494MOL0     C66611   9.318   5.296   6.846  0.5458  0.5095 -0.4758
  494MOL0     C66612   9.442   5.363   6.844 -0.2148 -0.0879  0.4788
  494MOL0     C66613   9.558   5.284   6.814  0.3975  0.6976 -0.4373
  494MOL0     O66614   9.683   5.350   6.830  0.6260 -0.0990  0.3385
  494MOL0     C66615   9.800   5.275   6.821 -0.0440 -0.1933  0.1075
  494MOL0     C66616   9.931   5.352   6.844  0.2934  0.0662 -0.1402
  494MOL0     C66617   9.963   5.463   6.745 -1.3101  0.4414  0.1970
  494MOL0     C66618  10.068   5.555   6.805  0.4092 -0.4358  0.5204
  494MOL0     C66619  10.200   5.489   6.831  0.3582 -0.4229 -0.4254
  494MOL0     C66620  10.291   5.420   6.854 -0.2543  0.0369  0.3658
  494MOL0     C66621   9.543   5.146   6.778  0.2052  0.0628  1.2178
  494MOL0     C66622   9.417   5.088   6.784  0.0020 -0.0412 -0.4246
  494MOL0     H66623   8.858   5.297   6.904  2.7175  1.8456 -2.4068
  494MOL0     H66624   8.605   5.225   6.858  2.1340  0.8968  0.0346
  494MOL0     H66625   8.394   5.157   6.776  1.5402  0.0065  0.5533
  494MOL0     H66626   8.477   5.223   6.629  2.5519 -0.3683  1.3126
  494MOL0     H66627   8.377   5.076   6.480  0.2376 -0.8909 -1.0837
  494MOL0     H66628   8.350   4.949   6.600  1.1660  0.8158  0.8446
  494MOL0     H66629   8.194   5.216   6.602  0.9492  0.1426  1.0657
  494MOL0     H66630   8.139   5.076   6.507  0.5390 -0.6932 -0.2027
  494MOL0     H66631   8.107   4.940   6.715  2.4759 -0.3688  0.2784
  494MOL0     H66632   8.177   5.069   6.813 -2.1596  2.3887  1.0566
  494MOL0     H66633   7.941   5.072   6.821  0.6923  1.2522  1.3454
  494MOL0     H66634   8.001   5.225   6.760 -0.7502 -0.6199  1.7229
  494MOL0     H66635   7.799   5.157   6.632  0.4145 -0.2954  1.9012
  494MOL0     H66636   7.932   5.169   6.518  0.4738  0.3111 -0.0595
  494MOL0     H66637   7.942   4.916   6.538 -1.0995 -1.0604 -0.4027
  494MOL0     H66638   7.819   4.933   6.664  0.5449 -0.7718  0.1967
  494MOL0     H66639   7.773   5.065   6.380 -1.0813 -2.0041 -1.9452
  494MOL0     H66640   7.653   5.029   6.501  0.6554 -0.3613  0.7385
  494MOL0     H66641   7.560   4.778   6.509  1.0671 -0.0365  0.9607
  494MOL0     H66642   7.521   4.507   6.367 -2.6499  0.1567  0.9659
  494MOL0     H66643   7.406   4.643   6.347 -0.2174 -1.0664  2.9233
  494MOL0     H66644   7.576   4.547   6.126  0.3151  0.8661  1.3481
  494MOL0     H66645   7.437   4.657   6.114  0.8339  1.3151  2.3635
  494MOL0     H66646   7.270   4.490   6.158  1.4584  1.5979 -0.9345
  494MOL0     H66647   7.379   4.367   6.223 -2.3403 -2.7192 -0.5996
  494MOL0     H66648   7.486   4.378   5.993 -0.3835 -0.1094 -1.3126
  494MOL0     H66649   7.349   4.473   5.940 -0.1839  1.7742  1.4225
  494MOL0     H66650   7.185   4.046   5.986 -0.5139 -0.3619  1.1060
  494MOL0     H66651   6.848   3.990   5.930 -0.4839  0.9937 -0.2286
  494MOL0     H66652   6.957   3.952   5.791  0.4944 -1.8248 -0.2772
  494MOL0     H66653   7.009   3.910   5.953  0.5978 -0.2974 -1.2155
  494MOL0     H66654   6.548   4.358   5.711 -1.2764 -0.3129 -0.7465
  494MOL0     H66655   6.311   4.317   5.677  5.1220  3.8943  0.6791
  494MOL0     H66656   6.060   4.260   5.915 -0.3174 -2.8238  1.5265
  494MOL0     H66657   6.098   4.310   5.745 -0.4639  2.4956  1.9992
  494MOL0     H66658   5.915   4.097   5.838 -1.5265  2.4141  1.3169
  494MOL0     H66659   5.871   4.261   5.778 -0.7536  0.3109 -4.6887
  494MOL0     H66660   6.009   4.065   5.602  1.3180  0.9126  1.1386
  494MOL0     H66661   5.951   4.224   5.547 -1.7514 -1.4365 -2.7811
  494MOL0     H66662   5.779   3.992   5.613 -1.8651  0.0392  0.7334
  494MOL0     H66663   5.720   4.165   5.629  0.2716  1.5369 -1.4992
  494MOL0     H66664   5.879   4.060   5.392  1.1944  2.6090 -1.0571
  494MOL0     H66665   5.795   4.220   5.405 -4.0359 -0.2178  1.8170
  494MOL0     H66666   5.686   4.058   5.252  2.2170 -2.3026 -0.1023
  494MOL0     H66667   5.672   3.939   5.383 -0.0293  0.3617  0.1766
  494MOL0     H66668   5.475   4.115   5.297 -1.2115  2.3105  0.5661
  494MOL0     H66669   5.555   4.224   5.412 -0.2443  0.9624 -0.5785
  494MOL0     H66670   5.493   4.062   5.604 -2.1010 -1.7111  1.5481
  494MOL0     H66671   5.458   3.947   5.477 -1.5407 -0.8173  0.4854
  494MOL0     H66672   6.314   4.004   5.969  2.4414 -1.8002  1.8380
  494MOL0     H66673   6.582   4.060   6.003 -0.2547 -1.2047 -0.1108
  494MOL0     H66674   6.911   4.428   5.836 -0.0846 -1.0079 -0.3317
  494MOL0     H66675   7.132   4.476   5.909  3.1854 -0.9544 -0.4735
  494MOL0     H66676   8.745   4.923   6.600  0.1656  1.3249 -0.1956
  494MOL0     H66677   8.975   4.986   6.628 -0.2794 -1.8794  1.1491
  494MOL0     H66678   9.235   5.359   6.876  2.3168  1.5267  2.7770
  494MOL0     H66679   9.453   5.466   6.878 -0.9980  1.1492 -2.7261
  494MOL0     H66680   9.799   5.194   6.895  0.5875  0.3026  0.6769
  494MOL0     H66681   9.806   5.241   6.717 -0.3164  1.2487 -0.3965
  494MOL0     H66682  10.021   5.290   6.842  1.1885  1.2939  0.6498
  494MOL0     H66683   9.912   5.386   6.947 -2.1909  0.5930 -0.6903
  494MOL0     H66684   9.872   5.520   6.724 -0.0527  1.2770 -3.8817
  494MOL0     H66685  10.003   5.426   6.650  0.7346  2.1659  0.3254
  494MOL0     H66686  10.031   5.596   6.899 -1.1198  1.1287 -0.7027
  494MOL0     H66687  10.076   5.643   6.741  0.9614 -0.3908  0.6448
  494MOL0     H66688  10.372   5.354   6.880 -0.8300  0.1199  2.5470
  494MOL0     H66689   9.629   5.092   6.741 -1.2565  0.8161 -4.0448
  494MOL0     H66690   9.403   4.981   6.770 -0.3266 -0.0190 -0.2862
  495MOL0     O66691   0.151   5.317   3.160  0.3396  0.0428  0.2896
  495MOL0     C66692   0.114   5.290   3.280  0.6532 -0.2270 -0.0947
  495MOL0     O66693  -0.011   5.307   3.329  0.4403  0.9138  0.1510
  495MOL0     C66694  -0.106   5.350   3.238 -0.3016  0.3299 -0.4112
  495MOL0     C66695  -0.120   5.488   3.223 -0.1152 -0.0114 -0.2164
  495MOL0     C66696  -0.215   5.532   3.130 -0.5627 -0.2856 -0.7555
  495MOL0     C66697  -0.296   5.440   3.062 -0.5193 -1.1261  0.6893
  495MOL0     O66698  -0.382   5.494   2.976  0.0440 -0.5044 -0.3720
  495MOL0     C66699  -0.486   5.417   2.906  0.4428  0.2952 -0.5030
  495MOL0     C66700  -0.568   5.533   2.839  0.2878 -0.0240  0.4809
  495MOL0     C66701  -0.692   5.480   2.789  0.6878 -0.4667  0.2677
  495MOL0     C66702  -0.789   5.588   2.736 -1.1633  0.0793 -0.6977
  495MOL0     C66703  -0.750   5.624   2.590  0.1236 -0.2557 -0.2566
  495MOL0     C66704  -0.776   5.772   2.555  0.0202  0.2065 -0.0243
  495MOL0     C66705  -0.914   5.808   2.495  0.1584 -0.6037 -0.6950
  495MOL0     C66706  -1.021   5.823   2.604 -0.5572  0.9545  1.5536
  495MOL0     N66707  -1.026   5.961   2.665 -0.1923  0.2994 -0.3848
  495MOL0     C66708  -1.078   6.083   2.610  0.7228  0.3316  0.3860
  495MOL0     C66709  -1.041   6.187   2.691  0.8684 -0.9491  0.8593
  495MOL0     C66710  -1.095   6.329   2.677  0.3616  0.1753 -0.5729
  495MOL0     C66711  -1.075   6.395   2.813  0.4328  0.0292  0.1872
  495MOL0     C66712  -1.148   6.536   2.808  0.7591 -0.5885  0.1134
  495MOL0     C66713  -1.128   6.623   2.930 -0.0966 -0.9903  0.0576
  495MOL0     O66714  -1.161   6.765   2.920  0.1489 -0.0132  0.2551
  495MOL0     C66715  -1.297   6.782   2.930 -0.5111  0.4670 -0.4604
  495MOL0     C66716  -1.365   6.795   3.055 -0.3939 -0.5386  0.8129
  495MOL0     C66717  -1.502   6.835   3.054 -0.1128  0.3996 -0.2099
  495MOL0     C66718  -1.548   6.860   3.200 -0.6762  0.1484 -0.1085
  495MOL0     C66719  -1.565   6.869   2.927  0.1061 -0.0735 -0.1240
  495MOL0     C66720  -1.692   6.943   2.919 -0.2427  0.4037  0.1013
  495MOL0     O66721  -1.784   6.884   2.849  0.1227  0.0143 -0.0667
  495MOL0     C66722  -1.894   6.955   2.794 -0.0588 -0.8601 -0.7640
  495MOL0     C66723  -1.890   7.087   2.733 -0.2887  0.4769  0.3324
  495MOL0     C66724  -1.995   7.130   2.656  0.2194 -0.5664  0.0377
  495MOL0     C66725  -2.117   7.061   2.660 -0.2026 -0.4204 -0.2493
  495MOL0     O66726  -2.229   7.099   2.592 -0.2740  0.0941  0.1520
  495MOL0     C66727  -2.258   7.234   2.580  1.0485 -0.1467 -0.2857
  495MOL0     C66728  -2.404   7.254   2.620  0.0450 -0.2538 -0.6081
  495MOL0     C66729  -2.441   7.205   2.758 -0.1344  1.4465 -0.3055
  495MOL0     C66730  -2.596   7.189   2.780 -0.0697 -0.5443  0.4177
  495MOL0     C66731  -2.647   7.169   2.925  0.2981 -0.1122  0.1238
  495MOL0     C66732  -2.588   7.052   2.995  0.4355  0.7719 -0.8369
  495MOL0     C66733  -2.594   7.064   3.147  0.2335  0.4918 -0.6277
  495MOL0     C66734  -2.465   7.125   3.208  0.5038  0.1909 -0.0858
  495MOL0    Cl66735  -2.428   7.022   3.348  0.1255  0.5671 -0.3365
  495MOL0     C66736  -2.120   6.932   2.711 -0.3031 -0.0143 -0.4649
  495MOL0     C66737  -2.014   6.884   2.790 -0.3166  0.2210  0.3418
  495MOL0     O66738  -1.704   7.048   2.981  0.4901  0.2154 -0.4299
  495MOL0     C66739  -1.494   6.867   2.809 -0.4006  0.1599 -0.5022
  495MOL0     C66740  -1.360   6.819   2.807 -0.0273 -0.3369 -0.0084
  495MOL0     N66741  -0.981   6.126   2.807  0.0186  0.6456 -0.1649
  495MOL0     N66742  -0.972   5.989   2.787  0.0618  0.1452  0.2498
  495MOL0     C66743  -0.282   5.301   3.084 -0.2066  0.4234 -0.1251
  495MOL0     C66744  -0.180   5.253   3.169 -1.3328 -0.6460  0.0651
  495MOL0     C66745   0.213   5.240   3.374  0.4583  0.4419  0.0054
  495MOL0     C66746   0.332   5.186   3.322  0.6250 -0.2672 -0.2080
  495MOL0     C66747   0.440   5.168   3.411 -1.0823 -0.2711  0.0268
  495MOL0     C66748   0.419   5.191   3.551  0.3967 -1.1927  0.4813
  495MOL0     O66749   0.505   5.163   3.648 -0.2971  0.2615  0.3872
  495MOL0     C66750   0.581   5.037   3.640 -0.0310  0.4767 -0.3179
  495MOL0     C66751   0.711   5.056   3.712 -0.7396 -0.1447  0.5858
  495MOL0     C66752   0.759   4.929   3.783 -0.3401  0.8244 -0.5062
  495MOL0     C66753   0.773   4.791   3.704  0.0454 -0.7166 -0.1036
  495MOL0     C66754   0.784   4.683   3.799 -0.4497 -0.2238  0.0760
  495MOL0     C66755   0.802   4.591   3.874 -0.5939 -0.4725 -0.3954
  495MOL0     C66756   0.298   5.229   3.607  0.6605 -0.3397 -0.4515
  495MOL0     C66757   0.191   5.256   3.514  0.6059 -0.2070 -0.2184
  495MOL0     H66758  -0.064   5.564   3.277 -3.2574 -0.2036  3.8049
  495MOL0     H66759  -0.216   5.636   3.102  1.1646  0.1496  0.6298
  495MOL0     H66760  -0.443   5.343   2.837  0.7277 -3.2566  3.1027
  495MOL0     H66761  -0.551   5.365   2.978 -1.1855 -1.7694 -3.2684
  495MOL0     H66762  -0.578   5.616   2.909 -2.1100 -0.1657  0.3734
  495MOL0     H66763  -0.513   5.565   2.751 -0.7449 -2.3324 -1.0928
  495MOL0     H66764  -0.673   5.405   2.712 -1.3326 -0.0994 -0.6603
  495MOL0     H66765  -0.749   5.436   2.871 -2.3063 -1.2514 -2.0460
  495MOL0     H66766  -0.891   5.552   2.750 -0.4307 -1.0397  2.4194
  495MOL0     H66767  -0.773   5.681   2.792  1.3359 -0.4722 -0.3840
  495MOL0     H66768  -0.641   5.616   2.593  0.0586 -0.9430  1.3209
  495MOL0     H66769  -0.796   5.549   2.526 -0.5754  0.4236 -0.5768
  495MOL0     H66770  -0.763   5.829   2.647  2.5431 -0.9914  0.4527
  495MOL0     H66771  -0.698   5.792   2.481  1.3420 -2.6250  0.4442
  495MOL0     H66772  -0.910   5.911   2.458 -3.9168  0.3703  1.0408
  495MOL0     H66773  -0.945   5.734   2.420 -1.7924 -0.2204 -0.3183
  495MOL0     H66774  -0.991   5.751   2.681 -0.6006  1.3873  1.9794
  495MOL0     H66775  -1.119   5.788   2.570  0.4412 -1.4464  0.9453
  495MOL0     H66776  -1.127   6.084   2.513  0.7204  0.0400  0.3860
  495MOL0     H66777  -1.041   6.388   2.602  0.5117 -0.2768 -0.8259
  495MOL0     H66778  -1.201   6.325   2.652  0.8422  0.5866 -2.9225
  495MOL0     H66779  -0.967   6.405   2.827  0.3111  1.6778  0.1587
  495MOL0     H66780  -1.130   6.334   2.885 -2.3314  2.6749  0.5244
  495MOL0     H66781  -1.256   6.520   2.806  0.3664  1.4552  1.8644
  495MOL0     H66782  -1.134   6.586   2.711 -1.1195 -1.7971 -0.8466
  495MOL0     H66783  -1.019   6.624   2.942 -0.2014 -0.5305  1.1230
  495MOL0     H66784  -1.177   6.569   3.012  0.3260 -0.8030  0.4380
  495MOL0     H66785  -1.307   6.773   3.144  0.9342  0.7123  0.2993
  495MOL0     H66786  -1.499   6.947   3.245 -1.7755  1.0488 -0.6111
  495MOL0     H66787  -1.655   6.885   3.202 -1.0881 -0.8147 -3.7292
  495MOL0     H66788  -1.532   6.776   3.269  3.6834  1.8637  1.2775
  495MOL0     H66789  -1.801   7.146   2.754 -0.7448  0.8681  1.2150
  495MOL0     H66790  -1.987   7.225   2.604 -0.9093 -0.1127  0.6630
  495MOL0     H66791  -2.207   7.291   2.659 -0.5956  2.2157 -0.8110
  495MOL0     H66792  -2.239   7.286   2.486 -2.4750  0.1240 -1.0024
  495MOL0     H66793  -2.421   7.362   2.620 -0.8628 -0.3605 -2.2349
  495MOL0     H66794  -2.470   7.217   2.541  0.4097  1.0504 -1.5602
  495MOL0     H66795  -2.407   7.278   2.832  0.1487  0.8539  0.1615
  495MOL0     H66796  -2.393   7.111   2.786 -3.1943  0.3076  1.6032
  495MOL0     H66797  -2.642   7.278   2.736  0.0456 -0.7374 -0.1024
  495MOL0     H66798  -2.621   7.108   2.710  5.8312 -2.2159 -0.3669
  495MOL0     H66799  -2.755   7.165   2.938  0.3372  2.7434  2.1939
  495MOL0     H66800  -2.611   7.263   2.969  0.6941 -0.1774 -0.0563
  495MOL0     H66801  -2.651   6.968   2.966  0.3986  0.7056 -0.5656
  495MOL0     H66802  -2.486   7.029   2.963 -0.8966 -1.7088 -3.7307
  495MOL0     H66803  -2.611   6.961   3.179 -1.2350  0.6177 -0.9507
  495MOL0     H66804  -2.674   7.126   3.188  0.0658  0.4567 -0.9037
  495MOL0     H66805  -2.487   7.229   3.234 -0.5544 -0.3786  1.4246
  495MOL0     H66806  -2.378   7.109   3.143  0.4966 -0.5870  0.0781
  495MOL0     H66807  -2.205   6.866   2.702  0.8488 -2.0019  2.1622
  495MOL0     H66808  -2.015   6.785   2.836  1.5263 -0.3759 -0.7696
  495MOL0     H66809  -1.534   6.902   2.714  1.3870  1.3923 -0.8533
  495MOL0     H66810  -1.297   6.834   2.721  0.2877 -1.4445  0.0220
  495MOL0     H66811  -0.322   5.221   3.023  1.8740 -0.8607  0.0810
  495MOL0     H66812  -0.167   5.145   3.171  1.3462 -0.5630 -3.6470
  495MOL0     H66813   0.341   5.168   3.216 -0.9648  0.8418 -0.5697
  495MOL0     H66814   0.542   5.154   3.374 -1.8557 -0.9377 -1.9976
  495MOL0     H66815   0.531   4.963   3.703  1.6303  0.6819  1.3501
  495MOL0     H66816   0.593   5.002   3.538  2.0123 -1.6790  0.5720
  495MOL0     H66817   0.696   5.142   3.778  0.5364 -0.5432  1.4183
  495MOL0     H66818   0.781   5.104   3.643 -1.9133  1.6999  0.5829
  495MOL0     H66819   0.690   4.917   3.868 -0.5021  1.3207 -0.5638
  495MOL0     H66820   0.855   4.966   3.821 -0.4395 -0.3647  1.0402
  495MOL0     H66821   0.865   4.796   3.646 -0.9227  0.5894 -1.6175
  495MOL0     H66822   0.691   4.778   3.632 -0.2741 -1.1182  0.3267
  495MOL0     H66823   0.821   4.508   3.938 -0.3614  0.0280  0.1870
  495MOL0     H66824   0.287   5.240   3.715 -1.6471  1.1949 -0.7615
  495MOL0     H66825   0.100   5.296   3.558  0.3920  0.4145 -1.1952
  496MOL0     O66826   0.358   5.611   2.298 -0.6881 -0.5586 -0.5909
  496MOL0     C66827   0.256   5.653   2.360  0.3561  0.1295 -1.1696
  496MOL0     O66828   0.202   5.583   2.474  0.4200 -0.2213 -0.0609
  496MOL0     C66829   0.219   5.442   2.458 -0.9979 -0.1546 -0.2086
  496MOL0     C66830   0.330   5.379   2.527  1.1054  0.1461 -0.0631
  496MOL0     C66831   0.349   5.244   2.534 -0.1002  0.1668  1.3257
  496MOL0     C66832   0.256   5.151   2.474  0.5455 -0.6043 -1.0610
  496MOL0     O66833   0.273   5.012   2.468 -0.3581 -1.1344  0.2487
  496MOL0     C66834   0.322   4.970   2.339  0.2858  0.1412 -0.3596
  496MOL0     C66835   0.475   4.953   2.341  0.8333  0.0973  0.3396
  496MOL0     C66836   0.498   4.877   2.214 -0.4140  0.2063  0.6103
  496MOL0     C66837   0.648   4.886   2.164 -0.4165 -0.3431  0.6171
  496MOL0     C66838   0.670   4.872   2.021  0.0716 -0.7209  0.7555
  496MOL0     C66839   0.616   4.754   1.945  0.8843  0.3109  0.0070
  496MOL0     C66840   0.714   4.634   1.959 -0.0157  0.3613  0.5191
  496MOL0     C66841   0.672   4.512   1.875 -0.1707 -0.6441 -0.2348
  496MOL0     N66842   0.788   4.426   1.871 -0.9869  1.0601  1.5529
  496MOL0     C66843   0.835   4.340   1.970  0.3773 -1.2828 -0.4342
  496MOL0     C66844   0.958   4.304   1.930 -0.0983  0.3043  0.1791
  496MOL0     C66845   1.051   4.219   2.005 -0.8293 -0.1057 -0.4828
  496MOL0     C66846   1.057   4.082   1.951 -0.0778  0.3536 -0.2428
  496MOL0     C66847   0.937   3.995   1.981 -0.4656  0.8081 -0.6240
  496MOL0     C66848   0.929   3.867   1.893 -0.2487 -0.7511 -0.8132
  496MOL0     O66849   0.926   3.879   1.749  1.2321 -0.1449  0.0074
  496MOL0     C66850   0.907   3.766   1.673 -0.4304 -0.2547 -0.2313
  496MOL0     C66851   0.926   3.769   1.531  0.0466  0.0032  0.1732
  496MOL0     C66852   0.910   3.647   1.454 -0.6179 -0.1934  0.4657
  496MOL0     C66853   0.946   3.671   1.313  0.0769 -1.1076  0.1107
  496MOL0     C66854   0.864   3.522   1.514 -0.5200  0.3950 -0.4161
  496MOL0     C66855   0.837   3.398   1.433  1.0145  0.3406 -0.2215
  496MOL0     O66856   0.786   3.299   1.511 -0.7672  0.0414  0.5717
  496MOL0     C66857   0.776   3.174   1.460  0.2754 -0.5757 -0.7242
  496MOL0     C66858   0.650   3.107   1.474  0.5780 -0.4872 -0.1827
  496MOL0     C66859   0.638   2.981   1.428 -0.6625  0.3132  0.2331
  496MOL0     C66860   0.753   2.909   1.383 -0.1693  0.4321 -0.8463
  496MOL0     O66861   0.746   2.769   1.367  0.2044  0.1438 -0.8088
  496MOL0     C66862   0.870   2.698   1.343  0.1032 -0.3447  0.0905
  496MOL0     C66863   0.850   2.547   1.317  0.3021  0.1231 -0.1481
  496MOL0     C66864   0.808   2.457   1.442  0.1575 -0.6228  0.7858
  496MOL0     C66865   0.787   2.311   1.403 -0.1853  0.6135  0.0341
  496MOL0     C66866   0.790   2.225   1.524 -1.0659 -0.3132  0.4938
  496MOL0     C66867   0.782   2.076   1.499 -0.1703  0.0909 -0.4336
  496MOL0     C66868   0.815   1.987   1.626 -0.5488 -0.6625  0.6350
  496MOL0     C66869   0.735   2.026   1.745 -0.9459  0.3048  0.2779
  496MOL0    Cl66870   0.756   1.908   1.877  0.0464  0.2933  0.2408
  496MOL0     C66871   0.869   2.975   1.361 -0.4853  0.4270 -0.6565
  496MOL0     C66872   0.886   3.110   1.404 -0.2649 -0.6798  1.0003
  496MOL0     O66873   0.836   3.397   1.307  0.1970 -0.4092  0.1557
  496MOL0     C66874   0.847   3.525   1.653  1.5388  0.9044  0.6405
  496MOL0     C66875   0.865   3.637   1.727 -0.7792 -0.4005 -0.0354
  496MOL0     N66876   0.984   4.359   1.809  0.2734  0.1500 -0.0198
  496MOL0     N66877   0.881   4.426   1.771  0.3077  0.2036 -0.5154
  496MOL0     C66878   0.147   5.222   2.403 -0.3862 -0.0863  0.4891
  496MOL0     C66879   0.130   5.359   2.399 -0.0183  0.3688 -0.1533
  496MOL0     C66880   0.203   5.791   2.331 -0.0331  0.7965  0.1578
  496MOL0     C66881   0.278   5.889   2.261 -0.6010  0.0827  0.0224
  496MOL0     C66882   0.220   6.013   2.239 -0.4810  0.9484 -0.5592
  496MOL0     C66883   0.095   6.049   2.289 -0.3289 -0.6117 -0.0314
  496MOL0     O66884   0.038   6.176   2.278  0.0637 -0.0106  0.3229
  496MOL0     C66885   0.108   6.287   2.221 -0.1046  0.3618 -0.5061
  496MOL0     C66886   0.159   6.367   2.341 -0.4996 -1.1877  0.1909
  496MOL0     C66887   0.222   6.490   2.284  0.1537  0.0224 -0.1738
  496MOL0     C66888   0.257   6.593   2.391 -0.2310 -0.3779  0.7334
  496MOL0     C66889   0.338   6.536   2.489 -0.8477 -0.0498  0.4036
  496MOL0     C66890   0.405   6.491   2.580  0.2105  0.5939  0.0477
  496MOL0     C66891   0.020   5.949   2.345  0.2718 -0.2578 -0.4492
  496MOL0     C66892   0.076   5.824   2.371 -0.9009 -0.2914 -0.4581
  496MOL0     H66893   0.403   5.451   2.565  0.7555  0.6229 -0.2853
  496MOL0     H66894   0.433   5.195   2.582 -0.4323 -2.3860 -0.4968
  496MOL0     H66895   0.272   4.879   2.305  1.0359 -0.0971 -0.8681
  496MOL0     H66896   0.295   5.040   2.259 -1.3811  1.0938  0.9849
  496MOL0     H66897   0.520   5.052   2.349  3.8472 -1.1997  0.9333
  496MOL0     H66898   0.502   4.889   2.425 -1.1349  0.8708  1.6233
  496MOL0     H66899   0.460   4.776   2.229  0.6954 -0.1931  0.8379
  496MOL0     H66900   0.444   4.926   2.133  3.1659  2.3611 -0.7098
  496MOL0     H66901   0.696   4.980   2.189  2.0762 -0.9957 -1.3625
  496MOL0     H66902   0.697   4.803   2.216  0.9801  1.2430  1.9147
  496MOL0     H66903   0.624   4.966   1.987 -0.7755 -1.7736 -1.1932
  496MOL0     H66904   0.776   4.874   1.994  0.0323  0.8494  0.6250
  496MOL0     H66905   0.519   4.720   1.982 -0.0074  3.4204  0.8454
  496MOL0     H66906   0.604   4.772   1.838 -0.1578  0.3589  0.1275
  496MOL0     H66907   0.808   4.678   1.924 -0.3489  1.6380  1.1980
  496MOL0     H66908   0.737   4.603   2.062 -1.1822  0.2630  0.7592
  496MOL0     H66909   0.633   4.547   1.779 -1.0558  1.2879  0.7821
  496MOL0     H66910   0.590   4.479   1.939  1.1459  1.2892  2.6211
  496MOL0     H66911   0.791   4.314   2.066 -2.5604 -1.5955 -1.7630
  496MOL0     H66912   1.149   4.266   1.995 -1.1594  0.2364 -2.7209
  496MOL0     H66913   1.011   4.221   2.107 -0.8377  0.3926 -0.4911
  496MOL0     H66914   1.147   4.036   1.991  0.0433  0.0119 -0.8862
  496MOL0     H66915   1.075   4.087   1.843  2.9522  1.4135  0.2461
  496MOL0     H66916   0.847   4.057   1.974 -3.4615 -2.9900  0.6147
  496MOL0     H66917   0.941   3.954   2.083  1.1785 -3.5987 -2.2361
  496MOL0     H66918   0.828   3.829   1.913 -1.2927  1.4087 -1.6855
  496MOL0     H66919   1.009   3.801   1.929  2.7239  2.0379 -1.7785
  496MOL0     H66920   0.942   3.861   1.475  0.7328  0.1077  0.5344
  496MOL0     H66921   0.973   3.589   1.246 -0.1962  0.5795 -2.1674
  496MOL0     H66922   0.862   3.723   1.268  0.9418  1.2038  1.0430
  496MOL0     H66923   1.036   3.733   1.307 -0.1839 -0.7902 -0.6158
  496MOL0     H66924   0.562   3.149   1.520  0.6632  0.3127 -0.7344
  496MOL0     H66925   0.551   2.925   1.462 -0.7126 -0.5737 -1.2748
  496MOL0     H66926   0.912   2.742   1.252  1.1158  0.1244  0.7576
  496MOL0     H66927   0.945   2.703   1.423 -0.2419  0.6613  0.3590
  496MOL0     H66928   0.774   2.540   1.238  1.7839  0.4017 -1.6611
  496MOL0     H66929   0.940   2.499   1.279 -0.5172  0.1026 -2.2068
  496MOL0     H66930   0.714   2.498   1.480  0.3775 -1.3018  2.1404
  496MOL0     H66931   0.883   2.481   1.518  0.1677  3.7655 -0.3684
  496MOL0     H66932   0.698   2.284   1.347  0.3044  1.9467 -1.4690
  496MOL0     H66933   0.872   2.276   1.343 -0.8845  1.1235 -1.2746
  496MOL0     H66934   0.709   2.252   1.592 -0.5636  1.1465  0.5428
  496MOL0     H66935   0.889   2.242   1.567  0.0634  3.1770 -2.9305
  496MOL0     H66936   0.680   2.056   1.467 -1.0915  5.2543 -1.7216
  496MOL0     H66937   0.849   2.032   1.425 -1.5169 -2.1607 -0.3910
  496MOL0     H66938   0.922   2.000   1.644 -0.6822  1.9403 -0.0814
  496MOL0     H66939   0.798   1.881   1.601  2.8763 -1.1265 -0.2243
  496MOL0     H66940   0.631   2.035   1.715 -0.8164  2.0953  0.2734
  496MOL0     H66941   0.775   2.116   1.791  0.0102 -0.0335  0.1341
  496MOL0     H66942   0.964   2.925   1.345 -1.3886 -2.0100  0.9537
  496MOL0     H66943   0.975   3.173   1.403 -1.7511  1.9278 -4.1721
  496MOL0     H66944   0.838   3.426   1.696 -0.1209  0.3713 -0.7890
  496MOL0     H66945   0.861   3.624   1.835  0.1095 -0.8849 -0.0552
  496MOL0     H66946   0.072   5.160   2.355 -0.9498 -1.2145  2.6583
  496MOL0     H66947   0.032   5.387   2.363  0.1409  2.5888  0.9677
  496MOL0     H66948   0.379   5.861   2.232 -0.5388  1.9348 -1.7024
  496MOL0     H66949   0.270   6.091   2.182  0.1614  2.7879  2.3508
  496MOL0     H66950   0.185   6.267   2.146 -2.9015  1.5673 -4.0093
  496MOL0     H66951   0.041   6.353   2.166 -1.1835 -1.7215 -1.8243
  496MOL0     H66952   0.226   6.310   2.406 -1.8095  1.6264  4.4493
  496MOL0     H66953   0.069   6.398   2.395 -0.9422  0.5631 -1.4599
  496MOL0     H66954   0.153   6.537   2.213 -1.0793 -0.9764  0.3210
  496MOL0     H66955   0.313   6.479   2.226  0.0337  0.1456 -0.3842
  496MOL0     H66956   0.163   6.630   2.431  1.3168  4.6919  0.3967
  496MOL0     H66957   0.299   6.685   2.349  0.4020 -0.1450  1.8148
  496MOL0     H66958   0.457   6.442   2.660  0.2018  0.6279  0.0739
  496MOL0     H66959  -0.084   5.958   2.376 -0.4537 -2.8601 -1.8241
  496MOL0     H66960   0.016   5.748   2.419 -0.2086  0.3656  1.5753
  497MOL0     O66961   4.635   7.108   0.294  0.1508 -0.2750  0.4381
  497MOL0     C66962   4.611   7.048   0.397  1.0844  0.7542 -0.8902
  497MOL0     O66963   4.508   7.074   0.490  0.4587  0.0316  0.6908
  497MOL0     C66964   4.424   7.176   0.452 -0.3548 -0.3219  0.5104
  497MOL0     C66965   4.446   7.307   0.489 -0.0481 -0.7472 -0.3519
  497MOL0     C66966   4.361   7.407   0.444 -0.5807  0.5113 -0.4128
  497MOL0     C66967   4.251   7.383   0.360  0.0942 -0.5073 -0.9209
  497MOL0     O66968   4.170   7.487   0.336  0.4699 -0.1269  0.3320
  497MOL0     C66969   4.030   7.470   0.327  0.1921 -0.4551 -0.7720
  497MOL0     C66970   3.965   7.408   0.456  0.2384 -0.3642  0.7841
  497MOL0     C66971   3.934   7.497   0.572 -0.6364 -0.4099  0.2502
  497MOL0     C66972   3.853   7.420   0.673  0.0914 -0.8842  0.2854
  497MOL0     C66973   3.785   7.522   0.768  0.1270 -0.6121 -0.1308
  497MOL0     C66974   3.713   7.438   0.866  0.5973  0.5855  1.2478
  497MOL0     C66975   3.640   7.525   0.968  0.2667  0.1353  0.1069
  497MOL0     C66976   3.529   7.438   1.043 -0.3195 -0.3084 -0.7749
  497MOL0     N66977   3.461   7.513   1.148 -0.1471 -0.1775  0.0922
  497MOL0     C66978   3.526   7.553   1.259 -0.1819 -0.8074  0.4804
  497MOL0     C66979   3.429   7.613   1.330 -0.1180  0.4400 -0.1897
  497MOL0     C66980   3.420   7.677   1.468 -0.2076 -0.0294  0.2111
  497MOL0     C66981   3.550   7.671   1.541 -0.2372  1.3933 -0.6103
  497MOL0     C66982   3.635   7.779   1.499 -0.6979  0.0311 -0.4049
  497MOL0     C66983   3.771   7.764   1.556 -0.0480 -0.1626  0.3584
  497MOL0     O66984   3.777   7.828   1.686  0.0182  0.3450 -0.1516
  497MOL0     C66985   3.891   7.838   1.747  0.2138  0.8182 -0.2614
  497MOL0     C66986   3.906   7.934   1.845  0.8110  0.1404 -0.2317
  497MOL0     C66987   4.016   7.943   1.929  0.4176 -0.8786  0.1212
  497MOL0     C66988   3.999   8.046   2.049 -0.7386  0.9820  0.6754
  497MOL0     C66989   4.132   7.864   1.911 -0.1426 -0.4615 -0.7158
  497MOL0     C66990   4.263   7.882   1.984 -0.1544 -0.2349  0.5653
  497MOL0     O66991   4.366   7.798   1.964 -0.2282 -0.0175 -0.5258
  497MOL0     C66992   4.481   7.812   2.039  0.4775 -0.3903  0.6187
  497MOL0     C66993   4.481   7.799   2.170  0.2009 -0.4899  0.0953
  497MOL0     C66994   4.598   7.799   2.245  0.4107 -0.1108 -0.8487
  497MOL0     C66995   4.720   7.822   2.187 -0.2915  0.3516  0.6069
  497MOL0     O66996   4.833   7.848   2.260  0.1223  0.5882  0.1481
  497MOL0     C66997   4.943   7.758   2.243 -0.2890 -0.3233 -0.3127
  497MOL0     C66998   5.066   7.808   2.325  0.3159  0.2927 -0.1285
  497MOL0     C66999   5.172   7.698   2.335 -0.3346 -0.2181 -0.1901
  497MOL0     C67000   5.252   7.711   2.463  0.0370  1.3965 -0.0910
  497MOL0     C67001   5.380   7.636   2.472  0.1588  0.0108 -0.1822
  497MOL0     C67002   5.386   7.489   2.513  0.0739 -0.4136 -0.4134
  497MOL0     C67003   5.329   7.444   2.647 -0.6047  0.6431  0.1487
  497MOL0     C67004   5.366   7.539   2.758 -0.1342 -0.2234 -0.1858
  497MOL0    Cl67005   5.295   7.490   2.915 -0.0188  0.1542  0.2813
  497MOL0     C67006   4.715   7.858   2.046 -0.7465 -1.1526 -0.1706
  497MOL0     C67007   4.599   7.844   1.973 -0.2186  0.0191  0.3995
  497MOL0     O67008   4.269   7.982   2.058 -0.1481  0.9150 -0.2612
  497MOL0     C67009   4.123   7.762   1.810 -0.0005 -0.3706  0.3539
  497MOL0     C67010   4.004   7.750   1.725  0.1630  1.0458 -0.6922
  497MOL0     N67011   3.308   7.610   1.257 -0.9314 -0.2466 -0.0218
  497MOL0     N67012   3.331   7.552   1.148  0.8862 -0.6172 -0.0532
  497MOL0     C67013   4.232   7.249   0.324 -1.2261  0.0357  0.5945
  497MOL0     C67014   4.324   7.149   0.360 -0.7230  1.0488  0.0348
  497MOL0     C67015   4.691   6.925   0.444 -0.2322  0.6981  0.8892
  497MOL0     C67016   4.647   6.836   0.542  1.0091  0.1129 -0.0069
  497MOL0     C67017   4.723   6.725   0.581 -0.5769 -0.2892 -0.4857
  497MOL0     C67018   4.849   6.700   0.518  0.7285 -0.6433 -1.0218
  497MOL0     O67019   4.927   6.596   0.552 -0.4853  0.4396 -0.1391
  497MOL0     C67020   4.873   6.500   0.644 -0.2444 -0.3649  0.0951
  497MOL0     C67021   4.969   6.382   0.630 -0.2083  0.6123  0.4475
  497MOL0     C67022   4.949   6.275   0.740 -0.2026  0.3382 -0.3171
  497MOL0     C67023   5.022   6.142   0.724  0.2186 -0.4178  0.1522
  497MOL0     C67024   4.970   6.039   0.814 -0.8170 -0.2082  0.0180
  497MOL0     C67025   4.915   5.951   0.877  0.5778  0.2092  0.2111
  497MOL0     C67026   4.894   6.798   0.426 -0.2384 -0.5317  0.1279
  497MOL0     C67027   4.817   6.910   0.386  0.7043  0.4744 -0.7079
  497MOL0     H67028   4.534   7.333   0.548  1.5310 -2.0891 -1.9709
  497MOL0     H67029   4.367   7.511   0.476 -1.1451 -0.0374  1.6271
  497MOL0     H67030   3.990   7.571   0.310  2.8344  0.9456  0.6348
  497MOL0     H67031   4.007   7.411   0.238 -3.5328  3.4852 -2.7997
  497MOL0     H67032   3.874   7.354   0.431 -0.7024  0.9487  1.2572
  497MOL0     H67033   4.028   7.333   0.503 -0.6086 -2.5356 -1.3788
  497MOL0     H67034   4.031   7.528   0.613 -0.3474 -0.6318 -0.2588
  497MOL0     H67035   3.871   7.581   0.541  1.0454  0.9324  0.3100
  497MOL0     H67036   3.785   7.345   0.630  1.8506 -1.1459 -2.2244
  497MOL0     H67037   3.932   7.357   0.715  0.9084 -0.1922 -0.1784
  497MOL0     H67038   3.856   7.589   0.816  0.3086 -1.1652  0.3777
  497MOL0     H67039   3.709   7.577   0.712 -1.6732 -1.3039  1.5400
  497MOL0     H67040   3.641   7.376   0.812 -0.5473 -1.1753  4.4657
  497MOL0     H67041   3.786   7.371   0.913 -0.8918 -0.1483  2.6233
  497MOL0     H67042   3.716   7.566   1.035  2.3830  1.0313 -2.6727
  497MOL0     H67043   3.592   7.612   0.923 -0.0169 -0.3516 -0.5513
  497MOL0     H67044   3.569   7.348   1.090  0.6495  1.2965  1.6575
  497MOL0     H67045   3.452   7.416   0.968 -0.8064 -0.5333 -0.2216
  497MOL0     H67046   3.632   7.540   1.282  0.3853  1.5338 -0.5029
  497MOL0     H67047   3.391   7.782   1.464 -1.3439 -0.2837  1.1372
  497MOL0     H67048   3.335   7.629   1.518 -1.1535 -0.8096 -2.0257
  497MOL0     H67049   3.605   7.578   1.525 -0.5138  1.4116 -1.7501
  497MOL0     H67050   3.528   7.686   1.647 -1.8446  3.5003 -1.1854
  497MOL0     H67051   3.589   7.873   1.532 -0.6667  0.1226 -0.6214
  497MOL0     H67052   3.648   7.781   1.390  2.5678  0.1711 -0.1151
  497MOL0     H67053   3.851   7.807   1.495  0.5530 -2.3630 -0.4903
  497MOL0     H67054   3.785   7.658   1.577 -4.5205 -1.0968 -0.4540
  497MOL0     H67055   3.819   7.992   1.875  1.0937 -0.1434  1.2281
  497MOL0     H67056   4.054   8.137   2.025  3.0959 -1.0891  0.7711
  497MOL0     H67057   3.893   8.069   2.060 -0.5993  0.9217  2.3433
  497MOL0     H67058   4.033   7.996   2.140  3.9544  1.4262 -0.5699
  497MOL0     H67059   4.391   7.768   2.222  1.4493 -2.5817  1.1598
  497MOL0     H67060   4.598   7.792   2.354  0.6476  1.9710 -0.6728
  497MOL0     H67061   4.922   7.653   2.268  1.1848 -0.5862 -0.1258
  497MOL0     H67062   4.986   7.769   2.143 -0.4674 -1.8090 -0.5850
  497MOL0     H67063   5.111   7.905   2.305  1.5784 -0.6790 -2.3505
  497MOL0     H67064   5.032   7.805   2.429 -1.2485  0.7158 -0.5911
  497MOL0     H67065   5.241   7.699   2.250  1.3182  0.1531  1.1129
  497MOL0     H67066   5.128   7.597   2.338 -2.7222  0.7665 -0.2259
  497MOL0     H67067   5.275   7.816   2.484  1.4874  1.0640  0.1236
  497MOL0     H67068   5.187   7.675   2.544 -1.1522  0.2651 -1.4955
  497MOL0     H67069   5.440   7.686   2.549 -0.5745 -2.2472  1.9790
  497MOL0     H67070   5.419   7.648   2.370 -0.7886 -0.9372 -0.6772
  497MOL0     H67071   5.335   7.432   2.435  0.7740 -1.1817 -0.3183
  497MOL0     H67072   5.490   7.455   2.505  0.5303  0.6786  0.5671
  497MOL0     H67073   5.368   7.345   2.672 -3.4588 -0.4801  0.5897
  497MOL0     H67074   5.222   7.426   2.632 -0.6041  2.0850 -2.0793
  497MOL0     H67075   5.324   7.637   2.731 -3.3225 -1.7851 -1.2942
  497MOL0     H67076   5.475   7.546   2.762 -0.1035  1.0085 -1.6530
  497MOL0     H67077   4.802   7.879   1.983 -1.4031 -1.1991 -1.1150
  497MOL0     H67078   4.603   7.865   1.866  1.3656  0.5025  0.5190
  497MOL0     H67079   4.203   7.689   1.793  1.5900  1.2514  0.5919
  497MOL0     H67080   3.989   7.660   1.666 -0.5001 -1.1947  2.6311
  497MOL0     H67081   4.149   7.219   0.261  0.3369 -0.4081 -1.3452
  497MOL0     H67082   4.318   7.048   0.321  0.8693  0.4602  1.1954
  497MOL0     H67083   4.554   6.862   0.592  0.2016 -2.7333  0.1581
  497MOL0     H67084   4.675   6.654   0.648  0.9009 -0.8938 -0.0208
  497MOL0     H67085   4.867   6.543   0.745 -2.3225  1.0525 -0.5429
  497MOL0     H67086   4.774   6.461   0.618 -0.5003  0.9754 -1.0888
  497MOL0     H67087   5.071   6.417   0.648 -0.4410  2.5465 -1.6165
  497MOL0     H67088   4.975   6.342   0.529 -0.1695 -0.7040  0.9589
  497MOL0     H67089   4.842   6.258   0.729 -0.8599  1.8749  2.6402
  497MOL0     H67090   4.976   6.314   0.839  2.9383 -1.5450 -0.3013
  497MOL0     H67091   5.130   6.150   0.741 -0.1902  1.2382  2.4390
  497MOL0     H67092   4.996   6.112   0.622 -5.5273  1.2422  0.8029
  497MOL0     H67093   4.868   5.878   0.940  0.4677 -0.9671 -1.1834
  497MOL0     H67094   4.990   6.778   0.378  0.6609  0.2925  1.5021
  497MOL0     H67095   4.856   6.987   0.320  1.3514  0.2840 -0.5501
  498MOL0     O67096   5.585  10.918   9.838 -0.9473  0.1589 -0.5062
  498MOL0     C67097   5.546  10.906   9.722  0.0044  0.2679 -0.3242
  498MOL0     O67098   5.461  10.980   9.653 -0.1127  0.6247  0.1375
  498MOL0     C67099   5.438  11.113   9.683 -0.3748 -0.6305 -0.0811
  498MOL0     C67100   5.361  11.173   9.585 -0.0757  0.0138  0.0370
  498MOL0     C67101   5.330  11.308   9.591  0.9615  0.3057 -0.8183
  498MOL0     C67102   5.369  11.390   9.700 -0.2475 -0.4765  0.0848
  498MOL0     O67103   5.332  11.524   9.708  0.3151 -0.3082 -0.1510
  498MOL0     C67104   5.258  11.574   9.819 -0.5743  0.3233 -0.7875
  498MOL0     C67105   5.321  11.714   9.869 -0.2954  0.9158  0.8096
  498MOL0     C67106   5.278  11.827   9.771 -0.8181 -0.4532  0.3697
  498MOL0     C67107   5.283  11.965   9.830  0.1102 -0.9104  0.2585
  498MOL0     C67108   5.189  12.063   9.764  0.1349  0.1451  0.2780
  498MOL0     C67109   5.170  12.186   9.834 -0.4575 -0.7963 -0.4720
  498MOL0     C67110   5.035  12.252   9.810 -0.7124 -0.1290 -0.2839
  498MOL0     C67111   5.013  12.372   9.905  0.3913  0.2763  0.5872
  498MOL0     N67112   4.889  12.437   9.863  0.9821 -0.0175  1.2971
  498MOL0     C67113   4.869  12.568   9.814 -0.6815  0.8423 -0.3572
  498MOL0     C67114   4.737  12.588   9.807  0.8997 -0.4934  0.5837
  498MOL0     C67115   4.676  12.716   9.758  0.3626 -0.6605  0.1159
  498MOL0     C67116   4.630  12.805   9.878 -0.0914  0.1949  0.9473
  498MOL0     C67117   4.495  12.769   9.933 -0.4279  0.0987 -0.0811
  498MOL0     C67118   4.432  12.887  10.002 -0.9092 -0.1227 -0.4792
  498MOL0     O67119   4.370  12.962   9.900 -0.3437  0.1268 -0.2763
  498MOL0     C67120   4.232  12.965   9.900 -0.3210  0.3196  0.0766
  498MOL0     C67121   4.156  12.983  10.019  0.3721 -0.5883  1.0293
  498MOL0     C67122   4.017  12.979  10.020  0.0052  0.3127  0.3497
  498MOL0     C67123   3.953  12.973  10.154 -0.4391  0.0872  0.8297
  498MOL0     C67124   3.947  12.961   9.905  0.4336 -0.0119 -1.0661
  498MOL0     C67125   3.803  12.963   9.904  0.2437  0.8632 -0.0936
  498MOL0     O67126   3.730  13.067   9.959 -0.5487 -0.1158  0.8775
  498MOL0     C67127   3.598  13.075   9.961 -0.3645 -0.3723 -0.3464
  498MOL0     C67128   3.556  13.207   9.969 -0.3815 -0.0380  0.4184
  498MOL0     C67129   3.424  13.237  10.002 -1.0905  0.2468  0.2997
  498MOL0     C67130   3.338  13.137  10.043  0.4567 -0.1052  0.2758
  498MOL0     O67131   3.207  13.174  10.054  0.5385  0.8703  0.1675
  498MOL0     C67132   3.174  13.287  10.131 -0.0173 -0.7882 -0.0721
  498MOL0     C67133   3.080  13.262  10.247 -0.0085  0.3314  0.0370
  498MOL0     C67134   2.930  13.245  10.209  0.0516 -0.2309 -0.1413
  498MOL0     C67135   2.838  13.231  10.333 -0.2099  1.0969  0.4222
  498MOL0     C67136   2.692  13.244  10.316  0.1285  0.3442 -0.3821
  498MOL0     C67137   2.621  13.275  10.438  0.1757 -0.2539  0.2747
  498MOL0     C67138   2.478  13.281  10.433 -0.4965  0.1136 -0.6522
  498MOL0     C67139   2.397  13.297  10.567 -1.3633  0.3530  0.0101
  498MOL0    Cl67140   2.450  13.444  10.637  0.2848 -0.3586 -0.4444
  498MOL0     C67141   3.371  13.005  10.029  0.0994 -0.1350 -0.7520
  498MOL0     C67142   3.509  12.981  10.007  0.3496  0.2357 -0.7284
  498MOL0     O67143   3.760  12.868   9.841  0.3837 -0.4830 -0.1841
  498MOL0     C67144   4.021  12.927   9.787  0.3577  0.5106 -0.5842
  498MOL0     C67145   4.165  12.934   9.780  0.4365 -0.8876  0.4351
  498MOL0     N67146   4.682  12.477   9.869  0.4611  0.4213  0.5093
  498MOL0     N67147   4.772  12.389   9.889  0.1405  0.5502  0.2006
  498MOL0     C67148   5.430  11.324   9.810 -0.8358  0.4779 -0.1962
  498MOL0     C67149   5.464  11.190   9.803  1.7998  0.5179  0.7308
  498MOL0     C67150   5.597  10.782   9.660  0.3689 -0.5661  1.0310
  498MOL0     C67151   5.619  10.667   9.742  0.1329  0.1846  0.2888
  498MOL0     C67152   5.662  10.551   9.671 -0.9704  0.6801  0.2857
  498MOL0     C67153   5.702  10.555   9.529 -0.3142 -0.2376 -0.2261
  498MOL0     O67154   5.743  10.447   9.457  0.0328 -0.1424 -0.4324
  498MOL0     C67155   5.885  10.408   9.487 -0.9492 -0.2521 -0.0511
  498MOL0     C67156   5.987  10.498   9.414 -0.0950  0.1506  0.6945
  498MOL0     C67157   5.957  10.471   9.258  0.6723  0.8630 -0.7252
  498MOL0     C67158   6.071  10.499   9.154 -0.5067 -0.3718 -0.0246
  498MOL0     C67159   6.179  10.404   9.169 -1.2195 -0.0786  0.8303
  498MOL0     C67160   6.273  10.331   9.158 -0.2145 -0.5267  0.1464
  498MOL0     C67161   5.681  10.672   9.460 -0.1161  0.1299  0.8351
  498MOL0     C67162   5.638  10.782   9.523 -0.4304 -0.5114  0.0754
  498MOL0     H67163   5.333  11.114   9.498 -0.8466  0.6430 -0.1528
  498MOL0     H67164   5.273  11.361   9.515 -1.0672 -0.8740 -0.2040
  498MOL0     H67165   5.154  11.594   9.790 -0.8592  0.6129  0.3588
  498MOL0     H67166   5.258  11.499   9.899  0.8800 -0.8341 -1.8328
  498MOL0     H67167   5.280  11.727   9.969 -2.5079 -1.1044  0.2665
  498MOL0     H67168   5.429  11.711   9.885 -0.3605  3.2902  2.0975
  498MOL0     H67169   5.323  11.819   9.671 -0.8520 -2.3364  0.4713
  498MOL0     H67170   5.172  11.808   9.754 -0.4970 -1.8111 -0.3503
  498MOL0     H67171   5.248  11.963   9.933  0.1441  1.0120  0.3324
  498MOL0     H67172   5.386  12.002   9.824 -0.0338 -0.4135  0.7471
  498MOL0     H67173   5.218  12.094   9.663  1.6972  0.5852  0.8414
  498MOL0     H67174   5.090  12.017   9.752  0.2247  0.2883 -1.1641
  498MOL0     H67175   5.190  12.171   9.941  0.8227  0.3460 -0.5274
  498MOL0     H67176   5.248  12.254   9.797 -0.6181 -0.9808 -1.1587
  498MOL0     H67177   5.034  12.286   9.706  2.8821 -1.0133 -0.7274
  498MOL0     H67178   4.948  12.186   9.821 -0.3784 -1.0830 -2.8101
  498MOL0     H67179   5.101  12.437   9.917  0.6289  0.3439 -1.2300
  498MOL0     H67180   4.993  12.342  10.008  2.4619  0.8262  1.2109
  498MOL0     H67181   4.948  12.634   9.780 -1.2668  1.3599 -0.7307
  498MOL0     H67182   4.750  12.764   9.694 -1.1849  0.1270 -1.1471
  498MOL0     H67183   4.591  12.692   9.693 -0.2306  0.6125  0.3941
  498MOL0     H67184   4.624  12.908   9.842 -1.5021 -0.3710 -0.5861
  498MOL0     H67185   4.711  12.795   9.950  1.7304 -0.0603 -1.0110
  498MOL0     H67186   4.516  12.690  10.006  1.7221  0.7791  0.1148
  498MOL0     H67187   4.429  12.728   9.856  1.9502 -2.1538 -1.0804
  498MOL0     H67188   4.508  12.954  10.043 -1.8799  0.5406  0.2948
  498MOL0     H67189   4.367  12.852  10.083 -2.0624  0.0517 -1.2968
  498MOL0     H67190   4.213  12.999  10.110  1.3750 -0.8158  0.4663
  498MOL0     H67191   3.873  12.901  10.136  0.3199 -0.4076 -0.6686
  498MOL0     H67192   4.027  12.956  10.233 -2.2234  0.9843  2.7885
  498MOL0     H67193   3.897  13.065  10.173  0.2037  1.1510 -1.9681
  498MOL0     H67194   3.622  13.292   9.954 -0.6906  0.1100 -0.1143
  498MOL0     H67195   3.401  13.343  10.002  0.7331  0.6757  1.0457
  498MOL0     H67196   3.260  13.339  10.174  0.0445 -1.0196  0.0882
  498MOL0     H67197   3.121  13.349  10.059 -0.2198  0.2179  0.9160
  498MOL0     H67198   3.106  13.170  10.300  0.5198  0.3127 -0.2513
  498MOL0     H67199   3.108  13.346  10.311  0.2283  1.0201 -0.9503
  498MOL0     H67200   2.917  13.157  10.145 -0.9576  0.2913 -0.6694
  498MOL0     H67201   2.896  13.337  10.162  1.3021 -0.9832 -2.6692
  498MOL0     H67202   2.866  13.134  10.377  0.8190 -0.5144 -3.3797
  498MOL0     H67203   2.869  13.312  10.399  1.3369  0.5078  0.4631
  498MOL0     H67204   2.662  13.153  10.263 -4.6213  2.0550 -1.1332
  498MOL0     H67205   2.669  13.318  10.238 -2.0765 -1.0934 -1.1980
  498MOL0     H67206   2.657  13.201  10.511  3.8124  1.1497  0.0775
  498MOL0     H67207   2.645  13.376  10.470 -1.8203  0.4047 -0.1526
  498MOL0     H67208   2.459  13.187  10.380  1.1930  0.8499 -2.6923
  498MOL0     H67209   2.449  13.365  10.368 -0.4203  1.0359  0.4802
  498MOL0     H67210   2.418  13.210  10.629  1.7323 -1.4957 -3.2733
  498MOL0     H67211   2.294  13.306  10.530 -1.8308  3.1459  1.6962
  498MOL0     H67212   3.299  12.933  10.068  1.7825 -0.0245  3.0218
  498MOL0     H67213   3.545  12.878  10.011  0.2820  0.2336 -0.1795
  498MOL0     H67214   3.969  12.906   9.694 -3.3520 -0.4684  1.4928
  498MOL0     H67215   4.222  12.919   9.689 -2.0561 -1.6686 -1.1004
  498MOL0     H67216   5.454  11.384   9.898 -3.2127  1.1810  0.0293
  498MOL0     H67217   5.526  11.146   9.880  0.1305 -0.6818  1.4458
  498MOL0     H67218   5.601  10.649   9.847  2.4318 -0.4703  0.6235
  498MOL0     H67219   5.675  10.458   9.724 -3.1313  0.8436  1.2197
  498MOL0     H67220   5.912  10.408   9.593  2.1786 -2.3214 -0.7335
  498MOL0     H67221   5.891  10.303   9.456  2.2856  0.2178 -1.3930
  498MOL0     H67222   6.092  10.480   9.438 -0.2980 -0.6340  1.0317
  498MOL0     H67223   5.971  10.605   9.423  4.6962  1.5999 -3.3656
  498MOL0     H67224   5.861  10.518   9.233  0.3242 -0.1902 -1.4423
  498MOL0     H67225   5.935  10.365   9.242 -1.9036  1.2191 -0.0491
  498MOL0     H67226   6.112  10.600   9.157  1.3254 -0.9669 -2.0114
  498MOL0     H67227   6.029  10.494   9.053 -1.5143  1.7804  0.2422
  498MOL0     H67228   6.358  10.267   9.161 -0.4061 -0.7605  1.7971
  498MOL0     H67229   5.702  10.662   9.354  0.7571 -3.0354  1.1937
  498MOL0     H67230   5.628  10.876   9.469  0.5397  1.6588  3.4085
  499MOL0     O67231   1.717   8.994   1.066 -0.8411  0.1767 -0.0640
  499MOL0     C67232   1.746   8.971   1.180 -0.5144 -0.1644 -1.1278
  499MOL0     O67233   1.830   8.881   1.225 -0.5921  0.2433 -0.4011
  499MOL0     C67234   1.831   8.770   1.138 -0.2572 -0.3590 -1.1274
  499MOL0     C67235   1.749   8.655   1.170 -0.8018  0.1179 -0.5527
  499MOL0     C67236   1.736   8.545   1.080 -0.0312  0.0894 -0.0778
  499MOL0     C67237   1.805   8.545   0.958 -0.7091  0.4522 -0.4311
  499MOL0     O67238   1.795   8.440   0.865  0.4858 -0.1343 -0.0126
  499MOL0     C67239   1.662   8.382   0.855  0.0739 -0.9798 -0.6918
  499MOL0     C67240   1.639   8.318   0.713 -0.6690 -0.2485 -0.1767
  499MOL0     C67241   1.687   8.403   0.597 -0.2454  0.1600 -0.9013
  499MOL0     C67242   1.633   8.546   0.607  0.3200 -0.2936 -0.2065
  499MOL0     C67243   1.666   8.617   0.478 -1.0811 -0.3439  0.4885
  499MOL0     C67244   1.561   8.612   0.358 -0.0293 -0.0004  0.0246
  499MOL0     C67245   1.613   8.665   0.227  0.6148 -0.0326  0.6025
  499MOL0     C67246   1.597   8.814   0.206 -0.6947  1.1965  0.0670
  499MOL0     N67247   1.656   8.858   0.081 -0.5173 -0.1770  0.1264
  499MOL0     C67248   1.790   8.858   0.063 -1.0179  0.6514  1.0692
  499MOL0     C67249   1.798   8.938  -0.048 -1.4083  0.3409 -0.0935
  499MOL0     C67250   1.917   8.935  -0.133 -0.4307 -0.0147 -1.3294
  499MOL0     C67251   1.986   9.074  -0.168  0.5298 -0.2742  0.0418
  499MOL0     C67252   1.986   9.099  -0.321 -0.1660  1.0904  0.5360
  499MOL0     C67253   1.843   9.111  -0.371 -0.5730  0.8580  0.0490
  499MOL0     O67254   1.870   9.124  -0.516 -0.7138  1.0227  1.1310
  499MOL0     C67255   1.769   9.143  -0.604  0.4051 -0.0396 -0.2077
  499MOL0     C67256   1.798   9.188  -0.725  0.2119 -0.5497  0.0610
  499MOL0     C67257   1.701   9.199  -0.829 -0.3926 -0.5218 -0.4193
  499MOL0     C67258   1.755   9.233  -0.966  0.3657 -0.7972  0.5612
  499MOL0     C67259   1.568   9.161  -0.800  0.1511  0.4783  0.5174
  499MOL0     C67260   1.461   9.159  -0.904 -0.1687 -0.7848  0.2731
  499MOL0     O67261   1.480   9.232  -1.011  0.1815  0.8690  0.1748
  499MOL0     C67262   1.379   9.225  -1.107  0.6122  0.5544  0.5569
  499MOL0     C67263   1.382   9.119  -1.202 -0.1173  0.5734  0.2573
  499MOL0     C67264   1.285   9.125  -1.304  0.6146 -0.2113 -0.0456
  499MOL0     C67265   1.192   9.222  -1.312 -0.1502 -0.6746 -0.1745
  499MOL0     O67266   1.078   9.220  -1.390 -0.1576 -0.2697  0.1430
  499MOL0     C67267   0.996   9.098  -1.380  0.1014 -0.0448  0.1965
  499MOL0     C67268   0.914   9.084  -1.248  0.2805 -0.2426 -0.4057
  499MOL0     C67269   0.766   9.038  -1.275  0.7809 -0.2611 -0.1879
  499MOL0     C67270   0.749   8.909  -1.357  0.4138  0.2908  0.3446
  499MOL0     C67271   0.626   8.927  -1.444  0.7827  1.3443 -0.5486
  499MOL0     C67272   0.592   8.793  -1.518  0.0592  1.1979  0.0558
  499MOL0     C67273   0.463   8.817  -1.595  0.1755 -0.1034 -0.4209
  499MOL0     C67274   0.351   8.734  -1.542  0.2180 -0.7873  0.4359
  499MOL0    Cl67275   0.403   8.557  -1.560  0.1559 -0.4715  0.1934
  499MOL0     C67276   1.209   9.336  -1.224 -0.5156 -0.2391 -0.0507
  499MOL0     C67277   1.297   9.336  -1.120  0.3533  0.2739 -0.0552
  499MOL0     O67278   1.361   9.092  -0.874  0.0693 -0.2163  0.1373
  499MOL0     C67279   1.534   9.113  -0.669  0.5747 -0.0750  0.3109
  499MOL0     C67280   1.640   9.105  -0.579 -0.0099 -0.2269 -0.3617
  499MOL0     N67281   1.677   8.986  -0.091 -0.6181  0.1230  0.2251
  499MOL0     N67282   1.587   8.931  -0.015 -0.2873 -0.4885 -0.1834
  499MOL0     C67283   1.888   8.650   0.928 -0.3415 -0.4280 -0.0685
  499MOL0     C67284   1.898   8.760   1.018  0.3655 -1.1133 -0.8297
  499MOL0     C67285   1.670   9.054   1.278 -0.0856 -0.2113 -0.0789
  499MOL0     C67286   1.684   9.031   1.415 -0.3170 -0.3635  0.6302
  499MOL0     C67287   1.617   9.113   1.510 -0.5510 -0.2301 -0.5563
  499MOL0     C67288   1.533   9.215   1.461  0.5189  0.7081 -0.1399
  499MOL0     O67289   1.446   9.284   1.536  0.3111  0.0773  0.6417
  499MOL0     C67290   1.418   9.242   1.666 -0.6394  0.6021 -0.2270
  499MOL0     C67291   1.290   9.322   1.718  0.6989 -0.0232  0.5935
  499MOL0     C67292   1.175   9.295   1.611 -0.2847  0.7082 -0.3548
  499MOL0     C67293   1.177   9.386   1.487  0.1786 -0.0473  0.6276
  499MOL0     C67294   1.046   9.399   1.419 -0.6107 -0.1236  0.4575
  499MOL0     C67295   0.937   9.409   1.375  0.0090 -0.5833  0.8539
  499MOL0     C67296   1.526   9.239   1.326  0.3561 -0.9126  0.9273
  499MOL0     C67297   1.590   9.159   1.231 -0.5792  0.4127 -0.4785
  499MOL0     H67298   1.693   8.654   1.263  1.4413  2.5431  0.9141
  499MOL0     H67299   1.669   8.461   1.097  1.5395 -0.9673  1.1201
  499MOL0     H67300   1.628   8.322   0.939 -3.9300  1.9627  0.1055
  499MOL0     H67301   1.587   8.462   0.853 -0.9302 -1.8835 -0.2148
  499MOL0     H67302   1.676   8.216   0.701 -3.3547 -1.3254 -0.0899
  499MOL0     H67303   1.530   8.322   0.704 -0.6674  1.0413  0.1798
  499MOL0     H67304   1.796   8.406   0.608 -0.4496 -1.9853  4.1509
  499MOL0     H67305   1.649   8.364   0.502  0.3072 -0.3090 -0.9381
  499MOL0     H67306   1.525   8.554   0.621  0.7123  0.7814  3.3982
  499MOL0     H67307   1.680   8.604   0.688 -0.6258 -0.3128  0.3698
  499MOL0     H67308   1.672   8.726   0.490  1.2823 -0.4053  0.2366
  499MOL0     H67309   1.762   8.585   0.438 -0.4978  1.2966  0.4898
  499MOL0     H67310   1.542   8.507   0.336 -0.1475  0.3366 -1.5952
  499MOL0     H67311   1.466   8.659   0.386  0.1395 -0.2378  1.0213
  499MOL0     H67312   1.717   8.637   0.207  0.9343  0.2556  1.7942
  499MOL0     H67313   1.555   8.613   0.150  1.5477 -3.1997  1.8664
  499MOL0     H67314   1.641   8.870   0.290 -3.8807  0.6839  2.2548
  499MOL0     H67315   1.493   8.849   0.205 -0.6678  1.2580 -0.7980
  499MOL0     H67316   1.875   8.814   0.113  0.5668 -2.2226 -3.5542
  499MOL0     H67317   2.002   8.893  -0.078 -0.3808  2.2514  0.4770
  499MOL0     H67318   1.902   8.868  -0.218 -0.6366  1.9845 -2.9507
  499MOL0     H67319   2.086   9.083  -0.125  0.1171 -1.4640  1.3227
  499MOL0     H67320   1.916   9.141  -0.117 -0.6286 -0.0243 -1.8157
  499MOL0     H67321   2.035   9.014  -0.369  2.8070  2.1190  1.5250
  499MOL0     H67322   2.047   9.187  -0.346  1.9153 -0.4187  0.0180
  499MOL0     H67323   1.792   9.202  -0.340 -1.3932 -0.0537  1.4836
  499MOL0     H67324   1.775   9.026  -0.355 -1.3860  1.1725 -1.5510
  499MOL0     H67325   1.905   9.199  -0.742  0.2003 -0.4569  0.0458
  499MOL0     H67326   1.729   9.156  -1.039  0.4499 -0.6388  0.3618
  499MOL0     H67327   1.722   9.331  -1.003 -0.6905 -0.6874  1.7137
  499MOL0     H67328   1.864   9.236  -0.966  0.3489  0.6910  0.7126
  499MOL0     H67329   1.448   9.033  -1.205  0.4390  1.0019 -0.0219
  499MOL0     H67330   1.275   9.044  -1.376 -1.0545 -2.0902  2.1450
  499MOL0     H67331   0.922   9.104  -1.460  1.0807  4.9504 -0.7205
  499MOL0     H67332   1.057   9.009  -1.399 -2.1325 -1.6110  0.1207
  499MOL0     H67333   0.965   9.018  -1.177  0.8043  3.9367  3.6082
  499MOL0     H67334   0.911   9.187  -1.211  1.2966  0.6224 -2.5253
  499MOL0     H67335   0.722   9.123  -1.328 -1.3964 -2.3675 -2.0120
  499MOL0     H67336   0.707   9.022  -1.184  1.9259  1.7172  0.9780
  499MOL0     H67337   0.831   8.877  -1.422 -0.5461  0.5625 -1.0417
  499MOL0     H67338   0.727   8.837  -1.278  2.7429 -0.0197  0.7841
  499MOL0     H67339   0.636   8.997  -1.527 -1.2584  0.9872 -1.1383
  499MOL0     H67340   0.543   8.948  -1.377  1.3695  0.6851  0.4229
  499MOL0     H67341   0.677   8.769  -1.583 -0.1846  0.3107  0.0530
  499MOL0     H67342   0.575   8.712  -1.447 -0.2431  2.0894  1.0191
  499MOL0     H67343   0.487   8.781  -1.696  0.5597  0.9567 -0.7158
  499MOL0     H67344   0.431   8.921  -1.600 -0.3718 -0.3081 -1.5925
  499MOL0     H67345   0.269   8.741  -1.614 -1.6548  0.4513  2.5572
  499MOL0     H67346   0.325   8.758  -1.438  0.2523  1.0060  0.0743
  499MOL0     H67347   1.152   9.428  -1.234 -0.7917 -0.6210 -2.6827
  499MOL0     H67348   1.315   9.426  -1.062 -2.8758  1.5423 -0.8000
  499MOL0     H67349   1.436   9.075  -0.643  1.0658 -1.0552  0.7702
  499MOL0     H67350   1.609   9.063  -0.483 -1.3511 -1.8901 -1.4680
  499MOL0     H67351   1.933   8.644   0.829 -2.1176  0.7183 -1.0073
  499MOL0     H67352   1.954   8.845   0.980 -0.0837 -1.4267 -2.2262
  499MOL0     H67353   1.739   8.947   1.456 -2.9243 -2.0021  0.9832
  499MOL0     H67354   1.629   9.093   1.616 -1.1604 -2.2820 -0.8256
  499MOL0     H67355   1.399   9.135   1.668  3.0603 -0.2299  2.1201
  499MOL0     H67356   1.501   9.265   1.734 -1.3455  2.4525  0.0795
  499MOL0     H67357   1.304   9.429   1.736 -0.2327  0.8247 -3.0917
  499MOL0     H67358   1.256   9.283   1.815  3.3031  0.5798  1.8504
  499MOL0     H67359   1.080   9.318   1.661  1.9303  1.1230  4.1970
  499MOL0     H67360   1.175   9.187   1.596 -0.4747  0.0618  3.3519
  499MOL0     H67361   1.250   9.340   1.420  0.6992 -2.1826  2.5288
  499MOL0     H67362   1.214   9.484   1.514  1.9832 -0.8996  1.3671
  499MOL0     H67363   0.839   9.434   1.340  0.3617  1.3277  1.1159
  499MOL0     H67364   1.463   9.318   1.287  4.0605  2.2624  0.8100
  499MOL0     H67365   1.575   9.176   1.125  0.9903 -0.6253 -0.8925
  500MOL0     O67366   2.251   7.897   6.953 -0.4787  0.0174  0.3721
  500MOL0     C67367   2.222   8.007   7.000  0.5837 -0.1688  0.3794
  500MOL0     O67368   2.141   8.027   7.110 -0.1975  0.0493  0.1510
  500MOL0     C67369   2.039   7.935   7.146  0.6572  0.4072 -0.1915
  500MOL0     C67370   2.002   7.807   7.094  0.2908 -0.4529  0.5651
  500MOL0     C67371   1.893   7.739   7.137  0.7792 -0.3954  0.0902
  500MOL0     C67372   1.816   7.782   7.251 -1.0608 -0.2364  0.2741
  500MOL0     O67373   1.708   7.702   7.284 -0.4677 -1.0319  0.8277
  500MOL0     C67374   1.674   7.708   7.419  0.8191 -0.1360 -0.1139
  500MOL0     C67375   1.560   7.601   7.439 -0.2948  0.7712 -0.3794
  500MOL0     C67376   1.624   7.453   7.436 -0.9200  0.6270  0.8325
  500MOL0     C67377   1.515   7.356   7.398 -1.5958  0.7156 -0.0975
  500MOL0     C67378   1.564   7.212   7.404 -0.3068 -0.7146 -0.6047
  500MOL0     C67379   1.476   7.110   7.353 -0.0794  0.7641 -1.0199
  500MOL0     C67380   1.543   6.975   7.389  0.0516  0.8924 -0.3698
  500MOL0     C67381   1.468   6.844   7.350  0.2583 -0.4062  1.1590
  500MOL0     N67382   1.376   6.776   7.440 -0.6094  0.1733 -0.6026
  500MOL0     C67383   1.326   6.814   7.557 -0.1123 -0.8725  0.4196
  500MOL0     C67384   1.255   6.705   7.607  0.7419  0.0788  0.0579
  500MOL0     C67385   1.193   6.723   7.748 -0.2962 -0.2216  0.9938
  500MOL0     C67386   1.120   6.592   7.778  0.6652 -1.0911  0.0626
  500MOL0     C67387   0.999   6.559   7.699 -0.0696  0.2443 -0.3117
  500MOL0     C67388   0.979   6.405   7.703  0.1149  0.2074 -0.8679
  500MOL0     O67389   0.979   6.364   7.843  0.8814  0.4236  1.1031
  500MOL0     C67390   0.945   6.228   7.864  0.8398  0.2391 -0.5191
  500MOL0     C67391   0.926   6.137   7.762  0.1686 -0.1060  0.1951
  500MOL0     C67392   0.886   6.006   7.787  0.1163  0.3801  0.1858
  500MOL0     C67393   0.865   5.917   7.662 -0.8517  0.6341 -0.4121
  500MOL0     C67394   0.861   5.956   7.923 -0.1578  0.2620  0.6488
  500MOL0     C67395   0.816   5.817   7.962 -0.1311  0.4741  0.3628
  500MOL0     O67396   0.799   5.784   8.091 -0.0400 -1.0612 -0.4935
  500MOL0     C67397   0.746   5.669   8.119 -0.2829 -0.7889  0.1799
  500MOL0     C67398   0.637   5.598   8.061  0.2919 -0.3467  0.3280
  500MOL0     C67399   0.578   5.489   8.130  0.4915 -1.0328  0.5184
  500MOL0     C67400   0.635   5.440   8.240 -1.0940 -0.5152 -0.6308
  500MOL0     O67401   0.577   5.320   8.281 -0.5313  0.0651  0.3169
  500MOL0     C67402   0.608   5.265   8.408  0.4301 -0.5897 -0.4443
  500MOL0     C67403   0.546   5.135   8.458  0.4430 -0.1260 -0.3093
  500MOL0     C67404   0.399   5.126   8.434  1.1029  0.4618  0.7539
  500MOL0     C67405   0.332   5.026   8.531 -0.4482  0.1316 -0.5783
  500MOL0     C67406   0.179   5.004   8.495 -0.4770 -0.1886 -0.1745
  500MOL0     C67407   0.103   4.926   8.600 -1.0595 -0.1688 -0.6086
  500MOL0     C67408  -0.046   4.944   8.575 -0.1572 -0.8635 -0.9888
  500MOL0     C67409  -0.148   4.861   8.653  1.4703 -0.4525 -0.0294
  500MOL0    Cl67410  -0.161   4.693   8.579  0.2436 -0.4426 -0.2915
  500MOL0     C67411   0.747   5.499   8.295 -0.1754 -0.4321 -0.2219
  500MOL0     C67412   0.807   5.607   8.229  0.3284 -0.6416  0.0615
  500MOL0     O67413   0.810   5.736   7.867 -0.7441  0.6561 -0.6672
  500MOL0     C67414   0.894   6.053   8.025 -0.5797  0.1201 -0.5969
  500MOL0     C67415   0.942   6.182   7.998  0.4444  0.3269 -0.4891
  500MOL0     N67416   1.262   6.600   7.518  0.8701 -0.8469 -0.3410
  500MOL0     N67417   1.334   6.646   7.419  0.1634 -0.6314  0.5916
  500MOL0     C67418   1.857   7.909   7.306  0.0958  0.9897 -0.0445
  500MOL0     C67419   1.966   7.973   7.261 -0.4051  0.5398 -0.3584
  500MOL0     C67420   2.318   8.120   6.974  0.3627  0.1110 -0.5666
  500MOL0     C67421   2.446   8.096   6.912 -0.4295 -0.5847  0.0681
  500MOL0     C67422   2.536   8.207   6.920  0.4564 -0.1515  0.2469
  500MOL0     C67423   2.508   8.325   6.985 -0.7488 -0.6111  0.7697
  500MOL0     O67424   2.615   8.418   6.990 -0.0792  0.5523 -0.4100
  500MOL0     C67425   2.623   8.496   7.096 -0.1317  0.1141 -0.4613
  500MOL0     C67426   2.747   8.590   7.092 -0.4602  1.0619 -0.8613
  500MOL0     C67427   2.872   8.502   7.135 -0.6634 -1.0998  0.7161
  500MOL0     C67428   2.998   8.591   7.104  1.1932  0.3369 -0.5318
  500MOL0     C67429   3.021   8.653   6.971  0.1660 -0.8421  0.6384
  500MOL0     C67430   3.049   8.709   6.862  0.0947 -0.6056 -1.0403
  500MOL0     C67431   2.378   8.347   7.033  0.6732  0.1997 -0.0388
  500MOL0     C67432   2.288   8.247   7.028  0.2539  0.1778 -0.8364
  500MOL0     H67433   2.052   7.776   7.003 -3.0437  0.9574 -1.9725
  500MOL0     H67434   1.866   7.647   7.085 -0.0919  0.6761 -1.4497
  500MOL0     H67435   1.754   7.674   7.484 -1.0071 -1.1461  1.7380
  500MOL0     H67436   1.643   7.811   7.439 -1.0087 -1.1941  3.3703
  500MOL0     H67437   1.520   7.611   7.540  3.5558  2.1800  1.1925
  500MOL0     H67438   1.480   7.616   7.366 -3.6574 -1.4189  2.5324
  500MOL0     H67439   1.702   7.445   7.360 -1.7975 -2.2862  0.1031
  500MOL0     H67440   1.673   7.426   7.530  3.6444  0.1283 -1.4118
  500MOL0     H67441   1.444   7.366   7.480 -2.3069  0.9719 -0.7350
  500MOL0     H67442   1.465   7.384   7.305  0.6908 -1.6014 -2.1772
  500MOL0     H67443   1.662   7.209   7.355 -1.9461  2.6146 -4.6563
  500MOL0     H67444   1.589   7.184   7.507  2.1872  0.8475 -0.6915
  500MOL0     H67445   1.375   7.110   7.397  0.7363  1.6450  0.9434
  500MOL0     H67446   1.474   7.131   7.246  0.7508  0.8003 -1.0271
  500MOL0     H67447   1.637   6.983   7.333  0.4046  2.3738  0.3796
  500MOL0     H67448   1.558   6.963   7.496 -0.2373  0.0073 -0.4205
  500MOL0     H67449   1.545   6.769   7.333  0.9776  0.8811 -2.1445
  500MOL0     H67450   1.423   6.850   7.251  2.0493  0.2323  0.3333
  500MOL0     H67451   1.322   6.912   7.603  0.5643 -0.6134 -0.0672
  500MOL0     H67452   1.275   6.750   7.816  2.2557  2.4704 -2.6739
  500MOL0     H67453   1.127   6.810   7.750  0.7045  0.5628  1.2397
  500MOL0     H67454   1.080   6.594   7.880 -1.4792 -0.0821 -0.7341
  500MOL0     H67455   1.195   6.512   7.781  1.2578 -0.5650 -0.4822
  500MOL0     H67456   1.013   6.584   7.593  1.6661 -2.8318 -0.9361
  500MOL0     H67457   0.903   6.597   7.737  0.1770 -0.5359  1.1352
  500MOL0     H67458   1.052   6.358   7.638  0.8668 -0.2430  0.2748
  500MOL0     H67459   0.878   6.373   7.674 -0.1606 -0.6344  0.8983
  500MOL0     H67460   0.934   6.175   7.661 -1.4467  3.9401  1.4193
  500MOL0     H67461   0.758   5.897   7.666 -0.4801 -1.6676 -0.6251
  500MOL0     H67462   0.906   5.959   7.570  1.0205  0.2102  0.1639
  500MOL0     H67463   0.915   5.821   7.679 -2.2389  0.2349  1.7955
  500MOL0     H67464   0.598   5.648   7.973  3.7371 -0.3925 -1.3910
  500MOL0     H67465   0.492   5.434   8.093  0.0696  0.7122 -1.3016
  500MOL0     H67466   0.716   5.244   8.405  0.7173  0.6547  0.4043
  500MOL0     H67467   0.588   5.334   8.491  0.6841  1.3603 -1.9311
  500MOL0     H67468   0.598   5.048   8.417 -1.5875 -3.0329  2.7723
  500MOL0     H67469   0.578   5.132   8.563  0.1972 -3.5976 -0.2215
  500MOL0     H67470   0.382   5.091   8.332  1.1465  0.2328  0.8254
  500MOL0     H67471   0.345   5.218   8.458  0.2063 -0.3284  1.8713
  500MOL0     H67472   0.385   4.930   8.529 -0.6285  0.0418 -1.1909
  500MOL0     H67473   0.335   5.074   8.629 -1.8312  2.5402 -1.6288
  500MOL0     H67474   0.175   4.953   8.398  0.0734  0.9241 -0.7938
  500MOL0     H67475   0.137   5.104   8.484  0.2360  0.0619 -0.7140
  500MOL0     H67476   0.107   4.822   8.566 -2.4125 -1.0326  1.6475
  500MOL0     H67477   0.139   4.948   8.701 -0.9675 -0.5664 -0.5513
  500MOL0     H67478  -0.080   4.924   8.473 -1.2630 -4.0565 -0.1147
  500MOL0     H67479  -0.064   5.049   8.599 -2.6672 -1.7282  1.3554
  500MOL0     H67480  -0.244   4.913   8.644  0.6112 -2.0711 -0.4461
  500MOL0     H67481  -0.129   4.861   8.761  0.8050 -0.7497  0.0945
  500MOL0     H67482   0.802   5.469   8.384  1.9293 -1.6381 -1.8410
  500MOL0     H67483   0.894   5.649   8.279  0.7970 -0.2559 -1.0416
  500MOL0     H67484   0.885   6.016   8.126  0.0663  0.5668 -0.3671
  500MOL0     H67485   0.950   6.254   8.080 -1.5086 -2.6438  2.5509
  500MOL0     H67486   1.799   7.948   7.389 -1.0065  0.9648 -0.7781
  500MOL0     H67487   2.013   8.055   7.314 -0.8669  1.3948 -1.2421
  500MOL0     H67488   2.478   8.001   6.871  1.1631 -0.3072  0.5971
  500MOL0     H67489   2.633   8.191   6.875  1.1359  1.4102  1.0880
  500MOL0     H67490   2.532   8.555   7.112  0.5720  1.1105  0.0097
  500MOL0     H67491   2.640   8.424   7.176  0.4621  0.7395 -0.0157
  500MOL0     H67492   2.727   8.671   7.162  1.7059  1.2327 -0.3836
  500MOL0     H67493   2.766   8.631   6.992 -0.3581  0.6882 -0.9998
  500MOL0     H67494   2.890   8.415   7.071  4.1293  0.3345 -0.3587
  500MOL0     H67495   2.877   8.482   7.242  1.3964 -0.4097  0.8116
  500MOL0     H67496   3.088   8.532   7.124  1.6282  1.6546  1.7285
  500MOL0     H67497   2.995   8.675   7.174 -1.3247  2.8382 -3.3331
  500MOL0     H67498   3.088   8.742   6.769  0.4112 -2.5751 -1.6576
  500MOL0     H67499   2.340   8.443   7.065  0.4119 -0.3114  1.2648
  500MOL0     H67500   2.191   8.278   7.068  0.2665 -2.0533  1.1352
  501MOL0     O67501   1.075   6.056   7.406  0.0724 -0.3811  0.1796
  501MOL0     C67502   1.130   5.999   7.311  0.0504  0.8553  0.3773
  501MOL0     O67503   1.113   6.037   7.179  0.4987 -0.0347  0.5039
  501MOL0     C67504   1.062   6.160   7.141  0.3797 -0.3367 -0.3467
  501MOL0     C67505   0.976   6.176   7.037  0.5136 -0.8155  0.3271
  501MOL0     C67506   0.935   6.306   6.994 -0.0457  0.3241  0.0386
  501MOL0     C67507   0.984   6.421   7.064  0.0864 -0.0406  0.7458
  501MOL0     O67508   0.959   6.553   7.031  0.6564 -0.0795 -0.1203
  501MOL0     C67509   0.864   6.580   6.921  0.3371 -0.3822 -1.2295
  501MOL0     C67510   0.828   6.733   6.884  0.2611  0.2142  0.0302
  501MOL0     C67511   0.923   6.796   6.784  0.5877 -0.5940  1.3532
  501MOL0     C67512   0.884   6.935   6.754 -1.2653 -0.6257 -0.3704
  501MOL0     C67513   0.986   7.031   6.695  0.0129  0.3112 -0.3692
  501MOL0     C67514   0.915   7.173   6.675  0.3091  1.1916 -0.0034
  501MOL0     C67515   0.995   7.257   6.585  0.4557 -0.1199 -0.1151
  501MOL0     C67516   0.964   7.413   6.588  0.3642  0.2300  0.3984
  501MOL0     N67517   1.060   7.497   6.524 -0.3037  0.2318 -0.2811
  501MOL0     C67518   1.196   7.498   6.546 -0.6172 -0.1089  0.1335
  501MOL0     C67519   1.238   7.582   6.450  0.0523  0.3419 -0.3356
  501MOL0     C67520   1.386   7.610   6.431 -0.3667  0.1817 -0.8604
  501MOL0     C67521   1.412   7.752   6.393 -0.1644 -0.6541 -0.3984
  501MOL0     C67522   1.367   7.862   6.495 -0.3556 -0.9260 -0.2547
  501MOL0     C67523   1.446   7.854   6.632  0.9250  0.2481 -0.3180
  501MOL0     O67524   1.400   7.948   6.733 -0.0409  0.8147  0.2007
  501MOL0     C67525   1.462   8.070   6.716  0.5837  0.0673  0.1358
  501MOL0     C67526   1.540   8.121   6.606 -0.3746  0.6081 -0.2242
  501MOL0     C67527   1.589   8.254   6.612  0.7006 -0.6709 -0.0007
  501MOL0     C67528   1.670   8.293   6.491  0.5958 -0.0121 -0.7199
  501MOL0     C67529   1.557   8.338   6.723  0.6342  1.4933  0.3825
  501MOL0     C67530   1.607   8.484   6.725 -0.4019 -0.0798 -0.5848
  501MOL0     O67531   1.545   8.546   6.830  0.4355 -0.3355 -0.4948
  501MOL0     C67532   1.578   8.678   6.858  0.1677 -0.6880  0.1950
  501MOL0     C67533   1.682   8.705   6.942 -1.0314  0.6335  0.1780
  501MOL0     C67534   1.719   8.839   6.980  0.2218  1.1778 -0.7222
  501MOL0     C67535   1.628   8.946   6.942 -0.3892  0.7025 -0.2069
  501MOL0     O67536   1.663   9.069   6.986 -0.2985  0.6583 -0.7074
  501MOL0     C67537   1.659   9.180   6.897 -0.0153  0.1102 -1.2435
  501MOL0     C67538   1.701   9.309   6.970  0.3540  1.1868 -2.1323
  501MOL0     C67539   1.602   9.364   7.071  0.3941 -0.1449  0.3586
  501MOL0     C67540   1.670   9.482   7.131  0.4003 -0.1537  0.2977
  501MOL0     C67541   1.607   9.507   7.270  0.7236 -0.0161  0.0051
  501MOL0     C67542   1.459   9.550   7.281  0.2352 -1.1281  0.5147
  501MOL0     C67543   1.422   9.552   7.430  0.1573 -0.5901 -0.3972
  501MOL0     C67544   1.500   9.652   7.524  0.3809  0.0446  0.6604
  501MOL0    Cl67545   1.547   9.804   7.443  0.3445  0.1304 -0.3818
  501MOL0     C67546   1.516   8.914   6.868 -0.6458  0.1312 -0.0863
  501MOL0     C67547   1.491   8.780   6.834 -1.1510  0.1265 -0.5577
  501MOL0     O67548   1.694   8.534   6.650  0.0174  0.3120  0.0193
  501MOL0     C67549   1.456   8.288   6.821 -0.3157 -0.2518  0.2309
  501MOL0     C67550   1.416   8.161   6.807  0.9004 -0.0040  0.1410
  501MOL0     N67551   1.124   7.641   6.391 -0.6453  1.0396  0.1473
  501MOL0     N67552   1.017   7.588   6.430 -0.3688 -0.4151 -0.3933
  501MOL0     C67553   1.073   6.400   7.171 -0.0653 -0.3906  0.2462
  501MOL0     C67554   1.113   6.272   7.216  0.1788 -0.6444  0.4352
  501MOL0     C67555   1.209   5.879   7.335 -0.5266  0.1742  0.3079
  501MOL0     C67556   1.250   5.850   7.473 -0.0050  0.2146  0.1716
  501MOL0     C67557   1.326   5.737   7.503 -0.0343  0.4991  0.1635
  501MOL0     C67558   1.378   5.655   7.398 -0.4441 -0.6337  0.4662
  501MOL0     O67559   1.471   5.560   7.434 -0.0075  0.1992  1.0162
  501MOL0     C67560   1.552   5.500   7.331 -0.4619 -0.3941  0.0769
  501MOL0     C67561   1.668   5.415   7.388  0.6021 -0.0957 -0.7097
  501MOL0     C67562   1.611   5.282   7.445 -0.1640 -0.3590  0.9497
  501MOL0     C67563   1.718   5.186   7.500 -0.6730  0.4254  0.2877
  501MOL0     C67564   1.765   5.236   7.627 -0.6296 -0.6627  0.0881
  501MOL0     C67565   1.820   5.267   7.734 -0.5581 -0.7121 -0.0679
  501MOL0     C67566   1.345   5.690   7.264 -0.3924 -0.2052 -1.1569
  501MOL0     C67567   1.262   5.801   7.237 -0.0562 -0.7878 -0.3746
  501MOL0     H67568   0.943   6.084   6.988  1.3918 -2.1965  2.2078
  501MOL0     H67569   0.882   6.313   6.900  0.8720  0.3780 -0.4880
  501MOL0     H67570   0.899   6.528   6.831 -0.0337 -0.1512 -1.5099
  501MOL0     H67571   0.771   6.524   6.934 -0.5736  1.4069  0.5085
  501MOL0     H67572   0.733   6.741   6.830  1.8789 -1.2506 -3.3488
  501MOL0     H67573   0.832   6.790   6.978 -2.5525  2.2437 -0.9567
  501MOL0     H67574   1.028   6.790   6.814  1.6924 -0.4893 -2.0222
  501MOL0     H67575   0.918   6.740   6.689 -1.2274  0.2158  0.9248
  501MOL0     H67576   0.803   6.918   6.682 -0.0044 -1.7848 -1.5626
  501MOL0     H67577   0.843   6.986   6.841 -0.3883 -3.7513  2.0351
  501MOL0     H67578   1.068   7.037   6.767 -1.7697  2.0112  1.6506
  501MOL0     H67579   1.016   7.003   6.593 -3.1114  1.3183 -1.6787
  501MOL0     H67580   0.830   7.152   6.609 -0.3609  1.0104  0.9075
  501MOL0     H67581   0.878   7.223   6.764 -0.3620 -0.4536  0.6903
  501MOL0     H67582   1.098   7.250   6.623  0.1887 -0.6306  0.5469
  501MOL0     H67583   0.997   7.216   6.484  2.4224  2.3899 -1.2090
  501MOL0     H67584   0.959   7.441   6.693 -0.2934 -3.6702  1.5618
  501MOL0     H67585   0.863   7.426   6.547 -0.1773 -4.1689 -0.1251
  501MOL0     H67586   1.268   7.458   6.617 -1.8360 -2.2012  0.2769
  501MOL0     H67587   1.437   7.571   6.519 -2.5538 -0.5481  0.1453
  501MOL0     H67588   1.419   7.548   6.347 -2.6103 -0.0219 -1.6410
  501MOL0     H67589   1.362   7.751   6.295  1.9923 -3.7891 -1.6267
  501MOL0     H67590   1.518   7.768   6.370 -0.3554  0.1269 -0.7605
  501MOL0     H67591   1.264   7.862   6.532 -1.2463  3.4978 -2.1126
  501MOL0     H67592   1.382   7.955   6.439 -1.8731 -1.8188 -2.2855
  501MOL0     H67593   1.553   7.855   6.612  1.1106 -0.1612  0.5758
  501MOL0     H67594   1.441   7.751   6.669  4.9617  0.1231  0.3571
  501MOL0     H67595   1.545   8.061   6.516 -5.8659 -2.3613  0.9673
  501MOL0     H67596   1.775   8.304   6.517 -0.3555 -0.4494  4.4791
  501MOL0     H67597   1.658   8.211   6.421  0.0309  0.0738 -0.7338
  501MOL0     H67598   1.632   8.386   6.446  1.5052 -0.1893 -1.9004
  501MOL0     H67599   1.745   8.622   6.974  0.0667 -0.4273 -4.0317
  501MOL0     H67600   1.792   8.855   7.059  0.4399 -1.3978 -0.3257
  501MOL0     H67601   1.726   9.169   6.811 -0.3996  0.8180 -1.6467
  501MOL0     H67602   1.556   9.189   6.861 -0.2560 -4.9451 -2.5484
  501MOL0     H67603   1.799   9.286   7.013 -0.7537  2.1508  1.2083
  501MOL0     H67604   1.711   9.384   6.891  0.0857  0.0073 -3.3211
  501MOL0     H67605   1.581   9.292   7.151 -1.0849 -1.1517 -0.8698
  501MOL0     H67606   1.506   9.400   7.033 -1.9553 -2.7043  3.2509
  501MOL0     H67607   1.778   9.466   7.137  0.3094 -0.1685  3.2185
  501MOL0     H67608   1.656   9.571   7.070  1.6879 -0.6843 -0.8386
  501MOL0     H67609   1.663   9.590   7.313  2.4517 -1.3687  0.4721
  501MOL0     H67610   1.618   9.415   7.329 -2.8653  0.4483  1.7311
  501MOL0     H67611   1.436   9.646   7.235  0.3459 -0.2214  2.2570
  501MOL0     H67612   1.408   9.468   7.229 -0.1345 -0.6173  0.0642
  501MOL0     H67613   1.411   9.451   7.469 -2.6621  0.0281  0.6280
  501MOL0     H67614   1.316   9.578   7.434  0.1178 -0.4089 -2.1449
  501MOL0     H67615   1.594   9.600   7.545 -1.0100 -2.1885  1.6780
  501MOL0     H67616   1.453   9.659   7.623  2.1982 -0.6789  1.6226
  501MOL0     H67617   1.450   8.995   6.839  0.9722  1.3678 -0.4796
  501MOL0     H67618   1.399   8.750   6.784 -1.3891 -1.4366  0.7418
  501MOL0     H67619   1.420   8.354   6.899 -1.3201 -0.4356 -0.0661
  501MOL0     H67620   1.343   8.124   6.878 -0.7065 -0.5163 -1.6731
  501MOL0     H67621   1.115   6.483   7.226  0.7016  0.3105 -1.3549
  501MOL0     H67622   1.164   6.271   7.311  2.0899 -2.9380 -0.5007
  501MOL0     H67623   1.215   5.901   7.562 -5.2051 -0.9437 -0.8968
  501MOL0     H67624   1.349   5.719   7.608 -0.4560  1.5190  0.4450
  501MOL0     H67625   1.497   5.446   7.253  3.3179 -2.6735 -1.2681
  501MOL0     H67626   1.593   5.583   7.273 -0.2779  0.7783  1.8008
  501MOL0     H67627   1.725   5.470   7.463  0.8905 -0.5976 -0.5596
  501MOL0     H67628   1.742   5.383   7.314  0.0717 -3.4660  0.0394
  501MOL0     H67629   1.566   5.238   7.356 -0.7963 -1.1036  1.6237
  501MOL0     H67630   1.533   5.292   7.521  0.1949 -1.6003  1.5069
  501MOL0     H67631   1.793   5.188   7.421 -0.7751  2.7099  0.1961
  501MOL0     H67632   1.683   5.082   7.511 -0.4310  0.3971  0.8469
  501MOL0     H67633   1.863   5.304   7.825  2.6444 -1.0936 -1.2779
  501MOL0     H67634   1.398   5.632   7.189  2.6284 -2.0020  2.0870
  501MOL0     H67635   1.250   5.828   7.133  2.4037  2.0010 -0.0367
  502MOL0     O67636   4.233   0.160   5.755 -0.1411 -0.3583  0.4109
  502MOL0     C67637   4.256   0.121   5.636  0.1702  0.4260  0.0500
  502MOL0     O67638   4.381   0.132   5.578  0.1853  0.2731  0.2103
  502MOL0     C67639   4.465   0.227   5.621 -1.4678  0.4348 -0.2383
  502MOL0     C67640   4.523   0.306   5.527  1.4722 -0.3889 -0.2897
  502MOL0     C67641   4.615   0.411   5.561  0.0111 -0.0798  0.0182
  502MOL0     C67642   4.662   0.423   5.690 -0.9540  0.3716 -0.9471
  502MOL0     O67643   4.759   0.519   5.725 -0.2574 -0.6920  0.8126
  502MOL0     C67644   4.823   0.595   5.626 -0.7701 -0.1020 -0.4771
  502MOL0     C67645   4.930   0.683   5.703  0.1635  0.1024 -0.7214
  502MOL0     C67646   5.033   0.596   5.776 -0.2725  0.5822 -1.1597
  502MOL0     C67647   5.150   0.688   5.822  0.0356 -0.3433  0.2345
  502MOL0     C67648   5.233   0.631   5.928 -0.2273  0.7249  0.5187
  502MOL0     C67649   5.313   0.738   6.005 -1.0460  0.3864  0.7142
  502MOL0     C67650   5.436   0.782   5.922 -0.4480 -0.6888 -0.3593
  502MOL0     C67651   5.561   0.754   6.004  0.5661  0.6242 -1.0911
  502MOL0     N67652   5.565   0.838   6.121 -0.2605 -0.1819 -0.5053
  502MOL0     C67653   5.614   0.965   6.126  0.1087 -0.0996  0.3043
  502MOL0     C67654   5.584   1.014   6.249 -0.2981 -0.3140  0.5838
  502MOL0     C67655   5.603   1.149   6.285 -0.4296  0.1630  0.5836
  502MOL0     C67656   5.470   1.225   6.250 -0.0493 -0.4528 -0.4192
  502MOL0     C67657   5.492   1.377   6.264  0.5334  0.1660  0.2841
  502MOL0     C67658   5.355   1.457   6.253 -0.3429  1.0669  0.0101
  502MOL0     O67659   5.317   1.443   6.121  0.4428 -0.0967 -0.2322
  502MOL0     C67660   5.374   1.520   6.024 -0.3224  0.5145 -0.3503
  502MOL0     C67661   5.486   1.598   6.038 -0.1080  0.0428  0.1499
  502MOL0     C67662   5.541   1.671   5.931  0.6662  1.3389 -0.4489
  502MOL0     C67663   5.680   1.736   5.957  0.3469 -0.3520 -0.1063
  502MOL0     C67664   5.483   1.658   5.802 -0.8317 -0.4267 -1.9699
  502MOL0     C67665   5.532   1.740   5.690  0.2222 -0.0834 -1.1168
  502MOL0     O67666   5.518   1.682   5.567  0.3486 -0.6330 -0.1721
  502MOL0     C67667   5.562   1.759   5.454 -0.0286  0.9339  0.5584
  502MOL0     C67668   5.520   1.887   5.430  0.1518 -0.3742 -0.4451
  502MOL0     C67669   5.560   1.962   5.310  0.0655 -0.1782  0.0044
  502MOL0     C67670   5.634   1.897   5.204  1.2135  0.3834  0.2143
  502MOL0     O67671   5.631   1.961   5.085  0.2377  0.4562  0.0374
  502MOL0     C67672   5.675   1.876   4.975  0.1670 -0.0120  1.0467
  502MOL0     C67673   5.637   1.941   4.841 -0.1137 -0.3707  0.5916
  502MOL0     C67674   5.709   2.079   4.829 -0.1672 -0.2583  0.7737
  502MOL0     C67675   5.694   2.126   4.682  0.6944 -0.0084 -0.5429
  502MOL0     C67676   5.744   2.267   4.648 -0.1846 -0.1083 -0.8220
  502MOL0     C67677   5.721   2.294   4.498  0.6475 -0.1022  0.2569
  502MOL0     C67678   5.807   2.397   4.431  0.7290  0.5972  0.4179
  502MOL0     C67679   5.953   2.345   4.439 -0.1420 -0.2339 -0.2522
  502MOL0    Cl67680   6.026   2.426   4.300 -0.4571  0.1210 -0.2023
  502MOL0     C67681   5.669   1.766   5.232  0.4664 -0.1634  0.4570
  502MOL0     C67682   5.638   1.700   5.352 -0.2806  0.0299 -0.8729
  502MOL0     O67683   5.558   1.857   5.716  0.1152 -0.2141 -0.3317
  502MOL0     C67684   5.371   1.572   5.779  0.7133  0.3091 -0.2466
  502MOL0     C67685   5.321   1.496   5.891 -0.1423 -0.5696  0.1025
  502MOL0     N67686   5.522   0.912   6.318 -0.7980 -0.0050  0.5555
  502MOL0     N67687   5.510   0.811   6.245 -0.3246 -0.2981  0.0461
  502MOL0     C67688   4.623   0.334   5.784  0.0310  1.3910  0.2469
  502MOL0     C67689   4.524   0.232   5.747  0.4204  0.3439  0.2353
  502MOL0     C67690   4.157   0.029   5.561  0.6973  0.0580 -0.3171
  502MOL0     C67691   4.069  -0.049   5.637 -0.1636  0.6518  0.4205
  502MOL0     C67692   3.977  -0.132   5.573  0.3518  0.2545  1.6469
  502MOL0     C67693   3.954  -0.117   5.434 -0.2628  0.4614  1.2212
  502MOL0     O67694   3.854  -0.193   5.368 -0.4458 -0.1726  0.9110
  502MOL0     C67695   3.743  -0.254   5.433 -0.2365  0.1802 -0.7420
  502MOL0     C67696   3.712  -0.397   5.394  0.0084 -1.7270 -0.2701
  502MOL0     C67697   3.659  -0.399   5.253  0.2466 -0.8820  0.5203
  502MOL0     C67698   3.600  -0.531   5.212 -0.3110  0.5438  0.2491
  502MOL0     C67699   3.690  -0.643   5.245 -0.3605 -0.1365 -0.0371
  502MOL0     C67700   3.758  -0.734   5.284 -0.4330  0.4959  0.4006
  502MOL0     C67701   4.035  -0.041   5.361 -1.0111 -0.7984  0.3197
  502MOL0     C67702   4.138   0.037   5.425  0.6651  0.5508 -0.4435
  502MOL0     H67703   4.495   0.290   5.423  0.3849 -0.3228 -0.0237
  502MOL0     H67704   4.644   0.475   5.479  0.5845  2.0555  1.7774
  502MOL0     H67705   4.880   0.536   5.554 -0.2931  2.4213 -2.3004
  502MOL0     H67706   4.750   0.657   5.574  2.1072  2.5130 -1.6651
  502MOL0     H67707   4.984   0.741   5.629 -0.1391 -0.6875 -1.5853
  502MOL0     H67708   4.877   0.746   5.776  2.7141  1.9743 -0.3610
  502MOL0     H67709   4.988   0.538   5.858  1.2455 -0.7496 -1.2160
  502MOL0     H67710   5.074   0.523   5.706 -1.7817  0.4749 -1.9740
  502MOL0     H67711   5.202   0.717   5.730 -0.6854  0.4277  0.0599
  502MOL0     H67712   5.104   0.776   5.867  0.8634 -0.6681  1.7635
  502MOL0     H67713   5.169   0.574   5.996 -0.7523  0.7569  0.0540
  502MOL0     H67714   5.306   0.562   5.884 -0.1407  0.7360  0.6437
  502MOL0     H67715   5.256   0.826   6.036 -0.6182  0.4627  1.2920
  502MOL0     H67716   5.350   0.693   6.098  2.8989  3.2067  0.7422
  502MOL0     H67717   5.433   0.733   5.825  3.1080  0.6712 -1.3000
  502MOL0     H67718   5.431   0.890   5.904  1.2833 -0.7568 -1.3760
  502MOL0     H67719   5.649   0.771   5.941  0.9142  3.4516 -0.0005
  502MOL0     H67720   5.550   0.649   6.031 -4.3638  0.7452 -1.7348
  502MOL0     H67721   5.661   1.029   6.053  3.2018  0.6431  2.6977
  502MOL0     H67722   5.635   1.155   6.389 -0.3455  1.9186  0.4983
  502MOL0     H67723   5.682   1.188   6.220 -0.0352  0.9852  1.5357
  502MOL0     H67724   5.395   1.195   6.324  0.8119  1.2666  1.2420
  502MOL0     H67725   5.435   1.214   6.147  0.6721  0.0997 -0.7260
  502MOL0     H67726   5.570   1.412   6.196  0.3325 -1.6827 -0.9610
  502MOL0     H67727   5.525   1.398   6.366 -0.0652 -1.9243  0.9544
  502MOL0     H67728   5.365   1.562   6.282  0.0434  1.1879 -0.5521
  502MOL0     H67729   5.275   1.412   6.313  0.3701 -1.3783 -0.7391
  502MOL0     H67730   5.537   1.604   6.133  2.5075 -3.1268 -0.8836
  502MOL0     H67731   5.732   1.674   6.030 -2.7077  0.1823  2.7370
  502MOL0     H67732   5.736   1.742   5.863 -0.6232 -2.3947 -0.8950
  502MOL0     H67733   5.661   1.834   6.000 -2.9034  0.1477 -2.3224
  502MOL0     H67734   5.464   1.937   5.508  3.4754  3.9288 -0.4526
  502MOL0     H67735   5.528   2.065   5.296 -0.2194 -0.0385  1.5021
  502MOL0     H67736   5.784   1.873   4.986  0.4638  1.0898 -1.1268
  502MOL0     H67737   5.633   1.776   4.977  0.4855 -0.1453  1.1760
  502MOL0     H67738   5.677   1.878   4.760  1.0123  1.9181 -0.7415
  502MOL0     H67739   5.532   1.942   4.811 -0.0167  0.0832  0.2627
  502MOL0     H67740   5.815   2.069   4.855  0.3801  0.3314 -1.0350
  502MOL0     H67741   5.655   2.152   4.889 -2.6069 -0.2847 -1.2391
  502MOL0     H67742   5.761   2.064   4.621 -1.9341 -0.2057 -3.4763
  502MOL0     H67743   5.593   2.098   4.649  0.4548 -1.3727  1.1721
  502MOL0     H67744   5.851   2.285   4.664  0.0018 -2.0252  0.3182
  502MOL0     H67745   5.696   2.341   4.713 -1.4660 -2.0125  0.4770
  502MOL0     H67746   5.722   2.209   4.430 -2.0759 -0.1604  0.1894
  502MOL0     H67747   5.620   2.331   4.482  0.9882  1.2779  1.1219
  502MOL0     H67748   5.771   2.492   4.472 -2.8408 -1.2685  2.0305
  502MOL0     H67749   5.778   2.398   4.325 -2.5494 -0.1480  1.1914
  502MOL0     H67750   5.958   2.235   4.438  1.0906 -0.3424  3.3155
  502MOL0     H67751   5.996   2.374   4.535  1.6092 -0.1231 -1.0398
  502MOL0     H67752   5.725   1.716   5.155  1.2819  2.1461 -0.5216
  502MOL0     H67753   5.686   1.604   5.367 -0.0033 -0.0010 -1.9052
  502MOL0     H67754   5.332   1.559   5.679 -0.0516  0.6321  0.0065
  502MOL0     H67755   5.247   1.419   5.874 -2.3646  1.0659  1.7069
  502MOL0     H67756   4.672   0.333   5.881 -1.4221  0.2248  1.0106
  502MOL0     H67757   4.470   0.171   5.819 -1.1300 -1.8553 -2.5737
  502MOL0     H67758   4.084  -0.040   5.744 -2.6597 -0.9895  0.9880
  502MOL0     H67759   3.918  -0.200   5.634 -2.8861  2.4226  1.1715
  502MOL0     H67760   3.755  -0.256   5.542  1.5271  2.0321 -0.8549
  502MOL0     H67761   3.656  -0.189   5.418 -0.5666  0.3093  1.3655
  502MOL0     H67762   3.633  -0.434   5.461 -0.1592 -1.3051 -0.2276
  502MOL0     H67763   3.801  -0.458   5.410 -0.3018 -2.2036 -0.3634
  502MOL0     H67764   3.727  -0.369   5.173 -2.7790  0.5389 -1.6865
  502MOL0     H67765   3.574  -0.331   5.243  1.3552  0.1904 -3.1533
  502MOL0     H67766   3.593  -0.539   5.103  2.2108  1.4216 -0.0431
  502MOL0     H67767   3.508  -0.552   5.267  0.5876  0.6478  1.8457
  502MOL0     H67768   3.813  -0.821   5.313 -2.5065 -0.7687  0.7234
  502MOL0     H67769   4.038  -0.056   5.253 -2.4373  0.9336  0.0003
  502MOL0     H67770   4.185   0.103   5.352  1.7450 -1.1420 -1.3571
  503MOL0     O67771   6.134   3.373   2.714 -0.1926 -0.3923 -1.0252
  503MOL0     C67772   6.209   3.296   2.651  0.8228  1.1775  0.4316
  503MOL0     O67773   6.165   3.185   2.582 -0.1290 -0.6210  1.5894
  503MOL0     C67774   6.037   3.136   2.599  0.5308 -0.1778 -0.1003
  503MOL0     C67775   6.014   3.008   2.644  0.5626  0.2014  0.3289
  503MOL0     C67776   5.884   2.950   2.662  1.5181 -0.5391 -0.1700
  503MOL0     C67777   5.775   3.031   2.630 -0.8330 -0.6770  0.7388
  503MOL0     O67778   5.640   3.009   2.655 -0.3486  0.6162  0.9656
  503MOL0     C67779   5.599   2.875   2.641  0.1278  0.0463  0.7828
  503MOL0     C67780   5.482   2.846   2.735 -0.4336 -0.6337 -0.3625
  503MOL0     C67781   5.471   2.927   2.867 -0.0106 -0.1211  0.6140
  503MOL0     C67782   5.382   2.873   2.989  0.0670  0.1456 -1.0265
  503MOL0     C67783   5.442   2.740   3.048  0.1396  0.5862 -0.4659
  503MOL0     C67784   5.574   2.745   3.125  0.5197 -0.3202  0.3002
  503MOL0     C67785   5.686   2.717   3.021 -0.1400 -0.3902 -0.0415
  503MOL0     C67786   5.818   2.785   3.066  1.3293  0.0924 -0.4395
  503MOL0     N67787   5.932   2.716   3.005 -0.5224 -0.3230 -0.0214
  503MOL0     C67788   6.003   2.608   3.050 -0.1264 -0.0094  0.3720
  503MOL0     C67789   6.105   2.584   2.975  0.0875 -0.8317  0.0678
  503MOL0     C67790   6.202   2.461   2.989 -0.8647 -0.0560  0.0570
  503MOL0     C67791   6.144   2.335   2.924  1.5453 -0.9862 -0.7111
  503MOL0     C67792   6.144   2.344   2.773  0.2926 -0.1294  0.7301
  503MOL0     C67793   6.083   2.216   2.721  0.6299  0.8173  0.0274
  503MOL0     O67794   6.050   2.252   2.582  0.3054 -0.3384 -0.2380
  503MOL0     C67795   5.991   2.168   2.492  0.3729 -0.9432 -0.0390
  503MOL0     C67796   6.009   2.208   2.361 -0.4195 -1.0096 -0.1420
  503MOL0     C67797   5.965   2.139   2.255  0.2458 -0.2980  0.1496
  503MOL0     C67798   5.963   2.210   2.120 -0.4149 -0.7207 -0.2653
  503MOL0     C67799   5.914   2.013   2.277  0.8452 -0.2507  0.5618
  503MOL0     C67800   5.872   1.920   2.165  1.2202 -0.0781  0.1340
  503MOL0     O67801   5.899   1.949   2.030  1.0281 -0.1691  0.4227
  503MOL0     C67802   5.888   1.854   1.932  0.1686 -0.3204  0.1101
  503MOL0     C67803   5.760   1.805   1.904 -0.1710  0.1242 -0.0970
  503MOL0     C67804   5.737   1.701   1.814  0.8470 -0.1280 -0.1898
  503MOL0     C67805   5.856   1.644   1.764 -0.2326 -0.7132 -0.5536
  503MOL0     O67806   5.834   1.542   1.678  0.4515  0.7820 -0.2314
  503MOL0     C67807   5.933   1.445   1.659 -0.0192  1.2546  0.3540
  503MOL0     C67808   5.861   1.323   1.615 -0.0254  0.6119 -0.0470
  503MOL0     C67809   5.796   1.349   1.472  0.4868  1.2786  0.1419
  503MOL0     C67810   5.701   1.237   1.433 -0.3212  0.3730 -0.3983
  503MOL0     C67811   5.651   1.264   1.296  0.1916  0.1581  1.1164
  503MOL0     C67812   5.748   1.235   1.179 -0.3947 -0.2726  0.0572
  503MOL0     C67813   5.670   1.189   1.052 -0.0131 -0.7863 -0.1571
  503MOL0     C67814   5.758   1.153   0.935 -1.4803 -0.5373 -0.0430
  503MOL0    Cl67815   5.669   1.092   0.803  0.1164 -0.4907  0.1054
  503MOL0     C67816   5.980   1.694   1.798 -0.4983 -0.1826 -0.0020
  503MOL0     C67817   6.000   1.799   1.876 -0.0412  0.1020 -0.0464
  503MOL0     O67818   5.811   1.823   2.201  0.1650  0.8298  0.1236
  503MOL0     C67819   5.899   1.970   2.411 -0.4630  0.3065 -1.1421
  503MOL0     C67820   5.935   2.046   2.523 -0.2284  0.3895 -0.1940
  503MOL0     N67821   6.117   2.693   2.895 -1.0433 -0.2584 -0.3478
  503MOL0     N67822   6.008   2.772   2.914  0.4034  0.6022  0.2066
  503MOL0     C67823   5.801   3.168   2.582  1.0669  0.4359 -0.2147
  503MOL0     C67824   5.925   3.210   2.563 -0.1233 -0.2575  0.2465
  503MOL0     C67825   6.350   3.339   2.642 -0.1585  0.3369  0.2996
  503MOL0     C67826   6.394   3.462   2.705  0.4846  0.2307  0.7793
  503MOL0     C67827   6.534   3.495   2.706  0.0269 -0.4350  0.6966
  503MOL0     C67828   6.625   3.412   2.642  0.1719 -0.3379  0.3451
  503MOL0     O67829   6.763   3.426   2.643 -0.2325  0.2766 -0.5758
  503MOL0     C67830   6.826   3.499   2.744 -0.0110 -0.2401 -0.3692
  503MOL0     C67831   6.968   3.544   2.718  0.6280  0.0358 -0.9283
  503MOL0     C67832   7.008   3.647   2.828  0.0951  0.6038 -0.7116
  503MOL0     C67833   7.053   3.558   2.945 -0.7151  0.4145 -0.1434
  503MOL0     C67834   7.184   3.495   2.917  0.0694  0.2118  0.1701
  503MOL0     C67835   7.302   3.444   2.916 -0.0478 -0.4891  0.7806
  503MOL0     C67836   6.574   3.302   2.566  0.6632 -0.3639 -0.7179
  503MOL0     C67837   6.437   3.264   2.563 -0.3647 -0.5050 -0.1428
  503MOL0     H67838   6.106   2.951   2.646 -0.4593 -1.6683 -1.8282
  503MOL0     H67839   5.880   2.842   2.676  2.8065 -0.8677 -1.9789
  503MOL0     H67840   5.584   2.851   2.535  1.3029  0.9406  0.3885
  503MOL0     H67841   5.680   2.808   2.674 -1.6399 -1.7643  1.7004
  503MOL0     H67842   5.386   2.862   2.685 -3.0856 -1.7670  3.8205
  503MOL0     H67843   5.482   2.742   2.770  0.2427 -0.4747  0.1427
  503MOL0     H67844   5.572   2.942   2.907  1.3686  2.5454 -3.2638
  503MOL0     H67845   5.433   3.024   2.836 -0.4522 -0.3913  0.2999
  503MOL0     H67846   5.367   2.952   3.063 -0.1781 -2.4407  1.9135
  503MOL0     H67847   5.283   2.866   2.943 -1.6187  2.8748  1.7930
  503MOL0     H67848   5.369   2.691   3.114  1.5395  1.1837  1.6502
  503MOL0     H67849   5.448   2.666   2.968  0.1807 -0.4368  0.4581
  503MOL0     H67850   5.590   2.842   3.175 -0.8837 -0.6361  1.4328
  503MOL0     H67851   5.576   2.677   3.211  0.2269  0.0877  0.6363
  503MOL0     H67852   5.696   2.608   3.019 -0.3011 -0.4318  0.9527
  503MOL0     H67853   5.650   2.740   2.921 -2.4923 -0.5968  0.7035
  503MOL0     H67854   5.831   2.788   3.175 -0.9391  0.1970 -0.1178
  503MOL0     H67855   5.828   2.889   3.033  0.1238 -0.6569 -3.5053
  503MOL0     H67856   5.982   2.544   3.136  1.2682 -0.1220  0.6631
  503MOL0     H67857   6.298   2.487   2.942 -1.2504 -0.2164 -0.8409
  503MOL0     H67858   6.224   2.444   3.095 -0.9036 -0.2258  0.0385
  503MOL0     H67859   6.042   2.322   2.961  1.9408 -1.7879  0.1405
  503MOL0     H67860   6.193   2.246   2.964 -1.5915 -3.4130 -1.8242
  503MOL0     H67861   6.240   2.361   2.725 -0.7409  1.2790 -0.9852
  503MOL0     H67862   6.077   2.423   2.737  1.6059  0.1707 -1.1745
  503MOL0     H67863   5.986   2.191   2.763 -1.3496 -3.2095 -5.7764
  503MOL0     H67864   6.150   2.131   2.733 -4.4237 -3.8938 -1.2400
  503MOL0     H67865   6.065   2.300   2.349  0.3374 -1.7005 -2.6024
  503MOL0     H67866   6.019   2.153   2.045 -1.2807  1.7149 -2.9787
  503MOL0     H67867   5.864   2.242   2.086  0.6953  2.5369 -0.8263
  503MOL0     H67868   6.014   2.306   2.135  0.5236 -1.3329  0.6101
  503MOL0     H67869   5.674   1.863   1.937 -0.4963  0.5224 -1.5477
  503MOL0     H67870   5.638   1.660   1.793  2.0106 -2.8015 -0.9082
  503MOL0     H67871   6.004   1.458   1.578  0.9796 -0.1181  0.9692
  503MOL0     H67872   5.989   1.422   1.751  0.8490  1.3097 -0.1486
  503MOL0     H67873   5.938   1.246   1.619 -2.0760 -1.5225  1.3496
  503MOL0     H67874   5.785   1.282   1.682 -0.9379  1.4487 -0.5449
  503MOL0     H67875   5.881   1.350   1.403  2.4020 -0.0157  2.3535
  503MOL0     H67876   5.746   1.446   1.468  0.9633  1.6396  2.0932
  503MOL0     H67877   5.777   1.159   1.423  2.3160  3.0294 -2.8137
  503MOL0     H67878   5.630   1.211   1.513 -0.1747 -3.0904 -1.2281
  503MOL0     H67879   5.617   1.368   1.295  1.0158  0.4467  1.6783
  503MOL0     H67880   5.560   1.214   1.262  1.1059 -0.6164 -0.2599
  503MOL0     H67881   5.798   1.328   1.149 -1.2452  0.6684  1.4237
  503MOL0     H67882   5.821   1.157   1.200  1.1096  1.0475 -0.1155
  503MOL0     H67883   5.585   1.257   1.039 -2.5315 -3.3595  1.4288
  503MOL0     H67884   5.619   1.096   1.081 -2.7988 -0.0515 -2.2046
  503MOL0     H67885   5.835   1.078   0.954  0.9874  0.9046 -3.3377
  503MOL0     H67886   5.804   1.248   0.905  0.5477 -1.7335 -0.9417
  503MOL0     H67887   6.070   1.654   1.752 -1.0267 -1.5345  0.1039
  503MOL0     H67888   6.103   1.818   1.903 -0.2184 -2.5997  3.2868
  503MOL0     H67889   5.845   1.878   2.431  0.2210  0.0704 -0.3295
  503MOL0     H67890   5.931   2.018   2.628 -3.3949  0.2890 -0.2516
  503MOL0     H67891   5.725   3.243   2.564 -0.3469 -1.3232 -2.0619
  503MOL0     H67892   5.954   3.303   2.516 -2.4223 -0.3491 -1.4952
  503MOL0     H67893   6.325   3.528   2.757 -1.0792 -1.6447  1.1826
  503MOL0     H67894   6.566   3.584   2.759 -0.8605 -0.5175  1.4028
  503MOL0     H67895   6.771   3.593   2.739 -0.5645 -0.5713 -0.6355
  503MOL0     H67896   6.814   3.455   2.844 -0.6581  2.2235  0.7024
  503MOL0     H67897   6.971   3.601   2.624  1.7642  1.9083  0.1868
  503MOL0     H67898   7.037   3.460   2.704 -0.0313 -0.4085 -1.6345
  503MOL0     H67899   6.922   3.709   2.855 -0.1658 -0.3621  0.7753
  503MOL0     H67900   7.090   3.709   2.791  1.4811  0.0965  1.3903
  503MOL0     H67901   6.978   3.481   2.962  0.9440 -1.5052 -0.9849
  503MOL0     H67902   7.073   3.616   3.035 -1.9101  1.9448 -0.8093
  503MOL0     H67903   7.388   3.382   2.923  2.0521  2.0351 -0.8778
  503MOL0     H67904   6.647   3.239   2.517 -0.6268 -3.5189  1.0960
  503MOL0     H67905   6.402   3.177   2.509  0.8259 -1.0905 -0.0120
  504MOL0     O67906   8.034   7.043   9.237  0.8420 -0.2725  0.1658
  504MOL0     C67907   7.992   6.949   9.309 -0.7325 -0.4748 -0.3692
  504MOL0     O67908   7.892   6.958   9.398  0.2074  0.4002 -0.1966
  504MOL0     C67909   7.813   7.068   9.387 -0.5894  0.8011  0.4369
  504MOL0     C67910   7.686   7.051   9.326 -0.3253  0.1111  0.3944
  504MOL0     C67911   7.601   7.156   9.309  0.7939 -0.6264 -0.0816
  504MOL0     C67912   7.644   7.281   9.351 -0.7825 -0.1583 -0.5138
  504MOL0     O67913   7.579   7.397   9.348 -0.1656 -0.6025 -0.5710
  504MOL0     C67914   7.442   7.405   9.307 -0.1717 -0.3151  1.5442
  504MOL0     C67915   7.370   7.534   9.332 -0.8652  0.4579 -1.3910
  504MOL0     C67916   7.215   7.517   9.304  0.0134  0.0741  1.0435
  504MOL0     C67917   7.154   7.643   9.244  1.6993  0.4623  0.5126
  504MOL0     C67918   7.003   7.622   9.214  1.2472  1.1427  0.4720
  504MOL0     C67919   6.928   7.755   9.175 -0.5581 -0.9513  0.1885
  504MOL0     C67920   6.802   7.744   9.088  0.0245 -0.5633 -0.4206
  504MOL0     C67921   6.692   7.657   9.166 -0.1237  0.6521  1.0801
  504MOL0     N67922   6.558   7.686   9.113 -0.3529  0.3761  1.0013
  504MOL0     C67923   6.498   7.635   8.988 -0.5477  0.4147 -0.1251
  504MOL0     C67924   6.375   7.691   8.974 -0.2527 -0.1550  0.5472
  504MOL0     C67925   6.289   7.698   8.858  0.5081 -0.1048  0.4594
  504MOL0     C67926   6.298   7.846   8.807  0.0766  0.3863  0.5053
  504MOL0     C67927   6.439   7.874   8.736  0.9783  0.2594  0.1456
  504MOL0     C67928   6.460   8.000   8.678 -0.5916 -0.5634  0.7003
  504MOL0     O67929   6.601   8.026   8.657 -0.2236 -0.1841 -0.3764
  504MOL0     C67930   6.673   8.103   8.749  0.9932  1.3000  0.2969
  504MOL0     C67931   6.778   8.187   8.710 -0.4137  0.1758 -0.2384
  504MOL0     C67932   6.862   8.249   8.808  0.1402 -0.0792  0.1421
  504MOL0     C67933   6.976   8.335   8.751 -0.0743  1.0620  0.2906
  504MOL0     C67934   6.849   8.223   8.944 -0.0208  0.1590  0.3604
  504MOL0     C67935   6.924   8.290   9.051 -0.0503  0.1481  0.5752
  504MOL0     O67936   6.957   8.422   9.029 -0.1516 -0.4433  0.0057
  504MOL0     C67937   6.976   8.490   9.148  0.3687  0.1808 -1.0161
  504MOL0     C67938   6.878   8.579   9.187  0.1918  0.8661  0.0033
  504MOL0     C67939   6.883   8.631   9.319 -0.1668  0.2810  0.3061
  504MOL0     C67940   6.996   8.622   9.398  0.1839  0.7931 -0.2986
  504MOL0     O67941   7.004   8.667   9.531  0.6897  0.7322  0.3526
  504MOL0     C67942   6.978   8.809   9.539  0.3910  0.3047 -0.5702
  504MOL0     C67943   7.103   8.878   9.596  1.2273  0.2884 -0.3735
  504MOL0     C67944   7.100   9.027   9.591  0.7115 -0.6233  0.0404
  504MOL0     C67945   7.208   9.092   9.688 -0.2481 -0.0612  0.7599
  504MOL0     C67946   7.182   9.070   9.838 -0.7353  0.0060 -0.2266
  504MOL0     C67947   7.062   9.149   9.892 -0.3148 -0.3549 -0.1893
  504MOL0     C67948   7.058   9.138  10.049  0.9236  0.0599 -0.3597
  504MOL0     C67949   6.916   9.140  10.094  0.4051  0.6724 -0.5182
  504MOL0    Cl67950   6.916   9.073  10.267  0.2604  0.0860  0.3892
  504MOL0     C67951   7.102   8.554   9.352 -0.0697 -0.0033  0.1519
  504MOL0     C67952   7.095   8.481   9.229 -0.0364 -0.7413 -0.6090
  504MOL0     O67953   6.941   8.226   9.155 -0.1753 -0.5991 -0.0392
  504MOL0     C67954   6.743   8.138   8.983  0.6266 -0.2614 -0.1750
  504MOL0     C67955   6.654   8.090   8.887  0.0679 -0.3035  0.6122
  504MOL0     N67956   6.355   7.770   9.096  0.1188  0.5936  0.2576
  504MOL0     N67957   6.467   7.762   9.172  0.8497 -0.0908 -0.8547
  504MOL0     C67958   7.772   7.297   9.400 -0.1429  0.3498 -0.6443
  504MOL0     C67959   7.862   7.187   9.427  1.2215 -0.4411  0.1092
  504MOL0     C67960   8.041   6.811   9.284  0.5120 -0.6349 -0.8889
  504MOL0     C67961   8.034   6.712   9.384 -0.6051  0.1494 -0.2836
  504MOL0     C67962   8.059   6.578   9.347 -0.5407 -1.3461 -0.3947
  504MOL0     C67963   8.111   6.553   9.221 -0.5043 -0.7469  0.9057
  504MOL0     O67964   8.159   6.434   9.173  0.0584 -0.0077  0.1585
  504MOL0     C67965   8.092   6.325   9.210 -0.2823 -0.1449  0.2482
  504MOL0     C67966   8.133   6.225   9.099 -0.0623  0.0103 -0.2261
  504MOL0     C67967   8.091   6.083   9.121 -0.1352  0.2684 -0.7949
  504MOL0     C67968   8.105   6.002   8.991 -0.2675  0.3745 -0.6865
  504MOL0     C67969   8.085   5.865   9.033 -0.3366 -0.0648  0.2893
  504MOL0     C67970   8.088   5.754   9.077 -0.4261  0.0413 -0.2261
  504MOL0     C67971   8.121   6.654   9.126 -0.0754  0.9565  0.3496
  504MOL0     C67972   8.088   6.785   9.153 -0.6446 -0.4793 -0.2926
  504MOL0     H67973   7.663   6.949   9.298  0.3184  0.9391 -3.7703
  504MOL0     H67974   7.503   7.155   9.262  2.1911  0.9041 -3.2970
  504MOL0     H67975   7.439   7.373   9.203 -0.8378  1.4577  0.9944
  504MOL0     H67976   7.386   7.324   9.355  1.2682 -3.7327 -1.9522
  504MOL0     H67977   7.377   7.568   9.436 -1.2569 -0.7156 -0.9682
  504MOL0     H67978   7.423   7.610   9.272  0.5535  0.6300  0.0145
  504MOL0     H67979   7.188   7.424   9.252 -0.1952  1.8654 -2.3524
  504MOL0     H67980   7.170   7.501   9.403  1.4399 -1.9094  1.4186
  504MOL0     H67981   7.172   7.733   9.304  0.7994  1.0798 -0.1234
  504MOL0     H67982   7.212   7.660   9.153  2.4823  0.1392  0.9396
  504MOL0     H67983   6.988   7.537   9.147 -0.6944 -0.8925  3.2494
  504MOL0     H67984   6.957   7.577   9.302 -1.3573 -0.7346 -1.6866
  504MOL0     H67985   6.904   7.814   9.263  0.3827  0.3157 -0.3738
  504MOL0     H67986   7.000   7.816   9.119 -0.5978  0.4176  1.5835
  504MOL0     H67987   6.756   7.843   9.094 -0.0826 -0.6128 -0.4372
  504MOL0     H67988   6.823   7.704   8.988 -0.7716 -0.4835 -0.6260
  504MOL0     H67989   6.702   7.679   9.273  2.2366  1.8339  0.6666
  504MOL0     H67990   6.719   7.552   9.153 -0.0101  0.9465 -1.6082
  504MOL0     H67991   6.550   7.562   8.927  2.5597  1.2923  1.2670
  504MOL0     H67992   6.332   7.628   8.786 -2.7490 -3.2619  1.3166
  504MOL0     H67993   6.185   7.670   8.875  0.3771 -0.4304 -0.7951
  504MOL0     H67994   6.292   7.924   8.885  2.1812  2.1643 -0.9897
  504MOL0     H67995   6.218   7.866   8.735  0.1075  0.4411  0.4865
  504MOL0     H67996   6.435   7.798   8.657 -0.6654 -0.4220  0.8493
  504MOL0     H67997   6.524   7.841   8.796  0.7753  0.1124  0.3552
  504MOL0     H67998   6.413   8.074   8.743 -2.2111 -0.9812  0.0358
  504MOL0     H67999   6.423   8.008   8.575  1.3325 -0.5243 -0.0472
  504MOL0     H68000   6.790   8.205   8.604  0.1024  0.8678 -0.0702
  504MOL0     H68001   6.965   8.334   8.642 -1.0258  1.5374  0.3724
  504MOL0     H68002   6.957   8.438   8.781  0.9622  1.1121  0.8113
  504MOL0     H68003   7.074   8.302   8.787 -0.4132  2.3361  2.5263
  504MOL0     H68004   6.787   8.592   9.130 -1.9734 -0.0087  3.0607
  504MOL0     H68005   6.796   8.680   9.363  0.6420 -0.8403  3.4518
  504MOL0     H68006   6.948   8.842   9.439 -2.5081 -0.6436 -0.1194
  504MOL0     H68007   6.894   8.835   9.604  2.2824 -0.9032  2.5555
  504MOL0     H68008   7.126   8.841   9.697 -1.2081 -0.7386 -0.1048
  504MOL0     H68009   7.181   8.856   9.523  1.6156  2.1685 -0.5525
  504MOL0     H68010   7.004   9.060   9.632  0.5237  0.0127 -0.8636
  504MOL0     H68011   7.110   9.075   9.493 -1.1753  2.1146  1.0719
  504MOL0     H68012   7.310   9.061   9.660  1.8326  3.6262  3.4286
  504MOL0     H68013   7.209   9.199   9.668 -0.0447 -0.2525 -0.3213
  504MOL0     H68014   7.275   9.108   9.880 -0.7611  1.8944 -1.7782
  504MOL0     H68015   7.156   8.966   9.863  0.0590 -0.8917 -2.7701
  504MOL0     H68016   7.062   9.255   9.867 -0.3569  0.1021  1.5755
  504MOL0     H68017   6.978   9.107   9.836 -1.5530  3.0365 -1.1183
  504MOL0     H68018   7.101   9.230  10.091 -0.3292  0.9648 -0.9836
  504MOL0     H68019   7.103   9.051  10.098 -1.0494 -0.9248 -0.1613
  504MOL0     H68020   6.872   9.059  10.036  1.4578  0.0727 -0.5011
  504MOL0     H68021   6.862   9.235  10.086 -3.1338 -0.7919  2.7837
  504MOL0     H68022   7.179   8.546   9.429  0.4893 -1.6559 -0.5310
  504MOL0     H68023   7.182   8.426   9.195 -1.0228 -1.2431 -2.4314
  504MOL0     H68024   6.720   8.126   9.089  1.2426  0.4148  0.0407
  504MOL0     H68025   6.568   8.040   8.929  0.4378  0.1820  2.0028
  504MOL0     H68026   7.815   7.395   9.418  2.3640 -0.9986  1.4233
  504MOL0     H68027   7.965   7.188   9.461  1.1127  0.5932  0.4334
  504MOL0     H68028   8.004   6.737   9.485 -2.8752  0.4354 -0.9663
  504MOL0     H68029   8.038   6.511   9.430 -4.2320  3.6139  3.3060
  504MOL0     H68030   8.115   6.280   9.307 -2.1582 -2.4428 -0.2771
  504MOL0     H68031   7.985   6.344   9.196 -0.3277 -0.9756 -0.6459
  504MOL0     H68032   8.240   6.231   9.074  0.0710 -0.5599  0.1827
  504MOL0     H68033   8.078   6.261   9.012 -0.2887  2.7528  0.9481
  504MOL0     H68034   7.988   6.085   9.157 -0.0332 -1.1219 -0.3847
  504MOL0     H68035   8.149   6.048   9.206 -0.1071  2.2034  0.0388
  504MOL0     H68036   8.204   6.016   8.945 -0.4061  0.4258 -0.9656
  504MOL0     H68037   8.030   6.035   8.919 -1.1175 -0.8948 -0.4004
  504MOL0     H68038   8.111   5.663   9.127 -1.0769  0.0628  0.1212
  504MOL0     H68039   8.148   6.616   9.028  2.2409  1.3939  0.7834
  504MOL0     H68040   8.084   6.862   9.077  1.8695 -0.0980 -0.1168
  505MOL0     O68041   9.330   4.798   6.309 -0.1574 -0.0442  0.9487
  505MOL0     C68042   9.376   4.901   6.254  0.7845  0.6426  0.4319
  505MOL0     O68043   9.463   4.899   6.149 -0.6535  0.2754 -0.1422
  505MOL0     C68044   9.504   4.775   6.112  0.2644 -0.3191 -0.5388
  505MOL0     C68045   9.623   4.717   6.159  0.7134 -0.6378  0.1210
  505MOL0     C68046   9.647   4.587   6.118 -0.3354  0.2722 -0.1937
  505MOL0     C68047   9.562   4.516   6.030  0.0734 -0.2313 -0.2698
  505MOL0     O68048   9.611   4.401   5.982 -0.2758 -0.7742  1.0514
  505MOL0     C68049   9.593   4.283   6.057 -0.3124 -0.1112 -0.2338
  505MOL0     C68050   9.440   4.241   6.061  0.5630 -0.4138  0.1040
  505MOL0     C68051   9.369   4.201   5.925 -0.8343 -0.7073  1.3124
  505MOL0     C68052   9.221   4.191   5.922  0.2924  0.3940 -0.2089
  505MOL0     C68053   9.161   4.076   5.839  1.1309 -0.7393  0.2296
  505MOL0     C68054   9.002   4.079   5.837  0.3534 -1.3380 -0.1677
  505MOL0     C68055   8.940   3.992   5.941  0.2293  0.4574 -0.7142
  505MOL0     C68056   8.813   3.920   5.886  0.7085 -0.4456 -0.3662
  505MOL0     N68057   8.716   4.023   5.873  1.2201 -0.2332 -0.0884
  505MOL0     C68058   8.691   4.090   5.752  0.5813 -0.1438 -0.6449
  505MOL0     C68059   8.579   4.169   5.785 -0.2388  0.8631 -0.4431
  505MOL0     C68060   8.488   4.253   5.699 -0.5221  0.0869  0.2992
  505MOL0     C68061   8.349   4.186   5.662  0.0384 -0.4065  0.9590
  505MOL0     C68062   8.258   4.227   5.545 -1.7757  0.8328  0.3688
  505MOL0     C68063   8.209   4.374   5.551  0.0639 -0.2203  0.2407
  505MOL0     O68064   8.324   4.458   5.520  0.1022  0.4195  0.2836
  505MOL0     C68065   8.306   4.596   5.524  0.7414 -0.5985 -0.5544
  505MOL0     C68066   8.189   4.672   5.549 -0.3453  0.1492  0.3744
  505MOL0     C68067   8.195   4.816   5.551 -0.2270 -0.1052  0.1769
  505MOL0     C68068   8.067   4.891   5.566  0.2545 -0.6037 -0.3866
  505MOL0     C68069   8.318   4.883   5.528  0.4164 -0.5767  0.4441
  505MOL0     C68070   8.335   5.029   5.519 -0.4521 -0.0668 -1.3333
  505MOL0     O68071   8.456   5.069   5.567  0.6244 -0.2390 -0.0184
  505MOL0     C68072   8.526   5.180   5.515  0.2770 -0.2216 -0.5661
  505MOL0     C68073   8.637   5.161   5.427 -0.0031 -0.9424 -0.4830
  505MOL0     C68074   8.727   5.269   5.411 -0.2922 -0.1321 -0.6513
  505MOL0     C68075   8.710   5.393   5.473  1.1962  0.0187  0.4373
  505MOL0     O68076   8.789   5.508   5.450 -0.3369 -0.0440  0.6695
  505MOL0     C68077   8.928   5.496   5.422  0.1749  0.3134  0.2508
  505MOL0     C68078   8.999   5.622   5.386 -0.1969  0.5809  1.2749
  505MOL0     C68079   9.149   5.609   5.383 -0.5739 -0.7774  0.7863
  505MOL0     C68080   9.226   5.744   5.341  0.3464  1.1055 -0.3839
  505MOL0     C68081   9.235   5.834   5.461  0.0991 -0.3942 -1.0315
  505MOL0     C68082   9.233   5.974   5.419  0.5538  0.1094 -0.1863
  505MOL0     C68083   9.255   6.072   5.545 -0.3163  0.6467 -0.0636
  505MOL0     C68084   9.263   6.221   5.528  0.2306  0.2094  0.4008
  505MOL0    Cl68085   9.137   6.296   5.426  0.0534  0.2847 -0.4712
  505MOL0     C68086   8.591   5.412   5.537  0.8340 -0.1404  0.1473
  505MOL0     C68087   8.502   5.309   5.566  0.0211 -0.2453 -0.0277
  505MOL0     O68088   8.252   5.102   5.467 -0.9056 -0.3270 -0.6686
  505MOL0     C68089   8.435   4.803   5.513 -0.0461 -0.0227  0.6462
  505MOL0     C68090   8.422   4.665   5.509 -0.5518  0.3084 -0.1913
  505MOL0     N68091   8.543   4.150   5.911  0.4936 -0.8708 -0.2315
  505MOL0     N68092   8.622   4.049   5.956 -0.7786  0.2129 -1.7028
  505MOL0     C68093   9.454   4.586   5.967 -0.0193 -0.6630  0.0522
  505MOL0     C68094   9.420   4.709   6.023  0.9274  0.2247 -0.7112
  505MOL0     C68095   9.327   5.035   6.310  0.1228  0.6296  0.3699
  505MOL0     C68096   9.236   5.041   6.417 -0.2949  0.8016 -0.3972
  505MOL0     C68097   9.181   5.172   6.452 -0.3393  0.5195 -0.3256
  505MOL0     C68098   9.215   5.291   6.380 -0.2071  1.1045  0.4411
  505MOL0     O68099   9.177   5.416   6.415  0.3459  0.4757 -0.5857
  505MOL0     C68100   9.103   5.438   6.530 -0.2923 -0.4028 -0.3451
  505MOL0     C68101   9.071   5.587   6.540 -0.2190  1.1546 -0.2493
  505MOL0     C68102   8.976   5.617   6.661 -0.5736 -0.0869 -0.1412
  505MOL0     C68103   9.032   5.563   6.797  0.5450 -0.4477 -0.7710
  505MOL0     C68104   9.144   5.641   6.857 -0.6823  0.5581 -0.3088
  505MOL0     C68105   9.228   5.703   6.920 -0.7446  0.6429 -1.2353
  505MOL0     C68106   9.304   5.272   6.275  1.0584 -0.2498  0.2183
  505MOL0     C68107   9.361   5.152   6.235  0.2594  1.3507 -0.3759
  505MOL0     H68108   9.689   4.773   6.226 -0.3985 -0.5046  1.1471
  505MOL0     H68109   9.729   4.533   6.164 -0.3041  1.9879  1.9496
  505MOL0     H68110   9.649   4.198   6.016 -1.6163 -0.6576 -0.9656
  505MOL0     H68111   9.636   4.302   6.155 -1.1536  0.2413  0.0810
  505MOL0     H68112   9.422   4.159   6.130  0.0538  0.2812  0.8104
  505MOL0     H68113   9.376   4.321   6.099 -2.4891 -0.8232 -3.5005
  505MOL0     H68114   9.398   4.289   5.867  0.9595 -2.1144 -0.0520
  505MOL0     H68115   9.412   4.106   5.891 -1.2086  0.1162 -1.8073
  505MOL0     H68116   9.201   4.176   6.028  0.8701  0.2043 -0.1232
  505MOL0     H68117   9.179   4.281   5.876 -1.9450  0.1092  1.1428
  505MOL0     H68118   9.197   4.081   5.736 -2.7394  1.4309 -1.2020
  505MOL0     H68119   9.184   3.984   5.893  0.8269 -0.9702 -0.0324
  505MOL0     H68120   8.964   4.179   5.859  1.6858 -1.0758  1.1183
  505MOL0     H68121   8.962   4.053   5.738  1.0663  0.4722 -0.9850
  505MOL0     H68122   9.004   3.908   5.970 -0.3136  0.1342 -0.4451
  505MOL0     H68123   8.921   4.046   6.034 -0.0525  0.6651 -0.8892
  505MOL0     H68124   8.778   3.844   5.957 -1.9153 -0.2187 -1.2999
  505MOL0     H68125   8.833   3.870   5.791  0.5373  1.3389 -1.3794
  505MOL0     H68126   8.746   4.085   5.658  0.0080  2.5408 -1.1973
  505MOL0     H68127   8.466   4.353   5.737 -1.4019  1.3485 -3.1157
  505MOL0     H68128   8.546   4.260   5.606  0.6715  1.5473  1.1256
  505MOL0     H68129   8.285   4.196   5.750 -3.1209  3.6141 -1.4494
  505MOL0     H68130   8.381   4.082   5.658 -0.1791 -0.4449  0.1632
  505MOL0     H68131   8.173   4.159   5.549 -1.3808  0.2503 -0.6448
  505MOL0     H68132   8.299   4.212   5.444  0.3694  3.9441  0.6307
  505MOL0     H68133   8.177   4.395   5.653 -0.5293 -1.9946  0.4711
  505MOL0     H68134   8.127   4.395   5.481 -1.3872  0.7492  2.1405
  505MOL0     H68135   8.102   4.612   5.575  0.4128 -1.2449 -0.1445
  505MOL0     H68136   8.091   4.980   5.624 -1.1979 -1.5102  1.7421
  505MOL0     H68137   8.025   4.931   5.473 -0.4048  4.0254  1.6538
  505MOL0     H68138   7.980   4.850   5.619 -0.3906  3.8036  2.4406
  505MOL0     H68139   8.657   5.061   5.391 -2.2993 -1.4811 -0.3720
  505MOL0     H68140   8.821   5.256   5.360  0.7938  0.6361  1.0799
  505MOL0     H68141   8.980   5.451   5.508 -1.9716  0.5829  1.7738
  505MOL0     H68142   8.930   5.424   5.340  2.4216  0.5000  0.0859
  505MOL0     H68143   8.945   5.662   5.300 -0.1787 -2.3772 -0.2212
  505MOL0     H68144   8.977   5.690   5.470  0.2876  0.9883  1.0775
  505MOL0     H68145   9.170   5.536   5.304  1.6114  0.7487 -0.1489
  505MOL0     H68146   9.184   5.572   5.480 -1.1397  2.3183  2.3066
  505MOL0     H68147   9.323   5.720   5.296  0.3128 -1.3435  0.6955
  505MOL0     H68148   9.172   5.790   5.258 -1.9967 -1.7499 -0.6413
  505MOL0     H68149   9.318   5.812   5.529 -1.4044 -2.2708  0.2919
  505MOL0     H68150   9.148   5.826   5.526 -3.5688  1.9784 -5.1286
  505MOL0     H68151   9.311   5.991   5.345  1.5578  0.3871  0.9062
  505MOL0     H68152   9.137   5.988   5.369  0.5653 -2.9562 -1.2526
  505MOL0     H68153   9.351   6.049   5.593  0.7898  0.5172 -2.2359
  505MOL0     H68154   9.169   6.056   5.611  0.9115  0.3435  1.5409
  505MOL0     H68155   9.362   6.257   5.500 -0.1083  1.8260  1.1582
  505MOL0     H68156   9.253   6.262   5.629 -1.4191 -3.0523  1.7005
  505MOL0     H68157   8.564   5.509   5.579 -4.3296 -1.3294  0.1855
  505MOL0     H68158   8.407   5.324   5.617  0.4862  0.5858  0.6233
  505MOL0     H68159   8.525   4.846   5.470 -0.4591 -1.0477 -1.3702
  505MOL0     H68160   8.510   4.610   5.478 -1.1361 -0.5925 -0.2751
  505MOL0     H68161   9.387   4.540   5.896  1.5034 -1.5658 -0.8621
  505MOL0     H68162   9.327   4.759   5.999 -0.6387 -0.6080  2.9335
  505MOL0     H68163   9.196   4.953   6.466  2.7306 -1.4885 -1.7017
  505MOL0     H68164   9.125   5.169   6.544 -1.3677 -0.0599 -0.9604
  505MOL0     H68165   9.005   5.390   6.545 -1.3264  2.1286  1.6126
  505MOL0     H68166   9.177   5.414   6.607  2.2053 -0.5217 -2.6193
  505MOL0     H68167   9.010   5.610   6.451  1.1082  1.7688 -1.0289
  505MOL0     H68168   9.160   5.650   6.543 -0.6954  1.8045  2.7421
  505MOL0     H68169   8.878   5.571   6.643  0.8268 -3.3548 -0.1146
  505MOL0     H68170   8.962   5.725   6.673 -1.9938 -0.1018 -1.4185
  505MOL0     H68171   9.061   5.457   6.802  3.1914  0.2806  2.5905
  505MOL0     H68172   8.944   5.564   6.862 -0.4420  0.5100 -2.0726
  505MOL0     H68173   9.300   5.771   6.961 -1.8055 -0.0500  2.1145
  505MOL0     H68174   9.325   5.367   6.227  3.8332 -0.4139  0.8736
  505MOL0     H68175   9.432   5.151   6.152  0.6658  0.3517 -0.0259
  506MOL0     O68176   3.690   7.351  10.347 -0.1147  0.3510 -0.8157
  506MOL0     C68177   3.672   7.330  10.466  0.1380 -0.0322 -0.2260
  506MOL0     O68178   3.764   7.298  10.555  0.4322 -0.0068 -0.1159
  506MOL0     C68179   3.889   7.271  10.510  0.0942  0.9032 -0.1548
  506MOL0     C68180   3.998   7.362  10.489  0.0625  0.1754 -0.7741
  506MOL0     C68181   4.119   7.306  10.433  0.8119 -0.8149 -0.5124
  506MOL0     C68182   4.145   7.177  10.430 -0.1216  0.6016  0.3475
  506MOL0     O68183   4.271   7.136  10.398 -0.5560 -0.1488  0.0151
  506MOL0     C68184   4.339   7.055  10.494  0.6808 -0.5805  0.7652
  506MOL0     C68185   4.397   7.147  10.602 -0.1653  1.0542  0.1110
  506MOL0     C68186   4.467   7.280  10.570  0.1306  0.7136 -0.5969
  506MOL0     C68187   4.609   7.302  10.627 -0.2193 -0.2042  0.0009
  506MOL0     C68188   4.654   7.449  10.589 -0.6303  0.6615 -0.2638
  506MOL0     C68189   4.808   7.436  10.557  0.0052  0.2185 -0.6282
  506MOL0     C68190   4.854   7.384  10.424  0.6951  0.5556 -0.3444
  506MOL0     C68191   4.822   7.471  10.302  0.5761  0.5159  0.0721
  506MOL0     N68192   4.933   7.564  10.278  0.3013 -0.1245 -0.0160
  506MOL0     C68193   5.048   7.534  10.202  0.4042  0.2587  0.2556
  506MOL0     C68194   5.112   7.645  10.177  0.1085 -1.0335  1.0487
  506MOL0     C68195   5.235   7.651  10.088 -0.0077  0.5191  0.2301
  506MOL0     C68196   5.343   7.579  10.169  0.0578  0.5118  0.4999
  506MOL0     C68197   5.416   7.650  10.287  0.7493 -0.3498 -0.2935
  506MOL0     C68198   5.512   7.562  10.356  0.4424  0.6616  0.1934
  506MOL0     O68199   5.561   7.636  10.477 -0.1694  0.3733  0.0405
  506MOL0     C68200   5.692   7.605  10.528 -0.2970 -0.3274  0.5886
  506MOL0     C68201   5.780   7.522  10.466 -0.2281 -0.2752  0.4001
  506MOL0     C68202   5.903   7.479  10.518 -0.5790 -0.4038 -0.2114
  506MOL0     C68203   5.993   7.398  10.430 -0.9898 -0.3495 -0.6000
  506MOL0     C68204   5.932   7.534  10.649 -0.3671 -1.4027  0.0946
  506MOL0     C68205   6.056   7.490  10.723  0.1828  0.6039 -0.0231
  506MOL0     O68206   6.100   7.577  10.813 -0.1281  0.1899 -0.0618
  506MOL0     C68207   6.209   7.544  10.896 -0.0235 -0.4298 -0.8170
  506MOL0     C68208   6.178   7.469  11.012  0.1747 -0.0488  0.6793
  506MOL0     C68209   6.281   7.444  11.100  0.5803 -0.4704 -0.2879
  506MOL0     C68210   6.410   7.482  11.070 -0.8869  0.7877 -0.5220
  506MOL0     O68211   6.518   7.440  11.146 -0.6388  0.6706  1.0576
  506MOL0     C68212   6.494   7.417  11.288  0.8198 -0.9513 -1.1396
  506MOL0     C68213   6.621   7.432  11.377 -0.2790 -1.0930  1.2535
  506MOL0     C68214   6.690   7.573  11.362 -0.2521  0.3160  0.5165
  506MOL0     C68215   6.602   7.670  11.449 -0.2547 -0.5128 -0.0955
  506MOL0     C68216   6.641   7.813  11.408 -0.1200  0.5371 -0.1077
  506MOL0     C68217   6.549   7.868  11.284 -0.5202 -0.3573  0.0876
  506MOL0     C68218   6.587   7.805  11.150 -0.3828  1.0290 -1.0795
  506MOL0     C68219   6.570   7.889  11.025  0.6484 -1.1529 -0.7680
  506MOL0    Cl68220   6.682   7.834  10.905 -0.0920  0.1151  0.3056
  506MOL0     C68221   6.439   7.555  10.960 -0.7154 -0.7634 -0.2300
  506MOL0     C68222   6.339   7.593  10.872 -0.5630  0.6940  0.0741
  506MOL0     O68223   6.089   7.370  10.707 -0.0897 -0.0649  0.2739
  506MOL0     C68224   5.843   7.631  10.706  0.0838  0.3152  0.8900
  506MOL0     C68225   5.717   7.663  10.646  0.5914 -0.0879 -0.6197
  506MOL0     N68226   5.036   7.748  10.229  0.4562 -0.1864  1.0868
  506MOL0     N68227   4.933   7.694  10.287  0.0442 -0.7714 -0.2211
  506MOL0     C68228   4.038   7.084  10.448 -0.5886  0.3162 -0.1762
  506MOL0     C68229   3.914   7.134  10.479  0.6527 -0.5707 -0.0200
  506MOL0     C68230   3.531   7.318  10.510 -0.9974 -0.2902  0.4053
  506MOL0     C68231   3.442   7.264  10.423 -0.6362  0.7937 -0.4480
  506MOL0     C68232   3.312   7.243  10.468  0.7410  0.4037 -0.6853
  506MOL0     C68233   3.274   7.271  10.604  0.0661  0.2423 -0.5724
  506MOL0     O68234   3.151   7.213  10.647 -0.5878 -0.4882 -0.3014
  506MOL0     C68235   3.090   7.285  10.751 -0.2072 -0.3818 -0.5448
  506MOL0     C68236   2.971   7.204  10.793  0.9964  1.2953  0.6776
  506MOL0     C68237   2.882   7.287  10.876  0.2812  0.4352  1.0425
  506MOL0     C68238   2.740   7.223  10.902 -0.1773  0.0525  0.5805
  506MOL0     C68239   2.640   7.323  10.878  0.4974 -0.9294  0.2818
  506MOL0     C68240   2.541   7.405  10.881  0.0264  0.3761  0.2414
  506MOL0     C68241   3.375   7.323  10.690 -0.3529 -0.4865 -0.3674
  506MOL0     C68242   3.504   7.338  10.641 -0.0899 -0.5642  0.5714
  506MOL0     H68243   3.995   7.467  10.517 -0.9408 -0.6292  2.6415
  506MOL0     H68244   4.202   7.376  10.427  0.5666 -0.0168  3.1883
  506MOL0     H68245   4.276   6.976  10.536 -0.7834  0.2303  0.1778
  506MOL0     H68246   4.433   7.019  10.452  2.3937  3.1391  1.0079
  506MOL0     H68247   4.325   7.171  10.680  2.0625 -1.5084  3.2093
  506MOL0     H68248   4.470   7.086  10.657 -0.0344  1.5800  0.5289
  506MOL0     H68249   4.472   7.274  10.461  1.9490 -2.2235 -0.4625
  506MOL0     H68250   4.397   7.355  10.609 -1.1107 -1.5589  1.8717
  506MOL0     H68251   4.620   7.289  10.735  1.1096 -1.2257 -0.2220
  506MOL0     H68252   4.676   7.222  10.593  0.0482  0.3247 -0.7325
  506MOL0     H68253   4.605   7.489  10.499 -1.3213 -1.6582 -0.9994
  506MOL0     H68254   4.637   7.521  10.669  2.0800  3.0732 -1.6857
  506MOL0     H68255   4.852   7.534  10.576  1.5311 -0.7421  1.2288
  506MOL0     H68256   4.868   7.385  10.634  0.2614 -0.1595 -1.0705
  506MOL0     H68257   4.963   7.372  10.423  1.2215  4.1194  0.4349
  506MOL0     H68258   4.791   7.295  10.422 -0.9722  1.5750  2.1606
  506MOL0     H68259   4.732   7.526  10.331  1.0939  1.6346 -0.3912
  506MOL0     H68260   4.788   7.409  10.219 -1.4518  1.0151  0.4732
  506MOL0     H68261   5.086   7.437  10.172  2.1101  1.1597 -0.6851
  506MOL0     H68262   5.224   7.605   9.990 -0.2624 -0.4993  0.7213
  506MOL0     H68263   5.270   7.755  10.085  0.3680  0.6444  3.8868
  506MOL0     H68264   5.422   7.554  10.098  2.6706  0.3355  3.2635
  506MOL0     H68265   5.315   7.478  10.200  2.6538 -1.3209 -2.5962
  506MOL0     H68266   5.348   7.688  10.363  0.5353 -0.3892 -0.4644
  506MOL0     H68267   5.476   7.727  10.238 -0.1866 -0.7709 -2.1939
  506MOL0     H68268   5.590   7.537  10.283 -1.8580  0.1897 -2.2494
  506MOL0     H68269   5.466   7.467  10.384 -1.9044  1.8977  0.7661
  506MOL0     H68270   5.761   7.477  10.369  2.3198  2.2771 -1.4612
  506MOL0     H68271   5.982   7.290  10.444  2.2459 -1.1840 -3.1778
  506MOL0     H68272   5.984   7.423  10.324  3.8818 -1.1207 -1.4172
  506MOL0     H68273   6.101   7.405  10.443 -0.0065 -3.4652 -4.9666
  506MOL0     H68274   6.075   7.436  11.021 -0.2695  1.7563  3.1681
  506MOL0     H68275   6.239   7.388  11.183  0.2813 -0.2710 -0.3058
  506MOL0     H68276   6.420   7.493  11.313  0.2347 -0.6794 -3.4078
  506MOL0     H68277   6.453   7.318  11.313 -0.4972  0.2672  1.9481
  506MOL0     H68278   6.586   7.421  11.480 -1.3450  2.2688  1.3522
  506MOL0     H68279   6.690   7.350  11.356 -0.9947 -1.1521 -1.1558
  506MOL0     H68280   6.710   7.603  11.259  2.2963 -0.7507  0.6495
  506MOL0     H68281   6.791   7.556  11.399  0.6777  4.3633  0.2037
  506MOL0     H68282   6.495   7.645  11.453 -0.7077  1.3993  0.7185
  506MOL0     H68283   6.643   7.664  11.550  1.9628  2.1609 -0.7462
  506MOL0     H68284   6.748   7.821  11.387  0.4715  0.8811  2.6508
  506MOL0     H68285   6.628   7.866  11.503  0.1869 -1.0078  0.8367
  506MOL0     H68286   6.445   7.842  11.310  0.0229 -1.5878  1.1352
  506MOL0     H68287   6.563   7.976  11.281  2.3206 -0.5814  1.6935
  506MOL0     H68288   6.539   7.708  11.135 -0.7787  1.1924 -0.8969
  506MOL0     H68289   6.693   7.777  11.147 -0.1360  1.9186 -0.8934
  506MOL0     H68290   6.603   7.992  11.040 -1.0034 -0.5995 -0.7287
  506MOL0     H68291   6.466   7.892  10.991  0.6214 -1.0192 -0.6732
  506MOL0     H68292   6.545   7.571  10.939 -0.5388 -2.6559 -1.0012
  506MOL0     H68293   6.376   7.647  10.786  0.6939 -2.4164 -1.4672
  506MOL0     H68294   5.868   7.676  10.802 -1.8782  1.3698  0.9493
  506MOL0     H68295   5.646   7.732  10.691  0.7268  0.6119 -1.4672
  506MOL0     H68296   4.053   6.978  10.427  1.0168  0.4189  0.3014
  506MOL0     H68297   3.821   7.078  10.476  0.5330 -0.5125  1.5138
  506MOL0     H68298   3.469   7.252  10.318  1.5816  1.6966 -0.0373
  506MOL0     H68299   3.232   7.203  10.406  0.5892  1.3699 -1.1270
  506MOL0     H68300   3.157   7.301  10.836 -1.6066 -1.0704  0.7290
  506MOL0     H68301   3.057   7.385  10.722 -0.3865  1.1308  4.0174
  506MOL0     H68302   2.996   7.109  10.842 -1.9176 -0.3320 -0.7490
  506MOL0     H68303   2.915   7.177  10.704  2.4700 -2.6109  0.7544
  506MOL0     H68304   2.867   7.386  10.832 -3.1023 -0.2759  0.2998
  506MOL0     H68305   2.928   7.310  10.973  0.8969 -0.4462  0.9652
  506MOL0     H68306   2.719   7.187  11.003 -0.0703 -0.8227  0.3025
  506MOL0     H68307   2.747   7.144  10.827  4.1360 -0.6090  1.4702
  506MOL0     H68308   2.450   7.461  10.894 -1.2153 -1.9865  3.0749
  506MOL0     H68309   3.347   7.339  10.793  1.2401  0.4115 -0.0353
  506MOL0     H68310   3.586   7.373  10.702 -0.8876  1.6986  0.4253
  507MOL0     O68311   4.661   2.673   2.218  0.1740 -0.2813 -0.0255
  507MOL0     C68312   4.639   2.648   2.340 -0.2805  0.2685  1.1647
  507MOL0     O68313   4.694   2.537   2.398 -0.2788  0.1616  0.3377
  507MOL0     C68314   4.772   2.451   2.324 -0.3324 -0.0546 -0.6618
  507MOL0     C68315   4.739   2.314   2.313  0.0617 -0.7062  0.6241
  507MOL0     C68316   4.833   2.227   2.262  0.3923 -0.0902  0.5126
  507MOL0     C68317   4.959   2.278   2.220  0.1724  0.4462  0.3231
  507MOL0     O68318   5.059   2.199   2.167  0.6439  0.1656  0.0715
  507MOL0     C68319   5.039   2.084   2.082  0.8447  0.2321 -0.4850
  507MOL0     C68320   4.933   2.120   1.978 -0.3297  0.2964  0.3041
  507MOL0     C68321   5.005   2.211   1.870 -0.9222 -0.4748  0.6812
  507MOL0     C68322   4.976   2.353   1.894 -0.9915 -0.1926 -0.2434
  507MOL0     C68323   5.047   2.431   1.791 -0.4971  0.4000 -0.6898
  507MOL0     C68324   5.008   2.576   1.801  0.2287 -0.3091  0.7612
  507MOL0     C68325   5.031   2.659   1.673 -0.6167  0.7419 -0.0948
  507MOL0     C68326   5.165   2.739   1.689  0.1433 -0.6498  0.2119
  507MOL0     N68327   5.154   2.846   1.787 -0.7030  0.2697 -0.3809
  507MOL0     C68328   5.066   2.956   1.767  0.4909  0.1013  0.8390
  507MOL0     C68329   5.079   3.022   1.881  0.7411 -0.8276 -0.0949
  507MOL0     C68330   5.004   3.144   1.921  0.1567 -0.7946 -0.2310
  507MOL0     C68331   4.856   3.111   1.959 -0.7933 -0.7557 -0.0957
  507MOL0     C68332   4.846   3.044   2.087 -0.0277  0.1541 -1.0489
  507MOL0     C68333   4.706   2.991   2.108  0.5881  0.1037 -0.3026
  507MOL0     O68334   4.607   3.090   2.091  0.3756 -0.1093 -0.1612
  507MOL0     C68335   4.579   3.188   2.180  0.0545  0.1262 -0.1698
  507MOL0     C68336   4.655   3.202   2.299  0.2419 -0.2557 -0.8403
  507MOL0     C68337   4.621   3.292   2.404 -0.3113 -0.4569  0.3033
  507MOL0     C68338   4.704   3.293   2.537  0.2348 -0.3651  0.5437
  507MOL0     C68339   4.517   3.389   2.373 -0.0278 -0.4671 -0.5305
  507MOL0     C68340   4.468   3.491   2.469 -0.4457  0.0695  0.5686
  507MOL0     O68341   4.556   3.582   2.525  0.2883 -0.1579  0.4501
  507MOL0     C68342   4.496   3.696   2.575 -0.1757 -0.5677  0.7978
  507MOL0     C68343   4.509   3.722   2.713 -0.0637  0.5827  0.2111
  507MOL0     C68344   4.463   3.840   2.779 -1.1071 -0.6579  0.2175
  507MOL0     C68345   4.388   3.926   2.698  0.6869 -0.7006 -0.0200
  507MOL0     O68346   4.340   4.051   2.735 -0.3409  0.0793 -0.4540
  507MOL0     C68347   4.387   4.108   2.862 -0.2278 -0.1402 -0.7543
  507MOL0     C68348   4.495   4.208   2.812  0.6491  0.0621 -0.9305
  507MOL0     C68349   4.553   4.299   2.915  0.7849 -0.1827  0.1723
  507MOL0     C68350   4.457   4.419   2.930 -0.5484  0.3520 -0.4570
  507MOL0     C68351   4.513   4.521   3.035  0.2670  0.2015 -0.1002
  507MOL0     C68352   4.396   4.614   3.073 -0.1678  0.3266  0.2743
  507MOL0     C68353   4.418   4.705   3.186 -0.6734 -0.7473  0.4401
  507MOL0     C68354   4.322   4.828   3.192 -0.2162  0.3719 -0.3755
  507MOL0    Cl68355   4.210   4.788   3.328 -0.9411  0.1812 -0.3476
  507MOL0     C68356   4.355   3.894   2.564 -0.5455  1.2746 -0.4007
  507MOL0     C68357   4.405   3.778   2.501  0.5976  0.2036 -0.6203
  507MOL0     O68358   4.349   3.486   2.497 -0.5443 -0.3998  0.1094
  507MOL0     C68359   4.438   3.370   2.253 -0.9519 -0.5118 -0.4975
  507MOL0     C68360   4.469   3.274   2.158 -0.6214 -0.3613  0.4401
  507MOL0     N68361   5.171   2.958   1.969  0.9366 -0.1548  0.8291
  507MOL0     N68362   5.216   2.850   1.906  0.8900 -0.3883 -0.3467
  507MOL0     C68363   4.981   2.419   2.224 -0.1276  0.1819 -0.7109
  507MOL0     C68364   4.888   2.505   2.276 -0.6525  0.2679  0.7131
  507MOL0     C68365   4.559   2.744   2.422 -0.0996 -0.0926 -0.5082
  507MOL0     C68366   4.484   2.842   2.364 -0.2795 -0.3987  0.1443
  507MOL0     C68367   4.429   2.950   2.442 -0.6369  0.6154 -0.1970
  507MOL0     C68368   4.441   2.950   2.581  0.8316  0.4649  0.6922
  507MOL0     O68369   4.391   3.050   2.657  1.1505 -0.4955 -0.3196
  507MOL0     C68370   4.305   3.140   2.588  0.0105  0.0682  0.1047
  507MOL0     C68371   4.253   3.246   2.693 -0.7127  0.1219 -0.3277
  507MOL0     C68372   4.184   3.182   2.820  1.1017 -0.1928  0.2754
  507MOL0     C68373   4.092   3.055   2.795  0.5576  0.2346 -0.2144
  507MOL0     C68374   3.992   3.081   2.690 -0.1346 -0.3610 -0.6251
  507MOL0     C68375   3.932   3.116   2.586 -0.4914  0.2357  0.6022
  507MOL0     C68376   4.517   2.854   2.645  0.0533  0.1389 -0.4994
  507MOL0     C68377   4.568   2.743   2.569 -0.1558 -0.3507  0.8170
  507MOL0     H68378   4.648   2.277   2.360  0.5700 -1.3750  1.1000
  507MOL0     H68379   4.818   2.120   2.269  0.8914 -0.2560 -0.7314
  507MOL0     H68380   5.133   2.047   2.040  2.7377  2.2459  1.7111
  507MOL0     H68381   5.013   1.997   2.143  3.7753 -0.6620 -0.3186
  507MOL0     H68382   4.902   2.026   1.932 -2.3440  1.4892 -0.8926
  507MOL0     H68383   4.835   2.147   2.018 -0.0921  0.7420  0.5971
  507MOL0     H68384   5.112   2.189   1.869  0.7345  5.8303  1.0636
  507MOL0     H68385   4.949   2.186   1.779 -2.4075  1.1076  1.1071
  507MOL0     H68386   4.869   2.364   1.914 -0.2206  1.6799  3.9219
  507MOL0     H68387   5.019   2.392   1.986 -1.2933 -1.1018  0.2993
  507MOL0     H68388   5.152   2.418   1.821 -0.9565  1.4696  1.6635
  507MOL0     H68389   5.017   2.385   1.697 -0.0382 -4.2677  1.1899
  507MOL0     H68390   4.905   2.589   1.833 -0.2972  0.7436 -1.1521
  507MOL0     H68391   5.062   2.625   1.883 -0.6466  0.6741  0.7696
  507MOL0     H68392   5.037   2.587   1.592  1.7211  1.7215 -0.8719
  507MOL0     H68393   4.942   2.722   1.659 -2.3488 -0.9023  2.6417
  507MOL0     H68394   5.210   2.772   1.596  1.6605 -0.4196  1.0033
  507MOL0     H68395   5.242   2.667   1.719  1.5815  1.0357  0.7428
  507MOL0     H68396   5.002   2.974   1.682  1.1705 -1.1234  0.0432
  507MOL0     H68397   5.050   3.171   2.016 -0.0427 -3.6062  0.7522
  507MOL0     H68398   5.016   3.224   1.847  1.7132  0.6658  1.4931
  507MOL0     H68399   4.805   3.053   1.882 -0.3337 -1.4200  0.0887
  507MOL0     H68400   4.795   3.202   1.959 -0.4796 -0.5442  0.1928
  507MOL0     H68401   4.879   3.115   2.164 -1.9026  0.2148 -0.2517
  507MOL0     H68402   4.907   2.954   2.096  0.6632  0.6994 -0.0065
  507MOL0     H68403   4.700   2.953   2.211  0.7495 -0.3074 -0.4426
  507MOL0     H68404   4.704   2.903   2.044  4.3346 -1.0784  0.9606
  507MOL0     H68405   4.748   3.154   2.326  0.4760  0.4535 -0.3595
  507MOL0     H68406   4.626   3.289   2.615 -0.5621  1.4942 -0.0944
  507MOL0     H68407   4.761   3.200   2.537 -1.3178 -1.3811  1.2236
  507MOL0     H68408   4.770   3.379   2.552 -2.3687  1.5339  2.0001
  507MOL0     H68409   4.566   3.657   2.779 -1.3999 -0.6324  0.2446
  507MOL0     H68410   4.485   3.858   2.884 -3.2864 -1.6206  0.8833
  507MOL0     H68411   4.306   4.164   2.909 -0.1826  2.7987 -3.7844
  507MOL0     H68412   4.421   4.031   2.932 -0.0348  1.5462  1.0755
  507MOL0     H68413   4.576   4.147   2.771  0.3287 -2.0165  1.3258
  507MOL0     H68414   4.441   4.278   2.747 -0.2280  1.7206  1.4349
  507MOL0     H68415   4.645   4.337   2.870 -1.2015  1.9592 -2.3807
  507MOL0     H68416   4.571   4.250   3.011  0.3664 -2.3037 -0.7578
  507MOL0     H68417   4.455   4.461   2.829  3.3451 -1.6195 -1.5178
  507MOL0     H68418   4.361   4.378   2.965 -0.1070 -0.7139 -0.4682
  507MOL0     H68419   4.603   4.572   2.997 -0.1819  0.6228 -0.6106
  507MOL0     H68420   4.534   4.476   3.132  0.1091  5.3711  2.6973
  507MOL0     H68421   4.384   4.675   2.983  0.1834  1.1223  0.7566
  507MOL0     H68422   4.300   4.564   3.091 -0.6048  1.6996  2.0959
  507MOL0     H68423   4.510   4.761   3.168 -1.9304  1.9615  1.7493
  507MOL0     H68424   4.412   4.648   3.279 -2.6595  0.8408  1.3534
  507MOL0     H68425   4.261   4.839   3.101 -2.2099  2.5580  1.1094
  507MOL0     H68426   4.371   4.925   3.198  1.0859 -0.0127 -3.0562
  507MOL0     H68427   4.296   3.958   2.498 -1.2104  1.7871  0.6654
  507MOL0     H68428   4.375   3.746   2.402  1.5329 -0.2198 -0.7796
  507MOL0     H68429   4.350   3.433   2.245  1.2202  2.9437  0.5802
  507MOL0     H68430   4.407   3.264   2.070 -1.5538  1.1947  0.8862
  507MOL0     H68431   5.078   2.456   2.192 -0.6316  0.9065 -1.4408
  507MOL0     H68432   4.904   2.612   2.284 -2.9163  0.8595 -1.4211
  507MOL0     H68433   4.473   2.852   2.256 -1.4923  0.2904  0.3115
  507MOL0     H68434   4.378   3.020   2.377 -1.2109 -1.4269 -2.0843
  507MOL0     H68435   4.354   3.192   2.505 -1.5183  0.7389 -0.4180
  507MOL0     H68436   4.213   3.095   2.547 -0.3885 -0.3099  1.3667
  507MOL0     H68437   4.186   3.319   2.645  2.1612  2.1755 -1.4834
  507MOL0     H68438   4.335   3.310   2.726 -0.6187 -0.4933  0.6688
  507MOL0     H68439   4.125   3.262   2.866 -0.6015 -1.5331  0.5369
  507MOL0     H68440   4.249   3.146   2.899  2.2504  0.4711 -0.3338
  507MOL0     H68441   4.039   3.037   2.890 -3.1722  3.4181 -1.4501
  507MOL0     H68442   4.155   2.969   2.770  0.5177 -0.3539  1.5564
  507MOL0     H68443   3.872   3.142   2.501  2.5110 -0.4361 -1.9054
  507MOL0     H68444   4.537   2.864   2.751  0.6927 -0.4316 -0.5610
  507MOL0     H68445   4.623   2.665   2.620  0.9947 -0.5946 -0.7123
  508MOL0     O68446  10.885   2.218   5.746  1.0733 -0.6788 -0.5504
  508MOL0     C68447  10.764   2.193   5.747  0.2563  0.6416 -0.8558
  508MOL0     O68448  10.667   2.268   5.796  0.4829 -0.8337 -0.3074
  508MOL0     C68449  10.678   2.352   5.904  0.4103  0.3217 -0.2675
  508MOL0     C68450  10.771   2.330   6.009  0.2130 -1.4611 -0.0487
  508MOL0     C68451  10.756   2.408   6.118 -0.0289  0.1507  0.7290
  508MOL0     C68452  10.659   2.502   6.130  0.6365 -0.0979 -0.1298
  508MOL0     O68453  10.639   2.561   6.254  0.2167 -0.0093  0.1368
  508MOL0     C68454  10.516   2.621   6.301  0.3663  0.4132  0.7464
  508MOL0     C68455  10.530   2.698   6.434  0.2579  0.2608 -0.7197
  508MOL0     C68456  10.631   2.638   6.534 -0.5129 -0.0980  0.8325
  508MOL0     C68457  10.620   2.706   6.666  0.8009 -0.1652  0.1662
  508MOL0     C68458  10.748   2.679   6.756  0.6748 -0.1990  0.3601
  508MOL0     C68459  10.776   2.764   6.873  0.4464  1.0550 -0.1818
  508MOL0     C68460  10.913   2.746   6.938  0.7833  0.8135  1.0290
  508MOL0     C68461  10.915   2.611   7.018 -0.4349 -0.7207 -0.1782
  508MOL0     N68462  11.054   2.579   7.053 -0.5766  0.0050 -0.6417
  508MOL0     C68463  11.121   2.643   7.159 -0.0867 -0.2645  0.1009
  508MOL0     C68464  11.255   2.617   7.128  0.0296 -0.0306  0.3940
  508MOL0     C68465  11.372   2.642   7.218 -0.5613  0.2907  0.1430
  508MOL0     C68466  11.432   2.509   7.263 -0.8658 -0.5256 -0.4463
  508MOL0     C68467  11.560   2.525   7.352  0.0817  0.4461  0.0376
  508MOL0     C68468  11.680   2.594   7.273  1.4799  0.2212 -0.1392
  508MOL0     O68469  11.746   2.683   7.365  0.7162  0.0904 -0.8169
  508MOL0     C68470  11.849   2.644   7.448 -0.4566  0.0139  0.7567
  508MOL0     C68471  11.903   2.725   7.556  0.7079 -0.0379  0.2511
  508MOL0     C68472  12.006   2.679   7.637 -0.3113  1.3919 -0.3993
  508MOL0     C68473  12.034   2.753   7.758 -0.3731  0.3771  1.2134
  508MOL0     C68474  12.077   2.563   7.615  0.7530 -0.1828 -0.0784
  508MOL0     C68475  12.210   2.517   7.673  0.1394  0.2073  1.0813
  508MOL0     O68476  12.270   2.609   7.753  0.1407 -0.1702 -0.0913
  508MOL0     C68477  12.397   2.579   7.796  0.4421  0.4940 -0.7217
  508MOL0     C68478  12.407   2.507   7.917  0.8027  0.4257 -0.7360
  508MOL0     C68479  12.535   2.469   7.961  0.4430  0.3181 -0.7382
  508MOL0     C68480  12.653   2.512   7.896  0.6442  0.2588 -0.4592
  508MOL0     O68481  12.777   2.468   7.922 -0.0774  0.5297  0.7267
  508MOL0     C68482  12.792   2.385   8.035 -0.3527 -0.5440  0.2041
  508MOL0     C68483  12.945   2.372   8.049 -0.4597 -0.6421  0.1086
  508MOL0     C68484  12.991   2.270   8.147 -0.2968  0.1346 -0.8023
  508MOL0     C68485  13.140   2.268   8.179 -0.7721  0.8261 -0.4857
  508MOL0     C68486  13.193   2.388   8.269  0.3021 -0.5001 -1.4164
  508MOL0     C68487  13.157   2.364   8.414 -0.2910 -0.2447  0.0023
  508MOL0     C68488  13.017   2.398   8.456  0.5518 -0.3635  0.6139
  508MOL0     C68489  13.002   2.423   8.603  0.4685 -0.3110  0.4439
  508MOL0    Cl68490  12.829   2.429   8.644  0.1362 -0.1752  0.3242
  508MOL0     C68491  12.638   2.603   7.792  0.4647 -0.0212 -0.0989
  508MOL0     C68492  12.511   2.634   7.737 -0.2189 -0.1146  0.1174
  508MOL0     O68493  12.255   2.409   7.637 -0.9595  0.0659 -0.3170
  508MOL0     C68494  12.016   2.478   7.514  0.9794 -0.5512  0.8027
  508MOL0     C68495  11.900   2.509   7.440  0.2185 -1.3228 -0.0805
  508MOL0     N68496  11.257   2.553   7.011  0.2034  0.3073  0.6133
  508MOL0     N68497  11.138   2.521   6.969 -0.4474  0.3798  0.0893
  508MOL0     C68498  10.563   2.526   6.024  0.3541 -0.1606  0.7166
  508MOL0     C68499  10.576   2.445   5.917 -1.0708  1.3873 -0.7012
  508MOL0     C68500  10.718   2.057   5.705  0.6245 -0.3019 -0.3488
  508MOL0     C68501  10.797   1.942   5.703  0.3798  0.3802  0.2394
  508MOL0     C68502  10.749   1.821   5.655  0.3454 -0.6165  0.3304
  508MOL0     C68503  10.623   1.807   5.599  0.9232 -0.8952  0.8196
  508MOL0     O68504  10.579   1.693   5.536 -0.5688 -0.5571  0.1422
  508MOL0     C68505  10.452   1.683   5.476 -0.3340  0.3439  0.0232
  508MOL0     C68506  10.454   1.548   5.408  1.1829 -0.1637 -0.4128
  508MOL0     C68507  10.573   1.524   5.311  0.0011 -0.7376 -0.6162
  508MOL0     C68508  10.559   1.419   5.202  0.6329  0.1977 -0.2856
  508MOL0     C68509  10.428   1.421   5.144 -0.7747  0.1374 -0.2864
  508MOL0     C68510  10.317   1.408   5.094 -0.2217  0.0171  0.3656
  508MOL0     C68511  10.542   1.922   5.592 -0.1451  0.4831 -0.0170
  508MOL0     C68512  10.590   2.046   5.645  0.8963 -0.0114  1.0233
  508MOL0     H68513  10.848   2.253   6.002  1.3430 -0.4552  0.7371
  508MOL0     H68514  10.805   2.385   6.212 -1.3981 -1.1099  1.1753
  508MOL0     H68515  10.477   2.700   6.237  2.8190  2.5632  1.6810
  508MOL0     H68516  10.447   2.537   6.315  1.7805 -0.9822 -0.2485
  508MOL0     H68517  10.567   2.798   6.410 -0.6970  0.2293 -2.5064
  508MOL0     H68518  10.430   2.708   6.478  0.5594  2.0430 -0.3987
  508MOL0     H68519  10.611   2.532   6.549 -3.2414  0.0589 -0.9052
  508MOL0     H68520  10.731   2.659   6.495 -0.5782  0.3201  0.8791
  508MOL0     H68521  10.595   2.808   6.637  1.6680  0.4127  1.3882
  508MOL0     H68522  10.527   2.673   6.714  0.0441 -0.9329 -1.7170
  508MOL0     H68523  10.768   2.575   6.784 -0.5648 -0.3227  0.8540
  508MOL0     H68524  10.826   2.708   6.684 -0.9381  3.7925 -0.0306
  508MOL0     H68525  10.766   2.870   6.848 -0.9365  0.2600 -3.5293
  508MOL0     H68526  10.708   2.753   6.958 -1.2825 -0.2776 -1.6543
  508MOL0     H68527  10.984   2.735   6.856 -0.9372 -0.3971 -0.3704
  508MOL0     H68528  10.944   2.824   7.008  0.7860 -0.4757  2.5554
  508MOL0     H68529  10.860   2.530   6.968 -1.6635  0.9719 -1.7329
  508MOL0     H68530  10.862   2.636   7.110 -5.1389  1.0520 -3.0112
  508MOL0     H68531  11.064   2.699   7.232 -2.1798 -1.9001 -0.1870
  508MOL0     H68532  11.449   2.698   7.165  2.3130  0.0203  3.6438
  508MOL0     H68533  11.341   2.701   7.306  1.0417 -0.6111  1.3619
  508MOL0     H68534  11.459   2.439   7.183 -3.3119 -0.9529 -0.9708
  508MOL0     H68535  11.354   2.460   7.321 -0.2815 -0.7650  0.1508
  508MOL0     H68536  11.596   2.431   7.395  1.1705  2.1652  3.2117
  508MOL0     H68537  11.537   2.602   7.426  2.3873  0.4505  0.8246
  508MOL0     H68538  11.635   2.664   7.202 -1.9151 -0.1221  1.4627
  508MOL0     H68539  11.750   2.531   7.218  5.2015  2.9424  1.0831
  508MOL0     H68540  11.846   2.814   7.579  0.5108  0.4765 -1.9697
  508MOL0     H68541  12.106   2.834   7.746 -1.0929  0.7269 -1.4414
  508MOL0     H68542  11.938   2.798   7.786 -0.8553 -0.9926  1.8459
  508MOL0     H68543  12.061   2.681   7.835 -0.6601 -2.3824 -1.0844
  508MOL0     H68544  12.313   2.476   7.962  1.4606 -2.5428 -1.2072
  508MOL0     H68545  12.540   2.413   8.053 -1.9128 -0.5830 -1.0948
  508MOL0     H68546  12.749   2.438   8.120 -1.8589 -0.2103 -0.7284
  508MOL0     H68547  12.749   2.285   8.023  0.0099 -0.5734 -1.0608
  508MOL0     H68548  12.997   2.363   7.952  1.2220  0.7176  0.8166
  508MOL0     H68549  12.969   2.476   8.076 -1.2437 -0.0800 -1.2331
  508MOL0     H68550  12.969   2.169   8.111 -2.7970 -0.1499  1.2208
  508MOL0     H68551  12.922   2.285   8.230 -1.5986  0.3187 -1.8756
  508MOL0     H68552  13.162   2.176   8.234 -0.7604 -0.3729 -2.3979
  508MOL0     H68553  13.190   2.268   8.082 -1.7192  1.4200 -0.9877
  508MOL0     H68554  13.151   2.477   8.221  0.0300 -0.5047 -1.1906
  508MOL0     H68555  13.302   2.387   8.257  0.2727 -0.9913 -1.6806
  508MOL0     H68556  13.177   2.263   8.451 -2.4927  0.2483  2.8805
  508MOL0     H68557  13.224   2.438   8.457 -1.0115  0.8129 -0.6518
  508MOL0     H68558  12.959   2.308   8.436 -2.2704  0.6661  3.2741
  508MOL0     H68559  12.978   2.477   8.391  2.6162  1.2605  1.2098
  508MOL0     H68560  13.047   2.521   8.623  0.2223 -0.1729  0.3273
  508MOL0     H68561  13.059   2.350   8.662 -4.0276 -0.8926  4.7597
  508MOL0     H68562  12.729   2.656   7.764  0.7501  0.4603  1.6335
  508MOL0     H68563  12.489   2.702   7.656  2.5800 -1.3273 -1.8120
  508MOL0     H68564  12.059   2.380   7.496  0.3375 -1.2231  2.7331
  508MOL0     H68565  11.873   2.430   7.371  1.8113 -0.7117 -1.4874
  508MOL0     H68566  10.482   2.598   6.032 -0.8409 -1.4082  0.3230
  508MOL0     H68567  10.508   2.470   5.837 -1.9001  2.4809  0.3075
  508MOL0     H68568  10.901   1.931   5.734  0.8731 -1.5838 -1.8896
  508MOL0     H68569  10.819   1.738   5.652  1.7172  0.4385  1.6475
  508MOL0     H68570  10.364   1.697   5.540 -0.2895  0.4946  0.0514
  508MOL0     H68571  10.436   1.762   5.402 -3.0573  2.3090  2.4619
  508MOL0     H68572  10.362   1.542   5.349  1.8456 -0.3910 -1.4573
  508MOL0     H68573  10.449   1.467   5.481 -0.4608  1.4611  1.3743
  508MOL0     H68574  10.667   1.506   5.364  1.0869  0.3630 -2.1052
  508MOL0     H68575  10.591   1.622   5.266  1.8822 -1.8751 -2.5082
  508MOL0     H68576  10.579   1.320   5.244  1.7871 -0.4369 -2.2387
  508MOL0     H68577  10.634   1.421   5.123  1.4222 -4.1375  0.0693
  508MOL0     H68578  10.223   1.391   5.047 -0.0867  0.1549  0.0411
  508MOL0     H68579  10.447   1.909   5.541 -0.7205  1.3279  0.8017
  508MOL0     H68580  10.524   2.131   5.634 -1.8006 -2.2124 -1.2089
  509MOL0     O68581   0.708   4.964   3.331  0.4725 -0.2749 -0.3937
  509MOL0     C68582   0.764   4.894   3.257 -0.6217 -0.1919 -0.4635
  509MOL0     O68583   0.707   4.802   3.176  0.3854 -0.4225 -0.0799
  509MOL0     C68584   0.585   4.838   3.128  0.6274 -1.1787 -1.3422
  509MOL0     C68585   0.554   4.961   3.067 -1.3455 -0.5493 -0.3949
  509MOL0     C68586   0.426   4.980   3.008 -1.1266 -0.1126 -0.7499
  509MOL0     C68587   0.333   4.877   3.000  0.1784  0.1059  0.2498
  509MOL0     O68588   0.215   4.881   2.923 -0.8186 -0.5742  0.7991
  509MOL0     C68589   0.156   5.023   2.923 -0.1047  0.3268  0.1473
  509MOL0     C68590   0.183   5.102   2.797  0.4511 -0.7902 -0.9063
  509MOL0     C68591   0.157   5.263   2.825  0.5473  0.6233  0.3247
  509MOL0     C68592   0.002   5.297   2.824 -0.3988 -0.5236  0.3842
  509MOL0     C68593  -0.024   5.445   2.848 -0.0048 -0.5413 -0.2610
  509MOL0     C68594   0.004   5.543   2.731  0.2185 -0.0529  0.1178
  509MOL0     C68595  -0.045   5.691   2.757  0.5640  0.5210 -0.2173
  509MOL0     C68596  -0.193   5.714   2.732 -0.0413 -0.1819  1.0108
  509MOL0     N68597  -0.244   5.847   2.748 -0.0730  0.3994 -0.0003
  509MOL0     C68598  -0.283   5.903   2.864 -0.1156  0.3004  0.2301
  509MOL0     C68599  -0.379   5.993   2.823 -0.0965  0.8627 -0.6974
  509MOL0     C68600  -0.456   6.097   2.907  0.4436  0.2004  0.8646
  509MOL0     C68601  -0.597   6.035   2.926  0.5918  0.2177  0.6905
  509MOL0     C68602  -0.678   6.069   3.049  0.9247 -0.6653  0.5198
  509MOL0     C68603  -0.629   6.014   3.174 -0.1175 -0.2114 -0.2186
  509MOL0     O68604  -0.519   6.085   3.228 -1.0407 -0.5865 -0.1354
  509MOL0     C68605  -0.532   6.204   3.289 -0.4980 -0.1500  0.3275
  509MOL0     C68606  -0.416   6.270   3.323 -0.5025 -1.6502  0.1827
  509MOL0     C68607  -0.410   6.398   3.378  0.3222 -0.4737  0.6001
  509MOL0     C68608  -0.267   6.453   3.398 -0.0590  0.1623 -0.2744
  509MOL0     C68609  -0.534   6.462   3.407  0.2564  0.7779 -0.7450
  509MOL0     C68610  -0.544   6.593   3.467  0.3891 -0.5402  0.0411
  509MOL0     O68611  -0.668   6.658   3.443 -0.0226  0.1449  0.0881
  509MOL0     C68612  -0.715   6.740   3.540  0.0910  0.6923  0.5659
  509MOL0     C68613  -0.741   6.695   3.670 -0.0458 -0.1116 -0.1137
  509MOL0     C68614  -0.791   6.780   3.770  0.2329  0.2979 -0.3521
  509MOL0     C68615  -0.817   6.914   3.737 -0.9803 -0.1498 -0.1200
  509MOL0     O68616  -0.859   7.018   3.814 -0.3448  0.3392  0.1206
  509MOL0     C68617  -0.944   6.990   3.932  1.2494 -0.3356 -0.6223
  509MOL0     C68618  -1.058   7.100   3.933  0.2865 -0.2742 -0.0241
  509MOL0     C68619  -1.030   7.203   4.042  0.4948 -0.1655  0.7540
  509MOL0     C68620  -1.108   7.330   3.999 -0.3834 -0.7683  0.1220
  509MOL0     C68621  -1.127   7.443   4.099  0.0879 -0.3176 -0.0936
  509MOL0     C68622  -1.199   7.564   4.042  0.7398 -0.0446  0.1398
  509MOL0     C68623  -1.116   7.637   3.932  0.5273 -0.4406  0.0192
  509MOL0     C68624  -1.183   7.767   3.900 -0.3097  0.7671  0.6698
  509MOL0    Cl68625  -1.307   7.721   3.782 -0.3368  0.0791 -0.5534
  509MOL0     C68626  -0.813   6.959   3.607  0.0526  0.0250  0.0867
  509MOL0     C68627  -0.757   6.868   3.510  0.2843  1.4012  0.5169
  509MOL0     O68628  -0.468   6.617   3.562  0.0583  0.0747 -0.8329
  509MOL0     C68629  -0.649   6.396   3.374  0.3339 -0.8898  1.2702
  509MOL0     C68630  -0.652   6.270   3.313  0.6900  1.1430  0.5226
  509MOL0     N68631  -0.389   5.997   2.681  0.5152  0.1635 -0.3449
  509MOL0     N68632  -0.304   5.906   2.641  0.4496  0.5472 -0.1497
  509MOL0     C68633   0.374   4.750   3.055  0.9331 -0.5480 -0.0301
  509MOL0     C68634   0.492   4.735   3.117  0.0145 -0.3978  0.8331
  509MOL0     C68635   0.912   4.877   3.282 -0.1424  1.0747 -0.4752
  509MOL0     C68636   0.968   4.755   3.242 -0.6967 -0.5464  0.0767
  509MOL0     C68637   1.103   4.740   3.256  0.3750 -0.5578  0.6243
  509MOL0     C68638   1.185   4.831   3.330 -0.5250  0.1090 -0.1732
  509MOL0     O68639   1.318   4.811   3.360  0.1355 -0.2371 -0.2023
  509MOL0     C68640   1.414   4.891   3.293  0.5141 -0.1493  0.2885
  509MOL0     C68641   1.433   4.828   3.158 -0.5764 -0.7374 -0.0680
  509MOL0     C68642   1.547   4.889   3.078 -0.0736 -0.1415 -0.2555
  509MOL0     C68643   1.689   4.886   3.155  0.2639  0.7850  0.8376
  509MOL0     C68644   1.760   4.753   3.157 -0.5515  0.5494 -0.5087
  509MOL0     C68645   1.811   4.644   3.159  0.3056  0.7431  0.4518
  509MOL0     C68646   1.122   4.947   3.377 -0.3077 -0.1706 -0.3105
  509MOL0     C68647   0.984   4.973   3.360 -0.1111  0.2313  1.2749
  509MOL0     H68648   0.629   5.039   3.061  1.0156 -2.7307 -0.9060
  509MOL0     H68649   0.424   5.080   2.964  1.8739  0.9411  1.1922
  509MOL0     H68650   0.049   5.011   2.943  0.0096 -3.7820 -0.7435
  509MOL0     H68651   0.187   5.078   3.011 -0.8860  1.7762 -0.4547
  509MOL0     H68652   0.290   5.101   2.774  0.2801 -3.4305 -1.8969
  509MOL0     H68653   0.116   5.058   2.723  0.8992 -0.8677 -1.2743
  509MOL0     H68654   0.213   5.308   2.908  1.7671  1.5489 -0.9576
  509MOL0     H68655   0.196   5.313   2.736  0.3917  0.5996  0.2435
  509MOL0     H68656  -0.049   5.262   2.734 -0.0875  3.9173 -1.7681
  509MOL0     H68657  -0.041   5.246   2.911 -0.0224 -0.3933  0.6482
  509MOL0     H68658  -0.130   5.442   2.877  0.6513 -0.5329  2.3559
  509MOL0     H68659   0.028   5.490   2.933 -0.4447 -0.8950  0.2054
  509MOL0     H68660   0.111   5.544   2.709  0.1621  4.7615 -0.9529
  509MOL0     H68661  -0.038   5.504   2.638  0.9264 -0.9789  0.1691
  509MOL0     H68662  -0.015   5.714   2.859 -1.4911 -1.5854  0.9335
  509MOL0     H68663   0.007   5.758   2.688 -1.0493  0.2019 -1.8143
  509MOL0     H68664  -0.260   5.649   2.790 -2.8013  0.2059 -1.5427
  509MOL0     H68665  -0.210   5.680   2.630 -3.3004  3.3415  0.1693
  509MOL0     H68666  -0.244   5.879   2.963  0.3190 -2.2354 -0.4785
  509MOL0     H68667  -0.392   6.110   2.994  2.3322  3.2859 -0.8030
  509MOL0     H68668  -0.449   6.194   2.858  1.1533  0.0714  0.6994
  509MOL0     H68669  -0.603   5.926   2.921  2.7093  0.1075 -0.9826
  509MOL0     H68670  -0.642   6.083   2.839  0.0095 -0.9904  0.3014
  509MOL0     H68671  -0.779   6.031   3.032  0.8444  0.1240 -0.9107
  509MOL0     H68672  -0.683   6.175   3.074  2.1279 -0.5383  0.2720
  509MOL0     H68673  -0.580   5.918   3.159  2.0085  0.2200  3.0086
  509MOL0     H68674  -0.705   6.006   3.252  0.0828  2.2683  0.3307
  509MOL0     H68675  -0.317   6.237   3.295  0.7581  3.5740 -2.7322
  509MOL0     H68676  -0.239   6.532   3.328  3.3498 -0.0801  0.6286
  509MOL0     H68677  -0.258   6.493   3.499  0.5435 -1.9403  0.5643
  509MOL0     H68678  -0.184   6.382   3.388  0.1280  0.1741  0.9959
  509MOL0     H68679  -0.708   6.598   3.706 -1.2511 -0.4072  0.2124
  509MOL0     H68680  -0.779   6.735   3.869  2.4985 -1.4656 -1.3235
  509MOL0     H68681  -0.980   6.887   3.922  0.4073 -0.2259  0.9743
  509MOL0     H68682  -0.873   6.991   4.015 -0.2868  3.2201  0.8142
  509MOL0     H68683  -1.052   7.160   3.842 -1.3608  3.0622  1.9093
  509MOL0     H68684  -1.162   7.068   3.942 -0.5593  1.8715 -1.4565
  509MOL0     H68685  -0.924   7.227   4.055  0.7942 -0.8718 -0.2491
  509MOL0     H68686  -1.085   7.166   4.129  0.1364  1.0963  1.0933
  509MOL0     H68687  -1.041   7.385   3.933  2.4990 -0.2386  3.1840
  509MOL0     H68688  -1.206   7.308   3.957 -0.0449 -1.1077 -0.4929
  509MOL0     H68689  -1.026   7.473   4.126 -0.7783  1.7163  1.0321
  509MOL0     H68690  -1.167   7.402   4.192 -1.1213  2.0454  0.4983
  509MOL0     H68691  -1.289   7.524   3.994  0.1838  0.8790  0.3835
  509MOL0     H68692  -1.221   7.632   4.125  0.9590  2.6303 -1.8455
  509MOL0     H68693  -1.089   7.585   3.840  2.3729  0.3282  0.0876
  509MOL0     H68694  -1.014   7.661   3.965  0.5356  2.2892 -1.6975
  509MOL0     H68695  -1.110   7.827   3.845 -1.4404  2.0945  0.5647
  509MOL0     H68696  -1.220   7.812   3.992  0.0192 -0.5382  1.4603
  509MOL0     H68697  -0.831   7.065   3.596 -0.8497 -0.1072  0.2475
  509MOL0     H68698  -0.767   6.899   3.406 -1.9031  3.0194  1.1563
  509MOL0     H68699  -0.743   6.441   3.405 -0.4390 -0.5394 -1.3950
  509MOL0     H68700  -0.753   6.229   3.307  1.1118  0.2161 -0.5719
  509MOL0     H68701   0.303   4.669   3.047  0.7766 -0.3353 -0.8202
  509MOL0     H68702   0.536   4.643   3.153 -0.1124 -0.2242  1.4427
  509MOL0     H68703   0.902   4.687   3.188  1.0592 -1.7420 -0.6433
  509MOL0     H68704   1.142   4.657   3.198 -1.6017  0.1008 -1.8559
  509MOL0     H68705   1.379   4.994   3.289 -0.8801 -0.5291  1.6105
  509MOL0     H68706   1.503   4.887   3.357  0.1690  0.5920  0.8201
  509MOL0     H68707   1.339   4.847   3.106  0.2431  1.0921 -0.9712
  509MOL0     H68708   1.448   4.720   3.172  0.1131 -0.8740 -1.6458
  509MOL0     H68709   1.524   4.994   3.059 -0.6214  0.1037  1.6020
  509MOL0     H68710   1.559   4.827   2.988 -0.4695  1.1074 -1.1896
  509MOL0     H68711   1.685   4.911   3.261 -3.0991 -3.0677  1.8706
  509MOL0     H68712   1.750   4.955   3.096  3.3572 -0.3290  2.5262
  509MOL0     H68713   1.849   4.544   3.163  0.3971  0.7999  2.5789
  509MOL0     H68714   1.177   5.006   3.450 -3.8465  0.8840  1.8152
  509MOL0     H68715   0.930   5.053   3.409 -0.6689  1.1048 -0.6772
  510MOL0     O68716   8.825   2.398   4.939  0.3920  0.0369  0.5185
  510MOL0     C68717   8.740   2.360   4.862  0.2932 -0.0312  0.6012
  510MOL0     O68718   8.609   2.337   4.894  0.3971  0.0102 -0.6069
  510MOL0     C68719   8.559   2.368   5.018 -0.1414  0.1871  0.4491
  510MOL0     C68720   8.623   2.332   5.139  0.6747  0.3690  0.3794
  510MOL0     C68721   8.562   2.356   5.258 -0.1617 -0.6947  0.5894
  510MOL0     C68722   8.442   2.418   5.260  0.5396 -0.2347  0.0781
  510MOL0     O68723   8.390   2.448   5.387 -1.1653 -0.5023  0.2648
  510MOL0     C68724   8.250   2.429   5.417 -0.1005  0.5154  1.6788
  510MOL0     C68725   8.219   2.465   5.563 -0.6847  0.0969  0.9575
  510MOL0     C68726   8.070   2.446   5.615 -0.8340  0.1179 -0.3066
  510MOL0     C68727   7.981   2.546   5.529  0.7270  0.2694  0.5619
  510MOL0     C68728   7.857   2.602   5.611  0.2428 -0.0046 -0.2270
  510MOL0     C68729   7.896   2.717   5.706  0.0360 -0.1733  0.8064
  510MOL0     C68730   7.769   2.775   5.752  1.2641 -0.4134 -0.9038
  510MOL0     C68731   7.777   2.902   5.845 -0.3617 -0.1708  0.7002
  510MOL0     N68732   7.751   3.023   5.776  0.8645 -0.3811  1.2162
  510MOL0     C68733   7.832   3.082   5.682 -0.0964  0.4631  0.1863
  510MOL0     C68734   7.757   3.177   5.624  0.5364 -0.1699  0.7590
  510MOL0     C68735   7.808   3.281   5.520  0.3579 -0.4625 -0.4850
  510MOL0     C68736   7.846   3.224   5.387  0.1177  1.1279  0.3279
  510MOL0     C68737   7.836   3.335   5.281  0.6030 -0.4540  0.3937
  510MOL0     C68738   7.894   3.303   5.144  0.9848 -0.7722 -0.7696
  510MOL0     O68739   7.828   3.194   5.082  0.0371  0.3485 -0.6601
  510MOL0     C68740   7.702   3.211   5.035 -0.4359 -0.4236  0.2472
  510MOL0     C68741   7.692   3.285   4.911 -0.6148 -0.4626  0.0036
  510MOL0     C68742   7.567   3.334   4.869  0.1317 -0.5664  0.2948
  510MOL0     C68743   7.552   3.399   4.729 -1.1047 -0.3594  0.6005
  510MOL0     C68744   7.448   3.304   4.949 -0.6011  0.7414  1.0932
  510MOL0     C68745   7.314   3.362   4.924 -0.6935  0.2157  0.1064
  510MOL0     O68746   7.210   3.268   4.957 -0.8786  0.6327 -0.0127
  510MOL0     C68747   7.081   3.272   4.912  0.2504  0.4797  0.4742
  510MOL0     C68748   7.054   3.337   4.785  0.4585  0.9259 -0.6161
  510MOL0     C68749   6.922   3.329   4.736 -1.3433  0.1367  0.1242
  510MOL0     C68750   6.818   3.270   4.807 -0.7801 -0.1113  0.3302
  510MOL0     O68751   6.684   3.264   4.763  0.7038  0.2598  0.3128
  510MOL0     C68752   6.640   3.352   4.664 -0.0612  1.0988 -0.8120
  510MOL0     C68753   6.630   3.492   4.724  0.4581 -0.2022  0.3107
  510MOL0     C68754   6.593   3.593   4.614  0.1249 -0.0162 -0.0064
  510MOL0     C68755   6.730   3.630   4.552  0.0600  0.6383  0.2232
  510MOL0     C68756   6.700   3.742   4.451  0.1570 -0.1197  0.2059
  510MOL0     C68757   6.828   3.802   4.390  0.1236  0.9197 -0.0403
  510MOL0     C68758   6.911   3.898   4.482  0.2538 -0.7810  0.3253
  510MOL0     C68759   7.051   3.924   4.422  0.2144  0.9098 -0.6763
  510MOL0    Cl68760   7.076   4.084   4.479 -0.1989 -0.6283  0.3152
  510MOL0     C68761   6.851   3.207   4.930 -0.1092  0.5378  0.1552
  510MOL0     C68762   6.980   3.208   4.980 -0.4001  0.9913 -0.2821
  510MOL0     O68763   7.300   3.463   4.857  0.1939  1.1565  0.6333
  510MOL0     C68764   7.468   3.228   5.063 -0.5145  0.3743  0.5391
  510MOL0     C68765   7.593   3.179   5.108  0.0352 -1.2475 -0.9108
  510MOL0     N68766   7.636   3.177   5.693  0.1498  0.0681  0.1138
  510MOL0     N68767   7.631   3.079   5.775 -0.0088 -0.0430  0.9312
  510MOL0     C68768   8.372   2.449   5.146  0.5859  0.9804 -0.0656
  510MOL0     C68769   8.442   2.438   5.018  1.3167 -0.5962  0.1901
  510MOL0     C68770   8.779   2.309   4.733  0.2035  0.2590  0.0634
  510MOL0     C68771   8.676   2.281   4.647 -0.0308  1.4027 -0.5783
  510MOL0     C68772   8.708   2.240   4.517  1.2612  0.3153  0.4698
  510MOL0     C68773   8.839   2.208   4.482  0.1087  0.3804  0.4383
  510MOL0     O68774   8.882   2.165   4.361  0.8160  0.4627 -0.2854
  510MOL0     C68775   8.798   2.182   4.243 -0.8219 -0.7691 -0.5887
  510MOL0     C68776   8.894   2.155   4.120 -0.4698  0.8772  0.3882
  510MOL0     C68777   8.882   2.012   4.069  0.0001 -0.3335 -0.4354
  510MOL0     C68778   8.974   1.989   3.950 -0.4268 -0.6011  0.3092
  510MOL0     C68779   8.916   2.039   3.825 -0.3301 -0.1050 -0.1129
  510MOL0     C68780   8.868   2.066   3.715  0.2993 -0.8343 -0.7677
  510MOL0     C68781   8.937   2.224   4.577  0.1678 -0.1947  0.7533
  510MOL0     C68782   8.912   2.284   4.703  0.4612  0.6554  0.7959
  510MOL0     H68783   8.718   2.282   5.130  0.3447 -0.0376 -1.1761
  510MOL0     H68784   8.610   2.329   5.351  0.6293 -1.4780 -0.0265
  510MOL0     H68785   8.187   2.486   5.348  0.4771  1.4773  1.9293
  510MOL0     H68786   8.241   2.320   5.410 -1.7558  0.6949  0.0983
  510MOL0     H68787   8.285   2.402   5.623  1.0049  0.2532 -0.6571
  510MOL0     H68788   8.239   2.570   5.588 -1.0627 -0.4983  4.3190
  510MOL0     H68789   8.040   2.343   5.593  0.7791 -0.8287  1.5727
  510MOL0     H68790   8.052   2.455   5.722 -0.2844 -1.4288 -0.0654
  510MOL0     H68791   8.038   2.633   5.494 -1.9509  2.8040  2.0674
  510MOL0     H68792   7.944   2.488   5.444  0.1027 -1.3263  1.8764
  510MOL0     H68793   7.779   2.648   5.550 -1.9940  0.3744  2.6941
  510MOL0     H68794   7.808   2.515   5.656  1.8085 -0.1651  1.2522
  510MOL0     H68795   7.955   2.689   5.794 -0.1278 -0.9911  0.6656
  510MOL0     H68796   7.956   2.789   5.649  1.5227 -0.9217  1.3779
  510MOL0     H68797   7.697   2.797   5.673  0.4850  1.3125  0.2312
  510MOL0     H68798   7.728   2.699   5.819  1.8197 -0.8049 -0.9990
  510MOL0     H68799   7.873   2.926   5.892 -0.3407  0.5431  0.3107
  510MOL0     H68800   7.704   2.891   5.926 -0.1586  4.3265  1.7525
  510MOL0     H68801   7.933   3.058   5.649  0.1968 -0.2360  1.5534
  510MOL0     H68802   7.726   3.349   5.495  1.0565  0.8273  0.5795
  510MOL0     H68803   7.881   3.350   5.565  1.5051  0.3601 -3.3546
  510MOL0     H68804   7.779   3.143   5.356 -0.8425  1.5035  1.3753
  510MOL0     H68805   7.946   3.179   5.383  0.0280  0.9294  0.3038
  510MOL0     H68806   7.896   3.417   5.320 -0.2175  0.2356  0.2544
  510MOL0     H68807   7.734   3.375   5.274  1.2095  1.1692  0.6058
  510MOL0     H68808   7.994   3.259   5.154  0.0993 -2.3714  1.9981
  510MOL0     H68809   7.900   3.396   5.086 -0.2836 -0.1097  0.1360
  510MOL0     H68810   7.781   3.301   4.851 -1.7190 -0.4451 -1.6809
  510MOL0     H68811   7.462   3.365   4.677  1.2382 -1.2325 -3.2973
  510MOL0     H68812   7.539   3.508   4.720  2.1906  0.1217  0.4664
  510MOL0     H68813   7.643   3.381   4.671 -1.1164  4.8339 -1.6481
  510MOL0     H68814   7.127   3.389   4.724 -0.2101  2.0197 -0.5175
  510MOL0     H68815   6.888   3.385   4.650 -1.3388 -1.3910 -0.9079
  510MOL0     H68816   6.693   3.358   4.568 -2.1775  2.4549 -1.9773
  510MOL0     H68817   6.538   3.316   4.649  0.1419  0.8700 -1.7704
  510MOL0     H68818   6.549   3.487   4.798  0.1374  0.6504  0.0200
  510MOL0     H68819   6.725   3.511   4.775  2.0078 -3.0836 -1.2262
  510MOL0     H68820   6.551   3.681   4.663  1.0537 -0.2535  1.2786
  510MOL0     H68821   6.529   3.546   4.539  0.8956  0.3170 -0.9014
  510MOL0     H68822   6.782   3.672   4.639  0.6349  1.0075 -0.2890
  510MOL0     H68823   6.784   3.549   4.503 -0.8451  0.0489  0.1889
  510MOL0     H68824   6.644   3.822   4.501  1.4714 -1.4501  4.1389
  510MOL0     H68825   6.645   3.709   4.362 -0.7392 -1.1207  1.1031
  510MOL0     H68826   6.890   3.718   4.357 -1.9150  0.6170 -3.4796
  510MOL0     H68827   6.806   3.851   4.295 -0.0408  0.4197 -0.2637
  510MOL0     H68828   6.919   3.853   4.581 -3.2836 -1.8534  0.3006
  510MOL0     H68829   6.861   3.995   4.487  2.4209  0.4060 -0.0870
  510MOL0     H68830   7.044   3.924   4.313 -1.3384 -1.1944 -0.6336
  510MOL0     H68831   7.123   3.850   4.460  1.1922  1.0296 -2.2031
  510MOL0     H68832   6.767   3.160   4.980 -1.9642 -0.2041 -3.3415
  510MOL0     H68833   7.014   3.156   5.069 -0.3986 -1.1820 -1.4844
  510MOL0     H68834   7.383   3.198   5.123 -0.9444  3.1562  1.4650
  510MOL0     H68835   7.598   3.110   5.191 -0.6358  0.7183  0.8791
  510MOL0     H68836   8.279   2.504   5.137 -1.9173 -2.7976  0.5654
  510MOL0     H68837   8.417   2.470   4.917  2.3745  2.6630  0.8573
  510MOL0     H68838   8.571   2.293   4.671 -0.0982  2.8204 -1.4776
  510MOL0     H68839   8.626   2.240   4.446 -1.0616  5.1888  2.7524
  510MOL0     H68840   8.702   2.130   4.241 -1.4462  0.3701 -1.0246
  510MOL0     H68841   8.758   2.284   4.242 -0.5911 -0.5677  2.1153
  510MOL0     H68842   8.994   2.188   4.146 -0.7254  0.0616  2.6857
  510MOL0     H68843   8.851   2.215   4.040 -1.6540  0.6985  0.8624
  510MOL0     H68844   8.777   1.994   4.045  0.0076 -2.5366  0.8945
  510MOL0     H68845   8.908   1.946   4.152 -2.7524 -0.1765  0.6507
  510MOL0     H68846   8.988   1.881   3.945 -0.7532 -0.8414  2.9642
  510MOL0     H68847   9.074   2.032   3.965  0.3432 -2.2482  0.0874
  510MOL0     H68848   8.812   2.073   3.623  2.5359  1.1418 -2.0684
  510MOL0     H68849   9.035   2.195   4.540 -0.6175 -1.1327 -0.6722
  510MOL0     H68850   8.990   2.323   4.768 -0.2354  1.6773  1.0511
  511MOL0     O68851   9.394   0.161   3.239 -0.2284 -0.7139 -0.1925
  511MOL0     C68852   9.363   0.072   3.320 -0.8131  0.2138  0.2829
  511MOL0     O68853   9.439  -0.040   3.333  0.4402 -0.3444  0.2820
  511MOL0     C68854   9.537  -0.056   3.242  0.6527  0.4293  0.1755
  511MOL0     C68855   9.663  -0.110   3.289  1.1136  0.0440 -0.1978
  511MOL0     C68856   9.771  -0.141   3.204 -0.6000 -0.5208  0.1066
  511MOL0     C68857   9.764  -0.096   3.065 -1.2319 -0.2220 -1.0683
  511MOL0     O68858   9.870  -0.119   2.989  0.5668 -0.8149 -0.1718
  511MOL0     C68859   9.893  -0.037   2.870  0.2026 -0.0410 -0.2161
  511MOL0     C68860   9.844  -0.107   2.744 -0.0335 -0.2473  0.5967
  511MOL0     C68861   9.907  -0.045   2.621 -0.2769 -0.4427  0.4425
  511MOL0     C68862   9.877  -0.122   2.494  0.3591 -0.3199 -0.9474
  511MOL0     C68863   9.954  -0.082   2.374  0.1650  0.5337 -0.1421
  511MOL0     C68864   9.880   0.032   2.294  0.2843  0.1817 -0.2001
  511MOL0     C68865   9.982   0.084   2.193 -0.0903 -0.0002  0.2295
  511MOL0     C68866   9.941   0.215   2.125  0.0113 -0.5819  0.0259
  511MOL0     N68867  10.056   0.262   2.047 -0.1677  0.2318  0.5345
  511MOL0     C68868  10.177   0.312   2.088 -0.1041 -0.0771  0.4631
  511MOL0     C68869  10.248   0.342   1.975  0.3353  0.4615  0.2822
  511MOL0     C68870  10.377   0.407   1.952 -0.4718  0.3392  0.8317
  511MOL0     C68871  10.478   0.315   1.874 -1.4602 -0.1378  0.2266
  511MOL0     C68872  10.600   0.397   1.833  0.2522 -0.7392 -0.4852
  511MOL0     C68873  10.647   0.361   1.704 -1.0041  0.7347  0.3228
  511MOL0     O68874  10.561   0.380   1.592 -0.2720  0.5569 -0.1042
  511MOL0     C68875  10.628   0.394   1.471  0.9258  0.8778  0.6789
  511MOL0     C68876  10.650   0.532   1.421 -0.0638  0.4676 -1.0080
  511MOL0     C68877  10.710   0.560   1.299 -0.0892 -0.8053  1.0182
  511MOL0     C68878  10.750   0.696   1.284  0.1611 -0.5954 -0.5941
  511MOL0     C68879  10.752   0.453   1.217 -0.6391  0.0091  0.3365
  511MOL0     C68880  10.812   0.473   1.080 -0.2488 -0.7015  0.3790
  511MOL0     O68881  10.856   0.602   1.046  0.2344 -0.7811 -1.2594
  511MOL0     C68882  10.823   0.639   0.919  0.1794  0.0592  0.2026
  511MOL0     C68883  10.706   0.605   0.845 -0.6305  0.5052  0.0081
  511MOL0     C68884  10.691   0.657   0.712  0.3413  0.6565  0.1609
  511MOL0     C68885  10.786   0.738   0.650  0.5989  0.5677  0.1723
  511MOL0     O68886  10.783   0.786   0.525  0.1943 -0.6992  0.6718
  511MOL0     C68887  10.667   0.754   0.436  0.8322 -0.2154 -1.2263
  511MOL0     C68888  10.690   0.808   0.299  0.3919 -1.1262  0.5492
  511MOL0     C68889  10.651   0.962   0.278  0.2232 -0.6404 -0.1501
  511MOL0     C68890  10.646   0.993   0.129  0.3105 -0.2039  0.1108
  511MOL0     C68891  10.600   1.139   0.098 -0.0062  0.5380  0.3232
  511MOL0     C68892  10.578   1.150  -0.049  0.3383 -0.1992 -0.3554
  511MOL0     C68893  10.552   1.297  -0.084 -0.4644 -0.1685 -0.4493
  511MOL0     C68894  10.574   1.316  -0.233  0.0077  0.6814 -0.6080
  511MOL0    Cl68895  10.537   1.485  -0.263 -0.6031 -0.2833 -0.5649
  511MOL0     C68896  10.896   0.782   0.730  0.5901 -0.4359 -1.4054
  511MOL0     C68897  10.917   0.730   0.862 -1.6960 -0.2414  0.8637
  511MOL0     O68898  10.849   0.378   1.012 -0.0353 -0.3553  0.2138
  511MOL0     C68899  10.731   0.322   1.265  0.3538 -0.5833 -0.2411
  511MOL0     C68900  10.677   0.287   1.392 -0.5753  0.6584 -0.2310
  511MOL0     N68901  10.170   0.300   1.866 -0.0393 -0.5440 -0.2583
  511MOL0     N68902  10.059   0.246   1.908 -0.5614  0.3354 -0.1695
  511MOL0     C68903   9.643  -0.052   3.012  1.3046 -0.0166 -0.0319
  511MOL0     C68904   9.534  -0.033   3.094  0.2988 -0.5272  0.0268
  511MOL0     C68905   9.237   0.069   3.403  0.9261 -0.1843 -0.2143
  511MOL0     C68906   9.139   0.166   3.386  1.7846 -0.4748  1.0745
  511MOL0     C68907   9.027   0.163   3.475 -0.1551  0.7109 -0.0656
  511MOL0     C68908   9.014   0.072   3.575 -0.0187 -0.1602 -0.6835
  511MOL0     O68909   8.894   0.049   3.647  0.3667  0.2461  0.1763
  511MOL0     C68910   8.797   0.150   3.665  0.0018  0.1957  0.5065
  511MOL0     C68911   8.672   0.097   3.735 -0.3200  0.8749 -0.2367
  511MOL0     C68912   8.571   0.208   3.747 -0.2381 -0.2552 -0.0621
  511MOL0     C68913   8.444   0.158   3.834 -0.5989  0.1972  0.0418
  511MOL0     C68914   8.484   0.137   3.971  0.6984 -0.4825  0.8276
  511MOL0     C68915   8.521   0.096   4.073  0.1235  0.3733 -0.1034
  511MOL0     C68916   9.106  -0.033   3.575 -0.4991 -0.2292 -0.2135
  511MOL0     C68917   9.216  -0.036   3.493 -0.8118 -0.2632 -1.0945
  511MOL0     H68918   9.678  -0.119   3.396  2.4017  2.3935 -0.1265
  511MOL0     H68919   9.864  -0.180   3.245 -0.4263  1.2719  1.5448
  511MOL0     H68920   9.849   0.062   2.880 -0.6990 -0.4451 -0.0664
  511MOL0     H68921   9.999  -0.011   2.857 -0.3735  2.3673 -0.4468
  511MOL0     H68922   9.873  -0.210   2.769  2.0499  0.5066  1.5209
  511MOL0     H68923   9.735  -0.110   2.744 -0.0250 -2.9158  1.1279
  511MOL0     H68924   9.862   0.055   2.616 -0.9284 -0.7829 -1.2108
  511MOL0     H68925  10.016  -0.045   2.631 -0.2360 -3.4361  0.7184
  511MOL0     H68926   9.894  -0.228   2.514  0.2518 -0.9719 -3.9664
  511MOL0     H68927   9.770  -0.111   2.474 -0.0378  3.6988  1.9308
  511MOL0     H68928  10.049  -0.040   2.408 -0.2151  0.7105  0.7311
  511MOL0     H68929   9.964  -0.176   2.318 -4.6928 -1.1390  1.2257
  511MOL0     H68930   9.792  -0.010   2.244 -0.4373 -1.4690  2.2911
  511MOL0     H68931   9.842   0.105   2.367  0.3526 -0.1314  0.1494
  511MOL0     H68932  10.075   0.092   2.250 -0.6409 -0.4735  1.2018
  511MOL0     H68933   9.997   0.003   2.121 -4.0155 -1.6981  1.0852
  511MOL0     H68934   9.915   0.298   2.192 -1.6304 -1.2414  0.2515
  511MOL0     H68935   9.850   0.185   2.073 -2.0435  0.7204  2.6037
  511MOL0     H68936  10.195   0.316   2.195 -2.7403  0.2940  0.9547
  511MOL0     H68937  10.341   0.492   1.894 -4.5387 -0.5261  1.7070
  511MOL0     H68938  10.423   0.437   2.047 -2.6478  0.7180  1.8445
  511MOL0     H68939  10.430   0.258   1.793  2.5685 -4.0877  0.1806
  511MOL0     H68940  10.504   0.240   1.949 -1.0845 -0.8806 -0.6273
  511MOL0     H68941  10.675   0.378   1.910 -2.7656 -0.5040  2.8017
  511MOL0     H68942  10.586   0.505   1.834  2.9930 -0.3231 -0.8414
  511MOL0     H68943  10.675   0.255   1.700  0.9811  1.0937  2.5798
  511MOL0     H68944  10.736   0.415   1.672  0.6765 -2.8168 -1.6735
  511MOL0     H68945  10.608   0.617   1.474 -1.6632 -0.4642 -0.7123
  511MOL0     H68946  10.854   0.700   1.318  0.1716  2.3077 -0.6735
  511MOL0     H68947  10.734   0.741   1.185  0.2588  0.2965 -0.2173
  511MOL0     H68948  10.688   0.754   1.353  3.0376  0.9166  0.9342
  511MOL0     H68949  10.638   0.525   0.876  2.0291 -1.4899  1.0691
  511MOL0     H68950  10.600   0.637   0.657  0.0412 -0.7882  1.1503
  511MOL0     H68951  10.651   0.646   0.429 -1.5363 -0.0219  0.1573
  511MOL0     H68952  10.574   0.800   0.473  0.2544 -2.8666  0.9117
  511MOL0     H68953  10.797   0.798   0.276  0.0123 -0.8376 -1.5223
  511MOL0     H68954  10.627   0.757   0.226  0.0807  0.9600 -0.7223
  511MOL0     H68955  10.731   1.025   0.318 -0.2026  0.3030 -0.7507
  511MOL0     H68956  10.562   0.993   0.333 -2.0782 -0.5493 -3.6244
  511MOL0     H68957  10.742   0.970   0.083  0.7935  0.1841  0.9041
  511MOL0     H68958  10.572   0.923   0.089  0.1523 -1.4080  2.3987
  511MOL0     H68959  10.671   1.214   0.134  1.0575 -1.0760  1.7496
  511MOL0     H68960  10.506   1.169   0.146 -0.2389  0.7311 -0.2455
  511MOL0     H68961  10.657   1.104  -0.109 -1.5420 -2.3823 -1.3131
  511MOL0     H68962  10.482   1.102  -0.073  1.0710 -2.2712  0.5645
  511MOL0     H68963  10.624   1.369  -0.045 -0.3931 -1.8182  2.8172
  511MOL0     H68964  10.452   1.332  -0.058  0.9870  3.3063  1.0556
  511MOL0     H68965  10.512   1.253  -0.297  3.3305 -1.0681 -2.3856
  511MOL0     H68966  10.677   1.291  -0.261  0.8758 -1.0292  3.3479
  511MOL0     H68967  10.967   0.851   0.686 -0.5207  2.3963  0.9839
  511MOL0     H68968  10.994   0.771   0.927 -2.1870 -0.6803  1.7197
  511MOL0     H68969  10.776   0.240   1.211  1.1775 -0.0708 -0.3577
  511MOL0     H68970  10.662   0.182   1.416 -0.1270  0.4715 -0.7559
  511MOL0     H68971   9.612  -0.020   2.914 -1.8997 -1.7792  0.2712
  511MOL0     H68972   9.446   0.019   3.056  0.4079  2.2934  3.1432
  511MOL0     H68973   9.136   0.238   3.305  0.8916  0.2034  1.6929
  511MOL0     H68974   8.941   0.221   3.442 -0.1257  0.2352 -1.0231
  511MOL0     H68975   8.847   0.237   3.709 -1.0012  1.1543 -0.2001
  511MOL0     H68976   8.769   0.195   3.570  2.0382  0.7907  0.1247
  511MOL0     H68977   8.680   0.056   3.836  1.5956  1.5199 -0.0767
  511MOL0     H68978   8.625   0.021   3.672  0.2816  1.1228 -1.0001
  511MOL0     H68979   8.547   0.247   3.648 -0.2951  4.1011  1.4560
  511MOL0     H68980   8.626   0.285   3.801 -0.1252 -0.3771 -0.0042
  511MOL0     H68981   8.397   0.075   3.780 -0.5840  1.5015 -2.1352
  511MOL0     H68982   8.376   0.244   3.837  0.1352  0.7875  0.1200
  511MOL0     H68983   8.542   0.053   4.170  0.1411 -1.0435 -0.7038
  511MOL0     H68984   9.103  -0.101   3.659 -2.9618 -1.3850 -1.1330
  511MOL0     H68985   9.289  -0.116   3.503 -1.5886 -0.8233  0.6383
  512MOL0     O68986   1.686   4.353   6.779  0.5560 -0.3661 -0.2347
  512MOL0     C68987   1.643   4.415   6.878  0.1937  0.4154  0.0912
  512MOL0     O68988   1.589   4.538   6.880  0.0117  0.4292  0.2089
  512MOL0     C68989   1.558   4.591   6.756  0.1272 -1.1684 -0.1110
  512MOL0     C68990   1.495   4.523   6.654 -0.4133  0.8976  0.1491
  512MOL0     C68991   1.452   4.582   6.531  0.0124  0.0118 -0.0081
  512MOL0     C68992   1.469   4.713   6.509 -0.2659 -0.5573  0.3058
  512MOL0     O68993   1.421   4.792   6.406 -0.0375 -0.2872 -0.1724
  512MOL0     C68994   1.428   4.745   6.273 -0.6126  0.2334 -0.1176
  512MOL0     C68995   1.296   4.759   6.222 -0.0272  0.6000  0.1045
  512MOL0     C68996   1.183   4.687   6.301  0.2646 -0.2148 -0.0383
  512MOL0     C68997   1.050   4.670   6.221  0.1972 -0.7102 -0.5462
  512MOL0     C68998   1.062   4.552   6.114  0.3810  0.3950 -0.3245
  512MOL0     C68999   0.925   4.526   6.039  0.2899  0.4803 -0.1611
  512MOL0     C69000   0.879   4.657   5.953 -0.5619  0.5454  0.2675
  512MOL0     C69001   0.760   4.618   5.872 -0.0769  0.5207 -1.1856
  512MOL0     N69002   0.705   4.737   5.802  0.8387  0.1556 -0.0136
  512MOL0     C69003   0.588   4.799   5.830 -0.1031 -0.6326 -0.1749
  512MOL0     C69004   0.564   4.880   5.722 -1.1887 -0.3385  0.1174
  512MOL0     C69005   0.439   4.951   5.696  0.3056  0.3806 -0.5823
  512MOL0     C69006   0.312   4.865   5.724 -0.0382  0.2104  0.3096
  512MOL0     C69007   0.319   4.746   5.619  0.4290  0.3342 -0.0921
  512MOL0     C69008   0.192   4.659   5.627  0.0480  0.5650  0.8791
  512MOL0     O69009   0.221   4.540   5.550 -0.4630  0.5789  0.4000
  512MOL0     C69010   0.109   4.454   5.521 -0.9150  1.5167  0.6019
  512MOL0     C69011  -0.017   4.467   5.569 -0.4465  0.2220 -0.7451
  512MOL0     C69012  -0.120   4.383   5.516  0.1920 -1.3122 -0.5257
  512MOL0     C69013  -0.256   4.402   5.582 -0.7686  0.4084  0.5374
  512MOL0     C69014  -0.091   4.276   5.427  1.0696 -0.0300 -0.1462
  512MOL0     C69015  -0.184   4.167   5.388  0.3027 -0.2761  0.5683
  512MOL0     O69016  -0.321   4.176   5.418 -0.1582  0.3011 -0.2580
  512MOL0     C69017  -0.402   4.070   5.417 -0.1031 -0.3432  0.7031
  512MOL0     C69018  -0.370   3.940   5.465 -0.7132 -1.1117 -0.1147
  512MOL0     C69019  -0.453   3.832   5.424 -0.1184  0.4182  0.4642
  512MOL0     C69020  -0.569   3.859   5.353  0.0603 -0.3957 -0.0110
  512MOL0     O69021  -0.650   3.756   5.312 -0.7255 -0.5342  0.5362
  512MOL0     C69022  -0.639   3.718   5.175 -0.1759 -0.7616 -0.5027
  512MOL0     C69023  -0.745   3.615   5.145 -0.4527 -0.1738  0.5202
  512MOL0     C69024  -0.710   3.529   5.017 -0.0291 -0.5484  0.4398
  512MOL0     C69025  -0.804   3.406   4.995  0.5732  0.7993 -0.8401
  512MOL0     C69026  -0.944   3.450   4.972  0.0710 -0.6642  0.2615
  512MOL0     C69027  -1.025   3.345   4.900  0.8463  0.2583 -0.4050
  512MOL0     C69028  -1.005   3.337   4.746 -0.4520  1.1523 -0.3137
  512MOL0     C69029  -1.071   3.199   4.707 -0.1303 -0.6358  0.2764
  512MOL0    Cl69030  -1.107   3.184   4.541  0.0508  0.1732 -0.0399
  512MOL0     C69031  -0.614   3.992   5.326  0.0632  0.5982 -0.0949
  512MOL0     C69032  -0.527   4.096   5.365 -0.2537  0.0842  0.0277
  512MOL0     O69033  -0.133   4.077   5.322  0.1599 -0.0488 -0.4309
  512MOL0     C69034   0.034   4.276   5.371 -0.8747  0.0486  0.0572
  512MOL0     C69035   0.136   4.354   5.424  0.2452  0.3987 -0.1786
  512MOL0     N69036   0.668   4.873   5.634 -0.4021  0.3147  0.3455
  512MOL0     N69037   0.757   4.798   5.687  0.4383  0.1635 -0.3782
  512MOL0     C69038   1.544   4.780   6.593 -0.4585 -0.3728 -0.2546
  512MOL0     C69039   1.591   4.724   6.721  1.0926 -0.0929 -0.7254
  512MOL0     C69040   1.653   4.345   7.003  0.3055 -0.1077  0.3367
  512MOL0     C69041   1.725   4.221   7.012  0.4768 -0.3558  0.5319
  512MOL0     C69042   1.731   4.149   7.125  0.2597 -0.0673  0.9461
  512MOL0     C69043   1.671   4.186   7.245 -0.1043  0.1249  0.3003
  512MOL0     O69044   1.666   4.106   7.352  0.1550 -0.2655 -0.2861
  512MOL0     C69045   1.766   4.130   7.458 -0.5848  0.6316 -0.0649
  512MOL0     C69046   1.893   4.051   7.410 -0.0820 -0.5825  0.5054
  512MOL0     C69047   1.997   4.007   7.525  0.1119  0.6928 -0.0382
  512MOL0     C69048   2.147   4.002   7.480  0.0378 -0.6157 -0.1599
  512MOL0     C69049   2.178   3.888   7.404  0.2804 -0.9081  0.1156
  512MOL0     C69050   2.203   3.788   7.350  0.2294  0.0755 -0.3888
  512MOL0     C69051   1.590   4.298   7.242 -0.8855 -0.0204  0.3009
  512MOL0     C69052   1.582   4.377   7.123 -0.1112 -0.8092 -0.8932
  512MOL0     H69053   1.468   4.419   6.669 -2.6295  1.2061 -1.2325
  512MOL0     H69054   1.381   4.529   6.469 -0.8766  0.9541  0.1718
  512MOL0     H69055   1.500   4.804   6.215 -0.7882 -1.5511 -2.2960
  512MOL0     H69056   1.455   4.639   6.268 -1.5199  0.0096 -0.4553
  512MOL0     H69057   1.266   4.863   6.206 -1.1549  0.2358 -0.2151
  512MOL0     H69058   1.302   4.720   6.119  0.9481 -2.7119  1.2741
  512MOL0     H69059   1.220   4.588   6.330  1.6927  0.6789  1.3056
  512MOL0     H69060   1.173   4.747   6.391  0.6945 -1.7930  1.0939
  512MOL0     H69061   0.970   4.651   6.293 -1.1552  0.0616 -1.7825
  512MOL0     H69062   1.029   4.761   6.164  0.8698  0.4084  0.9169
  512MOL0     H69063   1.145   4.565   6.044  1.6068 -0.3153  0.9534
  512MOL0     H69064   1.087   4.460   6.167 -0.8156 -0.8305 -1.8000
  512MOL0     H69065   0.938   4.436   5.977 -0.1663 -0.5811  1.2406
  512MOL0     H69066   0.843   4.509   6.110 -0.0817 -0.4066 -0.7764
  512MOL0     H69067   0.855   4.735   6.026  5.1922  1.1091  2.0390
  512MOL0     H69068   0.960   4.692   5.887 -1.5895  1.3799 -0.5934
  512MOL0     H69069   0.687   4.571   5.939  0.3281 -0.1084 -1.1778
  512MOL0     H69070   0.793   4.550   5.793 -0.1643  0.0487 -0.8264
  512MOL0     H69071   0.523   4.778   5.914  0.7201  0.0576  0.6516
  512MOL0     H69072   0.448   5.031   5.771  1.6070 -2.0523  2.0514
  512MOL0     H69073   0.424   4.981   5.592  0.3504 -3.3778 -1.8011
  512MOL0     H69074   0.231   4.929   5.690  2.0025  3.3607  0.9776
  512MOL0     H69075   0.298   4.825   5.825  1.3081 -2.0060 -0.3189
  512MOL0     H69076   0.410   4.687   5.634 -1.0253 -2.1387 -0.3545
  512MOL0     H69077   0.320   4.784   5.517 -0.0261  0.7767  0.0645
  512MOL0     H69078   0.103   4.715   5.596 -1.3534 -0.9279  1.9954
  512MOL0     H69079   0.165   4.635   5.730 -0.8994  0.1992  0.5542
  512MOL0     H69080  -0.025   4.532   5.655 -0.2892 -1.1827  0.3785
  512MOL0     H69081  -0.274   4.491   5.643  1.2639  3.1060 -2.4871
  512MOL0     H69082  -0.326   4.421   5.500  0.3617 -0.3316 -0.6461
  512MOL0     H69083  -0.275   4.313   5.644 -1.2120  0.2381  0.1607
  512MOL0     H69084  -0.276   3.933   5.520 -1.2730  3.0459  1.7168
  512MOL0     H69085  -0.419   3.731   5.442  3.0384  0.9389 -1.8877
  512MOL0     H69086  -0.645   3.796   5.099 -1.0937 -0.1540  0.1757
  512MOL0     H69087  -0.544   3.666   5.159 -0.3696 -1.0046 -0.8795
  512MOL0     H69088  -0.768   3.561   5.238 -0.5092  2.9383  2.4413
  512MOL0     H69089  -0.833   3.673   5.116 -1.7937 -2.3205  0.0884
  512MOL0     H69090  -0.604   3.501   5.021  0.7441  2.0916  0.5484
  512MOL0     H69091  -0.720   3.597   4.932 -0.6051  0.9416  1.6482
  512MOL0     H69092  -0.757   3.355   4.911  0.1323 -0.2719 -0.4500
  512MOL0     H69093  -0.793   3.347   5.086 -3.7259 -0.2843 -0.8347
  512MOL0     H69094  -0.943   3.544   4.916  0.1559 -0.7207  0.1674
  512MOL0     H69095  -0.989   3.479   5.067 -0.8395 -1.1998  0.0087
  512MOL0     H69096  -1.033   3.245   4.944  1.0177 -0.6987 -2.4410
  512MOL0     H69097  -1.127   3.385   4.900 -0.0674 -1.9618 -0.2319
  512MOL0     H69098  -0.901   3.334   4.711 -0.7646 -0.1679 -1.2025
  512MOL0     H69099  -1.061   3.410   4.687  2.0682  2.1911 -1.5998
  512MOL0     H69100  -1.164   3.215   4.763  0.9279  3.1414  1.2314
  512MOL0     H69101  -1.010   3.114   4.742 -0.4584 -0.7311  0.6212
  512MOL0     H69102  -0.708   4.005   5.274  0.8097 -2.0540 -2.3888
  512MOL0     H69103  -0.551   4.194   5.324 -2.5209  0.1614  1.3303
  512MOL0     H69104   0.053   4.216   5.282 -3.6087  0.5581 -0.9747
  512MOL0     H69105   0.239   4.331   5.395 -0.9948 -3.5533 -2.1537
  512MOL0     H69106   1.553   4.887   6.580  1.5088 -0.3562  0.8049
  512MOL0     H69107   1.644   4.783   6.795 -0.1155 -2.4247  2.1852
  512MOL0     H69108   1.775   4.187   6.922 -1.6029 -2.5865  0.1232
  512MOL0     H69109   1.791   4.059   7.115  1.2603  0.8343 -3.4666
  512MOL0     H69110   1.787   4.235   7.480 -2.0182  0.7909  0.6365
  512MOL0     H69111   1.734   4.095   7.556  1.0108 -1.3217 -0.1769
  512MOL0     H69112   1.940   4.125   7.345 -0.6463 -0.0831  0.6618
  512MOL0     H69113   1.871   3.963   7.349  1.0559 -0.7099  0.2476
  512MOL0     H69114   1.981   3.911   7.575 -0.0896  1.1579  0.8055
  512MOL0     H69115   1.982   4.088   7.598  2.5292 -1.4541  3.1189
  512MOL0     H69116   2.211   4.009   7.569  0.6196  1.7467 -0.6912
  512MOL0     H69117   2.183   4.091   7.428  2.5995 -0.7966  1.1870
  512MOL0     H69118   2.228   3.707   7.285  1.1179  0.8377 -1.0387
  512MOL0     H69119   1.539   4.334   7.330 -2.5547  3.0671 -1.7509
  512MOL0     H69120   1.513   4.459   7.137  1.2138  0.1007  0.6609
  513MOL0     O69121   4.015   3.111   9.508  0.4004 -0.7170  0.8383
  513MOL0     C69122   3.928   3.044   9.553  0.5556 -0.6914  0.1179
  513MOL0     O69123   3.799   3.044   9.512 -0.6978 -0.0980  0.2410
  513MOL0     C69124   3.761   3.097   9.394 -0.1419 -0.3448  0.0298
  513MOL0     C69125   3.729   3.235   9.385  0.0235 -0.3790 -0.6504
  513MOL0     C69126   3.678   3.288   9.267  0.0297 -0.0895  0.3946
  513MOL0     C69127   3.669   3.210   9.148  0.7713  0.1709  0.6888
  513MOL0     O69128   3.620   3.250   9.028 -0.2023 -0.4238  0.0683
  513MOL0     C69129   3.544   3.371   9.024 -0.0764 -0.6903 -0.6877
  513MOL0     C69130   3.455   3.360   8.900  0.1923  0.0670 -0.4726
  513MOL0     C69131   3.382   3.488   8.854 -0.3603  0.0655  0.0278
  513MOL0     C69132   3.486   3.592   8.810 -0.0604 -0.6776  0.9518
  513MOL0     C69133   3.445   3.687   8.692  0.3570  0.9724 -0.2345
  513MOL0     C69134   3.327   3.779   8.740  0.1980 -0.3027 -0.2219
  513MOL0     C69135   3.238   3.832   8.627  1.4466 -0.6698 -0.3713
  513MOL0     C69136   3.308   3.936   8.548 -0.1007 -0.6943 -0.1335
  513MOL0     N69137   3.318   4.058   8.624 -0.1150  0.3361 -0.0336
  513MOL0     C69138   3.209   4.133   8.673  0.2696  0.7295 -0.0658
  513MOL0     C69139   3.262   4.243   8.722 -0.5249 -0.5864  0.1087
  513MOL0     C69140   3.189   4.365   8.799 -0.2736  0.2616  0.0414
  513MOL0     C69141   3.265   4.497   8.782  0.5863  0.6872 -0.7565
  513MOL0     C69142   3.206   4.607   8.869 -0.6971 -0.5461 -0.0591
  513MOL0     C69143   3.101   4.673   8.788  1.4512  0.2425  0.1350
  513MOL0     O69144   3.012   4.744   8.877  0.1021  0.9098 -0.4790
  513MOL0     C69145   2.969   4.869   8.840  0.4463  0.6012  0.5686
  513MOL0     C69146   2.937   4.900   8.705  1.4037 -1.0242  0.8933
  513MOL0     C69147   2.875   5.016   8.674  0.5998 -0.6693 -0.4792
  513MOL0     C69148   2.808   5.038   8.533 -0.7725  0.0503  1.1659
  513MOL0     C69149   2.857   5.119   8.779 -0.2412  1.0246  0.0587
  513MOL0     C69150   2.807   5.259   8.748  0.2453 -0.5605 -0.5592
  513MOL0     O69151   2.885   5.326   8.661  0.1367  0.0168  0.1937
  513MOL0     C69152   2.882   5.459   8.694 -0.1945  0.7480  0.3453
  513MOL0     C69153   2.790   5.546   8.640 -0.2676  0.2433  0.1855
  513MOL0     C69154   2.785   5.677   8.683 -0.1823  0.3770  0.4493
  513MOL0     C69155   2.875   5.728   8.777 -0.8400 -0.9196 -0.2287
  513MOL0     O69156   2.879   5.857   8.804 -0.2120 -0.6197  0.4965
  513MOL0     C69157   3.004   5.901   8.860 -0.8685 -0.3627 -1.0904
  513MOL0     C69158   3.023   6.060   8.861 -0.6327  0.0814  0.2450
  513MOL0     C69159   3.115   6.113   8.968 -0.8406  0.0853  0.5018
  513MOL0     C69160   3.230   6.200   8.907  0.5561 -0.3054 -0.4207
  513MOL0     C69161   3.344   6.209   9.008  0.0911 -0.2624  0.3491
  513MOL0     C69162   3.471   6.276   8.953 -0.6149 -0.4986  0.6058
  513MOL0     C69163   3.584   6.238   9.046  0.9277  1.4078 -0.5371
  513MOL0     C69164   3.594   6.340   9.162 -0.1170  0.0060 -0.0218
  513MOL0    Cl69165   3.610   6.514   9.110  0.2596 -0.4687  0.4421
  513MOL0     C69166   2.958   5.633   8.839 -0.4434 -0.1045 -0.5187
  513MOL0     C69167   2.963   5.506   8.801  0.4615  0.1668 -0.6295
  513MOL0     O69168   2.720   5.308   8.817 -0.0279  0.3887  0.3200
  513MOL0     C69169   2.892   5.088   8.916  0.6550 -0.5086  0.4094
  513MOL0     C69170   2.950   4.965   8.943 -0.6494  0.0614 -0.4690
  513MOL0     N69171   3.402   4.228   8.709 -0.3162 -0.3972 -0.3970
  513MOL0     N69172   3.439   4.121   8.650 -0.0014 -1.0520 -0.4072
  513MOL0     C69173   3.692   3.072   9.154 -0.0190 -0.1398 -0.0080
  513MOL0     C69174   3.728   3.016   9.279  0.1910 -0.1377  0.8434
  513MOL0     C69175   3.956   2.962   9.671  0.1917 -0.1380  0.3976
  513MOL0     C69176   3.865   2.869   9.718  0.2416  0.1469 -0.3202
  513MOL0     C69177   3.900   2.763   9.801  0.5697 -0.8923 -0.0704
  513MOL0     C69178   4.026   2.764   9.853  0.0321 -0.4824 -0.4318
  513MOL0     O69179   4.058   2.669   9.942  0.1825 -0.0264 -0.3230
  513MOL0     C69180   4.108   2.704  10.071 -0.0543  0.5527  0.6895
  513MOL0     C69181   4.128   2.573  10.143  0.5732 -0.2008 -0.7934
  513MOL0     C69182   4.188   2.588  10.279 -1.2800  0.5268 -0.3310
  513MOL0     C69183   4.114   2.656  10.400  0.7407  0.9444  0.8562
  513MOL0     C69184   4.213   2.671  10.512 -0.0215 -0.1590 -0.2469
  513MOL0     C69185   4.287   2.689  10.613 -0.1007 -0.6781 -0.0366
  513MOL0     C69186   4.115   2.866   9.812 -0.5207 -0.2506  1.3249
  513MOL0     C69187   4.087   2.966   9.720  0.2858  0.2314 -0.3512
  513MOL0     H69188   3.731   3.299   9.472 -2.2027 -2.3701  0.9774
  513MOL0     H69189   3.629   3.384   9.263  0.7542  0.2446 -1.8527
  513MOL0     H69190   3.471   3.368   9.106 -0.0997 -3.8832 -0.6869
  513MOL0     H69191   3.599   3.465   9.035  0.2633 -1.1559  2.4733
  513MOL0     H69192   3.516   3.312   8.823  1.0807 -1.2272  0.9818
  513MOL0     H69193   3.380   3.284   8.925  1.5020 -0.7446  1.2363
  513MOL0     H69194   3.331   3.459   8.762 -0.4374  2.0523 -0.6097
  513MOL0     H69195   3.311   3.535   8.923 -1.3502  1.4953 -1.8910
  513MOL0     H69196   3.520   3.660   8.889 -3.3880  1.3135  0.8517
  513MOL0     H69197   3.580   3.551   8.773 -0.8251  0.0402 -2.0586
  513MOL0     H69198   3.531   3.744   8.656 -1.2474  3.4409 -0.4156
  513MOL0     H69199   3.406   3.618   8.616  0.2033  2.0074 -1.1279
  513MOL0     H69200   3.268   3.730   8.817  3.6957 -2.3760  1.3843
  513MOL0     H69201   3.375   3.864   8.789 -1.7634  0.0615  1.1882
  513MOL0     H69202   3.213   3.752   8.556  1.4052 -0.9864 -0.0024
  513MOL0     H69203   3.141   3.865   8.665  0.9679 -1.0810 -1.2085
  513MOL0     H69204   3.260   3.957   8.453  2.4692  0.1849 -1.3322
  513MOL0     H69205   3.407   3.904   8.514  0.1915  2.2179 -2.3306
  513MOL0     H69206   3.105   4.102   8.674  0.5125 -0.1246 -0.4429
  513MOL0     H69207   3.092   4.387   8.752  0.2552  1.3069 -0.6131
  513MOL0     H69208   3.187   4.339   8.905  0.2363 -0.6051 -0.1524
  513MOL0     H69209   3.259   4.530   8.678 -1.7000  1.9279 -0.2912
  513MOL0     H69210   3.366   4.472   8.816  0.6811  0.6648 -1.0469
  513MOL0     H69211   3.280   4.682   8.900 -0.8746 -0.3426 -0.1236
  513MOL0     H69212   3.167   4.564   8.962  3.8877 -2.6307  1.1969
  513MOL0     H69213   3.037   4.598   8.740 -1.8147  1.8983  1.5908
  513MOL0     H69214   3.141   4.749   8.721  1.1143  0.5197  0.2503
  513MOL0     H69215   2.947   4.824   8.628 -2.0852 -0.0599 -0.7379
  513MOL0     H69216   2.700   5.054   8.535 -1.0142 -1.4782  2.4633
  513MOL0     H69217   2.852   5.118   8.473  0.0859 -1.3849 -0.2150
  513MOL0     H69218   2.825   4.949   8.471 -0.9410  0.8729 -0.0961
  513MOL0     H69219   2.706   5.522   8.575 -1.2845  2.5085  0.5852
  513MOL0     H69220   2.709   5.739   8.636 -2.8480 -2.7427  0.2290
  513MOL0     H69221   3.001   5.879   8.967 -1.3883 -1.5596 -1.3432
  513MOL0     H69222   3.091   5.863   8.806  0.4406  1.3549 -0.3162
  513MOL0     H69223   3.064   6.093   8.765  3.9330 -0.1160  1.8845
  513MOL0     H69224   2.923   6.100   8.877 -0.9037 -1.1612  2.0452
  513MOL0     H69225   3.151   6.027   9.026 -2.1927 -0.5196  0.4855
  513MOL0     H69226   3.077   6.194   9.030  1.9698  1.4187  0.6134
  513MOL0     H69227   3.258   6.144   8.817 -2.0531  0.5378 -1.8810
  513MOL0     H69228   3.188   6.297   8.880 -0.2293 -0.3091  0.7135
  513MOL0     H69229   3.365   6.106   9.039  1.0853 -0.3178 -0.4536
  513MOL0     H69230   3.307   6.266   9.094  0.3510  1.7364 -0.8002
  513MOL0     H69231   3.479   6.228   8.855  2.0378  1.8909 -0.4740
  513MOL0     H69232   3.469   6.383   8.935  0.3076 -0.4931  0.5048
  513MOL0     H69233   3.673   6.233   8.982  0.7918 -0.1584 -0.6286
  513MOL0     H69234   3.582   6.135   9.084 -0.4508 -0.0881 -4.2500
  513MOL0     H69235   3.670   6.318   9.238 -1.1459  0.6565  1.2417
  513MOL0     H69236   3.502   6.339   9.222 -2.6272  0.9577 -3.5443
  513MOL0     H69237   3.029   5.651   8.919 -0.8372 -3.4039  0.7562
  513MOL0     H69238   3.027   5.433   8.850 -0.9683 -0.4109  0.4515
  513MOL0     H69239   2.857   5.162   8.987 -1.9151 -0.0956 -1.1822
  513MOL0     H69240   2.970   4.942   9.047 -1.2384  2.7793  0.3312
  513MOL0     H69241   3.678   3.015   9.063 -0.2698 -0.0162 -0.0486
  513MOL0     H69242   3.734   2.908   9.285 -1.5642 -0.2857  0.3554
  513MOL0     H69243   3.762   2.879   9.684  0.0443 -0.0348  0.2100
  513MOL0     H69244   3.833   2.682   9.827 -0.2224 -1.2926 -3.0116
  513MOL0     H69245   4.196   2.769  10.062  0.1751  0.4019  1.7229
  513MOL0     H69246   4.029   2.758  10.124  0.7473  0.1057  2.4485
  513MOL0     H69247   4.176   2.503  10.074  0.7657 -1.4397  0.5262
  513MOL0     H69248   4.028   2.534  10.167  1.0525 -1.4186 -0.7071
  513MOL0     H69249   4.280   2.644  10.261 -1.1691  1.7120  3.1961
  513MOL0     H69250   4.219   2.490  10.318  1.4745  1.7030  0.6958
  513MOL0     H69251   4.020   2.606  10.426  1.9353 -1.6003  0.5728
  513MOL0     H69252   4.095   2.763  10.391 -1.1504  0.7142  1.5089
  513MOL0     H69253   4.347   2.719  10.697  3.3653 -0.4417 -2.4015
  513MOL0     H69254   4.216   2.857   9.853 -0.4105 -0.4449  1.0112
  513MOL0     H69255   4.163   3.034   9.682 -0.4449  0.1415 -2.0743
  514MOL0     O69256   0.360   4.791   8.766 -0.3722 -0.4350 -0.6846
  514MOL0     C69257   0.485   4.797   8.782  0.6818 -0.6677  0.2181
  514MOL0     O69258   0.575   4.691   8.786  0.2130 -0.2174  0.3160
  514MOL0     C69259   0.530   4.563   8.771  1.0436  0.6774 -0.1367
  514MOL0     C69260   0.633   4.474   8.816 -0.1767 -0.1446  0.0801
  514MOL0     C69261   0.610   4.343   8.834  0.1152  0.7315  0.1726
  514MOL0     C69262   0.487   4.290   8.809 -0.3738 -0.3963 -0.0965
  514MOL0     O69263   0.478   4.158   8.829 -0.6603  0.7675  0.2513
  514MOL0     C69264   0.364   4.079   8.804  0.3671 -0.0408  0.1331
  514MOL0     C69265   0.367   4.025   8.655 -1.0760 -0.5271 -0.9249
  514MOL0     C69266   0.230   3.965   8.608 -0.1806  0.1746  0.5578
  514MOL0     C69267   0.179   4.011   8.471  0.4269 -0.7764 -0.2452
  514MOL0     C69268   0.047   3.941   8.431 -0.0160  0.6526 -0.1601
  514MOL0     C69269   0.049   3.800   8.386  0.2573 -0.1356  0.2638
  514MOL0     C69270  -0.091   3.756   8.325  0.3972  0.2683 -0.1677
  514MOL0     C69271  -0.088   3.615   8.259 -0.4409 -0.8068 -1.4704
  514MOL0     N69272  -0.215   3.582   8.188  0.4152  0.5998  0.0541
  514MOL0     C69273  -0.336   3.563   8.254  0.5015 -0.0377 -0.3801
  514MOL0     C69274  -0.415   3.506   8.157  0.0647 -0.2221 -0.1840
  514MOL0     C69275  -0.556   3.458   8.201  1.1399  0.3952 -0.3769
  514MOL0     C69276  -0.655   3.569   8.243  0.3803 -0.8597 -0.8873
  514MOL0     C69277  -0.654   3.705   8.166  0.6479 -0.9201 -0.4868
  514MOL0     C69278  -0.669   3.684   8.011  0.3426 -1.0373 -0.6639
  514MOL0     O69279  -0.808   3.651   7.988 -1.0120 -0.0614  0.3376
  514MOL0     C69280  -0.849   3.596   7.863 -0.0407  0.0963 -0.0796
  514MOL0     C69281  -0.979   3.546   7.852  0.5728 -0.4207 -0.0117
  514MOL0     C69282  -1.037   3.516   7.727  0.2533  0.3402  0.8415
  514MOL0     C69283  -1.181   3.462   7.741 -0.4499  0.3915 -0.2718
  514MOL0     C69284  -0.964   3.527   7.609 -0.0119 -0.6615  0.8092
  514MOL0     C69285  -1.021   3.489   7.473  0.0905  0.1321 -0.7016
  514MOL0     O69286  -0.985   3.554   7.364  0.4559 -0.1418 -0.2324
  514MOL0     C69287  -1.059   3.546   7.253 -0.5473 -0.2479  0.3653
  514MOL0     C69288  -0.997   3.554   7.125 -0.2924  0.2348  0.0937
  514MOL0     C69289  -1.069   3.543   7.007  0.3991  0.3781  1.2300
  514MOL0     C69290  -1.206   3.519   7.004 -0.7113 -0.5797  0.4210
  514MOL0     O69291  -1.252   3.494   6.875  0.5129  0.3033  0.3208
  514MOL0     C69292  -1.371   3.409   6.869  1.4313 -0.0454 -0.0161
  514MOL0     C69293  -1.411   3.403   6.718  0.0072 -0.1180 -0.0416
  514MOL0     C69294  -1.558   3.346   6.695 -0.7031  0.1366 -0.8543
  514MOL0     C69295  -1.563   3.237   6.584  0.3238  0.0634  0.5227
  514MOL0     C69296  -1.704   3.187   6.548  0.2961  0.2102 -0.0432
  514MOL0     C69297  -1.744   3.071   6.642  0.2738  0.2789  0.3197
  514MOL0     C69298  -1.885   3.007   6.625  0.2819  0.7148 -0.1771
  514MOL0     C69299  -1.892   2.873   6.707  0.1645 -0.1703  0.2201
  514MOL0    Cl69300  -2.061   2.803   6.700  0.0974 -0.1415  0.0807
  514MOL0     C69301  -1.264   3.509   7.128  0.0563  0.8707 -0.6444
  514MOL0     C69302  -1.194   3.528   7.248  0.1546 -0.6690 -0.0219
  514MOL0     O69303  -1.098   3.391   7.476 -0.4889  0.2156 -0.3422
  514MOL0     C69304  -0.834   3.579   7.618 -0.4757 -0.4030  0.4379
  514MOL0     C69305  -0.772   3.608   7.745  0.3978 -0.0488  0.0620
  514MOL0     N69306  -0.341   3.484   8.045  0.0251 -0.0412  0.0116
  514MOL0     N69307  -0.227   3.541   8.056 -0.2984  0.0204  0.4747
  514MOL0     C69308   0.384   4.371   8.760 -0.3088  0.4577  0.6034
  514MOL0     C69309   0.401   4.506   8.745  0.0230  0.5540  1.1047
  514MOL0     C69310   0.535   4.929   8.820 -0.4203  0.0653  0.3784
  514MOL0     C69311   0.466   5.008   8.903 -0.5216 -0.0233  0.3348
  514MOL0     C69312   0.514   5.124   8.963  0.1590 -0.4952  0.5651
  514MOL0     C69313   0.634   5.170   8.920 -0.5358  0.5969 -0.1875
  514MOL0     O69314   0.696   5.279   8.971 -0.0622 -0.7881 -0.0184
  514MOL0     C69315   0.633   5.385   9.041 -0.4418 -0.3009 -0.6938
  514MOL0     C69316   0.566   5.471   8.933 -0.1157  0.4596  0.5005
  514MOL0     C69317   0.503   5.602   8.965  0.1622  0.9732  0.8667
  514MOL0     C69318   0.385   5.587   9.047  0.9637 -0.4198 -0.5388
  514MOL0     C69319   0.318   5.707   9.094  0.8222  0.2445  0.2882
  514MOL0     C69320   0.252   5.808   9.114 -0.7479  0.2893  0.2538
  514MOL0     C69321   0.713   5.089   8.839 -0.1605  0.3569 -0.8539
  514MOL0     C69322   0.660   4.968   8.780 -1.0419 -0.7405 -0.7579
  514MOL0     H69323   0.736   4.508   8.818 -0.0722 -0.1137 -2.4747
  514MOL0     H69324   0.688   4.273   8.864  0.5434  1.3997  0.6556
  514MOL0     H69325   0.370   3.994   8.873  1.0613  1.6866  2.3388
  514MOL0     H69326   0.268   4.128   8.823 -1.5477 -2.8408 -1.5634
  514MOL0     H69327   0.388   4.114   8.594 -0.4668  0.8931  1.2507
  514MOL0     H69328   0.443   3.948   8.640  1.5070  1.6337  0.2247
  514MOL0     H69329   0.237   3.857   8.595 -2.1229  0.3134 -3.6384
  514MOL0     H69330   0.148   3.975   8.680 -2.3246  0.0408 -1.7056
  514MOL0     H69331   0.160   4.119   8.467  0.5722 -0.7359  0.1676
  514MOL0     H69332   0.270   4.006   8.410  0.6920  4.2687 -0.7435
  514MOL0     H69333  -0.017   3.939   8.520  2.2303 -0.6040  1.5538
  514MOL0     H69334  -0.008   3.994   8.353  0.9342  0.1272 -1.2109
  514MOL0     H69335   0.124   3.783   8.308 -0.1015  2.0261 -0.6356
  514MOL0     H69336   0.076   3.734   8.469  3.2607  0.6397  0.0469
  514MOL0     H69337  -0.167   3.754   8.402  1.6635 -1.5055  1.1187
  514MOL0     H69338  -0.139   3.821   8.251  1.2327 -1.5566 -2.4638
  514MOL0     H69339  -0.090   3.544   8.342 -1.8829  0.7945 -0.0541
  514MOL0     H69340   0.002   3.599   8.199  1.2016 -0.3823  0.7620
  514MOL0     H69341  -0.366   3.587   8.355 -1.9612 -1.7866 -0.6170
  514MOL0     H69342  -0.604   3.403   8.119 -1.8849  0.9580  0.8710
  514MOL0     H69343  -0.549   3.389   8.285  0.1884  2.6135  1.6391
  514MOL0     H69344  -0.632   3.596   8.347 -2.1926  1.1053 -0.7142
  514MOL0     H69345  -0.760   3.537   8.245  0.4716 -1.4964 -3.2815
  514MOL0     H69346  -0.559   3.756   8.184  0.6809 -1.8767  2.7641
  514MOL0     H69347  -0.741   3.764   8.196  0.9328  0.1129 -1.6382
  514MOL0     H69348  -0.605   3.607   7.967  0.8779  0.1431 -2.0156
  514MOL0     H69349  -0.657   3.784   7.968 -2.6174 -0.1347  0.3362
  514MOL0     H69350  -1.036   3.546   7.944  0.9252  0.3840  0.2173
  514MOL0     H69351  -1.237   3.516   7.664 -1.1192  2.9580  1.8896
  514MOL0     H69352  -1.188   3.353   7.738  0.5741  0.3012  0.1860
  514MOL0     H69353  -1.222   3.500   7.834 -1.1923 -0.7612 -0.1157
  514MOL0     H69354  -0.891   3.567   7.104 -0.1108 -0.4041  0.5454
  514MOL0     H69355  -1.015   3.552   6.913  1.3080  2.0146  1.8696
  514MOL0     H69356  -1.352   3.312   6.916  0.5180 -0.5399 -0.6328
  514MOL0     H69357  -1.456   3.453   6.922  1.9395 -1.1417  1.7913
  514MOL0     H69358  -1.399   3.500   6.669 -0.6178 -0.0567 -0.0733
  514MOL0     H69359  -1.341   3.341   6.662  1.5248  0.2634  1.3503
  514MOL0     H69360  -1.631   3.426   6.679  1.0479  1.8675 -0.5800
  514MOL0     H69361  -1.588   3.304   6.791  3.4904 -0.5655  0.3255
  514MOL0     H69362  -1.515   3.271   6.492 -0.1956  1.5097  0.7577
  514MOL0     H69363  -1.507   3.152   6.623 -2.8570 -0.6850  4.0514
  514MOL0     H69364  -1.695   3.148   6.446  0.8886 -0.8809  0.4071
  514MOL0     H69365  -1.774   3.271   6.556  1.7371  1.3849  0.6380
  514MOL0     H69366  -1.677   2.989   6.614 -0.6352 -0.6113  0.6860
  514MOL0     H69367  -1.719   3.098   6.745  1.5912  1.8862 -0.3805
  514MOL0     H69368  -1.920   2.988   6.523 -5.5654 -2.4800  1.9525
  514MOL0     H69369  -1.955   3.078   6.670 -1.1199 -0.8812  0.2466
  514MOL0     H69370  -1.859   2.878   6.811  1.6897 -0.6319 -0.2146
  514MOL0     H69371  -1.832   2.794   6.662 -0.7916 -0.0984 -1.2734
  514MOL0     H69372  -1.372   3.496   7.123  0.0751  0.6508 -5.6353
  514MOL0     H69373  -1.242   3.528   7.345 -1.4189 -0.5265 -0.7683
  514MOL0     H69374  -0.779   3.587   7.525 -0.4181 -1.8082  0.3356
  514MOL0     H69375  -0.669   3.641   7.758  0.0663  0.1060  2.6053
  514MOL0     H69376   0.289   4.329   8.728  0.7812 -2.2402  0.6565
  514MOL0     H69377   0.322   4.575   8.716  0.7234  0.3660 -1.5187
  514MOL0     H69378   0.364   4.989   8.933 -0.7664  2.9056  1.7416
  514MOL0     H69379   0.456   5.170   9.042  1.3745  0.3537  0.9989
  514MOL0     H69380   0.565   5.344   9.116  1.0921  0.3985  1.1636
  514MOL0     H69381   0.707   5.450   9.089 -1.3627  0.7630 -0.6627
  514MOL0     H69382   0.490   5.405   8.889  1.0823  0.3367 -1.5073
  514MOL0     H69383   0.642   5.493   8.858 -0.7017 -0.5837 -0.4314
  514MOL0     H69384   0.467   5.642   8.870  1.1294  0.4223  0.2559
  514MOL0     H69385   0.585   5.661   9.007 -0.8324  1.0081  2.9122
  514MOL0     H69386   0.428   5.551   9.141 -0.0369 -0.8050 -0.2211
  514MOL0     H69387   0.313   5.521   8.999  0.1168 -0.6292  0.9540
  514MOL0     H69388   0.207   5.906   9.111 -1.9806 -0.2157 -3.3651
  514MOL0     H69389   0.817   5.112   8.822 -0.2262  2.0070  0.6571
  514MOL0     H69390   0.721   4.897   8.725  0.2943 -2.3773  2.5964
  515MOL0     O69391  10.469   5.487   8.656  0.2586  0.7534 -0.4434
  515MOL0     C69392  10.456   5.365   8.673  0.2708  0.9964  0.1455
  515MOL0     O69393  10.463   5.294   8.794 -0.2569 -0.2968  0.2367
  515MOL0     C69394  10.419   5.353   8.910 -0.2612  0.0819 -0.0528
  515MOL0     C69395  10.336   5.469   8.919  0.2262 -1.0171 -0.4277
  515MOL0     C69396  10.279   5.508   9.041 -0.1481 -0.1721  0.2508
  515MOL0     C69397  10.303   5.432   9.158 -0.2889 -0.5840 -0.0762
  515MOL0     O69398  10.229   5.468   9.267 -0.1653 -0.1028  0.0269
  515MOL0     C69399  10.218   5.368   9.370  0.4948 -0.0889  0.3530
  515MOL0     C69400  10.104   5.402   9.458  0.5361 -0.2379  0.8806
  515MOL0     C69401  10.110   5.312   9.579  0.3232  0.5117 -0.6846
  515MOL0     C69402   9.975   5.328   9.667  0.2182  1.0658 -0.1166
  515MOL0     C69403   9.981   5.446   9.750 -0.0191 -0.4592  0.9263
  515MOL0     C69404   9.866   5.443   9.855  0.7652 -0.1005  0.2356
  515MOL0     C69405   9.730   5.441   9.790 -0.1861  0.4310 -0.1023
  515MOL0     C69406   9.628   5.451   9.908  1.0867 -0.3711 -1.0082
  515MOL0     N69407   9.490   5.472   9.866 -0.5450 -1.1454 -0.7784
  515MOL0     C69408   9.378   5.384   9.881 -0.1705  0.9653 -0.5551
  515MOL0     C69409   9.280   5.433   9.805  0.7408 -0.2084 -0.5205
  515MOL0     C69410   9.138   5.386   9.791 -0.4245 -0.2570 -0.2555
  515MOL0     C69411   9.033   5.484   9.736 -0.3950  0.1329 -0.0410
  515MOL0     C69412   8.928   5.417   9.657  0.3199  0.0049  0.6561
  515MOL0     C69413   8.826   5.533   9.610  0.2412  0.2516 -0.1549
  515MOL0     O69414   8.726   5.490   9.517  0.6194 -0.2727  0.5475
  515MOL0     C69415   8.674   5.592   9.434 -0.5699 -0.0682 -0.2682
  515MOL0     C69416   8.599   5.538   9.322 -0.7466 -0.3877  0.4272
  515MOL0     C69417   8.548   5.631   9.223 -0.2561 -0.5539 -0.9854
  515MOL0     C69418   8.473   5.572   9.102 -0.5822 -1.0151  0.6273
  515MOL0     C69419   8.557   5.770   9.250 -0.0934 -0.1247  1.1700
  515MOL0     C69420   8.509   5.878   9.154 -0.8239 -0.0416  0.3955
  515MOL0     O69421   8.544   6.009   9.176 -0.1158 -0.4670 -0.1027
  515MOL0     C69422   8.520   6.123   9.084 -0.3567  0.3610  0.3330
  515MOL0     C69423   8.468   6.110   8.951  0.3275  0.4290  0.1545
  515MOL0     C69424   8.469   6.234   8.877 -0.2758  0.0864 -0.0534
  515MOL0     C69425   8.512   6.357   8.929 -0.0923 -0.4822  0.2806
  515MOL0     O69426   8.503   6.465   8.847 -0.5205  0.2331 -0.7620
  515MOL0     C69427   8.475   6.590   8.913 -0.1697 -0.8335  0.9343
  515MOL0     C69428   8.470   6.704   8.809 -0.2983 -0.5289  0.2867
  515MOL0     C69429   8.388   6.826   8.846  0.2577 -0.0159 -0.0173
  515MOL0     C69430   8.455   6.918   8.951  0.0683  0.2642 -0.1406
  515MOL0     C69431   8.381   7.057   8.956  0.0945  0.0840  0.0653
  515MOL0     C69432   8.440   7.158   9.051  0.4470  0.3797  0.7536
  515MOL0     C69433   8.338   7.268   9.093 -0.3506  0.7240 -0.0913
  515MOL0     C69434   8.352   7.342   9.217 -0.0374  0.1888 -0.5120
  515MOL0    Cl69435   8.217   7.452   9.220  0.0108 -0.3161  0.4875
  515MOL0     C69436   8.558   6.368   9.063 -0.5388  0.2068  0.9571
  515MOL0     C69437   8.580   6.241   9.130  0.5784 -0.8158 -0.2706
  515MOL0     O69438   8.428   5.848   9.063 -0.4005 -0.1940  0.4946
  515MOL0     C69439   8.604   5.818   9.371 -0.8233  0.2764 -0.3287
  515MOL0     C69440   8.675   5.731   9.459 -0.7166  0.4803  0.4175
  515MOL0     N69441   9.329   5.549   9.748 -0.4491  0.2338 -0.1661
  515MOL0     N69442   9.451   5.574   9.788  0.6716 -0.1569 -0.9763
  515MOL0     C69443  10.386   5.319   9.152  0.3269  0.0331 -0.4694
  515MOL0     C69444  10.434   5.282   9.027 -0.1265 -0.0616 -1.4626
  515MOL0     C69445  10.459   5.297   8.541  0.1067 -0.2349 -0.0417
  515MOL0     C69446  10.480   5.158   8.534  0.1689  0.5137  0.2664
  515MOL0     C69447  10.491   5.101   8.409 -0.1274  0.7628  0.9314
  515MOL0     C69448  10.479   5.163   8.281  0.4439  0.5248 -0.5978
  515MOL0     O69449  10.483   5.082   8.166  0.1723  0.0265 -0.3507
  515MOL0     C69450  10.477   5.156   8.044 -0.1673 -0.1948 -0.1720
  515MOL0     C69451  10.603   5.246   8.018 -0.5443 -0.0072 -1.2061
  515MOL0     C69452  10.713   5.146   7.996 -0.5289  0.1531  0.3086
  515MOL0     C69453  10.849   5.207   7.996 -1.1665  0.7755 -0.0073
  515MOL0     C69454  10.949   5.104   7.992  0.2899  0.0147  0.0344
  515MOL0     C69455  11.005   4.999   7.989 -0.3754 -0.4523 -0.0330
  515MOL0     C69456  10.450   5.298   8.291 -1.2502 -0.9480 -0.0910
  515MOL0     C69457  10.445   5.368   8.420  0.3505 -0.0278 -0.5551
  515MOL0     H69458  10.292   5.526   8.837 -0.0652  0.1659  0.5162
  515MOL0     H69459  10.207   5.589   9.044 -2.8226 -2.4496  2.4333
  515MOL0     H69460  10.206   5.270   9.322 -1.5422  0.1623  0.2749
  515MOL0     H69461  10.307   5.359   9.433 -1.4543  0.8850  3.4717
  515MOL0     H69462  10.105   5.506   9.491 -1.9002  0.4774 -1.0322
  515MOL0     H69463  10.010   5.387   9.406  0.4979  2.0708  0.1825
  515MOL0     H69464  10.110   5.210   9.538  2.9378  0.2738 -0.2372
  515MOL0     H69465  10.195   5.344   9.640 -1.7756  1.0871  2.1465
  515MOL0     H69466   9.892   5.335   9.596  0.7027  2.6070 -0.5748
  515MOL0     H69467   9.952   5.244   9.733  0.0362 -0.4089 -1.9729
  515MOL0     H69468  10.067   5.467   9.814 -0.2614  0.1621  1.0489
  515MOL0     H69469   9.967   5.532   9.685  0.9353  0.3429  1.7568
  515MOL0     H69470   9.881   5.359   9.924 -1.1397  1.6741  3.0119
  515MOL0     H69471   9.880   5.539   9.905  0.0981  1.7934 -2.9332
  515MOL0     H69472   9.717   5.518   9.713  1.1528  0.0103 -0.7773
  515MOL0     H69473   9.723   5.350   9.730  1.3962  0.2025  0.0155
  515MOL0     H69474   9.648   5.523   9.989 -3.5509 -0.9361  0.9682
  515MOL0     H69475   9.627   5.355   9.960 -0.5902 -0.7917 -1.7463
  515MOL0     H69476   9.379   5.295   9.943  1.2902  1.1338 -0.2907
  515MOL0     H69477   9.133   5.305   9.718 -0.0106  0.2877 -0.8987
  515MOL0     H69478   9.099   5.346   9.885  2.0202 -2.2222  0.0137
  515MOL0     H69479   9.077   5.557   9.667 -0.2044 -0.5004 -0.5962
  515MOL0     H69480   8.990   5.537   9.822 -0.5146 -0.7214  0.4307
  515MOL0     H69481   8.883   5.328   9.702 -1.3394  1.2656  1.6155
  515MOL0     H69482   8.980   5.377   9.569  0.7957  0.5683  0.6734
  515MOL0     H69483   8.882   5.625   9.587 -0.6369  0.5685 -1.0791
  515MOL0     H69484   8.765   5.552   9.699 -0.0055 -0.3321 -0.1935
  515MOL0     H69485   8.600   5.430   9.310  1.2336 -0.3852  0.2625
  515MOL0     H69486   8.456   5.465   9.118  0.5371 -1.2677  0.2100
  515MOL0     H69487   8.376   5.619   9.087 -0.4110 -0.7602  0.2899
  515MOL0     H69488   8.548   5.599   9.027 -0.6593 -0.9126  0.5880
  515MOL0     H69489   8.428   6.022   8.902  0.8874 -0.6208  1.5215
  515MOL0     H69490   8.424   6.236   8.778  0.1095 -0.5204 -0.2425
  515MOL0     H69491   8.379   6.576   8.965 -0.9584 -0.9741 -0.5161
  515MOL0     H69492   8.559   6.619   8.976  1.5815 -0.1087 -1.5944
  515MOL0     H69493   8.570   6.730   8.776 -0.2197 -2.5874 -1.3509
  515MOL0     H69494   8.429   6.667   8.714  0.6811 -0.5470 -0.1325
  515MOL0     H69495   8.293   6.789   8.885  0.1783  0.4746  0.2738
  515MOL0     H69496   8.360   6.875   8.752 -0.1237  1.7901  0.9870
  515MOL0     H69497   8.444   6.871   9.049 -0.5726  0.5361 -0.0763
  515MOL0     H69498   8.560   6.926   8.922  0.4257 -3.3559 -0.3273
  515MOL0     H69499   8.277   7.040   8.984 -1.0554  1.4848 -2.9885
  515MOL0     H69500   8.377   7.096   8.854 -1.2509  0.3880  0.2169
  515MOL0     H69501   8.486   7.105   9.135 -1.4309 -1.2120  0.8482
  515MOL0     H69502   8.527   7.207   9.005 -0.7908  0.8291 -1.2173
  515MOL0     H69503   8.236   7.230   9.109 -0.9254  2.3711  0.3260
  515MOL0     H69504   8.329   7.341   9.011  0.1895  0.6758 -0.1933
  515MOL0     H69505   8.457   7.374   9.222  0.6407 -1.7503 -1.2508
  515MOL0     H69506   8.338   7.278   9.305  2.0818 -0.0617 -0.2901
  515MOL0     H69507   8.599   6.459   9.107  1.4756  0.5869 -1.5026
  515MOL0     H69508   8.636   6.244   9.223  1.3287  1.2342 -0.7290
  515MOL0     H69509   8.585   5.921   9.397 -0.8709  0.0191  0.6998
  515MOL0     H69510   8.738   5.772   9.537  1.2625  0.2678 -0.9920
  515MOL0     H69511  10.396   5.257   9.241 -1.3261 -2.1418 -1.6831
  515MOL0     H69512  10.485   5.186   9.035 -0.0498  0.1279  0.8983
  515MOL0     H69513  10.483   5.089   8.618 -0.2866 -2.9535 -2.3487
  515MOL0     H69514  10.512   4.995   8.398  0.2739  1.0133 -1.0191
  515MOL0     H69515  10.457   5.079   7.968  0.7884  0.5283 -1.1843
  515MOL0     H69516  10.387   5.217   8.056  0.7209  0.7303  2.5952
  515MOL0     H69517  10.626   5.316   8.099 -2.9049 -1.2280  0.6483
  515MOL0     H69518  10.581   5.299   7.925 -2.5476 -2.5511 -2.2853
  515MOL0     H69519  10.690   5.087   7.906  0.7259 -0.9000  0.6427
  515MOL0     H69520  10.703   5.081   8.084 -3.6052 -0.2114 -0.1828
  515MOL0     H69521  10.869   5.272   8.082  0.4042 -0.0570  0.3062
  515MOL0     H69522  10.863   5.267   7.905  1.1173 -1.8316 -1.5323
  515MOL0     H69523  11.048   4.901   7.988  0.4076 -0.3090  3.7933
  515MOL0     H69524  10.426   5.367   8.211  0.8224  0.9909  0.8509
  515MOL0     H69525  10.418   5.473   8.416 -0.8996 -0.0333  3.4971
  516MOL0     O69526   4.506   4.409   1.812  0.2052  0.3714 -0.0960
  516MOL0     C69527   4.475   4.523   1.772  0.0169  0.6126 -1.0338
  516MOL0     O69528   4.354   4.596   1.805 -0.4319  0.4324  0.1743
  516MOL0     C69529   4.260   4.532   1.890  0.3721  0.0367  1.0748
  516MOL0     C69530   4.134   4.494   1.854 -0.7369 -0.4475 -0.0273
  516MOL0     C69531   4.053   4.428   1.942 -0.1878 -0.1534  0.4841
  516MOL0     C69532   4.086   4.409   2.077 -0.2792  0.3322  0.6033
  516MOL0     O69533   4.020   4.338   2.172 -0.8985  0.5794  1.1788
  516MOL0     C69534   3.888   4.295   2.134  0.0568  0.1301 -0.5333
  516MOL0     C69535   3.826   4.223   2.256 -0.0793 -0.0677  0.0569
  516MOL0     C69536   3.826   4.301   2.390 -0.1947 -0.0364 -0.1979
  516MOL0     C69537   3.772   4.221   2.519 -0.2908 -0.6732 -0.6264
  516MOL0     C69538   3.873   4.112   2.565 -0.4832  0.0963 -0.3555
  516MOL0     C69539   3.878   4.086   2.716 -0.1903 -0.2487  0.5711
  516MOL0     C69540   4.010   4.010   2.754  0.1249  0.7327  0.5188
  516MOL0     C69541   4.049   3.980   2.901  1.2891  1.0575  0.7457
  516MOL0     N69542   3.912   3.953   2.966 -0.5948 -0.0304 -0.0123
  516MOL0     C69543   3.845   3.830   2.965 -0.8240 -0.5330  0.3589
  516MOL0     C69544   3.730   3.855   3.017  0.2693 -1.0417 -0.1574
  516MOL0     C69545   3.619   3.761   3.043 -0.0838  0.5540  0.7753
  516MOL0     C69546   3.675   3.621   3.093 -0.1774 -0.1286 -0.4845
  516MOL0     C69547   3.557   3.543   3.141 -0.2881 -0.4161 -0.7538
  516MOL0     C69548   3.599   3.397   3.182  0.4518 -0.4857  0.9797
  516MOL0     O69549   3.672   3.395   3.297 -0.9354 -0.0010  0.0084
  516MOL0     C69550   3.768   3.294   3.305 -1.0014 -0.4826  1.4685
  516MOL0     C69551   3.737   3.158   3.312 -0.8038  0.1867  0.1503
  516MOL0     C69552   3.836   3.068   3.331 -0.5016  1.1116  0.8062
  516MOL0     C69553   3.779   2.922   3.347 -0.0276 -0.5569 -0.2494
  516MOL0     C69554   3.967   3.102   3.339  0.7054  0.1214  0.3347
  516MOL0     C69555   4.068   2.997   3.385  0.3182 -0.0531  0.5254
  516MOL0     O69556   4.143   3.032   3.489  0.1769  0.3304  0.3099
  516MOL0     C69557   4.220   2.929   3.540 -0.3176  0.1280 -0.3207
  516MOL0     C69558   4.345   2.908   3.486  0.1372 -0.0162  0.0841
  516MOL0     C69559   4.427   2.811   3.543 -0.0624  0.2129 -0.4708
  516MOL0     C69560   4.373   2.722   3.646 -0.7099  0.7261  0.9531
  516MOL0     O69561   4.466   2.643   3.701 -0.2540 -0.0697 -0.8381
  516MOL0     C69562   4.430   2.507   3.728  1.0504  0.0777 -0.4019
  516MOL0     C69563   4.509   2.453   3.848  0.5227 -0.0241 -0.2376
  516MOL0     C69564   4.490   2.299   3.843  0.0469  0.4911 -1.2256
  516MOL0     C69565   4.552   2.232   3.966 -0.7426 -0.3592 -1.0330
  516MOL0     C69566   4.548   2.076   3.944 -0.6396 -0.2731 -0.8256
  516MOL0     C69567   4.631   2.005   4.061  1.0281  0.5613  0.0719
  516MOL0     C69568   4.665   1.858   4.016 -0.6608 -0.3760 -0.2626
  516MOL0     C69569   4.741   1.782   4.131 -0.0399 -0.2363 -0.0228
  516MOL0    Cl69570   4.638   1.778   4.282  0.4069  0.2127  0.3891
  516MOL0     C69571   4.246   2.747   3.696  0.3144 -0.8205  0.2973
  516MOL0     C69572   4.168   2.852   3.645  0.5814  0.5050  0.1994
  516MOL0     O69573   4.064   2.890   3.332  0.2717  0.9816  0.0163
  516MOL0     C69574   3.998   3.236   3.324  0.8395 -1.2370 -0.2270
  516MOL0     C69575   3.901   3.336   3.316  0.0985  0.3275 -0.1672
  516MOL0     N69576   3.713   3.987   3.023  0.2634  0.3918 -0.1016
  516MOL0     N69577   3.826   4.049   3.004  0.0008  0.0408  0.0789
  516MOL0     C69578   4.211   4.454   2.118 -0.2195 -1.0212  0.1113
  516MOL0     C69579   4.296   4.511   2.030  0.2811  0.6283 -0.5506
  516MOL0     C69580   4.573   4.591   1.694 -0.0120  0.4688 -0.0802
  516MOL0     C69581   4.655   4.509   1.608  0.0212 -0.0883  0.1947
  516MOL0     C69582   4.740   4.565   1.520 -0.4224  0.6086  0.0362
  516MOL0     C69583   4.743   4.699   1.501  0.2074 -0.4600 -0.5780
  516MOL0     O69584   4.811   4.752   1.396 -0.0423 -0.4836 -0.4169
  516MOL0     C69585   4.729   4.771   1.286 -0.1404  0.4451  0.3330
  516MOL0     C69586   4.820   4.824   1.172  0.5869  0.2459 -0.5941
  516MOL0     C69587   4.869   4.969   1.201 -0.8556  0.3904  0.2795
  516MOL0     C69588   4.994   5.015   1.119 -0.5195 -0.1023  0.7658
  516MOL0     C69589   5.031   5.150   1.174  0.9371  0.9902  0.6149
  516MOL0     C69590   5.075   5.250   1.218  0.9371  0.1890 -1.2060
  516MOL0     C69591   4.654   4.784   1.576 -0.2060  0.1685 -0.4836
  516MOL0     C69592   4.567   4.728   1.676 -0.6398  0.1011  1.4462
  516MOL0     H69593   4.108   4.512   1.751  0.4661 -1.0232 -0.4432
  516MOL0     H69594   3.960   4.388   1.903 -0.8088  0.2173  1.5268
  516MOL0     H69595   3.824   4.381   2.110 -2.5427 -1.6444 -0.3606
  516MOL0     H69596   3.891   4.232   2.044 -0.4827  2.3825 -2.2470
  516MOL0     H69597   3.724   4.201   2.222  0.2588  0.7101 -1.5905
  516MOL0     H69598   3.884   4.131   2.269  1.8112  1.0653  0.0569
  516MOL0     H69599   3.933   4.321   2.407  0.1697 -1.8778 -0.1596
  516MOL0     H69600   3.772   4.394   2.372 -0.8454 -0.2775  0.4450
  516MOL0     H69601   3.746   4.286   2.603  1.6840  1.6975 -1.6924
  516MOL0     H69602   3.679   4.172   2.491  0.9549 -4.9094  1.7544
  516MOL0     H69603   3.846   4.021   2.511  1.7280 -0.0619 -1.2717
  516MOL0     H69604   3.973   4.132   2.526 -1.3830 -1.5428 -3.9028
  516MOL0     H69605   3.868   4.177   2.775  3.4803  2.5212 -2.5877
  516MOL0     H69606   3.794   4.020   2.741 -1.0507 -0.1468 -1.7736
  516MOL0     H69607   4.007   3.913   2.703 -0.0708  0.2219  1.4616
  516MOL0     H69608   4.100   4.058   2.717  0.0159 -0.2765 -1.1532
  516MOL0     H69609   4.101   4.065   2.946  2.7976  0.3134  0.4718
  516MOL0     H69610   4.111   3.890   2.892 -1.0962 -0.5572 -0.6529
  516MOL0     H69611   3.890   3.734   2.943  2.4174  0.7586  0.7701
  516MOL0     H69612   3.543   3.802   3.110  0.0646 -0.8254  1.8168
  516MOL0     H69613   3.584   3.735   2.943  2.9248 -2.0041  0.2402
  516MOL0     H69614   3.753   3.641   3.167 -2.6235  0.8112  2.0328
  516MOL0     H69615   3.723   3.557   3.019  2.2240 -0.4210  1.1895
  516MOL0     H69616   3.483   3.533   3.060  0.1305 -4.6101 -0.8401
  516MOL0     H69617   3.515   3.596   3.226  2.7161  2.2101 -0.7518
  516MOL0     H69618   3.654   3.347   3.101  0.1455 -1.7286  1.5163
  516MOL0     H69619   3.508   3.340   3.203  0.0977 -1.2592 -2.1601
  516MOL0     H69620   3.635   3.130   3.286  0.0864 -3.4138  0.0589
  516MOL0     H69621   3.837   2.859   3.413 -0.1145 -0.6028 -0.2170
  516MOL0     H69622   3.679   2.905   3.387  0.6118 -1.9822  0.7976
  516MOL0     H69623   3.803   2.870   3.253 -1.4619 -1.0168 -0.3910
  516MOL0     H69624   4.383   2.969   3.405 -1.2907  1.6089  0.5630
  516MOL0     H69625   4.534   2.803   3.529 -0.0485 -0.5925  0.0343
  516MOL0     H69626   4.323   2.502   3.746  0.7996  4.2086  0.3729
  516MOL0     H69627   4.462   2.448   3.641 -2.9576  1.7151 -3.3094
  516MOL0     H69628   4.615   2.477   3.837  0.1152  1.5189 -1.0665
  516MOL0     H69629   4.470   2.498   3.939 -0.1543 -3.2045  1.1784
  516MOL0     H69630   4.545   2.259   3.757  0.2958  0.3982 -1.0230
  516MOL0     H69631   4.383   2.277   3.837 -0.2063  0.5866  1.6514
  516MOL0     H69632   4.654   2.269   3.978 -1.3245  1.8339 -2.3460
  516MOL0     H69633   4.489   2.246   4.054  0.5171  1.8713 -0.4169
  516MOL0     H69634   4.596   2.044   3.852  0.4775  1.0195 -0.7146
  516MOL0     H69635   4.443   2.045   3.932 -0.2839 -1.7104 -0.3751
  516MOL0     H69636   4.715   2.070   4.087  0.2210  2.7604 -2.2704
  516MOL0     H69637   4.572   2.001   4.153 -0.0441  0.3843 -0.6055
  516MOL0     H69638   4.733   1.873   3.932  3.9271  0.4519  3.2080
  516MOL0     H69639   4.570   1.807   3.995 -1.0141  0.7733 -1.6801
  516MOL0     H69640   4.831   1.844   4.142 -0.6212  0.9102 -1.4107
  516MOL0     H69641   4.775   1.682   4.103  2.5818 -0.1225  2.3420
  516MOL0     H69642   4.225   2.707   3.795  0.7627  1.0608  1.2010
  516MOL0     H69643   4.073   2.864   3.695  0.9608  0.3104  0.9900
  516MOL0     H69644   4.103   3.260   3.337  0.5863  0.0585 -0.4474
  516MOL0     H69645   3.930   3.441   3.320  1.2187  0.0348 -0.0357
  516MOL0     H69646   4.237   4.454   2.224  0.3903  1.8524  0.0449
  516MOL0     H69647   4.393   4.551   2.060  0.6209 -1.2356  1.0332
  516MOL0     H69648   4.654   4.402   1.625 -0.6527 -0.1365 -0.1192
  516MOL0     H69649   4.792   4.493   1.457 -2.4701 -0.2805 -0.7029
  516MOL0     H69650   4.681   4.676   1.261 -1.2280  1.1305 -0.3179
  516MOL0     H69651   4.649   4.841   1.314  0.8946  0.0770  4.9956
  516MOL0     H69652   4.761   4.825   1.081 -0.7156  2.3198  0.2107
  516MOL0     H69653   4.902   4.751   1.167  0.8829  0.2372  2.2546
  516MOL0     H69654   4.888   4.982   1.308 -0.2665  1.2075  0.0836
  516MOL0     H69655   4.785   5.033   1.172 -0.7539  0.7500  0.7680
  516MOL0     H69656   4.972   5.028   1.013 -0.8332 -0.1387  0.8253
  516MOL0     H69657   5.074   4.942   1.137  0.2904 -0.5498 -3.6606
  516MOL0     H69658   5.128   5.340   1.239 -0.2048  1.0851 -2.0389
  516MOL0     H69659   4.652   4.891   1.557  0.5658  0.9154  2.9329
  516MOL0     H69660   4.496   4.783   1.738  1.6506  2.8227  1.8605
  517MOL0     O69661   3.685   1.732   0.739 -0.2656  0.2783 -0.1876
  517MOL0     C69662   3.761   1.679   0.664 -0.0658 -0.1939 -0.5154
  517MOL0     O69663   3.722   1.601   0.563 -0.5227  1.1392 -0.1242
  517MOL0     C69664   3.596   1.545   0.556 -0.3165 -0.6653  0.3515
  517MOL0     C69665   3.501   1.616   0.477 -1.2544 -0.0574 -0.6849
  517MOL0     C69666   3.372   1.562   0.465  0.4254  0.0831 -0.7120
  517MOL0     C69667   3.344   1.431   0.516  0.3944  0.4056 -0.4934
  517MOL0     O69668   3.219   1.365   0.508  0.9375  0.2738  0.1402
  517MOL0     C69669   3.126   1.432   0.424  1.2399  0.3835 -0.3461
  517MOL0     C69670   2.999   1.349   0.412 -0.9519  0.9473  0.9478
  517MOL0     C69671   2.879   1.442   0.370 -0.3311 -0.8902 -0.0732
  517MOL0     C69672   2.752   1.362   0.349  0.0345  0.7428 -0.3276
  517MOL0     C69673   2.634   1.446   0.304  1.6735  0.0250  0.6530
  517MOL0     C69674   2.497   1.397   0.359  0.4343  0.4440 -0.0246
  517MOL0     C69675   2.370   1.431   0.279 -0.0562 -0.7810 -0.1292
  517MOL0     C69676   2.241   1.379   0.341  0.1959 -0.2249 -0.7057
  517MOL0     N69677   2.206   1.433   0.470 -0.0861 -0.9686 -0.5106
  517MOL0     C69678   2.128   1.376   0.563 -0.2809  0.1224  1.1427
  517MOL0     C69679   2.087   1.474   0.644 -0.2119  0.4884 -0.2181
  517MOL0     C69680   1.984   1.462   0.753  0.1479  0.0297 -0.3599
  517MOL0     C69681   2.015   1.575   0.865 -1.0416  0.2014  0.0606
  517MOL0     C69682   1.928   1.566   0.990  0.8561  0.4839  0.4391
  517MOL0     C69683   1.942   1.682   1.088  0.3907  0.2834  0.5028
  517MOL0     O69684   1.843   1.673   1.195 -0.2968 -0.5719  0.0747
  517MOL0     C69685   1.861   1.569   1.292  0.1354  0.2439  0.4389
  517MOL0     C69686   1.975   1.487   1.311  0.4445  0.5136  0.5564
  517MOL0     C69687   1.981   1.377   1.397  0.1748 -0.3687 -0.2745
  517MOL0     C69688   2.103   1.293   1.383  0.5600  0.3954  0.2596
  517MOL0     C69689   1.869   1.348   1.472  0.0333 -0.0593 -0.1782
  517MOL0     C69690   1.863   1.258   1.590 -0.0402 -0.8285 -0.8557
  517MOL0     O69691   1.972   1.195   1.629 -0.3424  0.0128  0.1728
  517MOL0     C69692   1.955   1.103   1.730 -1.0742 -0.2070 -0.0371
  517MOL0     C69693   1.855   0.994   1.724 -0.4684  0.1752  0.0598
  517MOL0     C69694   1.856   0.899   1.829  0.5297  0.2063  0.5360
  517MOL0     C69695   1.948   0.891   1.931 -0.1566  0.4528 -0.5650
  517MOL0     O69696   1.946   0.783   2.022  0.2258  0.1908 -0.2721
  517MOL0     C69697   2.021   0.780   2.150  1.0296 -0.2646  0.0433
  517MOL0     C69698   1.955   0.679   2.239  0.4102 -0.0961  0.1173
  517MOL0     C69699   2.003   0.544   2.186  0.2831 -0.0460  0.4025
  517MOL0     C69700   2.140   0.508   2.215 -0.5407  0.1796 -0.4601
  517MOL0     C69701   2.164   0.367   2.179  0.5957  0.6468 -0.6864
  517MOL0     C69702   2.297   0.321   2.241 -0.1599 -0.0203 -0.9778
  517MOL0     C69703   2.303   0.259   2.393  0.2796 -0.3814  0.3802
  517MOL0     C69704   2.433   0.183   2.417  1.2870  0.2642  0.9246
  517MOL0    Cl69705   2.434   0.032   2.319 -0.1731 -0.0273  0.5061
  517MOL0     C69706   2.027   0.999   1.943 -0.6332 -0.1430 -0.1128
  517MOL0     C69707   2.043   1.105   1.846 -0.3642 -0.4595 -0.1413
  517MOL0     O69708   1.750   1.246   1.649 -0.4043 -0.3132 -0.8312
  517MOL0     C69709   1.751   1.418   1.451 -0.6771  0.0938  0.3868
  517MOL0     C69710   1.749   1.533   1.368 -0.4681  0.6967 -0.0560
  517MOL0     N69711   2.130   1.596   0.593  0.0910  0.0799  0.0318
  517MOL0     N69712   2.213   1.568   0.499 -0.1547 -0.4863 -0.0939
  517MOL0     C69713   3.442   1.362   0.585  0.3719  0.7270  0.9428
  517MOL0     C69714   3.567   1.425   0.613 -0.7029  0.0849  0.5505
  517MOL0     C69715   3.906   1.713   0.678  0.6387 -0.0241 -0.0565
  517MOL0     C69716   3.988   1.656   0.578  0.7046 -0.6342  0.0838
  517MOL0     C69717   4.128   1.680   0.585  0.0511  0.0959  0.0062
  517MOL0     C69718   4.189   1.760   0.689  1.9928  0.3215  0.5279
  517MOL0     O69719   4.322   1.792   0.692 -0.3972  0.3181 -0.0440
  517MOL0     C69720   4.419   1.761   0.590  0.6274 -0.2429  0.2878
  517MOL0     C69721   4.478   1.620   0.611  0.6056  0.1876  0.2119
  517MOL0     C69722   4.601   1.587   0.522 -0.8003 -0.1259  1.3343
  517MOL0     C69723   4.730   1.665   0.562  0.5232 -0.9079  0.2687
  517MOL0     C69724   4.839   1.618   0.483 -0.1885  0.6708 -0.2938
  517MOL0     C69725   4.933   1.577   0.420 -1.5264  0.2795 -0.0701
  517MOL0     C69726   4.093   1.821   0.776  0.3676 -0.7037  0.2838
  517MOL0     C69727   3.955   1.802   0.771 -0.3462  0.7657 -0.0429
  517MOL0     H69728   3.530   1.701   0.417 -0.0701  0.6636  0.8503
  517MOL0     H69729   3.296   1.622   0.416 -1.6634 -4.3400 -3.5088
  517MOL0     H69730   3.096   1.530   0.462  0.5771 -0.3261  1.0129
  517MOL0     H69731   3.170   1.455   0.326 -3.4083  0.7729 -2.6348
  517MOL0     H69732   3.001   1.264   0.342 -0.3099 -1.3844  3.6287
  517MOL0     H69733   2.969   1.301   0.505 -2.8066  0.6389  0.2393
  517MOL0     H69734   2.844   1.507   0.451  0.6413 -2.1784  1.4649
  517MOL0     H69735   2.906   1.502   0.284 -0.9952 -0.0300  0.3069
  517MOL0     H69736   2.769   1.297   0.263  2.8186  0.1215  0.6013
  517MOL0     H69737   2.734   1.299   0.437 -4.5465 -1.0107 -2.2346
  517MOL0     H69738   2.649   1.543   0.352 -2.0201 -0.3422  2.8766
  517MOL0     H69739   2.628   1.458   0.196  1.2597  2.4117  0.8944
  517MOL0     H69740   2.510   1.289   0.349  2.1607  0.6215  0.0032
  517MOL0     H69741   2.479   1.406   0.466 -1.8853 -2.5139 -0.0206
  517MOL0     H69742   2.356   1.540   0.278 -2.5801 -0.8783  3.2211
  517MOL0     H69743   2.383   1.386   0.180  1.0999  2.2008 -1.4463
  517MOL0     H69744   2.249   1.270   0.351  1.2948 -0.2823 -1.8466
  517MOL0     H69745   2.166   1.408   0.266 -0.9548 -1.3815 -0.0415
  517MOL0     H69746   2.098   1.272   0.552 -1.5755  0.6574 -0.9355
  517MOL0     H69747   1.887   1.488   0.708 -1.1810 -1.7053  1.3192
  517MOL0     H69748   1.979   1.367   0.807 -1.1172  1.0721  1.4898
  517MOL0     H69749   2.014   1.675   0.821 -0.5031  0.0721 -0.2570
  517MOL0     H69750   2.120   1.564   0.894 -0.4614  0.1465 -1.9403
  517MOL0     H69751   1.948   1.469   1.035  2.8643 -1.0494 -3.2715
  517MOL0     H69752   1.835   1.576   0.934  0.1900 -0.1584  1.4208
  517MOL0     H69753   1.938   1.781   1.041 -2.2582  0.5290  1.1157
  517MOL0     H69754   2.042   1.676   1.132  0.0494 -0.0508  1.2489
  517MOL0     H69755   2.064   1.490   1.249  0.4032 -2.2756  0.2004
  517MOL0     H69756   2.186   1.336   1.439 -0.6072  1.5603  1.1305
  517MOL0     H69757   2.075   1.199   1.432 -4.1209  2.4100  1.9578
  517MOL0     H69758   2.138   1.268   1.282 -1.3819 -1.6428  0.0120
  517MOL0     H69759   1.764   1.006   1.667 -1.0507  1.1237  1.1407
  517MOL0     H69760   1.786   0.817   1.817  1.1662 -0.3509  0.6190
  517MOL0     H69761   2.128   0.762   2.137  1.2295  1.2222 -0.5135
  517MOL0     H69762   2.016   0.876   2.203 -2.7568  0.4803 -1.3735
  517MOL0     H69763   1.986   0.692   2.343 -1.1705  0.8300  0.5045
  517MOL0     H69764   1.846   0.692   2.237  0.3128  0.3718  3.1675
  517MOL0     H69765   1.990   0.537   2.078  0.0224  1.4921  0.3103
  517MOL0     H69766   1.932   0.472   2.229  1.8205 -1.1365  1.1948
  517MOL0     H69767   2.209   0.572   2.158 -1.1531  2.9832  1.7456
  517MOL0     H69768   2.170   0.521   2.319  2.8791  0.3165 -1.3348
  517MOL0     H69769   2.176   0.366   2.070 -0.5993  3.8653 -0.9713
  517MOL0     H69770   2.087   0.305   2.225 -2.1843  2.9950 -1.8075
  517MOL0     H69771   2.333   0.235   2.184  0.7223 -1.3645  1.4423
  517MOL0     H69772   2.379   0.393   2.232  0.3175  0.1871  3.0209
  517MOL0     H69773   2.231   0.177   2.406 -0.4565 -0.5289 -3.3942
  517MOL0     H69774   2.275   0.339   2.463 -0.7661 -2.8030  2.9086
  517MOL0     H69775   2.425   0.156   2.523 -2.2238  0.1137  0.7344
  517MOL0     H69776   2.515   0.248   2.386 -0.0498  0.5271 -2.5873
  517MOL0     H69777   2.081   1.016   2.036  0.6885  1.7618 -1.1587
  517MOL0     H69778   2.103   1.194   1.859 -0.7652 -0.2981  0.7279
  517MOL0     H69779   1.662   1.391   1.507 -0.1240 -0.6814  0.9023
  517MOL0     H69780   1.650   1.576   1.357 -0.5966  0.5991  0.6577
  517MOL0     H69781   3.424   1.267   0.635  0.2901  0.2588  0.0485
  517MOL0     H69782   3.641   1.367   0.666  0.9198  1.7456  0.2072
  517MOL0     H69783   3.957   1.594   0.495 -1.7682 -0.1160  0.5319
  517MOL0     H69784   4.183   1.626   0.509 -0.3740  0.5753 -0.6604
  517MOL0     H69785   4.377   1.760   0.490  0.1105 -0.7012  0.5055
  517MOL0     H69786   4.500   1.835   0.594  0.6926 -0.3323  0.7120
  517MOL0     H69787   4.398   1.548   0.590 -0.2418  0.9924  0.5905
  517MOL0     H69788   4.500   1.619   0.718  1.3453  1.3010  0.0858
  517MOL0     H69789   4.583   1.612   0.417  0.2285 -2.3147  0.5895
  517MOL0     H69790   4.633   1.483   0.525  1.2117  0.4631  1.7135
  517MOL0     H69791   4.762   1.648   0.665  0.9932  1.3828  0.5542
  517MOL0     H69792   4.718   1.773   0.548  2.5987 -0.7094 -0.3739
  517MOL0     H69793   5.010   1.551   0.349 -2.3919  0.2047 -0.9995
  517MOL0     H69794   4.126   1.894   0.849 -1.1864 -0.0361  0.3499
  517MOL0     H69795   3.895   1.849   0.849 -0.9028 -0.1343  0.0938
  518MOL0     O69796   5.088   8.402  11.356  0.3318 -0.7738  0.2200
  518MOL0     C69797   5.059   8.322  11.269  0.0871  0.9376 -0.7848
  518MOL0     O69798   5.052   8.184  11.280 -0.9136  0.4754  0.0664
  518MOL0     C69799   5.065   8.137  11.405 -0.1581  0.0026 -0.1579
  518MOL0     C69800   4.963   8.055  11.451  0.0011  0.1938  0.1398
  518MOL0     C69801   4.969   7.990  11.575 -0.2326 -0.3981  0.8195
  518MOL0     C69802   5.082   8.012  11.659 -0.2465 -0.4486 -0.4990
  518MOL0     O69803   5.099   7.943  11.774  1.0608  0.2909 -0.8581
  518MOL0     C69804   5.144   7.809  11.747  0.8115 -0.1563 -0.1440
  518MOL0     C69805   5.162   7.738  11.890 -0.1244 -0.1807  0.1074
  518MOL0     C69806   5.188   7.592  11.874 -0.6823  0.1365 -0.4375
  518MOL0     C69807   5.320   7.547  11.825  0.5532 -1.3656  0.2024
  518MOL0     C69808   5.336   7.394  11.824  0.3916 -0.0259 -0.4802
  518MOL0     C69809   5.403   7.342  11.700 -0.3107 -0.4210 -0.0667
  518MOL0     C69810   5.452   7.193  11.694  0.2467 -0.0916 -1.1392
  518MOL0     C69811   5.570   7.159  11.782  0.0019 -0.0630  0.3322
  518MOL0     N69812   5.668   7.075  11.708 -0.9408  0.1993 -0.1866
  518MOL0     C69813   5.741   7.115  11.596  0.1468 -0.0510 -0.3428
  518MOL0     C69814   5.763   6.991  11.549 -1.4056  0.0709  0.0192
  518MOL0     C69815   5.849   6.958  11.435 -0.8614  0.5631  0.1652
  518MOL0     C69816   5.948   6.847  11.458 -0.0809 -0.8161  0.6192
  518MOL0     C69817   6.072   6.874  11.550  0.1648 -0.3405  0.4688
  518MOL0     C69818   6.075   6.748  11.635 -0.5062 -1.2095  0.0663
  518MOL0     O69819   6.196   6.747  11.713 -0.7733 -0.1572 -0.0998
  518MOL0     C69820   6.312   6.713  11.662  1.0150  0.2854 -0.1661
  518MOL0     C69821   6.342   6.687  11.530  1.0609 -0.1342 -1.1173
  518MOL0     C69822   6.472   6.652  11.494 -1.0938  0.0473 -0.1384
  518MOL0     C69823   6.496   6.625  11.351 -0.0646 -0.3595  0.4232
  518MOL0     C69824   6.581   6.646  11.588 -0.4692 -0.2818  0.1016
  518MOL0     C69825   6.726   6.616  11.556  0.9975  0.1389 -0.3994
  518MOL0     O69826   6.813   6.650  11.651 -0.9058  1.3724  1.1013
  518MOL0     C69827   6.950   6.629  11.624 -0.0694  0.1422  0.2308
  518MOL0     C69828   7.017   6.506  11.662  0.1790  0.4716  0.4568
  518MOL0     C69829   7.155   6.495  11.635  0.9944 -0.4197  0.1811
  518MOL0     C69830   7.221   6.597  11.561 -0.5794 -0.2804 -0.0112
  518MOL0     O69831   7.351   6.563  11.532  0.0304 -0.6203 -0.5037
  518MOL0     C69832   7.405   6.602  11.415 -0.2116 -0.0362 -0.4626
  518MOL0     C69833   7.344   6.524  11.296  0.2259 -0.1304  0.0649
  518MOL0     C69834   7.335   6.376  11.311  0.1081  0.2752  0.1650
  518MOL0     C69835   7.197   6.321  11.260  0.2132 -1.1805  0.0018
  518MOL0     C69836   7.187   6.171  11.275  0.2250  0.2637 -0.0457
  518MOL0     C69837   7.063   6.094  11.226 -0.3278  0.0236 -0.6321
  518MOL0     C69838   7.048   6.094  11.075  0.0799 -0.4442 -0.6889
  518MOL0     C69839   6.926   6.003  11.036 -0.1219  0.8364 -0.1648
  518MOL0    Cl69840   6.884   6.073  10.881  0.1545 -0.1845  0.0311
  518MOL0     C69841   7.164   6.716  11.539 -0.0702  0.1839  0.5251
  518MOL0     C69842   7.026   6.733  11.558 -0.1023  0.4482 -0.1741
  518MOL0     O69843   6.755   6.579  11.442 -0.2342  0.1490 -0.9534
  518MOL0     C69844   6.544   6.678  11.724  0.6883  0.7389 -1.1039
  518MOL0     C69845   6.415   6.706  11.754  1.2181 -0.3363 -0.0486
  518MOL0     N69846   5.713   6.888  11.625 -0.3720 -0.8940  0.4801
  518MOL0     N69847   5.664   6.940  11.733  0.3691  0.0609 -0.2964
  518MOL0     C69848   5.191   8.094  11.610 -0.1857  0.3209  0.1196
  518MOL0     C69849   5.188   8.141  11.477 -0.5676  0.3019  0.1013
  518MOL0     C69850   5.017   8.377  11.139  0.3514  0.0807 -0.5549
  518MOL0     C69851   4.980   8.509  11.123  0.9533 -0.2639  0.1163
  518MOL0     C69852   4.949   8.551  10.997  0.3537  0.1553 -0.2450
  518MOL0     C69853   4.960   8.476  10.880  0.0189 -0.3104  0.1067
  518MOL0     O69854   4.947   8.546  10.761  0.1832 -0.2199 -0.3580
  518MOL0     C69855   4.886   8.491  10.643  0.3410  0.3554 -1.5795
  518MOL0     C69856   4.731   8.488  10.652 -0.1863 -0.3692  0.8639
  518MOL0     C69857   4.682   8.422  10.520  0.6348  0.1950  0.5301
  518MOL0     C69858   4.528   8.395  10.522 -1.1369 -0.9842 -0.0830
  518MOL0     C69859   4.482   8.338  10.647  0.5725  1.1915 -0.0268
  518MOL0     C69860   4.425   8.285  10.740  0.6414  0.5638 -0.1611
  518MOL0     C69861   5.008   8.341  10.899 -0.8512  0.6271 -0.6345
  518MOL0     C69862   5.018   8.290  11.034  0.0982  0.0488  0.2861
  518MOL0     H69863   4.875   8.042  11.389 -1.8975 -1.0959  2.9123
  518MOL0     H69864   4.885   7.937  11.617 -2.5348  2.1513 -0.2665
  518MOL0     H69865   5.072   7.753  11.687 -0.6428  0.2700  1.1511
  518MOL0     H69866   5.244   7.813  11.703  0.9581 -0.8979  0.1044
  518MOL0     H69867   5.252   7.779  11.936 -0.1535 -2.3650  2.2989
  518MOL0     H69868   5.076   7.748  11.956  0.1359 -1.6495  0.7065
  518MOL0     H69869   5.168   7.560  11.976 -2.2703 -2.0441 -1.3446
  518MOL0     H69870   5.107   7.544  11.818 -0.3269 -2.8062  1.3666
  518MOL0     H69871   5.305   7.583  11.723  1.2578  0.3240  0.6646
  518MOL0     H69872   5.393   7.613  11.872 -1.4779  2.8769 -2.0216
  518MOL0     H69873   5.379   7.359  11.919 -0.8527 -3.9494 -1.1751
  518MOL0     H69874   5.240   7.343  11.813  1.8954 -3.0832 -0.6089
  518MOL0     H69875   5.338   7.377  11.620  2.7346  2.1553 -1.6319
  518MOL0     H69876   5.486   7.411  11.683  1.6927 -2.9021 -1.0053
  518MOL0     H69877   5.375   7.123  11.729  0.8639 -1.4477 -2.4090
  518MOL0     H69878   5.469   7.182  11.587  1.5842  2.7524 -1.3265
  518MOL0     H69879   5.539   7.095  11.865 -2.9466  2.0903  1.0440
  518MOL0     H69880   5.619   7.248  11.824  1.4620  0.1384 -1.6185
  518MOL0     H69881   5.749   7.217  11.560  0.0098 -0.0334 -0.3241
  518MOL0     H69882   5.784   6.931  11.352 -1.7922  0.2217  0.9830
  518MOL0     H69883   5.887   7.053  11.395 -1.5640  1.1928  0.9500
  518MOL0     H69884   6.002   6.832  11.364  0.4047  0.9303  0.5842
  518MOL0     H69885   5.888   6.758  11.480 -0.4272 -0.2183  2.2105
  518MOL0     H69886   6.059   6.954  11.623 -1.5308 -0.9558  0.8837
  518MOL0     H69887   6.157   6.892  11.484 -1.3138 -0.8085 -1.6752
  518MOL0     H69888   6.073   6.657  11.575 -3.3134 -1.9656  1.1192
  518MOL0     H69889   5.989   6.751  11.703 -1.0256 -0.1621 -0.6152
  518MOL0     H69890   6.266   6.679  11.453 -1.6035 -0.2649  1.3566
  518MOL0     H69891   6.528   6.522  11.338  1.9385  0.1426  0.9793
  518MOL0     H69892   6.421   6.654  11.276  2.2842  1.7906 -1.3027
  518MOL0     H69893   6.583   6.679  11.312  2.1820 -2.4543  2.1853
  518MOL0     H69894   6.976   6.421  11.715 -2.5877  1.7735  0.6011
  518MOL0     H69895   7.205   6.400  11.649  0.0637 -1.3276 -2.0594
  518MOL0     H69896   7.394   6.707  11.385  1.2302 -0.0574 -1.1744
  518MOL0     H69897   7.511   6.575  11.411  0.0604  0.1888  2.5245
  518MOL0     H69898   7.245   6.570  11.299  0.5814  0.5909  1.3416
  518MOL0     H69899   7.398   6.545  11.202 -0.3272  2.4838  0.2446
  518MOL0     H69900   7.338   6.360  11.419  0.2438  1.1162  0.2936
  518MOL0     H69901   7.418   6.327  11.260  2.4428  2.5737  1.5370
  518MOL0     H69902   7.128   6.368  11.332  1.5034  5.1652 -2.2561
  518MOL0     H69903   7.182   6.362  11.160  2.0795  0.4190  0.3143
  518MOL0     H69904   7.196   6.138  11.379 -0.9799  1.4441  0.4716
  518MOL0     H69905   7.271   6.132  11.216 -0.1352 -0.2860 -0.2038
  518MOL0     H69906   7.083   5.993  11.262 -1.4173  1.7162  6.2988
  518MOL0     H69907   6.973   6.131  11.276 -1.3170 -3.7564  0.7349
  518MOL0     H69908   7.139   6.063  11.022  0.0758  0.6732 -1.3773
  518MOL0     H69909   7.019   6.197  11.053 -1.4611  0.2084  3.4553
  518MOL0     H69910   6.845   6.024  11.106  0.9136  1.5908  0.8550
  518MOL0     H69911   6.937   5.894  11.043 -1.7992  0.6025 -0.8688
  518MOL0     H69912   7.208   6.792  11.475  1.9044 -0.4170  1.0830
  518MOL0     H69913   6.971   6.820  11.524  0.2885  0.0847 -1.8585
  518MOL0     H69914   6.609   6.678  11.811 -0.2282  3.7004 -0.3250
  518MOL0     H69915   6.401   6.734  11.858 -0.1648  1.7252 -0.7391
  518MOL0     H69916   5.276   8.101  11.678 -1.6043 -1.1284  2.1580
  518MOL0     H69917   5.266   8.201  11.431  0.1513 -0.8715 -0.2576
  518MOL0     H69918   4.968   8.575  11.207 -2.2526  0.0560 -0.4946
  518MOL0     H69919   4.909   8.649  10.972  1.3281  0.8190  0.7277
  518MOL0     H69920   4.916   8.550  10.555 -3.2866  1.3628 -2.3476
  518MOL0     H69921   4.922   8.390  10.621 -0.5473 -0.0955 -1.0245
  518MOL0     H69922   4.692   8.588  10.670  1.7942  0.4707  0.6792
  518MOL0     H69923   4.702   8.431  10.741 -0.7293 -0.9808  0.3175
  518MOL0     H69924   4.726   8.322  10.516 -0.6196 -0.4480  1.8867
  518MOL0     H69925   4.711   8.473  10.427  1.1466 -4.1199 -1.9491
  518MOL0     H69926   4.495   8.349  10.429  1.4580 -2.2624 -0.4777
  518MOL0     H69927   4.487   8.496  10.520 -3.5388 -1.9203 -0.5265
  518MOL0     H69928   4.373   8.231  10.817  2.6819  3.2380  3.3745
  518MOL0     H69929   5.021   8.279  10.811  0.0459  1.2788 -0.9874
  518MOL0     H69930   5.036   8.183  11.043 -2.6960 -0.3932  1.9636
  519MOL0     O69931   3.817   6.894   1.370 -0.8647  0.2501  0.1248
  519MOL0     C69932   3.809   6.811   1.462  0.8478  0.6358 -0.6996
  519MOL0     O69933   3.827   6.830   1.592 -0.8979  0.0758  0.7566
  519MOL0     C69934   3.914   6.924   1.641  0.3449  0.7852  0.1783
  519MOL0     C69935   3.882   6.969   1.767 -0.8987  0.5662 -0.1247
  519MOL0     C69936   3.968   7.059   1.828  0.3426  0.9991  0.5609
  519MOL0     C69937   4.080   7.104   1.752  0.6412 -0.0190  0.3990
  519MOL0     O69938   4.182   7.180   1.808  0.0929 -0.4376  0.4135
  519MOL0     C69939   4.162   7.235   1.938  0.5591  1.1428  0.7061
  519MOL0     C69940   4.266   7.345   1.971  0.0133  0.4377  0.1553
  519MOL0     C69941   4.410   7.302   1.974  0.1495  0.3969  0.4609
  519MOL0     C69942   4.506   7.412   1.981  0.5518 -0.4408 -0.5838
  519MOL0     C69943   4.641   7.359   2.023 -0.6641  0.2075 -0.1753
  519MOL0     C69944   4.758   7.460   2.025 -0.5386 -0.6570 -0.1342
  519MOL0     C69945   4.890   7.388   2.042 -0.4245  0.0993 -0.5178
  519MOL0     C69946   4.904   7.356   2.194  0.4707  0.4813  0.2943
  519MOL0     N69947   5.015   7.254   2.218 -1.0653 -0.4264 -0.7906
  519MOL0     C69948   5.150   7.285   2.231  0.4017  0.5546  0.5544
  519MOL0     C69949   5.202   7.157   2.243 -0.7774 -0.4679 -0.4525
  519MOL0     C69950   5.339   7.126   2.291 -0.3671 -0.4165 -0.0658
  519MOL0     C69951   5.454   7.195   2.210  0.9872  0.0219 -0.3627
  519MOL0     C69952   5.590   7.180   2.285  0.3874  0.2257  0.6362
  519MOL0     C69953   5.703   7.258   2.213  0.5918  0.1557  0.6875
  519MOL0     O69954   5.731   7.365   2.301  0.3323  0.1210 -0.3621
  519MOL0     C69955   5.843   7.369   2.382 -0.4118  0.5819 -0.7424
  519MOL0     C69956   5.836   7.461   2.485 -0.2982  0.3887 -0.4330
  519MOL0     C69957   5.926   7.472   2.595  0.4526  0.0428 -0.2881
  519MOL0     C69958   5.882   7.551   2.715 -1.2586  0.2140  0.4211
  519MOL0     C69959   6.056   7.404   2.588 -0.2783 -0.1224  0.5794
  519MOL0     C69960   6.178   7.421   2.675  0.3123 -0.0082 -0.1127
  519MOL0     O69961   6.253   7.312   2.719 -0.3754  0.1952  0.1112
  519MOL0     C69962   6.367   7.350   2.783 -0.1172  0.2329 -0.2563
  519MOL0     C69963   6.378   7.318   2.917 -0.2106 -0.1598 -0.1767
  519MOL0     C69964   6.492   7.357   2.991 -0.3728 -0.1886  0.0705
  519MOL0     C69965   6.603   7.407   2.919  0.3587 -0.9942 -0.0347
  519MOL0     O69966   6.720   7.431   2.985 -0.4698 -0.9095 -0.2714
  519MOL0     C69967   6.842   7.450   2.908 -0.5471 -0.4487 -0.3372
  519MOL0     C69968   6.961   7.465   3.007 -0.1800  0.2501 -0.4319
  519MOL0     C69969   6.958   7.585   3.108 -1.1180 -0.1771  0.0295
  519MOL0     C69970   7.093   7.599   3.196 -0.3457  1.2097  0.6666
  519MOL0     C69971   7.072   7.723   3.296 -1.3379  0.1948  0.0910
  519MOL0     C69972   6.977   7.706   3.409 -0.4871 -0.5185 -0.0092
  519MOL0     C69973   6.944   7.836   3.471  0.3426 -0.0052 -0.3373
  519MOL0     C69974   6.865   7.807   3.598 -0.9068 -0.7122  0.2922
  519MOL0    Cl69975   6.963   7.719   3.715  0.0953  0.2194 -0.0400
  519MOL0     C69976   6.592   7.437   2.782  0.9896  0.6737  0.4635
  519MOL0     C69977   6.472   7.415   2.716  0.4018 -0.8250  0.5560
  519MOL0     O69978   6.203   7.543   2.698 -0.2349 -0.3411 -0.3635
  519MOL0     C69979   6.066   7.312   2.477  1.1617 -0.0057  0.4003
  519MOL0     C69980   5.958   7.297   2.378  0.2151  0.3312  0.3445
  519MOL0     N69981   5.107   7.059   2.212 -0.2800  0.1394  0.1173
  519MOL0     N69982   5.000   7.120   2.207 -0.4892  0.1208  0.1022
  519MOL0     C69983   4.116   7.056   1.631  0.2554 -0.5447  0.8401
  519MOL0     C69984   4.027   6.965   1.571  0.0213  0.4668  0.2998
  519MOL0     C69985   3.758   6.683   1.421  0.5002 -0.6933 -0.2126
  519MOL0     C69986   3.738   6.582   1.516  0.5662  0.2290 -0.2604
  519MOL0     C69987   3.707   6.449   1.479  0.4941 -0.4627 -0.2165
  519MOL0     C69988   3.689   6.415   1.342 -0.3180  0.1531 -0.7851
  519MOL0     O69989   3.659   6.288   1.288 -0.1656 -0.1410  0.6138
  519MOL0     C69990   3.616   6.175   1.366 -0.6600 -0.1774  0.4630
  519MOL0     C69991   3.647   6.055   1.275 -0.0944  0.0971 -1.1322
  519MOL0     C69992   3.798   6.033   1.264  0.3719 -0.3179 -0.2129
  519MOL0     C69993   3.858   5.930   1.168  0.5059 -0.2625  0.1262
  519MOL0     C69994   3.791   5.798   1.189  0.1653 -0.3663  0.5380
  519MOL0     C69995   3.747   5.690   1.204 -0.0774 -0.9018 -0.2731
  519MOL0     C69996   3.716   6.520   1.252 -0.2267 -0.2194 -0.4237
  519MOL0     C69997   3.744   6.649   1.289  0.0432 -0.2245  0.3217
  519MOL0     H69998   3.793   6.942   1.823 -0.3317 -1.0467  0.0691
  519MOL0     H69999   3.937   7.103   1.922 -2.0229  1.5662 -0.4031
  519MOL0     H70000   4.071   7.295   1.943  1.9914  3.3744  3.4339
  519MOL0     H70001   4.150   7.150   2.005 -5.9756 -0.0649 -1.3769
  519MOL0     H70002   4.266   7.429   1.901  0.9983 -1.4643 -2.2721
  519MOL0     H70003   4.223   7.373   2.068 -1.2922 -0.8418 -0.0117
  519MOL0     H70004   4.419   7.242   2.064 -1.2598  1.1876  1.1624
  519MOL0     H70005   4.419   7.236   1.887 -0.4876  0.7046  0.1531
  519MOL0     H70006   4.500   7.454   1.880 -3.2643 -1.6714 -0.9936
  519MOL0     H70007   4.461   7.477   2.057 -0.9273 -1.3347 -0.6749
  519MOL0     H70008   4.632   7.314   2.122 -3.1354 -0.2037 -0.5129
  519MOL0     H70009   4.658   7.283   1.945 -1.3790  0.7321 -0.8618
  519MOL0     H70010   4.765   7.519   1.933 -3.7740 -0.6110 -0.4485
  519MOL0     H70011   4.754   7.531   2.109  0.0129  0.1720 -0.7923
  519MOL0     H70012   4.897   7.296   1.983  2.3895 -0.0576 -0.0641
  519MOL0     H70013   4.965   7.456   2.003 -0.0531 -0.9978 -1.7679
  519MOL0     H70014   4.812   7.317   2.238 -0.3964 -1.1696 -2.7286
  519MOL0     H70015   4.929   7.451   2.243 -0.3322  0.3543  0.9644
  519MOL0     H70016   5.193   7.383   2.248  1.2442  0.2586  0.1751
  519MOL0     H70017   5.362   7.157   2.393  1.0042  1.8124 -0.9772
  519MOL0     H70018   5.361   7.019   2.302  0.9807  0.0030  1.6688
  519MOL0     H70019   5.426   7.301   2.207 -1.0443 -0.4562  0.7163
  519MOL0     H70020   5.457   7.165   2.104 -2.0925 -1.3414 -0.1435
  519MOL0     H70021   5.622   7.076   2.295 -0.6462 -0.2401 -0.5216
  519MOL0     H70022   5.568   7.215   2.386 -0.5538 -0.5521  0.7173
  519MOL0     H70023   5.672   7.296   2.115  1.9685  0.8024  0.4831
  519MOL0     H70024   5.785   7.191   2.187 -0.1652 -0.8094  0.7250
  519MOL0     H70025   5.740   7.513   2.489  0.3364  1.6047 -0.6775
  519MOL0     H70026   5.942   7.513   2.799 -0.2901 -1.1997 -0.8588
  519MOL0     H70027   5.893   7.659   2.703 -0.3228 -0.0562 -1.6248
  519MOL0     H70028   5.776   7.536   2.739 -0.8268 -0.0259  2.4079
  519MOL0     H70029   6.299   7.281   2.982  0.5717 -2.1930 -0.3144
  519MOL0     H70030   6.507   7.352   3.098 -1.7647 -1.2222  0.2491
  519MOL0     H70031   6.866   7.373   2.835 -0.7866 -0.1289 -0.7590
  519MOL0     H70032   6.845   7.548   2.859 -2.9088 -0.3461 -0.4010
  519MOL0     H70033   6.972   7.370   3.061  0.4903  1.6316  2.0043
  519MOL0     H70034   7.053   7.483   2.951  0.7556 -0.4436  0.8204
  519MOL0     H70035   6.869   7.576   3.170 -1.3536  2.5555  0.2166
  519MOL0     H70036   6.939   7.675   3.048  0.9196  0.0746 -0.3192
  519MOL0     H70037   7.126   7.508   3.247 -0.9025 -0.4561 -1.7701
  519MOL0     H70038   7.180   7.617   3.131  0.7373 -1.7203  1.1635
  519MOL0     H70039   7.050   7.808   3.232  1.4261  1.5362  0.7646
  519MOL0     H70040   7.168   7.743   3.345 -2.2996  1.1905  1.6277
  519MOL0     H70041   6.884   7.661   3.373 -1.2976  2.2031 -1.6106
  519MOL0     H70042   7.028   7.639   3.479 -0.3715 -1.1344 -0.6688
  519MOL0     H70043   6.871   7.885   3.406 -2.0049 -1.1880  1.2754
  519MOL0     H70044   7.029   7.901   3.492 -1.8191  1.8392  3.9708
  519MOL0     H70045   6.781   7.747   3.564  0.4485 -1.0992 -2.7099
  519MOL0     H70046   6.837   7.903   3.642  0.6932  0.7635 -1.6915
  519MOL0     H70047   6.678   7.472   2.726  0.1203  2.1649  0.0100
  519MOL0     H70048   6.470   7.437   2.610 -1.8627  1.1640  0.9349
  519MOL0     H70049   6.162   7.264   2.462  1.3403  0.0922  1.2174
  519MOL0     H70050   5.973   7.242   2.286  1.0027  2.6748 -1.0164
  519MOL0     H70051   4.199   7.104   1.580  0.4332 -1.1737  0.5248
  519MOL0     H70052   4.057   6.927   1.475 -1.0582  4.6785 -1.9795
  519MOL0     H70053   3.733   6.592   1.624 -4.2494 -3.9110  0.2712
  519MOL0     H70054   3.705   6.385   1.566  1.4798 -1.0739 -0.6320
  519MOL0     H70055   3.662   6.170   1.465  3.6310  1.5305 -1.1694
  519MOL0     H70056   3.510   6.189   1.388 -0.8129 -3.4448  2.3064
  519MOL0     H70057   3.597   6.076   1.180 -0.8261  1.1803 -0.5411
  519MOL0     H70058   3.602   5.966   1.319  1.7812 -0.1299  0.4221
  519MOL0     H70059   3.829   6.009   1.366  1.0413 -2.1091 -0.8131
  519MOL0     H70060   3.850   6.123   1.230  0.5984 -0.1835  0.4790
  519MOL0     H70061   3.965   5.933   1.190  0.0521  1.7848  2.5442
  519MOL0     H70062   3.838   5.972   1.069 -0.4049  0.7609  0.7149
  519MOL0     H70063   3.683   5.607   1.223 -1.0015 -0.3961 -1.0883
  519MOL0     H70064   3.704   6.492   1.148  2.4464  1.1563 -1.2102
  519MOL0     H70065   3.765   6.724   1.213  0.0548  2.3045  2.6266
  520MOL0     O70066  10.944   0.290   2.048  0.4266 -0.8221  0.0043
  520MOL0     C70067  11.031   0.270   1.968  0.4699 -0.6942 -0.5671
  520MOL0     O70068  11.058   0.355   1.866  0.5444  0.1560 -0.3159
  520MOL0     C70069  10.997   0.470   1.834 -0.1699 -0.2244  0.0712
  520MOL0     C70070  10.929   0.554   1.927  0.4882 -1.0525  0.2318
  520MOL0     C70071  10.857   0.671   1.869  0.5224  0.9572  0.2779
  520MOL0     C70072  10.854   0.688   1.723  0.2145  0.0944 -0.3271
  520MOL0     O70073  10.784   0.786   1.672 -0.6292 -0.4564 -0.3765
  520MOL0     C70074  10.638   0.786   1.685 -0.8597  0.5114  0.2076
  520MOL0     C70075  10.598   0.882   1.796 -1.0181 -0.6134 -0.3634
  520MOL0     C70076  10.470   0.945   1.767  0.0031  0.5510 -0.1312
  520MOL0     C70077  10.358   0.831   1.773  1.5109  0.7496  0.4922
  520MOL0     C70078  10.217   0.889   1.742  0.5669  0.3228  0.4172
  520MOL0     C70079  10.096   0.808   1.709  0.6497  0.8926 -0.2615
  520MOL0     C70080  10.077   0.683   1.793 -0.2546 -0.6521 -0.7626
  520MOL0     C70081   9.941   0.615   1.761  0.5236  0.4352 -0.7886
  520MOL0     N70082   9.820   0.705   1.789  0.3525 -0.0506  0.8828
  520MOL0     C70083   9.750   0.789   1.701 -0.6453 -0.3637 -0.2927
  520MOL0     C70084   9.639   0.829   1.763  0.2960  0.0251 -0.1523
  520MOL0     C70085   9.540   0.936   1.715  0.5578  0.7495 -0.2840
  520MOL0     C70086   9.606   1.059   1.761 -0.1493 -0.2263 -0.3952
  520MOL0     C70087   9.518   1.179   1.723  0.6257 -0.5071  0.0964
  520MOL0     C70088   9.592   1.313   1.729 -0.6411 -0.1096 -0.1888
  520MOL0     O70089   9.719   1.318   1.658  0.5160  0.2189 -0.3978
  520MOL0     C70090   9.814   1.410   1.694 -0.4009  1.0101 -0.4056
  520MOL0     C70091   9.777   1.529   1.753 -0.5822 -0.5047 -0.1713
  520MOL0     C70092   9.873   1.626   1.788  0.4239 -0.4388 -0.3709
  520MOL0     C70093   9.828   1.751   1.859  1.0974  0.3968 -0.5464
  520MOL0     C70094  10.012   1.601   1.757 -0.0010 -0.2371  0.2665
  520MOL0     C70095  10.117   1.702   1.772  0.1198 -0.8388  0.2253
  520MOL0     O70096  10.251   1.663   1.753 -0.3089 -0.5072 -0.6331
  520MOL0     C70097  10.350   1.759   1.772  0.0289  0.3925  0.4684
  520MOL0     C70098  10.389   1.788   1.899 -0.2581  0.0780 -0.1669
  520MOL0     C70099  10.492   1.878   1.929 -0.0808 -0.0719 -0.2531
  520MOL0     C70100  10.554   1.949   1.825  0.2752 -0.0960  0.3062
  520MOL0     O70101  10.645   2.052   1.831  0.0732 -0.0031 -0.3756
  520MOL0     C70102  10.637   2.131   1.950 -0.9386 -1.0004  0.2129
  520MOL0     C70103  10.731   2.241   1.931  0.6194  0.2456  0.2275
  520MOL0     C70104  10.757   2.324   2.058  0.1519 -0.1373  0.1192
  520MOL0     C70105  10.848   2.264   2.162  0.1349  0.9685  0.2223
  520MOL0     C70106  10.876   2.356   2.277 -0.3592 -0.1863 -0.3452
  520MOL0     C70107  10.756   2.388   2.371  0.8705 -0.6243 -0.4054
  520MOL0     C70108  10.803   2.478   2.490 -0.2277  0.1138 -0.1214
  520MOL0     C70109  10.749   2.618   2.474  0.8459 -0.2765  0.1252
  520MOL0    Cl70110  10.799   2.719   2.613 -0.0920  0.1573  0.2094
  520MOL0     C70111  10.510   1.919   1.700 -0.9950 -0.5445  0.5550
  520MOL0     C70112  10.415   1.822   1.673  0.9823  0.1513  0.4015
  520MOL0     O70113  10.092   1.815   1.802 -0.6881 -0.2288 -0.6582
  520MOL0     C70114  10.046   1.476   1.707  0.2172 -0.3442  0.2735
  520MOL0     C70115   9.947   1.378   1.669  0.1196 -0.1101 -0.0037
  520MOL0     N70116   9.641   0.776   1.886  0.1603  0.0221 -0.2968
  520MOL0     N70117   9.751   0.715   1.910  0.0767  1.1509 -0.0234
  520MOL0     C70118  10.939   0.613   1.646  0.1781  0.6289  0.4539
  520MOL0     C70119  11.001   0.501   1.701 -0.0436  0.7268 -0.1063
  520MOL0     C70120  11.126   0.167   1.985  0.7280  0.5804  0.7890
  520MOL0     C70121  11.263   0.190   1.967 -0.0499  0.3493 -0.3282
  520MOL0     C70122  11.354   0.076   1.968  0.2867 -0.4124 -0.2297
  520MOL0     C70123  11.308  -0.053   1.986 -0.0143  0.5553 -0.6658
  520MOL0     O70124  11.405  -0.153   1.988  0.0540 -0.2267 -0.5028
  520MOL0     C70125  11.378  -0.282   2.028 -0.0314  0.2639  0.1657
  520MOL0     C70126  11.332  -0.355   1.895  0.9195  0.4446  0.5236
  520MOL0     C70127  11.282  -0.504   1.935 -0.3082  0.0487 -0.3392
  520MOL0     C70128  11.244  -0.600   1.827 -0.3842 -1.2288  0.5850
  520MOL0     C70129  11.144  -0.546   1.735 -0.0020 -0.0617  0.0562
  520MOL0     C70130  11.064  -0.484   1.668  0.0581 -0.3902  0.3788
  520MOL0     C70131  11.173  -0.076   2.006 -0.5049  0.3697  0.0459
  520MOL0     C70132  11.086   0.035   2.007 -0.2147 -0.4875 -0.4830
  520MOL0     H70133  10.909   0.524   2.029 -1.8856 -3.7571 -0.8678
  520MOL0     H70134  10.792   0.729   1.933  0.1212  0.9264 -0.0941
  520MOL0     H70135  10.589   0.825   1.595 -2.4814 -0.3699  0.6724
  520MOL0     H70136  10.602   0.686   1.708 -0.8213 -0.0590 -1.9879
  520MOL0     H70137  10.594   0.830   1.892 -1.3165  0.6955  0.3644
  520MOL0     H70138  10.675   0.960   1.799 -0.9125 -0.7063  3.1177
  520MOL0     H70139  10.440   1.022   1.839 -3.4122 -1.3796  0.7479
  520MOL0     H70140  10.485   0.995   1.671 -1.0032 -1.9371 -1.6957
  520MOL0     H70141  10.380   0.756   1.696 -3.7854  0.4168 -1.1047
  520MOL0     H70142  10.350   0.788   1.873 -1.0172  0.1715  0.1057
  520MOL0     H70143  10.192   0.949   1.830 -1.0119  0.9977 -0.4522
  520MOL0     H70144  10.231   0.955   1.655 -3.7708  1.8222  0.6262
  520MOL0     H70145  10.015   0.873   1.678  0.4580  0.0673 -1.6130
  520MOL0     H70146  10.126   0.754   1.618 -1.3068 -4.5116  1.9055
  520MOL0     H70147  10.155   0.609   1.772  0.7856 -0.2039  1.2858
  520MOL0     H70148  10.089   0.695   1.901  0.0348 -1.1899 -0.7302
  520MOL0     H70149   9.938   0.529   1.829 -1.2123 -1.0908 -2.6440
  520MOL0     H70150   9.951   0.571   1.661  0.0702 -1.6946  0.0383
  520MOL0     H70151   9.778   0.822   1.602 -2.9201 -1.2543 -1.2931
  520MOL0     H70152   9.524   0.930   1.607  2.2533 -0.3794 -0.5208
  520MOL0     H70153   9.448   0.931   1.773  0.8254  1.6400  0.2480
  520MOL0     H70154   9.702   1.063   1.709  0.3447 -1.1421  0.4263
  520MOL0     H70155   9.619   1.057   1.870  0.3613  2.2269 -0.3352
  520MOL0     H70156   9.433   1.185   1.792  1.8919 -0.1150  1.6692
  520MOL0     H70157   9.491   1.173   1.617  4.1595  1.2122 -1.0392
  520MOL0     H70158   9.612   1.334   1.834  1.3611 -1.6035 -0.2182
  520MOL0     H70159   9.519   1.389   1.699  1.8717  2.2147 -0.7689
  520MOL0     H70160   9.675   1.544   1.785 -0.2136  0.0616  0.7659
  520MOL0     H70161   9.846   1.845   1.806 -4.2346  2.6689  1.0503
  520MOL0     H70162   9.719   1.742   1.860  0.9017  1.2213 -3.6316
  520MOL0     H70163   9.876   1.759   1.956 -0.7792  0.3582  0.4325
  520MOL0     H70164  10.351   1.740   1.989 -2.1281 -0.6078 -1.2869
  520MOL0     H70165  10.527   1.909   2.027  1.3038  1.4085 -1.1670
  520MOL0     H70166  10.538   2.164   1.983 -0.3844 -1.6017  2.6519
  520MOL0     H70167  10.665   2.078   2.042 -2.2789 -1.0815  0.5880
  520MOL0     H70168  10.829   2.214   1.889  1.5234  1.4485  1.4626
  520MOL0     H70169  10.680   2.305   1.858  1.2227 -0.1499 -0.5578
  520MOL0     H70170  10.664   2.321   2.115 -0.1990 -2.9454 -0.4643
  520MOL0     H70171  10.770   2.428   2.027 -0.2950  0.6601  2.3733
  520MOL0     H70172  10.794   2.179   2.206 -1.4079  1.6927 -0.1889
  520MOL0     H70173  10.939   2.235   2.110 -0.5313  3.0447 -2.2837
  520MOL0     H70174  10.919   2.446   2.232  0.4925 -0.0902  0.6263
  520MOL0     H70175  10.955   2.320   2.343  0.4712  2.5263  0.2425
  520MOL0     H70176  10.677   2.434   2.312 -0.8422 -2.7796  0.0561
  520MOL0     H70177  10.711   2.295   2.407  0.7061  0.2231  1.6501
  520MOL0     H70178  10.912   2.487   2.488 -0.3026  1.1599  0.2116
  520MOL0     H70179  10.777   2.431   2.586  3.7471  0.2916  1.2359
  520MOL0     H70180  10.640   2.612   2.467  0.6242  1.3974  1.5205
  520MOL0     H70181  10.788   2.671   2.386  1.7294 -0.7438  0.2203
  520MOL0     H70182  10.553   1.974   1.618  1.8561 -0.7541  1.8135
  520MOL0     H70183  10.389   1.797   1.570  0.9800  0.6649  0.2769
  520MOL0     H70184  10.146   1.450   1.674 -0.4454 -1.0360 -1.2885
  520MOL0     H70185   9.971   1.299   1.600 -1.0210 -1.6439  1.2905
  520MOL0     H70186  10.957   0.621   1.539 -0.0495 -2.9450  0.0427
  520MOL0     H70187  11.041   0.424   1.637 -2.8061  0.4199 -1.6188
  520MOL0     H70188  11.281   0.294   1.941 -1.6560  0.7431  0.0172
  520MOL0     H70189  11.461   0.090   1.959  0.5776 -0.2493  2.6538
  520MOL0     H70190  11.469  -0.331   2.064  1.3266  1.5089 -1.4197
  520MOL0     H70191  11.301  -0.301   2.102 -0.8123 -0.2428 -0.7544
  520MOL0     H70192  11.419  -0.358   1.828 -0.2462  0.3995 -1.0417
  520MOL0     H70193  11.244  -0.309   1.849  0.8327 -1.7006 -1.6074
  520MOL0     H70194  11.191  -0.488   1.994 -0.4460  1.5195 -0.8951
  520MOL0     H70195  11.353  -0.556   1.999  1.7455  2.0784 -0.7884
  520MOL0     H70196  11.201  -0.687   1.876 -0.2951 -0.6620  1.6895
  520MOL0     H70197  11.338  -0.621   1.775 -1.7098 -0.9145 -2.1813
  520MOL0     H70198  10.983  -0.438   1.616  0.7188 -0.1262 -0.4397
  520MOL0     H70199  11.144  -0.177   2.032 -1.1067  0.7841  1.0662
  520MOL0     H70200  10.986   0.020   2.046 -0.4444  0.8477 -0.5193
  521MOL0     O70201   4.494   0.404   2.868  0.2134  0.3545 -0.9504
  521MOL0     C70202   4.552   0.323   2.806 -0.5594 -0.3408  0.0838
  521MOL0     O70203   4.685   0.310   2.784 -0.6663  0.5185 -0.2027
  521MOL0     C70204   4.765   0.413   2.824  0.3671  0.4035  0.3144
  521MOL0     C70205   4.757   0.537   2.754 -0.1393  0.5984 -0.1149
  521MOL0     C70206   4.852   0.644   2.787  0.0529  0.2875 -0.3269
  521MOL0     C70207   4.954   0.611   2.884  0.0769  0.2336  0.2292
  521MOL0     O70208   5.044   0.715   2.909 -0.3985  0.2792 -0.2610
  521MOL0     C70209   5.113   0.708   3.033  0.3046  0.5675  0.5267
  521MOL0     C70210   5.169   0.835   3.085 -0.6270  0.7565  0.6663
  521MOL0     C70211   5.285   0.874   2.978 -0.2950  0.0792  0.6222
  521MOL0     C70212   5.324   1.024   2.993 -0.1708  0.1672 -0.5636
  521MOL0     C70213   5.453   1.035   2.899 -0.4306  0.4618 -0.5364
  521MOL0     C70214   5.483   1.187   2.874  0.2810 -1.0221  0.1663
  521MOL0     C70215   5.596   1.193   2.767  0.1313 -0.2689 -0.9992
  521MOL0     C70216   5.571   1.140   2.627  0.2513 -0.2321 -0.3394
  521MOL0     N70217   5.637   1.211   2.517  0.0195 -0.3808 -0.8644
  521MOL0     C70218   5.651   1.345   2.482 -0.1272  0.1124 -1.4557
  521MOL0     C70219   5.725   1.347   2.376 -0.2221 -0.2399  0.2780
  521MOL0     C70220   5.780   1.473   2.297 -0.1202  0.4522 -0.0978
  521MOL0     C70221   5.931   1.484   2.252  0.7699  1.8621  0.5211
  521MOL0     C70222   5.941   1.411   2.120 -0.1168  0.2578  0.2756
  521MOL0     C70223   6.084   1.402   2.069  0.3690  0.7640 -0.0656
  521MOL0     O70224   6.161   1.331   2.155  0.4869 -0.0358  0.6895
  521MOL0     C70225   6.269   1.384   2.218 -0.4869 -0.2871 -0.0872
  521MOL0     C70226   6.364   1.294   2.237  0.2761  0.1127 -0.1435
  521MOL0     C70227   6.479   1.328   2.299  0.0593  0.2623 -0.2636
  521MOL0     C70228   6.585   1.221   2.294 -0.6393  0.3788 -0.3720
  521MOL0     C70229   6.497   1.463   2.347 -0.1418 -0.4588  0.5461
  521MOL0     C70230   6.625   1.505   2.397 -0.5286  0.5412  0.5039
  521MOL0     O70231   6.635   1.632   2.436  0.6313  0.3979 -0.6165
  521MOL0     C70232   6.754   1.706   2.459  0.1842 -0.7264 -0.6201
  521MOL0     C70233   6.888   1.663   2.437  0.0183  0.5531  0.2308
  521MOL0     C70234   7.001   1.718   2.501  0.5673  1.1765  0.5320
  521MOL0     C70235   6.980   1.834   2.581 -0.0931  0.1511 -0.1026
  521MOL0     O70236   7.081   1.892   2.656  0.0625 -0.4289  0.3560
  521MOL0     C70237   7.081   1.885   2.797 -0.5386  0.8537 -0.0541
  521MOL0     C70238   7.210   1.942   2.854  1.4505  0.7763 -0.5674
  521MOL0     C70239   7.221   1.914   3.009  0.3835  0.4520  1.0130
  521MOL0     C70240   7.335   1.988   3.078  0.1439 -0.3062  0.0115
  521MOL0     C70241   7.347   1.954   3.223 -0.3220 -0.4351 -0.4658
  521MOL0     C70242   7.262   2.031   3.318 -0.3786 -0.0021 -0.7988
  521MOL0     C70243   7.279   1.977   3.456 -0.2862 -0.6925 -0.0469
  521MOL0     C70244   7.255   2.088   3.561  0.5781  0.1442 -0.8756
  521MOL0    Cl70245   7.377   2.209   3.548 -0.0456  0.1502 -0.2431
  521MOL0     C70246   6.853   1.892   2.580 -0.5399  0.0145 -0.4328
  521MOL0     C70247   6.742   1.824   2.523 -0.4341 -0.6374 -1.1548
  521MOL0     O70248   6.721   1.424   2.399  0.0067  0.2076 -0.1631
  521MOL0     C70249   6.390   1.555   2.335  0.2911  0.3359  0.9817
  521MOL0     C70250   6.275   1.515   2.266 -0.7988  0.3345  0.4620
  521MOL0     N70251   5.756   1.223   2.330 -0.2274 -0.0820  0.0050
  521MOL0     N70252   5.706   1.146   2.420 -0.2801  1.2059  0.5886
  521MOL0     C70253   4.961   0.492   2.951 -0.5870 -0.2018 -0.4141
  521MOL0     C70254   4.869   0.389   2.915 -0.9526 -0.2795  0.4783
  521MOL0     C70255   4.460   0.216   2.761 -0.0981  0.3440  0.2135
  521MOL0     C70256   4.328   0.199   2.812 -0.6858 -0.0974  0.6101
  521MOL0     C70257   4.242   0.094   2.763 -0.2807  0.0303 -0.0928
  521MOL0     C70258   4.289   0.006   2.675  0.2032  0.0220  0.4404
  521MOL0     O70259   4.215  -0.095   2.618 -0.1764 -0.3579  0.2546
  521MOL0     C70260   4.190  -0.210   2.706  0.3972 -0.5314  0.6850
  521MOL0     C70261   4.273  -0.332   2.687 -0.9292  0.4605 -0.4638
  521MOL0     C70262   4.272  -0.430   2.809 -0.2918  0.4884 -0.1169
  521MOL0     C70263   4.365  -0.548   2.792  0.6214 -0.1550  0.0874
  521MOL0     C70264   4.362  -0.625   2.914 -0.1610  0.2193 -0.8368
  521MOL0     C70265   4.379  -0.681   3.017 -0.6724  0.6095 -0.2672
  521MOL0     C70266   4.420   0.012   2.637  0.5006 -0.4844  0.5727
  521MOL0     C70267   4.514   0.115   2.672  1.0391  0.8637 -0.6502
  521MOL0     H70268   4.675   0.557   2.686 -1.6621 -0.6452  1.2517
  521MOL0     H70269   4.842   0.740   2.736 -0.3447  0.8404  0.7356
  521MOL0     H70270   5.050   0.664   3.112  2.3515  0.8002  2.3753
  521MOL0     H70271   5.198   0.647   3.003  0.4097  1.4328 -1.0407
  521MOL0     H70272   5.088   0.906   3.104 -0.7814  0.8734 -0.4102
  521MOL0     H70273   5.225   0.817   3.178  0.6813 -1.5559 -0.4818
  521MOL0     H70274   5.374   0.822   3.013  0.4013 -0.5982 -2.0201
  521MOL0     H70275   5.251   0.859   2.875 -3.3581 -1.3283  1.7003
  521MOL0     H70276   5.247   1.094   2.959 -0.4768  0.5859  0.9384
  521MOL0     H70277   5.351   1.041   3.097  0.0062 -0.4527 -0.5049
  521MOL0     H70278   5.533   0.972   2.942 -0.8248 -2.2328 -3.3701
  521MOL0     H70279   5.431   0.973   2.811  0.4174 -2.3962  1.1158
  521MOL0     H70280   5.389   1.238   2.852  0.2305 -1.3144 -0.3319
  521MOL0     H70281   5.513   1.238   2.965  2.1849  2.8258 -2.3418
  521MOL0     H70282   5.611   1.301   2.764  1.7849 -0.3467  1.3470
  521MOL0     H70283   5.683   1.146   2.813 -1.4257 -0.2904  2.2166
  521MOL0     H70284   5.468   1.154   2.593  1.0397 -0.4275 -3.0499
  521MOL0     H70285   5.580   1.031   2.628 -2.9414 -0.6159  1.7945
  521MOL0     H70286   5.590   1.418   2.534  0.0517  0.0362 -1.1380
  521MOL0     H70287   5.711   1.496   2.215 -0.1918  1.3335  0.1929
  521MOL0     H70288   5.768   1.553   2.371  3.4621  4.3352 -3.2078
  521MOL0     H70289   5.993   1.438   2.329  2.8920 -0.4252 -2.3148
  521MOL0     H70290   5.960   1.588   2.240 -0.5058  2.0682 -1.1898
  521MOL0     H70291   5.893   1.475   2.046 -1.5834 -2.3497 -1.2140
  521MOL0     H70292   5.900   1.310   2.113  1.7172 -0.5241  0.0510
  521MOL0     H70293   6.121   1.500   2.038  2.7886 -0.8865 -2.8886
  521MOL0     H70294   6.073   1.346   1.976  1.2506 -2.0304  1.3768
  521MOL0     H70295   6.355   1.194   2.195  0.7402  0.4678 -1.1028
  521MOL0     H70296   6.664   1.250   2.224 -0.8121  4.0653  0.7535
  521MOL0     H70297   6.614   1.195   2.397 -3.7644  2.5691  1.2030
  521MOL0     H70298   6.557   1.126   2.247 -2.3252  1.4430 -1.5940
  521MOL0     H70299   6.911   1.572   2.384 -1.2594  0.8167 -0.8386
  521MOL0     H70300   7.097   1.668   2.498  0.4937  0.9894  1.1589
  521MOL0     H70301   6.996   1.936   2.843 -0.3910  2.1039 -1.1007
  521MOL0     H70302   7.073   1.778   2.817  0.2817  0.3543 -2.1073
  521MOL0     H70303   7.298   1.891   2.813  0.9975 -0.2917 -0.2435
  521MOL0     H70304   7.220   2.048   2.831 -3.0671  1.8867  1.5378
  521MOL0     H70305   7.231   1.808   3.032 -0.6881  0.6389  2.5061
  521MOL0     H70306   7.133   1.937   3.069 -0.5266 -0.4422  0.0477
  521MOL0     H70307   7.433   1.958   3.041 -0.7858 -5.5564  0.9014
  521MOL0     H70308   7.328   2.097   3.076  1.1449 -0.2166 -2.3818
  521MOL0     H70309   7.448   1.982   3.253 -1.7357  1.9378  2.6841
  521MOL0     H70310   7.351   1.845   3.231 -0.6013 -0.3224  2.0487
  521MOL0     H70311   7.295   2.135   3.311  1.2127 -0.5906 -3.1908
  521MOL0     H70312   7.156   2.027   3.294 -1.0415 -3.0123  1.8780
  521MOL0     H70313   7.382   1.943   3.468 -0.5436 -1.1219  1.1310
  521MOL0     H70314   7.218   1.887   3.464  0.5399 -1.1130  2.3178
  521MOL0     H70315   7.248   2.054   3.665 -1.2857 -2.5334 -1.7647
  521MOL0     H70316   7.155   2.127   3.542  0.0982 -0.4599  0.2943
  521MOL0     H70317   6.829   1.980   2.638 -2.1553 -2.1537  2.4368
  521MOL0     H70318   6.645   1.865   2.552  0.3085 -1.2197  2.7313
  521MOL0     H70319   6.400   1.658   2.368 -0.5438  1.5533 -2.2014
  521MOL0     H70320   6.191   1.581   2.251 -0.9196 -0.0290 -0.5768
  521MOL0     H70321   5.054   0.474   3.005 -0.1628 -0.7396 -1.3054
  521MOL0     H70322   4.895   0.287   2.939  1.4670 -0.0080 -0.6439
  521MOL0     H70323   4.298   0.268   2.890 -1.2468  1.2976 -0.7773
  521MOL0     H70324   4.140   0.081   2.797 -0.2466  1.5581  0.6609
  521MOL0     H70325   4.207  -0.181   2.810  1.7405  1.3612 -0.0052
  521MOL0     H70326   4.085  -0.233   2.688  0.2974  0.5277 -0.1723
  521MOL0     H70327   4.374  -0.303   2.656 -1.3826 -0.2052 -2.8117
  521MOL0     H70328   4.233  -0.378   2.596 -0.8007 -2.7745  0.9569
  521MOL0     H70329   4.172  -0.467   2.833  0.0307 -0.4127 -0.1154
  521MOL0     H70330   4.311  -0.381   2.898  1.2294 -6.0438  3.4459
  521MOL0     H70331   4.471  -0.519   2.790  0.0388  2.4207  2.0607
  521MOL0     H70332   4.332  -0.607   2.706 -5.4523  1.9605  0.4924
  521MOL0     H70333   4.394  -0.725   3.113  0.8170  1.0336 -0.2757
  521MOL0     H70334   4.458  -0.067   2.574  2.2195  0.2074  0.6879
  521MOL0     H70335   4.616   0.123   2.636  1.5012 -0.7353  0.1897
  522MOL0     O70336   2.866   7.386   5.419  0.3029  0.3029  0.1032
  522MOL0     C70337   2.774   7.300   5.390  0.3139 -0.8390  0.8697
  522MOL0     O70338   2.738   7.184   5.455  0.0505 -0.6560  0.7574
  522MOL0     C70339   2.812   7.118   5.558  0.7457 -0.2604 -0.5125
  522MOL0     C70340   2.735   7.050   5.644  0.3282  0.5556 -0.5366
  522MOL0     C70341   2.795   6.979   5.749 -0.3405  0.1350  0.2448
  522MOL0     C70342   2.932   6.968   5.765 -0.0883 -0.2289  0.6050
  522MOL0     O70343   2.983   6.878   5.863  0.5903 -0.4904 -0.0942
  522MOL0     C70344   3.108   6.913   5.924  0.0734  0.4444 -0.3166
  522MOL0     C70345   3.115   6.848   6.068  0.3809  1.2297  0.3347
  522MOL0     C70346   3.100   6.697   6.070 -0.0265 -0.3899  0.1888
  522MOL0     C70347   3.155   6.627   6.188  0.3256 -0.0070 -0.1135
  522MOL0     C70348   3.135   6.474   6.197  0.1924 -0.3067 -0.6532
  522MOL0     C70349   3.228   6.408   6.300 -0.0905  0.2006  0.3338
  522MOL0     C70350   3.225   6.458   6.446  0.2156 -0.1872 -0.0048
  522MOL0     C70351   3.328   6.402   6.539 -0.5883 -0.4617 -0.3552
  522MOL0     N70352   3.297   6.259   6.573  0.7125  0.3770  0.0092
  522MOL0     C70353   3.181   6.201   6.635  0.3317  0.0021 -0.3099
  522MOL0     C70354   3.216   6.074   6.650  0.4096  0.1424  0.3307
  522MOL0     C70355   3.136   5.945   6.689 -0.2039  0.0793  0.0621
  522MOL0     C70356   3.161   5.911   6.840 -0.7649 -0.2389  0.2239
  522MOL0     C70357   3.082   5.997   6.947 -0.5116 -0.1527 -0.0772
  522MOL0     C70358   3.093   5.947   7.084 -0.3074  0.2428  0.1912
  522MOL0     O70359   3.006   5.829   7.098 -0.1761  0.2118 -0.6759
  522MOL0     C70360   2.864   5.823   7.116 -1.3607 -0.4722 -0.8659
  522MOL0     C70361   2.789   5.936   7.131  0.0436  0.3655 -0.5957
  522MOL0     C70362   2.646   5.933   7.156 -0.5114 -0.1957 -0.0373
  522MOL0     C70363   2.582   6.068   7.186  1.4054 -0.4175  0.8285
  522MOL0     C70364   2.577   5.807   7.163 -0.7084 -0.5673 -0.7004
  522MOL0     C70365   2.431   5.785   7.202  1.0726  0.1967 -0.3058
  522MOL0     O70366   2.340   5.888   7.181 -0.0775 -0.7323 -0.0362
  522MOL0     C70367   2.204   5.878   7.208 -0.3156 -0.1944  0.0101
  522MOL0     C70368   2.154   5.791   7.307  0.3997  0.4724 -0.4934
  522MOL0     C70369   2.017   5.778   7.335  0.2622  1.0641  0.3259
  522MOL0     C70370   1.921   5.836   7.247  0.7187 -0.8253 -0.8377
  522MOL0     O70371   1.782   5.830   7.260  0.2359  0.4791 -0.9080
  522MOL0     C70372   1.741   5.898   7.377  0.1458  0.0865  0.4925
  522MOL0     C70373   1.618   5.978   7.329 -0.5701  0.4554  0.1472
  522MOL0     C70374   1.629   6.070   7.219 -0.6012 -0.4112 -0.1887
  522MOL0     C70375   1.496   6.149   7.191 -0.4950  0.4449  0.6230
  522MOL0     C70376   1.529   6.267   7.098  1.2547 -0.3655  0.3619
  522MOL0     C70377   1.412   6.366   7.106  0.0355  0.3893 -0.2809
  522MOL0     C70378   1.410   6.483   6.998 -0.7096  0.2658 -0.5144
  522MOL0     C70379   1.340   6.606   7.046  0.0540  0.0379  0.7917
  522MOL0    Cl70380   1.356   6.743   6.924  0.3200 -0.0562  0.0837
  522MOL0     C70381   1.968   5.917   7.144 -0.1970 -0.1648  0.5656
  522MOL0     C70382   2.103   5.938   7.124 -0.6628 -0.2825 -0.1268
  522MOL0     O70383   2.401   5.670   7.243  0.0774  0.2149  0.3907
  522MOL0     C70384   2.669   5.695   7.154 -0.3460 -0.4485  0.1798
  522MOL0     C70385   2.805   5.706   7.130  0.0091  0.0985  0.7432
  522MOL0     N70386   3.339   6.055   6.595  0.2323  0.0501 -0.9581
  522MOL0     N70387   3.388   6.165   6.548  0.0771 -0.1096  0.1041
  522MOL0     C70388   3.007   7.035   5.667 -0.0479  0.1436 -0.7199
  522MOL0     C70389   2.945   7.108   5.567  0.4009  0.7102 -0.9882
  522MOL0     C70390   2.676   7.353   5.289 -0.6534 -0.2188 -0.6423
  522MOL0     C70391   2.712   7.467   5.216  0.4158 -0.4202  0.4419
  522MOL0     C70392   2.622   7.515   5.115  0.4019  0.6247  0.0811
  522MOL0     C70393   2.494   7.461   5.099 -0.3346 -0.2274  0.5928
  522MOL0     O70394   2.415   7.513   4.997 -0.2456 -0.1913 -0.5094
  522MOL0     C70395   2.325   7.423   4.930  0.7617  0.4080  0.5702
  522MOL0     C70396   2.320   7.473   4.786  0.3987  0.0586  0.4279
  522MOL0     C70397   2.241   7.368   4.705  0.2996 -0.0737 -1.1320
  522MOL0     C70398   2.216   7.402   4.556 -0.4733 -0.1158  0.2442
  522MOL0     C70399   2.152   7.534   4.549  0.2864  0.5962 -0.1869
  522MOL0     C70400   2.112   7.647   4.547  0.6716  0.6768 -0.8060
  522MOL0     C70401   2.463   7.346   5.170  0.5665  0.2295  0.3085
  522MOL0     C70402   2.550   7.292   5.259 -0.5322 -0.2300 -1.0039
  522MOL0     H70403   2.627   7.050   5.635  0.3717 -0.4528 -1.3424
  522MOL0     H70404   2.740   6.926   5.827 -0.4932  1.6466  1.2043
  522MOL0     H70405   3.189   6.872   5.863 -1.4353 -1.1878 -1.3368
  522MOL0     H70406   3.125   7.021   5.932  1.0189  0.2404  0.8128
  522MOL0     H70407   3.208   6.880   6.116  1.3453  2.8658 -2.3668
  522MOL0     H70408   3.030   6.884   6.127 -0.0064 -0.1103  0.6079
  522MOL0     H70409   2.995   6.667   6.062 -0.4669  1.2200 -0.4412
  522MOL0     H70410   3.150   6.657   5.981 -0.3164  2.9999 -1.6837
  522MOL0     H70411   3.262   6.651   6.182 -0.3072  2.7250 -3.0257
  522MOL0     H70412   3.129   6.669   6.286 -0.6862  0.7178 -0.6709
  522MOL0     H70413   3.031   6.449   6.222  0.7448 -1.4280  0.6277
  522MOL0     H70414   3.147   6.436   6.095 -2.8150  1.0153 -1.6217
  522MOL0     H70415   3.208   6.301   6.300  0.0423  0.1548  1.5817
  522MOL0     H70416   3.329   6.420   6.259 -0.9184 -1.4529 -2.3937
  522MOL0     H70417   3.236   6.566   6.448  0.0206 -0.1579  2.5164
  522MOL0     H70418   3.125   6.433   6.483 -0.2629 -2.6608 -2.5484
  522MOL0     H70419   3.310   6.454   6.634 -0.3890 -1.3993  0.2130
  522MOL0     H70420   3.431   6.406   6.504  0.1455  2.4802  1.7412
  522MOL0     H70421   3.097   6.251   6.682  1.3530  2.1738 -0.6725
  522MOL0     H70422   3.030   5.970   6.689 -0.2291  0.2652  2.7761
  522MOL0     H70423   3.169   5.865   6.622 -0.2905  0.8679 -0.9655
  522MOL0     H70424   3.267   5.926   6.865 -1.2869  3.1941  1.0092
  522MOL0     H70425   3.131   5.809   6.864  0.8078 -0.9550 -0.7456
  522MOL0     H70426   2.978   6.013   6.917  0.7438  2.8091 -3.5234
  522MOL0     H70427   3.140   6.089   6.940  0.4622 -0.5870  1.7368
  522MOL0     H70428   3.064   6.038   7.138  0.3137  1.1174 -0.8977
  522MOL0     H70429   3.188   5.902   7.115  0.0844  2.8320  3.2700
  522MOL0     H70430   2.840   6.031   7.122  1.3324 -0.0322  1.6834
  522MOL0     H70431   2.477   6.068   7.216  0.4126  0.5759 -2.3052
  522MOL0     H70432   2.651   6.121   7.254  1.2395  0.9306 -0.0283
  522MOL0     H70433   2.588   6.124   7.093  0.1022  0.6712  1.3660
  522MOL0     H70434   2.225   5.741   7.373 -1.6128  1.0840  2.2963
  522MOL0     H70435   1.982   5.711   7.413  1.1379 -1.2258 -1.1405
  522MOL0     H70436   1.716   5.830   7.459 -1.7863 -2.5859 -2.1366
  522MOL0     H70437   1.817   5.969   7.415 -1.3053  1.0632  1.6984
  522MOL0     H70438   1.537   5.910   7.302  0.4572 -0.4056 -0.8643
  522MOL0     H70439   1.587   6.033   7.419 -0.0883  0.2522  0.4429
  522MOL0     H70440   1.656   6.023   7.124 -1.8753 -3.5817  0.8584
  522MOL0     H70441   1.715   6.135   7.230  2.5386 -3.7564 -2.3663
  522MOL0     H70442   1.423   6.075   7.155  0.0098  0.8453 -1.3092
  522MOL0     H70443   1.459   6.189   7.286 -0.3696  1.0730  0.4134
  522MOL0     H70444   1.551   6.251   6.992  0.7555 -0.3990  0.2622
  522MOL0     H70445   1.624   6.316   7.120  2.6353 -3.0434  0.7562
  522MOL0     H70446   1.319   6.309   7.098 -0.1376  0.5392  0.5060
  522MOL0     H70447   1.412   6.411   7.206  2.1396 -0.9447  0.3862
  522MOL0     H70448   1.354   6.446   6.911 -0.9895 -3.4084  1.0304
  522MOL0     H70449   1.512   6.509   6.969 -0.7794  3.6417  1.8141
  522MOL0     H70450   1.386   6.629   7.143 -1.6330  0.3343  1.5650
  522MOL0     H70451   1.234   6.594   7.073  0.0163  0.8817  1.0554
  522MOL0     H70452   1.896   5.946   7.069  0.3175 -1.2430 -0.3774
  522MOL0     H70453   2.136   6.004   7.044 -2.6708 -0.5429 -1.2222
  522MOL0     H70454   2.628   5.595   7.154  0.3833 -0.7615 -0.8178
  522MOL0     H70455   2.863   5.619   7.100 -1.5115 -1.5797  2.4210
  522MOL0     H70456   3.114   7.014   5.664 -0.2239 -0.7122 -1.9424
  522MOL0     H70457   3.003   7.158   5.489  0.7096  0.7951 -0.7050
  522MOL0     H70458   2.798   7.531   5.234  1.0316 -0.8781 -0.7491
  522MOL0     H70459   2.660   7.592   5.048  0.7101 -0.2214 -0.7275
  522MOL0     H70460   2.367   7.323   4.939 -1.2090 -0.7596 -1.9548
  522MOL0     H70461   2.221   7.425   4.965  0.2714  1.5425 -0.7948
  522MOL0     H70462   2.419   7.475   4.739 -0.0550 -1.3428 -0.6528
  522MOL0     H70463   2.263   7.567   4.789  2.0505  1.0904  2.1262
  522MOL0     H70464   2.147   7.342   4.753 -0.4567 -0.8110 -2.9114
  522MOL0     H70465   2.298   7.274   4.701  2.4385  1.1789 -1.3786
  522MOL0     H70466   2.144   7.336   4.505 -1.7588  0.4917  1.2152
  522MOL0     H70467   2.306   7.407   4.494 -0.9151  1.1162 -0.3176
  522MOL0     H70468   2.081   7.750   4.548 -1.1790  0.1665 -1.7177
  522MOL0     H70469   2.366   7.299   5.156  0.6376  0.0854  0.3041
  522MOL0     H70470   2.513   7.201   5.306 -0.7873  0.8149  0.9042
  523MOL0     O70471   9.900   0.528   9.399  0.0817  0.4752  1.0789
  523MOL0     C70472   9.861   0.594   9.305  0.3005 -0.3296 -0.3546
  523MOL0     O70473   9.838   0.736   9.322 -0.5418  0.4908  0.3781
  523MOL0     C70474   9.897   0.794   9.428  0.4415 -0.2496 -0.4581
  523MOL0     C70475  10.030   0.837   9.413  0.0723  0.4407 -0.9181
  523MOL0     C70476  10.080   0.903   9.524 -0.3902  0.3735 -0.5052
  523MOL0     C70477  10.004   0.924   9.644 -0.0038  0.3640 -0.5700
  523MOL0     O70478  10.053   0.996   9.752 -0.1375 -0.5638 -0.1615
  523MOL0     C70479  10.141   0.916   9.827 -0.0380 -0.2913  1.1646
  523MOL0     C70480  10.200   1.000   9.946 -0.4526  0.6951 -0.0557
  523MOL0     C70481  10.291   1.109   9.887  1.3783  0.2967  1.6510
  523MOL0     C70482  10.335   1.198  10.003 -0.0869  0.1004  0.7014
  523MOL0     C70483  10.429   1.294   9.934  0.2851  0.0694  0.2413
  523MOL0     C70484  10.494   1.375  10.045 -0.6169  0.0326 -0.4597
  523MOL0     C70485  10.563   1.502   9.997 -0.9235  0.2454  0.2518
  523MOL0     C70486  10.450   1.603   9.969  0.2971 -0.5890  0.3146
  523MOL0     N70487  10.505   1.727   9.905  0.0467 -1.0105 -0.0711
  523MOL0     C70488  10.613   1.795   9.960 -0.0397  0.6033 -0.4972
  523MOL0     C70489  10.627   1.889   9.862 -0.6313  0.4064 -0.6973
  523MOL0     C70490  10.740   1.989   9.879 -0.0732  0.6146 -0.1587
  523MOL0     C70491  10.862   1.977   9.794 -0.8652  0.0401  0.7493
  523MOL0     C70492  10.926   1.836   9.811  0.0927 -1.0574  0.2185
  523MOL0     C70493  11.074   1.835   9.756  0.0700 -0.0162 -0.3549
  523MOL0     O70494  11.151   1.928   9.841 -0.0072 -0.0782 -0.1531
  523MOL0     C70495  11.249   1.995   9.779 -0.0280 -0.3855  0.6139
  523MOL0     C70496  11.356   1.927   9.745 -0.9803 -0.7348  0.0248
  523MOL0     C70497  11.463   1.976   9.666  0.0387  0.7114  0.3586
  523MOL0     C70498  11.577   1.886   9.629  0.2684 -0.2270  0.5054
  523MOL0     C70499  11.450   2.111   9.619 -0.6669  0.4960  0.3839
  523MOL0     C70500  11.549   2.180   9.539 -0.7883  0.3026  0.5971
  523MOL0     O70501  11.676   2.181   9.589  0.0642  0.7130 -0.1233
  523MOL0     C70502  11.757   2.277   9.548  0.7136 -0.4628  0.2014
  523MOL0     C70503  11.860   2.248   9.451 -0.1077 -0.5126 -0.1959
  523MOL0     C70504  11.948   2.356   9.399  0.8988  1.0608  0.2011
  523MOL0     C70505  11.938   2.482   9.442  0.3639 -0.6352 -0.1457
  523MOL0     O70506  12.011   2.592   9.407 -0.6574 -0.5721 -0.9426
  523MOL0     C70507  12.136   2.574   9.332 -0.1074  0.2127 -0.8631
  523MOL0     C70508  12.248   2.561   9.440  0.1878 -0.2758  0.5374
  523MOL0     C70509  12.376   2.615   9.389 -0.1391 -0.5218 -0.2007
  523MOL0     C70510  12.493   2.614   9.495 -0.2736 -0.8898 -0.4906
  523MOL0     C70511  12.467   2.708   9.612  0.0026  0.1598 -0.3438
  523MOL0     C70512  12.564   2.697   9.726  0.1535  0.5603  0.0041
  523MOL0     C70513  12.711   2.746   9.698  0.3863  0.0799  0.2539
  523MOL0     C70514  12.801   2.776   9.817 -0.2560  0.5065  0.8666
  523MOL0    Cl70515  12.769   2.662   9.951 -0.3301  0.3030  0.2461
  523MOL0     C70516  11.832   2.507   9.535  0.2577 -0.2408  0.0288
  523MOL0     C70517  11.741   2.414   9.580 -0.1042 -0.7293  0.3661
  523MOL0     O70518  11.505   2.256   9.454 -0.4764  0.1927 -0.6954
  523MOL0     C70519  11.335   2.187   9.657 -0.8216  0.1686  0.5783
  523MOL0     C70520  11.236   2.130   9.735  0.1782  0.7232 -0.6327
  523MOL0     N70521  10.529   1.880   9.757  0.5787  0.4743 -0.6943
  523MOL0     N70522  10.467   1.772   9.783  0.3382 -0.4964  0.2709
  523MOL0     C70523   9.885   0.864   9.658  0.9153  0.2653 -0.9728
  523MOL0     C70524   9.829   0.799   9.543  0.5657 -0.1113  0.2525
  523MOL0     C70525   9.829   0.509   9.192 -0.5451 -0.0030 -1.1843
  523MOL0     C70526   9.791   0.381   9.207  0.8521  0.3854  0.4138
  523MOL0     C70527   9.764   0.309   9.088  0.9124 -0.5306  0.0521
  523MOL0     C70528   9.788   0.355   8.956 -0.3690 -0.6080 -0.8465
  523MOL0     O70529   9.775   0.276   8.845 -0.0394  0.5513 -0.1256
  523MOL0     C70530   9.848   0.324   8.736 -0.3468  0.4239  0.0504
  523MOL0     C70531   9.823   0.223   8.626  0.1277 -0.5403  0.0947
  523MOL0     C70532   9.873   0.079   8.632  0.7445 -0.0250 -0.5444
  523MOL0     C70533  10.017   0.070   8.681  0.0751  0.7398 -0.7474
  523MOL0     C70534  10.106   0.168   8.618  0.6255  0.4207  0.7663
  523MOL0     C70535  10.167   0.255   8.561 -0.0296 -1.0040 -0.1839
  523MOL0     C70536   9.827   0.497   8.947  0.2453  0.1434  0.1032
  523MOL0     C70537   9.848   0.572   9.064  0.6650 -0.0907  0.8824
  523MOL0     H70538  10.083   0.822   9.319 -2.1132  2.0200 -2.4960
  523MOL0     H70539  10.175   0.955   9.517  1.5386 -2.6583  0.9730
  523MOL0     H70540  10.076   0.835   9.862  0.6157 -0.4607  2.0167
  523MOL0     H70541  10.224   0.873   9.770  0.6837  1.5289  0.8036
  523MOL0     H70542  10.119   1.038  10.010  0.5106  0.1447  1.5535
  523MOL0     H70543  10.268   0.936  10.004  0.2913  1.1507 -0.4186
  523MOL0     H70544  10.380   1.071   9.836  0.0936  1.5713 -1.8879
  523MOL0     H70545  10.243   1.174   9.813  2.5150 -2.4154 -1.7381
  523MOL0     H70546  10.249   1.254  10.039 -1.3854 -1.7869  0.6763
  523MOL0     H70547  10.384   1.144  10.085  0.0498 -2.5388 -0.9810
  523MOL0     H70548  10.509   1.239   9.885 -0.0329 -0.2816  0.1111
  523MOL0     H70549  10.383   1.355   9.856  1.1735 -0.2952 -0.5790
  523MOL0     H70550  10.421   1.395  10.123  0.1332 -0.2486  0.3220
  523MOL0     H70551  10.563   1.304  10.091  0.7727 -0.3695 -2.9439
  523MOL0     H70552  10.645   1.534  10.062  0.5865  1.4460 -2.1170
  523MOL0     H70553  10.612   1.479   9.902 -2.3413  1.0444 -0.7001
  523MOL0     H70554  10.399   1.635  10.060 -0.2214 -0.7177  0.0741
  523MOL0     H70555  10.371   1.562   9.905  1.2743 -0.7160 -0.8444
  523MOL0     H70556  10.656   1.780  10.058 -0.4762 -0.5853 -0.4740
  523MOL0     H70557  10.700   2.091   9.873  3.6212  2.5705  3.0952
  523MOL0     H70558  10.770   1.978   9.984 -0.2548 -4.9805 -0.3948
  523MOL0     H70559  10.932   2.054   9.829 -0.4490  1.2466 -2.3997
  523MOL0     H70560  10.840   1.988   9.688  0.4992 -2.6128  0.1111
  523MOL0     H70561  10.874   1.765   9.746  1.6770  0.1476 -2.5700
  523MOL0     H70562  10.926   1.815   9.918 -1.3994  0.8581  0.6371
  523MOL0     H70563  11.065   1.869   9.652 -1.2734 -0.4411 -0.3962
  523MOL0     H70564  11.116   1.735   9.768  2.8087  1.3984  5.0570
  523MOL0     H70565  11.361   1.825   9.782  0.1516  0.0989  2.4123
  523MOL0     H70566  11.659   1.940   9.581  1.8296 -1.7667  1.3485
  523MOL0     H70567  11.618   1.832   9.714  0.6819 -0.1556  0.3508
  523MOL0     H70568  11.535   1.813   9.559 -0.3252 -0.8176  1.4599
  523MOL0     H70569  11.880   2.143   9.432 -3.1698 -1.7670  2.5315
  523MOL0     H70570  12.022   2.320   9.329 -0.3739 -0.9873 -0.1677
  523MOL0     H70571  12.123   2.488   9.267 -3.3000  0.0296 -0.1697
  523MOL0     H70572  12.148   2.662   9.267 -0.7576  2.2801  1.6344
  523MOL0     H70573  12.215   2.617   9.528 -0.8743  0.6120 -0.4010
  523MOL0     H70574  12.256   2.453   9.456 -0.7055 -0.1999  1.6614
  523MOL0     H70575  12.348   2.717   9.363  0.5208 -0.6801 -1.6475
  523MOL0     H70576  12.407   2.560   9.300 -1.3392 -1.7327  0.1000
  523MOL0     H70577  12.513   2.514   9.535  0.5327 -0.3506  0.5104
  523MOL0     H70578  12.577   2.658   9.439 -1.5138  0.3639 -1.4342
  523MOL0     H70579  12.377   2.665   9.657 -1.3377  0.7677 -2.3156
  523MOL0     H70580  12.457   2.811   9.579  4.2018  0.2194 -1.9981
  523MOL0     H70581  12.526   2.763   9.804  2.4110  1.2663  0.5812
  523MOL0     H70582  12.568   2.596   9.766  0.5230 -0.1048 -1.6337
  523MOL0     H70583  12.701   2.826   9.625 -3.5742 -2.5028 -2.4547
  523MOL0     H70584  12.762   2.664   9.647  0.6858  0.2804  0.2265
  523MOL0     H70585  12.790   2.875   9.862 -1.4240  0.8574 -0.1321
  523MOL0     H70586  12.901   2.760   9.777 -0.4147  2.7716 -0.6511
  523MOL0     H70587  11.814   2.607   9.573 -2.5915 -0.1278 -1.3443
  523MOL0     H70588  11.663   2.452   9.645 -0.0437  1.4859 -0.7576
  523MOL0     H70589  11.306   2.287   9.627  0.5933  0.6393  0.6670
  523MOL0     H70590  11.148   2.183   9.771  0.2649 -0.6912  1.9037
  523MOL0     H70591   9.826   0.883   9.748  1.6021  0.5397 -0.5765
  523MOL0     H70592   9.727   0.761   9.540  1.1376 -1.7977 -2.5361
  523MOL0     H70593   9.793   0.324   9.299  0.1948 -0.0074  0.1921
  523MOL0     H70594   9.736   0.205   9.098 -0.9330  0.1478  2.8089
  523MOL0     H70595   9.805   0.417   8.700  1.0966  0.2138 -2.4239
  523MOL0     H70596   9.953   0.330   8.766 -0.0574  0.5058 -0.9358
  523MOL0     H70597   9.872   0.268   8.538  1.0222  0.3350  1.0171
  523MOL0     H70598   9.714   0.229   8.622  0.2333  2.7236 -2.4245
  523MOL0     H70599   9.857   0.038   8.532 -0.0934  1.6631 -1.1342
  523MOL0     H70600   9.805   0.022   8.696  0.4625  1.0906  0.1807
  523MOL0     H70601  10.056  -0.032   8.668 -1.0337  0.1374  0.3865
  523MOL0     H70602  10.027   0.093   8.787  0.8606 -2.7051  0.0391
  523MOL0     H70603  10.222   0.329   8.507 -0.6639  0.6958  1.3629
  523MOL0     H70604   9.850   0.553   8.857  0.8558  1.4730  1.0521
  523MOL0     H70605   9.890   0.672   9.068 -0.5996  0.4229  2.7710
  524MOL0     O70606   3.757   3.269   9.995  0.1208 -1.1375  0.5725
  524MOL0     C70607   3.744   3.164   9.933 -0.3855  0.7997 -0.2561
  524MOL0     O70608   3.806   3.044   9.972 -0.6718  0.4143  0.9853
  524MOL0     C70609   3.896   3.060  10.078  0.8365  0.5748  0.3287
  524MOL0     C70610   3.857   3.001  10.197 -0.5012 -0.3646  0.9349
  524MOL0     C70611   3.946   2.998  10.305  0.9437  0.3854 -0.9211
  524MOL0     C70612   4.065   3.063  10.296 -0.2544  0.3590 -0.4889
  524MOL0     O70613   4.144   3.065  10.413 -0.4543 -0.2578  0.4970
  524MOL0     C70614   4.235   3.174  10.433  0.0493  0.7521 -1.2207
  524MOL0     C70615   4.188   3.241  10.568  0.5742 -0.2122 -0.0952
  524MOL0     C70616   4.274   3.360  10.591 -0.8897  0.6975  0.5700
  524MOL0     C70617   4.197   3.466  10.684 -0.6169 -0.4942  0.7337
  524MOL0     C70618   4.279   3.592  10.687 -0.6593 -0.7995  0.4450
  524MOL0     C70619   4.224   3.697  10.770 -0.5123 -0.2467 -0.2325
  524MOL0     C70620   4.093   3.763  10.722  0.5481 -0.3119  0.4040
  524MOL0     C70621   4.063   3.892  10.798 -0.3653 -0.2407 -0.7143
  524MOL0     N70622   4.027   3.872  10.939  0.4233 -0.4054 -1.3201
  524MOL0     C70623   3.919   3.810  10.997  0.4497 -0.2693  0.5201
  524MOL0     C70624   3.928   3.825  11.133 -0.0265  0.3557  1.4145
  524MOL0     C70625   3.837   3.762  11.235 -1.0155 -0.4868  0.7519
  524MOL0     C70626   3.701   3.818  11.232 -0.2030  0.5333 -0.1973
  524MOL0     C70627   3.617   3.749  11.351  0.3268 -0.1409  0.0825
  524MOL0     C70628   3.470   3.802  11.347 -0.4863 -0.8987 -0.7811
  524MOL0     O70629   3.467   3.940  11.392 -0.2310  0.0217  0.1599
  524MOL0     C70630   3.332   3.988  11.395  0.3402 -0.5307  0.2367
  524MOL0     C70631   3.303   4.088  11.485  0.1280  0.5135  0.1739
  524MOL0     C70632   3.177   4.153  11.489  0.6584  0.6112 -0.4165
  524MOL0     C70633   3.145   4.237  11.606  0.4929 -0.8586 -0.1940
  524MOL0     C70634   3.079   4.108  11.387 -0.2126 -0.0428 -0.1276
  524MOL0     C70635   2.940   4.151  11.384 -1.2598 -0.0556 -0.7908
  524MOL0     O70636   2.878   4.134  11.270 -0.3658  0.1123 -0.4335
  524MOL0     C70637   2.747   4.163  11.262  0.5151  0.1021  0.7126
  524MOL0     C70638   2.669   4.073  11.180 -0.1953  0.2695 -0.2052
  524MOL0     C70639   2.526   4.098  11.166  0.3401 -0.1553 -0.5543
  524MOL0     C70640   2.462   4.205  11.223  0.1153 -0.1714  0.4799
  524MOL0     O70641   2.328   4.218  11.214 -0.2019 -0.0935 -0.0296
  524MOL0     C70642   2.270   4.262  11.339 -0.0728  0.5376 -0.5173
  524MOL0     C70643   2.125   4.216  11.353 -0.0320  0.1036  1.0636
  524MOL0     C70644   2.104   4.066  11.325 -0.6326 -0.2365  0.8022
  524MOL0     C70645   1.952   4.033  11.321 -0.4861 -0.0679 -0.2790
  524MOL0     C70646   1.928   3.884  11.303  0.4793  0.7973 -0.5757
  524MOL0     C70647   1.784   3.835  11.327 -0.4557  0.5476  0.4885
  524MOL0     C70648   1.727   3.886  11.459 -0.2496 -0.1191  1.3941
  524MOL0     C70649   1.621   3.784  11.500 -0.3399  0.6933  0.0740
  524MOL0    Cl70650   1.693   3.632  11.552  0.2314 -0.1997  0.7862
  524MOL0     C70651   2.541   4.296  11.295  0.7066 -0.5930 -0.6707
  524MOL0     C70652   2.677   4.276  11.313  0.0202 -0.0963 -0.0594
  524MOL0     O70653   2.890   4.186  11.490  0.3004 -0.8681  0.5874
  524MOL0     C70654   3.118   4.015  11.296  0.6972 -0.3422  0.5694
  524MOL0     C70655   3.237   3.951  11.298  0.5773 -0.2407 -0.1559
  524MOL0     N70656   4.037   3.907  11.145 -0.2239  0.0833 -0.7352
  524MOL0     N70657   4.104   3.917  11.041  0.3603 -0.3381 -0.7266
  524MOL0     C70658   4.103   3.118  10.167  0.0254 -0.9247  0.3370
  524MOL0     C70659   4.019   3.110  10.058  0.5099  0.1342  1.0502
  524MOL0     C70660   3.637   3.168   9.830  0.5496 -0.0544 -0.2672
  524MOL0     C70661   3.600   3.286   9.762 -0.4562 -0.7210 -1.1101
  524MOL0     C70662   3.485   3.289   9.682 -0.1071 -0.4931 -0.8782
  524MOL0     C70663   3.419   3.170   9.649  0.3248 -0.5093 -0.2821
  524MOL0     O70664   3.331   3.162   9.549  0.0095 -0.2131 -0.0320
  524MOL0     C70665   3.205   3.230   9.554  0.3601 -0.2547  0.4384
  524MOL0     C70666   3.126   3.237   9.413 -0.0539  0.6237 -0.0926
  524MOL0     C70667   3.188   3.295   9.286 -0.1432 -0.3474  0.1507
  524MOL0     C70668   3.098   3.284   9.158 -0.1039 -0.1866 -0.3772
  524MOL0     C70669   2.989   3.382   9.143  0.7864 -0.0040 -0.3263
  524MOL0     C70670   2.892   3.458   9.134 -0.0229  0.1524  0.5112
  524MOL0     C70671   3.463   3.053   9.709  0.3874 -0.5215 -1.0065
  524MOL0     C70672   3.571   3.051   9.799 -0.3179  0.0018  0.2400
  524MOL0     H70673   3.758   2.961  10.215 -0.3953 -0.3402  1.5912
  524MOL0     H70674   3.914   2.967  10.404 -1.3844  0.3886 -1.6125
  524MOL0     H70675   4.332   3.134  10.464 -0.2658  0.0431 -1.1371
  524MOL0     H70676   4.240   3.250  10.355  1.2775  0.7144 -1.2041
  524MOL0     H70677   4.094   3.291  10.542  0.9926 -0.1244 -1.5391
  524MOL0     H70678   4.190   3.170  10.651 -1.4531 -0.5164 -0.2480
  524MOL0     H70679   4.368   3.339  10.642 -0.4095  0.1248 -0.5256
  524MOL0     H70680   4.302   3.402  10.494 -0.3020  1.5999  1.1186
  524MOL0     H70681   4.097   3.486  10.643  0.6747  2.5676 -1.2844
  524MOL0     H70682   4.187   3.429  10.787 -1.0322 -2.1512  0.1157
  524MOL0     H70683   4.385   3.581  10.711  0.0331  2.2250 -0.6504
  524MOL0     H70684   4.275   3.626  10.583  0.2665 -1.6401  0.1197
  524MOL0     H70685   4.201   3.667  10.873 -0.5010  1.1067  0.1861
  524MOL0     H70686   4.307   3.768  10.775  1.5723 -2.0511 -4.1524
  524MOL0     H70687   4.104   3.790  10.616 -1.7520 -0.2946  0.1073
  524MOL0     H70688   4.015   3.687  10.733  0.3265 -0.3603 -1.2611
  524MOL0     H70689   3.986   3.945  10.741  0.2374  0.0593 -1.2622
  524MOL0     H70690   4.154   3.953  10.800 -0.2789 -0.3000 -1.8648
  524MOL0     H70691   3.857   3.756  10.927  0.5033 -0.8201  0.8889
  524MOL0     H70692   3.839   3.655  11.214  0.2069 -0.3856  0.2265
  524MOL0     H70693   3.888   3.761  11.332  5.2703 -2.7132 -2.0519
  524MOL0     H70694   3.657   3.802  11.133  0.7089 -1.3449 -0.3324
  524MOL0     H70695   3.706   3.926  11.252  1.8216 -0.1233  3.9983
  524MOL0     H70696   3.665   3.786  11.442  0.0971  0.9509 -0.2185
  524MOL0     H70697   3.611   3.640  11.352  0.0958 -0.1483 -0.7767
  524MOL0     H70698   3.401   3.747  11.412  0.1502  1.8947  2.6069
  524MOL0     H70699   3.430   3.798  11.246  1.8856 -1.2480 -1.7797
  524MOL0     H70700   3.382   4.122  11.551 -0.1032 -0.3127  0.8974
  524MOL0     H70701   3.229   4.248  11.674  1.7085  0.8731 -1.8717
  524MOL0     H70702   3.127   4.339  11.569  4.0985 -0.9535 -2.6872
  524MOL0     H70703   3.058   4.199  11.661  0.0691 -0.2597 -0.4335
  524MOL0     H70704   2.702   3.972  11.156 -0.7358 -0.1479  0.7654
  524MOL0     H70705   2.465   4.018  11.125 -0.0287 -0.5559  0.7237
  524MOL0     H70706   2.313   4.227  11.433  0.3938 -1.6486 -1.4663
  524MOL0     H70707   2.272   4.371  11.349  1.6886  0.3121  3.9964
  524MOL0     H70708   2.084   4.239  11.452 -1.5328 -1.4847  0.8556
  524MOL0     H70709   2.067   4.261  11.272  0.2291 -1.5721 -0.0845
  524MOL0     H70710   2.160   4.010  11.401 -1.6144 -2.4108  0.0067
  524MOL0     H70711   2.146   4.043  11.227 -1.0250  0.5819  0.4392
  524MOL0     H70712   1.895   4.067  11.408  2.0315  0.3431  1.3022
  524MOL0     H70713   1.907   4.077  11.232  0.2828  1.3290 -0.0049
  524MOL0     H70714   1.989   3.838  11.381  1.4965 -2.3629 -3.0132
  524MOL0     H70715   1.969   3.829  11.217  0.2438 -1.7562  0.8279
  524MOL0     H70716   1.718   3.860  11.244  1.0657 -0.0047 -0.9329
  524MOL0     H70717   1.793   3.726  11.331  1.5377  0.6548 -0.0680
  524MOL0     H70718   1.678   3.983  11.446  0.6424 -0.0607 -2.6118
  524MOL0     H70719   1.811   3.885  11.531 -0.3263 -3.4741  1.5784
  524MOL0     H70720   1.545   3.763  11.423 -0.2323 -2.3381  0.6737
  524MOL0     H70721   1.573   3.829  11.587  0.9897  2.2695  0.0180
  524MOL0     H70722   2.488   4.384  11.331  2.0675  0.6226 -1.5441
  524MOL0     H70723   2.733   4.350  11.369 -1.1574  2.5638 -2.1950
  524MOL0     H70724   3.060   3.976  11.212  1.4715 -2.8680  1.1011
  524MOL0     H70725   3.247   3.873  11.222 -0.6011 -3.4478  2.7084
  524MOL0     H70726   4.194   3.173  10.147 -0.4701 -0.5796 -1.0885
  524MOL0     H70727   4.052   3.138   9.958  0.8406 -3.2991  0.0570
  524MOL0     H70728   3.656   3.377   9.783  1.2163 -2.3359  2.0119
  524MOL0     H70729   3.441   3.375   9.633 -0.7511 -0.5100 -0.3437
  524MOL0     H70730   3.147   3.182   9.633  0.2560  1.0915  1.2046
  524MOL0     H70731   3.223   3.331   9.594  1.2308  1.8294 -4.4553
  524MOL0     H70732   3.033   3.288   9.440 -0.1057 -0.8431  2.9965
  524MOL0     H70733   3.104   3.132   9.390 -0.1440  1.3220 -3.8490
  524MOL0     H70734   3.285   3.248   9.265  0.9227  1.7911  0.0074
  524MOL0     H70735   3.216   3.399   9.301  1.4439 -0.8078  0.6541
  524MOL0     H70736   3.058   3.182   9.148  0.8892 -1.0687  3.2512
  524MOL0     H70737   3.149   3.295   9.062 -0.7308 -0.5887 -0.7595
  524MOL0     H70738   2.807   3.522   9.125  2.1646  3.0551 -2.0817
  524MOL0     H70739   3.406   2.966   9.678 -0.5922 -0.2684  0.0172
  524MOL0     H70740   3.605   2.957   9.839 -5.1046 -3.7614 -3.3310
  525MOL0     O70741   3.846   0.711   2.188 -0.6147 -0.6140  0.3103
  525MOL0     C70742   3.782   0.810   2.223 -0.0222 -0.4736  0.4043
  525MOL0     O70743   3.663   0.808   2.289 -0.4473 -0.0541 -0.2258
  525MOL0     C70744   3.610   0.690   2.340 -0.0524 -0.1590 -0.0609
  525MOL0     C70745   3.582   0.585   2.261  0.6014  0.7481  0.1201
  525MOL0     C70746   3.531   0.465   2.319  1.2498 -0.0553  0.6287
  525MOL0     C70747   3.503   0.460   2.454 -0.3801 -0.1283  0.0718
  525MOL0     O70748   3.454   0.348   2.511 -0.2532 -0.8943  0.1830
  525MOL0     C70749   3.542   0.232   2.522 -0.4828  0.1282  0.3890
  525MOL0     C70750   3.453   0.133   2.586  0.3492  0.8739 -0.1902
  525MOL0     C70751   3.526   0.009   2.644  0.0042 -0.5622 -0.9310
  525MOL0     C70752   3.445  -0.128   2.639  0.1663 -0.4420 -0.2781
  525MOL0     C70753   3.534  -0.243   2.693  0.0380  0.8749 -0.1596
  525MOL0     C70754   3.640  -0.294   2.605  0.3258 -0.7148  0.1260
  525MOL0     C70755   3.716  -0.420   2.657  0.7197 -0.6694  0.5661
  525MOL0     C70756   3.744  -0.507   2.539  0.1081  0.1179  0.3840
  525MOL0     N70757   3.853  -0.603   2.564  0.6634 -0.0886 -0.3874
  525MOL0     C70758   3.849  -0.740   2.595 -0.5407  1.5600  0.8931
  525MOL0     C70759   3.970  -0.796   2.566 -0.1596 -0.0544 -0.5846
  525MOL0     C70760   4.003  -0.936   2.556 -0.1276  0.7341  0.0947
  525MOL0     C70761   3.927  -1.025   2.455  0.6095 -0.5222 -0.1568
  525MOL0     C70762   3.928  -1.172   2.487  1.0248  0.0118  0.1559
  525MOL0     C70763   4.071  -1.219   2.502  0.8714  0.8285  0.2447
  525MOL0     O70764   4.070  -1.336   2.584  0.0054  0.9300  0.5264
  525MOL0     C70765   4.032  -1.452   2.520 -0.0542  0.1726  0.1473
  525MOL0     C70766   3.924  -1.518   2.564 -0.1479 -0.2757  0.3183
  525MOL0     C70767   3.870  -1.634   2.499 -0.2407  0.0077  0.4778
  525MOL0     C70768   3.765  -1.719   2.565 -0.3439 -0.4981 -0.4764
  525MOL0     C70769   3.934  -1.675   2.373  0.7323  0.2104  0.1324
  525MOL0     C70770   3.879  -1.771   2.282  0.1850 -0.4587 -0.0880
  525MOL0     O70771   3.761  -1.729   2.237  0.0164  0.2107  0.0027
  525MOL0     C70772   3.664  -1.819   2.185 -0.0496 -0.3829 -0.7814
  525MOL0     C70773   3.678  -1.854   2.057 -0.3486  0.3114 -0.5112
  525MOL0     C70774   3.569  -1.908   1.985  0.7172 -0.6376 -0.0653
  525MOL0     C70775   3.445  -1.935   2.042 -0.1940  0.5552 -0.7184
  525MOL0     O70776   3.334  -1.975   1.972 -0.0520 -0.8057  0.7398
  525MOL0     C70777   3.219  -1.891   1.966 -0.1671  0.2620  0.0370
  525MOL0     C70778   3.119  -1.932   1.860 -0.2793  0.3116 -0.7013
  525MOL0     C70779   3.172  -1.946   1.713  1.2578 -0.5201 -0.5134
  525MOL0     C70780   3.126  -2.066   1.635  0.4202 -0.6596  0.0191
  525MOL0     C70781   3.165  -2.064   1.489 -0.7735 -0.0465 -0.4894
  525MOL0     C70782   3.066  -2.154   1.413  0.3356  0.6415  0.0369
  525MOL0     C70783   3.094  -2.168   1.263 -0.2565 -0.1434 -0.6400
  525MOL0     C70784   2.984  -2.252   1.187  0.3076 -0.4685  0.3685
  525MOL0    Cl70785   3.046  -2.321   1.035  0.0368 -0.2112 -0.1903
  525MOL0     C70786   3.436  -1.912   2.175 -0.6034 -0.6200 -0.9790
  525MOL0     C70787   3.542  -1.851   2.252  0.4312 -1.2503  0.8609
  525MOL0     O70788   3.938  -1.875   2.250  0.5295 -0.3998  0.6587
  525MOL0     C70789   4.052  -1.611   2.337  0.2535 -0.3262  0.4360
  525MOL0     C70790   4.096  -1.498   2.404  0.0587 -0.0790 -0.2921
  525MOL0     N70791   4.049  -0.685   2.521 -0.1698  0.4511 -0.3067
  525MOL0     N70792   3.985  -0.571   2.519  1.0123 -0.2990 -0.9258
  525MOL0     C70793   3.549   0.564   2.536 -0.4836 -0.0198 -0.6489
  525MOL0     C70794   3.597   0.679   2.480 -0.2131  0.4048 -0.5680
  525MOL0     C70795   3.828   0.945   2.177  0.4378  1.3314  0.2613
  525MOL0     C70796   3.956   0.958   2.129  0.3780  0.4861  0.9435
  525MOL0     C70797   4.007   1.086   2.090 -0.0520  1.3656  0.0299
  525MOL0     C70798   3.919   1.196   2.089 -0.4489  0.0528 -0.6153
  525MOL0     O70799   3.946   1.323   2.052 -1.2928  0.1264 -0.3660
  525MOL0     C70800   4.073   1.334   1.986 -0.7991  0.4412  0.1269
  525MOL0     C70801   4.071   1.468   1.903  0.0653  0.2177  0.1048
  525MOL0     C70802   4.200   1.486   1.827 -0.3968  0.9084 -0.3273
  525MOL0     C70803   4.301   1.573   1.897  0.6587 -1.2711  1.1673
  525MOL0     C70804   4.317   1.536   2.036 -0.6463  0.8854  0.2839
  525MOL0     C70805   4.340   1.490   2.149 -0.5812 -0.2089  0.2574
  525MOL0     C70806   3.789   1.182   2.134 -0.5560  1.3088 -0.3036
  525MOL0     C70807   3.748   1.057   2.172  0.1541  1.2878  0.0102
  525MOL0     H70808   3.598   0.589   2.154 -0.5326 -0.4452 -0.1263
  525MOL0     H70809   3.492   0.393   2.249  1.5898  1.4799 -1.2114
  525MOL0     H70810   3.593   0.202   2.430 -0.1877  1.3855  0.1214
  525MOL0     H70811   3.620   0.246   2.597 -1.5638 -0.4480  1.6624
  525MOL0     H70812   3.400   0.176   2.672  0.4528  0.2172  0.2131
  525MOL0     H70813   3.376   0.097   2.518  0.9618 -1.2083  0.1440
  525MOL0     H70814   3.632   0.002   2.616  0.8189 -0.1596  1.7962
  525MOL0     H70815   3.540   0.040   2.748  2.5639  0.6989 -1.5747
  525MOL0     H70816   3.351  -0.107   2.691 -0.1766 -2.6720  0.0793
  525MOL0     H70817   3.411  -0.141   2.536 -1.0998 -2.6432  0.3655
  525MOL0     H70818   3.583  -0.206   2.783  1.0579 -0.7499 -0.0037
  525MOL0     H70819   3.458  -0.318   2.720 -1.6298  1.4240 -3.0096
  525MOL0     H70820   3.601  -0.328   2.509 -3.0565 -3.3736  2.1844
  525MOL0     H70821   3.703  -0.205   2.602 -1.8021  1.1130  3.2375
  525MOL0     H70822   3.808  -0.386   2.705 -0.1576 -2.1254  3.4683
  525MOL0     H70823   3.653  -0.472   2.728 -0.7293 -1.5176 -1.2548
  525MOL0     H70824   3.783  -0.439   2.462  2.6152 -0.0978  1.3789
  525MOL0     H70825   3.647  -0.549   2.509 -0.2416  0.6889  0.7001
  525MOL0     H70826   3.757  -0.794   2.613 -0.5813  0.6557 -1.6648
  525MOL0     H70827   4.111  -0.943   2.541  0.0927  1.6666  1.1187
  525MOL0     H70828   3.987  -0.968   2.660 -2.0179  2.2321  0.3182
  525MOL0     H70829   3.974  -1.013   2.357  2.2314 -1.0638  0.5246
  525MOL0     H70830   3.824  -0.989   2.444  1.0979  1.4510  1.2716
  525MOL0     H70831   3.879  -1.231   2.409 -0.0911  1.9870 -0.6897
  525MOL0     H70832   3.870  -1.189   2.578 -1.8474 -0.2616 -1.6111
  525MOL0     H70833   4.135  -1.145   2.551 -0.6425  2.3695 -0.0028
  525MOL0     H70834   4.126  -1.234   2.408 -0.7821  2.6300 -1.1036
  525MOL0     H70835   3.869  -1.485   2.652  0.7821 -2.1170  1.6351
  525MOL0     H70836   3.799  -1.732   2.668 -0.5667  3.2193  0.2344
  525MOL0     H70837   3.669  -1.667   2.573 -1.6315 -1.7592 -4.8077
  525MOL0     H70838   3.743  -1.814   2.517 -0.7223  0.4747 -2.3339
  525MOL0     H70839   3.768  -1.825   2.003  0.5975 -1.3925  0.0720
  525MOL0     H70840   3.577  -1.936   1.881 -0.3099  0.9992 -0.6086
  525MOL0     H70841   3.175  -1.888   2.065  2.9162 -1.8284  1.6393
  525MOL0     H70842   3.254  -1.793   1.931  1.9175  0.2237  1.8467
  525MOL0     H70843   3.096  -2.036   1.884 -2.0272  0.3392 -2.0467
  525MOL0     H70844   3.029  -1.870   1.857  0.5192  1.4680 -1.4830
  525MOL0     H70845   3.281  -1.957   1.715  1.5257  1.6899 -0.6750
  525MOL0     H70846   3.135  -1.860   1.657 -1.7464  0.9897  3.2871
  525MOL0     H70847   3.167  -2.158   1.678  1.9533  0.9362  2.1998
  525MOL0     H70848   3.017  -2.063   1.643  0.5418  0.8232  1.7115
  525MOL0     H70849   3.271  -2.086   1.472 -0.6638  0.0128  0.0925
  525MOL0     H70850   3.158  -1.961   1.452 -3.1665 -0.1103 -0.3465
  525MOL0     H70851   3.082  -2.251   1.461  3.4538  1.3443  0.6254
  525MOL0     H70852   2.962  -2.121   1.419  0.6575  1.8177 -0.6670
  525MOL0     H70853   3.179  -2.235   1.248  0.3657  0.7063 -0.9631
  525MOL0     H70854   3.115  -2.069   1.222 -0.5246  0.2088  0.0571
  525MOL0     H70855   2.902  -2.183   1.162  0.6465 -1.5001 -4.7896
  525MOL0     H70856   2.947  -2.333   1.250  2.9526 -0.4447  2.0907
  525MOL0     H70857   3.340  -1.922   2.224 -0.3958 -2.3764 -0.8757
  525MOL0     H70858   3.533  -1.827   2.357  0.7127  0.0177  0.6022
  525MOL0     H70859   4.104  -1.652   2.252 -0.5036  0.1443 -0.2642
  525MOL0     H70860   4.185  -1.446   2.370  0.6710 -0.3774  0.7901
  525MOL0     H70861   3.557   0.556   2.644  1.3413  1.1361 -0.6407
  525MOL0     H70862   3.616   0.767   2.540 -0.8911  1.0681 -1.3111
  525MOL0     H70863   4.023   0.873   2.121  0.6103  0.7765 -0.4593
  525MOL0     H70864   4.110   1.081   2.056  1.7469 -4.8624  4.4962
  525MOL0     H70865   4.151   1.331   2.063 -0.5567 -0.6866 -0.1393
  525MOL0     H70866   4.094   1.250   1.919  0.5737  0.2679  0.7257
  525MOL0     H70867   4.048   1.548   1.974  1.5302  1.0063 -0.2789
  525MOL0     H70868   3.989   1.474   1.831 -0.7374 -2.6694  0.6480
  525MOL0     H70869   4.180   1.534   1.731  3.2626 -0.8026 -2.1259
  525MOL0     H70870   4.242   1.387   1.805 -1.2760  0.1630  1.1337
  525MOL0     H70871   4.258   1.673   1.885 -0.9705 -1.6259  3.4105
  525MOL0     H70872   4.390   1.564   1.834  0.7641  1.5997  0.7778
  525MOL0     H70873   4.350   1.444   2.244  1.1489  0.6879  0.5423
  525MOL0     H70874   3.730   1.273   2.121 -0.7855  1.2548  0.3507
  525MOL0     H70875   3.642   1.054   2.196  0.0580  2.3026 -0.2402
  526MOL0     O70876   2.294   6.204   6.132  0.7663 -0.1436  0.8779
  526MOL0     C70877   2.320   6.275   6.230 -0.3327 -0.2795  0.3345
  526MOL0     O70878   2.338   6.223   6.360  0.7098 -0.3444 -0.4100
  526MOL0     C70879   2.346   6.088   6.381  0.9496 -1.5388  0.2168
  526MOL0     C70880   2.250   5.996   6.325 -0.6577 -1.2433 -0.1312
  526MOL0     C70881   2.250   5.856   6.339  0.1675  0.6843 -0.0080
  526MOL0     C70882   2.370   5.800   6.393  0.4529 -0.1020  0.1048
  526MOL0     O70883   2.409   5.669   6.392  0.6445 -0.0623  0.3129
  526MOL0     C70884   2.329   5.576   6.309  0.0071 -0.0841 -1.0322
  526MOL0     C70885   2.415   5.463   6.264  0.2025  0.2691 -0.8590
  526MOL0     C70886   2.547   5.493   6.199  0.4486 -0.2707 -0.1729
  526MOL0     C70887   2.548   5.571   6.071 -0.9950 -0.9341 -1.1352
  526MOL0     C70888   2.478   5.499   5.951 -0.2127 -0.3173 -0.1213
  526MOL0     C70889   2.483   5.588   5.830  0.6965 -0.6164  0.1634
  526MOL0     C70890   2.389   5.531   5.725  0.6782 -0.0346 -0.6545
  526MOL0     C70891   2.429   5.568   5.583 -0.2415 -0.5239  0.0471
  526MOL0     N70892   2.429   5.714   5.569  0.0807  0.0971 -0.1495
  526MOL0     C70893   2.311   5.785   5.566 -0.2793  0.2305 -0.0155
  526MOL0     C70894   2.349   5.908   5.564 -0.1834 -0.0126 -0.1605
  526MOL0     C70895   2.230   6.004   5.575 -0.1880  0.7382  0.0317
  526MOL0     C70896   2.146   6.012   5.443  0.1345  0.0127 -1.1780
  526MOL0     C70897   2.047   6.127   5.454 -0.3274  0.9857  0.3894
  526MOL0     C70898   1.939   6.125   5.350  0.9117  0.2213 -0.0570
  526MOL0     O70899   1.997   6.155   5.225  0.4477 -0.8348 -1.4615
  526MOL0     C70900   1.988   6.291   5.196 -0.1238 -0.0035 -0.2359
  526MOL0     C70901   2.094   6.380   5.241 -0.5273  0.1909  0.1832
  526MOL0     C70902   2.084   6.516   5.210 -0.4825  0.5712 -0.3797
  526MOL0     C70903   2.201   6.602   5.258  0.2675  0.6515  0.0970
  526MOL0     C70904   1.970   6.570   5.143 -0.8379  0.0777  0.2522
  526MOL0     C70905   1.959   6.709   5.090 -0.7504  0.4372 -0.3610
  526MOL0     O70906   1.894   6.716   4.970 -0.3457 -0.7461 -0.9328
  526MOL0     C70907   1.919   6.835   4.896  0.2898  0.1332  0.3732
  526MOL0     C70908   2.033   6.837   4.819 -0.4826 -0.4453  0.4913
  526MOL0     C70909   2.042   6.932   4.714  0.3083  0.0704 -0.0489
  526MOL0     C70910   1.951   7.043   4.711  0.8484  0.5606  1.0608
  526MOL0     O70911   1.979   7.154   4.641 -0.5663 -0.3869  0.3869
  526MOL0     C70912   1.874   7.200   4.559  0.3356  0.9326 -0.0566
  526MOL0     C70913   1.838   7.109   4.445  0.2256 -0.3002 -0.1894
  526MOL0     C70914   1.943   7.079   4.338 -0.6410  0.3811 -0.0103
  526MOL0     C70915   1.893   6.967   4.235  0.1021 -0.7615 -0.3667
  526MOL0     C70916   2.007   6.940   4.141  0.0557 -0.3439  0.0734
  526MOL0     C70917   2.039   7.044   4.031  0.3375 -0.6282 -0.1012
  526MOL0     C70918   1.914   7.090   3.968  0.0589 -0.5633  0.0862
  526MOL0     C70919   1.941   7.156   3.829  1.0756 -0.1004 -0.3202
  526MOL0    Cl70920   1.796   7.134   3.738 -0.0028  0.4211  0.3828
  526MOL0     C70921   1.844   7.040   4.808  0.4875 -0.5158  0.0594
  526MOL0     C70922   1.822   6.940   4.895 -0.6092  0.2396  0.3532
  526MOL0     O70923   1.987   6.808   5.165 -0.3144 -0.4115 -0.4278
  526MOL0     C70924   1.861   6.487   5.113 -0.2448  1.0922  0.6195
  526MOL0     C70925   1.872   6.345   5.134 -0.0630  0.7670 -0.7996
  526MOL0     N70926   2.486   5.918   5.569 -1.0099 -0.4862  0.2073
  526MOL0     N70927   2.533   5.797   5.568 -0.1811  0.3668  0.9106
  526MOL0     C70928   2.466   5.898   6.436 -0.5998 -0.2480 -0.1492
  526MOL0     C70929   2.456   6.036   6.435 -0.0140  0.1207 -0.5612
  526MOL0     C70930   2.306   6.422   6.206 -0.2925 -0.1302 -0.2634
  526MOL0     C70931   2.354   6.517   6.310 -1.0054  0.1986  0.4451
  526MOL0     C70932   2.362   6.650   6.280  0.6074 -0.0259 -0.5677
  526MOL0     C70933   2.311   6.702   6.160 -0.3835  0.1391  0.3193
  526MOL0     O70934   2.335   6.833   6.121  0.3393  0.5287 -0.2778
  526MOL0     C70935   2.333   6.943   6.222  0.8959  0.4929  0.0664
  526MOL0     C70936   2.295   7.078   6.158 -0.0644 -1.2178 -0.9481
  526MOL0     C70937   2.326   7.091   6.004  0.2883  0.1886 -0.1905
  526MOL0     C70938   2.291   7.227   5.950 -0.3048  0.6470 -0.0756
  526MOL0     C70939   2.347   7.236   5.816 -0.0498 -0.4318  0.1242
  526MOL0     C70940   2.366   7.244   5.693  0.3652 -0.1121 -0.1649
  526MOL0     C70941   2.256   6.614   6.073  0.2576  0.7044 -0.1391
  526MOL0     C70942   2.252   6.473   6.088  0.9644  0.0337  0.1612
  526MOL0     H70943   2.158   6.026   6.275  0.1692 -1.1241 -1.6349
  526MOL0     H70944   2.172   5.798   6.290 -1.6370  3.6348 -0.9203
  526MOL0     H70945   2.240   5.541   6.362  0.9378  0.7503  1.2393
  526MOL0     H70946   2.299   5.636   6.223  1.5223 -0.0721 -1.5863
  526MOL0     H70947   2.435   5.400   6.351 -1.9300  1.4160  0.5548
  526MOL0     H70948   2.354   5.411   6.189  0.0387 -0.3038 -0.3329
  526MOL0     H70949   2.611   5.539   6.274  0.5451  2.1443 -1.6413
  526MOL0     H70950   2.590   5.396   6.171 -0.3696 -0.4039 -1.0228
  526MOL0     H70951   2.487   5.660   6.089  0.3493 -0.3835  0.9825
  526MOL0     H70952   2.649   5.603   6.043 -1.9447  1.0473 -2.5522
  526MOL0     H70953   2.540   5.411   5.935  1.7699  1.2513 -1.6033
  526MOL0     H70954   2.379   5.462   5.980  0.5309 -1.1050  1.5383
  526MOL0     H70955   2.451   5.692   5.842  0.0339 -0.7209 -0.6194
  526MOL0     H70956   2.586   5.583   5.793  0.7278 -2.8590  0.3912
  526MOL0     H70957   2.390   5.423   5.741  1.4453 -0.0341 -0.6601
  526MOL0     H70958   2.292   5.575   5.750  1.6343  0.9801  1.5117
  526MOL0     H70959   2.372   5.523   5.502  1.8846 -1.8178 -0.8030
  526MOL0     H70960   2.533   5.543   5.561 -0.2490 -0.9723  0.5106
  526MOL0     H70961   2.213   5.738   5.574 -0.9631  0.7081 -3.8380
  526MOL0     H70962   2.163   5.977   5.658 -0.3340 -0.4124 -0.4502
  526MOL0     H70963   2.270   6.105   5.588 -0.0785  0.7680 -0.5195
  526MOL0     H70964   2.090   5.919   5.434  0.1397 -0.3872  1.9177
  526MOL0     H70965   2.211   6.023   5.355 -3.4790  2.3716 -3.8461
  526MOL0     H70966   2.097   6.225   5.456 -0.0200  0.8707 -0.8475
  526MOL0     H70967   1.996   6.106   5.548  0.5480 -1.3706  0.3871
  526MOL0     H70968   1.855   6.191   5.377 -0.2081 -1.0285 -0.3821
  526MOL0     H70969   1.890   6.028   5.341  1.1750  0.2857 -3.2621
  526MOL0     H70970   2.186   6.355   5.293  0.2693  0.3769 -1.0937
  526MOL0     H70971   2.273   6.553   5.325  1.7391  1.2400 -1.0078
  526MOL0     H70972   2.255   6.650   5.176 -1.1327  3.5174  0.6903
  526MOL0     H70973   2.159   6.684   5.318  2.7484  4.1995 -2.5874
  526MOL0     H70974   2.105   6.756   4.824  0.4269  0.3657  0.7255
  526MOL0     H70975   2.133   6.950   4.657 -0.9925  1.2543 -1.8707
  526MOL0     H70976   1.790   7.236   4.619  0.7437 -1.4690  2.1520
  526MOL0     H70977   1.916   7.285   4.504  0.4935  0.7311 -0.2495
  526MOL0     H70978   1.799   7.020   4.496 -4.0624  1.4126 -0.0117
  526MOL0     H70979   1.752   7.144   4.386  0.8987  0.8779 -0.5009
  526MOL0     H70980   2.035   7.051   4.390 -2.2598  2.5156  4.5321
  526MOL0     H70981   1.982   7.171   4.295  2.2660 -0.8722 -0.2768
  526MOL0     H70982   1.866   6.879   4.294  0.1808  0.1016  0.9958
  526MOL0     H70983   1.802   7.003   4.185  1.3632 -0.4548 -2.6066
  526MOL0     H70984   1.981   6.848   4.089  4.2958 -2.4553  1.2294
  526MOL0     H70985   2.097   6.917   4.199 -1.3426 -2.8778  1.4089
  526MOL0     H70986   2.100   7.124   4.072  0.1709 -0.9648  0.8532
  526MOL0     H70987   2.102   6.989   3.961  1.1695  0.5921 -0.3391
  526MOL0     H70988   1.867   7.165   4.034 -0.0884  0.7961 -1.5000
  526MOL0     H70989   1.833   7.018   3.957  0.1125 -0.6161  0.0424
  526MOL0     H70990   2.027   7.102   3.790  1.8554  1.0132 -0.1965
  526MOL0     H70991   1.965   7.262   3.841 -1.7214  1.0469 -3.3849
  526MOL0     H70992   1.778   7.126   4.818  2.2561  0.7304  1.9560
  526MOL0     H70993   1.737   6.942   4.962 -0.6984 -1.2436  0.3241
  526MOL0     H70994   1.782   6.521   5.047  1.3466  0.2430 -1.8450
  526MOL0     H70995   1.799   6.276   5.095 -0.4876  1.3291 -1.0157
  526MOL0     H70996   2.566   5.865   6.465 -0.3249 -0.5855 -1.4450
  526MOL0     H70997   2.535   6.098   6.477 -1.3624  2.3740 -1.1759
  526MOL0     H70998   2.374   6.470   6.406  0.3991  0.5664  0.3641
  526MOL0     H70999   2.404   6.716   6.356 -1.1644  0.2901  0.1836
  526MOL0     H71000   2.265   6.909   6.301 -0.6586 -3.0604 -2.4873
  526MOL0     H71001   2.428   6.954   6.275  1.2792 -3.9714  0.7552
  526MOL0     H71002   2.365   7.148   6.205 -0.8307  0.1390 -1.7525
  526MOL0     H71003   2.200   7.125   6.185 -0.5376 -2.9700  0.6146
  526MOL0     H71004   2.261   7.024   5.948  0.0205 -1.7191  2.2781
  526MOL0     H71005   2.432   7.072   5.983  0.0487 -0.9954 -0.4025
  526MOL0     H71006   2.338   7.297   6.020 -0.0320 -0.1888  0.6008
  526MOL0     H71007   2.186   7.252   5.935 -0.4981 -1.5648 -3.2251
  526MOL0     H71008   2.397   7.257   5.591 -0.3388 -1.0616 -0.5095
  526MOL0     H71009   2.238   6.649   5.972  1.2308 -1.0392 -0.9609
  526MOL0     H71010   2.225   6.404   6.009  2.9330  0.7174 -1.1928
  527MOL0     O71011   5.416   0.558   3.833 -0.5141  0.3303  0.2102
  527MOL0     C71012   5.478   0.478   3.762  0.0963 -0.2311 -0.5031
  527MOL0     O71013   5.429   0.367   3.699  0.0899 -0.2135  0.3617
  527MOL0     C71014   5.298   0.329   3.717  0.0606 -0.0685 -0.3382
  527MOL0     C71015   5.277   0.192   3.696 -0.2573  0.2367  0.2271
  527MOL0     C71016   5.145   0.141   3.700 -1.2608  0.6861  0.3108
  527MOL0     C71017   5.033   0.214   3.742 -0.2127  0.5472 -1.0084
  527MOL0     O71018   4.905   0.163   3.753  0.3627  0.6494  0.4325
  527MOL0     C71019   4.881   0.035   3.690 -0.0460 -0.0570  0.2482
  527MOL0     C71020   4.729  -0.005   3.674 -0.4037 -1.0635  0.4240
  527MOL0     C71021   4.678  -0.045   3.812 -0.0120 -0.1285  0.4272
  527MOL0     C71022   4.535  -0.087   3.802  0.3360  0.0675 -1.0407
  527MOL0     C71023   4.473  -0.104   3.947  0.0944  0.1369  0.1900
  527MOL0     C71024   4.320  -0.133   3.959 -0.3613  0.1247  0.7357
  527MOL0     C71025   4.217  -0.017   3.983 -1.0684  0.0473  0.7276
  527MOL0     C71026   4.204   0.040   4.130 -0.0591  0.5432 -0.1423
  527MOL0     N71027   4.299   0.146   4.153  0.8999  1.0695  0.5393
  527MOL0     C71028   4.280   0.271   4.106  0.0483 -0.4999  0.2147
  527MOL0     C71029   4.381   0.345   4.145 -0.5257 -0.7885  0.4740
  527MOL0     C71030   4.415   0.484   4.148  0.0315 -0.2518 -0.7424
  527MOL0     C71031   4.309   0.586   4.088  0.0283  0.0137 -0.8527
  527MOL0     C71032   4.372   0.727   4.072 -0.9045 -0.6345 -1.0663
  527MOL0     C71033   4.280   0.844   4.031 -0.2367 -0.0197  0.2437
  527MOL0     O71034   4.217   0.819   3.905  0.2674 -0.1998  0.0949
  527MOL0     C71035   4.245   0.905   3.798  0.1013 -0.6603  0.2327
  527MOL0     C71036   4.224   0.859   3.666 -0.3367  0.2308  0.4459
  527MOL0     C71037   4.262   0.935   3.558 -0.2490 -1.4863  0.1453
  527MOL0     C71038   4.242   0.863   3.429  1.1327  0.7327 -1.2937
  527MOL0     C71039   4.291   1.068   3.575 -0.4919  0.6298 -0.2663
  527MOL0     C71040   4.324   1.160   3.458 -0.3063  0.1085 -0.2056
  527MOL0     O71041   4.262   1.275   3.455  0.3706  1.0371 -0.4701
  527MOL0     C71042   4.312   1.376   3.380  0.2477 -0.4501  0.2635
  527MOL0     C71043   4.428   1.444   3.419 -0.3731 -0.5230  0.2333
  527MOL0     C71044   4.477   1.553   3.345  1.1411 -0.2115  0.5544
  527MOL0     C71045   4.401   1.592   3.237  0.0229 -0.4228  0.3730
  527MOL0     O71046   4.475   1.672   3.144  0.6630  0.9836 -0.4804
  527MOL0     C71047   4.441   1.672   3.006  0.2155  0.0994 -0.6865
  527MOL0     C71048   4.554   1.714   2.909  0.4508  0.2976 -0.8249
  527MOL0     C71049   4.692   1.672   2.969 -0.3125 -0.1554  0.2176
  527MOL0     C71050   4.709   1.519   2.949 -1.1319 -0.3709 -0.0299
  527MOL0     C71051   4.821   1.476   2.859  0.7301 -0.8595 -0.0455
  527MOL0     C71052   4.961   1.509   2.911 -0.1194 -0.4260  0.0362
  527MOL0     C71053   5.072   1.513   2.789  0.4106 -0.0069 -0.3508
  527MOL0     C71054   5.214   1.491   2.844  0.5359  0.0463 -0.0564
  527MOL0    Cl71055   5.323   1.532   2.708 -0.4149 -0.0064  0.2652
  527MOL0     C71056   4.284   1.530   3.208 -0.2118  0.4519  0.5852
  527MOL0     C71057   4.232   1.426   3.281 -0.1295  0.8290  1.0115
  527MOL0     O71058   4.402   1.109   3.372  0.0430 -0.1257  0.0104
  527MOL0     C71059   4.303   1.118   3.703 -0.0028 -0.7204  0.1091
  527MOL0     C71060   4.285   1.040   3.815 -0.2847  0.1773 -0.1457
  527MOL0     N71061   4.468   0.261   4.211  0.7361 -0.0785 -0.1747
  527MOL0     N71062   4.426   0.136   4.200 -1.0342 -0.1124 -0.6847
  527MOL0     C71063   5.060   0.351   3.765 -0.9393 -0.7621 -1.0381
  527MOL0     C71064   5.186   0.410   3.755 -0.1172 -0.4292 -0.0031
  527MOL0     C71065   5.626   0.494   3.750  0.8538  0.5340 -0.2086
  527MOL0     C71066   5.703   0.556   3.851 -1.4941  0.0163 -0.0588
  527MOL0     C71067   5.844   0.576   3.830  0.3760 -0.2049 -0.3029
  527MOL0     C71068   5.898   0.541   3.705  0.0687  0.6512  0.8222
  527MOL0     O71069   6.033   0.525   3.674  0.1182 -0.1003  0.0110
  527MOL0     C71070   6.132   0.527   3.777  0.5099  0.2246  0.5238
  527MOL0     C71071   6.128   0.391   3.847 -0.2178  0.3625  0.1722
  527MOL0     C71072   6.138   0.272   3.758 -0.2050  0.0416  0.1277
  527MOL0     C71073   6.126   0.145   3.842 -0.2161 -1.1121  0.3649
  527MOL0     C71074   6.177   0.027   3.766  0.6818 -0.1860 -0.2834
  527MOL0     C71075   6.232  -0.072   3.714  0.1156 -0.7691 -0.1486
  527MOL0     C71076   5.816   0.499   3.595  0.1390 -0.5417 -0.1433
  527MOL0     C71077   5.684   0.469   3.625  0.1596 -0.1280 -0.0810
  527MOL0     H71078   5.357   0.120   3.680 -1.0953 -0.6278 -0.2301
  527MOL0     H71079   5.130   0.037   3.673  3.2838 -0.7287  2.1515
  527MOL0     H71080   4.897   0.044   3.582 -0.1745  0.0617  0.2382
  527MOL0     H71081   4.943  -0.042   3.736  0.8349  0.3699 -0.1985
  527MOL0     H71082   4.668   0.075   3.631  3.2621  0.5036 -2.3017
  527MOL0     H71083   4.712  -0.079   3.596 -0.7126 -1.8164  1.1844
  527MOL0     H71084   4.743  -0.118   3.862  0.4469 -0.9141 -1.2224
  527MOL0     H71085   4.682   0.047   3.872  4.0550 -0.2443  0.6343
  527MOL0     H71086   4.472  -0.008   3.760 -1.6361 -0.4511  0.8027
  527MOL0     H71087   4.528  -0.183   3.751 -2.7208 -1.4131  1.8010
  527MOL0     H71088   4.527  -0.186   3.996  0.9985  0.9981  0.6702
  527MOL0     H71089   4.500  -0.017   4.007 -1.3024  0.0983  0.9141
  527MOL0     H71090   4.283  -0.171   3.863 -3.3961  1.5067  1.2500
  527MOL0     H71091   4.298  -0.216   4.027 -0.8623 -0.4367 -0.0870
  527MOL0     H71092   4.242   0.063   3.912  2.1660 -0.8367  0.7260
  527MOL0     H71093   4.123  -0.052   3.939  0.6456 -1.1360 -2.3191
  527MOL0     H71094   4.205  -0.053   4.187  0.4645  1.0217  0.6478
  527MOL0     H71095   4.103   0.081   4.138 -1.2618 -1.3501 -3.4965
  527MOL0     H71096   4.194   0.301   4.047  0.4058 -2.9301 -1.7603
  527MOL0     H71097   4.445   0.518   4.247  1.4974 -0.7328 -1.0011
  527MOL0     H71098   4.506   0.493   4.087  0.5774 -0.2919  0.0500
  527MOL0     H71099   4.227   0.584   4.160  2.0394 -0.6826  1.5275
  527MOL0     H71100   4.276   0.561   3.986  0.7571  0.7316 -1.2782
  527MOL0     H71101   4.460   0.715   4.007  0.0717  0.6417 -0.0249
  527MOL0     H71102   4.412   0.754   4.170 -1.2524 -3.1849 -0.1312
  527MOL0     H71103   4.347   0.930   4.032  2.0382 -1.6932 -0.3860
  527MOL0     H71104   4.202   0.845   4.109 -0.1481  2.9948  0.4117
  527MOL0     H71105   4.187   0.757   3.653 -0.1937  0.1450  0.7026
  527MOL0     H71106   4.279   0.919   3.343  1.2580  3.6804  0.5683
  527MOL0     H71107   4.285   0.762   3.435  0.9601  0.7275  3.6535
  527MOL0     H71108   4.133   0.863   3.416  0.4357  1.5351  3.1707
  527MOL0     H71109   4.493   1.424   3.503 -0.3027 -0.7853  0.1173
  527MOL0     H71110   4.576   1.576   3.384  0.9189 -1.4006  1.8649
  527MOL0     H71111   4.392   1.578   2.979 -1.0718  1.0420 -1.7669
  527MOL0     H71112   4.366   1.751   2.998  0.3579  0.7181  2.7105
  527MOL0     H71113   4.550   1.673   2.808  0.7363  0.1752 -0.7882
  527MOL0     H71114   4.566   1.822   2.916  1.0491  0.1683  0.6693
  527MOL0     H71115   4.699   1.705   3.073  1.6536  0.9426 -0.1998
  527MOL0     H71116   4.777   1.718   2.918 -0.0191 -1.0147 -0.0822
  527MOL0     H71117   4.735   1.479   3.048 -1.6424  0.2965  0.3805
  527MOL0     H71118   4.614   1.483   2.908 -0.5772 -3.2287  0.9609
  527MOL0     H71119   4.816   1.536   2.767 -0.4027 -1.0112 -0.0903
  527MOL0     H71120   4.814   1.370   2.834 -4.2877 -0.8471  0.2516
  527MOL0     H71121   4.953   1.607   2.959 -0.4090 -0.7976  0.7610
  527MOL0     H71122   4.991   1.442   2.992  1.1335 -0.3186 -0.3231
  527MOL0     H71123   5.070   1.606   2.732 -0.6558 -0.9920 -1.9984
  527MOL0     H71124   5.057   1.431   2.719  0.8810  0.0857 -0.5597
  527MOL0     H71125   5.225   1.385   2.866 -2.6979 -1.0185 -2.7666
  527MOL0     H71126   5.227   1.553   2.933 -3.2901  0.6914  0.2408
  527MOL0     H71127   4.242   1.554   3.111  1.2072  2.4561  0.3883
  527MOL0     H71128   4.140   1.382   3.244  1.8757  0.3383 -4.3915
  527MOL0     H71129   4.342   1.219   3.706  1.1420 -1.1649  0.8713
  527MOL0     H71130   4.310   1.079   3.913  0.3614 -3.8359  1.5050
  527MOL0     H71131   4.969   0.403   3.792  0.7719  0.4023  3.4018
  527MOL0     H71132   5.201   0.515   3.777 -0.5977 -0.1300 -1.0303
  527MOL0     H71133   5.661   0.603   3.940  2.6402 -0.0473  2.2037
  527MOL0     H71134   5.900   0.614   3.914 -1.6132  2.0975  0.1011
  527MOL0     H71135   6.232   0.551   3.739 -0.0730  0.1465 -1.1434
  527MOL0     H71136   6.117   0.603   3.855 -2.2873 -0.1873  0.4925
  527MOL0     H71137   6.037   0.380   3.906 -1.0930 -2.4054 -1.4773
  527MOL0     H71138   6.209   0.389   3.921 -1.8849  0.5250  2.0852
  527MOL0     H71139   6.237   0.260   3.713 -0.7001  1.8264 -1.5569
  527MOL0     H71140   6.070   0.270   3.672  2.7153 -0.1525 -2.3536
  527MOL0     H71141   6.020   0.125   3.860 -0.2742  0.9038  2.6774
  527MOL0     H71142   6.179   0.158   3.937 -0.1122 -0.6552  0.2475
  527MOL0     H71143   6.283  -0.161   3.685  0.6751 -2.0065  3.9318
  527MOL0     H71144   5.858   0.479   3.497  2.7377  1.3452  0.4757
  527MOL0     H71145   5.617   0.435   3.547  0.1305  4.4677 -2.3315
  528MOL0     O71146   1.569   6.791   5.177 -0.1723  0.8714  0.7061
  528MOL0     C71147   1.451   6.752   5.165 -0.5745  0.0081  1.1412
  528MOL0     O71148   1.354   6.829   5.111  0.0630 -0.0648  0.7284
  528MOL0     C71149   1.379   6.962   5.082 -0.0995  0.3388  0.6866
  528MOL0     C71150   1.328   7.064   5.161  1.0975 -0.0888  0.9668
  528MOL0     C71151   1.338   7.194   5.113 -0.2805 -0.4722 -0.1234
  528MOL0     C71152   1.415   7.232   5.002  0.3104 -0.2352  0.5028
  528MOL0     O71153   1.406   7.363   4.966  0.1875 -0.0286  0.1707
  528MOL0     C71154   1.519   7.403   4.875 -0.6013  0.5356  0.0294
  528MOL0     C71155   1.536   7.552   4.858  0.7498 -0.2380 -0.0872
  528MOL0     C71156   1.645   7.575   4.767 -0.4619  0.8092 -0.1236
  528MOL0     C71157   1.627   7.555   4.616  0.1789  0.5516 -0.2337
  528MOL0     C71158   1.760   7.576   4.535 -0.0573  0.0242 -0.1754
  528MOL0     C71159   1.737   7.554   4.389  0.2451 -0.3042 -0.3294
  528MOL0     C71160   1.871   7.548   4.314 -0.1701  0.2960 -0.1975
  528MOL0     C71161   1.863   7.510   4.165 -0.2019 -0.7882  1.2954
  528MOL0     N71162   1.996   7.501   4.087 -0.6422 -0.1401 -0.5584
  528MOL0     C71163   2.079   7.607   4.042  0.8079 -0.8047  0.0042
  528MOL0     C71164   2.182   7.542   3.993  0.1831 -0.0451  0.4551
  528MOL0     C71165   2.302   7.616   3.924  0.7582 -0.9217 -0.0450
  528MOL0     C71166   2.407   7.510   3.863  0.8055  0.9675 -0.4969
  528MOL0     C71167   2.483   7.588   3.772  0.0596  0.3194 -0.4420
  528MOL0     C71168   2.613   7.514   3.710 -0.4505  0.5648 -0.4254
  528MOL0     O71169   2.678   7.430   3.807  0.3563 -0.1857  0.1531
  528MOL0     C71170   2.681   7.294   3.802  0.3482  0.0632  0.0916
  528MOL0     C71171   2.714   7.220   3.921  0.9686  0.7225 -0.4756
  528MOL0     C71172   2.733   7.083   3.936 -0.7257  0.3590  0.0129
  528MOL0     C71173   2.764   7.023   4.077 -1.1436 -0.1494 -0.6869
  528MOL0     C71174   2.701   7.006   3.821  0.7513 -0.5338  0.4523
  528MOL0     C71175   2.723   6.862   3.818 -0.0958 -0.0143  0.9014
  528MOL0     O71176   2.661   6.781   3.912 -0.6027 -0.1288  0.1415
  528MOL0     C71177   2.695   6.650   3.923  1.2102 -0.3640  0.7606
  528MOL0     C71178   2.600   6.558   3.884 -0.2302  0.2774  0.9135
  528MOL0     C71179   2.638   6.428   3.892 -0.0123  0.3924  0.4327
  528MOL0     C71180   2.756   6.375   3.930 -0.6006 -0.7384 -0.6637
  528MOL0     O71181   2.773   6.240   3.931  0.3347  0.0567 -0.8610
  528MOL0     C71182   2.873   6.186   3.851 -0.2058 -0.2319  0.7244
  528MOL0     C71183   2.838   6.056   3.787  0.5217 -1.2642  0.2211
  528MOL0     C71184   2.797   5.947   3.885 -0.6568  0.7011 -1.1096
  528MOL0     C71185   2.734   5.816   3.826 -0.8586 -0.5508 -0.7333
  528MOL0     C71186   2.800   5.680   3.888 -0.6753  0.0055  0.6699
  528MOL0     C71187   2.927   5.646   3.812  0.7526  0.4595 -0.1006
  528MOL0     C71188   2.969   5.508   3.849 -0.0037 -0.3211 -0.6302
  528MOL0     C71189   3.109   5.487   3.793  0.0993  0.3036  0.1608
  528MOL0    Cl71190   3.169   5.317   3.849  0.4256 -0.0752  0.1522
  528MOL0     C71191   2.853   6.469   3.964 -0.1683 -0.3316 -0.7407
  528MOL0     C71192   2.824   6.606   3.952  0.0614 -0.7861 -0.0850
  528MOL0     O71193   2.779   6.820   3.716 -0.2855  0.7190 -0.4509
  528MOL0     C71194   2.664   7.074   3.702 -0.3822  0.1446  0.4521
  528MOL0     C71195   2.659   7.215   3.689 -0.6398  0.1348  0.5384
  528MOL0     N71196   2.161   7.400   4.006 -0.3674 -0.1931  0.5891
  528MOL0     N71197   2.053   7.380   4.058 -1.4110 -0.1781  0.9794
  528MOL0     C71198   1.472   7.130   4.927  0.1478  0.9813 -0.6181
  528MOL0     C71199   1.458   7.001   4.971  0.6283  0.5585  0.4353
  528MOL0     C71200   1.410   6.618   5.202 -0.2208  0.4291  0.1447
  528MOL0     C71201   1.501   6.524   5.233  0.7782  0.2338 -0.4792
  528MOL0     C71202   1.468   6.396   5.264 -0.0105 -0.5566 -0.2273
  528MOL0     C71203   1.335   6.353   5.273  0.0177 -0.3726  0.9827
  528MOL0     O71204   1.311   6.214   5.274  0.4453 -0.4429  0.2620
  528MOL0     C71205   1.243   6.162   5.386  0.4630 -0.8309  0.4614
  528MOL0     C71206   1.087   6.178   5.371 -0.5134 -0.1441  0.6042
  528MOL0     C71207   1.021   6.130   5.239 -0.2303 -0.9259  0.5084
  528MOL0     C71208   1.071   6.007   5.179 -0.6884  0.2769 -0.1310
  528MOL0     C71209   1.037   5.886   5.255  0.3601 -0.4772 -0.2341
  528MOL0     C71210   1.003   5.787   5.311  0.4569  0.0971 -0.5260
  528MOL0     C71211   1.233   6.443   5.243 -0.0295  0.5048 -0.3531
  528MOL0     C71212   1.276   6.575   5.209  0.7077 -0.2432 -0.1407
  528MOL0     H71213   1.268   7.033   5.246 -1.7428 -4.2159 -2.1628
  528MOL0     H71214   1.284   7.279   5.154  1.8631  1.6963 -1.5921
  528MOL0     H71215   1.612   7.363   4.916 -2.1390 -1.3515  1.8842
  528MOL0     H71216   1.500   7.361   4.776 -0.2072 -0.3730  0.3323
  528MOL0     H71217   1.452   7.605   4.813  2.2950  3.0575  0.6230
  528MOL0     H71218   1.557   7.589   4.959  0.8656  1.0075 -0.5506
  528MOL0     H71219   1.690   7.674   4.782  0.4358  0.0171  3.4732
  528MOL0     H71220   1.724   7.504   4.795 -0.8970  1.4115  3.0062
  528MOL0     H71221   1.581   7.461   4.583 -0.4699  1.0153 -0.6806
  528MOL0     H71222   1.559   7.630   4.573 -1.4027 -2.2156 -3.0087
  528MOL0     H71223   1.788   7.680   4.554  2.5485 -0.3691 -1.3363
  528MOL0     H71224   1.837   7.509   4.576  1.4768  0.3996 -2.2695
  528MOL0     H71225   1.674   7.464   4.386 -0.8432  0.4284 -0.0469
  528MOL0     H71226   1.692   7.646   4.351  2.4215 -0.2512 -3.1048
  528MOL0     H71227   1.928   7.639   4.334 -1.5344  1.2115 -0.2846
  528MOL0     H71228   1.922   7.466   4.365  0.2820  1.0728  0.6378
  528MOL0     H71229   1.805   7.594   4.124  1.4869  0.3634  1.1860
  528MOL0     H71230   1.806   7.419   4.146 -2.9001  1.2193 -1.2641
  528MOL0     H71231   2.063   7.714   4.051 -0.2839 -1.1224  2.6704
  528MOL0     H71232   2.248   7.675   3.850 -0.4189  0.8975  2.1162
  528MOL0     H71233   2.356   7.683   3.992  0.9554 -0.8465 -0.2760
  528MOL0     H71234   2.346   7.439   3.806 -0.6434  1.9918 -0.2967
  528MOL0     H71235   2.455   7.462   3.949  0.9702  0.3355 -0.9354
  528MOL0     H71236   2.536   7.662   3.832  1.9033 -0.5606 -0.8700
  528MOL0     H71237   2.417   7.636   3.699  0.2440 -3.6971 -3.6438
  528MOL0     H71238   2.681   7.596   3.683 -0.4598  0.4073 -0.9346
  528MOL0     H71239   2.600   7.459   3.617  1.0870  0.5820 -0.6743
  528MOL0     H71240   2.737   7.275   4.012 -0.6337 -0.9408  1.0316
  528MOL0     H71241   2.743   6.916   4.085 -1.8550  0.0791  0.6930
  528MOL0     H71242   2.868   7.048   4.100 -0.8518 -0.8489 -1.2180
  528MOL0     H71243   2.691   7.066   4.146 -0.6981 -0.0047 -0.3000
  528MOL0     H71244   2.503   6.592   3.849  0.1593 -0.6589 -1.2577
  528MOL0     H71245   2.574   6.347   3.857 -0.0644  0.5805  0.0807
  528MOL0     H71246   2.891   6.254   3.767 -1.4417  0.0423  0.6576
  528MOL0     H71247   2.956   6.169   3.919  0.8279  1.0137 -0.1755
  528MOL0     H71248   2.754   6.064   3.717  1.8190 -1.7094 -1.4718
  528MOL0     H71249   2.920   6.013   3.729  0.8258 -1.1309  0.5460
  528MOL0     H71250   2.714   5.996   3.937  1.4874  0.3233  3.0625
  528MOL0     H71251   2.877   5.922   3.955 -0.9810 -0.5511 -1.1751
  528MOL0     H71252   2.631   5.806   3.861 -0.7526 -2.0147 -0.7580
  528MOL0     H71253   2.725   5.813   3.717 -2.5396 -1.9304 -0.6061
  528MOL0     H71254   2.726   5.605   3.859  0.1317 -0.8885  0.8890
  528MOL0     H71255   2.827   5.690   3.993  5.3920  2.8413 -0.7077
  528MOL0     H71256   2.929   5.664   3.704 -0.4623  1.4062  0.0139
  528MOL0     H71257   3.001   5.715   3.852  0.6913  1.7896 -2.1425
  528MOL0     H71258   2.906   5.430   3.805 -0.3605 -2.0715  2.6950
  528MOL0     H71259   2.978   5.496   3.957  0.4752 -2.3101 -0.8490
  528MOL0     H71260   3.178   5.556   3.842  0.4430  1.1000 -1.3806
  528MOL0     H71261   3.121   5.494   3.685  0.8345 -0.7122  0.1746
  528MOL0     H71262   2.956   6.452   3.994  0.2651  3.6250  0.6426
  528MOL0     H71263   2.902   6.682   3.955  0.3230 -0.8648 -2.7509
  528MOL0     H71264   2.632   7.019   3.614 -2.3036  0.4224  0.9292
  528MOL0     H71265   2.625   7.249   3.591  2.6980  0.3462 -0.6697
  528MOL0     H71266   1.522   7.147   4.833  3.0608 -0.3020  0.5844
  528MOL0     H71267   1.508   6.922   4.916  1.9350  0.6248  1.4726
  528MOL0     H71268   1.609   6.541   5.228  1.0952 -0.7633  1.7994
  528MOL0     H71269   1.547   6.322   5.268 -0.4649 -1.1265 -1.3094
  528MOL0     H71270   1.260   6.054   5.392  1.0365 -0.7217  0.9298
  528MOL0     H71271   1.285   6.213   5.473  0.9252  0.4062 -0.4418
  528MOL0     H71272   1.060   6.282   5.388  0.3531  0.3465 -0.9177
  528MOL0     H71273   1.035   6.128   5.454  0.8264 -1.9444  0.4371
  528MOL0     H71274   1.038   6.212   5.169 -1.0130 -0.1723  1.1736
  528MOL0     H71275   0.913   6.115   5.251 -0.3775 -1.1453 -0.9083
  528MOL0     H71276   1.180   6.004   5.167 -0.3887  5.9604 -1.4117
  528MOL0     H71277   1.031   5.997   5.078  1.5728 -0.2402 -1.0396
  528MOL0     H71278   0.973   5.692   5.351  0.5244  1.4642  3.0629
  528MOL0     H71279   1.130   6.410   5.252  0.3463 -0.1072  2.5666
  528MOL0     H71280   1.193   6.643   5.191 -0.1981 -1.4626 -0.6463
  529MOL0     O71281  11.406   7.395   4.705  0.2227 -0.1241 -0.2296
  529MOL0     C71282  11.487   7.401   4.793  0.0768 -0.0423  0.0849
  529MOL0     O71283  11.507   7.304   4.888 -0.4543  0.8405 -0.5963
  529MOL0     C71284  11.398   7.266   4.963  0.3614  0.4665  0.7200
  529MOL0     C71285  11.271   7.335   4.977  0.4601 -0.0798  0.2246
  529MOL0     C71286  11.174   7.286   5.052  0.3500  0.5442 -1.1406
  529MOL0     C71287  11.184   7.161   5.122 -0.1144 -0.2964 -0.2331
  529MOL0     O71288  11.080   7.108   5.194 -0.1651 -0.1661 -0.3062
  529MOL0     C71289  11.074   6.977   5.249 -0.0434  0.1212 -0.2170
  529MOL0     C71290  10.945   6.957   5.317  0.1414  0.8781 -0.2040
  529MOL0     C71291  10.957   7.044   5.444  0.5360 -0.5810 -0.3257
  529MOL0     C71292  10.826   7.037   5.527  0.1287 -1.0228 -0.2522
  529MOL0     C71293  10.825   7.149   5.625  0.5782 -0.5245 -0.0827
  529MOL0     C71294  10.692   7.144   5.715 -0.5268 -0.2642 -0.2060
  529MOL0     C71295  10.666   7.281   5.789 -0.3866  0.5349 -0.3055
  529MOL0     C71296  10.541   7.349   5.744 -0.3215  0.5520  0.4628
  529MOL0     N71297  10.411   7.295   5.809 -0.1748  0.7684 -0.8202
  529MOL0     C71298  10.404   7.231   5.927  0.1071 -0.1376 -0.5019
  529MOL0     C71299  10.276   7.238   5.968  0.4195 -0.3137  0.7919
  529MOL0     C71300  10.214   7.156   6.075 -0.0610 -0.5956 -0.0311
  529MOL0     C71301  10.184   7.011   6.028  0.0000 -0.4832 -0.2994
  529MOL0     C71302  10.093   7.001   5.905 -0.0078 -0.0423  0.6283
  529MOL0     C71303   9.968   7.069   5.916  0.3208  0.2182 -0.7233
  529MOL0     O71304   9.886   7.018   6.022 -1.5939  0.4714 -0.1693
  529MOL0     C71305   9.766   7.082   6.040 -0.4814 -0.1281 -0.2662
  529MOL0     C71306   9.749   7.217   6.060 -0.5228  0.1080  0.2224
  529MOL0     C71307   9.624   7.281   6.073 -0.1172  0.1494 -0.4436
  529MOL0     C71308   9.639   7.427   6.113 -0.1110  0.1745 -0.9733
  529MOL0     C71309   9.505   7.208   6.043  0.1430 -0.1529 -0.8237
  529MOL0     C71310   9.374   7.267   6.036  0.7904  0.0662  2.0400
  529MOL0     O71311   9.263   7.177   6.036 -0.2475 -0.4324 -0.0048
  529MOL0     C71312   9.141   7.243   6.006 -0.2834 -0.8173  0.0633
  529MOL0     C71313   9.076   7.342   6.092 -0.9145  0.5095  0.4355
  529MOL0     C71314   8.948   7.388   6.060  0.4498  0.4388  0.9142
  529MOL0     C71315   8.873   7.327   5.958 -0.3985  0.5394 -0.2548
  529MOL0     O71316   8.742   7.374   5.939  0.0897  0.0441 -0.0887
  529MOL0     C71317   8.729   7.506   5.867  0.0041  1.0315  0.0004
  529MOL0     C71318   8.623   7.503   5.762 -0.2747 -0.6479 -0.5813
  529MOL0     C71319   8.631   7.384   5.666  0.0124 -0.3081 -0.3822
  529MOL0     C71320   8.538   7.412   5.541  0.1371  0.6268 -0.0478
  529MOL0     C71321   8.602   7.491   5.430  0.1359 -0.4137  0.2463
  529MOL0     C71322   8.512   7.464   5.306 -0.1329 -0.9530 -0.8606
  529MOL0     C71323   8.572   7.533   5.177 -0.4004  1.0467 -0.6463
  529MOL0     C71324   8.505   7.485   5.055  0.5005 -0.2735  0.1851
  529MOL0    Cl71325   8.328   7.498   5.049 -0.4042 -0.1765 -0.2392
  529MOL0     C71326   8.925   7.218   5.892  0.0864  0.1305  0.0652
  529MOL0     C71327   9.055   7.175   5.922  0.0365 -0.4593 -0.6583
  529MOL0     O71328   9.372   7.386   6.015  0.9958 -0.2444 -0.5830
  529MOL0     C71329   9.522   7.070   6.035 -0.1436  0.8464 -0.2813
  529MOL0     C71330   9.649   7.012   6.045 -0.3278  0.4474  0.4379
  529MOL0     N71331  10.200   7.299   5.863  0.0754 -0.0630 -0.0120
  529MOL0     N71332  10.287   7.327   5.771 -0.3321  0.6097 -0.1956
  529MOL0     C71333  11.304   7.093   5.107 -0.7855  1.1850  0.1547
  529MOL0     C71334  11.405   7.146   5.025  0.1516  0.7202 -0.1703
  529MOL0     C71335  11.581   7.508   4.790  0.7115  0.3588  0.6504
  529MOL0     C71336  11.622   7.550   4.661 -0.1654  0.3190 -0.0650
  529MOL0     C71337  11.724   7.646   4.652  0.1369  0.2703 -0.0881
  529MOL0     C71338  11.783   7.714   4.766  0.6718 -0.0171 -0.0064
  529MOL0     O71339  11.883   7.809   4.758 -0.5389  0.7193  0.2034
  529MOL0     C71340  11.844   7.933   4.693  0.2728  0.1130 -0.6585
  529MOL0     C71341  11.782   8.033   4.798  0.1375  0.7650  0.1752
  529MOL0     C71342  11.898   8.070   4.885  0.8306 -0.6653 -0.0443
  529MOL0     C71343  11.848   8.158   5.004  0.5274 -1.5146 -0.4447
  529MOL0     C71344  11.785   8.075   5.111 -0.2154 -0.9918  0.0035
  529MOL0     C71345  11.730   7.997   5.190 -0.1928  0.0101 -0.5876
  529MOL0     C71346  11.730   7.671   4.885  0.2016  0.4853 -1.2922
  529MOL0     C71347  11.634   7.567   4.902 -1.7048  0.7632  0.2548
  529MOL0     H71348  11.263   7.434   4.933  0.7926 -0.9740 -2.0142
  529MOL0     H71349  11.089   7.349   5.075  1.5211  0.9335  3.1004
  529MOL0     H71350  11.092   6.909   5.165  2.2089  1.1110 -0.6323
  529MOL0     H71351  11.157   6.948   5.313 -0.1031  0.8308  0.1970
  529MOL0     H71352  10.870   6.980   5.241  0.0496 -2.4922 -1.3198
  529MOL0     H71353  10.927   6.857   5.359 -0.4262  1.4219  0.8840
  529MOL0     H71354  11.036   7.002   5.507  0.8092  0.6472  0.1782
  529MOL0     H71355  10.993   7.146   5.429  0.0118 -0.2377  0.6740
  529MOL0     H71356  10.736   7.043   5.464  1.5373 -1.7255 -2.4604
  529MOL0     H71357  10.822   6.943   5.583 -0.8512 -1.3611 -0.8503
  529MOL0     H71358  10.910   7.144   5.693  0.8203  2.1061 -0.0987
  529MOL0     H71359  10.838   7.245   5.576  0.7774  0.7547  2.3156
  529MOL0     H71360  10.605   7.116   5.655 -0.5492 -0.5758 -0.0305
  529MOL0     H71361  10.712   7.061   5.783  0.1990 -1.0217 -1.2968
  529MOL0     H71362  10.666   7.264   5.898  0.5109  0.4281 -0.3103
  529MOL0     H71363  10.760   7.335   5.772  1.8995 -2.9961 -0.1399
  529MOL0     H71364  10.539   7.348   5.635  0.7393 -1.2216  0.4270
  529MOL0     H71365  10.557   7.456   5.763  1.0618  0.6732 -1.1984
  529MOL0     H71366  10.474   7.162   5.974  0.2930  2.9007  4.4504
  529MOL0     H71367  10.290   7.157   6.154 -1.7079  1.3248  1.6716
  529MOL0     H71368  10.120   7.203   6.106 -2.0031 -4.1514 -0.0636
  529MOL0     H71369  10.129   6.949   6.101  1.1195 -1.0326  0.0967
  529MOL0     H71370  10.281   6.966   6.006  0.7997  1.1397 -0.1969
  529MOL0     H71371  10.082   6.894   5.882  1.0987 -0.0464  0.0298
  529MOL0     H71372  10.137   7.053   5.819 -0.8038 -1.3740 -0.6461
  529MOL0     H71373   9.911   7.056   5.824 -1.1997  2.7732 -0.2543
  529MOL0     H71374   9.988   7.176   5.931  1.6734 -0.1158  0.0498
  529MOL0     H71375   9.835   7.284   6.063 -0.3209 -0.1687  0.6329
  529MOL0     H71376   9.572   7.424   6.200  0.0991  1.8276 -0.7235
  529MOL0     H71377   9.734   7.468   6.147 -0.4659  0.0272  0.2299
  529MOL0     H71378   9.597   7.490   6.033 -0.0309  0.5641 -0.7119
  529MOL0     H71379   9.125   7.383   6.180 -0.8488 -3.6122  2.5617
  529MOL0     H71380   8.888   7.461   6.112 -1.7802  1.5520 -2.8265
  529MOL0     H71381   8.705   7.584   5.938 -1.6082  1.4902 -1.0056
  529MOL0     H71382   8.822   7.526   5.811 -0.4991  0.8707 -0.9165
  529MOL0     H71383   8.533   7.505   5.825  0.9801 -1.0186  1.3093
  529MOL0     H71384   8.626   7.599   5.709  1.0412 -0.6843 -0.6010
  529MOL0     H71385   8.584   7.297   5.712 -1.1557  0.4876 -0.0420
  529MOL0     H71386   8.730   7.351   5.634 -0.5280 -2.1756 -0.1940
  529MOL0     H71387   8.503   7.315   5.503  3.8196 -1.7829  2.0185
  529MOL0     H71388   8.456   7.472   5.581  1.7296  2.2898  0.8946
  529MOL0     H71389   8.705   7.465   5.402  0.4969  0.6960  0.4989
  529MOL0     H71390   8.603   7.597   5.455 -1.6302 -0.4492  0.5990
  529MOL0     H71391   8.505   7.355   5.295  2.3309 -1.1956 -0.5007
  529MOL0     H71392   8.411   7.505   5.319  0.9013  1.8096 -0.8219
  529MOL0     H71393   8.679   7.510   5.172 -0.7589 -1.1211  0.3733
  529MOL0     H71394   8.561   7.642   5.181  1.0333  1.2217 -0.6526
  529MOL0     H71395   8.530   7.378   5.055  2.0115  0.0445  1.3321
  529MOL0     H71396   8.563   7.539   4.979 -1.8428 -2.0742 -3.1182
  529MOL0     H71397   8.856   7.162   5.829 -1.3559  1.6195  0.2585
  529MOL0     H71398   9.094   7.087   5.872  1.4732  0.4849 -1.2482
  529MOL0     H71399   9.438   7.005   6.011 -0.8612  1.4901  0.4335
  529MOL0     H71400   9.636   6.904   6.039 -2.3907  0.4659  2.8147
  529MOL0     H71401  11.335   6.997   5.146 -1.7201  0.7133 -0.2199
  529MOL0     H71402  11.495   7.086   5.020  0.0916  0.6961 -0.9479
  529MOL0     H71403  11.579   7.510   4.570  0.5230 -3.5996  1.1460
  529MOL0     H71404  11.750   7.669   4.549 -0.8413 -2.0796 -0.9404
  529MOL0     H71405  11.935   7.979   4.653  2.3314 -0.0238  3.4496
  529MOL0     H71406  11.784   7.897   4.608  3.1452 -4.0209 -1.2427
  529MOL0     H71407  11.687   7.986   4.826 -1.5228 -0.0337 -5.4246
  529MOL0     H71408  11.748   8.119   4.740 -1.2243 -0.6774 -1.2728
  529MOL0     H71409  11.985   8.112   4.833  0.3127  1.0937  0.4621
  529MOL0     H71410  11.932   7.979   4.936 -1.3794 -0.1374  2.5803
  529MOL0     H71411  11.776   8.231   4.968  3.7863  1.6243 -1.2668
  529MOL0     H71412  11.930   8.214   5.052 -0.8497 -1.3883  1.9127
  529MOL0     H71413  11.685   7.934   5.265  0.0486 -0.3219 -0.7196
  529MOL0     H71414  11.760   7.716   4.979 -3.7142  1.0245 -0.1196
  529MOL0     H71415  11.603   7.552   5.005 -4.1539  0.3498 -0.4705
  530MOL0     O71416   1.710   6.245  10.762  0.1583 -0.3813  0.8056
  530MOL0     C71417   1.623   6.221  10.676 -0.0645 -0.5852 -0.9117
  530MOL0     O71418   1.557   6.317  10.603 -0.0795  0.6373  1.2030
  530MOL0     C71419   1.605   6.444  10.606  1.5690  0.0514  0.4504
  530MOL0     C71420   1.734   6.474  10.585 -0.1776 -0.0842 -0.0817
  530MOL0     C71421   1.778   6.608  10.586 -0.0127  0.2477  0.5202
  530MOL0     C71422   1.693   6.717  10.580  0.4148  0.5032 -0.2025
  530MOL0     O71423   1.739   6.843  10.582 -0.0285 -0.4101  0.1100
  530MOL0     C71424   1.794   6.896  10.700 -0.4668  0.1685 -0.3441
  530MOL0     C71425   1.936   6.950  10.697  0.1160 -0.4340 -0.2102
  530MOL0     C71426   1.972   7.015  10.830  0.0812 -0.7685 -0.7340
  530MOL0     C71427   2.114   7.070  10.835 -0.2277 -0.4918  0.1278
  530MOL0     C71428   2.140   7.168  10.950 -0.2259  0.6079  0.2708
  530MOL0     C71429   2.119   7.117  11.093 -0.4621 -0.2781  0.3494
  530MOL0     C71430   2.147   7.233  11.181 -0.3224 -0.5156 -0.8197
  530MOL0     C71431   2.080   7.221  11.320  0.2113  0.8936 -0.2764
  530MOL0     N71432   2.128   7.097  11.393  0.4528 -0.3120  0.3921
  530MOL0     C71433   2.243   7.091  11.467  1.0774 -0.7210  0.6659
  530MOL0     C71434   2.260   6.966  11.504 -0.0702  0.8032  0.1359
  530MOL0     C71435   2.370   6.915  11.605  0.5559 -0.6166 -0.1036
  530MOL0     C71436   2.386   6.765  11.600 -0.0267  0.0662  0.0247
  530MOL0     C71437   2.519   6.699  11.635 -0.6305 -1.0491  0.9239
  530MOL0     C71438   2.549   6.698  11.788  0.4281 -0.0777  0.3399
  530MOL0     O71439   2.667   6.627  11.811 -1.3157 -0.7376  0.0823
  530MOL0     C71440   2.708   6.582  11.930 -0.2027 -0.6449 -0.5951
  530MOL0     C71441   2.632   6.603  12.040  0.9470  0.2133  0.7323
  530MOL0     C71442   2.671   6.566  12.158  0.9398 -0.6855  0.4827
  530MOL0     C71443   2.582   6.594  12.280 -0.9885  0.0932  1.0083
  530MOL0     C71444   2.791   6.501  12.177 -0.3061  0.6401 -0.7017
  530MOL0     C71445   2.843   6.476  12.313 -0.3058 -0.9126 -0.9125
  530MOL0     O71446   2.840   6.347  12.358  0.8161 -0.0192 -0.0138
  530MOL0     C71447   2.854   6.322  12.489 -0.2166  0.3981  0.1309
  530MOL0     C71448   2.975   6.265  12.541  0.2120 -0.6009  0.1351
  530MOL0     C71449   2.992   6.233  12.678 -0.6837 -0.8195  0.5811
  530MOL0     C71450   2.891   6.249  12.767  0.4037  0.3359 -0.1610
  530MOL0     O71451   2.916   6.207  12.894 -0.7028 -0.5025  0.3275
  530MOL0     C71452   2.857   6.297  12.998 -0.5000 -0.4935  0.2103
  530MOL0     C71453   2.968   6.402  13.025 -0.1184 -0.3900 -0.3726
  530MOL0     C71454   3.085   6.350  13.109 -0.4448  0.0308  0.3470
  530MOL0     C71455   3.212   6.426  13.083 -0.2828 -0.1758  0.0429
  530MOL0     C71456   3.196   6.572  13.119 -0.2391 -0.3637 -0.3907
  530MOL0     C71457   3.327   6.643  13.111 -0.5389  0.5190  0.5682
  530MOL0     C71458   3.297   6.782  13.179 -0.1897  1.2280 -0.3349
  530MOL0     C71459   3.427   6.860  13.193  0.6147  0.0757  0.6076
  530MOL0    Cl71460   3.552   6.793  13.296 -0.0152 -0.2655  0.0442
  530MOL0     C71461   2.768   6.298  12.717 -0.1682 -0.3758  0.8874
  530MOL0     C71462   2.748   6.334  12.579  0.7822  0.6183  0.1843
  530MOL0     O71463   2.895   6.572  12.373 -0.9663 -0.6833 -0.0398
  530MOL0     C71464   2.872   6.485  12.071  0.3104  0.0604  0.0529
  530MOL0     C71465   2.833   6.530  11.945 -0.7807 -0.2595 -0.6049
  530MOL0     N71466   2.145   6.893  11.470  0.1763  0.5253  0.2261
  530MOL0     N71467   2.079   6.970  11.393  0.5611  0.4703 -0.0588
  530MOL0     C71468   1.556   6.682  10.582  0.4716 -0.1481 -0.1545
  530MOL0     C71469   1.511   6.546  10.604 -0.4865  0.0588  0.0211
  530MOL0     C71470   1.569   6.078  10.662 -0.4110  0.1254  0.0686
  530MOL0     C71471   1.451   6.056  10.599  0.3321  0.3837  0.1236
  530MOL0     C71472   1.396   5.930  10.581 -0.4692  0.6896 -0.3542
  530MOL0     C71473   1.456   5.820  10.650 -1.1372  0.5346 -0.9899
  530MOL0     O71474   1.412   5.691  10.661 -0.5228  0.3805  0.5566
  530MOL0     C71475   1.288   5.648  10.597  0.0621 -0.9547 -0.4168
  530MOL0     C71476   1.162   5.695  10.671 -0.7349  0.1444  0.3016
  530MOL0     C71477   1.034   5.670  10.595  0.7033 -0.3257 -0.0722
  530MOL0     C71478   0.915   5.732  10.665 -1.1537 -0.1204  0.4428
  530MOL0     C71479   0.788   5.735  10.604  0.8921 -0.7722  0.2470
  530MOL0     C71480   0.670   5.733  10.573  0.2363  0.3974 -0.6323
  530MOL0     C71481   1.592   5.837  10.696  0.5673 -0.7844  0.8625
  530MOL0     C71482   1.645   5.971  10.705  0.4168 -0.1759  0.2492
  530MOL0     H71483   1.822   6.410  10.590  3.4422  4.3766  2.8720
  530MOL0     H71484   1.886   6.621  10.583  0.2999 -1.9833 -2.5789
  530MOL0     H71485   1.727   6.975  10.735  0.6801  0.8242  0.4289
  530MOL0     H71486   1.788   6.828  10.786 -0.4556  0.4893 -0.0897
  530MOL0     H71487   2.014   6.878  10.670  0.4072 -0.1313 -0.1921
  530MOL0     H71488   1.941   7.035  10.628 -0.0598  0.8806  1.3240
  530MOL0     H71489   1.912   7.102  10.855  0.6695 -0.0280 -1.8163
  530MOL0     H71490   1.971   6.943  10.912  2.0499 -1.2785 -1.0899
  530MOL0     H71491   2.178   6.983  10.854 -1.3311 -0.6201  3.8696
  530MOL0     H71492   2.136   7.123  10.742 -2.6360  3.0068  1.3797
  530MOL0     H71493   2.247   7.188  10.948  0.1554 -1.2380  0.1135
  530MOL0     H71494   2.081   7.255  10.921 -1.1510  0.3653  1.3465
  530MOL0     H71495   2.016   7.088  11.117 -0.7322  0.5788  0.2591
  530MOL0     H71496   2.182   7.030  11.110 -1.1443 -0.7983  0.2439
  530MOL0     H71497   2.254   7.255  11.191 -0.6057  0.4372  0.4923
  530MOL0     H71498   2.096   7.318  11.135 -1.2313 -0.0331  0.9665
  530MOL0     H71499   1.972   7.226  11.300  0.1845  1.6010  0.0364
  530MOL0     H71500   2.118   7.308  11.374  1.3702 -0.7041  1.6224
  530MOL0     H71501   2.310   7.175  11.485  0.7734  0.2701 -2.2957
  530MOL0     H71502   2.462   6.973  11.593 -0.3712  1.3872  1.7348
  530MOL0     H71503   2.334   6.949  11.702 -0.3277  1.0676 -0.9614
  530MOL0     H71504   2.360   6.733  11.499  2.0653 -0.7341 -0.2962
  530MOL0     H71505   2.318   6.710  11.667 -0.8620  2.4849  1.2860
  530MOL0     H71506   2.596   6.746  11.573 -1.0679  0.7008  1.6402
  530MOL0     H71507   2.512   6.596  11.598  2.4689 -0.2467 -2.5024
  530MOL0     H71508   2.466   6.644  11.834 -1.1718  2.0831  0.1533
  530MOL0     H71509   2.546   6.798  11.834 -0.8217 -0.3357  0.8563
  530MOL0     H71510   2.538   6.658  12.037 -2.0632 -4.4157 -0.9025
  530MOL0     H71511   2.480   6.628  12.261 -1.5872 -0.7015  2.5871
  530MOL0     H71512   2.578   6.498  12.332 -1.2906 -0.5266 -0.1217
  530MOL0     H71513   2.632   6.674  12.336  0.0782 -0.6329  1.1131
  530MOL0     H71514   3.052   6.253  12.465  0.4558 -0.2025  0.3173
  530MOL0     H71515   3.086   6.203  12.723 -1.2134 -0.1771  2.1943
  530MOL0     H71516   2.769   6.349  12.962 -0.1191  1.7956  2.2692
  530MOL0     H71517   2.823   6.238  13.084 -1.8784  2.0479  1.5247
  530MOL0     H71518   3.001   6.437  12.926 -0.0365  0.2233 -0.1303
  530MOL0     H71519   2.928   6.486  13.082  3.1666  0.9982  0.0843
  530MOL0     H71520   3.096   6.244  13.084 -1.9170  0.1894 -1.2632
  530MOL0     H71521   3.073   6.374  13.215 -0.8281  1.8400 -0.0714
  530MOL0     H71522   3.301   6.389  13.135  0.3699 -0.3234 -1.1323
  530MOL0     H71523   3.233   6.425  12.976  0.0608  5.4599 -0.2324
  530MOL0     H71524   3.157   6.578  13.221 -0.5739 -0.9658 -0.4776
  530MOL0     H71525   3.118   6.612  13.053 -2.3618 -3.9199 -0.3194
  530MOL0     H71526   3.409   6.584  13.154 -1.3306  0.5578  2.1957
  530MOL0     H71527   3.343   6.672  13.007 -4.5737  0.8466 -0.1370
  530MOL0     H71528   3.248   6.757  13.273  0.9316 -2.8688 -0.6558
  530MOL0     H71529   3.229   6.839  13.115  1.9338  2.7350 -1.3728
  530MOL0     H71530   3.393   6.955  13.233 -1.5097  0.3959 -1.7239
  530MOL0     H71531   3.465   6.882  13.093 -1.6802  0.2215 -0.2866
  530MOL0     H71532   2.689   6.318  12.789  1.5953  2.1663  2.2988
  530MOL0     H71533   2.650   6.368  12.545  0.9629 -0.8790 -2.0964
  530MOL0     H71534   2.964   6.428  12.078 -2.2534 -4.6285 -0.5335
  530MOL0     H71535   2.896   6.530  11.856 -2.0636 -1.9627 -1.5759
  530MOL0     H71536   1.474   6.753  10.588  0.2908 -0.4445  1.5567
  530MOL0     H71537   1.406   6.524  10.616 -0.5987  1.0860  1.0095
  530MOL0     H71538   1.390   6.137  10.561 -1.5949 -1.7740 -1.6418
  530MOL0     H71539   1.298   5.932  10.535 -0.5961  2.2552 -0.0609
  530MOL0     H71540   1.288   5.682  10.493 -1.1511 -0.4741 -0.2703
  530MOL0     H71541   1.286   5.540  10.578  2.2085 -0.6841 -2.7480
  530MOL0     H71542   1.175   5.802  10.685  2.3829  0.5177 -3.7231
  530MOL0     H71543   1.150   5.653  10.771 -1.6499 -1.0292 -0.2731
  530MOL0     H71544   1.019   5.562  10.590  1.3104 -0.4825  1.2738
  530MOL0     H71545   1.029   5.705  10.491 -0.7050 -0.6022 -0.1269
  530MOL0     H71546   0.942   5.837  10.680 -0.2657 -0.5488  2.0554
  530MOL0     H71547   0.909   5.685  10.764  2.9170  0.7640  1.2778
  530MOL0     H71548   0.564   5.730  10.560  0.0722  2.1470  0.0258
  530MOL0     H71549   1.657   5.764  10.742  1.6919 -0.4298 -0.1063
  530MOL0     H71550   1.745   5.983  10.747 -0.2436 -0.6015  2.0283
  531MOL0     O71551   4.133   9.879   8.882 -0.1454  0.3225 -0.6098
  531MOL0     C71552   4.220   9.803   8.859 -1.1708  0.4594  0.6924
  531MOL0     O71553   4.218   9.701   8.758  0.0161  0.3895  0.5202
  531MOL0     C71554   4.108   9.683   8.680  1.3305  0.6022 -0.9696
  531MOL0     C71555   4.106   9.700   8.544  0.2367 -0.1177  0.9159
  531MOL0     C71556   3.983   9.688   8.471  0.0597 -0.5591 -0.2332
  531MOL0     C71557   3.860   9.661   8.521 -0.4116 -0.4477  0.0548
  531MOL0     O71558   3.751   9.666   8.439 -0.8425 -0.4560 -0.0919
  531MOL0     C71559   3.627   9.692   8.506  1.1443 -0.2995  0.5696
  531MOL0     C71560   3.529   9.730   8.392 -1.1882  0.3035 -0.1830
  531MOL0     C71561   3.385   9.735   8.444 -0.0617 -0.5755 -0.3834
  531MOL0     C71562   3.288   9.765   8.333 -0.6619  0.5678 -0.9057
  531MOL0     C71563   3.137   9.758   8.369 -0.0219 -0.0405  0.2329
  531MOL0     C71564   3.055   9.801   8.245  0.1760  0.8076  0.0131
  531MOL0     C71565   2.905   9.845   8.288 -0.3328  0.9070  0.2555
  531MOL0     C71566   2.844   9.736   8.380  1.2600 -0.3799  0.2739
  531MOL0     N71567   2.702   9.753   8.404  0.2220  0.6435  0.1316
  531MOL0     C71568   2.605   9.745   8.307 -0.3483 -0.1793 -0.3257
  531MOL0     C71569   2.494   9.787   8.368 -0.0617 -0.3905 -0.3388
  531MOL0     C71570   2.350   9.796   8.314 -0.1403  0.0033  0.2379
  531MOL0     C71571   2.348   9.843   8.168 -0.6712  0.4014  0.0460
  531MOL0     C71572   2.215   9.881   8.118  0.5074 -0.0019 -0.8904
  531MOL0     C71573   2.221   9.942   7.983  0.3988  0.0572  0.7755
  531MOL0     O71574   2.290   9.871   7.884  0.2810  0.7204 -1.0407
  531MOL0     C71575   2.215   9.828   7.778  0.2719  0.4373 -0.7047
  531MOL0     C71576   2.108   9.741   7.795 -0.0431  0.0264  0.4983
  531MOL0     C71577   2.039   9.688   7.685  0.1647 -1.0024 -0.9394
  531MOL0     C71578   1.924   9.592   7.711 -0.7030 -0.4223  0.2979
  531MOL0     C71579   2.081   9.738   7.559 -0.0666 -0.0980  0.6171
  531MOL0     C71580   2.014   9.699   7.427 -0.6532 -0.0860 -0.7143
  531MOL0     O71581   2.089   9.698   7.318  0.4368 -0.7370 -0.2141
  531MOL0     C71582   2.020   9.677   7.201 -0.4769 -1.0879  0.1042
  531MOL0     C71583   2.085   9.600   7.104 -0.5577 -0.2883  0.8441
  531MOL0     C71584   2.032   9.581   6.972  0.2958 -0.1580  0.0306
  531MOL0     C71585   1.919   9.661   6.926 -0.1574  0.6458  0.6507
  531MOL0     O71586   1.860   9.663   6.804  0.2893  0.0784  0.4867
  531MOL0     C71587   1.907   9.581   6.695  0.3439 -0.9048 -0.7104
  531MOL0     C71588   1.859   9.639   6.563 -0.3919 -0.6478 -0.9528
  531MOL0     C71589   1.715   9.672   6.530  0.2834 -0.0050 -0.0162
  531MOL0     C71590   1.706   9.770   6.414 -0.5213  0.9852  0.2316
  531MOL0     C71591   1.563   9.763   6.351  0.1959 -0.2250 -0.2298
  531MOL0     C71592   1.433   9.798   6.428  0.7705  0.5131 -0.6796
  531MOL0     C71593   1.309   9.777   6.338  0.1725 -0.5787 -0.3049
  531MOL0     C71594   1.209   9.888   6.340 -0.0319  0.4993  0.3748
  531MOL0    Cl71595   1.117   9.894   6.493 -0.4164  0.1004 -0.8535
  531MOL0     C71596   1.856   9.729   7.029  0.5524 -0.2581  0.0749
  531MOL0     C71597   1.901   9.729   7.166  0.3301  0.9052 -0.9681
  531MOL0     O71598   1.908   9.634   7.432 -0.2238  0.7987  0.7237
  531MOL0     C71599   2.188   9.818   7.544 -0.3846 -0.0227  0.6226
  531MOL0     C71600   2.254   9.865   7.651 -1.1699 -0.3745  0.0109
  531MOL0     N71601   2.524   9.810   8.506  0.2718  0.0748 -0.2444
  531MOL0     N71602   2.648   9.777   8.522 -0.6509  0.3911 -0.2626
  531MOL0     C71603   3.860   9.639   8.657  0.6411 -0.6626  0.6997
  531MOL0     C71604   3.973   9.658   8.735  1.2021  0.1287  1.1520
  531MOL0     C71605   4.338   9.814   8.947  0.5651 -0.7028 -0.3103
  531MOL0     C71606   4.429   9.713   8.962  0.3937 -0.4878 -0.3114
  531MOL0     C71607   4.538   9.736   9.033 -0.1403 -0.5754 -0.3892
  531MOL0     C71608   4.558   9.851   9.109  0.8223  1.1008 -0.4570
  531MOL0     O71609   4.658   9.838   9.204 -0.0818  0.0938  0.0320
  531MOL0     C71610   4.627   9.855   9.344 -0.6597 -0.1602 -0.3746
  531MOL0     C71611   4.566   9.740   9.417  0.5777  0.3815  0.3374
  531MOL0     C71612   4.668   9.642   9.494  0.6793  0.1427 -0.8536
  531MOL0     C71613   4.736   9.698   9.613  0.0253 -0.1047 -0.3293
  531MOL0     C71614   4.646   9.733   9.717 -0.3665  0.2979  0.2649
  531MOL0     C71615   4.581   9.777   9.806  0.9994  0.3980  0.2655
  531MOL0     C71616   4.470   9.951   9.104 -0.9243 -0.2485 -0.1037
  531MOL0     C71617   4.364   9.936   9.023 -0.4066  0.6030  0.7748
  531MOL0     H71618   4.188   9.730   8.480 -0.3551 -2.6910 -1.2289
  531MOL0     H71619   3.998   9.711   8.366 -0.5942  1.6332  0.0918
  531MOL0     H71620   3.593   9.607   8.565  2.5546  0.9075  3.3046
  531MOL0     H71621   3.628   9.766   8.587  2.5597 -2.8221  3.0112
  531MOL0     H71622   3.556   9.827   8.350 -1.5110 -0.1331 -1.4626
  531MOL0     H71623   3.544   9.653   8.315  0.1065  0.7304 -0.3955
  531MOL0     H71624   3.348   9.648   8.500 -2.0951  1.0851  1.0061
  531MOL0     H71625   3.385   9.811   8.522 -0.9162  2.1355 -2.8493
  531MOL0     H71626   3.313   9.863   8.291  1.2951  1.6021  2.3113
  531MOL0     H71627   3.295   9.698   8.248 -1.1220 -2.6839  1.4426
  531MOL0     H71628   3.101   9.658   8.394 -2.7922  0.1855 -2.2580
  531MOL0     H71629   3.124   9.831   8.449  3.3525  0.3240  0.5598
  531MOL0     H71630   3.100   9.894   8.210 -0.2741  2.2070  2.8733
  531MOL0     H71631   3.044   9.719   8.173 -1.1418  1.9713 -1.1734
  531MOL0     H71632   2.922   9.933   8.350  1.8685  0.3207  0.5772
  531MOL0     H71633   2.834   9.871   8.209  0.1368 -1.3218 -0.9844
  531MOL0     H71634   2.890   9.735   8.479  0.2793 -1.8766  0.7430
  531MOL0     H71635   2.855   9.635   8.339  0.3584 -0.7023  0.8093
  531MOL0     H71636   2.621   9.711   8.205  0.2019 -2.8215  0.5798
  531MOL0     H71637   2.298   9.701   8.325 -2.1183  0.8110 -1.4262
  531MOL0     H71638   2.288   9.869   8.368 -1.5804  0.5945 -2.0649
  531MOL0     H71639   2.402   9.773   8.104 -1.1189 -0.6000  0.7329
  531MOL0     H71640   2.404   9.937   8.166 -0.5358  0.3111 -1.0820
  531MOL0     H71641   2.172   9.951   8.191  2.2437 -1.8528  2.1471
  531MOL0     H71642   2.148   9.796   8.109  1.2652 -0.7942  0.5028
  531MOL0     H71643   2.280  10.033   8.000 -0.2978  0.5840  0.4483
  531MOL0     H71644   2.124   9.981   7.950  0.7001  1.2459  1.2224
  531MOL0     H71645   2.078   9.716   7.896  1.3416  3.7453  1.9933
  531MOL0     H71646   1.950   9.495   7.667  0.2098  0.2821 -0.7530
  531MOL0     H71647   1.903   9.593   7.819 -0.6418  2.1574  0.3409
  531MOL0     H71648   1.834   9.629   7.662 -1.5432  0.1830  2.1934
  531MOL0     H71649   2.169   9.544   7.142 -0.1176 -0.2665 -0.0645
  531MOL0     H71650   2.080   9.511   6.905  0.9583 -0.5193  0.8510
  531MOL0     H71651   2.015   9.565   6.695  0.7390  1.0347  2.0132
  531MOL0     H71652   1.864   9.482   6.709  1.4430 -1.4958 -1.4344
  531MOL0     H71653   1.906   9.738   6.565 -0.0369 -0.7464  2.8560
  531MOL0     H71654   1.911   9.585   6.483  0.7128 -0.1774 -0.5694
  531MOL0     H71655   1.672   9.725   6.615  0.3996 -0.5963  0.4187
  531MOL0     H71656   1.664   9.578   6.506 -0.6117  0.2236  0.9231
  531MOL0     H71657   1.733   9.869   6.454 -1.6430  0.1722  3.3183
  531MOL0     H71658   1.773   9.729   6.339  2.8064  1.1354  2.8581
  531MOL0     H71659   1.565   9.663   6.306  3.0073  0.5316 -2.0068
  531MOL0     H71660   1.582   9.841   6.277  1.4814  0.7613  1.0740
  531MOL0     H71661   1.423   9.722   6.506  2.7709  0.4957 -0.3792
  531MOL0     H71662   1.450   9.892   6.480  0.6414  0.3729 -0.3843
  531MOL0     H71663   1.267   9.686   6.383  2.4397 -0.3961  2.4781
  531MOL0     H71664   1.342   9.752   6.237 -1.3253 -0.6699 -0.8056
  531MOL0     H71665   1.144   9.875   6.253 -0.4947 -1.5447  0.9549
  531MOL0     H71666   1.250   9.989   6.334  1.9275 -0.1214  2.1395
  531MOL0     H71667   1.768   9.786   7.003  1.0294 -1.0093 -3.6544
  531MOL0     H71668   1.838   9.792   7.228 -2.3910 -1.1038 -1.4925
  531MOL0     H71669   2.214   9.841   7.441 -0.9955 -0.6135  0.3241
  531MOL0     H71670   2.339   9.932   7.636  0.1937 -2.3542 -1.5895
  531MOL0     H71671   3.769   9.614   8.712  1.3724 -5.9241 -0.0112
  531MOL0     H71672   3.951   9.661   8.841  0.7907  1.1512  1.0454
  531MOL0     H71673   4.409   9.617   8.915  2.1757  0.4641 -3.3060
  531MOL0     H71674   4.614   9.661   9.049 -0.9856 -0.8993  2.5259
  531MOL0     H71675   4.718   9.887   9.395  0.0524 -1.3545 -0.8468
  531MOL0     H71676   4.566   9.945   9.351 -2.1657 -1.0638 -1.4354
  531MOL0     H71677   4.512   9.679   9.345  0.5099  1.6789 -0.7386
  531MOL0     H71678   4.499   9.770   9.498  2.1432  0.1403  1.7935
  531MOL0     H71679   4.741   9.604   9.421  2.9361 -0.5894  1.6403
  531MOL0     H71680   4.611   9.555   9.527  1.7080  0.2668  1.4683
  531MOL0     H71681   4.786   9.790   9.582  2.1573 -0.8089  0.8097
  531MOL0     H71682   4.808   9.618   9.629  0.5994 -0.4770 -3.9859
  531MOL0     H71683   4.502   9.802   9.874 -1.4832 -1.3072 -1.7785
  531MOL0     H71684   4.485  10.034   9.173 -1.1417 -2.1579  2.3664
  531MOL0     H71685   4.303  10.026   9.016 -1.4061 -0.1695 -2.8441
  532MOL0     O71686   4.928   7.908   6.142  0.1162  0.4590 -0.0644
  532MOL0     C71687   4.875   7.880   6.032  0.3540 -0.0923 -0.9525
  532MOL0     O71688   4.914   7.925   5.917  0.5282 -0.1293  0.5930
  532MOL0     C71689   5.021   8.010   5.904 -1.8580 -0.4847  0.4640
  532MOL0     C71690   5.147   7.984   5.966  1.0582  0.5533  0.4055
  532MOL0     C71691   5.258   8.072   5.955 -0.1151  0.0622 -0.9555
  532MOL0     C71692   5.247   8.182   5.867 -1.4133 -1.2069 -0.0471
  532MOL0     O71693   5.353   8.271   5.861  0.5383  0.4856  0.3998
  532MOL0     C71694   5.401   8.310   5.732 -0.6332  0.4156  0.4739
  532MOL0     C71695   5.458   8.184   5.651  0.5236 -0.2813  0.4571
  532MOL0     C71696   5.556   8.221   5.546 -0.6767  0.5829 -0.6779
  532MOL0     C71697   5.511   8.322   5.444  0.1925  0.1868 -0.7658
  532MOL0     C71698   5.600   8.323   5.322  0.5899 -0.0227  0.0824
  532MOL0     C71699   5.547   8.432   5.227  0.4403  0.3105  0.0099
  532MOL0     C71700   5.584   8.579   5.285  0.9563 -0.2972  0.4281
  532MOL0     C71701   5.505   8.686   5.214  0.6280  0.2501  1.2562
  532MOL0     N71702   5.563   8.736   5.088 -1.2893  0.7472 -0.2233
  532MOL0     C71703   5.531   8.862   5.038  0.0112  0.5445 -0.4993
  532MOL0     C71704   5.601   8.880   4.918  0.4544  0.6413 -0.3964
  532MOL0     C71705   5.600   8.994   4.815  0.0260 -0.9214 -0.3404
  532MOL0     C71706   5.741   9.052   4.790  0.2309 -0.0298 -0.0455
  532MOL0     C71707   5.767   9.163   4.883  0.0067 -0.3295  0.9489
  532MOL0     C71708   5.920   9.203   4.855 -0.3128 -0.2365  0.8742
  532MOL0     O71709   6.002   9.124   4.946 -0.0720  0.6163  0.3778
  532MOL0     C71710   6.136   9.156   4.953 -0.3907  0.2019  0.0114
  532MOL0     C71711   6.214   9.093   5.044  0.2128  0.1735  0.0274
  532MOL0     C71712   6.350   9.117   5.063 -0.9418 -0.0650  0.2634
  532MOL0     C71713   6.422   9.018   5.153 -0.0154 -0.0909 -0.7560
  532MOL0     C71714   6.420   9.214   4.979  0.1724 -0.0210  0.5299
  532MOL0     C71715   6.562   9.235   4.974 -0.1352  0.6150 -0.6471
  532MOL0     O71716   6.606   9.330   4.884 -0.5379  0.7155  0.0339
  532MOL0     C71717   6.732   9.347   4.868  0.7978  0.4981 -0.3903
  532MOL0     C71718   6.777   9.346   4.734  0.3471  0.0790 -0.8260
  532MOL0     C71719   6.915   9.359   4.706  1.4037  0.5074  0.2440
  532MOL0     C71720   6.996   9.386   4.820 -0.8165 -0.2131  0.3777
  532MOL0     O71721   7.129   9.421   4.812 -0.2686 -0.2478 -0.9982
  532MOL0     C71722   7.224   9.324   4.755 -0.0968 -0.3380 -0.9578
  532MOL0     C71723   7.303   9.392   4.640  0.5668 -0.5162 -0.2240
  532MOL0     C71724   7.404   9.504   4.677  1.4366  1.3889 -1.0950
  532MOL0     C71725   7.437   9.532   4.836  0.0385  0.5871  1.2999
  532MOL0     C71726   7.542   9.638   4.856  0.3721  0.4895 -0.2565
  532MOL0     C71727   7.551   9.673   5.013 -0.1066  0.3357  0.2852
  532MOL0     C71728   7.427   9.749   5.075 -0.1798 -0.4657  0.6828
  532MOL0     C71729   7.440   9.816   5.211  0.4428  0.5129 -0.1775
  532MOL0    Cl71730   7.486   9.693   5.336  0.4205  0.5979 -0.6946
  532MOL0     C71731   6.948   9.392   4.947  0.0254 -0.7279  0.5156
  532MOL0     C71732   6.815   9.378   4.971  0.8238 -0.0860  0.4150
  532MOL0     O71733   6.634   9.156   5.042  0.1917  0.1219 -0.1673
  532MOL0     C71734   6.334   9.284   4.887  0.5785 -0.3752  1.1470
  532MOL0     C71735   6.193   9.257   4.874 -0.4556  0.4033  0.0616
  532MOL0     N71736   5.663   8.757   4.895 -0.7018  0.3989  0.1274
  532MOL0     N71737   5.650   8.669   4.994 -0.5363 -0.4750  0.1120
  532MOL0     C71738   5.126   8.201   5.801  0.3945 -0.2672 -0.8592
  532MOL0     C71739   5.016   8.117   5.820  0.2454  0.0590 -0.2158
  532MOL0     C71740   4.753   7.791   6.042 -0.7669  0.3711 -0.9896
  532MOL0     C71741   4.681   7.745   5.931 -0.3341  0.2099 -0.0677
  532MOL0     C71742   4.574   7.658   5.946 -0.6331 -0.2161  0.1003
  532MOL0     C71743   4.521   7.631   6.068  0.2075 -0.2946  0.7028
  532MOL0     O71744   4.411   7.550   6.059 -0.3463  0.3155 -0.1384
  532MOL0     C71745   4.346   7.522   6.180 -0.2963 -0.7424 -0.6624
  532MOL0     C71746   4.240   7.406   6.149 -0.7091 -0.7201  0.9344
  532MOL0     C71747   4.176   7.360   6.277  0.2706 -0.3981  0.3530
  532MOL0     C71748   4.272   7.287   6.371 -0.4338  0.2526 -0.0143
  532MOL0     C71749   4.349   7.174   6.316 -0.0378  0.3886 -0.9596
  532MOL0     C71750   4.423   7.094   6.273 -0.6678 -0.1340  0.4320
  532MOL0     C71751   4.581   7.689   6.182 -0.2030  0.5951  0.1636
  532MOL0     C71752   4.693   7.775   6.169 -1.0295  0.8275 -0.4206
  532MOL0     H71753   5.161   7.905   6.039 -0.3097 -0.2041 -0.1077
  532MOL0     H71754   5.347   8.046   6.012 -1.1434 -0.1924  0.5923
  532MOL0     H71755   5.323   8.353   5.669 -0.2284  1.5119  0.6930
  532MOL0     H71756   5.480   8.383   5.749  1.0701 -1.3331  0.4148
  532MOL0     H71757   5.501   8.125   5.732  0.4870  2.1937  2.3817
  532MOL0     H71758   5.379   8.129   5.600 -0.1361 -1.0674  2.2604
  532MOL0     H71759   5.651   8.246   5.595 -0.7149  0.5395 -0.5815
  532MOL0     H71760   5.574   8.137   5.479 -0.6666 -0.0290  0.0843
  532MOL0     H71761   5.405   8.312   5.419 -0.5580  2.8347  0.9384
  532MOL0     H71762   5.521   8.419   5.494 -0.2970 -0.4691  0.6553
  532MOL0     H71763   5.704   8.355   5.334  1.7133 -2.0889 -2.8952
  532MOL0     H71764   5.596   8.226   5.272 -2.6142  0.0313 -0.0017
  532MOL0     H71765   5.586   8.410   5.127  1.4278 -0.5356  0.5585
  532MOL0     H71766   5.439   8.417   5.218  0.1196  2.5882 -0.6516
  532MOL0     H71767   5.557   8.598   5.389  1.4294  2.9360  0.0650
  532MOL0     H71768   5.691   8.596   5.271  0.3401  4.5568 -0.0209
  532MOL0     H71769   5.485   8.781   5.266  0.6339  0.1566  1.4274
  532MOL0     H71770   5.402   8.652   5.197  0.7802  0.3912 -0.0489
  532MOL0     H71771   5.480   8.939   5.095  3.3573 -0.5929  4.6243
  532MOL0     H71772   5.560   8.950   4.723 -0.0638  1.5889 -1.5913
  532MOL0     H71773   5.535   9.079   4.835  1.4684 -0.0990  1.1290
  532MOL0     H71774   5.738   9.072   4.682 -2.4493 -2.8062 -0.6144
  532MOL0     H71775   5.829   8.990   4.809  0.4415  0.6280  1.2040
  532MOL0     H71776   5.747   9.136   4.987 -3.7650 -0.3728  0.3590
  532MOL0     H71777   5.700   9.249   4.880  2.4081  1.7596  3.2828
  532MOL0     H71778   5.935   9.310   4.874 -1.6295  0.1551 -0.0809
  532MOL0     H71779   5.949   9.191   4.751  2.7578 -1.0776  1.7249
  532MOL0     H71780   6.163   9.023   5.110  1.6361  0.4953  1.5328
  532MOL0     H71781   6.510   8.965   5.113  2.3663  0.3910  3.3228
  532MOL0     H71782   6.477   9.072   5.230  0.2583  0.1609 -1.1207
  532MOL0     H71783   6.355   8.939   5.187 -1.0079  0.2022 -1.9475
  532MOL0     H71784   6.704   9.330   4.655 -1.4069  1.9337  0.2956
  532MOL0     H71785   6.945   9.340   4.603 -3.8039  4.8660 -2.6173
  532MOL0     H71786   7.301   9.294   4.826 -0.1094  1.1007 -0.2962
  532MOL0     H71787   7.170   9.234   4.726  2.2835 -2.3628  0.5005
  532MOL0     H71788   7.362   9.324   4.577  1.9344  1.4256 -1.1421
  532MOL0     H71789   7.221   9.438   4.585 -1.0521 -0.3244  2.1975
  532MOL0     H71790   7.356   9.596   4.642  1.3309  1.0838 -1.7720
  532MOL0     H71791   7.490   9.477   4.615  0.7411 -2.3874 -0.6893
  532MOL0     H71792   7.345   9.551   4.892  0.7184  0.5590  2.4739
  532MOL0     H71793   7.473   9.438   4.879  1.8948  0.5986 -0.1199
  532MOL0     H71794   7.514   9.728   4.801  2.0271  1.1289 -0.1282
  532MOL0     H71795   7.639   9.600   4.822  2.2882  4.5081  0.0339
  532MOL0     H71796   7.560   9.575   5.061 -0.7596  0.7755  1.3475
  532MOL0     H71797   7.638   9.733   5.042  0.3893 -0.2421  0.0223
  532MOL0     H71798   7.347   9.675   5.089  0.8359 -1.6300  0.5787
  532MOL0     H71799   7.388   9.832   5.016 -0.8449 -0.9717  0.3890
  532MOL0     H71800   7.345   9.863   5.235 -0.5350 -0.8182 -1.2721
  532MOL0     H71801   7.525   9.885   5.209  2.1444 -1.4701  0.1668
  532MOL0     H71802   7.023   9.412   5.023  0.2649  1.4622 -0.2276
  532MOL0     H71803   6.782   9.382   5.075  2.2255 -1.5720  0.9692
  532MOL0     H71804   6.375   9.359   4.819 -1.1340  0.4560  0.9728
  532MOL0     H71805   6.139   9.316   4.800  1.0204  0.1796 -1.2343
  532MOL0     H71806   5.112   8.301   5.759  0.5336  0.1327  0.0268
  532MOL0     H71807   4.920   8.139   5.776 -0.7694 -0.1332  1.7985
  532MOL0     H71808   4.719   7.781   5.836 -1.4194  4.9930  1.0272
  532MOL0     H71809   4.536   7.614   5.854  0.6600  0.3275 -0.7191
  532MOL0     H71810   4.421   7.489   6.252  0.1275 -1.7707 -1.5483
  532MOL0     H71811   4.276   7.600   6.210 -1.0962 -1.4053 -0.7532
  532MOL0     H71812   4.290   7.328   6.091  1.3376  0.3564  1.1806
  532MOL0     H71813   4.160   7.439   6.083 -0.0296  0.3830  0.6506
  532MOL0     H71814   4.091   7.293   6.262  1.1391 -1.6287  0.8052
  532MOL0     H71815   4.140   7.451   6.325  1.0138 -0.3553  0.8579
  532MOL0     H71816   4.219   7.229   6.447  0.2904 -3.6759 -2.2230
  532MOL0     H71817   4.334   7.365   6.416 -0.2395  1.4263 -2.1840
  532MOL0     H71818   4.489   7.019   6.232 -1.2357  0.4160 -1.6245
  532MOL0     H71819   4.541   7.680   6.282 -1.2069  3.4893  0.0928
  532MOL0     H71820   4.739   7.824   6.255 -0.2907  2.3299 -1.6218
  533MOL0     O71821  11.383   0.230   2.395 -0.3841  0.3691 -0.4048
  533MOL0     C71822  11.412   0.115   2.400  0.0960 -0.0826 -0.3781
  533MOL0     O71823  11.523   0.059   2.461  0.1670  0.0145 -0.5647
  533MOL0     C71824  11.627   0.149   2.488 -0.1521 -0.4462 -0.5552
  533MOL0     C71825  11.704   0.212   2.394  0.5218 -0.1977  0.4490
  533MOL0     C71826  11.802   0.305   2.428  0.7569 -1.1042  0.3364
  533MOL0     C71827  11.825   0.341   2.572  0.0196 -0.3510  0.6755
  533MOL0     O71828  11.912   0.440   2.608 -0.7255 -0.5300 -1.0291
  533MOL0     C71829  12.043   0.433   2.553 -0.8903 -0.3241 -0.5742
  533MOL0     C71830  12.117   0.515   2.653  0.3883 -0.3152 -0.5790
  533MOL0     C71831  12.062   0.665   2.673 -0.3573  0.0978 -0.8144
  533MOL0     C71832  12.171   0.777   2.705  0.4427  0.3159  0.9352
  533MOL0     C71833  12.310   0.751   2.666  0.2491 -0.2962 -1.0361
  533MOL0     C71834  12.400   0.870   2.703 -0.1095  0.5478  0.4470
  533MOL0     C71835  12.396   1.006   2.635 -0.3754 -1.1222 -0.8006
  533MOL0     C71836  12.441   1.127   2.715 -1.0728 -0.7928 -0.6398
  533MOL0     N71837  12.588   1.130   2.738 -1.1379 -0.5947  0.6797
  533MOL0     C71838  12.680   1.178   2.640  0.3107 -0.9005 -1.1294
  533MOL0     C71839  12.796   1.190   2.698  0.4034 -0.3415 -0.0710
  533MOL0     C71840  12.916   1.267   2.649 -0.9325 -1.1166 -0.5823
  533MOL0     C71841  12.905   1.405   2.719  0.2427 -0.6200  0.1553
  533MOL0     C71842  13.039   1.476   2.710 -0.8188 -0.4799 -0.0233
  533MOL0     C71843  13.043   1.597   2.804  0.4078 -1.1373 -0.1829
  533MOL0     O71844  12.928   1.688   2.796 -0.2084 -0.0194  0.1318
  533MOL0     C71845  12.918   1.793   2.705  0.1368  0.6998  0.4163
  533MOL0     C71846  12.815   1.882   2.732 -0.2910  0.1572 -0.4647
  533MOL0     C71847  12.807   2.003   2.663 -0.3726  0.2983  0.3455
  533MOL0     C71848  12.708   2.104   2.717  0.0588  0.7024  0.5179
  533MOL0     C71849  12.900   2.040   2.560  0.0311 -0.4357 -0.3210
  533MOL0     C71850  12.899   2.171   2.492  0.1529  0.1101  0.4218
  533MOL0     O71851  12.976   2.169   2.379 -0.1244  0.1484 -0.3241
  533MOL0     C71852  12.965   2.270   2.290  0.0277  0.0028  0.2132
  533MOL0     C71853  13.025   2.392   2.321  1.3356  0.0072  0.9429
  533MOL0     C71854  13.025   2.505   2.241  0.6487 -0.5695  0.0023
  533MOL0     C71855  12.949   2.506   2.124  0.1606  0.4830  0.2847
  533MOL0     O71856  12.939   2.620   2.056  0.4183  1.0977  0.3038
  533MOL0     C71857  12.894   2.618   1.919  0.2394 -0.2859 -0.0174
  533MOL0     C71858  12.948   2.741   1.840  0.5964  0.0041  1.0229
  533MOL0     C71859  12.892   2.733   1.696 -0.3541  0.9099 -0.6146
  533MOL0     C71860  12.920   2.855   1.616 -0.1613 -0.0664 -0.0254
  533MOL0     C71861  12.858   2.855   1.472 -0.2286  0.5122 -0.5109
  533MOL0     C71862  12.882   2.991   1.409  0.2235 -0.8074  0.4660
  533MOL0     C71863  12.804   3.011   1.277  0.6590 -0.1248  0.1430
  533MOL0     C71864  12.886   2.958   1.155  0.3741 -0.3306  1.4923
  533MOL0    Cl71865  13.026   3.061   1.148  0.2502 -0.5777 -0.6881
  533MOL0     C71866  12.885   2.383   2.089  0.3508  0.4756 -0.2265
  533MOL0     C71867  12.891   2.267   2.171 -0.3442  0.3187  0.6351
  533MOL0     O71868  12.841   2.266   2.544  0.8636  0.2493 -0.2671
  533MOL0     C71869  13.008   1.953   2.538  0.3975  0.1962  0.0293
  533MOL0     C71870  13.022   1.832   2.614 -0.3045 -0.0837  0.8390
  533MOL0     N71871  12.774   1.147   2.828  0.2772  0.7957  0.1281
  533MOL0     N71872  12.655   1.120   2.849 -0.7735  0.9057 -0.3230
  533MOL0     C71873  11.756   0.267   2.668 -0.8776  0.8980 -0.2139
  533MOL0     C71874  11.660   0.167   2.629 -0.6318 -0.3599  0.2165
  533MOL0     C71875  11.305   0.023   2.368  0.2443  0.0711  0.1492
  533MOL0     C71876  11.172   0.057   2.343  0.4374  0.1479 -1.1656
  533MOL0     C71877  11.083  -0.038   2.320  0.6596  0.6922  1.6554
  533MOL0     C71878  11.108  -0.180   2.322 -0.1997 -1.1729 -0.0876
  533MOL0     O71879  11.007  -0.269   2.296  0.0574 -0.0820 -0.0551
  533MOL0     C71880  10.879  -0.225   2.287  0.6067 -1.0335 -0.2791
  533MOL0     C71881  10.787  -0.344   2.280  0.0942 -0.0567 -0.0744
  533MOL0     C71882  10.743  -0.361   2.132  0.2982  0.3745  0.0977
  533MOL0     C71883  10.630  -0.466   2.122 -0.3296  0.2228  0.1952
  533MOL0     C71884  10.673  -0.591   2.179  0.2629 -0.3709  0.5800
  533MOL0     C71885  10.716  -0.693   2.225 -0.4040  0.1254  1.2690
  533MOL0     C71886  11.243  -0.215   2.343  0.2222 -0.2310 -1.5414
  533MOL0     C71887  11.337  -0.108   2.362  0.2162 -0.8258 -1.0848
  533MOL0     H71888  11.681   0.183   2.291  0.4199  1.2607  0.0470
  533MOL0     H71889  11.842   0.369   2.350 -3.2701 -1.0825 -1.9743
  533MOL0     H71890  12.083   0.331   2.549  4.4696  1.4282  0.5476
  533MOL0     H71891  12.035   0.479   2.454 -0.2344 -0.7727 -0.8411
  533MOL0     H71892  12.108   0.471   2.752 -1.0919  2.5498  0.6902
  533MOL0     H71893  12.223   0.521   2.629  0.1802  3.5838 -1.2131
  533MOL0     H71894  12.021   0.701   2.578  2.4211  2.2196 -1.3288
  533MOL0     H71895  11.988   0.679   2.752  1.1073  1.7273  0.3262
  533MOL0     H71896  12.151   0.872   2.655  4.1631 -0.8814 -3.5344
  533MOL0     H71897  12.166   0.787   2.814 -2.4492  1.4572  0.8032
  533MOL0     H71898  12.340   0.670   2.733  1.1111  1.7777  1.2058
  533MOL0     H71899  12.323   0.739   2.558  0.2793 -0.4100 -1.0195
  533MOL0     H71900  12.392   0.895   2.809  0.5940  1.3594  0.3156
  533MOL0     H71901  12.499   0.834   2.674 -0.0741  1.7046 -0.9411
  533MOL0     H71902  12.459   0.997   2.546  2.6930 -2.4520  1.3289
  533MOL0     H71903  12.292   1.021   2.604 -0.6508 -2.5874 -0.6338
  533MOL0     H71904  12.392   1.143   2.812 -0.9121  0.3954 -0.7335
  533MOL0     H71905  12.417   1.215   2.654 -1.3232 -1.2060 -1.1424
  533MOL0     H71906  12.672   1.226   2.543 -1.7119 -0.4058 -0.7772
  533MOL0     H71907  12.997   1.211   2.698  0.3770  0.0432 -1.3507
  533MOL0     H71908  12.931   1.280   2.542  1.6692  0.0697 -0.1505
  533MOL0     H71909  12.901   1.378   2.824 -0.4916  1.3329  0.6796
  533MOL0     H71910  12.825   1.469   2.680  1.4420 -0.0691 -1.5337
  533MOL0     H71911  13.059   1.526   2.615  2.0906 -0.2193  0.6256
  533MOL0     H71912  13.121   1.409   2.738 -0.2331 -0.1022 -0.8063
  533MOL0     H71913  13.133   1.658   2.789 -1.0989  0.9100 -1.3603
  533MOL0     H71914  13.028   1.570   2.909 -3.2187  0.5683 -0.1299
  533MOL0     H71915  12.751   1.865   2.818 -1.0858 -0.4327 -1.1562
  533MOL0     H71916  12.644   2.069   2.799 -1.5682 -5.5523 -2.7371
  533MOL0     H71917  12.731   2.208   2.741 -3.0353  1.9764 -1.4177
  533MOL0     H71918  12.636   2.111   2.634  1.8664  0.6476 -1.1137
  533MOL0     H71919  13.066   2.390   2.422  0.2442 -0.1695  1.3869
  533MOL0     H71920  13.073   2.595   2.277 -1.7496  1.1909 -0.9422
  533MOL0     H71921  12.931   2.527   1.872  2.9025  0.8158 -0.2008
  533MOL0     H71922  12.784   2.615   1.919  0.2605 -1.9641 -0.6109
  533MOL0     H71923  12.917   2.829   1.896 -1.6560  0.4625 -0.8012
  533MOL0     H71924  13.058   2.741   1.834  0.6079 -0.2593  1.2262
  533MOL0     H71925  12.785   2.712   1.709  0.1897 -0.4140  2.8731
  533MOL0     H71926  12.925   2.645   1.638  1.9482  2.0778 -1.1805
  533MOL0     H71927  12.869   2.933   1.673 -2.8800 -0.8408 -1.2511
  533MOL0     H71928  13.028   2.870   1.613 -0.1678 -0.1325 -1.9661
  533MOL0     H71929  12.749   2.842   1.479 -0.5287  2.6347 -0.7131
  533MOL0     H71930  12.911   2.774   1.422  0.4740  0.1847  0.7122
  533MOL0     H71931  12.848   3.068   1.478  1.2317  0.0582  0.0268
  533MOL0     H71932  12.985   3.026   1.395  0.3300 -0.5587  1.7586
  533MOL0     H71933  12.767   3.112   1.257  0.4114 -0.0490  0.9599
  533MOL0     H71934  12.712   2.952   1.274  1.1472 -0.8726 -2.8449
  533MOL0     H71935  12.832   2.983   1.064  1.7414 -3.0874 -0.1989
  533MOL0     H71936  12.902   2.850   1.150  1.8665 -0.0782 -0.6408
  533MOL0     H71937  12.821   2.367   2.003 -0.2234  1.4178  0.0157
  533MOL0     H71938  12.846   2.175   2.134 -2.1222  1.8068 -1.1396
  533MOL0     H71939  13.091   1.975   2.473 -0.1341  4.0940  0.4252
  533MOL0     H71940  13.108   1.772   2.585 -2.4841 -2.4872 -1.0073
  533MOL0     H71941  11.764   0.283   2.776 -2.0592 -0.2030  0.0581
  533MOL0     H71942  11.613   0.111   2.709  3.2717 -2.6482  1.1759
  533MOL0     H71943  11.131   0.157   2.338 -2.0661 -0.7576 -0.6035
  533MOL0     H71944  10.990   0.012   2.295 -2.2386 -4.8944 -0.5765
  533MOL0     H71945  10.855  -0.178   2.382 -2.6470 -0.3667 -1.3028
  533MOL0     H71946  10.845  -0.156   2.209  0.7527 -1.2298 -0.5177
  533MOL0     H71947  10.701  -0.309   2.339 -0.7632  0.3631 -1.5127
  533MOL0     H71948  10.832  -0.432   2.327 -1.3230 -0.4862  0.5579
  533MOL0     H71949  10.819  -0.406   2.068 -0.0809 -0.7017  0.3901
  533MOL0     H71950  10.714  -0.265   2.088 -0.7068  0.1507  0.2440
  533MOL0     H71951  10.607  -0.477   2.016  2.7463 -1.4893 -0.4375
  533MOL0     H71952  10.536  -0.433   2.167  1.1778  1.3280  2.7965
  533MOL0     H71953  10.751  -0.787   2.261  1.6094  0.9270  1.5152
  533MOL0     H71954  11.272  -0.318   2.358  1.9343  0.4910  0.4309
  533MOL0     H71955  11.435  -0.153   2.375 -0.4261 -1.5129  2.3871
  534MOL0     O71956   3.391   3.356   1.256  0.1509  0.3569 -0.2651
  534MOL0     C71957   3.455   3.455   1.288 -1.0005  0.3887  1.1383
  534MOL0     O71958   3.520   3.473   1.401 -0.5588  0.5132 -0.2416
  534MOL0     C71959   3.503   3.376   1.500 -0.1948 -0.3220 -1.1468
  534MOL0     C71960   3.402   3.396   1.587  1.2477  0.6450 -0.6482
  534MOL0     C71961   3.372   3.306   1.694 -0.9812  0.0619 -0.0465
  534MOL0     C71962   3.459   3.197   1.712  0.5051  0.8602 -0.0195
  534MOL0     O71963   3.441   3.094   1.802 -0.6210 -1.0341  0.1902
  534MOL0     C71964   3.317   3.083   1.864  0.5927 -0.5871  0.0896
  534MOL0     C71965   3.312   2.975   1.975 -0.3590 -0.2426 -0.3763
  534MOL0     C71966   3.439   2.968   2.058  0.0074 -0.1625 -0.5509
  534MOL0     C71967   3.488   3.102   2.117  0.2217  0.3012 -0.1771
  534MOL0     C71968   3.626   3.096   2.182  0.4771 -0.1266  0.0513
  534MOL0     C71969   3.635   2.993   2.302  0.4670 -0.5915  1.0197
  534MOL0     C71970   3.512   2.979   2.395 -0.1409 -0.0765 -0.3848
  534MOL0     C71971   3.490   3.117   2.465 -0.3697  0.2709 -0.2534
  534MOL0     N71972   3.575   3.138   2.578  0.2878 -0.1000 -0.3556
  534MOL0     C71973   3.578   3.041   2.679  0.9079  1.5759 -0.3252
  534MOL0     C71974   3.621   3.099   2.793  0.1391  0.1394 -0.1953
  534MOL0     C71975   3.596   3.032   2.922  0.1236  0.5137  0.3977
  534MOL0     C71976   3.596   2.874   2.935 -0.1300 -1.1861 -0.4604
  534MOL0     C71977   3.539   2.830   3.071 -0.4990  0.7659  0.6688
  534MOL0     C71978   3.602   2.696   3.108 -0.2759  0.4005 -1.1621
  534MOL0     O71979   3.513   2.650   3.224  0.8514 -0.6121  0.6850
  534MOL0     C71980   3.528   2.520   3.269  0.0170  0.2708  0.0056
  534MOL0     C71981   3.618   2.427   3.216 -0.4898  0.2998  0.8813
  534MOL0     C71982   3.612   2.296   3.254  0.4153  1.3496 -0.5901
  534MOL0     C71983   3.685   2.192   3.165  0.3918  0.1168 -0.0327
  534MOL0     C71984   3.524   2.254   3.362  0.2182  0.6085 -0.1943
  534MOL0     C71985   3.526   2.107   3.424 -0.4041 -0.4692  0.0422
  534MOL0     O71986   3.415   2.068   3.499 -0.7066 -0.4610 -0.3788
  534MOL0     C71987   3.415   1.937   3.545  0.1246 -0.3661  0.0745
  534MOL0     C71988   3.314   1.856   3.504 -0.2510 -0.0233 -0.3990
  534MOL0     C71989   3.317   1.721   3.544  1.4501 -0.0351  0.5004
  534MOL0     C71990   3.412   1.663   3.622 -0.2915 -0.5362  0.3978
  534MOL0     O71991   3.409   1.532   3.646  0.2751  0.1030  0.3556
  534MOL0     C71992   3.391   1.439   3.536 -0.0291  0.0020  0.1159
  534MOL0     C71993   3.498   1.338   3.556  0.1035 -1.3353  1.0269
  534MOL0     C71994   3.501   1.247   3.679 -0.2846  0.3504 -0.6616
  534MOL0     C71995   3.355   1.215   3.740  0.1466 -0.0440  0.1682
  534MOL0     C71996   3.349   1.088   3.825 -1.4572  0.4563  0.0810
  534MOL0     C71997   3.442   1.106   3.958 -0.7449  0.4249  0.2598
  534MOL0     C71998   3.395   1.222   4.056  0.4180  0.5280  0.0237
  534MOL0     C71999   3.472   1.228   4.192  0.0664  0.2815 -0.2349
  534MOL0    Cl72000   3.388   1.340   4.301 -0.1570 -0.1290 -0.2623
  534MOL0     C72001   3.506   1.750   3.675  1.1797 -0.7471 -0.5934
  534MOL0     C72002   3.511   1.881   3.630  0.3021 -0.4556 -0.9921
  534MOL0     O72003   3.623   2.041   3.401  1.2449  0.2133  1.1738
  534MOL0     C72004   3.439   2.347   3.418  0.4147  0.5490 -0.1935
  534MOL0     C72005   3.441   2.482   3.373 -0.5786  0.3547 -0.6844
  534MOL0     N72006   3.644   3.236   2.765  0.2759  0.3015 -0.2704
  534MOL0     N72007   3.612   3.256   2.639  0.2666  1.0609  1.0657
  534MOL0     C72008   3.556   3.171   1.615  0.7426 -0.7474  0.5944
  534MOL0     C72009   3.576   3.257   1.506  0.2683  0.8354 -0.2602
  534MOL0     C72010   3.483   3.552   1.186 -0.5897  0.6069  0.0729
  534MOL0     C72011   3.408   3.549   1.064 -0.1344  0.5339 -0.4678
  534MOL0     C72012   3.432   3.647   0.959 -0.1225 -0.5838 -0.3257
  534MOL0     C72013   3.515   3.756   0.988 -0.1050  0.3714 -0.4731
  534MOL0     O72014   3.545   3.863   0.908  0.8610 -0.6357 -0.1818
  534MOL0     C72015   3.487   3.855   0.773 -0.0528 -0.3730 -0.2779
  534MOL0     C72016   3.551   3.950   0.679 -0.8456  0.2067  1.3413
  534MOL0     C72017   3.519   3.930   0.522  0.7081  0.0677  0.4202
  534MOL0     C72018   3.556   4.052   0.442  0.6200 -0.1643 -0.3713
  534MOL0     C72019   3.701   4.075   0.435 -1.4195 -0.3810  0.2063
  534MOL0     C72020   3.820   4.089   0.453  0.2494  0.3094  0.9718
  534MOL0     C72021   3.568   3.764   1.115  0.4943 -0.2022  0.9782
  534MOL0     C72022   3.559   3.666   1.213  0.5380  0.0874 -0.5720
  534MOL0     H72023   3.345   3.487   1.570  0.5545  0.1466 -0.9845
  534MOL0     H72024   3.288   3.308   1.763 -0.3107 -0.1881  0.7915
  534MOL0     H72025   3.276   3.170   1.916 -2.8559 -0.6351 -2.2670
  534MOL0     H72026   3.254   3.067   1.777 -0.2118  3.6261 -0.2786
  534MOL0     H72027   3.224   2.988   2.038 -0.1347  0.4297 -0.1914
  534MOL0     H72028   3.312   2.877   1.926 -0.7373  0.6666 -2.3148
  534MOL0     H72029   3.424   2.887   2.129 -1.0043  1.2738  0.9503
  534MOL0     H72030   3.522   2.947   1.990  0.9610  0.2176  0.4633
  534MOL0     H72031   3.491   3.172   2.033 -0.9839  1.5347  0.7640
  534MOL0     H72032   3.409   3.140   2.183 -1.2053 -2.0924 -0.3866
  534MOL0     H72033   3.698   3.074   2.103 -1.2109 -0.9478 -1.3289
  534MOL0     H72034   3.653   3.194   2.223  0.2172  0.1402 -0.4091
  534MOL0     H72035   3.641   2.897   2.249 -3.2553 -1.7642  2.4009
  534MOL0     H72036   3.733   2.990   2.351  2.1064 -1.4177 -2.0403
  534MOL0     H72037   3.427   2.957   2.330  0.0440  0.9789 -0.9989
  534MOL0     H72038   3.519   2.894   2.464 -1.6103  1.7259  2.1815
  534MOL0     H72039   3.383   3.135   2.478 -0.9014 -1.4498 -1.7480
  534MOL0     H72040   3.514   3.195   2.392 -1.7285  0.1293 -0.8907
  534MOL0     H72041   3.551   2.936   2.679  1.0651  1.2555  4.9539
  534MOL0     H72042   3.671   3.061   2.996  0.0743  2.4149 -0.2510
  534MOL0     H72043   3.497   3.063   2.956  0.5546  0.5187  1.7260
  534MOL0     H72044   3.693   2.828   2.912  0.4512  0.4285 -1.4336
  534MOL0     H72045   3.511   2.838   2.876 -1.1310 -0.7905  0.7040
  534MOL0     H72046   3.433   2.808   3.056  0.2565 -2.1985 -1.3329
  534MOL0     H72047   3.552   2.905   3.149 -0.9472  3.0717 -1.3581
  534MOL0     H72048   3.706   2.707   3.137  0.0491 -0.1684 -2.0681
  534MOL0     H72049   3.595   2.636   3.016 -1.5463 -0.4602 -0.5460
  534MOL0     H72050   3.686   2.446   3.133 -2.0637  2.1365 -0.0944
  534MOL0     H72051   3.659   2.237   3.068 -2.4252  1.0258  1.0561
  534MOL0     H72052   3.794   2.193   3.178  0.4699  0.6888 -0.6215
  534MOL0     H72053   3.633   2.096   3.168 -1.8198  1.2835  1.1586
  534MOL0     H72054   3.233   1.902   3.447 -0.3434  2.1730  1.3696
  534MOL0     H72055   3.238   1.656   3.509  2.0340 -0.2389 -0.4733
  534MOL0     H72056   3.287   1.405   3.538 -0.2991  0.6922 -0.9894
  534MOL0     H72057   3.403   1.480   3.435 -0.4524  2.4030  0.9637
  534MOL0     H72058   3.513   1.270   3.472  0.7328 -0.7080  0.6161
  534MOL0     H72059   3.588   1.399   3.541 -1.6443  1.5892  1.5688
  534MOL0     H72060   3.561   1.295   3.758 -0.8334  0.1669 -0.1247
  534MOL0     H72061   3.545   1.148   3.667 -2.1596 -0.6331  0.2118
  534MOL0     H72062   3.320   1.308   3.786  1.5107  0.8642 -0.5715
  534MOL0     H72063   3.294   1.200   3.650 -1.1901 -3.0056  1.4264
  534MOL0     H72064   3.396   1.005   3.772 -0.8893  0.9641 -0.2234
  534MOL0     H72065   3.247   1.051   3.827 -0.3130 -3.0335  0.3129
  534MOL0     H72066   3.439   1.011   4.012 -0.2734 -0.5759 -1.3967
  534MOL0     H72067   3.548   1.121   3.938 -0.6949 -2.6468 -2.4212
  534MOL0     H72068   3.290   1.194   4.070  1.3292 -2.0812  2.8223
  534MOL0     H72069   3.402   1.320   4.008  0.0910  1.1333  1.1735
  534MOL0     H72070   3.577   1.256   4.189  0.9473 -2.4910  1.2849
  534MOL0     H72071   3.467   1.141   4.259  0.9284  1.2900  1.1760
  534MOL0     H72072   3.567   1.693   3.745  1.3461 -0.1772 -0.2713
  534MOL0     H72073   3.587   1.947   3.669  1.6702 -2.4586 -0.1252
  534MOL0     H72074   3.368   2.313   3.493 -0.1574 -1.1857 -1.4527
  534MOL0     H72075   3.372   2.560   3.401 -1.4998 -0.1378 -1.5040
  534MOL0     H72076   3.623   3.086   1.619 -1.5115 -2.5997  3.9226
  534MOL0     H72077   3.657   3.243   1.435  0.0921  1.6735 -0.6458
  534MOL0     H72078   3.338   3.469   1.043  2.2678 -1.6291 -0.6799
  534MOL0     H72079   3.381   3.636   0.864 -1.5127 -3.4414  0.6346
  534MOL0     H72080   3.498   3.756   0.727  3.9257  0.7924 -2.3682
  534MOL0     H72081   3.382   3.879   0.788  0.0404 -1.5011  2.6087
  534MOL0     H72082   3.659   3.953   0.698  0.0430  1.6066 -2.8477
  534MOL0     H72083   3.518   4.045   0.722  1.9890  3.1594 -2.2895
  534MOL0     H72084   3.415   3.903   0.501  1.1753 -0.1602 -1.8900
  534MOL0     H72085   3.584   3.847   0.491 -1.7233 -1.1325 -1.8500
  534MOL0     H72086   3.501   4.140   0.479 -0.5234  0.8181 -3.9081
  534MOL0     H72087   3.523   4.031   0.339 -4.1285 -3.2812  1.4496
  534MOL0     H72088   3.924   4.098   0.477  0.7091 -1.2176 -0.3140
  534MOL0     H72089   3.612   3.861   1.136 -0.2324 -0.0569  1.8670
  534MOL0     H72090   3.622   3.673   1.302 -0.0152  2.5858 -0.3045
  535MOL0     O72091   3.135   9.714   9.017  0.1886  0.0474  0.6023
  535MOL0     C72092   3.148   9.838   9.026  0.3875  1.3118  0.7202
  535MOL0     O72093   3.218   9.908   9.113 -0.2555  0.4440 -0.0752
  535MOL0     C72094   3.259   9.839   9.230 -0.3183  0.0727  0.2240
  535MOL0     C72095   3.329   9.714   9.233  0.8650 -0.2912 -0.0343
  535MOL0     C72096   3.383   9.648   9.346 -0.1763 -0.1379  0.0240
  535MOL0     C72097   3.357   9.718   9.466 -0.0981  0.1050 -0.5983
  535MOL0     O72098   3.407   9.662   9.581 -0.4735 -0.3661 -0.0223
  535MOL0     C72099   3.374   9.699   9.715 -0.1122 -0.7746  0.8969
  535MOL0     C72100   3.403   9.586   9.796 -0.8542  0.3808 -0.2040
  535MOL0     C72101   3.294   9.553   9.909 -0.2078 -0.7618  0.0931
  535MOL0     C72102   3.321   9.631  10.039 -1.1652  0.1269  0.4238
  535MOL0     C72103   3.200   9.644  10.134  0.0207  0.4707  1.1370
  535MOL0     C72104   3.173   9.510  10.198  0.9830 -0.2236  0.4654
  535MOL0     C72105   3.049   9.517  10.301 -1.1925 -0.3846 -0.2906
  535MOL0     C72106   3.083   9.544  10.439 -0.7052 -0.5003  0.2358
  535MOL0     N72107   3.166   9.434  10.495  0.7232  0.6189 -0.5021
  535MOL0     C72108   3.120   9.302  10.538  0.2103 -0.2235  0.2123
  535MOL0     C72109   3.240   9.236  10.566  0.9469  0.0155 -0.4700
  535MOL0     C72110   3.249   9.093  10.608  0.1091  0.4689  0.0786
  535MOL0     C72111   3.347   9.016  10.518 -0.0212 -0.3429  0.7426
  535MOL0     C72112   3.294   8.996  10.370 -0.1793 -0.6276  0.4564
  535MOL0     C72113   3.161   8.937  10.345 -0.5416 -0.5084 -0.6724
  535MOL0     O72114   3.070   9.037  10.303  0.1244 -0.5678 -0.4528
  535MOL0     C72115   3.073   9.091  10.171 -0.1457  0.5803 -0.4869
  535MOL0     C72116   2.962   9.175  10.143 -0.7147  0.1962  0.0733
  535MOL0     C72117   2.939   9.231  10.022  1.4337  0.1076 -0.1074
  535MOL0     C72118   2.810   9.310  10.011 -0.2627 -0.7110  0.7587
  535MOL0     C72119   3.029   9.218   9.917 -0.6896 -0.0990  0.0926
  535MOL0     C72120   3.015   9.271   9.776 -0.8300  0.0950 -0.6359
  535MOL0     O72121   2.923   9.364   9.757 -0.1124 -1.0093 -0.3392
  535MOL0     C72122   2.899   9.433   9.639  0.8540  0.7807  0.3261
  535MOL0     C72123   2.988   9.459   9.536  0.5087  0.3307  0.1323
  535MOL0     C72124   2.949   9.539   9.434 -0.6475  0.1512 -0.3859
  535MOL0     C72125   2.828   9.607   9.432 -0.6655  0.0923 -0.3194
  535MOL0     O72126   2.782   9.688   9.327  0.6770  0.4731 -0.5243
  535MOL0     C72127   2.872   9.701   9.217  0.1339 -0.1300 -0.0503
  535MOL0     C72128   2.793   9.769   9.105  0.8802 -0.2597 -0.2149
  535MOL0     C72129   2.765   9.916   9.120 -0.6954 -0.5404 -0.3137
  535MOL0     C72130   2.700   9.966   8.998  0.2547  0.0704  0.4084
  535MOL0     C72131   2.557   9.911   8.979  0.3852  0.1899 -0.5668
  535MOL0     C72132   2.466   9.977   8.879 -0.8025 -0.1380  0.4223
  535MOL0     C72133   2.339   9.900   8.853  0.0807  0.3290  0.3459
  535MOL0     C72134   2.264   9.944   8.735  0.0171  0.2848  0.5129
  535MOL0    Cl72135   2.191   9.812   8.640  0.1468 -0.6516  0.0572
  535MOL0     C72136   2.740   9.600   9.544  1.0730  0.5667 -0.0330
  535MOL0     C72137   2.780   9.506   9.644  0.1572 -0.5162 -0.4232
  535MOL0     O72138   3.071   9.206   9.687 -1.1591 -0.9534  0.3415
  535MOL0     C72139   3.137   9.121   9.934  0.0229 -0.0494 -0.5917
  535MOL0     C72140   3.162   9.070  10.065 -0.1862  0.0457  0.0500
  535MOL0     N72141   3.345   9.332  10.557  0.7361  0.6633 -0.1997
  535MOL0     N72142   3.297   9.446  10.527 -0.2184  0.0870 -0.1701
  535MOL0     C72143   3.284   9.840   9.468 -0.0973 -0.0673 -0.1759
  535MOL0     C72144   3.250   9.909   9.345 -0.3613 -0.3649 -0.1883
  535MOL0     C72145   3.084   9.919   8.908  0.1244  0.3383  0.0556
  535MOL0     C72146   3.012   9.851   8.816  1.3219  0.1230  0.2267
  535MOL0     C72147   2.955   9.922   8.716 -0.2258  0.9236  0.0738
  535MOL0     C72148   2.964  10.059   8.704 -0.7584  0.3245  0.0356
  535MOL0     O72149   2.912  10.111   8.591  0.0738  0.9096  0.6002
  535MOL0     C72150   2.825  10.231   8.595 -0.4371  0.3914 -0.3355
  535MOL0     C72151   2.680  10.194   8.598  0.6751 -0.2963  0.5241
  535MOL0     C72152   2.596  10.311   8.590 -0.9958 -0.4520 -0.0968
  535MOL0     C72153   2.463  10.300   8.673 -0.6391  0.6618  0.0223
  535MOL0     C72154   2.359  10.385   8.612 -0.1888  1.2987  0.4280
  535MOL0     C72155   2.272  10.457   8.560 -0.4550 -0.2139 -0.5999
  535MOL0     C72156   3.046  10.136   8.789 -0.2177 -0.1821 -0.0955
  535MOL0     C72157   3.105  10.057   8.893 -0.0049 -0.2025  0.5432
  535MOL0     H72158   3.332   9.657   9.141 -1.3650  1.1065 -1.0248
  535MOL0     H72159   3.423   9.547   9.348  1.1477  0.3644  2.2657
  535MOL0     H72160   3.424   9.790   9.749  2.4261 -2.1317  0.9663
  535MOL0     H72161   3.267   9.723   9.717  0.3453  1.6400  0.2482
  535MOL0     H72162   3.395   9.500   9.730  1.9613 -0.6994  0.7035
  535MOL0     H72163   3.504   9.585   9.839  0.2789 -0.7222 -2.6998
  535MOL0     H72164   3.194   9.577   9.873 -0.4517  1.0474  1.8405
  535MOL0     H72165   3.308   9.449   9.941  0.3665  0.1740  3.2449
  535MOL0     H72166   3.396   9.578  10.098 -1.6441 -2.0801 -0.8088
  535MOL0     H72167   3.370   9.727  10.023  0.8017 -0.0862  4.2358
  535MOL0     H72168   3.218   9.715  10.215 -0.3407  1.1166  0.6520
  535MOL0     H72169   3.118   9.681  10.073  0.4416  1.3174  1.0735
  535MOL0     H72170   3.157   9.444  10.113  0.0037  0.2279  0.2884
  535MOL0     H72171   3.263   9.477  10.252  1.7239  0.9843 -0.0006
  535MOL0     H72172   2.974   9.594  10.279 -0.2871  0.2356 -1.2983
  535MOL0     H72173   3.006   9.417  10.310  3.8873 -2.6808  2.6896
  535MOL0     H72174   2.989   9.546  10.494 -0.7305 -4.7917  0.6721
  535MOL0     H72175   3.135   9.640  10.448 -1.0101 -0.4579  2.0919
  535MOL0     H72176   3.020   9.262  10.542  0.0859  0.0665  0.0381
  535MOL0     H72177   3.294   9.102  10.707  1.8187  1.1523 -0.7121
  535MOL0     H72178   3.152   9.043  10.621  1.6573 -2.2655  2.1502
  535MOL0     H72179   3.371   8.919  10.565  0.0719 -0.0522  1.3109
  535MOL0     H72180   3.443   9.068  10.516  0.5494 -1.3658  0.6308
  535MOL0     H72181   3.370   8.941  10.313 -2.6740 -0.9973 -2.8161
  535MOL0     H72182   3.309   9.094  10.324  0.4624 -1.3280 -0.8720
  535MOL0     H72183   3.143   8.894  10.444  2.6403  0.9039  0.6495
  535MOL0     H72184   3.175   8.857  10.273 -0.3245 -0.7794 -0.3319
  535MOL0     H72185   2.895   9.173  10.229  0.7522  3.0307  1.4096
  535MOL0     H72186   2.735   9.247   9.961 -0.1552 -0.6694  0.5437
  535MOL0     H72187   2.775   9.336  10.111 -1.3634  0.3162  0.1288
  535MOL0     H72188   2.830   9.404   9.960  1.0266 -1.5785 -0.4203
  535MOL0     H72189   3.091   9.424   9.536  1.6972  3.5286  0.8994
  535MOL0     H72190   3.018   9.552   9.351  1.2572 -0.9808  0.9231
  535MOL0     H72191   2.956   9.764   9.244 -1.8286  2.0307  1.4092
  535MOL0     H72192   2.907   9.610   9.168 -2.8774 -1.3053 -0.2764
  535MOL0     H72193   2.848   9.753   9.012  0.4184  0.0287 -0.5448
  535MOL0     H72194   2.700   9.711   9.110  1.1484 -0.6096  1.1122
  535MOL0     H72195   2.859   9.973   9.128 -0.8460 -0.5643  3.6192
  535MOL0     H72196   2.703   9.928   9.209 -0.1492 -0.4127  0.0589
  535MOL0     H72197   2.689  10.073   9.017 -1.2079  0.3137 -1.5224
  535MOL0     H72198   2.750   9.956   8.901 -1.6358 -1.3129 -0.4801
  535MOL0     H72199   2.501   9.907   9.073  1.5886  4.1103  0.4994
  535MOL0     H72200   2.558   9.810   8.938 -2.0303 -0.1944  0.1142
  535MOL0     H72201   2.426  10.072   8.916 -2.6883 -0.2932 -1.0441
  535MOL0     H72202   2.531   9.990   8.792 -0.0060 -0.5618  0.9416
  535MOL0     H72203   2.272   9.901   8.940 -1.4664 -3.3102 -0.6150
  535MOL0     H72204   2.360   9.794   8.838 -1.2648  0.2190 -1.0239
  535MOL0     H72205   2.325  10.003   8.665  0.3790 -1.0319 -0.3211
  535MOL0     H72206   2.182  10.002   8.777  1.8183  1.6587  2.3323
  535MOL0     H72207   2.646   9.653   9.554  1.1736  0.5972  0.7612
  535MOL0     H72208   2.714   9.495   9.729  0.0147 -0.8020 -0.5691
  535MOL0     H72209   3.208   9.094   9.857 -0.3450 -0.8997 -0.6365
  535MOL0     H72210   3.255   9.022  10.096  0.7996  1.9424  0.2051
  535MOL0     H72211   3.267   9.894   9.561 -0.9225  0.6081 -0.6997
  535MOL0     H72212   3.224  10.013   9.356 -0.4990 -0.5765  1.9052
  535MOL0     H72213   2.983   9.747   8.824 -0.6886  0.6187  0.0742
  535MOL0     H72214   2.896   9.886   8.633 -0.4780  1.9689 -0.2134
  535MOL0     H72215   2.853  10.298   8.677  0.1345  0.6193 -0.7160
  535MOL0     H72216   2.849  10.290   8.506  2.0114  0.8123  0.5340
  535MOL0     H72217   2.642  10.131   8.679 -2.7508  0.4983 -0.3077
  535MOL0     H72218   2.647  10.129   8.518 -3.8392  0.7792  1.2547
  535MOL0     H72219   2.575  10.321   8.483  4.0318 -0.3651 -1.3730
  535MOL0     H72220   2.644  10.403   8.624 -0.8882 -0.4253 -0.3199
  535MOL0     H72221   2.466  10.314   8.782  0.3862 -1.4753  0.3223
  535MOL0     H72222   2.413  10.207   8.645 -4.1106  2.2400  0.4445
  535MOL0     H72223   2.195  10.511   8.509  2.7151  3.9685 -1.5281
  535MOL0     H72224   3.084  10.238   8.784  3.9896 -1.5529 -0.1436
  535MOL0     H72225   3.158  10.100   8.978  0.5984  0.8881 -0.3454
  536MOL0     O72226   0.475   9.544   8.689 -0.2588  0.4460  0.1979
  536MOL0     C72227   0.496   9.473   8.790  0.2290  0.0276  0.0351
  536MOL0     O72228   0.401   9.379   8.847  0.0152  0.2465  0.1980
  536MOL0     C72229   0.281   9.374   8.788 -0.4215 -0.9984  0.1331
  536MOL0     C72230   0.223   9.252   8.768  0.2610  0.9994 -0.1650
  536MOL0     C72231   0.094   9.238   8.718  0.3636  0.2349 -0.7716
  536MOL0     C72232   0.016   9.345   8.681 -0.2656 -0.2115  0.2895
  536MOL0     O72233  -0.116   9.327   8.645  0.4509  0.0770 -0.0509
  536MOL0     C72234  -0.182   9.206   8.655  0.2440  0.0235  0.8879
  536MOL0     C72235  -0.330   9.238   8.629 -0.3878  0.7022  0.8462
  536MOL0     C72236  -0.407   9.103   8.609  0.6723  0.4144 -0.3044
  536MOL0     C72237  -0.400   9.045   8.462  0.0562 -0.0392  0.0906
  536MOL0     C72238  -0.427   8.898   8.451 -0.1189  0.2967  0.2094
  536MOL0     C72239  -0.565   8.861   8.500  0.4588  0.0473 -0.0714
  536MOL0     C72240  -0.679   8.908   8.405 -0.1582  0.9282 -0.4877
  536MOL0     C72241  -0.817   8.887   8.448 -0.5923 -0.2730 -0.2604
  536MOL0     N72242  -0.832   8.747   8.464  0.6875  0.4813  0.9472
  536MOL0     C72243  -0.850   8.653   8.367  0.1777  0.6938 -0.5254
  536MOL0     C72244  -0.829   8.538   8.440 -0.5703 -0.9683 -0.1073
  536MOL0     C72245  -0.849   8.407   8.380 -1.1312  0.6249 -0.0913
  536MOL0     C72246  -0.847   8.299   8.501  0.2666  1.2791  0.2414
  536MOL0     C72247  -0.901   8.165   8.445  0.4575  0.4680  1.3101
  536MOL0     C72248  -0.885   8.042   8.549  0.5242 -0.1129 -1.1540
  536MOL0     O72249  -0.941   7.928   8.500  0.0837 -0.1305 -0.0448
  536MOL0     C72250  -0.873   7.850   8.404  0.7957  0.0071 -0.0318
  536MOL0     C72251  -0.943   7.771   8.321  0.2035  1.0634 -0.7730
  536MOL0     C72252  -0.889   7.684   8.227  0.0363 -0.7480  0.1313
  536MOL0     C72253  -0.983   7.604   8.139  1.1387  0.0060  0.0508
  536MOL0     C72254  -0.748   7.666   8.227  0.3493 -0.1652  0.9348
  536MOL0     C72255  -0.665   7.581   8.130  0.2249  0.4867  0.7742
  536MOL0     O72256  -0.545   7.640   8.096 -0.2019  1.2049  0.2589
  536MOL0     C72257  -0.460   7.558   8.023  0.6106 -0.2619  0.7507
  536MOL0     C72258  -0.377   7.621   7.928 -0.1975 -0.3974 -0.0570
  536MOL0     C72259  -0.265   7.556   7.877 -0.3162 -0.3374 -0.8692
  536MOL0     C72260  -0.232   7.424   7.912  0.4426  0.6246  0.7256
  536MOL0     O72261  -0.117   7.381   7.845 -0.4955  0.3969 -0.3615
  536MOL0     C72262  -0.057   7.249   7.867  0.1911 -0.5016 -1.1591
  536MOL0     C72263   0.082   7.241   7.801 -0.1613 -0.0335 -0.3702
  536MOL0     C72264   0.176   7.139   7.870  0.0046  0.0550  0.0677
  536MOL0     C72265   0.300   7.109   7.787  0.0962 -0.3741  0.1767
  536MOL0     C72266   0.376   6.982   7.836  0.8816 -0.5043  0.2197
  536MOL0     C72267   0.504   6.970   7.760  0.3753  0.3510  0.1541
  536MOL0     C72268   0.619   7.065   7.821  0.8676  0.9628 -0.1380
  536MOL0     C72269   0.751   7.023   7.769 -0.1971 -0.3693  0.1445
  536MOL0    Cl72270   0.768   7.104   7.603 -0.0354  0.2512 -0.2637
  536MOL0     C72271  -0.310   7.361   8.006 -0.6946  0.1839 -0.1346
  536MOL0     C72272  -0.414   7.434   8.070 -0.9465  0.5748  0.8967
  536MOL0     O72273  -0.703   7.472   8.101 -0.2395 -0.4338  0.0024
  536MOL0     C72274  -0.677   7.754   8.307  0.4748  0.7905 -0.8506
  536MOL0     C72275  -0.730   7.850   8.387  0.8279 -0.4542 -0.0201
  536MOL0     N72276  -0.834   8.570   8.574 -0.1488 -1.1839  0.3981
  536MOL0     N72277  -0.827   8.694   8.590  0.1936  0.6054  0.7581
  536MOL0     C72278   0.062   9.467   8.717 -0.1032  0.6221  0.8662
  536MOL0     C72279   0.195   9.477   8.762 -0.2549 -0.2499  1.0534
  536MOL0     C72280   0.630   9.470   8.851 -0.0006 -1.3386 -0.1011
  536MOL0     C72281   0.750   9.514   8.779  0.2946  0.4441  0.3256
  536MOL0     C72282   0.870   9.516   8.852 -0.9104 -0.6408  0.2460
  536MOL0     C72283   0.890   9.451   8.972  0.2608  0.5398  0.6050
  536MOL0     O72284   1.020   9.465   9.010  0.2251  0.5860  0.3898
  536MOL0     C72285   1.044   9.413   9.135 -0.3376 -0.5081 -0.0197
  536MOL0     C72286   1.198   9.421   9.163  0.7511 -0.3129  0.0577
  536MOL0     C72287   1.248   9.565   9.161 -1.1656 -0.0096 -0.1139
  536MOL0     C72288   1.395   9.571   9.195  0.3752  0.3841 -0.2704
  536MOL0     C72289   1.446   9.711   9.182 -0.2077 -0.0553 -0.0353
  536MOL0     C72290   1.479   9.825   9.160 -0.8980  0.0963  0.0384
  536MOL0     C72291   0.781   9.389   9.038  0.1113 -0.3099 -0.9793
  536MOL0     C72292   0.649   9.409   8.977  1.0455  0.1366 -0.0767
  536MOL0     H72293   0.280   9.163   8.792  1.4305  0.9384 -2.7634
  536MOL0     H72294   0.045   9.143   8.730 -3.0901  2.0053  0.5699
  536MOL0     H72295  -0.140   9.139   8.579  0.2275  1.0372 -0.0433
  536MOL0     H72296  -0.179   9.160   8.754  2.7696  0.4289  1.0825
  536MOL0     H72297  -0.374   9.287   8.717  0.1008 -1.2947  2.2806
  536MOL0     H72298  -0.347   9.311   8.550  2.2691  1.1273  0.5724
  536MOL0     H72299  -0.372   9.026   8.678 -1.5139 -0.8835 -0.5227
  536MOL0     H72300  -0.512   9.119   8.636  0.7713  2.1884 -0.8541
  536MOL0     H72301  -0.464   9.108   8.399 -0.8811 -2.0175 -1.0257
  536MOL0     H72302  -0.300   9.066   8.425 -1.5650  2.6665 -3.3845
  536MOL0     H72303  -0.426   8.879   8.343 -2.3575 -3.8960  0.7079
  536MOL0     H72304  -0.349   8.838   8.499 -0.1990  1.3641  1.7617
  536MOL0     H72305  -0.571   8.754   8.517 -2.0970  0.0869 -0.3440
  536MOL0     H72306  -0.579   8.907   8.598  1.1221  0.1278 -0.0071
  536MOL0     H72307  -0.679   9.016   8.385 -3.1708  1.1244  0.0920
  536MOL0     H72308  -0.666   8.856   8.309  0.0833 -0.9369  0.5117
  536MOL0     H72309  -0.880   8.933   8.371  0.7464  1.0096 -0.6271
  536MOL0     H72310  -0.833   8.940   8.542  0.4300  3.3962 -1.9704
  536MOL0     H72311  -0.859   8.672   8.261 -0.5655 -0.5515 -0.6997
  536MOL0     H72312  -0.936   8.401   8.313 -1.5216  1.4404  0.3240
  536MOL0     H72313  -0.763   8.391   8.315 -0.6358  1.3918  0.3531
  536MOL0     H72314  -0.918   8.319   8.582  2.0616  1.2511  1.8800
  536MOL0     H72315  -0.745   8.293   8.538 -0.3559 -1.2722  1.8170
  536MOL0     H72316  -0.852   8.145   8.349  1.2864  5.8117  0.3384
  536MOL0     H72317  -1.009   8.167   8.427  0.4772 -1.3138  0.7842
  536MOL0     H72318  -0.945   8.071   8.636  0.6060  2.0488 -1.7578
  536MOL0     H72319  -0.780   8.037   8.580 -0.4435 -1.4424  2.4533
  536MOL0     H72320  -1.050   7.788   8.314 -0.2183 -0.2424  1.4438
  536MOL0     H72321  -0.965   7.638   8.037 -0.9949  0.9201 -0.0721
  536MOL0     H72322  -0.954   7.499   8.143  2.1630  0.3073  2.5905
  536MOL0     H72323  -1.085   7.626   8.172  0.9628 -1.6592  0.7241
  536MOL0     H72324  -0.393   7.724   7.898 -0.6976  0.3084  2.4282
  536MOL0     H72325  -0.190   7.601   7.811  1.6464 -0.6633  1.0323
  536MOL0     H72326  -0.047   7.235   7.976 -4.3490 -2.4620 -0.7484
  536MOL0     H72327  -0.120   7.168   7.828 -2.5116  1.2220 -0.6224
  536MOL0     H72328   0.059   7.205   7.700 -0.3996  2.1082 -1.1364
  536MOL0     H72329   0.135   7.336   7.797  0.3814 -0.1978  1.7630
  536MOL0     H72330   0.126   7.042   7.870 -1.0163  0.4849  3.0577
  536MOL0     H72331   0.216   7.159   7.970  1.4936 -1.1433 -0.2444
  536MOL0     H72332   0.280   7.090   7.681  2.4397  0.9796 -0.5857
  536MOL0     H72333   0.361   7.200   7.795  0.3403 -0.5873  0.7355
  536MOL0     H72334   0.319   6.896   7.801  0.4756 -0.2733  0.2975
  536MOL0     H72335   0.394   6.978   7.944 -1.3419 -1.1369  0.6156
  536MOL0     H72336   0.543   6.868   7.767  0.2138  0.2995  0.3195
  536MOL0     H72337   0.489   7.001   7.657 -1.8586  1.0250  0.6167
  536MOL0     H72338   0.634   7.069   7.929  1.2517  1.4222 -0.2034
  536MOL0     H72339   0.592   7.168   7.797 -0.2660  0.4952 -0.9321
  536MOL0     H72340   0.755   6.914   7.775 -1.9989 -0.4817  0.0831
  536MOL0     H72341   0.828   7.070   7.831 -1.8934  4.3115 -0.8708
  536MOL0     H72342  -0.301   7.261   8.048  0.7186  0.0934 -0.6040
  536MOL0     H72343  -0.465   7.391   8.155  1.0620  0.1566  1.9412
  536MOL0     H72344  -0.570   7.741   8.295  0.4641  1.6528 -2.1347
  536MOL0     H72345  -0.670   7.912   8.452 -0.8122  2.5260 -1.1459
  536MOL0     H72346   0.000   9.556   8.726  0.7253  1.2150  0.7905
  536MOL0     H72347   0.228   9.578   8.786 -1.2988  0.0407  1.3285
  536MOL0     H72348   0.737   9.533   8.673 -1.4518  3.4416  0.9470
  536MOL0     H72349   0.959   9.569   8.817 -0.2866 -1.6209  0.3249
  536MOL0     H72350   0.992   9.468   9.214  0.0445  1.4395 -1.0606
  536MOL0     H72351   1.014   9.309   9.150 -0.3702 -0.6469 -0.9565
  536MOL0     H72352   1.257   9.342   9.115  0.7220  1.0254 -2.3098
  536MOL0     H72353   1.208   9.393   9.269 -1.7077 -1.5906  0.0189
  536MOL0     H72354   1.201   9.626   9.238  2.6783  2.2026  0.7336
  536MOL0     H72355   1.223   9.612   9.066 -0.3777  1.3779  0.3448
  536MOL0     H72356   1.447   9.509   9.122 -0.4305 -0.6425  0.0053
  536MOL0     H72357   1.411   9.549   9.301 -0.5470  1.0420  0.0127
  536MOL0     H72358   1.492   9.923   9.119  0.3482 -0.0623  0.0083
  536MOL0     H72359   0.789   9.347   9.138 -1.3610  1.6020  0.0017
  536MOL0     H72360   0.569   9.359   9.031  0.8576  1.4710  0.9184
  537MOL0     O72361   0.268   2.589   4.219 -0.0060 -0.8970 -0.5121
  537MOL0     C72362   0.299   2.491   4.285 -0.2975  0.9913  0.0163
  537MOL0     O72363   0.357   2.492   4.411  0.5699 -0.6206  0.6108
  537MOL0     C72364   0.381   2.608   4.479 -0.9367 -0.6284 -0.1152
  537MOL0     C72365   0.367   2.606   4.615  0.8277 -0.0769  0.3340
  537MOL0     C72366   0.395   2.705   4.706 -0.3259  0.8758  0.9359
  537MOL0     C72367   0.452   2.819   4.650 -0.8975  0.7926 -0.2782
  537MOL0     O72368   0.487   2.918   4.741 -0.6091 -0.3578 -0.0395
  537MOL0     C72369   0.629   2.934   4.768  0.3513 -0.5963  0.4180
  537MOL0     C72370   0.693   2.838   4.866  0.5127 -0.0074 -0.1708
  537MOL0     C72371   0.823   2.892   4.911  0.3520  0.4732 -0.3154
  537MOL0     C72372   0.895   2.820   5.031 -0.1449  0.9571 -0.6301
  537MOL0     C72373   1.018   2.905   5.075  0.2417 -0.4527 -0.1037
  537MOL0     C72374   1.082   2.859   5.202  0.0535  0.8047 -0.0607
  537MOL0     C72375   1.165   2.730   5.176  1.0132  0.0188  0.2591
  537MOL0     C72376   1.237   2.680   5.299  0.0160  0.1516 -0.0800
  537MOL0     N72377   1.340   2.770   5.355 -0.2071  0.1562  0.5531
  537MOL0     C72378   1.448   2.824   5.285  0.2161 -0.1047 -0.5306
  537MOL0     C72379   1.502   2.909   5.373  0.3390 -0.1701 -1.1642
  537MOL0     C72380   1.616   3.003   5.356  0.4320 -0.8724 -1.0786
  537MOL0     C72381   1.686   2.997   5.494 -0.3766  0.1431  0.7214
  537MOL0     C72382   1.817   3.078   5.505  1.0359  1.4143 -0.3995
  537MOL0     C72383   1.806   3.233   5.523  0.1066  0.5144  0.3422
  537MOL0     O72384   1.752   3.297   5.402 -0.2281 -1.1643  0.2802
  537MOL0     C72385   1.711   3.431   5.395  0.8679 -0.8031  0.4907
  537MOL0     C72386   1.709   3.521   5.501 -0.9744  0.1160  0.2761
  537MOL0     C72387   1.683   3.656   5.499 -0.1013  0.2167 -0.1858
  537MOL0     C72388   1.691   3.738   5.618  0.8928 -0.4106  0.1840
  537MOL0     C72389   1.634   3.703   5.372 -0.1306  0.8807  1.0244
  537MOL0     C72390   1.574   3.834   5.355  1.1504  0.8898  0.5974
  537MOL0     O72391   1.498   3.874   5.460 -0.1492  1.4014  0.2856
  537MOL0     C72392   1.441   3.991   5.464 -0.1209 -0.2449 -0.2045
  537MOL0     C72393   1.440   4.060   5.581  0.6491  0.0445  0.3739
  537MOL0     C72394   1.376   4.187   5.587  1.1927 -0.1163  0.6402
  537MOL0     C72395   1.310   4.242   5.475 -0.4276 -0.1092  0.4009
  537MOL0     O72396   1.250   4.365   5.464 -0.1663  0.1764 -0.9915
  537MOL0     C72397   1.261   4.446   5.583 -0.3998 -0.1798  0.6609
  537MOL0     C72398   1.212   4.591   5.541 -0.4076 -0.7740 -0.3537
  537MOL0     C72399   1.294   4.702   5.610 -0.2682 -0.6721  0.0114
  537MOL0     C72400   1.233   4.840   5.591 -0.7400  0.1487 -0.0793
  537MOL0     C72401   1.313   4.944   5.666  0.2965  0.0841  0.1567
  537MOL0     C72402   1.248   5.091   5.662 -0.6201  0.6415  1.3124
  537MOL0     C72403   1.338   5.194   5.734 -0.0011 -0.1258  0.5659
  537MOL0     C72404   1.304   5.207   5.886 -0.4371  0.7223 -0.4449
  537MOL0    Cl72405   1.347   5.063   5.995 -0.0680 -0.0373 -0.2559
  537MOL0     C72406   1.305   4.172   5.352 -0.3309  0.3256  0.1183
  537MOL0     C72407   1.375   4.041   5.351  0.9710 -0.7852  0.8387
  537MOL0     O72408   1.594   3.894   5.250 -0.3167 -0.9254  0.7533
  537MOL0     C72409   1.635   3.615   5.265  0.3436  1.1081 -0.8627
  537MOL0     C72410   1.673   3.481   5.270  0.4843  0.1975 -0.7931
  537MOL0     N72411   1.414   2.920   5.478  0.2994  0.3519  0.7314
  537MOL0     N72412   1.320   2.829   5.474  0.4741  0.0667 -0.3173
  537MOL0     C72413   0.475   2.830   4.502 -0.3444 -0.2828 -0.1760
  537MOL0     C72414   0.437   2.721   4.422  0.4725 -0.6063  0.0486
  537MOL0     C72415   0.263   2.355   4.233 -0.2443 -0.2439  0.9974
  537MOL0     C72416   0.265   2.330   4.095 -0.7658  0.2680  0.2622
  537MOL0     C72417   0.245   2.201   4.055  0.0981 -0.0659 -1.1811
  537MOL0     C72418   0.216   2.091   4.143 -0.1691 -0.1126  0.0243
  537MOL0     O72419   0.191   1.982   4.065 -0.6987 -0.1415 -0.3413
  537MOL0     C72420   0.157   1.859   4.134 -0.2821  0.0663  0.2838
  537MOL0     C72421   0.151   1.736   4.047 -0.0737 -0.2479 -0.0508
  537MOL0     C72422   0.037   1.725   3.942 -0.2227  0.4461  0.4970
  537MOL0     C72423   0.065   1.816   3.823 -0.2395 -0.1259 -0.3347
  537MOL0     C72424  -0.052   1.813   3.740  0.1155  0.0871  0.0970
  537MOL0     C72425  -0.150   1.817   3.677  0.6165 -0.0382 -0.5561
  537MOL0     C72426   0.215   2.118   4.282 -0.1447 -0.1820  0.1860
  537MOL0     C72427   0.232   2.243   4.322  0.3990 -0.4105  1.0139
  537MOL0     H72428   0.310   2.524   4.657 -2.6174  1.8394 -0.2572
  537MOL0     H72429   0.377   2.689   4.812  2.6474 -2.3225  1.1204
  537MOL0     H72430   0.688   2.936   4.676  0.6364 -1.4144  0.5751
  537MOL0     H72431   0.641   3.036   4.808  0.9348 -0.2370 -0.6315
  537MOL0     H72432   0.629   2.833   4.954  3.7863 -1.8092  2.3091
  537MOL0     H72433   0.703   2.737   4.826 -0.2351  1.0425 -3.3670
  537MOL0     H72434   0.894   2.881   4.829  1.6639 -2.8417  1.0719
  537MOL0     H72435   0.817   2.997   4.941 -0.0506  0.6509 -0.9915
  537MOL0     H72436   0.826   2.821   5.115 -2.3505 -0.8947 -2.2813
  537MOL0     H72437   0.921   2.715   5.011 -1.5923 -0.2411  2.9400
  537MOL0     H72438   1.087   2.916   4.991  0.9808  0.0124  0.5513
  537MOL0     H72439   0.989   3.008   5.095  0.3185 -0.9243  2.9495
  537MOL0     H72440   1.158   2.932   5.230  1.4239  0.4418 -2.5648
  537MOL0     H72441   1.017   2.836   5.287  1.6340  3.5459  2.0670
  537MOL0     H72442   1.089   2.658   5.144  0.0527  1.0348  0.2017
  537MOL0     H72443   1.235   2.743   5.093  1.1582  0.0061  0.3791
  537MOL0     H72444   1.282   2.582   5.283 -0.7710 -0.1683 -0.3896
  537MOL0     H72445   1.169   2.670   5.384  0.8513  1.1153  0.7321
  537MOL0     H72446   1.482   2.798   5.185 -0.0442 -0.0205 -0.6440
  537MOL0     H72447   1.677   2.980   5.269  1.8602 -0.4685 -0.2149
  537MOL0     H72448   1.576   3.104   5.340  1.2339 -0.6915 -2.0254
  537MOL0     H72449   1.713   2.891   5.502  0.0287  0.3741  3.1297
  537MOL0     H72450   1.618   3.029   5.573 -2.5243  0.3825 -1.1209
  537MOL0     H72451   1.888   3.049   5.427 -0.0249 -0.5785 -0.6724
  537MOL0     H72452   1.865   3.037   5.594  0.5899 -3.9824 -2.3200
  537MOL0     H72453   1.901   3.282   5.547 -0.6512  2.2321 -0.0114
  537MOL0     H72454   1.733   3.247   5.603 -1.3615  1.0908 -1.0464
  537MOL0     H72455   1.756   3.475   5.587 -0.9561 -1.2108 -0.4131
  537MOL0     H72456   1.716   3.844   5.613  1.4025 -0.3838  2.2984
  537MOL0     H72457   1.595   3.737   5.671  2.3707 -0.3401  3.1007
  537MOL0     H72458   1.760   3.688   5.687 -0.8694  0.3302  2.6037
  537MOL0     H72459   1.493   4.028   5.670  0.3978  0.2674  0.6047
  537MOL0     H72460   1.377   4.233   5.685  1.3178 -1.0049  1.0630
  537MOL0     H72461   1.201   4.412   5.668 -3.0843 -2.2219 -1.8516
  537MOL0     H72462   1.368   4.444   5.606 -0.0048 -0.1129 -1.0415
  537MOL0     H72463   1.230   4.592   5.433  1.2733 -3.6541 -0.1848
  537MOL0     H72464   1.107   4.610   5.568 -0.1417  1.9425 -0.8888
  537MOL0     H72465   1.396   4.708   5.573 -0.3151  1.8664  0.1078
  537MOL0     H72466   1.312   4.676   5.714  0.0959 -2.7705 -0.5379
  537MOL0     H72467   1.237   4.867   5.485 -2.2223 -0.8141 -0.4113
  537MOL0     H72468   1.131   4.849   5.629 -0.4667 -2.5881  1.5134
  537MOL0     H72469   1.413   4.940   5.623  0.7100  1.6686  0.8732
  537MOL0     H72470   1.327   4.916   5.771 -0.7117  2.7290  1.0993
  537MOL0     H72471   1.227   5.123   5.560 -0.5009 -0.8888  0.7798
  537MOL0     H72472   1.153   5.085   5.716 -1.4032  0.3314 -0.0697
  537MOL0     H72473   1.317   5.292   5.691  0.3736 -0.7328 -1.0864
  537MOL0     H72474   1.446   5.180   5.722  0.7117  4.6374 -0.5827
  537MOL0     H72475   1.200   5.236   5.903 -0.6052  0.6755 -1.3543
  537MOL0     H72476   1.360   5.293   5.925 -1.4724  1.0031  0.4666
  537MOL0     H72477   1.251   4.218   5.269 -2.8004 -1.8203  0.4068
  537MOL0     H72478   1.354   3.967   5.274  1.4589  0.3581 -0.4390
  537MOL0     H72479   1.610   3.653   5.166 -0.7292 -2.2955 -2.0431
  537MOL0     H72480   1.666   3.423   5.179  0.7416  0.8371 -1.2218
  537MOL0     H72481   0.509   2.924   4.461 -0.6548 -0.0360  0.1280
  537MOL0     H72482   0.442   2.732   4.315 -3.3155  1.2206 -0.1015
  537MOL0     H72483   0.292   2.416   4.035  1.5871 -0.6489 -0.1088
  537MOL0     H72484   0.249   2.208   3.947  4.3977  0.3250 -1.1666
  537MOL0     H72485   0.209   1.845   4.229 -0.0884  1.7859  0.4693
  537MOL0     H72486   0.059   1.883   4.176 -0.4407 -1.7245  1.0178
  537MOL0     H72487   0.128   1.658   4.119  0.2792 -0.7055 -0.4328
  537MOL0     H72488   0.246   1.722   3.995 -0.9506 -1.3145 -1.4407
  537MOL0     H72489  -0.053   1.751   3.999 -0.0686 -1.0117  1.4626
  537MOL0     H72490   0.019   1.623   3.907 -2.2251  0.1591  2.1170
  537MOL0     H72491   0.146   1.782   3.757 -2.7083 -1.6064 -2.7908
  537MOL0     H72492   0.099   1.914   3.856 -1.2008 -0.3695  1.5421
  537MOL0     H72493  -0.231   1.823   3.607  0.4372 -3.9466 -0.8903
  537MOL0     H72494   0.200   2.033   4.348 -3.4181  0.3566  0.2624
  537MOL0     H72495   0.217   2.267   4.427 -4.4837 -3.5853  1.3491
  538MOL0     O72496  10.721   4.865   0.763  0.1015  0.0995 -0.9054
  538MOL0     C72497  10.816   4.830   0.827  0.7336 -0.9011 -0.7206
  538MOL0     O72498  10.845   4.871   0.954 -0.0480  1.1037  0.8542
  538MOL0     C72499  10.748   4.922   1.045  0.8842  0.4555  0.8565
  538MOL0     C72500  10.604   4.902   1.047 -1.0975 -0.1480  0.3882
  538MOL0     C72501  10.525   4.973   1.136  0.4423 -0.5941 -0.5051
  538MOL0     C72502  10.595   5.028   1.249 -0.0514 -0.4293  0.6764
  538MOL0     O72503  10.518   5.075   1.353  0.0266  0.6862 -0.2470
  538MOL0     C72504  10.536   5.207   1.401 -0.0103  0.5330  0.6745
  538MOL0     C72505  10.411   5.262   1.472  0.0453 -0.1811  0.6820
  538MOL0     C72506  10.296   5.275   1.373  0.4145 -0.2200 -0.2556
  538MOL0     C72507  10.299   5.390   1.281  0.4399  0.6603 -0.7218
  538MOL0     C72508  10.168   5.390   1.199 -0.1772  0.2480 -0.1195
  538MOL0     C72509  10.158   5.271   1.102 -0.2197 -0.9474 -1.1417
  538MOL0     C72510  10.070   5.309   0.983 -0.0546 -0.5299 -0.0651
  538MOL0     C72511  10.052   5.197   0.868  0.5377  1.3126  0.2453
  538MOL0     N72512  10.175   5.136   0.821  0.1562 -0.4685  0.9290
  538MOL0     C72513  10.210   5.012   0.850 -0.7782  0.3766  0.0732
  538MOL0     C72514  10.305   4.975   0.752  0.5177 -0.8766  0.3434
  538MOL0     C72515  10.362   4.836   0.724  0.6476  0.0344 -0.0395
  538MOL0     C72516  10.294   4.755   0.615 -0.0366 -0.9083  0.1479
  538MOL0     C72517  10.162   4.693   0.674 -0.0701 -0.3580  0.2575
  538MOL0     C72518  10.174   4.584   0.782 -0.1716  0.0379  0.4393
  538MOL0     O72519  10.084   4.599   0.889 -0.9895 -0.0764 -0.6231
  538MOL0     C72520   9.962   4.532   0.891 -0.7526  0.4538  0.1961
  538MOL0     C72521   9.901   4.454   0.790  0.2995 -0.1872  0.7384
  538MOL0     C72522   9.778   4.386   0.806  0.1306  0.4068  0.1086
  538MOL0     C72523   9.730   4.294   0.694 -0.4025 -1.6472  0.1396
  538MOL0     C72524   9.699   4.411   0.922 -1.0073 -1.0819 -1.1260
  538MOL0     C72525   9.558   4.369   0.950  0.4337  0.3806 -0.7965
  538MOL0     O72526   9.500   4.398   1.069  0.4995  0.1295 -0.2783
  538MOL0     C72527   9.365   4.423   1.083 -0.3409 -0.0272 -0.3484
  538MOL0     C72528   9.256   4.393   1.002 -1.1224  0.2095 -0.8695
  538MOL0     C72529   9.123   4.433   1.029  0.0835  0.0099 -0.4543
  538MOL0     C72530   9.095   4.501   1.143  0.4085 -0.2140 -0.4425
  538MOL0     O72531   8.969   4.536   1.187  0.1702 -0.0536 -0.2330
  538MOL0     C72532   8.876   4.428   1.186  0.7770 -0.3833  0.4115
  538MOL0     C72533   8.749   4.482   1.252  0.7343 -0.4562 -0.0265
  538MOL0     C72534   8.758   4.490   1.405 -0.3576  0.6128 -0.6292
  538MOL0     C72535   8.624   4.465   1.465  0.0472 -0.5568 -0.7340
  538MOL0     C72536   8.629   4.497   1.618  0.1605 -0.7943  0.4100
  538MOL0     C72537   8.503   4.456   1.684 -0.1934  0.6580  0.7146
  538MOL0     C72538   8.484   4.482   1.832 -0.7717 -0.1407 -0.3638
  538MOL0     C72539   8.344   4.457   1.890 -0.6357 -0.3966  0.4088
  538MOL0    Cl72540   8.320   4.560   2.031  0.2605  0.1500 -0.1714
  538MOL0     C72541   9.204   4.532   1.231  0.2475  0.1412  0.6934
  538MOL0     C72542   9.336   4.499   1.203 -0.7572  0.2563  0.2295
  538MOL0     O72543   9.504   4.304   0.858 -0.0726  0.5043 -0.0492
  538MOL0     C72544   9.762   4.492   1.022 -0.1775  0.6990 -0.6438
  538MOL0     C72545   9.886   4.556   1.002  0.2001 -0.3260 -0.1832
  538MOL0     N72546  10.326   5.080   0.670  0.5710 -0.1801  1.1551
  538MOL0     N72547  10.245   5.170   0.708  0.5758  0.9860  0.4254
  538MOL0     C72548  10.732   5.056   1.249 -0.2425  0.2904  0.3270
  538MOL0     C72549  10.808   5.006   1.141 -0.5043 -0.5214 -0.3184
  538MOL0     C72550  10.896   4.724   0.780 -0.5521 -0.0766  1.0274
  538MOL0     C72551  11.004   4.665   0.846  0.8002  1.1999 -0.4049
  538MOL0     C72552  11.070   4.550   0.799 -0.3290 -0.4103  0.5140
  538MOL0     C72553  11.034   4.488   0.685 -0.1838  0.5957 -0.8058
  538MOL0     O72554  11.096   4.373   0.639  0.4265 -0.1507  0.2860
  538MOL0     C72555  11.142   4.265   0.724  0.0065 -0.4286  0.2200
  538MOL0     C72556  11.297   4.257   0.728 -0.5450  0.1571  0.6940
  538MOL0     C72557  11.352   4.284   0.583  0.7946 -0.6437 -0.0746
  538MOL0     C72558  11.477   4.213   0.552  1.1987  0.1525 -0.3710
  538MOL0     C72559  11.594   4.303   0.562 -0.3138  0.0929 -0.1515
  538MOL0     C72560  11.693   4.379   0.569 -0.6048  0.1203  1.0189
  538MOL0     C72561  10.937   4.554   0.610  0.0801  0.8781 -0.1929
  538MOL0     C72562  10.865   4.667   0.652  0.0864  0.4597 -0.2556
  538MOL0     H72563  10.561   4.848   0.963 -1.1724 -2.3276  1.7571
  538MOL0     H72564  10.418   4.990   1.130  0.7650  0.9450 -2.5878
  538MOL0     H72565  10.617   5.215   1.475  1.1565  1.0986 -0.6290
  538MOL0     H72566  10.544   5.256   1.304 -2.2429 -3.6240 -1.8592
  538MOL0     H72567  10.392   5.197   1.558  1.2408 -0.9712  0.3846
  538MOL0     H72568  10.444   5.356   1.516 -2.3352  1.0515 -0.0227
  538MOL0     H72569  10.286   5.181   1.319  2.1984 -0.8507  0.4373
  538MOL0     H72570  10.205   5.288   1.433  0.6814  1.9479 -0.2328
  538MOL0     H72571  10.309   5.482   1.339  0.7081  0.0224  0.2579
  538MOL0     H72572  10.381   5.382   1.210  0.4286  1.7017 -0.8607
  538MOL0     H72573  10.079   5.401   1.262 -0.5441  1.0594 -0.7654
  538MOL0     H72574  10.166   5.482   1.140 -0.2129 -0.7713 -1.7680
  538MOL0     H72575  10.255   5.246   1.058  0.5980 -0.3835  0.2776
  538MOL0     H72576  10.120   5.187   1.162 -1.3881  0.7109  0.5487
  538MOL0     H72577   9.972   5.340   1.021  1.5433  2.2637  2.1951
  538MOL0     H72578  10.119   5.395   0.937  0.6630 -0.9752 -0.1441
  538MOL0     H72579  10.009   5.246   0.781  0.4141 -0.1835 -0.5685
  538MOL0     H72580   9.984   5.119   0.905  1.2756 -0.1204 -1.3305
  538MOL0     H72581  10.160   4.940   0.913 -0.6312 -0.8601 -1.1608
  538MOL0     H72582  10.460   4.873   0.693 -0.3412  3.0362  0.1334
  538MOL0     H72583  10.370   4.780   0.818  0.9580 -1.8467 -1.1288
  538MOL0     H72584  10.358   4.669   0.593  2.4012  0.5806  0.9610
  538MOL0     H72585  10.279   4.823   0.531 -3.6461 -1.1158  0.4743
  538MOL0     H72586  10.114   4.642   0.590  2.6785 -1.2641 -0.8800
  538MOL0     H72587  10.096   4.767   0.719  1.5047  1.4066 -0.2292
  538MOL0     H72588  10.275   4.583   0.822  0.2370 -0.7524 -0.5518
  538MOL0     H72589  10.168   4.488   0.729 -2.8590 -1.6917  3.4656
  538MOL0     H72590   9.945   4.442   0.691  4.8854  1.9539  2.2457
  538MOL0     H72591   9.673   4.351   0.620 -0.5784 -0.1800  1.3661
  538MOL0     H72592   9.818   4.259   0.640 -0.0465 -0.5969  0.0374
  538MOL0     H72593   9.676   4.208   0.735  1.2342 -1.9651  1.7752
  538MOL0     H72594   9.277   4.358   0.902  2.3032  2.3238 -1.0496
  538MOL0     H72595   9.035   4.415   0.969 -1.3683 -1.1396  1.8836
  538MOL0     H72596   8.855   4.395   1.083  2.3764 -0.8261  0.2010
  538MOL0     H72597   8.894   4.334   1.239 -0.5751 -1.1728 -0.4528
  538MOL0     H72598   8.723   4.583   1.221  0.3768  0.8323  3.8641
  538MOL0     H72599   8.667   4.418   1.218  0.8891 -1.0477  0.6743
  538MOL0     H72600   8.796   4.590   1.426 -0.5799  0.2769  1.5911
  538MOL0     H72601   8.825   4.413   1.444  0.5748  2.6293  1.9980
  538MOL0     H72602   8.549   4.530   1.419  1.4008  2.8703  1.5737
  538MOL0     H72603   8.599   4.361   1.443 -1.3101 -0.2379 -0.7485
  538MOL0     H72604   8.661   4.600   1.633  0.5626 -1.0888  1.6745
  538MOL0     H72605   8.712   4.449   1.670  0.8534 -0.8287 -0.6839
  538MOL0     H72606   8.419   4.507   1.636  1.0912  1.0795 -1.1830
  538MOL0     H72607   8.495   4.351   1.654  0.4372  0.6889  0.4259
  538MOL0     H72608   8.497   4.589   1.848  0.3621 -0.5952  2.3962
  538MOL0     H72609   8.556   4.421   1.888 -0.2498 -0.0896 -0.9649
  538MOL0     H72610   8.322   4.353   1.916 -1.5313 -0.1522  0.6394
  538MOL0     H72611   8.277   4.497   1.814  1.3520  0.8409 -0.7886
  538MOL0     H72612   9.180   4.584   1.324 -2.4856  2.6171 -1.1769
  538MOL0     H72613   9.424   4.519   1.263  0.8499  0.9221 -2.2077
  538MOL0     H72614   9.715   4.524   1.115  2.3564 -0.9848  1.3637
  538MOL0     H72615   9.921   4.631   1.072  0.8806 -0.1585 -0.6923
  538MOL0     H72616  10.775   5.085   1.345  1.9908 -1.1358 -0.1588
  538MOL0     H72617  10.915   5.021   1.147 -0.4740 -1.2051  1.0734
  538MOL0     H72618  11.056   4.709   0.931  2.8733  1.2399 -1.6364
  538MOL0     H72619  11.154   4.510   0.854  0.2079 -0.1746 -0.1155
  538MOL0     H72620  11.097   4.267   0.824 -1.8495  2.9996 -0.5259
  538MOL0     H72621  11.105   4.172   0.680  0.2834 -1.8844  2.8695
  538MOL0     H72622  11.333   4.156   0.754  2.7292  0.3545 -2.3076
  538MOL0     H72623  11.322   4.337   0.798  1.2687 -0.4781  0.8266
  538MOL0     H72624  11.384   4.387   0.566  2.7754 -0.8810  1.8480
  538MOL0     H72625  11.280   4.269   0.502  0.4949  2.7852 -0.5793
  538MOL0     H72626  11.462   4.183   0.448  3.7527 -0.1727 -0.6864
  538MOL0     H72627  11.488   4.120   0.608 -2.1710 -0.5893 -0.6861
  538MOL0     H72628  11.780   4.440   0.582 -1.7189  2.0996 -0.2430
  538MOL0     H72629  10.916   4.493   0.523  3.0308 -0.5854 -0.0017
  538MOL0     H72630  10.789   4.710   0.588  3.5047  2.1937 -3.5758
  539MOL0     O72631   1.300   8.556   5.800 -0.4370 -1.0748 -0.0428
  539MOL0     C72632   1.327   8.467   5.717  0.2720 -0.1944 -0.3600
  539MOL0     O72633   1.455   8.444   5.670  0.0453 -0.3629 -0.0225
  539MOL0     C72634   1.550   8.539   5.705 -0.2301 -0.2779  0.0935
  539MOL0     C72635   1.579   8.647   5.625  0.9775  0.6198  0.7060
  539MOL0     C72636   1.665   8.740   5.670 -0.0767 -0.2106 -0.3214
  539MOL0     C72637   1.716   8.745   5.800 -0.2799  0.6773  0.4798
  539MOL0     O72638   1.785   8.864   5.833  0.1990  1.1009  1.0686
  539MOL0     C72639   1.848   8.890   5.962  0.3619  0.5505  1.1554
  539MOL0     C72640   1.992   8.862   5.950 -0.0779 -0.0712 -0.2793
  539MOL0     C72641   2.080   8.917   6.065 -0.7580  0.7686  0.5621
  539MOL0     C72642   2.209   8.832   6.083 -0.6539  0.0612 -0.1156
  539MOL0     C72643   2.287   8.877   6.212  0.1638 -0.8435 -0.1867
  539MOL0     C72644   2.393   8.987   6.186  0.2631 -0.1739  0.5185
  539MOL0     C72645   2.502   8.931   6.090 -0.1502 -0.6839  0.2298
  539MOL0     C72646   2.631   9.022   6.082 -0.0050  0.4609  0.0807
  539MOL0     N72647   2.591   9.160   6.052 -0.2177 -0.2544 -0.2078
  539MOL0     C72648   2.669   9.271   6.076  0.3505 -1.0372  0.6765
  539MOL0     C72649   2.596   9.376   6.036 -0.1044 -0.2371 -0.2301
  539MOL0     C72650   2.659   9.510   6.045 -0.0867 -0.3931 -0.4599
  539MOL0     C72651   2.571   9.621   6.114 -0.2206 -0.0778  0.8133
  539MOL0     C72652   2.632   9.759   6.083 -0.7023 -0.9052 -0.9774
  539MOL0     C72653   2.656   9.788   5.936 -0.5142 -0.4418  0.2349
  539MOL0     O72654   2.788   9.780   5.898 -1.3895 -0.8529  0.0063
  539MOL0     C72655   2.833   9.829   5.779 -0.0748 -0.9895  0.9139
  539MOL0     C72656   2.760   9.902   5.683  0.2531  1.0351  0.4989
  539MOL0     C72657   2.822   9.974   5.580 -0.1630 -0.0565  1.6013
  539MOL0     C72658   2.724  10.042   5.482  0.0098  0.1504 -0.3635
  539MOL0     C72659   2.961   9.963   5.557 -1.1075  0.3768 -0.1976
  539MOL0     C72660   3.036  10.023   5.436 -0.4187 -0.9603 -0.2058
  539MOL0     O72661   2.966  10.101   5.346 -0.3016  0.3796 -0.2509
  539MOL0     C72662   3.041  10.169   5.257 -1.0290  0.4633 -0.0688
  539MOL0     C72663   3.068  10.125   5.128 -0.1104 -0.3714  0.2618
  539MOL0     C72664   3.149  10.200   5.042 -1.1679 -0.5069  0.0720
  539MOL0     C72665   3.217  10.321   5.088  0.4984  0.4250  0.5381
  539MOL0     O72666   3.300  10.392   5.004  1.0410  0.2936  0.6925
  539MOL0     C72667   3.255  10.525   4.988 -0.2673 -0.6801 -0.3545
  539MOL0     C72668   3.367  10.615   4.925 -0.8272  0.0835  0.4242
  539MOL0     C72669   3.311  10.746   4.880 -0.2452 -0.2963  1.3160
  539MOL0     C72670   3.423  10.831   4.825  0.3189  0.0482 -0.3238
  539MOL0     C72671   3.368  10.975   4.803  0.1279  0.1901  0.1963
  539MOL0     C72672   3.484  11.080   4.795  0.2212 -0.7954 -0.2272
  539MOL0     C72673   3.438  11.228   4.783 -0.3139 -0.0504 -0.0731
  539MOL0     C72674   3.373  11.284   4.903 -1.0682 -0.3065  0.0233
  539MOL0    Cl72675   3.356  11.460   4.873  0.4020  0.0157 -0.1923
  539MOL0     C72676   3.182  10.360   5.213  0.5681 -0.1040  0.8884
  539MOL0     C72677   3.086  10.298   5.293 -0.9624 -0.5125 -0.4510
  539MOL0     O72678   3.161   9.997   5.434  0.1935 -0.7412 -0.2900
  539MOL0     C72679   3.034   9.886   5.649 -0.2350 -0.2819 -0.3590
  539MOL0     C72680   2.971   9.832   5.761  0.0203  0.9399  0.1236
  539MOL0     N72681   2.476   9.326   5.975 -0.8441 -1.2638  0.1055
  539MOL0     N72682   2.486   9.195   5.981 -0.0137  0.2880 -0.4583
  539MOL0     C72683   1.703   8.634   5.879 -0.1767  0.1415 -0.8655
  539MOL0     C72684   1.616   8.528   5.831  0.0300 -0.6835 -0.2915
  539MOL0     C72685   1.219   8.364   5.672 -0.2805 -0.1447 -0.9989
  539MOL0     C72686   1.250   8.250   5.584 -0.1369 -0.5431 -0.0609
  539MOL0     C72687   1.139   8.167   5.545 -0.2920  0.7296  0.2919
  539MOL0     C72688   1.006   8.180   5.579 -0.0020  0.8256 -0.0469
  539MOL0     O72689   0.909   8.095   5.521  0.2059  0.2021 -0.2954
  539MOL0     C72690   0.794   8.058   5.594 -0.4977 -0.8737  0.2654
  539MOL0     C72691   0.794   7.911   5.608 -0.4046 -0.1123  0.2952
  539MOL0     C72692   0.923   7.860   5.683  0.7209  0.9597 -0.6406
  539MOL0     C72693   0.904   7.728   5.759  0.4841  0.4738  0.4925
  539MOL0     C72694   0.841   7.625   5.668  0.2301 -0.0360 -0.3600
  539MOL0     C72695   0.796   7.537   5.600  0.9541 -0.4887 -0.3962
  539MOL0     C72696   0.981   8.299   5.654  0.3987  0.0042 -0.4317
  539MOL0     C72697   1.078   8.382   5.704 -0.5587  0.2910 -0.2906
  539MOL0     H72698   1.537   8.652   5.524  3.0746 -0.7898 -0.2988
  539MOL0     H72699   1.686   8.827   5.609  3.0121  1.0237  2.2201
  539MOL0     H72700   1.833   8.995   5.991 -0.0795  0.1762  2.3480
  539MOL0     H72701   1.801   8.822   6.034  0.7725  1.9704  2.8343
  539MOL0     H72702   2.012   8.755   5.934 -0.3898 -0.5920  2.2975
  539MOL0     H72703   2.033   8.909   5.860  1.7140  0.3402  0.6885
  539MOL0     H72704   2.114   9.021   6.063 -0.2007  0.8163  4.3276
  539MOL0     H72705   2.031   8.914   6.163 -0.5427  1.2501  0.6893
  539MOL0     H72706   2.188   8.725   6.092 -2.7898  0.1492 -2.8566
  539MOL0     H72707   2.272   8.834   5.994 -0.8940 -1.6018 -0.3592
  539MOL0     H72708   2.220   8.917   6.288 -0.6525 -0.4786 -1.0655
  539MOL0     H72709   2.323   8.787   6.262 -3.9262 -2.9356 -0.5758
  539MOL0     H72710   2.346   9.078   6.148 -2.3090  0.3412  4.3875
  539MOL0     H72711   2.440   9.007   6.283  1.6626  1.6632 -0.4506
  539MOL0     H72712   2.528   8.831   6.127 -0.9635 -0.4842  1.3858
  539MOL0     H72713   2.475   8.917   5.985  0.8273  1.6210 -0.3870
  539MOL0     H72714   2.696   8.988   6.000  0.8212  4.0594 -0.9487
  539MOL0     H72715   2.683   9.016   6.177 -0.3318  2.2092  0.4066
  539MOL0     H72716   2.768   9.272   6.121  1.0370  0.2988 -0.7735
  539MOL0     H72717   2.748   9.492   6.105 -1.1730 -1.7300  0.8294
  539MOL0     H72718   2.682   9.540   5.942 -1.3202 -0.5436 -0.7968
  539MOL0     H72719   2.554   9.594   6.218 -0.8537  0.0092  0.7379
  539MOL0     H72720   2.473   9.617   6.066 -0.7988  0.1068  1.9692
  539MOL0     H72721   2.726   9.771   6.138 -2.3990 -1.5473  2.3653
  539MOL0     H72722   2.568   9.840   6.120  2.3508  2.6436 -2.7960
  539MOL0     H72723   2.628   9.891   5.913  5.4778  0.8799 -3.4907
  539MOL0     H72724   2.602   9.728   5.862  2.1464  2.0906 -4.1864
  539MOL0     H72725   2.652   9.898   5.691  0.0184 -3.0937 -2.0079
  539MOL0     H72726   2.760  10.144   5.462 -2.2118  1.8789  3.4050
  539MOL0     H72727   2.721   9.983   5.390 -2.3625  3.0214 -2.3380
  539MOL0     H72728   2.622  10.051   5.521 -0.6018  1.5713 -2.1023
  539MOL0     H72729   3.031  10.031   5.089 -1.4622  0.9140 -1.7334
  539MOL0     H72730   3.185  10.169   4.945 -0.6839 -1.5564  0.5658
  539MOL0     H72731   3.174  10.523   4.914 -0.7982 -1.7953  0.2314
  539MOL0     H72732   3.213  10.568   5.079 -1.6110 -0.7957 -0.8958
  539MOL0     H72733   3.446  10.639   4.997 -2.2330  1.7635  1.4926
  539MOL0     H72734   3.411  10.571   4.835  0.3990  1.4220  0.3397
  539MOL0     H72735   3.263  10.792   4.967  1.2423  1.1233  1.4356
  539MOL0     H72736   3.240  10.734   4.797  2.6739  0.2881 -1.4869
  539MOL0     H72737   3.502  10.841   4.900 -1.2835 -1.0327  1.6136
  539MOL0     H72738   3.460  10.793   4.729  0.1349 -2.6743  0.5881
  539MOL0     H72739   3.288  11.003   4.872 -2.5594 -1.1755 -2.1638
  539MOL0     H72740   3.318  10.970   4.706  2.4560 -3.5956 -1.0513
  539MOL0     H72741   3.554  11.073   4.879  0.9199  2.3260 -0.4476
  539MOL0     H72742   3.538  11.051   4.704 -0.7535  0.2033 -1.1581
  539MOL0     H72743   3.365  11.244   4.703 -1.1938  1.0014  0.8916
  539MOL0     H72744   3.533  11.283   4.775 -0.0785 -0.2475  1.1552
  539MOL0     H72745   3.440  11.262   4.987  3.9857 -0.7209 -3.6540
  539MOL0     H72746   3.280  11.229   4.919  0.3250 -2.8002  0.1376
  539MOL0     H72747   3.215  10.458   5.249 -2.6294  2.1939 -1.7947
  539MOL0     H72748   3.065  10.341   5.390 -1.1630  1.1298 -1.1858
  539MOL0     H72749   3.140   9.864   5.643  0.2594  1.1802  1.8601
  539MOL0     H72750   3.016   9.780   5.845 -2.6223 -1.3301  0.2892
  539MOL0     H72751   1.749   8.621   5.976 -0.0062 -0.9586 -1.0840
  539MOL0     H72752   1.594   8.451   5.904 -0.5943 -0.4845 -0.2631
  539MOL0     H72753   1.347   8.239   5.536 -0.3385  0.5554 -0.7553
  539MOL0     H72754   1.173   8.092   5.474  4.6446 -0.2202  3.1281
  539MOL0     H72755   0.791   8.111   5.690  1.0384  2.7220 -1.4679
  539MOL0     H72756   0.708   8.106   5.545  0.4756  0.5835 -0.0978
  539MOL0     H72757   0.799   7.872   5.506  3.4042  1.0191 -0.1199
  539MOL0     H72758   0.699   7.874   5.649 -0.5717 -1.1375 -0.9602
  539MOL0     H72759   0.958   7.928   5.761  0.2816 -0.4214  0.8135
  539MOL0     H72760   1.014   7.846   5.625  1.8668  0.3419  1.2116
  539MOL0     H72761   0.838   7.737   5.846  0.8864  0.3738  0.8097
  539MOL0     H72762   1.002   7.695   5.794  0.3131  0.6379  1.1441
  539MOL0     H72763   0.748   7.466   5.535 -2.4375  1.9386 -0.8299
  539MOL0     H72764   0.877   8.320   5.672  0.2414  0.3568 -1.6646
  539MOL0     H72765   1.055   8.475   5.756 -1.2564 -0.0568  0.0357
  540MOL0     O72766   1.876   2.794   1.644  0.4526  0.1916 -1.0486
  540MOL0     C72767   1.972   2.738   1.594  0.2702  0.8895  0.7382
  540MOL0     O72768   2.065   2.652   1.656  1.3237 -1.1535  0.9104
  540MOL0     C72769   2.033   2.602   1.778  0.3423  0.0304 -0.0464
  540MOL0     C72770   2.070   2.464   1.791  0.3230 -0.0007  0.1641
  540MOL0     C72771   2.034   2.388   1.901 -0.0243 -0.7722 -0.3585
  540MOL0     C72772   1.967   2.456   2.013 -0.0501 -0.3222  0.0166
  540MOL0     O72773   1.928   2.377   2.117 -0.2038  1.3848  0.3305
  540MOL0     C72774   1.902   2.435   2.246  0.7765 -0.8004  0.1313
  540MOL0     C72775   1.918   2.335   2.351  0.1717  0.8709  0.3348
  540MOL0     C72776   1.885   2.387   2.488  0.8702 -0.6590 -0.3268
  540MOL0     C72777   1.992   2.493   2.545  0.1405 -0.0634 -0.2792
  540MOL0     C72778   2.014   2.472   2.687 -0.3231 -0.0284 -0.1527
  540MOL0     C72779   1.894   2.506   2.782 -0.4120 -0.0896 -0.1015
  540MOL0     C72780   1.930   2.481   2.929 -0.4601 -0.1239 -0.3101
  540MOL0     C72781   1.810   2.488   3.025 -1.1992 -0.7299  0.2378
  540MOL0     N72782   1.854   2.472   3.165  0.0757  0.9674 -0.2408
  540MOL0     C72783   1.887   2.347   3.204 -0.6433 -0.7946  0.1895
  540MOL0     C72784   1.924   2.363   3.333  0.2563 -0.0482 -0.2782
  540MOL0     C72785   1.979   2.252   3.416  0.5338 -0.1677 -1.2525
  540MOL0     C72786   1.871   2.167   3.503  0.4079 -0.1378  0.6936
  540MOL0     C72787   1.777   2.245   3.590  0.1464  0.2722 -0.4740
  540MOL0     C72788   1.842   2.313   3.693 -0.0906 -0.3621  0.5141
  540MOL0     O72789   1.915   2.227   3.782  0.2689 -0.5224 -0.0768
  540MOL0     C72790   1.983   2.282   3.892 -0.2718 -0.5159  0.1991
  540MOL0     C72791   2.003   2.417   3.915  0.9611 -0.1726  0.0129
  540MOL0     C72792   2.080   2.461   4.020 -1.1770  0.5627  1.0683
  540MOL0     C72793   2.109   2.610   4.039  0.0745  0.2982 -0.8985
  540MOL0     C72794   2.128   2.373   4.118  0.2198 -0.4346  0.1612
  540MOL0     C72795   2.212   2.412   4.228  0.7407  0.0560 -0.5745
  540MOL0     O72796   2.332   2.477   4.209  0.0465  0.4486 -0.0299
  540MOL0     C72797   2.402   2.527   4.317 -0.3131 -0.3895  0.0207
  540MOL0     C72798   2.475   2.648   4.293  0.3096  0.6375 -0.0224
  540MOL0     C72799   2.551   2.710   4.393 -0.5814 -0.4779  1.1144
  540MOL0     C72800   2.554   2.655   4.517 -1.6991 -0.6632 -0.3912
  540MOL0     O72801   2.647   2.708   4.607  0.4366  0.4091 -0.4395
  540MOL0     C72802   2.642   2.848   4.650  0.7284 -0.6181 -0.6591
  540MOL0     C72803   2.745   2.874   4.753 -0.2046 -0.3210  0.4539
  540MOL0     C72804   2.885   2.897   4.686 -0.2322  0.4377 -0.3811
  540MOL0     C72805   2.987   2.963   4.784 -0.1273  0.0660 -0.0239
  540MOL0     C72806   2.954   3.105   4.822 -0.4813 -0.5306 -0.2236
  540MOL0     C72807   2.973   3.210   4.711 -0.5429  1.1115  0.1123
  540MOL0     C72808   2.948   3.349   4.781 -0.5542  0.4162 -0.0492
  540MOL0     C72809   2.995   3.449   4.676 -0.4862 -0.3937  0.6692
  540MOL0    Cl72810   2.991   3.623   4.742 -0.0696  0.0088 -0.2843
  540MOL0     C72811   2.502   2.530   4.540  0.3795 -0.1214 -0.1131
  540MOL0     C72812   2.416   2.471   4.447 -0.1842  0.2212 -0.3643
  540MOL0     O72813   2.170   2.367   4.338 -0.1029  0.3419 -0.6236
  540MOL0     C72814   2.117   2.238   4.092  0.4382 -0.1399 -0.2967
  540MOL0     C72815   2.043   2.191   3.978 -0.5033  0.0267  0.3649
  540MOL0     N72816   1.911   2.498   3.371 -0.5866  0.0394 -0.7512
  540MOL0     N72817   1.876   2.559   3.263  0.6792  0.1048  0.9013
  540MOL0     C72818   1.950   2.592   2.012  0.5722 -0.1638  0.3175
  540MOL0     C72819   1.984   2.667   1.898  0.5030  0.8016  0.1933
  540MOL0     C72820   1.996   2.766   1.454 -0.5103 -0.2445 -0.5616
  540MOL0     C72821   2.105   2.699   1.403 -0.1564 -0.2427  0.5072
  540MOL0     C72822   2.131   2.701   1.267 -0.7161 -0.2931  0.5419
  540MOL0     C72823   2.077   2.815   1.195  0.4705  0.8538  0.6609
  540MOL0     O72824   2.116   2.838   1.067 -0.8464 -0.4079 -1.1356
  540MOL0     C72825   2.157   2.975   1.037 -0.5616 -0.2627 -0.5922
  540MOL0     C72826   2.164   2.997   0.884 -0.7506  0.6403  0.1954
  540MOL0     C72827   2.122   3.141   0.834  0.0980 -0.4989  0.7862
  540MOL0     C72828   2.204   3.253   0.889  0.1868 -0.8821  0.3792
  540MOL0     C72829   2.116   3.372   0.905 -1.1981  0.0105  1.7241
  540MOL0     C72830   2.023   3.446   0.913  0.6057 -0.5348  1.1643
  540MOL0     C72831   1.969   2.886   1.248  0.9328 -0.2102  0.1678
  540MOL0     C72832   1.933   2.868   1.377  0.1703  0.2488 -0.1100
  540MOL0     H72833   2.121   2.413   1.710 -0.2982  0.5374 -0.5806
  540MOL0     H72834   2.056   2.282   1.901  3.0945 -0.2465 -2.1698
  540MOL0     H72835   1.980   2.506   2.276  0.3155 -0.1798 -0.1257
  540MOL0     H72836   1.809   2.493   2.245  1.6820  0.8840  2.7367
  540MOL0     H72837   1.863   2.244   2.327  3.8332 -2.1944  2.3361
  540MOL0     H72838   2.023   2.303   2.354 -0.3697 -0.9635  0.4054
  540MOL0     H72839   1.794   2.447   2.481  0.1960 -1.4976  0.9010
  540MOL0     H72840   1.875   2.303   2.558  0.1337 -1.4734 -1.3766
  540MOL0     H72841   2.091   2.480   2.498 -0.3187 -0.2249 -1.2392
  540MOL0     H72842   1.958   2.595   2.526  1.9564  0.7463  0.6185
  540MOL0     H72843   2.038   2.366   2.696 -2.4233 -0.4167  1.7157
  540MOL0     H72844   2.095   2.538   2.719 -0.4526  0.3792 -0.6527
  540MOL0     H72845   1.867   2.610   2.764 -0.4389  0.0213  0.5651
  540MOL0     H72846   1.813   2.437   2.754 -0.3625  1.3451 -4.6727
  540MOL0     H72847   1.970   2.380   2.946 -0.5009  0.1040  1.3319
  540MOL0     H72848   2.004   2.548   2.974 -1.1725  1.9036 -1.9804
  540MOL0     H72849   1.751   2.398   3.004  2.5382 -3.8514  1.9296
  540MOL0     H72850   1.753   2.581   3.024  1.6518  1.2558 -3.2364
  540MOL0     H72851   1.883   2.264   3.135 -1.6010 -0.8029  0.2358
  540MOL0     H72852   2.030   2.186   3.346 -0.5807 -0.6946 -1.5958
  540MOL0     H72853   2.058   2.299   3.476 -1.3040  1.4436  0.0556
  540MOL0     H72854   1.931   2.087   3.549  0.1308 -0.1967  0.9604
  540MOL0     H72855   1.806   2.108   3.437  3.5695 -1.6114 -1.3526
  540MOL0     H72856   1.710   2.183   3.649 -1.0080  1.1472 -0.8254
  540MOL0     H72857   1.724   2.321   3.533 -1.1336 -0.6268 -0.5229
  540MOL0     H72858   1.765   2.363   3.752  0.0627 -0.5007  0.8357
  540MOL0     H72859   1.903   2.390   3.645 -4.3177  2.3891 -1.0072
  540MOL0     H72860   1.967   2.489   3.842 -0.8336 -1.6121 -0.5949
  540MOL0     H72861   2.191   2.643   3.975 -0.5047 -0.0494 -1.8274
  540MOL0     H72862   2.024   2.673   4.010 -0.0857  0.5637  0.0985
  540MOL0     H72863   2.135   2.638   4.142  4.6761 -0.9362 -1.5130
  540MOL0     H72864   2.482   2.680   4.190  0.5665  0.1163 -0.1676
  540MOL0     H72865   2.636   2.771   4.365 -0.8733 -1.2788 -1.9539
  540MOL0     H72866   2.646   2.918   4.566 -1.3982  0.2013 -0.1550
  540MOL0     H72867   2.543   2.858   4.698  2.5595  5.9845  3.1483
  540MOL0     H72868   2.711   2.966   4.802 -0.0231 -1.5703  3.0810
  540MOL0     H72869   2.750   2.792   4.825 -0.5030 -1.1612 -0.4595
  540MOL0     H72870   2.865   2.970   4.607  1.5041  0.0199 -1.2424
  540MOL0     H72871   2.914   2.796   4.658 -0.5709  0.9076 -2.5999
  540MOL0     H72872   3.006   2.903   4.875  4.7824 -3.4204 -2.8405
  540MOL0     H72873   3.086   2.965   4.738  0.4944 -2.0042  1.0757
  540MOL0     H72874   3.016   3.144   4.903 -2.4745  1.2640  0.5633
  540MOL0     H72875   2.854   3.118   4.865 -0.0367  1.7306  0.2320
  540MOL0     H72876   3.078   3.198   4.683 -0.9880 -0.4690 -1.0494
  540MOL0     H72877   2.912   3.181   4.625  2.2861  1.0495 -2.0317
  540MOL0     H72878   2.994   3.343   4.880  0.5911 -0.8411 -0.6201
  540MOL0     H72879   2.841   3.362   4.802 -0.3244 -1.3884  2.7334
  540MOL0     H72880   2.931   3.444   4.586 -1.3191 -1.8553  1.3060
  540MOL0     H72881   3.095   3.428   4.638 -1.3074 -4.4683  0.3021
  540MOL0     H72882   2.509   2.493   4.641  2.7084  1.8440  0.5403
  540MOL0     H72883   2.353   2.387   4.475  0.6760  0.9548  4.9015
  540MOL0     H72884   2.159   2.161   4.156  1.4427  1.1596  0.6430
  540MOL0     H72885   2.022   2.086   3.961  1.2586 -0.5886  1.7089
  540MOL0     H72886   1.924   2.652   2.098 -1.4342  0.9060 -0.9608
  540MOL0     H72887   1.976   2.775   1.894  2.5014  1.0088  0.7076
  540MOL0     H72888   2.163   2.622   1.452  1.0175  0.3041  0.0026
  540MOL0     H72889   2.203   2.640   1.215 -2.0409 -1.7635  0.3649
  540MOL0     H72890   2.088   3.043   1.087  0.4950 -1.0316  2.1218
  540MOL0     H72891   2.252   2.988   1.090 -1.2782 -1.5931  1.1166
  540MOL0     H72892   2.104   2.925   0.827  2.8538  0.1890 -3.5342
  540MOL0     H72893   2.268   2.987   0.851 -1.5772  0.7615 -2.7279
  540MOL0     H72894   2.022   3.151   0.877  0.5858  3.0277  1.3707
  540MOL0     H72895   2.132   3.143   0.725  0.2498 -2.4233  0.7228
  540MOL0     H72896   2.296   3.278   0.835  0.8529 -2.6384  0.6288
  540MOL0     H72897   2.218   3.239   0.997 -3.8806 -0.9385  1.0523
  540MOL0     H72898   1.941   3.515   0.916  2.2079  1.4517  2.2362
  540MOL0     H72899   1.903   2.953   1.194  0.4728 -0.2461  0.6707
  540MOL0     H72900   1.843   2.917   1.412 -1.1589 -0.0619 -2.8014
  541MOL0     O72901  11.196   3.304   4.704 -1.0533 -0.6867 -0.4011
  541MOL0     C72902  11.294   3.240   4.739 -0.0178  0.3607 -0.1039
  541MOL0     O72903  11.295   3.137   4.834  0.3305 -0.3433 -0.1383
  541MOL0     C72904  11.185   3.107   4.910  0.0913 -1.4785  0.3616
  541MOL0     C72905  11.074   3.197   4.940  0.0300  0.1672  0.5761
  541MOL0     C72906  10.970   3.151   5.016 -0.0423  0.2936  0.4288
  541MOL0     C72907  10.965   3.021   5.068 -0.1381 -0.4701 -0.2106
  541MOL0     O72908  10.851   2.987   5.136  0.4412 -0.9539  0.5482
  541MOL0     C72909  10.874   2.910   5.259  0.3132 -0.5164 -0.6291
  541MOL0     C72910  10.751   2.938   5.357 -0.2756  0.6211 -1.5363
  541MOL0     C72911  10.702   2.814   5.436 -0.4075  0.2280  0.5640
  541MOL0     C72912  10.820   2.733   5.509 -0.3043 -0.0852  0.1088
  541MOL0     C72913  10.772   2.665   5.628 -0.1833  0.0634 -0.8177
  541MOL0     C72914  10.894   2.584   5.690  0.5954  0.1979 -0.1038
  541MOL0     C72915  11.014   2.662   5.730  0.5431 -0.4319  0.7099
  541MOL0     C72916  11.113   2.580   5.804 -0.0615 -0.0667 -0.0300
  541MOL0     N72917  11.205   2.660   5.882  0.6328  0.3558 -0.4109
  541MOL0     C72918  11.164   2.730   5.996  0.0993 -0.2878  1.2638
  541MOL0     C72919  11.277   2.753   6.061 -0.2989  0.2382  0.7509
  541MOL0     C72920  11.300   2.817   6.194 -0.5651 -0.1151  0.3106
  541MOL0     C72921  11.277   2.970   6.194  0.2062  0.1892  0.4086
  541MOL0     C72922  11.334   3.036   6.072 -0.3559 -0.4229  0.2311
  541MOL0     C72923  11.488   3.038   6.062  1.0532  0.3707 -0.3369
  541MOL0     O72924  11.500   3.126   5.949  0.0153  0.2559 -0.2797
  541MOL0     C72925  11.594   3.221   5.924  0.3497 -0.4192  0.4392
  541MOL0     C72926  11.693   3.252   6.023 -0.3653  1.0396 -0.2866
  541MOL0     C72927  11.782   3.365   6.007  0.5130  0.3628 -0.2381
  541MOL0     C72928  11.893   3.387   6.109 -0.0215 -0.1502  0.2587
  541MOL0     C72929  11.760   3.454   5.895 -1.1668 -0.5244 -0.8528
  541MOL0     C72930  11.833   3.584   5.879  0.5673 -0.0302  0.0320
  541MOL0     O72931  11.833   3.638   5.750  0.6423 -1.1051 -0.9853
  541MOL0     C72932  11.862   3.770   5.728 -0.6390  0.3554  0.9829
  541MOL0     C72933  11.998   3.807   5.723 -0.7020  0.3413  0.1079
  541MOL0     C72934  12.039   3.930   5.679  0.6602 -0.3376  0.3455
  541MOL0     C72935  11.944   4.021   5.642  0.2335 -0.1382 -0.1958
  541MOL0     O72936  11.999   4.132   5.578  0.7353 -0.0261  0.2653
  541MOL0     C72937  11.938   4.255   5.619 -0.6391 -0.5619  0.5827
  541MOL0     C72938  12.036   4.375   5.611 -0.0252  0.3821 -0.1801
  541MOL0     C72939  12.078   4.401   5.470  0.0782  0.0861  0.1745
  541MOL0     C72940  12.143   4.541   5.461  0.3441  0.1797  0.2518
  541MOL0     C72941  12.279   4.542   5.399  0.4529 -0.4150 -0.1718
  541MOL0     C72942  12.304   4.519   5.252  0.5007  0.3007  0.6759
  541MOL0     C72943  12.455   4.482   5.222  0.7478 -1.0129  0.2204
  541MOL0     C72944  12.482   4.457   5.072  0.2616 -0.2603  0.1968
  541MOL0    Cl72945  12.478   4.620   4.984 -0.1180 -0.0731 -0.0919
  541MOL0     C72946  11.808   3.994   5.662 -0.4601 -0.0092 -0.7770
  541MOL0     C72947  11.769   3.862   5.699  0.4031 -0.0229 -0.0148
  541MOL0     O72948  11.899   3.636   5.973  0.4387  0.3857 -0.1401
  541MOL0     C72949  11.671   3.416   5.801  0.1732  0.1187 -0.0780
  541MOL0     C72950  11.582   3.308   5.820  0.0583 -0.3360  0.3068
  541MOL0     N72951  11.388   2.694   5.991  1.0399 -0.3837  0.0205
  541MOL0     N72952  11.339   2.640   5.877 -0.1453 -0.0618 -0.2094
  541MOL0     C72953  11.067   2.934   5.030  0.6906  1.1123 -0.6247
  541MOL0     C72954  11.176   2.978   4.964 -0.4824 -0.3060 -1.0761
  541MOL0     C72955  11.430   3.264   4.677 -0.5189  0.1773  0.4677
  541MOL0     C72956  11.542   3.186   4.714 -0.8033  0.4566 -0.4540
  541MOL0     C72957  11.665   3.209   4.652 -0.6073 -0.3270 -0.8948
  541MOL0     C72958  11.678   3.295   4.548  1.1108  0.0606  0.0174
  541MOL0     O72959  11.798   3.302   4.473  0.6080 -0.2230 -0.6256
  541MOL0     C72960  11.906   3.217   4.515 -0.2887 -0.0053  0.9921
  541MOL0     C72961  12.029   3.268   4.425  0.3326  0.2183  0.3242
  541MOL0     C72962  12.032   3.198   4.285  0.3171  0.1896  0.7529
  541MOL0     C72963  12.156   3.254   4.203 -0.3682  0.0821 -0.0013
  541MOL0     C72964  12.134   3.390   4.149  0.2277  0.6735 -0.2149
  541MOL0     C72965  12.109   3.503   4.108  0.6202 -0.3861  0.4093
  541MOL0     C72966  11.563   3.372   4.515 -0.5970 -0.0491 -0.1231
  541MOL0     C72967  11.445   3.356   4.570  1.0563  0.0113 -0.2165
  541MOL0     H72968  11.073   3.301   4.910  0.3982  0.6643  2.2035
  541MOL0     H72969  10.892   3.219   5.049  0.8552  1.5117  0.1127
  541MOL0     H72970  10.878   2.804   5.232  0.8709 -0.9833  1.1469
  541MOL0     H72971  10.969   2.934   5.307 -0.4888  3.3619 -0.6573
  541MOL0     H72972  10.778   3.012   5.432  1.0801  0.7035 -2.0608
  541MOL0     H72973  10.675   2.994   5.302  0.6813  2.4685 -1.0757
  541MOL0     H72974  10.631   2.843   5.514  1.9625 -0.0052  2.9062
  541MOL0     H72975  10.641   2.750   5.371 -0.3397  3.4538 -3.0308
  541MOL0     H72976  10.846   2.653   5.439  0.9568  0.9292 -0.6329
  541MOL0     H72977  10.908   2.795   5.524  1.9186 -2.5360 -1.7805
  541MOL0     H72978  10.730   2.735   5.701 -0.3957 -1.2132  0.3359
  541MOL0     H72979  10.692   2.599   5.595 -2.5766  1.0023  2.5753
  541MOL0     H72980  10.842   2.535   5.773  0.3913 -1.8144 -1.3549
  541MOL0     H72981  10.916   2.502   5.621 -1.2078 -0.5362  0.1381
  541MOL0     H72982  11.074   2.701   5.647 -2.4522  0.5920 -1.1101
  541MOL0     H72983  10.977   2.746   5.790 -0.0639  0.7750 -1.2666
  541MOL0     H72984  11.158   2.504   5.739 -1.7423  0.4781 -1.9286
  541MOL0     H72985  11.067   2.524   5.886  0.0592  3.5988  2.7762
  541MOL0     H72986  11.065   2.769   6.020  0.8665  2.7033  0.0362
  541MOL0     H72987  11.242   2.773   6.276  2.1812  0.9535  2.9861
  541MOL0     H72988  11.403   2.801   6.225 -0.5810  0.5410  0.7124
  541MOL0     H72989  11.318   3.022   6.281  0.7909 -1.4913  1.1858
  541MOL0     H72990  11.168   2.982   6.201 -0.6539 -3.7214 -2.4177
  541MOL0     H72991  11.306   3.141   6.081  1.3027 -0.1003  2.2962
  541MOL0     H72992  11.279   3.010   5.981  2.4701 -0.5659 -1.5936
  541MOL0     H72993  11.540   2.944   6.041  0.8187  0.1276  0.1439
  541MOL0     H72994  11.531   3.077   6.155  2.7791 -4.3109  1.0894
  541MOL0     H72995  11.691   3.188   6.111  0.2982  0.4518 -0.6825
  541MOL0     H72996  11.988   3.418   6.064  0.4744 -0.4771  1.0629
  541MOL0     H72997  11.854   3.462   6.178 -1.5344 -1.0045  0.3858
  541MOL0     H72998  11.910   3.295   6.166 -1.7390 -0.4604  0.3165
  541MOL0     H72999  12.070   3.729   5.746 -0.1585  1.6114  3.2352
  541MOL0     H73000  12.144   3.953   5.663  0.8521 -1.2364  0.2636
  541MOL0     H73001  11.857   4.277   5.548 -1.5403 -2.0086  1.1190
  541MOL0     H73002  11.899   4.253   5.721 -1.2665  1.8439  0.4645
  541MOL0     H73003  11.991   4.465   5.653 -0.0479  0.1723  0.2451
  541MOL0     H73004  12.125   4.350   5.669 -1.1432 -1.1603  0.9432
  541MOL0     H73005  11.984   4.394   5.415  0.3072 -1.6775 -0.0302
  541MOL0     H73006  12.131   4.316   5.427 -2.8302 -0.9936 -1.6075
  541MOL0     H73007  12.076   4.593   5.392 -1.9785 -2.0483  0.7042
  541MOL0     H73008  12.150   4.583   5.562 -1.7771 -1.1787  1.0302
  541MOL0     H73009  12.331   4.480   5.472 -0.7965  1.8060  2.8114
  541MOL0     H73010  12.314   4.643   5.418  0.5362 -0.7945  1.9335
  541MOL0     H73011  12.234   4.442   5.219  0.4244  0.3271  0.7769
  541MOL0     H73012  12.277   4.607   5.193  2.0595  0.1826 -0.2863
  541MOL0     H73013  12.491   4.401   5.286  1.5240 -0.5731  0.3479
  541MOL0     H73014  12.518   4.563   5.260  1.8769 -0.6782 -2.1920
  541MOL0     H73015  12.413   4.382   5.031  1.5891 -2.2525  1.4432
  541MOL0     H73016  12.579   4.408   5.064  0.0502 -1.0045  1.8259
  541MOL0     H73017  11.754   4.084   5.634  2.1804  2.8609  2.4484
  541MOL0     H73018  11.665   3.832   5.708 -0.0664  2.2133  4.0442
  541MOL0     H73019  11.667   3.481   5.714 -1.5704  0.3809  0.1593
  541MOL0     H73020  11.513   3.293   5.738  0.0029 -2.7010  0.7214
  541MOL0     H73021  11.065   2.830   5.063  0.8987  1.3581  0.1810
  541MOL0     H73022  11.266   2.918   4.962 -0.3838 -0.1656 -2.6255
  541MOL0     H73023  11.531   3.114   4.794 -0.2374  1.2410  0.3473
  541MOL0     H73024  11.743   3.153   4.701 -1.3875  1.9921  3.5178
  541MOL0     H73025  11.934   3.223   4.620 -2.5667 -0.7708  1.6838
  541MOL0     H73026  11.886   3.113   4.487 -0.8871  0.9917 -3.0374
  541MOL0     H73027  12.118   3.237   4.481  1.0593  1.4617 -0.0907
  541MOL0     H73028  12.031   3.377   4.417 -2.1606  0.4102  1.6120
  541MOL0     H73029  11.939   3.214   4.229 -0.8668  1.0117  2.8132
  541MOL0     H73030  12.036   3.092   4.311 -0.8962 -0.4409 -1.4097
  541MOL0     H73031  12.167   3.186   4.118 -0.2491  0.7298 -0.5170
  541MOL0     H73032  12.249   3.255   4.259  0.7788  2.4297 -1.7816
  541MOL0     H73033  12.080   3.597   4.064 -1.1186 -2.6228 -3.8535
  541MOL0     H73034  11.580   3.445   4.437  1.5982 -1.1779 -0.7918
  541MOL0     H73035  11.362   3.415   4.534  0.1051 -1.8861 -1.2377
  542MOL0     O73036   2.716   8.968   6.721 -0.3469 -0.4971  0.4082
  542MOL0     C73037   2.678   8.944   6.608  0.6717  0.2145 -0.4241
  542MOL0     O73038   2.679   9.038   6.511  0.0239 -0.3738  0.8577
  542MOL0     C73039   2.752   9.158   6.512 -1.2255  0.3832 -0.2725
  542MOL0     C73040   2.848   9.202   6.604  0.9338 -0.3984  0.4296
  542MOL0     C73041   2.895   9.336   6.606 -0.1527  0.1922  0.8896
  542MOL0     C73042   2.844   9.429   6.505 -0.6926 -0.3332  0.6031
  542MOL0     O73043   2.875   9.560   6.499  0.0290  0.1233  0.3083
  542MOL0     C73044   2.969   9.614   6.592  0.1967 -0.5554 -0.0900
  542MOL0     C73045   2.882   9.664   6.716 -0.9727 -0.6959  0.4602
  542MOL0     C73046   2.970   9.639   6.843  0.1316 -0.3770  0.5353
  542MOL0     C73047   2.876   9.630   6.968  0.5495  0.1676 -0.2120
  542MOL0     C73048   2.942   9.632   7.106  0.9349  0.2864  0.3835
  542MOL0     C73049   3.043   9.516   7.119 -0.7063 -0.1660 -0.6252
  542MOL0     C73050   3.153   9.538   7.225 -0.6114 -0.2988  0.1499
  542MOL0     C73051   3.098   9.515   7.374  0.1424 -0.7123 -0.4445
  542MOL0     N73052   3.058   9.375   7.398  0.4714  0.2752  0.6157
  542MOL0     C73053   3.141   9.272   7.404 -0.0353  0.4395 -1.0678
  542MOL0     C73054   3.065   9.165   7.416 -0.1553 -0.6557  0.5021
  542MOL0     C73055   3.102   9.022   7.444 -0.3671  0.6450  0.3279
  542MOL0     C73056   3.247   8.992   7.441  0.1052  0.7587 -0.2156
  542MOL0     C73057   3.284   8.841   7.471 -0.2933  0.4515 -0.5573
  542MOL0     C73058   3.246   8.754   7.348 -0.2051 -0.8822  0.6734
  542MOL0     O73059   3.352   8.765   7.246 -0.2278 -0.3413  0.4627
  542MOL0     C73060   3.315   8.827   7.134 -0.5461  0.3614  0.8288
  542MOL0     C73061   3.232   8.944   7.102 -0.9635  0.3855  0.0465
  542MOL0     C73062   3.217   9.001   6.979 -0.1378  0.2251 -0.0268
  542MOL0     C73063   3.123   9.119   6.969  0.0316  0.4071  0.8085
  542MOL0     C73064   3.296   8.949   6.872  0.3062 -0.5310  0.5297
  542MOL0     C73065   3.301   9.013   6.738 -0.7392  0.9180  0.5588
  542MOL0     O73066   3.375   8.949   6.639 -0.0703  0.4066 -0.2783
  542MOL0     C73067   3.421   9.024   6.532 -0.4595 -0.2482 -1.0492
  542MOL0     C73068   3.409   8.953   6.411 -0.1673  0.4425 -0.2288
  542MOL0     C73069   3.445   9.016   6.288  0.3196  0.5616 -0.9506
  542MOL0     C73070   3.499   9.143   6.292  0.2482 -0.5180  0.2701
  542MOL0     O73071   3.527   9.185   6.159  0.7643  0.3824  0.0005
  542MOL0     C73072   3.669   9.180   6.122  0.1380  0.6795 -0.4358
  542MOL0     C73073   3.744   9.309   6.138  0.4297  0.5088 -0.0821
  542MOL0     C73074   3.669   9.427   6.070  0.0563 -0.1161 -0.2447
  542MOL0     C73075   3.616   9.403   5.922  0.5292 -0.0373 -0.7156
  542MOL0     C73076   3.572   9.529   5.851  0.4930 -0.6187  0.6068
  542MOL0     C73077   3.539   9.492   5.707 -0.0773 -0.4196 -1.0774
  542MOL0     C73078   3.656   9.424   5.622  0.7210 -0.6647  0.8069
  542MOL0     C73079   3.602   9.437   5.472 -0.4281 -0.3416 -0.6847
  542MOL0    Cl73080   3.435   9.394   5.447  0.4086 -0.0272 -0.6207
  542MOL0     C73081   3.504   9.213   6.412  0.6806  0.1948  0.1968
  542MOL0     C73082   3.473   9.150   6.535 -0.2998  0.6616  0.2711
  542MOL0     O73083   3.240   9.114   6.715 -0.0787  0.3519  0.3134
  542MOL0     C73084   3.371   8.837   6.895 -0.2636 -0.6665 -0.5568
  542MOL0     C73085   3.380   8.772   7.013 -0.2001  0.4519  0.1178
  542MOL0     N73086   2.937   9.202   7.390 -2.0781 -0.3878 -0.4180
  542MOL0     N73087   2.933   9.327   7.393 -0.8664 -0.1967 -0.1034
  542MOL0     C73088   2.768   9.380   6.404 -0.3794  0.5014 -0.5954
  542MOL0     C73089   2.725   9.248   6.409  0.4302  0.8426  0.1725
  542MOL0     C73090   2.615   8.810   6.575 -0.7482 -0.5741  0.2068
  542MOL0     C73091   2.595   8.707   6.678 -0.8012 -0.5030  0.4517
  542MOL0     C73092   2.558   8.577   6.642  0.2488 -0.7847 -0.6354
  542MOL0     C73093   2.533   8.544   6.509 -0.6082 -0.4609 -0.2432
  542MOL0     O73094   2.515   8.413   6.466  0.9889 -1.0640 -0.0128
  542MOL0     C73095   2.535   8.298   6.554  0.1314 -0.2373  0.1215
  542MOL0     C73096   2.544   8.166   6.469 -0.2289 -0.7244  0.6609
  542MOL0     C73097   2.409   8.150   6.386  0.3715  0.7014 -0.4952
  542MOL0     C73098   2.408   7.998   6.337 -0.5939  0.0061  0.2697
  542MOL0     C73099   2.399   7.915   6.453  0.4185 -1.2645 -0.2287
  542MOL0     C73100   2.394   7.836   6.543 -0.5230  0.2078 -1.0473
  542MOL0     C73101   2.558   8.641   6.409 -0.0296 -0.2537  0.0327
  542MOL0     C73102   2.592   8.772   6.444 -0.7312  0.1830  0.0036
  542MOL0     H73103   2.861   9.153   6.700 -0.0484 -0.7289  0.4038
  542MOL0     H73104   2.952   9.374   6.690  0.0757  1.5089  0.1601
  542MOL0     H73105   3.044   9.544   6.629 -1.6360 -2.3551  0.4020
  542MOL0     H73106   3.021   9.702   6.553  1.5914 -1.8399 -1.2243
  542MOL0     H73107   2.856   9.769   6.702  1.8491  0.0105 -0.1806
  542MOL0     H73108   2.781   9.621   6.718 -1.2035 -0.4894 -2.5201
  542MOL0     H73109   3.018   9.541   6.843 -1.2126 -1.0503  0.4123
  542MOL0     H73110   3.049   9.714   6.853 -0.0260  0.1706 -1.7664
  542MOL0     H73111   2.814   9.720   6.964 -0.8685 -0.7485  0.0985
  542MOL0     H73112   2.801   9.551   6.957 -2.2093  2.7685 -1.5591
  542MOL0     H73113   2.987   9.730   7.121  1.0088  0.5737 -1.4282
  542MOL0     H73114   2.863   9.620   7.181 -1.4362 -0.4644 -2.0525
  542MOL0     H73115   2.997   9.419   7.137  1.6052 -1.1399  0.5713
  542MOL0     H73116   3.102   9.504   7.028 -1.6564  0.0057 -1.2731
  542MOL0     H73117   3.231   9.462   7.207 -1.0127 -0.1786 -2.4533
  542MOL0     H73118   3.198   9.637   7.214 -0.6568 -0.1794  0.9450
  542MOL0     H73119   3.013   9.583   7.387 -0.1488 -0.8868 -1.3544
  542MOL0     H73120   3.170   9.537   7.452 -1.3610  0.0190  0.7930
  542MOL0     H73121   3.248   9.274   7.421 -0.3863 -0.5088  1.8369
  542MOL0     H73122   3.062   9.001   7.544  0.1479 -0.2781  0.3418
  542MOL0     H73123   3.040   8.965   7.375 -1.2346  1.7893  0.1144
  542MOL0     H73124   3.303   9.045   7.518  1.8869 -1.8172  0.4016
  542MOL0     H73125   3.289   9.016   7.343 -1.0511  2.0010 -0.4329
  542MOL0     H73126   3.255   8.801   7.569  5.5513 -0.7542  1.0627
  542MOL0     H73127   3.392   8.843   7.490 -0.4418  1.7165  0.2748
  542MOL0     H73128   3.147   8.784   7.312  0.4694 -0.8065 -1.2592
  542MOL0     H73129   3.228   8.652   7.382  0.0543 -0.4469  2.1766
  542MOL0     H73130   3.161   8.972   7.179 -2.4103 -0.7671 -0.8243
  542MOL0     H73131   3.046   9.098   6.895 -1.4289 -0.4751  2.4992
  542MOL0     H73132   3.063   9.137   7.059 -0.6307 -1.9985  0.9066
  542MOL0     H73133   3.183   9.209   6.955 -0.1268  1.0281  3.4675
  542MOL0     H73134   3.372   8.851   6.415 -2.6682  1.3347  2.5343
  542MOL0     H73135   3.430   8.960   6.196 -2.6240 -0.3853  0.0085
  542MOL0     H73136   3.727   9.105   6.177  0.7403 -0.1422 -2.1384
  542MOL0     H73137   3.671   9.159   6.015  0.4457  1.1172 -0.5187
  542MOL0     H73138   3.757   9.334   6.243 -0.7874 -1.1686  0.5103
  542MOL0     H73139   3.842   9.281   6.099 -0.3517 -1.8396 -0.5630
  542MOL0     H73140   3.733   9.516   6.065 -1.1381  0.7253 -1.1707
  542MOL0     H73141   3.586   9.457   6.136 -1.4146  1.4021 -2.6264
  542MOL0     H73142   3.699   9.350   5.874 -1.7303 -3.8916 -0.7852
  542MOL0     H73143   3.534   9.330   5.925  1.5822 -1.3379  3.1177
  542MOL0     H73144   3.655   9.600   5.861  0.0841 -0.2012  1.0713
  542MOL0     H73145   3.482   9.572   5.895 -0.4115 -1.3815 -0.4348
  542MOL0     H73146   3.459   9.419   5.718 -0.5912  0.5245  3.6066
  542MOL0     H73147   3.511   9.586   5.658 -0.5956  0.1275  0.2192
  542MOL0     H73148   3.677   9.321   5.651  2.0662 -1.5952 -2.8741
  542MOL0     H73149   3.750   9.480   5.615 -0.7086  1.7111 -0.5517
  542MOL0     H73150   3.666   9.375   5.408 -0.6471  1.8709 -3.2367
  542MOL0     H73151   3.617   9.541   5.442  1.0134 -0.3424 -0.0695
  542MOL0     H73152   3.534   9.317   6.417  1.1335  0.0579  0.3698
  542MOL0     H73153   3.479   9.213   6.623 -2.0189  3.2877 -1.3690
  542MOL0     H73154   3.431   8.801   6.813  1.4907  1.5508 -0.3348
  542MOL0     H73155   3.437   8.681   7.029 -0.9176  0.5422  4.4417
  542MOL0     H73156   2.738   9.444   6.322 -5.1448  0.1997  0.6207
  542MOL0     H73157   2.660   9.205   6.334  2.3886  2.7138 -2.8212
  542MOL0     H73158   2.600   8.714   6.786 -2.0182  0.6927  0.4567
  542MOL0     H73159   2.545   8.511   6.727 -1.3472  1.7650  1.2776
  542MOL0     H73160   2.620   8.308   6.622  1.1564 -2.1689 -0.8087
  542MOL0     H73161   2.452   8.297   6.626 -2.0600  0.0291 -2.2698
  542MOL0     H73162   2.566   8.082   6.536 -2.7950 -1.4282  0.7310
  542MOL0     H73163   2.630   8.179   6.403 -1.4902 -2.5327 -1.5045
  542MOL0     H73164   2.397   8.217   6.301 -1.3260  1.0293 -0.0279
  542MOL0     H73165   2.324   8.170   6.452  1.5770  0.2276  1.2661
  542MOL0     H73166   2.505   7.984   6.289 -0.9722 -0.3642 -0.3963
  542MOL0     H73167   2.316   7.973   6.285 -1.2855 -2.3624  2.4285
  542MOL0     H73168   2.400   7.760   6.619 -2.5195  1.3287  0.3270
  542MOL0     H73169   2.542   8.621   6.303 -0.7236  3.5088 -0.7024
  542MOL0     H73170   2.615   8.842   6.365 -0.2469 -0.9492 -0.8951
  543MOL0     O73171   7.197   0.165   8.354 -0.5581 -0.4612  0.2027
  543MOL0     C73172   7.279   0.076   8.379 -0.9386 -0.3739  0.1053
  543MOL0     O73173   7.419   0.089   8.354  0.4439  0.1307 -0.8483
  543MOL0     C73174   7.470   0.190   8.289 -0.3319 -0.2657  0.0123
  543MOL0     C73175   7.436   0.220   8.156  0.3504 -0.8044  0.0824
  543MOL0     C73176   7.504   0.316   8.077  0.3818 -0.0089 -0.0088
  543MOL0     C73177   7.606   0.393   8.145 -1.1369 -0.5031 -0.3048
  543MOL0     O73178   7.674   0.480   8.067  0.0287 -0.1005 -0.1853
  543MOL0     C73179   7.760   0.580   8.126  0.0290  0.1339 -0.1514
  543MOL0     C73180   7.768   0.697   8.022  0.0292 -0.4099 -0.8103
  543MOL0     C73181   7.871   0.806   8.057  0.7553  0.0793  0.3110
  543MOL0     C73182   8.011   0.758   8.068 -0.9953  0.5306  1.1576
  543MOL0     C73183   8.118   0.837   7.984  0.0792 -0.1299  0.2118
  543MOL0     C73184   8.255   0.776   8.027 -0.1025 -0.3445  0.1047
  543MOL0     C73185   8.368   0.852   7.969 -0.7727  0.4913  0.3419
  543MOL0     C73186   8.386   0.984   8.034 -0.6850  0.2097  0.0019
  543MOL0     N73187   8.509   1.036   7.989 -0.2708  0.4906  0.6984
  543MOL0     C73188   8.624   1.017   8.059  0.7635  0.2174  0.0492
  543MOL0     C73189   8.723   1.048   7.964 -1.0580  0.3010 -0.5905
  543MOL0     C73190   8.864   1.025   7.993 -0.2042 -0.7885  0.4061
  543MOL0     C73191   8.944   1.154   7.954  0.0523  0.0115 -0.7970
  543MOL0     C73192   9.093   1.141   7.968 -0.6269 -0.7697  0.4663
  543MOL0     C73193   9.171   1.069   7.858 -0.4302 -0.6042 -0.9300
  543MOL0     O73194   9.307   1.106   7.856 -0.5639  0.1457  0.4661
  543MOL0     C73195   9.388   1.004   7.885 -0.2925  1.1788  0.1083
  543MOL0     C73196   9.385   0.946   8.019 -0.0212 -0.7679  0.2085
  543MOL0     C73197   9.464   0.841   8.059 -0.6262  0.7215 -0.8743
  543MOL0     C73198   9.458   0.819   8.206 -0.3553  0.6728  0.5886
  543MOL0     C73199   9.540   0.779   7.957 -0.2267  0.5917 -0.7278
  543MOL0     C73200   9.604   0.653   7.970 -0.2035 -0.3968 -0.1736
  543MOL0     O73201   9.552   0.561   8.056 -0.2800  0.0126 -0.0963
  543MOL0     C73202   9.620   0.448   8.078 -0.1963  0.5655 -0.2274
  543MOL0     C73203   9.615   0.339   7.990 -0.3263  0.2683  0.1258
  543MOL0     C73204   9.686   0.219   8.016 -0.1815  0.6140 -0.0735
  543MOL0     C73205   9.742   0.198   8.137  0.2412  1.1552  0.1797
  543MOL0     O73206   9.802   0.074   8.166  0.2547  0.0243 -0.0640
  543MOL0     C73207   9.930   0.068   8.237 -0.8201  0.2618 -0.6504
  543MOL0     C73208   9.989  -0.069   8.238  0.6219  0.8612 -0.3144
  543MOL0     C73209  10.028  -0.122   8.102 -0.5514 -0.0554  0.5606
  543MOL0     C73210   9.929  -0.104   7.988 -0.0374 -0.7475  0.3361
  543MOL0     C73211   9.992  -0.161   7.863 -0.2087 -0.8292  0.1952
  543MOL0     C73212   9.889  -0.175   7.759 -0.2836 -0.7839  0.3204
  543MOL0     C73213   9.944  -0.224   7.624 -0.1852 -0.5049 -0.6547
  543MOL0     C73214   9.964  -0.370   7.620 -0.1097  0.1832  0.2756
  543MOL0    Cl73215   9.814  -0.446   7.657 -0.5167 -0.1204 -0.5502
  543MOL0     C73216   9.753   0.307   8.225 -0.5902 -0.5642  0.3014
  543MOL0     C73217   9.690   0.427   8.192 -0.1658 -0.3155 -0.2260
  543MOL0     O73218   9.716   0.656   7.923  0.4426  0.0588 -0.1951
  543MOL0     C73219   9.539   0.827   7.831 -0.5194  0.1093 -0.0366
  543MOL0     C73220   9.475   0.943   7.795  0.1546 -0.4659  1.3006
  543MOL0     N73221   8.668   1.093   7.845  0.1314  0.1483  0.2040
  543MOL0     N73222   8.537   1.096   7.872 -0.1734  0.0032 -0.2832
  543MOL0     C73223   7.641   0.361   8.277 -0.8487 -0.1125 -0.9877
  543MOL0     C73224   7.576   0.256   8.343  0.3712  0.5832  0.6052
  543MOL0     C73225   7.235  -0.054   8.439 -0.1232 -0.5317  0.3293
  543MOL0     C73226   7.099  -0.070   8.473 -0.2665  0.2307  0.5242
  543MOL0     C73227   7.056  -0.198   8.514 -0.7137  0.3558 -0.0397
  543MOL0     C73228   7.141  -0.304   8.510  0.7164  0.4413 -0.5455
  543MOL0     O73229   7.107  -0.429   8.534 -0.6351  0.3895 -0.6992
  543MOL0     C73230   6.968  -0.473   8.552 -0.1415 -0.0382 -0.4352
  543MOL0     C73231   6.925  -0.427   8.696  0.1774 -0.2933  0.7741
  543MOL0     C73232   6.770  -0.454   8.720  0.0828  0.1222 -0.4219
  543MOL0     C73233   6.731  -0.414   8.866  0.3133 -0.1972  0.6084
  543MOL0     C73234   6.706  -0.267   8.875 -0.3349 -0.2656  0.7563
  543MOL0     C73235   6.690  -0.145   8.901  0.5810 -0.8085 -0.3653
  543MOL0     C73236   7.274  -0.288   8.469  0.8963  0.4704 -0.5613
  543MOL0     C73237   7.321  -0.163   8.448 -0.5942 -0.5278 -0.2835
  543MOL0     H73238   7.358   0.172   8.097 -0.5354 -0.6392  1.0775
  543MOL0     H73239   7.493   0.349   7.975  0.8384  0.6664  0.1538
  543MOL0     H73240   7.691   0.617   8.202 -1.6665  2.2132 -2.5313
  543MOL0     H73241   7.860   0.556   8.163  0.3330 -0.3853 -1.2642
  543MOL0     H73242   7.790   0.650   7.926  0.5699  0.5098 -1.1493
  543MOL0     H73243   7.673   0.746   8.001  0.0696 -1.3245 -3.6224
  543MOL0     H73244   7.871   0.882   7.978  1.0746  0.3363  0.5545
  543MOL0     H73245   7.839   0.851   8.152  0.0833  0.8221 -0.2475
  543MOL0     H73246   8.051   0.763   8.170  3.5745  0.2920 -0.4067
  543MOL0     H73247   8.032   0.656   8.035  3.7146  0.8821  2.2445
  543MOL0     H73248   8.102   0.808   7.879 -0.0540 -1.1844  0.5088
  543MOL0     H73249   8.113   0.944   8.004 -7.1359  0.1221 -0.2711
  543MOL0     H73250   8.272   0.777   8.135 -0.0757  2.4892  0.1507
  543MOL0     H73251   8.252   0.670   8.000 -0.6152 -0.5973  1.1225
  543MOL0     H73252   8.462   0.798   7.986 -0.5084  0.4447 -1.1736
  543MOL0     H73253   8.357   0.880   7.864 -0.8164  3.6257  1.1014
  543MOL0     H73254   8.395   0.966   8.142 -0.5234 -0.8259 -0.1735
  543MOL0     H73255   8.300   1.049   8.018 -1.8660 -1.4599 -0.7288
  543MOL0     H73256   8.643   0.971   8.155  0.7533 -3.2205 -1.4743
  543MOL0     H73257   8.895   1.000   8.095  0.6780  2.1287  0.9578
  543MOL0     H73258   8.896   0.943   7.928  0.7416  1.9579 -2.8618
  543MOL0     H73259   8.909   1.224   8.031  0.4053  1.8245 -2.2038
  543MOL0     H73260   8.912   1.201   7.860  0.6520  1.4443 -0.3233
  543MOL0     H73261   9.118   1.102   8.067 -1.3043 -0.1407  0.8902
  543MOL0     H73262   9.138   1.240   7.975  2.5337 -1.9246 -1.4245
  543MOL0     H73263   9.132   1.103   7.761  1.3088  0.5994 -1.2622
  543MOL0     H73264   9.165   0.961   7.872 -0.7528 -0.4463  0.3004
  543MOL0     H73265   9.329   1.005   8.090  1.3351  0.8157  0.0251
  543MOL0     H73266   9.408   0.907   8.248  0.0624  1.2545 -0.1210
  543MOL0     H73267   9.394   0.732   8.223  1.1956 -0.7089 -0.3416
  543MOL0     H73268   9.554   0.787   8.247 -0.2818 -1.6385 -1.1888
  543MOL0     H73269   9.546   0.347   7.906  0.7626 -0.6252 -0.8932
  543MOL0     H73270   9.679   0.137   7.944  0.4233  0.2195  0.3106
  543MOL0     H73271   9.993   0.131   8.174 -0.9501  1.0933  0.0479
  543MOL0     H73272   9.935   0.107   8.338 -1.5234  0.6610 -0.7621
  543MOL0     H73273  10.070  -0.080   8.311 -0.2692 -3.3792  0.3196
  543MOL0     H73274   9.904  -0.132   8.268  1.0211  0.9366  1.0550
  543MOL0     H73275  10.068  -0.223   8.116  0.2336  0.1390 -0.2306
  543MOL0     H73276  10.108  -0.058   8.065  0.4385 -2.6644 -2.1894
  543MOL0     H73277   9.837  -0.154   8.018  0.3317  0.1034  3.3083
  543MOL0     H73278   9.905   0.002   7.979  0.9815 -0.5336  0.0246
  543MOL0     H73279  10.036  -0.253   7.902  1.7243  0.5984  1.5633
  543MOL0     H73280  10.069  -0.098   7.818  1.4698 -4.3443 -2.3055
  543MOL0     H73281   9.819  -0.247   7.802  1.9910 -2.2788  1.6946
  543MOL0     H73282   9.823  -0.088   7.746 -1.4103 -1.4875  1.1203
  543MOL0     H73283  10.037  -0.170   7.602 -0.0605 -1.4146 -2.5186
  543MOL0     H73284   9.868  -0.192   7.552 -0.8925  3.0103  1.4186
  543MOL0     H73285  10.031  -0.398   7.702 -4.0715  2.1946  4.7166
  543MOL0     H73286   9.987  -0.402   7.519 -1.5270 -1.7710  0.5282
  543MOL0     H73287   9.819   0.313   8.310  1.4681  0.2674 -1.2683
  543MOL0     H73288   9.693   0.520   8.248  0.4791  3.3128 -5.5543
  543MOL0     H73289   9.591   0.785   7.746 -0.6584  0.0618 -0.0965
  543MOL0     H73290   9.478   0.993   7.699  1.2253 -2.6523  0.1134
  543MOL0     H73291   7.723   0.408   8.330 -1.8367  0.3281  0.1976
  543MOL0     H73292   7.611   0.238   8.444  3.8450 -1.9308 -0.8403
  543MOL0     H73293   7.030   0.009   8.444 -0.4291 -0.6144 -1.5536
  543MOL0     H73294   6.948  -0.204   8.527 -0.9325  0.2278 -1.7711
  543MOL0     H73295   6.909  -0.427   8.473  2.2576 -0.7267 -2.7786
  543MOL0     H73296   6.968  -0.581   8.533  0.7930  0.3937 -3.3995
  543MOL0     H73297   6.958  -0.327   8.726  3.2373 -0.1468 -2.4297
  543MOL0     H73298   6.978  -0.482   8.774 -0.6208  0.1016  1.6045
  543MOL0     H73299   6.764  -0.563   8.710 -1.2373 -0.0307  1.5275
  543MOL0     H73300   6.706  -0.399   8.651 -0.7877  0.5478  0.6956
  543MOL0     H73301   6.802  -0.446   8.943  0.4587  0.4651  0.7555
  543MOL0     H73302   6.639  -0.468   8.891  1.9406 -3.0549  0.7605
  543MOL0     H73303   6.686  -0.039   8.918 -0.5116 -1.1592  2.0862
  543MOL0     H73304   7.342  -0.372   8.463  2.5768  1.7085  0.3968
  543MOL0     H73305   7.414  -0.150   8.393 -1.9508  1.2742 -2.3560
  544MOL0     O73306  11.158   6.778   8.067  0.3432  0.5120 -0.3790
  544MOL0     C73307  11.073   6.793   8.150  0.3039 -0.4973 -0.2124
  544MOL0     O73308  10.952   6.733   8.143 -0.1553 -0.5201  0.0444
  544MOL0     C73309  10.903   6.661   8.040  0.4222  0.4044  0.3251
  544MOL0     C73310  10.771   6.688   7.985 -1.9732  0.6368  0.1580
  544MOL0     C73311  10.725   6.611   7.879  0.4941 -0.2144 -0.5793
  544MOL0     C73312  10.805   6.514   7.825 -0.0426 -1.0978 -0.5033
  544MOL0     O73313  10.756   6.426   7.730 -0.0242  0.2674  0.2030
  544MOL0     C73314  10.640   6.447   7.655  0.3868  0.3353  0.1036
  544MOL0     C73315  10.647   6.420   7.506  0.7619  0.4389 -0.6283
  544MOL0     C73316  10.788   6.433   7.445 -0.3371 -0.0891 -0.0431
  544MOL0     C73317  10.865   6.299   7.435  0.3588  0.0171 -0.3255
  544MOL0     C73318  11.005   6.323   7.386  0.1048 -0.5913 -0.5538
  544MOL0     C73319  11.110   6.207   7.390 -0.0211 -0.7831 -0.9549
  544MOL0     C73320  11.088   6.068   7.320  0.9384 -0.2142  0.6340
  544MOL0     C73321  11.148   6.078   7.179 -0.4623 -0.4886 -0.1004
  544MOL0     N73322  11.107   5.956   7.114  0.7169 -0.9571 -0.1027
  544MOL0     C73323  11.192   5.857   7.091 -0.5151 -0.0363 -0.1189
  544MOL0     C73324  11.126   5.773   7.008 -0.9177 -0.6197  0.5938
  544MOL0     C73325  11.166   5.638   6.956 -1.0548 -0.5923  0.5029
  544MOL0     C73326  11.295   5.590   7.026 -0.2745 -0.5707 -0.7341
  544MOL0     C73327  11.346   5.456   6.989  0.3254 -0.3846 -0.6798
  544MOL0     C73328  11.380   5.447   6.846 -0.3404 -0.3417 -0.9784
  544MOL0     O73329  11.452   5.330   6.812 -0.6725 -0.1192 -0.1891
  544MOL0     C73330  11.392   5.258   6.718 -0.4937  0.4026 -0.0041
  544MOL0     C73331  11.427   5.270   6.581  0.1849 -0.3864  0.7685
  544MOL0     C73332  11.378   5.195   6.472  0.4479 -0.4176  0.5519
  544MOL0     C73333  11.395   5.248   6.330  0.1485 -0.0496  0.2217
  544MOL0     C73334  11.292   5.082   6.507 -0.4055 -0.2881  0.2165
  544MOL0     C73335  11.250   4.979   6.402  0.2850 -0.2358 -0.1735
  544MOL0     O73336  11.166   4.884   6.451  0.4514 -0.2087 -0.1942
  544MOL0     C73337  11.102   4.788   6.377 -0.0469 -0.3148 -0.1092
  544MOL0     C73338  11.138   4.743   6.251 -0.7372 -0.1699  0.2715
  544MOL0     C73339  11.077   4.640   6.184 -0.5545 -0.9021 -0.2813
  544MOL0     C73340  10.967   4.573   6.245 -0.6589  0.4625  0.6851
  544MOL0     O73341  10.904   4.468   6.173 -0.6779  0.0667 -0.4894
  544MOL0     C73342  10.782   4.402   6.230 -0.4430 -0.4648 -0.4945
  544MOL0     C73343  10.744   4.280   6.145  0.4720 -0.6852  0.2377
  544MOL0     C73344  10.648   4.321   6.033 -1.0436  0.0844  0.2539
  544MOL0     C73345  10.505   4.313   6.069  0.5107 -0.0817 -0.2977
  544MOL0     C73346  10.408   4.329   5.954 -0.2042  0.9019 -0.4357
  544MOL0     C73347  10.269   4.368   6.008  0.2227 -0.2813  0.6701
  544MOL0     C73348  10.169   4.361   5.898 -0.1555 -0.0077 -0.3295
  544MOL0     C73349  10.035   4.403   5.943  0.2698  0.2869  0.6033
  544MOL0    Cl73350   9.969   4.286   6.067  0.0202 -0.6291  0.3012
  544MOL0     C73351  10.914   4.627   6.370  0.3313 -0.0635  0.6758
  544MOL0     C73352  10.991   4.727   6.437 -0.2639 -0.1188 -0.2313
  544MOL0     O73353  11.280   4.999   6.287 -0.6155  0.3041 -0.3212
  544MOL0     C73354  11.259   5.066   6.638 -0.7322 -0.4653 -0.8508
  544MOL0     C73355  11.297   5.158   6.741  0.2041  0.0008 -0.0236
  544MOL0     N73356  10.996   5.828   6.985 -0.0699 -0.7667 -0.1108
  544MOL0     N73357  10.989   5.945   7.041 -0.4491  0.6905  1.1644
  544MOL0     C73358  10.938   6.488   7.875  0.4833 -0.5956 -0.8002
  544MOL0     C73359  10.986   6.556   7.990  0.6834 -1.3371  0.7902
  544MOL0     C73360  11.116   6.850   8.283  0.2740  0.0130  1.3681
  544MOL0     C73361  11.245   6.899   8.308 -0.0469  0.7527 -0.4881
  544MOL0     C73362  11.277   6.980   8.417  0.6506  0.2234 -0.1993
  544MOL0     C73363  11.180   7.014   8.519  0.3764  0.5865  1.3538
  544MOL0     O73364  11.214   7.111   8.615 -0.1231  0.1271 -0.9647
  544MOL0     C73365  11.132   7.099   8.733  0.4610  0.3885 -0.2206
  544MOL0     C73366  11.198   7.185   8.839 -0.5266  0.6033  0.7219
  544MOL0     C73367  11.341   7.139   8.886  0.0649 -0.2587 -0.4084
  544MOL0     C73368  11.420   7.256   8.949  0.1938 -0.5097 -0.3815
  544MOL0     C73369  11.523   7.212   9.036 -1.0768  0.9427 -0.0457
  544MOL0     C73370  11.610   7.176   9.111  0.0320 -0.3153  0.5002
  544MOL0     C73371  11.054   6.955   8.500 -0.9146 -0.4621  0.3677
  544MOL0     C73372  11.024   6.888   8.378  0.0505 -0.3217 -0.9345
  544MOL0     H73373  10.717   6.771   8.029  1.5632  2.7144  0.9425
  544MOL0     H73374  10.626   6.639   7.842  1.3155  1.5321 -1.5822
  544MOL0     H73375  10.562   6.386   7.702  2.9208 -1.7350  1.8856
  544MOL0     H73376  10.614   6.552   7.671 -1.6165 -0.5927  4.3657
  544MOL0     H73377  10.607   6.318   7.496  0.9700 -0.2312  3.5207
  544MOL0     H73378  10.572   6.481   7.456  0.0400 -0.0997 -0.2331
  544MOL0     H73379  10.776   6.466   7.341 -1.8456 -2.2190 -0.6005
  544MOL0     H73380  10.852   6.505   7.498 -0.3434  1.5189 -2.0788
  544MOL0     H73381  10.868   6.251   7.534  0.2391  0.6635 -0.0058
  544MOL0     H73382  10.820   6.231   7.362  0.7352  1.4498 -1.9285
  544MOL0     H73383  11.002   6.357   7.282 -1.3829  0.1983 -0.2824
  544MOL0     H73384  11.043   6.409   7.443 -0.7748 -0.7261  0.2697
  544MOL0     H73385  11.206   6.250   7.359 -0.4158  1.5420  0.8320
  544MOL0     H73386  11.142   6.194   7.494  2.1349  0.7213 -1.3632
  544MOL0     H73387  11.145   5.989   7.369  0.9826 -0.8686 -0.4436
  544MOL0     H73388  10.981   6.045   7.325  1.1453 -0.9480  4.1163
  544MOL0     H73389  11.256   6.078   7.197 -0.5245  0.3916  0.3406
  544MOL0     H73390  11.112   6.156   7.112  4.9139  1.3533 -1.3617
  544MOL0     H73391  11.294   5.849   7.129 -1.3673 -3.5686  1.9004
  544MOL0     H73392  11.090   5.563   6.981 -1.1395  0.0679  2.3305
  544MOL0     H73393  11.180   5.657   6.849 -1.2891 -0.0767  0.5590
  544MOL0     H73394  11.284   5.581   7.135  2.3496 -1.2059 -0.4512
  544MOL0     H73395  11.367   5.670   7.009 -1.1262  0.7333  1.3000
  544MOL0     H73396  11.269   5.387   7.023  0.7510 -1.4984 -1.9030
  544MOL0     H73397  11.439   5.436   7.043 -0.0157  1.8330  0.9222
  544MOL0     H73398  11.446   5.531   6.823  0.8515 -0.8470  0.4824
  544MOL0     H73399  11.289   5.445   6.784  1.2049 -2.0873 -3.3596
  544MOL0     H73400  11.504   5.345   6.569  1.2701 -1.4241  1.0118
  544MOL0     H73401  11.464   5.197   6.263 -0.8101  2.3112 -2.8266
  544MOL0     H73402  11.294   5.244   6.288  0.8666  0.3985 -1.6048
  544MOL0     H73403  11.431   5.351   6.331  3.0824 -0.9896 -0.0361
  544MOL0     H73404  11.219   4.789   6.196  0.9003  0.0171  2.6733
  544MOL0     H73405  11.110   4.602   6.088  2.1935  0.5754 -0.0205
  544MOL0     H73406  10.810   4.373   6.332  1.8563 -2.6961 -1.6259
  544MOL0     H73407  10.697   4.470   6.227 -1.3638 -1.5889 -3.5357
  544MOL0     H73408  10.836   4.240   6.102  1.7833  2.1088  0.2349
  544MOL0     H73409  10.696   4.211   6.216  0.5935  0.1428  1.1541
  544MOL0     H73410  10.671   4.241   5.962  0.1215 -0.3942  1.1442
  544MOL0     H73411  10.682   4.419   5.997  2.2077 -0.5510  1.2270
  544MOL0     H73412  10.484   4.234   6.142  0.5455  2.3615  2.5592
  544MOL0     H73413  10.489   4.402   6.131 -1.3528 -1.9155  2.0682
  544MOL0     H73414  10.397   4.235   5.899  0.1998 -0.7067  2.0859
  544MOL0     H73415  10.452   4.401   5.885  0.8836  0.0188 -0.6830
  544MOL0     H73416  10.245   4.302   6.092  2.1838 -1.3663  0.4470
  544MOL0     H73417  10.270   4.469   6.052 -0.3221 -1.2635  3.0639
  544MOL0     H73418  10.168   4.259   5.859  1.0702 -0.0606 -0.2671
  544MOL0     H73419  10.195   4.427   5.815  1.4953 -2.1952 -1.6374
  544MOL0     H73420   9.960   4.402   5.864 -0.4918 -2.6323  1.2578
  544MOL0     H73421  10.045   4.504   5.984  0.1960  1.1398 -1.3591
  544MOL0     H73422  10.819   4.593   6.411 -1.2822  2.1929 -0.9311
  544MOL0     H73423  10.942   4.759   6.528 -0.3303  0.2257 -0.3860
  544MOL0     H73424  11.203   4.978   6.665 -1.3222  0.4462  1.1308
  544MOL0     H73425  11.261   5.135   6.841 -2.2648 -1.0756 -1.0819
  544MOL0     H73426  10.992   6.402   7.839 -1.5758 -2.7027  0.8761
  544MOL0     H73427  11.080   6.522   8.031  1.9258  0.4207 -0.4898
  544MOL0     H73428  11.323   6.891   8.233  0.3940 -1.4460  0.1383
  544MOL0     H73429  11.379   7.011   8.436 -0.4451  3.0107  1.7196
  544MOL0     H73430  11.028   7.126   8.710 -0.0933 -2.4569 -1.5040
  544MOL0     H73431  11.126   6.995   8.766 -2.2867  0.0921 -1.3202
  544MOL0     H73432  11.127   7.188   8.922 -3.3484 -0.3424 -1.4437
  544MOL0     H73433  11.205   7.293   8.821  0.3191  0.7313  1.7236
  544MOL0     H73434  11.395   7.086   8.808 -0.6855 -0.8774 -0.5250
  544MOL0     H73435  11.318   7.063   8.962 -2.6057  1.0870  0.2466
  544MOL0     H73436  11.343   7.320   8.995 -0.7931 -0.8837 -1.4529
  544MOL0     H73437  11.475   7.321   8.881  0.6642 -0.7514 -0.2331
  544MOL0     H73438  11.667   7.142   9.196 -0.4348 -0.9359  0.5731
  544MOL0     H73439  10.980   6.963   8.579  0.9825 -0.1636  2.1793
  544MOL0     H73440  10.919   6.866   8.357 -0.2428  1.2494 -1.2485
  545MOL0     O73441   8.803   6.031   2.820 -0.3626  0.0156  0.2168
  545MOL0     C73442   8.727   5.950   2.765 -0.1736  0.4948 -0.2865
  545MOL0     O73443   8.607   5.977   2.716  0.7453 -0.5549 -0.1733
  545MOL0     C73444   8.563   6.100   2.682 -0.8543 -0.5210 -0.5750
  545MOL0     C73445   8.653   6.194   2.627 -0.4872 -0.5168 -0.0407
  545MOL0     C73446   8.599   6.316   2.593  0.5232 -0.3704 -0.0121
  545MOL0     C73447   8.463   6.339   2.595 -0.1010 -0.1559  0.5362
  545MOL0     O73448   8.415   6.468   2.573  0.2221 -0.6194 -0.7632
  545MOL0     C73449   8.286   6.477   2.513 -0.5065 -1.1581  0.2275
  545MOL0     C73450   8.292   6.611   2.440  0.6384 -0.2442  0.2714
  545MOL0     C73451   8.367   6.585   2.303  0.0934  0.1492 -0.8027
  545MOL0     C73452   8.344   6.690   2.188  0.7439  0.7577 -0.7184
  545MOL0     C73453   8.455   6.693   2.080 -0.0168 -0.4756  0.2188
  545MOL0     C73454   8.566   6.787   2.110  0.2785 -0.0706  0.4118
  545MOL0     C73455   8.697   6.752   2.035  0.0903 -0.2530 -1.0898
  545MOL0     C73456   8.695   6.725   1.885  0.3682  0.3833  0.3766
  545MOL0     N73457   8.633   6.604   1.834 -0.4982 -0.3746  0.1618
  545MOL0     C73458   8.700   6.479   1.821  0.2005 -2.0393 -0.0546
  545MOL0     C73459   8.602   6.404   1.782 -0.6419 -0.1837 -0.6114
  545MOL0     C73460   8.594   6.255   1.751  0.6102  0.9665 -0.2444
  545MOL0     C73461   8.729   6.190   1.736  0.0016 -0.0189 -0.3694
  545MOL0     C73462   8.699   6.040   1.733  0.3750  0.6470  0.1773
  545MOL0     C73463   8.839   5.968   1.734 -0.2228  0.5403 -0.6744
  545MOL0     O73464   8.831   5.824   1.763  0.1000  0.1098 -0.0678
  545MOL0     C73465   8.956   5.763   1.783  0.6642  0.8105  0.0266
  545MOL0     C73466   8.950   5.628   1.820 -0.5889 -0.6377 -1.2757
  545MOL0     C73467   9.065   5.553   1.858  0.4932 -0.8800 -0.3167
  545MOL0     C73468   9.048   5.416   1.913 -0.3187  0.0437 -0.0106
  545MOL0     C73469   9.189   5.616   1.860 -0.7209 -0.5323  0.8556
  545MOL0     C73470   9.317   5.561   1.917  0.6458 -0.6577  0.5976
  545MOL0     O73471   9.326   5.425   1.942  0.1261  0.3466 -0.2022
  545MOL0     C73472   9.453   5.365   1.935 -0.3917 -0.0270  0.4696
  545MOL0     C73473   9.551   5.410   1.841 -0.4132  0.2814 -0.4561
  545MOL0     C73474   9.683   5.354   1.844  0.0197 -0.1093  0.6089
  545MOL0     C73475   9.718   5.257   1.936  0.1128  0.5198  0.0541
  545MOL0     O73476   9.841   5.196   1.939  0.6455 -0.2108  0.2259
  545MOL0     C73477   9.937   5.232   1.843 -1.0800  0.7007  0.3221
  545MOL0     C73478  10.003   5.092   1.822  0.4187 -0.1974 -0.2312
  545MOL0     C73479  10.140   5.095   1.746 -0.5862 -0.0274 -0.8721
  545MOL0     C73480  10.229   4.971   1.773 -0.4296  0.3666 -0.0105
  545MOL0     C73481  10.313   4.939   1.653  0.2882  0.5100 -0.8056
  545MOL0     C73482  10.352   4.793   1.652 -0.8277 -0.2472 -0.3145
  545MOL0     C73483  10.458   4.765   1.754 -0.7521 -0.5086  0.4577
  545MOL0     C73484  10.596   4.829   1.713  0.3309  1.1460 -0.7824
  545MOL0    Cl73485  10.649   4.741   1.564  0.0365 -0.0546  0.4140
  545MOL0     C73486   9.625   5.210   2.029  0.1133  0.1705  0.2923
  545MOL0     C73487   9.493   5.267   2.022 -0.1376  0.6905  0.0185
  545MOL0     O73488   9.410   5.639   1.937 -0.5695 -0.3012 -0.1430
  545MOL0     C73489   9.200   5.745   1.805 -0.3854  0.4896 -0.5285
  545MOL0     C73490   9.085   5.818   1.773  0.9701  0.3470 -0.1115
  545MOL0     N73491   8.486   6.483   1.738 -0.3288  0.3462 -0.4225
  545MOL0     N73492   8.517   6.605   1.766  0.3948  0.2438  0.2929
  545MOL0     C73493   8.370   6.245   2.646  1.0234 -0.1850  0.4846
  545MOL0     C73494   8.429   6.119   2.694  1.1617 -0.4218 -0.0395
  545MOL0     C73495   8.787   5.812   2.728  0.8846 -0.1862 -0.4132
  545MOL0     C73496   8.697   5.717   2.682  0.1608  0.2884  0.1684
  545MOL0     C73497   8.748   5.594   2.658 -0.9107  0.1233  0.6273
  545MOL0     C73498   8.890   5.581   2.635  0.4821  0.4491 -0.8362
  545MOL0     O73499   8.951   5.466   2.588  0.6902  0.2569  0.0585
  545MOL0     C73500   8.877   5.359   2.546  0.2873 -0.1894  0.3203
  545MOL0     C73501   8.828   5.263   2.660 -0.0417  0.4822 -0.1073
  545MOL0     C73502   8.725   5.174   2.599 -0.0969 -0.4182  0.4050
  545MOL0     C73503   8.664   5.068   2.693  0.2058  0.0942 -0.2501
  545MOL0     C73504   8.558   5.136   2.771  0.1834 -0.7806  0.3657
  545MOL0     C73505   8.474   5.196   2.837 -0.8716  0.4467  0.2082
  545MOL0     C73506   8.977   5.694   2.652 -1.0118 -1.3309 -0.9075
  545MOL0     C73507   8.923   5.804   2.723  0.4231 -0.6753  0.0481
  545MOL0     H73508   8.760   6.188   2.607 -0.2731  2.5050 -0.3252
  545MOL0     H73509   8.666   6.393   2.556  0.5296 -0.8410 -1.0192
  545MOL0     H73510   8.257   6.393   2.449 -4.0521  0.2765 -0.2850
  545MOL0     H73511   8.201   6.481   2.581 -1.7734  1.2334 -1.3377
  545MOL0     H73512   8.190   6.637   2.411  0.1115 -4.5300 -2.7292
  545MOL0     H73513   8.335   6.685   2.508  2.7389  0.3301 -1.5610
  545MOL0     H73514   8.471   6.585   2.335  0.1215 -0.7365 -0.8592
  545MOL0     H73515   8.350   6.485   2.260  4.3180 -1.0729 -0.0431
  545MOL0     H73516   8.252   6.671   2.132  1.3775 -0.1588 -1.4734
  545MOL0     H73517   8.344   6.788   2.237 -1.0812  0.0415  0.8454
  545MOL0     H73518   8.485   6.592   2.050  0.8661  0.8582 -3.9972
  545MOL0     H73519   8.406   6.734   1.991  0.1424 -0.0725  0.3154
  545MOL0     H73520   8.533   6.888   2.083  1.1094  0.5471  1.6190
  545MOL0     H73521   8.572   6.797   2.219  0.4989 -1.5248  0.5520
  545MOL0     H73522   8.768   6.831   2.062  1.0409 -1.2851 -0.4786
  545MOL0     H73523   8.736   6.656   2.068  0.7703  0.0622 -0.9624
  545MOL0     H73524   8.798   6.708   1.855 -0.3967  0.4597 -2.6384
  545MOL0     H73525   8.648   6.808   1.831 -1.3698 -0.7590  0.0387
  545MOL0     H73526   8.801   6.449   1.849  0.5583 -0.1632  0.7990
  545MOL0     H73527   8.527   6.213   1.826  0.3720  0.6880 -0.6140
  545MOL0     H73528   8.544   6.247   1.654 -1.9756  5.1109  0.4805
  545MOL0     H73529   8.792   6.223   1.818 -1.3580 -2.8831  2.0042
  545MOL0     H73530   8.775   6.230   1.645 -0.6685 -0.1415 -0.7766
  545MOL0     H73531   8.646   6.001   1.646 -2.8509  3.3058  0.7737
  545MOL0     H73532   8.639   6.017   1.822  1.8967 -1.3258  0.7619
  545MOL0     H73533   8.902   6.012   1.812 -1.9303 -0.6649  1.5126
  545MOL0     H73534   8.904   5.972   1.647 -1.0475  1.0665 -1.2754
  545MOL0     H73535   8.855   5.576   1.830 -0.5787 -0.5135 -0.4852
  545MOL0     H73536   8.941   5.393   1.911 -0.4140  0.5422 -0.9531
  545MOL0     H73537   9.102   5.348   1.846 -0.5689  2.7312 -3.1845
  545MOL0     H73538   9.077   5.403   2.017  0.7536 -1.7507 -0.4910
  545MOL0     H73539   9.522   5.485   1.769 -1.1165  0.5507  0.0921
  545MOL0     H73540   9.759   5.392   1.778  1.8412  0.7547  3.0705
  545MOL0     H73541   9.908   5.271   1.745 -3.7599 -2.3481 -0.2449
  545MOL0     H73542  10.015   5.298   1.883 -1.3625  2.2924 -1.5744
  545MOL0     H73543  10.011   5.036   1.916 -1.7820  1.5891  1.1419
  545MOL0     H73544   9.933   5.033   1.761  0.1690  1.8854 -2.0941
  545MOL0     H73545  10.185   5.187   1.785 -4.1817  0.9717  1.4895
  545MOL0     H73546  10.111   5.095   1.641 -1.2490 -1.1993 -0.7039
  545MOL0     H73547  10.294   4.975   1.861  1.5859 -2.0224 -1.2245
  545MOL0     H73548  10.163   4.888   1.799  2.7044 -2.2530  0.2385
  545MOL0     H73549  10.396   5.010   1.646  0.8589 -0.2617 -2.8004
  545MOL0     H73550  10.276   4.954   1.551  1.0041  0.1387 -1.1313
  545MOL0     H73551  10.267   4.726   1.666 -1.4674  0.4449 -0.7254
  545MOL0     H73552  10.395   4.774   1.553 -1.0868 -0.3729 -0.4043
  545MOL0     H73553  10.471   4.657   1.762 -1.3997 -0.5195  1.5432
  545MOL0     H73554  10.429   4.802   1.853 -4.8969 -0.1266 -0.7177
  545MOL0     H73555  10.671   4.816   1.791 -0.6680  1.1017  0.1976
  545MOL0     H73556  10.598   4.938   1.703 -0.6261  1.2981  0.4329
  545MOL0     H73557   9.651   5.146   2.113 -2.0626  0.1252  0.9913
  545MOL0     H73558   9.413   5.242   2.092 -0.2846  1.4603  0.1334
  545MOL0     H73559   9.294   5.797   1.793 -0.1141 -0.2974 -2.1191
  545MOL0     H73560   9.092   5.920   1.736  0.6453  0.1031 -0.8493
  545MOL0     H73561   8.264   6.269   2.641  1.5057  1.9836 -1.8832
  545MOL0     H73562   8.371   6.045   2.749  0.7442 -0.8799 -1.0543
  545MOL0     H73563   8.593   5.747   2.692  0.3077  2.1322 -2.7657
  545MOL0     H73564   8.683   5.510   2.634 -0.1263 -0.3800  0.2059
  545MOL0     H73565   8.804   5.412   2.484 -1.0188 -3.1744 -0.8431
  545MOL0     H73566   8.945   5.311   2.475 -0.0793 -0.5465  0.2061
  545MOL0     H73567   8.788   5.324   2.741 -0.5139  1.3107 -0.9350
  545MOL0     H73568   8.915   5.207   2.696 -1.2963 -1.6980 -0.2372
  545MOL0     H73569   8.772   5.125   2.513  1.0402 -0.9313  1.2794
  545MOL0     H73570   8.649   5.240   2.558  0.9103 -0.2176 -1.2463
  545MOL0     H73571   8.731   5.008   2.756 -0.4065 -1.9106 -1.4224
  545MOL0     H73572   8.613   4.992   2.634  1.6039 -0.1425 -1.1852
  545MOL0     H73573   8.396   5.254   2.883 -2.6142 -2.3203  0.9685
  545MOL0     H73574   9.082   5.684   2.628 -0.5765  4.0101 -2.7258
  545MOL0     H73575   8.987   5.883   2.760  1.9586  0.0855 -3.8292
  546MOL0     O73576   9.301   7.424  10.751  1.0487 -0.0830  0.3704
  546MOL0     C73577   9.426   7.413  10.755  0.6680  0.0634 -0.5122
  546MOL0     O73578   9.525   7.482  10.691  0.7542 -0.4884  0.5717
  546MOL0     C73579   9.511   7.607  10.631  0.2813  0.0931  0.3792
  546MOL0     C73580   9.405   7.696  10.661  0.9188  0.8109  0.7652
  546MOL0     C73581   9.393   7.812  10.591  0.0813 -0.9602  0.2504
  546MOL0     C73582   9.471   7.846  10.487 -1.3313  0.3353  0.4534
  546MOL0     O73583   9.450   7.963  10.424 -0.3860 -0.0962  0.4836
  546MOL0     C73584   9.574   8.049  10.412  1.0642  0.6640  0.2259
  546MOL0     C73585   9.536   8.190  10.358  0.3613  0.9104 -1.1617
  546MOL0     C73586   9.504   8.185  10.210  0.1167  0.8258 -0.3723
  546MOL0     C73587   9.477   8.321  10.154 -0.0983  0.9108 -0.5222
  546MOL0     C73588   9.343   8.374  10.190 -1.1247  1.0269  1.0738
  546MOL0     C73589   9.226   8.324  10.105  0.2279  0.3192  0.7116
  546MOL0     C73590   9.097   8.413  10.138 -0.0558 -0.3590 -0.2818
  546MOL0     C73591   8.971   8.363  10.052 -1.3914 -0.4445  0.1954
  546MOL0     N73592   8.875   8.465  10.016 -0.1684 -0.4121  0.5441
  546MOL0     C73593   8.817   8.485   9.892  0.1862  0.9293  1.3710
  546MOL0     C73594   8.717   8.571   9.921 -0.7264 -0.1039 -0.2006
  546MOL0     C73595   8.626   8.628   9.820 -0.9411 -0.2641  0.1653
  546MOL0     C73596   8.516   8.721   9.870  0.5935  0.8349  0.0372
  546MOL0     C73597   8.410   8.744   9.753 -0.2221  0.2808  0.1195
  546MOL0     C73598   8.431   8.868   9.674  1.0628 -1.1557  0.5373
  546MOL0     O73599   8.318   8.888   9.590  0.0656  0.0302  0.5899
  546MOL0     C73600   8.313   8.998   9.506  0.5682 -1.0548  0.7991
  546MOL0     C73601   8.214   8.991   9.408 -0.9288 -0.9191  0.9787
  546MOL0     C73602   8.204   9.095   9.302 -0.9452 -0.7504 -1.1697
  546MOL0     C73603   8.076   9.077   9.214  0.3558 -0.1335 -0.3101
  546MOL0     C73604   8.303   9.196   9.304  0.2379  0.3234 -0.8960
  546MOL0     C73605   8.302   9.309   9.205 -0.6933 -0.1329 -0.7405
  546MOL0     O73606   8.400   9.394   9.207  0.2346 -0.4280  0.7532
  546MOL0     C73607   8.389   9.526   9.148  0.8985  0.2304 -0.6081
  546MOL0     C73608   8.399   9.634   9.234 -0.4290 -1.4386  0.2507
  546MOL0     C73609   8.378   9.766   9.183  0.2341 -0.0966 -0.5255
  546MOL0     C73610   8.360   9.786   9.044  0.4627 -0.7026  0.1827
  546MOL0     O73611   8.327   9.902   8.976 -0.0859 -0.0087 -0.0950
  546MOL0     C73612   8.249   9.998   9.051  0.3697 -0.6826  0.7063
  546MOL0     C73613   8.191  10.109   8.961  0.0004  0.1073 -0.0680
  546MOL0     C73614   8.085  10.189   9.028  0.5288  0.8709  0.7059
  546MOL0     C73615   8.042  10.308   8.939  0.4231  0.7624 -0.5371
  546MOL0     C73616   7.947  10.388   9.033 -0.4352 -0.4762  0.1628
  546MOL0     C73617   7.793  10.335   9.032  0.1256  0.2856 -0.3867
  546MOL0     C73618   7.735  10.352   8.897 -0.1913  0.2377  0.3406
  546MOL0     C73619   7.590  10.320   8.887 -1.0794 -0.7006 -0.3249
  546MOL0    Cl73620   7.543  10.310   8.700  0.1341  0.0829  0.4710
  546MOL0     C73621   8.367   9.674   8.959 -0.5408 -0.2957 -0.3962
  546MOL0     C73622   8.382   9.544   9.013  1.2185 -0.3517 -0.0620
  546MOL0     O73623   8.208   9.315   9.123 -0.0006  0.3027 -0.3683
  546MOL0     C73624   8.393   9.208   9.409 -0.3646  0.2616 -0.9375
  546MOL0     C73625   8.407   9.104   9.506  0.3152 -0.8715  0.0633
  546MOL0     N73626   8.722   8.602  10.063 -0.6288  0.5435  0.1900
  546MOL0     N73627   8.822   8.527  10.113  0.9264 -0.0245  0.4055
  546MOL0     C73628   9.568   7.752  10.440  0.4946 -0.0762  0.0998
  546MOL0     C73629   9.595   7.637  10.517 -0.4650 -0.2785 -0.3072
  546MOL0     C73630   9.463   7.288  10.836 -0.1153  0.9039 -0.3451
  546MOL0     C73631   9.602   7.251  10.841  0.1631  0.8355 -0.3468
  546MOL0     C73632   9.640   7.168  10.944  0.6037  0.2205  1.3701
  546MOL0     C73633   9.539   7.094  11.022 -1.1612 -0.2863  0.5324
  546MOL0     O73634   9.567   7.013  11.120  0.2062  0.0099  0.1443
  546MOL0     C73635   9.703   7.023  11.176  0.2886 -0.1230 -0.1392
  546MOL0     C73636   9.709   6.952  11.315  0.0499 -0.3126 -0.3378
  546MOL0     C73637   9.602   7.014  11.414  0.2057  0.5244 -0.4073
  546MOL0     C73638   9.510   6.896  11.447  0.0702  0.0361 -0.8246
  546MOL0     C73639   9.564   6.830  11.570 -0.0688  0.3962  0.0702
  546MOL0     C73640   9.645   6.778  11.650  0.8964  0.2104 -0.2214
  546MOL0     C73641   9.404   7.114  11.003 -0.3098  0.4340  0.0440
  546MOL0     C73642   9.368   7.215  10.910  0.5881  0.7953 -0.2199
  546MOL0     H73643   9.335   7.682  10.742  0.6383  0.8763  0.5334
  546MOL0     H73644   9.313   7.881  10.616  1.2971 -0.1601  2.1999
  546MOL0     H73645   9.624   8.067  10.508 -0.3773  2.7722  0.6537
  546MOL0     H73646   9.632   7.998  10.335 -1.0208 -0.5890 -0.6160
  546MOL0     H73647   9.448   8.226  10.411  0.9205 -0.6663  1.0141
  546MOL0     H73648   9.618   8.255  10.389 -1.5903  2.5205  0.9374
  546MOL0     H73649   9.585   8.127  10.164 -2.0311 -2.9605  0.2369
  546MOL0     H73650   9.417   8.121  10.192 -0.4193  1.5387 -0.3550
  546MOL0     H73651   9.560   8.380  10.195  0.3037  0.1138 -0.1685
  546MOL0     H73652   9.483   8.307  10.046  0.2749 -1.4422 -0.2439
  546MOL0     H73653   9.325   8.367  10.297 -0.0409 -2.0314  1.1364
  546MOL0     H73654   9.342   8.483  10.175  1.0071  1.4706  3.5097
  546MOL0     H73655   9.246   8.343   9.999  0.0941 -0.5727  0.5229
  546MOL0     H73656   9.205   8.218  10.118  3.2341 -0.9013 -2.9005
  546MOL0     H73657   9.063   8.400  10.241  1.3433 -1.4293  0.0809
  546MOL0     H73658   9.120   8.519  10.121 -0.0513 -0.1468  0.9383
  546MOL0     H73659   8.920   8.283  10.105 -2.4422 -0.6334 -1.0560
  546MOL0     H73660   9.016   8.324   9.960  1.4980 -0.2322  1.4246
  546MOL0     H73661   8.829   8.431   9.798 -1.3071 -0.3434  1.8721
  546MOL0     H73662   8.681   8.698   9.756 -2.0698  2.5856  2.0752
  546MOL0     H73663   8.585   8.550   9.756 -2.8435 -0.0657  1.0680
  546MOL0     H73664   8.560   8.810   9.915  2.2285 -0.2605  0.7355
  546MOL0     H73665   8.461   8.670   9.950 -1.8427 -0.8103 -2.4920
  546MOL0     H73666   8.310   8.737   9.798  0.7652  1.0835  2.6416
  546MOL0     H73667   8.406   8.659   9.684 -1.4949  1.1862 -0.9624
  546MOL0     H73668   8.516   8.869   9.605 -0.3416 -2.0741 -1.3075
  546MOL0     H73669   8.444   8.948   9.748  0.0835 -2.5855  2.3319
  546MOL0     H73670   8.150   8.903   9.407 -2.2862  0.0175 -0.6754
  546MOL0     H73671   8.049   8.971   9.216  1.5329 -0.4440  0.3984
  546MOL0     H73672   7.995   9.141   9.247  1.1842  0.7474  0.0697
  546MOL0     H73673   8.096   9.110   9.112  0.3959  0.1113 -0.2233
  546MOL0     H73674   8.418   9.613   9.339  1.6650  2.0845  0.7359
  546MOL0     H73675   8.378   9.854   9.246 -3.1143  0.1027 -0.6632
  546MOL0     H73676   8.161   9.948   9.092  0.2877 -1.2327 -0.1167
  546MOL0     H73677   8.301  10.045   9.135 -2.6940 -1.0287  2.9877
  546MOL0     H73678   8.273  10.167   8.917 -1.8307  1.1156 -2.3406
  546MOL0     H73679   8.135  10.066   8.877 -2.2488  1.9042  0.4174
  546MOL0     H73680   8.117  10.225   9.126  1.6903 -1.1985  1.1348
  546MOL0     H73681   7.996  10.125   9.031  0.2403  1.2230 -0.0213
  546MOL0     H73682   8.137  10.357   8.913  1.2319  1.1574  2.7907
  546MOL0     H73683   7.985  10.273   8.852  0.4977 -1.1938  0.1515
  546MOL0     H73684   7.946  10.494   9.008  3.4316 -1.1099 -3.8914
  546MOL0     H73685   7.997  10.376   9.129  1.9200  0.0202 -0.9298
  546MOL0     H73686   7.780  10.238   9.081  4.2461 -0.0888  0.3188
  546MOL0     H73687   7.739  10.405   9.097 -0.6411 -1.1340  0.5414
  546MOL0     H73688   7.781  10.285   8.823 -3.6103 -0.8325 -1.0312
  546MOL0     H73689   7.749  10.455   8.862 -1.7946  1.7450  3.7244
  546MOL0     H73690   7.523  10.401   8.920  0.6978 -0.4847  3.1277
  546MOL0     H73691   7.559  10.229   8.939  0.9580 -1.3544 -0.2079
  546MOL0     H73692   8.367   9.683   8.851 -1.4622 -1.1328 -0.4801
  546MOL0     H73693   8.389   9.463   8.941  4.6411  0.7782 -1.1999
  546MOL0     H73694   8.446   9.301   9.427  0.2956  0.4508 -3.4543
  546MOL0     H73695   8.474   9.113   9.591 -0.3815 -0.7335  0.6052
  546MOL0     H73696   9.610   7.761  10.340  1.7104  0.1406  0.6166
  546MOL0     H73697   9.678   7.572  10.492  0.3607  0.8235 -0.5071
  546MOL0     H73698   9.678   7.316  10.799 -0.1652  1.5483  0.1330
  546MOL0     H73699   9.744   7.141  10.954  0.3777 -0.7853  1.1971
  546MOL0     H73700   9.780   6.990  11.105 -0.1909  1.4884 -1.4874
  546MOL0     H73701   9.721   7.130  11.194 -0.0095 -0.4442  2.4657
  546MOL0     H73702   9.799   6.989  11.366 -2.5662  2.5790  2.6016
  546MOL0     H73703   9.703   6.843  11.304 -1.6422 -0.0863 -2.0556
  546MOL0     H73704   9.542   7.093  11.366 -1.4786  1.5111  3.0218
  546MOL0     H73705   9.644   7.065  11.501 -0.3595  0.4932 -0.1148
  546MOL0     H73706   9.507   6.826  11.363 -0.8714 -0.2633 -0.5528
  546MOL0     H73707   9.408   6.937  11.447  0.4247  0.9821 -1.8338
  546MOL0     H73708   9.729   6.737  11.703  0.5521 -2.8820 -1.9022
  546MOL0     H73709   9.327   7.065  11.061 -0.2680 -1.1877 -1.2124
  546MOL0     H73710   9.266   7.251  10.895  0.6593  1.2357  0.3206
  547MOL0     O73711   5.440  11.361   0.552  0.8811  0.0352 -0.0115
  547MOL0     C73712   5.545  11.429   0.563 -0.1062  0.3184  0.4769
  547MOL0     O73713   5.557  11.565   0.617 -0.5468  0.8460 -0.0808
  547MOL0     C73714   5.437  11.630   0.630  0.1667  0.9173 -1.0886
  547MOL0     C73715   5.351  11.668   0.523  0.8089 -0.0303  0.0716
  547MOL0     C73716   5.232  11.744   0.544 -0.6413  0.1461 -0.3406
  547MOL0     C73717   5.200  11.779   0.687  0.1945  0.3367 -1.0596
  547MOL0     O73718   5.087  11.848   0.726 -0.2749 -0.8328  0.1118
  547MOL0     C73719   4.965  11.824   0.657 -0.4239  0.1794  0.4890
  547MOL0     C73720   4.856  11.891   0.740  0.3828 -0.3485  0.1200
  547MOL0     C73721   4.863  11.838   0.890  0.6343  0.5636 -1.0554
  547MOL0     C73722   4.729  11.826   0.954 -0.5160  0.3198 -0.0863
  547MOL0     C73723   4.740  11.857   1.103 -0.1569 -0.3859  0.9517
  547MOL0     C73724   4.626  11.780   1.177 -0.0867 -1.1074  0.6933
  547MOL0     C73725   4.597  11.835   1.307  0.3928 -0.4271 -0.9102
  547MOL0     C73726   4.487  11.752   1.368 -0.7035  0.3060  0.9359
  547MOL0     N73727   4.424  11.822   1.486  0.0880 -0.2749  0.2656
  547MOL0     C73728   4.486  11.869   1.592 -0.1090 -1.1980 -0.4660
  547MOL0     C73729   4.388  11.929   1.661  0.5286 -0.9108  0.0843
  547MOL0     C73730   4.388  11.979   1.804 -0.7276 -0.1116  0.1659
  547MOL0     C73731   4.461  12.116   1.815 -0.3498 -0.6451  0.0716
  547MOL0     C73732   4.396  12.238   1.742 -0.2613  0.1546 -0.5856
  547MOL0     C73733   4.286  12.304   1.820  0.2479  0.2014 -0.1528
  547MOL0     O73734   4.332  12.354   1.950 -0.4542  0.2415  1.1361
  547MOL0     C73735   4.404  12.478   1.953  0.3814  0.5134  0.4771
  547MOL0     C73736   4.452  12.522   2.072 -0.0619 -0.4248 -0.6088
  547MOL0     C73737   4.538  12.644   2.090  0.3360 -0.8069 -0.3283
  547MOL0     C73738   4.599  12.658   2.228 -0.2507 -0.4208  0.3197
  547MOL0     C73739   4.562  12.717   1.971 -0.3932  0.2073  0.6605
  547MOL0     C73740   4.646  12.844   1.958  0.0458 -0.5618  0.4960
  547MOL0     O73741   4.658  12.902   1.832  0.1239 -0.6976 -0.3440
  547MOL0     C73742   4.768  12.984   1.809  1.1366  0.2825 -0.1578
  547MOL0     C73743   4.750  13.123   1.780  0.7284 -0.1621 -0.4682
  547MOL0     C73744   4.861  13.214   1.776 -0.5854 -0.0271 -1.1612
  547MOL0     C73745   4.984  13.159   1.793 -0.4700 -0.2018  0.7234
  547MOL0     O73746   5.094  13.246   1.786 -0.2495 -0.1722 -0.0349
  547MOL0     C73747   5.080  13.349   1.680 -0.3514 -0.8833 -0.1499
  547MOL0     C73748   5.207  13.433   1.663 -0.0752 -0.0807  0.3433
  547MOL0     C73749   5.171  13.547   1.574  0.3037 -0.2739  0.7625
  547MOL0     C73750   5.285  13.664   1.582  0.1855  0.4405  0.7636
  547MOL0     C73751   5.263  13.782   1.489 -0.3059 -0.7928 -0.4446
  547MOL0     C73752   5.387  13.871   1.479  0.6421 -1.0164 -0.7802
  547MOL0     C73753   5.381  13.977   1.362  0.1169  0.6154  1.1710
  547MOL0     C73754   5.485  14.084   1.373 -0.0448  0.2186 -0.1508
  547MOL0    Cl73755   5.472  14.146   1.534  0.3095 -0.2521  0.2902
  547MOL0     C73756   5.013  13.017   1.812  0.3941  0.3471 -0.0493
  547MOL0     C73757   4.899  12.932   1.831 -0.9892 -0.2375  2.2126
  547MOL0     O73758   4.701  12.886   2.058  0.9145 -0.4465 -0.8718
  547MOL0     C73759   4.514  12.665   1.852 -0.2652 -0.7674  0.2901
  547MOL0     C73760   4.435  12.551   1.845 -0.4602  0.0381  0.5580
  547MOL0     N73761   4.268  11.914   1.609  0.1380 -0.0893 -0.2194
  547MOL0     N73762   4.291  11.847   1.500  0.5136  0.0896  0.5296
  547MOL0     C73763   5.284  11.738   0.787  0.1487  0.5707  0.6002
  547MOL0     C73764   5.395  11.657   0.762  0.9573  0.5090 -1.0164
  547MOL0     C73765   5.675  11.357   0.521  0.0241  0.8738 -0.4567
  547MOL0     C73766   5.657  11.225   0.472 -0.0562 -0.8084 -0.2667
  547MOL0     C73767   5.773  11.164   0.431 -0.2510 -0.0427 -0.1966
  547MOL0     C73768   5.898  11.216   0.461  0.1656  0.3438  0.7862
  547MOL0     O73769   6.018  11.155   0.426 -0.2270 -0.1415 -0.1180
  547MOL0     C73770   6.068  11.033   0.478 -0.0871  0.7856  0.2038
  547MOL0     C73771   6.215  11.019   0.424  1.0735 -0.3514  0.1082
  547MOL0     C73772   6.231  10.975   0.271  1.1178  0.1399 -0.3683
  547MOL0     C73773   6.192  11.087   0.178  0.1608 -0.2390 -0.3335
  547MOL0     C73774   6.139  11.032   0.053 -0.5041  0.4535  0.3819
  547MOL0     C73775   6.093  10.976  -0.042  0.8681 -0.9086  0.4443
  547MOL0     C73776   5.907  11.342   0.514  0.1180  0.0375  0.3988
  547MOL0     C73777   5.798  11.416   0.539  0.5777  0.5674 -0.2909
  547MOL0     H73778   5.380  11.637   0.423  1.0943 -0.1732  0.1954
  547MOL0     H73779   5.167  11.774   0.463 -0.4073 -1.0916 -0.9986
  547MOL0     H73780   4.969  11.861   0.555  2.9853  1.4559  0.9374
  547MOL0     H73781   4.954  11.716   0.642  0.0194  0.3120 -0.8941
  547MOL0     H73782   4.884  11.996   0.747  1.0997 -0.3133 -2.2660
  547MOL0     H73783   4.759  11.883   0.689  0.8336  0.4810 -0.8981
  547MOL0     H73784   4.900  11.736   0.903 -1.2402 -0.1075 -0.6664
  547MOL0     H73785   4.919  11.913   0.946 -1.1810 -0.2519  2.0898
  547MOL0     H73786   4.661  11.900   0.911 -1.1881 -0.6101 -0.6523
  547MOL0     H73787   4.684  11.729   0.936 -0.6305 -0.1698  2.5185
  547MOL0     H73788   4.842  11.837   1.138  1.0022 -2.2128 -2.8740
  547MOL0     H73789   4.718  11.961   1.127 -2.8230 -0.3069 -1.2501
  547MOL0     H73790   4.533  11.795   1.120  0.7178  2.3723  0.0461
  547MOL0     H73791   4.651  11.674   1.190  0.2956 -0.9669  1.1248
  547MOL0     H73792   4.685  11.830   1.372  0.2180 -0.7016 -0.6923
  547MOL0     H73793   4.554  11.935   1.303  1.8713  0.2066 -2.1899
  547MOL0     H73794   4.521  11.659   1.416 -2.2201 -0.6559  0.2075
  547MOL0     H73795   4.407  11.720   1.301 -0.3212  2.4853 -0.6583
  547MOL0     H73796   4.592  11.865   1.617 -0.2721 -0.4992  0.3945
  547MOL0     H73797   4.295  11.980   1.862  1.2952  1.8964  3.7765
  547MOL0     H73798   4.459  11.918   1.860  0.3908  1.7602  0.8858
  547MOL0     H73799   4.563  12.109   1.776  0.1539  0.5294  1.1211
  547MOL0     H73800   4.472  12.135   1.922  0.5346  0.8272 -0.2586
  547MOL0     H73801   4.377  12.223   1.635 -0.7837 -0.5849 -0.4007
  547MOL0     H73802   4.477  12.310   1.727  0.5235  0.0751  2.5828
  547MOL0     H73803   4.206  12.231   1.838 -0.5824  1.7136  3.2090
  547MOL0     H73804   4.237  12.387   1.768  0.7771  2.0612  2.1390
  547MOL0     H73805   4.438  12.476   2.170  0.6900  2.7858  1.1448
  547MOL0     H73806   4.703  12.628   2.216  0.2332  2.0580 -3.0140
  547MOL0     H73807   4.602  12.761   2.266  3.0905 -0.5778  0.7367
  547MOL0     H73808   4.550  12.588   2.297 -1.7724 -0.1747 -0.4667
  547MOL0     H73809   4.645  13.145   1.771  0.4933 -1.3024 -0.7523
  547MOL0     H73810   4.845  13.321   1.784  0.2977  0.0372 -0.0717
  547MOL0     H73811   5.045  13.311   1.583  2.3149 -2.1877 -0.6854
  547MOL0     H73812   4.999  13.419   1.701  1.1330  0.0804  2.9283
  547MOL0     H73813   5.234  13.473   1.761 -0.5720  0.4634  0.2636
  547MOL0     H73814   5.287  13.371   1.622 -1.5423 -3.5706  2.2293
  547MOL0     H73815   5.075  13.598   1.587  0.6207  0.6169 -0.2238
  547MOL0     H73816   5.175  13.507   1.472  1.6613 -0.4421  0.8747
  547MOL0     H73817   5.306  13.692   1.686 -2.0224 -0.5026  1.5144
  547MOL0     H73818   5.375  13.610   1.550 -0.6833 -1.9658  2.0983
  547MOL0     H73819   5.184  13.849   1.525  1.4967  0.2074  1.9320
  547MOL0     H73820   5.236  13.748   1.388  0.9632  1.0012 -1.4603
  547MOL0     H73821   5.404  13.910   1.580 -0.7769  1.9658 -1.5803
  547MOL0     H73822   5.473  13.806   1.460  3.8057  1.5680  3.1525
  547MOL0     H73823   5.280  14.018   1.376 -0.4283 -1.3548  3.6911
  547MOL0     H73824   5.374  13.942   1.258 -3.4516 -2.5681  2.2534
  547MOL0     H73825   5.463  14.164   1.303  1.8230  0.2911 -0.7103
  547MOL0     H73826   5.589  14.052   1.359  0.0125 -0.3688  1.3985
  547MOL0     H73827   5.110  12.974   1.834 -0.1874 -0.8077  0.3809
  547MOL0     H73828   4.923  12.832   1.863  0.8615 -0.5943  0.0269
  547MOL0     H73829   4.524  12.724   1.761  2.7226  1.1909  1.7331
  547MOL0     H73830   4.406  12.516   1.747 -1.2558  0.9616  0.4411
  547MOL0     H73831   5.252  11.757   0.889  0.8266 -0.4157  1.0143
  547MOL0     H73832   5.447  11.632   0.854 -1.0323 -0.8411 -0.1755
  547MOL0     H73833   5.560  11.180   0.455 -0.0250 -0.9281 -0.1250
  547MOL0     H73834   5.776  11.065   0.388  2.4280  0.3066 -1.0137
  547MOL0     H73835   6.063  11.035   0.587 -0.9348  2.2687  0.1645
  547MOL0     H73836   6.008  10.948   0.444 -0.1602  1.1049 -0.4821
  547MOL0     H73837   6.258  10.934   0.478 -0.4085 -1.5434 -0.5129
  547MOL0     H73838   6.262  11.116   0.445 -0.1352 -0.4739  4.3776
  547MOL0     H73839   6.155  10.899   0.249 -1.0199  1.9428  0.3726
  547MOL0     H73840   6.326  10.925   0.247 -0.1754 -2.1083 -1.1754
  547MOL0     H73841   6.272  11.157   0.154 -1.9490  2.5781  0.3232
  547MOL0     H73842   6.116  11.153   0.220  1.6131  0.5496  1.1645
  547MOL0     H73843   6.058  10.939  -0.136  3.5067 -1.8208 -0.2528
  547MOL0     H73844   6.002  11.390   0.539  1.2515 -1.0657 -1.5468
  547MOL0     H73845   5.817  11.517   0.574 -0.8136  0.1955  1.7461
  548MOL0     O73846   6.758   1.222   9.510  0.1253 -0.2918  0.1600
  548MOL0     C73847   6.760   1.233   9.389  0.9221 -0.2078  0.1906
  548MOL0     O73848   6.653   1.276   9.312  0.3601 -0.1357 -0.2299
  548MOL0     C73849   6.520   1.274   9.357  0.0205 -0.5096  0.1279
  548MOL0     C73850   6.467   1.246   9.483  0.0771  0.7270  0.1251
  548MOL0     C73851   6.333   1.263   9.511 -0.7910  0.8683 -0.0694
  548MOL0     C73852   6.247   1.309   9.416 -0.9894  0.7254 -0.1102
  548MOL0     O73853   6.118   1.325   9.460 -0.2444 -0.4857 -0.6008
  548MOL0     C73854   6.020   1.370   9.374  0.4806 -0.6081 -0.0613
  548MOL0     C73855   5.892   1.380   9.444  0.0419 -0.5428 -0.5103
  548MOL0     C73856   5.863   1.512   9.510  1.0498 -0.0700 -0.5521
  548MOL0     C73857   5.739   1.501   9.606 -0.4363  0.7436  0.0203
  548MOL0     C73858   5.609   1.445   9.548 -1.1398 -0.3805 -0.2154
  548MOL0     C73859   5.486   1.500   9.613 -0.6074  0.1730  0.1741
  548MOL0     C73860   5.462   1.422   9.739 -0.1936 -0.5249  0.3053
  548MOL0     C73861   5.357   1.505   9.818  0.3083  0.1497 -0.2140
  548MOL0     N73862   5.220   1.505   9.774 -0.7416 -0.3679 -1.0301
  548MOL0     C73863   5.160   1.618   9.726  0.5253 -0.9878  0.2886
  548MOL0     C73864   5.031   1.585   9.703 -0.8795  0.5953 -1.4748
  548MOL0     C73865   4.926   1.683   9.653 -0.4930 -0.2554 -0.0220
  548MOL0     C73866   4.807   1.709   9.753  0.4168 -0.6865  0.2109
  548MOL0     C73867   4.686   1.735   9.662 -0.5477  0.4925  0.2821
  548MOL0     C73868   4.548   1.751   9.725  0.2510  0.0448 -0.1876
  548MOL0     O73869   4.560   1.846   9.832 -0.1388  0.3336  0.8737
  548MOL0     C73870   4.438   1.899   9.893  0.4159 -0.8549 -0.4830
  548MOL0     C73871   4.309   1.861   9.863  0.9099 -0.4406  0.2497
  548MOL0     C73872   4.207   1.909   9.937  0.8345 -0.0824  0.7249
  548MOL0     C73873   4.067   1.863   9.895 -0.2167  0.3763 -0.3114
  548MOL0     C73874   4.225   1.997  10.046 -0.0424 -0.5029  0.2822
  548MOL0     C73875   4.119   2.046  10.139  0.2510  0.0124  0.5036
  548MOL0     O73876   4.133   2.172  10.198  0.3969 -0.1851 -0.3248
  548MOL0     C73877   4.070   2.186  10.314  0.3284 -0.7515 -0.5585
  548MOL0     C73878   4.120   2.132  10.431  0.0296  0.1537  0.9496
  548MOL0     C73879   4.054   2.159  10.552  0.4084  0.2417  0.1427
  548MOL0     C73880   3.940   2.233  10.563 -0.5930  1.2317  0.5341
  548MOL0     O73881   3.902   2.260  10.690  0.1814  0.0027 -0.1752
  548MOL0     C73882   3.761   2.295  10.710  0.4794  0.0482  0.9667
  548MOL0     C73883   3.717   2.323  10.856  0.6190 -0.6600  0.5625
  548MOL0     C73884   3.813   2.407  10.941  0.1366  0.9024 -0.2818
  548MOL0     C73885   3.806   2.551  10.890 -0.4466 -0.1210  0.6587
  548MOL0     C73886   3.920   2.591  10.786  0.0593  0.5293  0.0407
  548MOL0     C73887   3.917   2.739  10.763 -0.5200 -0.3923 -0.4662
  548MOL0     C73888   3.985   2.813  10.883 -0.0815 -0.5809 -0.6412
  548MOL0     C73889   4.006   2.957  10.862  0.4125 -0.0927  0.9888
  548MOL0    Cl73890   4.137   3.040  10.962 -0.2198  0.1895  0.0031
  548MOL0     C73891   3.898   2.301  10.445  0.1664 -0.0074 -0.4997
  548MOL0     C73892   3.961   2.269  10.322  0.2683  0.1043 -0.2433
  548MOL0     O73893   4.036   1.964  10.172  0.7751  0.5087 -0.0023
  548MOL0     C73894   4.355   2.039  10.072 -0.0682 -0.4586 -0.7928
  548MOL0     C73895   4.462   1.994   9.997  0.3556  0.1722 -0.0720
  548MOL0     N73896   5.027   1.443   9.735  0.1922 -1.0785  0.4040
  548MOL0     N73897   5.135   1.402   9.784  0.5238  0.2279  0.2991
  548MOL0     C73898   6.300   1.355   9.299 -0.1259  0.2460 -0.2280
  548MOL0     C73899   6.439   1.342   9.269  0.5589 -0.7827  0.4624
  548MOL0     C73900   6.885   1.211   9.325 -0.9594 -0.7713 -0.2472
  548MOL0     C73901   7.009   1.218   9.387 -0.5739 -0.1895  0.1090
  548MOL0     C73902   7.122   1.173   9.319 -0.2404  0.8563  0.6216
  548MOL0     C73903   7.111   1.123   9.188 -0.4689 -0.7047  0.8362
  548MOL0     O73904   7.227   1.099   9.123 -0.0228  0.8354 -0.5328
  548MOL0     C73905   7.238   0.965   9.082  0.2708 -0.0647 -0.6372
  548MOL0     C73906   7.381   0.910   9.066  0.4928 -0.3847 -0.1010
  548MOL0     C73907   7.399   0.759   9.062  0.6477  0.5803  0.0681
  548MOL0     C73908   7.403   0.697   9.204  1.0835 -0.2997  0.0918
  548MOL0     C73909   7.408   0.549   9.183 -0.6379  0.0594 -0.5545
  548MOL0     C73910   7.397   0.436   9.143 -0.0480 -0.4030  0.1960
  548MOL0     C73911   6.987   1.133   9.121  0.0003  0.0475 -0.2531
  548MOL0     C73912   6.875   1.172   9.193  0.2585 -0.1050 -0.0794
  548MOL0     H73913   6.538   1.227   9.563  1.6746  0.3184 -1.3449
  548MOL0     H73914   6.293   1.247   9.611 -0.6605  0.9114 -0.0108
  548MOL0     H73915   6.050   1.470   9.339 -5.3170  1.3305 -0.5282
  548MOL0     H73916   6.012   1.300   9.290 -0.8714  1.2822 -1.6219
  548MOL0     H73917   5.811   1.370   9.371 -0.9248 -1.4406  0.6414
  548MOL0     H73918   5.880   1.300   9.518  2.7768  1.0251  1.8678
  548MOL0     H73919   5.949   1.552   9.565  1.0185  2.3573 -2.1443
  548MOL0     H73920   5.832   1.596   9.447  0.5331  2.0566  2.3220
  548MOL0     H73921   5.777   1.441   9.690 -0.2775 -0.3112 -0.7694
  548MOL0     H73922   5.723   1.596   9.656  0.8606  0.3084  1.3531
  548MOL0     H73923   5.606   1.489   9.448 -0.0347  0.7365  0.2268
  548MOL0     H73924   5.606   1.335   9.548 -4.0263 -0.3885  0.8944
  548MOL0     H73925   5.506   1.604   9.639 -3.4724  0.2862  2.3885
  548MOL0     H73926   5.401   1.498   9.544 -0.8463  0.3418  0.4562
  548MOL0     H73927   5.426   1.320   9.724 -1.2120 -0.3923  1.6572
  548MOL0     H73928   5.555   1.409   9.796  0.7245 -1.5416 -1.3423
  548MOL0     H73929   5.388   1.608   9.841 -0.9058  0.1239  1.7447
  548MOL0     H73930   5.345   1.455   9.915 -2.5639 -1.0406 -1.0706
  548MOL0     H73931   5.194   1.721   9.722  4.7480 -2.1804  0.9062
  548MOL0     H73932   4.968   1.784   9.641  3.7265 -1.5155  2.0419
  548MOL0     H73933   4.897   1.646   9.555  0.5937  1.8700 -1.2125
  548MOL0     H73934   4.826   1.806   9.800  0.2615  2.0529 -4.6322
  548MOL0     H73935   4.804   1.630   9.828 -1.8642  0.3152  1.2996
  548MOL0     H73936   4.678   1.647   9.598  2.0313 -0.1538  0.7299
  548MOL0     H73937   4.700   1.822   9.598 -0.8147  0.3562  0.0365
  548MOL0     H73938   4.512   1.655   9.764 -1.0168  1.7902  3.4211
  548MOL0     H73939   4.485   1.786   9.642 -1.7940 -0.0963  1.2410
  548MOL0     H73940   4.297   1.790   9.782  0.1757 -0.9928  0.8277
  548MOL0     H73941   4.055   1.762   9.936 -1.3877  0.5972 -0.0580
  548MOL0     H73942   3.980   1.925   9.915 -0.0803  1.0666 -1.7747
  548MOL0     H73943   4.063   1.859   9.786  0.5872  1.0352 -0.3749
  548MOL0     H73944   4.219   2.087  10.427  0.5316  1.3350 -0.6026
  548MOL0     H73945   4.095   2.127  10.647 -1.3981 -3.5772 -0.1803
  548MOL0     H73946   3.729   2.388  10.662  3.2195  1.8098  2.2459
  548MOL0     H73947   3.698   2.211  10.680  2.9316 -1.3681 -0.5875
  548MOL0     H73948   3.615   2.363  10.849  0.4580 -1.3240 -3.2947
  548MOL0     H73949   3.692   2.227  10.903  0.3535 -0.6178  0.5120
  548MOL0     H73950   3.917   2.375  10.935  1.1128  3.9963 -2.7882
  548MOL0     H73951   3.769   2.403  11.041  0.3545  0.4536 -0.1999
  548MOL0     H73952   3.706   2.578  10.853  0.3582 -2.1306 -3.5990
  548MOL0     H73953   3.824   2.617  10.976 -1.0225  0.3641  0.4130
  548MOL0     H73954   3.901   2.548  10.687  2.1628  0.6657 -0.4717
  548MOL0     H73955   4.014   2.551  10.824  0.7790  1.0516 -1.1225
  548MOL0     H73956   3.981   2.748  10.675 -0.6836 -3.6401 -1.0285
  548MOL0     H73957   3.812   2.765  10.750 -1.5257 -1.6841  3.6250
  548MOL0     H73958   4.088   2.776  10.892  0.9987  2.1329 -1.1063
  548MOL0     H73959   3.927   2.799  10.975 -0.8315 -0.2359 -1.0571
  548MOL0     H73960   3.908   3.003  10.875 -1.0420 -1.7226 -2.8359
  548MOL0     H73961   4.025   2.976  10.756  2.8001 -0.0787  1.3620
  548MOL0     H73962   3.814   2.370  10.455 -0.0865 -0.0257 -2.1805
  548MOL0     H73963   3.911   2.308  10.234 -0.4117  2.4002  1.0601
  548MOL0     H73964   4.376   2.099  10.161 -0.5469 -2.4851  0.7542
  548MOL0     H73965   4.566   2.022  10.010  0.9010  1.4834 -4.9310
  548MOL0     H73966   6.235   1.389   9.219  1.8646  2.2440 -1.0914
  548MOL0     H73967   6.466   1.380   9.170  1.0435 -0.1284  0.8365
  548MOL0     H73968   7.022   1.253   9.489 -2.8098  3.2477 -0.6121
  548MOL0     H73969   7.215   1.190   9.372  0.2217  1.7954 -0.4406
  548MOL0     H73970   7.184   0.895   9.147  1.6766 -1.3682 -0.8059
  548MOL0     H73971   7.196   0.962   8.981  2.8219  2.3777 -1.8909
  548MOL0     H73972   7.448   0.962   9.136  2.4439  0.1033 -2.1942
  548MOL0     H73973   7.425   0.941   8.971  0.6962 -1.8954 -0.5141
  548MOL0     H73974   7.491   0.727   9.013  0.5672  1.5653 -0.7575
  548MOL0     H73975   7.312   0.728   9.004  0.6929  0.6115 -0.0160
  548MOL0     H73976   7.311   0.721   9.258 -1.3285 -2.9752 -2.4664
  548MOL0     H73977   7.493   0.725   9.259  1.7169 -0.5111 -0.8360
  548MOL0     H73978   7.408   0.332   9.121  0.2889 -0.5669  1.1014
  548MOL0     H73979   6.976   1.100   9.018  0.0737 -2.4624  0.4684
  548MOL0     H73980   6.780   1.164   9.141  0.3080  2.5793 -0.7113
  549MOL0     O73981   0.356   4.084   7.846 -0.3338 -0.8427  0.0078
  549MOL0     C73982   0.442   4.005   7.881  0.7314 -0.3197 -0.2624
  549MOL0     O73983   0.495   3.898   7.813  0.6522  0.0085  0.2749
  549MOL0     C73984   0.422   3.834   7.712 -0.1064 -0.1547  0.4008
  549MOL0     C73985   0.281   3.828   7.706 -0.3035  0.7343  0.1845
  549MOL0     C73986   0.218   3.763   7.594  0.7014  0.5925  0.3904
  549MOL0     C73987   0.300   3.700   7.505 -0.5637 -0.0337  0.5081
  549MOL0     O73988   0.242   3.636   7.404  0.4708 -0.2945 -0.1994
  549MOL0     C73989   0.269   3.500   7.404  0.2323  0.2766 -1.2687
  549MOL0     C73990   0.138   3.416   7.393  0.3447  0.2734  0.1292
  549MOL0     C73991   0.070   3.371   7.514  0.0523  1.1400 -0.5452
  549MOL0     C73992  -0.083   3.397   7.521 -0.8906  1.2394  0.3461
  549MOL0     C73993  -0.157   3.342   7.643  0.2702  0.4470  1.1229
  549MOL0     C73994  -0.182   3.186   7.638 -0.1269  0.6683 -0.2181
  549MOL0     C73995  -0.281   3.139   7.742 -0.4260 -0.0023  0.0673
  549MOL0     C73996  -0.223   3.109   7.880  0.6486 -1.0841  0.1576
  549MOL0     N73997  -0.324   3.042   7.955 -1.3217  0.3808  0.1047
  549MOL0     C73998  -0.403   3.113   8.042  0.3052  0.6538 -0.2753
  549MOL0     C73999  -0.497   3.027   8.085 -0.2293  0.6438  0.5562
  549MOL0     C74000  -0.605   3.055   8.176  0.3259 -0.5678 -0.3995
  549MOL0     C74001  -0.738   2.965   8.142  0.2571 -1.7032 -0.3688
  549MOL0     C74002  -0.759   2.833   8.217 -0.2480  0.0563 -0.5728
  549MOL0     C74003  -0.792   2.850   8.367  1.0859 -0.7533 -0.2894
  549MOL0     O74004  -0.910   2.927   8.370  0.6876  0.1229 -1.0399
  549MOL0     C74005  -1.016   2.869   8.430 -0.0420 -1.2617  1.5728
  549MOL0     C74006  -1.098   2.787   8.358  0.3541  0.2312  0.3433
  549MOL0     C74007  -1.208   2.719   8.422  0.0157 -0.0688  0.8837
  549MOL0     C74008  -1.263   2.599   8.352  0.2223 -0.5884  0.3900
  549MOL0     C74009  -1.232   2.749   8.560 -0.2233 -0.5589 -0.9225
  549MOL0     C74010  -1.338   2.676   8.652  0.1398  0.3701  0.8854
  549MOL0     O74011  -1.345   2.710   8.783 -0.5169 -0.5550  0.3864
  549MOL0     C74012  -1.432   2.651   8.864 -0.9002  1.0403  0.2378
  549MOL0     C74013  -1.441   2.510   8.864  0.0733  1.2195 -0.3828
  549MOL0     C74014  -1.500   2.447   8.974  0.4030 -0.6034  0.2577
  549MOL0     C74015  -1.558   2.520   9.082 -0.2993  0.5797 -0.0720
  549MOL0     O74016  -1.611   2.454   9.189  0.4833  1.5610  0.2918
  549MOL0     C74017  -1.747   2.408   9.158 -0.4795 -0.4641 -0.0326
  549MOL0     C74018  -1.755   2.252   9.139  0.0790 -0.6962 -0.8642
  549MOL0     C74019  -1.695   2.180   9.266 -0.5982  0.1004  1.0994
  549MOL0     C74020  -1.721   2.028   9.256  0.2426 -0.1947  0.2934
  549MOL0     C74021  -1.684   1.953   9.389 -0.0080 -0.2834 -0.5718
  549MOL0     C74022  -1.532   1.969   9.443  0.4034 -0.4669  0.3240
  549MOL0     C74023  -1.514   1.867   9.556  0.1513 -0.3073  0.3763
  549MOL0     C74024  -1.379   1.902   9.615 -0.1025  0.1284  0.2988
  549MOL0    Cl74025  -1.373   2.061   9.705 -0.0294 -0.0959  0.3325
  549MOL0     C74026  -1.547   2.658   9.084  0.8911 -0.2441  0.4330
  549MOL0     C74027  -1.490   2.716   8.967 -0.6155 -0.1203  0.2803
  549MOL0     O74028  -1.406   2.588   8.602 -0.8328 -0.5928 -0.1312
  549MOL0     C74029  -1.154   2.844   8.630  0.4347  0.2169  0.9717
  549MOL0     C74030  -1.051   2.902   8.558 -0.0931  0.4356  0.4122
  549MOL0     N74031  -0.470   2.902   8.019  0.3169 -0.4581 -0.1491
  549MOL0     N74032  -0.362   2.918   7.944  0.0266  0.5913  0.9945
  549MOL0     C74033   0.436   3.690   7.522 -0.7454 -0.1702 -0.4281
  549MOL0     C74034   0.500   3.756   7.631  0.8128  0.3294  0.4214
  549MOL0     C74035   0.500   4.030   8.015  0.0642  0.3190 -0.9726
  549MOL0     C74036   0.437   4.100   8.114 -0.9859  0.3192 -0.0282
  549MOL0     C74037   0.471   4.107   8.253  0.9037  0.7017  1.4003
  549MOL0     C74038   0.583   4.031   8.297  0.3706  0.1054 -0.6656
  549MOL0     O74039   0.620   4.047   8.432  0.2046  0.5560  0.1487
  549MOL0     C74040   0.749   3.999   8.478  0.1857 -0.6526 -0.4632
  549MOL0     C74041   0.770   4.067   8.611 -0.6708  0.5810  0.2348
  549MOL0     C74042   0.915   4.059   8.644  0.4122  0.7614 -0.9478
  549MOL0     C74043   1.009   4.159   8.579  0.4878 -0.7708  0.6440
  549MOL0     C74044   1.143   4.158   8.632  1.0350  0.4071 -0.2961
  549MOL0     C74045   1.257   4.155   8.680  0.3125 -0.1262 -0.2508
  549MOL0     C74046   0.647   3.947   8.202  0.1289 -0.1649 -0.1028
  549MOL0     C74047   0.608   3.946   8.068  0.1339  0.4144 -0.0907
  549MOL0     H74048   0.205   3.841   7.783 -0.4510  0.8854  0.0155
  549MOL0     H74049   0.110   3.747   7.596  1.0394 -2.0223  1.7833
  549MOL0     H74050   0.323   3.488   7.310 -0.7039 -0.8176 -1.6813
  549MOL0     H74051   0.335   3.451   7.477  0.7220 -2.7696 -3.5420
  549MOL0     H74052   0.077   3.487   7.336  0.6375 -0.6175 -1.3547
  549MOL0     H74053   0.153   3.338   7.318 -0.5064  1.0679 -0.8923
  549MOL0     H74054   0.077   3.262   7.517 -0.4603  1.1136  2.2331
  549MOL0     H74055   0.122   3.425   7.594  2.7594 -0.0978 -1.3282
  549MOL0     H74056  -0.089   3.506   7.523 -0.5978  1.2516  1.0837
  549MOL0     H74057  -0.127   3.360   7.428  4.0876 -1.3730 -1.3390
  549MOL0     H74058  -0.122   3.377   7.741 -0.4467  0.2078  1.4683
  549MOL0     H74059  -0.259   3.381   7.649 -0.5978 -1.3460 -1.0747
  549MOL0     H74060  -0.217   3.159   7.538  1.2702  0.6028 -0.7100
  549MOL0     H74061  -0.089   3.130   7.654 -0.2108  0.9871  1.6570
  549MOL0     H74062  -0.368   3.204   7.757  0.4514  1.3339 -0.5006
  549MOL0     H74063  -0.330   3.047   7.709  0.9078  0.3324 -3.1786
  549MOL0     H74064  -0.197   3.206   7.923 -1.0086  0.8861 -2.9579
  549MOL0     H74065  -0.131   3.050   7.881  2.4595  1.5865 -0.3268
  549MOL0     H74066  -0.394   3.216   8.075 -1.7370 -0.3897  4.3093
  549MOL0     H74067  -0.576   3.030   8.279  0.3327  1.2086  0.0697
  549MOL0     H74068  -0.619   3.163   8.186  0.9201 -0.6524  2.0199
  549MOL0     H74069  -0.744   2.951   8.034  0.2926 -1.0451 -0.4632
  549MOL0     H74070  -0.818   3.036   8.168  1.5079 -0.3248 -0.1047
  549MOL0     H74071  -0.669   2.773   8.207  0.7156  1.4349 -0.4211
  549MOL0     H74072  -0.839   2.778   8.166  0.0991 -0.6075 -0.4095
  549MOL0     H74073  -0.715   2.909   8.418 -0.8042  2.6249 -0.9772
  549MOL0     H74074  -0.793   2.748   8.405  0.7871 -1.2392 -1.5492
  549MOL0     H74075  -1.077   2.768   8.253  2.4272  0.0486  0.7519
  549MOL0     H74076  -1.372   2.604   8.364  0.1606  1.3811 -0.6954
  549MOL0     H74077  -1.243   2.597   8.244  1.1247  3.0917  0.3479
  549MOL0     H74078  -1.219   2.510   8.398  0.7921 -0.0499  0.9118
  549MOL0     H74079  -1.395   2.439   8.797 -1.9866  0.1760 -0.7889
  549MOL0     H74080  -1.499   2.338   8.979 -0.7860 -0.6150  0.4363
  549MOL0     H74081  -1.802   2.425   9.251  0.3954  0.1976  0.3779
  549MOL0     H74082  -1.782   2.452   9.064  0.3944  1.5881  0.5436
  549MOL0     H74083  -1.863   2.235   9.139 -0.5671  2.5074 -2.9955
  549MOL0     H74084  -1.712   2.215   9.046 -0.3055 -1.8204 -0.6121
  549MOL0     H74085  -1.741   2.220   9.357  2.4466 -0.1240  2.8690
  549MOL0     H74086  -1.587   2.187   9.286 -0.4422 -1.4979  0.9366
  549MOL0     H74087  -1.827   2.008   9.237 -0.2867  0.8159  1.9652
  549MOL0     H74088  -1.663   1.975   9.180 -1.0214  0.4461 -1.1652
  549MOL0     H74089  -1.688   1.847   9.362  0.4342 -0.0279 -1.7438
  549MOL0     H74090  -1.749   1.972   9.474 -0.0419 -2.9629  0.0793
  549MOL0     H74091  -1.450   1.957   9.372  2.0936  3.7418  1.2619
  549MOL0     H74092  -1.528   2.066   9.494  1.6438 -2.2753  3.9347
  549MOL0     H74093  -1.508   1.762   9.528 -1.1222 -0.5342  0.9093
  549MOL0     H74094  -1.592   1.878   9.632  0.4414  0.5771  0.5632
  549MOL0     H74095  -1.292   1.906   9.549  1.3386 -2.6822  1.8433
  549MOL0     H74096  -1.350   1.829   9.691  1.1232  0.7737  0.4831
  549MOL0     H74097  -1.592   2.715   9.165 -1.3184 -0.6401 -0.4467
  549MOL0     H74098  -1.492   2.823   8.980 -2.0740 -0.2801  1.6888
  549MOL0     H74099  -1.173   2.861   8.736 -0.5108 -3.7509  1.6169
  549MOL0     H74100  -0.986   2.968   8.615  1.4392  0.3218 -1.1001
  549MOL0     H74101   0.486   3.626   7.450 -2.4732 -3.7397  1.3292
  549MOL0     H74102   0.605   3.761   7.656 -0.2533 -0.9099  6.8389
  549MOL0     H74103   0.347   4.152   8.083 -0.2258  1.5317 -0.2918
  549MOL0     H74104   0.406   4.164   8.318 -3.4057 -2.6675  0.5217
  549MOL0     H74105   0.756   3.891   8.490  1.2270 -0.5536 -0.1275
  549MOL0     H74106   0.826   4.023   8.405 -0.4312  1.7813 -0.3993
  549MOL0     H74107   0.718   4.005   8.684  4.3354 -1.3927  2.6649
  549MOL0     H74108   0.749   4.174   8.611  0.8336  0.9516  2.2959
  549MOL0     H74109   0.954   3.958   8.627  0.5712  0.8858 -1.3274
  549MOL0     H74110   0.918   4.072   8.752 -0.1618  1.5830 -1.0210
  549MOL0     H74111   0.965   4.258   8.589  1.1908 -0.5200  1.4376
  549MOL0     H74112   1.021   4.151   8.471 -1.7349  1.7025  0.1302
  549MOL0     H74113   1.359   4.150   8.714 -0.9615  3.0720  5.3742
  549MOL0     H74114   0.732   3.887   8.230  1.1399  1.6950  1.0059
  549MOL0     H74115   0.662   3.881   7.999  2.7625  1.2167  1.1051
  550MOL0     O74116   4.821   5.195   7.998  0.2314 -0.1010  0.3790
  550MOL0     C74117   4.775   5.313   7.996 -0.6083  0.2887  0.0158
  550MOL0     O74118   4.829   5.421   7.930  0.5729  0.2448 -0.1694
  550MOL0     C74119   4.948   5.396   7.872 -0.1467  0.7479 -0.5802
  550MOL0     C74120   4.960   5.342   7.747 -1.0775  0.1956  0.1476
  550MOL0     C74121   5.086   5.303   7.694  0.6751  0.1673  0.4358
  550MOL0     C74122   5.198   5.304   7.777 -0.2889  0.0382  0.3220
  550MOL0     O74123   5.313   5.254   7.731 -0.2227  0.7525 -0.2017
  550MOL0     C74124   5.413   5.203   7.824  0.1460 -0.3865  0.6006
  550MOL0     C74125   5.479   5.073   7.761 -0.2194 -0.7525  0.2229
  550MOL0     C74126   5.608   5.033   7.838 -0.2294  0.0372 -0.9558
  550MOL0     C74127   5.729   5.102   7.782 -0.0432  0.4916  0.7226
  550MOL0     C74128   5.860   5.052   7.850 -0.9938 -0.6246 -0.4727
  550MOL0     C74129   5.985   5.118   7.782  0.1252  0.6654 -0.3068
  550MOL0     C74130   6.120   5.053   7.825  0.2093  0.4653 -0.2690
  550MOL0     C74131   6.244   5.132   7.775 -0.2857 -0.3544  0.2595
  550MOL0     N74132   6.368   5.056   7.767 -0.0260  0.4569  0.0582
  550MOL0     C74133   6.405   4.970   7.662 -0.4722  0.2460 -1.5070
  550MOL0     C74134   6.531   4.927   7.697 -0.3830  0.7575  0.4037
  550MOL0     C74135   6.613   4.844   7.592  0.6095  0.5847  0.7049
  550MOL0     C74136   6.750   4.894   7.559 -0.5202  0.0511  0.0413
  550MOL0     C74137   6.762   5.042   7.497  0.1011 -0.2676 -0.3111
  550MOL0     C74138   6.690   5.061   7.363 -0.2797  0.2122  0.7285
  550MOL0     O74139   6.725   5.187   7.313 -0.1079 -0.0644  0.3347
  550MOL0     C74140   6.831   5.201   7.234 -0.3512  0.0761 -1.7173
  550MOL0     C74141   6.870   5.334   7.216  0.2699 -0.3995  0.5991
  550MOL0     C74142   6.979   5.376   7.134 -0.1739 -0.2701 -1.0201
  550MOL0     C74143   7.006   5.524   7.117  0.2288  1.4734  0.1931
  550MOL0     C74144   7.066   5.275   7.086 -0.4119 -0.9763  0.5790
  550MOL0     C74145   7.199   5.292   7.008  0.9468  0.9445  0.1567
  550MOL0     O74146   7.229   5.396   6.924  1.3536  1.0358  0.1723
  550MOL0     C74147   7.350   5.399   6.871  0.0159  0.1324 -0.1550
  550MOL0     C74148   7.377   5.335   6.752  0.6315  0.3487 -0.0895
  550MOL0     C74149   7.507   5.343   6.704 -0.2449  0.0620 -0.0298
  550MOL0     C74150   7.614   5.418   6.766  0.8054  0.0205 -0.4198
  550MOL0     O74151   7.737   5.424   6.715  0.1270  0.7622  0.3098
  550MOL0     C74152   7.816   5.547   6.700  0.2019  0.1049  0.2034
  550MOL0     C74153   7.752   5.634   6.598  0.0519 -0.9436  0.2143
  550MOL0     C74154   7.801   5.780   6.582 -0.6471  0.1681  0.2608
  550MOL0     C74155   7.938   5.786   6.509  0.1948  0.4103 -0.9936
  550MOL0     C74156   7.969   5.938   6.480  0.4595 -0.8242  0.0645
  550MOL0     C74157   7.970   6.024   6.608 -0.3288  0.7195 -1.2139
  550MOL0     C74158   8.028   6.164   6.580 -0.0583  0.7611  0.4584
  550MOL0     C74159   7.948   6.240   6.474  0.5372  0.1688 -0.5366
  550MOL0    Cl74160   7.990   6.419   6.497 -0.1251  0.4689 -0.2744
  550MOL0     C74161   7.576   5.487   6.883 -0.6906  0.1354 -0.2732
  550MOL0     C74162   7.449   5.473   6.937  0.1054 -0.3695 -1.1152
  550MOL0     O74163   7.278   5.198   7.029 -0.3729  0.6458 -0.4421
  550MOL0     C74164   7.029   5.142   7.117 -0.0560  0.7277  0.8791
  550MOL0     C74165   6.918   5.104   7.188 -0.3952 -0.4650  1.0913
  550MOL0     N74166   6.578   4.985   7.817  0.4026 -0.0674  0.3490
  550MOL0     N74167   6.475   5.063   7.853  0.1563 -1.3224  0.7110
  550MOL0     C74168   5.185   5.369   7.901  0.7617 -0.4561 -1.2730
  550MOL0     C74169   5.060   5.416   7.943 -0.7234  0.0856 -0.6262
  550MOL0     C74170   4.645   5.337   8.063 -0.2982 -0.1358  0.6781
  550MOL0     C74171   4.551   5.229   8.078 -0.2441 -0.3006 -0.4565
  550MOL0     C74172   4.428   5.255   8.135 -0.4699 -0.6604 -0.6966
  550MOL0     C74173   4.389   5.391   8.166 -0.0568  0.8426  0.2916
  550MOL0     O74174   4.270   5.422   8.216  0.1148 -0.7368 -0.1141
  550MOL0     C74175   4.204   5.336   8.315  0.8345  0.2729  0.8260
  550MOL0     C74176   4.096   5.418   8.392 -0.4017  0.0789 -0.0188
  550MOL0     C74177   4.047   5.349   8.515 -0.1911  0.2660  0.1621
  550MOL0     C74178   3.959   5.224   8.488  0.0995  0.5283 -1.0784
  550MOL0     C74179   4.046   5.114   8.460  0.2048  0.6471  0.3517
  550MOL0     C74180   4.127   5.030   8.429 -0.2490 -0.0906 -0.7461
  550MOL0     C74181   4.475   5.494   8.154  0.5819  0.5225  0.7581
  550MOL0     C74182   4.593   5.464   8.091 -0.0381 -0.2108 -0.6466
  550MOL0     H74183   4.867   5.327   7.694 -1.9845  1.2233  1.3756
  550MOL0     H74184   5.095   5.267   7.591  0.9783 -2.4812  1.3170
  550MOL0     H74185   5.483   5.282   7.850  2.1145 -1.6066 -0.6702
  550MOL0     H74186   5.369   5.189   7.923  1.0442  0.3405  1.1252
  550MOL0     H74187   5.397   5.002   7.775 -1.8494  0.7504 -1.2213
  550MOL0     H74188   5.501   5.095   7.656  1.2684  0.9924  0.8402
  550MOL0     H74189   5.605   5.061   7.943 -0.7516 -0.9103 -0.7082
  550MOL0     H74190   5.618   4.925   7.829 -1.1492 -0.2586  1.1194
  550MOL0     H74191   5.728   5.094   7.673  1.0751 -1.0137  0.8008
  550MOL0     H74192   5.727   5.210   7.800 -2.9969  0.3202  2.0043
  550MOL0     H74193   5.853   5.078   7.956 -2.2411 -0.6224 -0.5404
  550MOL0     H74194   5.871   4.944   7.837 -1.3721 -0.9337  1.3968
  550MOL0     H74195   5.977   5.094   7.676 -0.1230 -3.2367  0.4541
  550MOL0     H74196   5.980   5.224   7.808 -2.3619  0.6322 -0.3889
  550MOL0     H74197   6.127   5.050   7.934  0.3905 -0.0981 -0.2905
  550MOL0     H74198   6.115   4.950   7.787 -0.8817 -0.4867  2.2615
  550MOL0     H74199   6.258   5.221   7.837 -0.1489 -0.2867  0.1303
  550MOL0     H74200   6.215   5.171   7.677  1.0931 -0.3112 -0.1490
  550MOL0     H74201   6.352   4.939   7.572 -0.7542  0.2314 -1.3360
  550MOL0     H74202   6.622   4.743   7.632  1.9801  0.0343 -0.8925
  550MOL0     H74203   6.551   4.834   7.503 -1.5037 -0.7912  2.2292
  550MOL0     H74204   6.800   4.830   7.486 -0.1423  4.7991 -4.4280
  550MOL0     H74205   6.809   4.906   7.651  0.6456  1.2090 -0.8136
  550MOL0     H74206   6.869   5.063   7.486  0.1181  2.9048  3.5262
  550MOL0     H74207   6.720   5.113   7.569 -0.7558 -0.2469 -0.8218
  550MOL0     H74208   6.583   5.048   7.383  0.2039 -1.9620  2.3158
  550MOL0     H74209   6.703   4.981   7.291  0.6301  1.9336 -1.1111
  550MOL0     H74210   6.802   5.406   7.260 -0.4411 -0.2351 -0.7226
  550MOL0     H74211   6.922   5.576   7.070 -0.9225 -1.1732 -0.9105
  550MOL0     H74212   7.007   5.559   7.221  5.0190  0.8900  0.5499
  550MOL0     H74213   7.088   5.565   7.058  1.1012  1.2199  1.1916
  550MOL0     H74214   7.293   5.289   6.701 -1.0465  2.1902  0.8503
  550MOL0     H74215   7.536   5.292   6.613  0.4669  2.0998 -1.0102
  550MOL0     H74216   7.829   5.600   6.795 -1.0315  0.5115  0.1697
  550MOL0     H74217   7.915   5.510   6.673  0.4377  1.5696 -1.0770
  550MOL0     H74218   7.777   5.579   6.507  0.3357 -2.3895  1.1352
  550MOL0     H74219   7.645   5.624   6.620  0.2452 -1.9505  0.7237
  550MOL0     H74220   7.802   5.823   6.683 -0.3762 -2.5988  1.5240
  550MOL0     H74221   7.729   5.818   6.509 -0.1461 -3.1789 -2.2324
  550MOL0     H74222   8.023   5.751   6.569  0.5369  1.2488 -0.9762
  550MOL0     H74223   7.933   5.722   6.420 -4.2703 -2.9345  1.2739
  550MOL0     H74224   7.897   5.989   6.417  2.3201  2.9090  0.6447
  550MOL0     H74225   8.064   5.959   6.430 -0.0486 -0.0073 -0.5874
  550MOL0     H74226   7.867   6.037   6.641 -0.0866 -0.6047  0.2237
  550MOL0     H74227   8.029   5.976   6.687  2.2158  1.6094 -2.4623
  550MOL0     H74228   8.135   6.166   6.556 -0.0161  1.5794  0.7017
  550MOL0     H74229   8.010   6.220   6.672  1.0976  1.7814  0.0812
  550MOL0     H74230   7.843   6.247   6.504  0.8263  3.9796  0.0653
  550MOL0     H74231   7.961   6.206   6.371  1.8348 -0.3946 -0.2090
  550MOL0     H74232   7.648   5.550   6.934 -2.0003  1.5884 -0.1270
  550MOL0     H74233   7.414   5.520   7.028 -1.0932 -1.2950 -1.0776
  550MOL0     H74234   7.102   5.071   7.080 -2.1383 -0.5155 -1.0868
  550MOL0     H74235   6.903   5.006   7.231  1.3900 -0.9735  0.6063
  550MOL0     H74236   5.271   5.396   7.960  1.6423 -0.8708 -2.3407
  550MOL0     H74237   5.056   5.471   8.037  4.1182  1.5959 -1.0261
  550MOL0     H74238   4.586   5.128   8.063  1.3984  0.1850 -0.1354
  550MOL0     H74239   4.360   5.177   8.166 -1.6615 -0.4082 -2.5317
  550MOL0     H74240   4.145   5.261   8.261 -1.2005  1.8564  0.7204
  550MOL0     H74241   4.272   5.293   8.389  0.5995 -5.4027 -1.7479
  550MOL0     H74242   4.017   5.427   8.318  0.8069 -4.0643 -2.0867
  550MOL0     H74243   4.132   5.518   8.420  0.7123 -1.4416  4.9038
  550MOL0     H74244   3.982   5.424   8.559 -1.9323 -0.1299 -1.6032
  550MOL0     H74245   4.131   5.321   8.580 -3.2035 -2.0134  3.4727
  550MOL0     H74246   3.885   5.242   8.409  0.3200 -0.9064 -1.6314
  550MOL0     H74247   3.894   5.205   8.574  1.6932 -1.0296 -0.1608
  550MOL0     H74248   4.208   4.969   8.395  0.0221 -1.2118  1.7695
  550MOL0     H74249   4.435   5.592   8.175 -2.0561  0.1187 -1.6447
  550MOL0     H74250   4.664   5.542   8.063  4.4940 -3.7325 -0.0913
  551MOL0     O74251   4.352   1.038  11.446  0.6186 -0.3816 -0.4502
  551MOL0     C74252   4.269   1.076  11.372  0.4902 -1.1775  0.0455
  551MOL0     O74253   4.295   1.164  11.266  1.0122 -0.8928 -0.2990
  551MOL0     C74254   4.414   1.231  11.240  0.2462 -0.7416 -0.9537
  551MOL0     C74255   4.540   1.192  11.274  0.2083  0.3509  0.3924
  551MOL0     C74256   4.649   1.271  11.255  0.1158  0.2601  0.5425
  551MOL0     C74257   4.626   1.398  11.190 -0.1630 -0.0491  0.1786
  551MOL0     O74258   4.740   1.481  11.183  0.3958 -0.0954 -0.1540
  551MOL0     C74259   4.724   1.612  11.247  0.8015 -0.0077 -0.4799
  551MOL0     C74260   4.774   1.613  11.383  0.1838 -0.3977 -1.0180
  551MOL0     C74261   4.710   1.739  11.454  0.2754 -0.1619  0.9300
  551MOL0     C74262   4.812   1.767  11.557  0.8491  0.7815  0.4182
  551MOL0     C74263   4.761   1.864  11.657  0.2020 -0.2777  0.3279
  551MOL0     C74264   4.786   2.012  11.611 -0.2448  0.1970  0.7765
  551MOL0     C74265   4.721   2.120  11.697 -0.8739 -0.3263  0.3963
  551MOL0     C74266   4.771   2.150  11.842  0.3747 -0.2471 -0.4259
  551MOL0     N74267   4.855   2.272  11.833  0.1332  0.0870 -0.0672
  551MOL0     C74268   4.987   2.263  11.865  0.9649 -0.9984  1.1594
  551MOL0     C74269   5.013   2.396  11.877 -0.4521 -0.6343  0.2377
  551MOL0     C74270   5.136   2.464  11.931  0.0420  0.9282  0.5086
  551MOL0     C74271   5.099   2.581  12.026  1.0357  0.1275 -0.9115
  551MOL0     C74272   5.222   2.657  12.060 -0.3717 -0.0856 -0.8169
  551MOL0     C74273   5.286   2.735  11.957 -0.3190  0.1101  0.2402
  551MOL0     O74274   5.188   2.792  11.865 -0.9301  0.7606  0.1468
  551MOL0     C74275   5.248   2.887  11.782 -0.4395 -0.4231  0.2431
  551MOL0     C74276   5.385   2.937  11.785  1.3768  0.3845 -0.7814
  551MOL0     C74277   5.420   3.052  11.717 -0.1134 -0.4001 -0.5101
  551MOL0     C74278   5.553   3.112  11.762  0.5088 -0.3643 -0.0542
  551MOL0     C74279   5.336   3.112  11.622  0.6471  0.1825 -0.3252
  551MOL0     C74280   5.372   3.213  11.517  0.3590 -0.6066 -1.0412
  551MOL0     O74281   5.275   3.241  11.425 -0.7945  0.0136  0.0801
  551MOL0     C74282   5.284   3.323  11.322 -0.4109 -0.6845 -0.4134
  551MOL0     C74283   5.175   3.343  11.242  0.2309 -1.0251  0.6198
  551MOL0     C74284   5.182   3.422  11.123 -0.3516 -0.6664 -0.2428
  551MOL0     C74285   5.299   3.478  11.080 -0.5364 -0.4888  1.0845
  551MOL0     O74286   5.303   3.542  10.958  0.2413  0.4306 -0.1705
  551MOL0     C74287   5.428   3.552  10.891 -1.0298  0.3524  0.1662
  551MOL0     C74288   5.408   3.581  10.738 -0.7032  0.7946  0.2079
  551MOL0     C74289   5.545   3.604  10.671 -0.3017 -0.2260 -0.0972
  551MOL0     C74290   5.514   3.633  10.523 -0.2625  0.5027  1.6787
  551MOL0     C74291   5.642   3.659  10.441  0.7049  0.3443  0.3908
  551MOL0     C74292   5.701   3.793  10.486  0.2471  0.2151 -0.3958
  551MOL0     C74293   5.839   3.806  10.432  0.4810  1.0659  0.2122
  551MOL0     C74294   5.850   3.821  10.284  0.8856  0.8804 -0.7221
  551MOL0    Cl74295   6.000   3.899  10.240  0.2933 -0.0956 -0.4507
  551MOL0     C74296   5.409   3.457  11.159 -0.3537  0.0564 -0.0527
  551MOL0     C74297   5.400   3.387  11.274 -0.3454  0.5537  0.6163
  551MOL0     O74298   5.483   3.258  11.515 -0.3254 -0.2253  0.1116
  551MOL0     C74299   5.206   3.059  11.615 -0.0259 -0.7982  0.0373
  551MOL0     C74300   5.157   2.949  11.685  0.1622  1.0464  0.1332
  551MOL0     N74301   4.902   2.478  11.842 -0.5103  0.5585 -0.2739
  551MOL0     N74302   4.813   2.396  11.815  0.3442  0.8059  0.4429
  551MOL0     C74303   4.499   1.432  11.128  0.3752 -0.1127 -0.8781
  551MOL0     C74304   4.394   1.352  11.170 -0.3533  0.0601 -0.1600
  551MOL0     C74305   4.133   1.009  11.387  0.2102  0.0681  0.4225
  551MOL0     C74306   4.033   1.039  11.295 -0.2329 -0.3040  0.2980
  551MOL0     C74307   3.904   0.985  11.308  0.9288  0.3371 -0.0676
  551MOL0     C74308   3.873   0.897  11.417  0.7741 -0.1283  0.5365
  551MOL0     O74309   3.745   0.863  11.442  0.3796 -0.6916  0.0417
  551MOL0     C74310   3.708   0.779  11.548 -0.8742 -0.2456  0.0177
  551MOL0     C74311   3.558   0.776  11.572  0.6658  0.4591  1.2871
  551MOL0     C74312   3.501   0.710  11.447 -0.0813  0.2426 -1.0056
  551MOL0     C74313   3.349   0.691  11.447 -0.2612 -0.7355 -0.6525
  551MOL0     C74314   3.303   0.610  11.559 -0.7850  1.1261 -0.2135
  551MOL0     C74315   3.275   0.533  11.649  0.2086 -1.0697  0.3737
  551MOL0     C74316   3.984   0.862  11.507 -0.0586 -0.7310 -1.1232
  551MOL0     C74317   4.113   0.918  11.487 -0.9729 -0.2758 -0.2464
  551MOL0     H74318   4.558   1.090  11.309 -0.5911  0.0409 -0.0832
  551MOL0     H74319   4.744   1.224  11.274  0.5987 -0.9431 -3.8817
  551MOL0     H74320   4.773   1.688  11.186 -2.3907  2.3936 -0.3101
  551MOL0     H74321   4.623   1.654  11.249  0.3131 -1.1542  1.0045
  551MOL0     H74322   4.726   1.533  11.439 -0.3689  1.2431  0.9482
  551MOL0     H74323   4.882   1.594  11.384  0.3275  0.4380 -0.3582
  551MOL0     H74324   4.706   1.831  11.393 -0.4261 -1.2939 -0.8007
  551MOL0     H74325   4.610   1.727  11.495 -0.6775  1.2487 -0.8281
  551MOL0     H74326   4.845   1.675  11.606  0.1987  0.2721 -0.0836
  551MOL0     H74327   4.896   1.814  11.505  0.6042  0.4466 -0.2803
  551MOL0     H74328   4.657   1.840  11.682 -0.1787  0.0682 -0.8618
  551MOL0     H74329   4.805   1.863  11.757  0.8065 -1.3114  0.0615
  551MOL0     H74330   4.894   2.026  11.613 -0.0894 -0.9222  2.6715
  551MOL0     H74331   4.756   2.014  11.506 -0.4959 -0.6221  0.8291
  551MOL0     H74332   4.727   2.207  11.631  1.4825 -0.4323  0.4016
  551MOL0     H74333   4.614   2.094  11.695 -1.6853  2.0294 -5.3520
  551MOL0     H74334   4.820   2.059  11.875 -0.0258 -0.6074 -0.8124
  551MOL0     H74335   4.688   2.172  11.909  0.0468 -0.3620 -0.7908
  551MOL0     H74336   5.044   2.175  11.892  1.7222 -1.0060 -0.3634
  551MOL0     H74337   5.212   2.392  11.961  0.6831  1.2478 -0.3048
  551MOL0     H74338   5.185   2.495  11.839  1.0314 -3.4641 -0.6954
  551MOL0     H74339   5.046   2.550  12.117 -2.2885  0.8982 -2.4664
  551MOL0     H74340   5.025   2.647  11.981 -0.4461 -0.8027  0.0488
  551MOL0     H74341   5.293   2.592  12.112 -1.9860 -1.4553 -0.2451
  551MOL0     H74342   5.201   2.734  12.135  2.9474 -0.2542  0.4657
  551MOL0     H74343   5.352   2.669  11.901 -1.4345 -1.1100  0.3117
  551MOL0     H74344   5.330   2.824  12.003 -2.6025  0.2545  2.3452
  551MOL0     H74345   5.461   2.904  11.855  0.9367  1.5706  0.3095
  551MOL0     H74346   5.534   3.217  11.787 -4.0997 -1.5031  2.2991
  551MOL0     H74347   5.596   3.074  11.856 -1.8970 -0.4290  1.1001
  551MOL0     H74348   5.621   3.112  11.677  0.1908 -0.8163 -0.3114
  551MOL0     H74349   5.080   3.307  11.280 -2.0220  3.5872  0.0902
  551MOL0     H74350   5.100   3.446  11.056 -1.0697  4.6590  2.0421
  551MOL0     H74351   5.484   3.626  10.948  4.0763  0.0168 -3.6933
  551MOL0     H74352   5.481   3.457  10.901  1.1147  1.3641 -0.8132
  551MOL0     H74353   5.371   3.485  10.701  0.7080  0.1819  0.3225
  551MOL0     H74354   5.332   3.659  10.736 -0.5336  1.0251  1.5260
  551MOL0     H74355   5.614   3.519  10.679  1.6098  1.3383  0.8983
  551MOL0     H74356   5.603   3.678  10.726  1.5163 -2.4842  1.2429
  551MOL0     H74357   5.461   3.545  10.484 -0.0442 -0.1783  2.8909
  551MOL0     H74358   5.440   3.714  10.514  0.1708  0.9448  2.0724
  551MOL0     H74359   5.622   3.654  10.334  0.9197 -1.2775  0.4080
  551MOL0     H74360   5.720   3.583  10.451  1.1365  0.8741  1.1902
  551MOL0     H74361   5.652   3.884  10.448  2.1396  0.8386 -1.4618
  551MOL0     H74362   5.690   3.804  10.594  0.2719  2.1160 -0.5487
  551MOL0     H74363   5.901   3.727  10.473  1.1998  1.0021 -0.9693
  551MOL0     H74364   5.875   3.896  10.483  3.3964 -0.8082  1.7293
  551MOL0     H74365   5.766   3.883  10.252  1.3345  1.0333 -1.6548
  551MOL0     H74366   5.853   3.720  10.240 -1.2780  1.0008 -1.2628
  551MOL0     H74367   5.505   3.494  11.125  0.4131  1.2796  3.0902
  551MOL0     H74368   5.498   3.376  11.319  1.4348 -0.8516 -3.2301
  551MOL0     H74369   5.141   3.110  11.545  1.9698  1.7566 -0.0815
  551MOL0     H74370   5.063   2.901  11.660  1.3249 -1.4628  0.2103
  551MOL0     H74371   4.481   1.521  11.068 -1.2382  1.4313  1.7291
  551MOL0     H74372   4.293   1.364  11.132 -0.4679 -3.1372 -1.1448
  551MOL0     H74373   4.064   1.104  11.214  3.2983 -0.5101  1.3257
  551MOL0     H74374   3.835   1.028  11.236 -0.2482 -0.8650  0.2979
  551MOL0     H74375   3.738   0.674  11.541 -1.3802 -0.4498  0.7855
  551MOL0     H74376   3.747   0.831  11.636 -1.0189  0.9229 -0.5884
  551MOL0     H74377   3.509   0.871  11.595 -0.4500 -0.1051  1.2943
  551MOL0     H74378   3.546   0.706  11.655 -3.2441  0.8806  1.2558
  551MOL0     H74379   3.545   0.610  11.444  0.5946  0.4199  1.3959
  551MOL0     H74380   3.527   0.772  11.360 -0.5285  1.4246 -0.3158
  551MOL0     H74381   3.314   0.643  11.355 -1.7603  0.2566 -0.6449
  551MOL0     H74382   3.313   0.794  11.442  1.5356 -0.0932 -1.0050
  551MOL0     H74383   3.248   0.470  11.732 -1.8394  2.0175  2.2350
  551MOL0     H74384   3.953   0.800  11.590 -1.0376 -1.6302 -2.1380
  551MOL0     H74385   4.192   0.895  11.558 -0.2396  0.2363 -0.8750
  552MOL0     O74386  10.871  10.512   1.401 -0.0271 -0.7502  0.3516
  552MOL0     C74387  10.830  10.395   1.373  0.1492  0.2876 -0.0657
  552MOL0     O74388  10.698  10.359   1.369  0.7269  1.1376  0.7060
  552MOL0     C74389  10.601  10.450   1.394  0.6212  0.7786 -0.2657
  552MOL0     C74390  10.490  10.431   1.474  0.5474  0.5234 -1.2848
  552MOL0     C74391  10.394  10.536   1.497  0.0055 -0.1639 -0.0742
  552MOL0     C74392  10.406  10.657   1.433  0.6917  0.1307  1.0443
  552MOL0     O74393  10.310  10.752   1.462  0.4096  0.0414 -0.1513
  552MOL0     C74394  10.270  10.840   1.361  0.0179  0.2869 -0.1511
  552MOL0     C74395  10.130  10.905   1.390 -0.2150  0.5653  1.3132
  552MOL0     C74396  10.101  10.941   1.539 -0.0606  0.6595 -0.3244
  552MOL0     C74397  10.005  11.069   1.559  0.6320  0.0685 -0.7405
  552MOL0     C74398  10.002  11.124   1.710 -0.9708  0.6184 -0.5518
  552MOL0     C74399  10.119  11.213   1.732  0.4252 -1.3666 -0.2332
  552MOL0     C74400  10.111  11.285   1.864  0.3245  1.2129  0.2560
  552MOL0     C74401  10.186  11.414   1.887 -0.9886 -0.8076  0.1290
  552MOL0     N74402  10.338  11.395   1.883  0.9131 -0.0573 -0.2927
  552MOL0     C74403  10.426  11.450   1.787  0.0922  0.2215  1.0482
  552MOL0     C74404  10.549  11.393   1.806  1.1104 -0.2204 -0.4505
  552MOL0     C74405  10.659  11.399   1.704 -0.1687  0.4326  0.8619
  552MOL0     C74406  10.788  11.459   1.762  0.0547 -0.7439  0.1914
  552MOL0     C74407  10.888  11.511   1.650  0.1686  0.2460 -0.2265
  552MOL0     C74408  10.949  11.399   1.579  0.7044 -0.4177 -0.3436
  552MOL0     O74409  10.932  11.431   1.441 -1.1545  0.2273  0.2605
  552MOL0     C74410  10.999  11.350   1.346 -0.6584 -0.4835  0.3222
  552MOL0     C74411  10.985  11.215   1.331  0.4841 -0.2762  0.4799
  552MOL0     C74412  11.066  11.134   1.248 -0.5807 -0.3170 -0.4076
  552MOL0     C74413  11.049  10.990   1.249  0.5246  0.3442  0.0782
  552MOL0     C74414  11.142  11.197   1.144  1.2564  0.9672  0.3311
  552MOL0     C74415  11.215  11.125   1.037 -0.5223  0.1585 -0.5897
  552MOL0     O74416  11.260  10.995   1.072 -0.1286 -0.1045  0.0096
  552MOL0     C74417  11.322  10.909   0.983  0.8764  0.1996  0.0696
  552MOL0     C74418  11.368  10.784   1.031 -0.1787 -0.1267  0.5324
  552MOL0     C74419  11.438  10.690   0.954 -0.5202  0.0983  1.3345
  552MOL0     C74420  11.473  10.724   0.821  0.5518  0.8505 -0.3340
  552MOL0     O74421  11.564  10.644   0.742  0.8737 -0.4250 -0.0603
  552MOL0     C74422  11.601  10.511   0.778  0.0412 -0.4164  0.5008
  552MOL0     C74423  11.706  10.462   0.677 -0.1331 -0.9453  0.2332
  552MOL0     C74424  11.737  10.313   0.693 -0.6904  0.6911  0.0681
  552MOL0     C74425  11.823  10.259   0.572  0.3636 -0.2292 -0.0681
  552MOL0     C74426  11.839  10.108   0.563 -0.0533 -0.2866  0.3740
  552MOL0     C74427  11.932  10.065   0.444 -0.1999 -1.1533  0.2587
  552MOL0     C74428  11.881  10.090   0.305 -0.3145 -0.4109 -1.0265
  552MOL0     C74429  11.973  10.008   0.211  0.1123  0.6046 -0.0767
  552MOL0    Cl74430  11.869   9.958   0.070 -0.0736 -0.0750 -0.5467
  552MOL0     C74431  11.425  10.846   0.773  1.3145 -0.6597 -0.5775
  552MOL0     C74432  11.353  10.941   0.853 -0.1606  0.0736 -0.3535
  552MOL0     O74433  11.246  11.188   0.931  0.3544  0.5164  0.0191
  552MOL0     C74434  11.144  11.335   1.143  0.3260 -0.1356 -0.3057
  552MOL0     C74435  11.068  11.414   1.238 -0.5112 -0.0455 -0.2134
  552MOL0     N74436  10.537  11.306   1.905 -0.1282  0.5538  0.0274
  552MOL0     N74437  10.420  11.303   1.945 -0.3700 -0.8696  0.1809
  552MOL0     C74438  10.505  10.674   1.335 -0.7471 -0.5262 -0.1405
  552MOL0     C74439  10.597  10.571   1.316  0.0563 -0.0542 -0.1247
  552MOL0     C74440  10.929  10.292   1.337  0.7030 -0.0767  0.7680
  552MOL0     C74441  11.064  10.311   1.362 -0.1500  0.5342 -0.2726
  552MOL0     C74442  11.155  10.210   1.312 -1.7041 -0.1454  0.0999
  552MOL0     C74443  11.109  10.089   1.257 -0.0354 -0.3457 -0.3846
  552MOL0     O74444  11.188   9.999   1.205 -0.3583  0.1207  0.6191
  552MOL0     C74445  11.318   9.994   1.272  0.0956  0.2903 -0.1209
  552MOL0     C74446  11.319   9.960   1.428  0.2505 -0.7783 -0.2103
  552MOL0     C74447  11.450  10.019   1.491  0.6651  0.4819 -0.4484
  552MOL0     C74448  11.486   9.962   1.626 -0.2033  0.1308 -0.3829
  552MOL0     C74449  11.514   9.823   1.625 -0.4271 -0.4753 -0.5871
  552MOL0     C74450  11.530   9.704   1.611  0.2302 -0.2116 -1.3245
  552MOL0     C74451  10.974  10.070   1.241 -0.3387 -0.7282 -0.2952
  552MOL0     C74452  10.887  10.172   1.284  0.1279  0.0983  0.1024
  552MOL0     H74453  10.473  10.337   1.526  0.7293  1.5613  0.7849
  552MOL0     H74454  10.311  10.535   1.567  0.6192  3.5469  0.9393
  552MOL0     H74455  10.339  10.925   1.348  0.2879  0.0041 -0.5933
  552MOL0     H74456  10.273  10.787   1.265  1.1394 -1.1702  0.6481
  552MOL0     H74457  10.123  10.997   1.330 -1.7829  0.6105  1.5206
  552MOL0     H74458  10.057  10.834   1.349  3.3254 -1.9217 -1.2993
  552MOL0     H74459  10.063  10.860   1.602 -2.1792  2.6056  1.0634
  552MOL0     H74460  10.197  10.976   1.579  0.4768 -1.3454  0.2172
  552MOL0     H74461  10.029  11.155   1.496 -0.4963 -0.2938 -1.7053
  552MOL0     H74462   9.907  11.041   1.518  0.1006  1.0072 -0.1565
  552MOL0     H74463   9.910  11.181   1.724 -1.0150  1.3387 -3.3075
  552MOL0     H74464  10.017  11.047   1.786  1.2104  1.8923  0.3923
  552MOL0     H74465  10.214  11.160   1.740  1.6493  0.7774  0.2542
  552MOL0     H74466  10.129  11.286   1.650 -0.5367 -1.1514 -0.1701
  552MOL0     H74467  10.004  11.302   1.877 -0.4937 -1.6282 -1.9360
  552MOL0     H74468  10.122  11.211   1.944 -2.3513  0.4642  0.0061
  552MOL0     H74469  10.159  11.447   1.988 -0.1874 -0.1238  0.1317
  552MOL0     H74470  10.153  11.490   1.815 -1.1966 -1.3760 -0.3798
  552MOL0     H74471  10.390  11.520   1.712 -1.0271 -2.4930 -1.1236
  552MOL0     H74472  10.679  11.300   1.661 -3.7038  0.7899 -2.1230
  552MOL0     H74473  10.649  11.473   1.625  0.7481  0.3883  0.6931
  552MOL0     H74474  10.853  11.395   1.823  2.9021 -0.5631 -2.4250
  552MOL0     H74475  10.757  11.548   1.818  1.2752 -0.2189  0.0566
  552MOL0     H74476  10.961  11.578   1.697 -2.2260 -0.3234  5.0332
  552MOL0     H74477  10.838  11.576   1.578  1.3584  0.1021 -1.2266
  552MOL0     H74478  10.900  11.307   1.613 -1.4740  1.0186  0.6549
  552MOL0     H74479  11.054  11.389   1.607  0.7517  2.3841  0.8484
  552MOL0     H74480  10.927  11.168   1.409 -1.5767 -0.6262 -1.1784
  552MOL0     H74481  11.014  10.967   1.148  0.9860  1.2355 -0.2969
  552MOL0     H74482  11.143  10.945   1.281  1.0573  1.3305 -0.0553
  552MOL0     H74483  10.966  10.965   1.315  0.8022  1.2922  0.8095
  552MOL0     H74484  11.352  10.759   1.136  2.1820 -1.2293  0.6912
  552MOL0     H74485  11.462  10.592   0.992  1.3253  1.1072  2.9933
  552MOL0     H74486  11.626  10.503   0.884 -0.2385 -1.7091  0.4933
  552MOL0     H74487  11.509  10.451   0.771  0.8886 -1.7085 -0.0371
  552MOL0     H74488  11.680  10.474   0.571  1.5158 -1.0906 -0.2313
  552MOL0     H74489  11.800  10.517   0.690  0.5370 -1.7963 -0.8381
  552MOL0     H74490  11.643  10.260   0.710 -0.6800  0.3713 -0.8356
  552MOL0     H74491  11.805  10.291   0.776  0.2373 -1.1456 -1.1094
  552MOL0     H74492  11.759  10.283   0.486 -3.1049  1.5654  2.7238
  552MOL0     H74493  11.919  10.310   0.577  0.2992 -0.1804  0.9845
  552MOL0     H74494  11.740  10.062   0.562 -0.2231  0.0864 -0.3217
  552MOL0     H74495  11.879  10.080   0.661 -1.1434  3.2327  1.9924
  552MOL0     H74496  12.021  10.127   0.456 -0.2881 -0.6094 -1.6544
  552MOL0     H74497  11.955   9.959   0.460  1.2867 -0.6359  1.9840
  552MOL0     H74498  11.883  10.191   0.264 -0.8405 -0.2853 -0.7505
  552MOL0     H74499  11.777  10.057   0.305 -0.9633  1.4265  1.0644
  552MOL0     H74500  12.012   9.914   0.252 -0.1871 -1.4904 -4.1719
  552MOL0     H74501  12.050  10.071   0.167 -1.0374  0.6229 -2.1445
  552MOL0     H74502  11.445  10.873   0.670 -0.3398 -2.3129 -1.4009
  552MOL0     H74503  11.319  11.027   0.797 -1.2456 -1.3590 -2.0187
  552MOL0     H74504  11.205  11.381   1.066 -0.4078  3.5555  1.1151
  552MOL0     H74505  11.066  11.523   1.235  0.2429 -0.0281 -0.2642
  552MOL0     H74506  10.523  10.773   1.294  0.1737 -0.9212 -0.7371
  552MOL0     H74507  10.675  10.571   1.240  0.4083 -1.1487  0.2028
  552MOL0     H74508  11.105  10.401   1.405 -0.9058 -1.3999  5.3127
  552MOL0     H74509  11.254  10.256   1.307 -1.3849 -0.7322  0.8750
  552MOL0     H74510  11.374   9.914   1.224  1.6137  1.9884 -1.3482
  552MOL0     H74511  11.383  10.080   1.250 -0.4886  0.8881  0.4378
  552MOL0     H74512  11.317   9.852   1.445  0.4588 -1.0842 -1.9676
  552MOL0     H74513  11.236  10.018   1.470 -0.9403 -1.1552 -1.9357
  552MOL0     H74514  11.434  10.125   1.512  2.1220  0.8310 -0.9334
  552MOL0     H74515  11.535  10.013   1.421  0.6544 -1.1773 -0.3514
  552MOL0     H74516  11.392   9.976   1.681 -1.6244  0.7204 -2.8310
  552MOL0     H74517  11.568  10.015   1.676 -0.4230  0.8330 -0.7655
  552MOL0     H74518  11.564   9.604   1.599  0.3720 -0.1454 -1.4771
  552MOL0     H74519  10.932   9.977   1.204 -0.7821  0.2089 -2.3333
  552MOL0     H74520  10.782  10.146   1.276 -0.0209  0.7064  0.0559
  553MOL0     O74521   9.480   8.488   6.800 -0.3624  0.4003  1.0175
  553MOL0     C74522   9.475   8.604   6.768  0.0890  0.5661  1.3967
  553MOL0     O74523   9.560   8.661   6.679 -0.9137  0.1796 -0.5361
  553MOL0     C74524   9.685   8.597   6.660  0.0294 -0.2482 -0.7895
  553MOL0     C74525   9.704   8.535   6.541 -0.3812 -0.7394 -0.6195
  553MOL0     C74526   9.817   8.458   6.527 -0.6125  0.4490  0.7139
  553MOL0     C74527   9.910   8.443   6.628  0.4598 -0.5716 -0.9111
  553MOL0     O74528  10.013   8.355   6.593 -0.5009 -0.8924  0.4874
  553MOL0     C74529  10.109   8.335   6.694 -0.8534  0.6578 -0.0085
  553MOL0     C74530  10.195   8.215   6.640 -0.4824 -0.0211 -0.4796
  553MOL0     C74531  10.117   8.090   6.613 -0.4162  0.7276 -0.3077
  553MOL0     C74532  10.203   7.977   6.539 -0.7083 -0.0054  0.5196
  553MOL0     C74533  10.126   7.842   6.528 -0.2062 -0.2937 -0.0622
  553MOL0     C74534  10.227   7.737   6.476 -0.4131 -0.2076  0.5299
  553MOL0     C74535  10.167   7.596   6.442  0.4135 -0.3926  0.0146
  553MOL0     C74536  10.257   7.475   6.414 -0.8147  0.1969  0.3694
  553MOL0     N74537  10.346   7.494   6.299 -0.5432  0.5672 -0.6113
  553MOL0     C74538  10.304   7.545   6.167 -0.6343 -0.1136  0.4511
  553MOL0     C74539  10.423   7.580   6.121  0.4129  0.0813  0.0949
  553MOL0     C74540  10.440   7.646   5.994  0.6605  0.3369  0.4915
  553MOL0     C74541  10.386   7.792   5.993 -0.7425  0.9786 -0.8544
  553MOL0     C74542  10.417   7.867   6.123 -0.4075 -0.2214 -0.4965
  553MOL0     C74543  10.563   7.874   6.165  0.1104  0.8866  0.4375
  553MOL0     O74544  10.596   7.951   6.280  0.0031  0.7680 -0.4596
  553MOL0     C74545  10.577   8.087   6.273  1.1185  0.1505  0.2295
  553MOL0     C74546  10.591   8.144   6.405 -0.2513 -0.5028  0.1639
  553MOL0     C74547  10.568   8.288   6.420 -0.4369 -0.2812  0.7710
  553MOL0     C74548  10.595   8.371   6.553  0.0732 -0.1203  0.6718
  553MOL0     C74549  10.519   8.361   6.304  0.0233 -0.2418 -0.9956
  553MOL0     C74550  10.463   8.501   6.310 -0.1649 -0.0935 -0.2608
  553MOL0     O74551  10.401   8.546   6.424 -0.4387  0.0972  0.6449
  553MOL0     C74552  10.318   8.660   6.417  0.3824 -0.3790  0.4426
  553MOL0     C74553  10.371   8.792   6.428  0.3639  0.5485  1.1228
  553MOL0     C74554  10.288   8.901   6.432  0.4628  0.2457 -0.4936
  553MOL0     C74555  10.150   8.887   6.426 -0.3089  0.1831  0.2392
  553MOL0     O74556  10.071   9.002   6.442  0.2867 -0.2733  0.3284
  553MOL0     C74557  10.056   9.060   6.305  0.3723  0.0192 -0.9704
  553MOL0     C74558   9.960   9.175   6.285  0.1761 -0.1412 -1.0380
  553MOL0     C74559   9.988   9.266   6.399 -0.5225 -0.0388  0.4892
  553MOL0     C74560   9.912   9.393   6.375 -0.2089 -0.8253 -0.4035
  553MOL0     C74561   9.840   9.448   6.507  0.6210  0.3882  1.3841
  553MOL0     C74562   9.934   9.486   6.619 -0.0487  0.2678  0.8455
  553MOL0     C74563   9.846   9.559   6.722 -0.1760 -0.1834 -0.9305
  553MOL0     C74564   9.926   9.646   6.813 -1.4851 -0.9566  0.8481
  553MOL0    Cl74565  10.001   9.785   6.722  0.0430  0.3415  0.3518
  553MOL0     C74566  10.098   8.758   6.422  0.9962 -0.8341 -0.0178
  553MOL0     C74567  10.172   8.652   6.411 -0.2424  0.6659 -0.1258
  553MOL0     O74568  10.453   8.561   6.205 -0.1769  0.0319  0.3716
  553MOL0     C74569  10.533   8.304   6.178  0.4215  1.1350  0.1495
  553MOL0     C74570  10.556   8.169   6.161 -0.2152  0.2823 -0.4563
  553MOL0     N74571  10.527   7.528   6.200 -0.6721  0.2597  0.8673
  553MOL0     N74572  10.478   7.475   6.305 -0.6841 -0.3294 -0.3534
  553MOL0     C74573   9.896   8.511   6.745  0.7525  0.7761 -0.9872
  553MOL0     C74574   9.782   8.592   6.766 -0.2520 -0.2222  0.8053
  553MOL0     C74575   9.375   8.687   6.825  0.3588 -0.6011 -0.4873
  553MOL0     C74576   9.382   8.818   6.804  0.4630  0.2935 -0.3327
  553MOL0     C74577   9.281   8.902   6.846  0.5607  0.5121 -0.7089
  553MOL0     C74578   9.163   8.865   6.922 -0.1577 -0.1634 -0.1600
  553MOL0     O74579   9.059   8.945   6.944 -0.5803 -0.5153 -0.3764
  553MOL0     C74580   9.079   9.070   7.015 -0.2804  1.1867  0.3134
  553MOL0     C74581   9.107   9.035   7.162 -0.5711 -0.2973 -0.1332
  553MOL0     C74582   9.246   8.966   7.192  0.4785  0.0758 -0.3382
  553MOL0     C74583   9.375   9.028   7.119 -0.5047  1.0419  0.3283
  553MOL0     C74584   9.418   9.145   7.178 -0.5577 -0.2157  0.1953
  553MOL0     C74585   9.458   9.243   7.245  0.4974 -0.4359  0.0194
  553MOL0     C74586   9.168   8.736   6.960  0.4962  0.5125  0.6314
  553MOL0     C74587   9.266   8.646   6.906 -0.8107  0.1945 -0.6438
  553MOL0     H74588   9.637   8.546   6.456 -0.8917 -4.1261 -0.7621
  553MOL0     H74589   9.829   8.404   6.433  1.3689  3.4280 -0.9104
  553MOL0     H74590  10.173   8.420   6.719 -1.8346  1.3631  0.1255
  553MOL0     H74591  10.064   8.298   6.786  1.2789 -0.8549  0.5153
  553MOL0     H74592  10.262   8.247   6.559  0.5277  1.4463  0.8702
  553MOL0     H74593  10.263   8.188   6.722  0.3521  2.5111 -0.2499
  553MOL0     H74594  10.069   8.050   6.702 -0.2663  0.2008 -0.4577
  553MOL0     H74595  10.037   8.122   6.546 -1.3602  0.2394  0.5695
  553MOL0     H74596  10.241   8.010   6.443 -0.8086  0.3569  0.6027
  553MOL0     H74597  10.291   7.965   6.602 -0.8010 -0.0000  0.6518
  553MOL0     H74598  10.084   7.812   6.624 -0.6851 -1.7725 -0.7136
  553MOL0     H74599  10.049   7.853   6.451 -0.5729  0.4872  0.3998
  553MOL0     H74600  10.284   7.782   6.394 -0.0669  3.6783  2.6609
  553MOL0     H74601  10.312   7.733   6.545  1.7215 -1.9326 -1.9809
  553MOL0     H74602  10.106   7.578   6.531 -1.5802 -0.5579 -1.3152
  553MOL0     H74603  10.089   7.600   6.365 -0.2462 -2.5677  0.4883
  553MOL0     H74604  10.202   7.381   6.402  1.2421 -0.7587 -2.6258
  553MOL0     H74605  10.324   7.468   6.500 -0.7265 -1.4471  0.2028
  553MOL0     H74606  10.208   7.544   6.116  0.5296  2.9931 -2.1087
  553MOL0     H74607  10.543   7.639   5.959  0.0553 -1.2718 -1.1067
  553MOL0     H74608  10.380   7.585   5.926  1.1743 -3.1957  2.9515
  553MOL0     H74609  10.278   7.792   5.983 -0.7761 -2.2905 -1.4150
  553MOL0     H74610  10.411   7.847   5.902 -1.1616  0.8560 -1.0425
  553MOL0     H74611  10.357   7.821   6.202 -2.3712 -0.9718 -2.3338
  553MOL0     H74612  10.377   7.965   6.095  1.6011  0.2147 -2.0020
  553MOL0     H74613  10.617   7.916   6.080  1.7985 -1.5575  0.2071
  553MOL0     H74614  10.595   7.771   6.183  2.7560  1.9923  2.8948
  553MOL0     H74615  10.597   8.079   6.491  2.7851 -1.6976 -0.8208
  553MOL0     H74616  10.659   8.309   6.616  0.6621  0.2971  0.4976
  553MOL0     H74617  10.643   8.465   6.525 -3.5677  1.5252 -0.7666
  553MOL0     H74618  10.499   8.384   6.604 -1.4700 -1.8681 -1.5632
  553MOL0     H74619  10.479   8.807   6.421  0.5027 -0.6139  0.5705
  553MOL0     H74620  10.320   9.004   6.438  0.0754  0.3620 -0.3813
  553MOL0     H74621  10.154   9.101   6.280  1.6253  1.1634  4.5603
  553MOL0     H74622  10.038   8.974   6.239  1.4662 -0.2175 -0.9748
  553MOL0     H74623   9.970   9.226   6.189  3.3293 -1.4914 -1.5572
  553MOL0     H74624   9.858   9.137   6.294  0.6745 -1.2946  0.2803
  553MOL0     H74625  10.096   9.284   6.403 -0.6021  0.5699 -0.0162
  553MOL0     H74626   9.959   9.228   6.497 -2.9474  0.2214 -0.0834
  553MOL0     H74627   9.976   9.472   6.333 -0.8935 -0.9791 -1.8199
  553MOL0     H74628   9.834   9.380   6.300  3.3009  1.5025 -5.0009
  553MOL0     H74629   9.771   9.366   6.533  1.5264 -2.0829 -2.9206
  553MOL0     H74630   9.787   9.539   6.477 -2.5461 -1.2659  1.5523
  553MOL0     H74631   9.966   9.390   6.661 -2.8066 -2.2649 -2.2645
  553MOL0     H74632  10.020   9.544   6.586 -1.1807  2.0227  0.8574
  553MOL0     H74633   9.786   9.495   6.787 -1.0025 -0.6430 -2.1003
  553MOL0     H74634   9.782   9.627   6.665  0.0492  1.7825  1.0334
  553MOL0     H74635  10.003   9.590   6.867 -0.5425 -1.9935 -1.4062
  553MOL0     H74636   9.864   9.695   6.888 -1.0572  0.9704 -0.0075
  553MOL0     H74637   9.993   8.757   6.395  0.5743  1.1349  1.3821
  553MOL0     H74638  10.138   8.549   6.405  0.6543  0.2992  0.8163
  553MOL0     H74639  10.517   8.363   6.088  1.3248 -0.2077 -0.9188
  553MOL0     H74640  10.551   8.119   6.064 -2.1088 -2.8870  1.0943
  553MOL0     H74641   9.961   8.489   6.829 -2.5722 -1.4215  1.2594
  553MOL0     H74642   9.774   8.635   6.865  0.2999  0.3880  0.5961
  553MOL0     H74643   9.468   8.864   6.757  2.2968 -0.0895  2.4555
  553MOL0     H74644   9.288   9.007   6.818  0.8365  0.3666 -1.1975
  553MOL0     H74645   9.146   9.140   6.964  0.1380  0.5555 -0.0183
  553MOL0     H74646   8.982   9.120   7.011  0.3342  2.3582 -3.1233
  553MOL0     H74647   9.025   8.967   7.189 -1.5793  0.4831 -1.1205
  553MOL0     H74648   9.089   9.126   7.219  1.2942  1.3594 -2.0257
  553MOL0     H74649   9.254   8.859   7.175  0.3354 -0.2400  1.3978
  553MOL0     H74650   9.256   8.984   7.300  1.3176  0.2121 -0.4330
  553MOL0     H74651   9.343   9.060   7.019  2.1716 -4.1810 -2.5981
  553MOL0     H74652   9.454   8.957   7.093  0.3331  2.6467 -1.8512
  553MOL0     H74653   9.492   9.323   7.307 -0.5236  0.5121 -0.5902
  553MOL0     H74654   9.091   8.688   7.020  0.5761  0.9846  1.1179
  553MOL0     H74655   9.257   8.541   6.931 -2.3378  0.0917 -1.5110
  554MOL0     O74656   9.291   0.575   4.609  0.2434  0.2179 -0.2033
  554MOL0     C74657   9.300   0.557   4.728  1.1254 -1.0940  0.0600
  554MOL0     O74658   9.293   0.438   4.795  0.5112  0.7227  0.5279
  554MOL0     C74659   9.277   0.318   4.723  0.5721 -0.0001  0.0300
  554MOL0     C74660   9.220   0.211   4.800  0.1343  0.5450  0.2574
  554MOL0     C74661   9.195   0.081   4.748 -0.0572 -0.0887 -0.0104
  554MOL0     C74662   9.224   0.058   4.611 -0.7760 -0.8882  0.0114
  554MOL0     O74663   9.207  -0.069   4.554 -0.8445 -0.5926 -0.5095
  554MOL0     C74664   9.082  -0.077   4.481 -0.2720 -0.3374  0.4137
  554MOL0     C74665   9.067  -0.227   4.451  0.5981 -0.5972 -0.3043
  554MOL0     C74666   9.052  -0.308   4.588 -0.5809 -0.5003 -0.1210
  554MOL0     C74667   9.055  -0.458   4.575 -0.0236  0.2235 -0.0106
  554MOL0     C74668   9.194  -0.521   4.589 -0.5470  0.0725  0.0452
  554MOL0     C74669   9.195  -0.664   4.613  0.0203 -0.0525 -0.0975
  554MOL0     C74670   9.137  -0.753   4.510 -0.3622  0.6133 -0.5783
  554MOL0     C74671   9.192  -0.752   4.370 -0.1562  0.0850  0.9320
  554MOL0     N74672   9.331  -0.769   4.343  0.5881 -0.1242 -0.2419
  554MOL0     C74673   9.426  -0.675   4.290 -0.1454  1.0707  0.0663
  554MOL0     C74674   9.523  -0.763   4.247  0.0415 -0.1307 -0.1939
  554MOL0     C74675   9.650  -0.722   4.167 -0.2154 -0.1219 -0.0944
  554MOL0     C74676   9.647  -0.746   4.016  0.2790  1.2464 -0.0545
  554MOL0     C74677   9.550  -0.650   3.941 -0.4764 -0.5815 -0.0889
  554MOL0     C74678   9.600  -0.612   3.802  0.1993  0.7175  0.3989
  554MOL0     O74679   9.706  -0.515   3.815  0.4171  0.4181 -0.8234
  554MOL0     C74680   9.778  -0.513   3.705  0.3930  0.2050 -0.2703
  554MOL0     C74681   9.716  -0.527   3.579 -0.0474 -0.3438 -0.7636
  554MOL0     C74682   9.780  -0.502   3.454 -0.4103  0.2283  0.0099
  554MOL0     C74683   9.696  -0.521   3.331  0.2386  0.3335 -0.0377
  554MOL0     C74684   9.918  -0.468   3.456  0.2107  0.2071 -0.9572
  554MOL0     C74685   9.997  -0.439   3.336  0.9519  0.0285  0.2383
  554MOL0     O74686   9.991  -0.524   3.224  0.0660 -0.0879 -0.6308
  554MOL0     C74687  10.074  -0.497   3.122 -0.3616  0.6082 -0.1664
  554MOL0     C74688  10.015  -0.417   3.021 -0.6173  0.6497 -0.4910
  554MOL0     C74689  10.100  -0.367   2.920  0.2954 -0.9392 -0.3350
  554MOL0     C74690  10.232  -0.412   2.909  0.6109  0.0288  0.1068
  554MOL0     O74691  10.315  -0.385   2.812 -0.0718  0.0591  0.6641
  554MOL0     C74692  10.280  -0.332   2.682  0.1491  0.0638 -0.0684
  554MOL0     C74693  10.193  -0.428   2.588 -0.8115 -1.4127  1.3299
  554MOL0     C74694  10.156  -0.379   2.453  0.1571 -0.4095 -0.1427
  554MOL0     C74695  10.282  -0.341   2.375 -0.1062 -0.2021 -0.2235
  554MOL0     C74696  10.308  -0.192   2.375 -0.2303  0.5212  0.9823
  554MOL0     C74697  10.442  -0.160   2.308  0.0988  0.2337  0.7992
  554MOL0     C74698  10.498  -0.030   2.330  0.3875  0.1702 -0.1054
  554MOL0     C74699  10.397   0.079   2.298  0.2010  0.2289  0.8723
  554MOL0    Cl74700  10.480   0.236   2.328  0.2887  0.0558  0.5013
  554MOL0     C74701  10.290  -0.487   3.009  0.5074 -0.2115 -0.7158
  554MOL0     C74702  10.209  -0.525   3.119 -0.1807  0.5171 -0.4526
  554MOL0     O74703  10.090  -0.363   3.352  0.1944 -0.7448  0.2085
  554MOL0     C74704   9.976  -0.443   3.580  0.0274  0.0639  0.3818
  554MOL0     C74705   9.908  -0.471   3.699 -0.5302 -0.3274 -0.6606
  554MOL0     N74706   9.496  -0.887   4.282 -0.3369  0.1689 -0.0143
  554MOL0     N74707   9.384  -0.898   4.346 -0.6084  0.1604 -0.6539
  554MOL0     C74708   9.274   0.168   4.529 -0.1924  0.1064 -0.9583
  554MOL0     C74709   9.308   0.291   4.584 -0.1849 -0.2032 -0.5208
  554MOL0     C74710   9.323   0.671   4.819  1.2715  0.7457 -0.3759
  554MOL0     C74711   9.340   0.663   4.955 -0.0092  0.1310  0.6492
  554MOL0     C74712   9.368   0.784   5.029  1.1900 -0.0877 -0.0356
  554MOL0     C74713   9.379   0.909   4.964  0.2465  0.2364 -0.2462
  554MOL0     O74714   9.405   1.031   5.032  0.4424 -0.4153  0.1769
  554MOL0     C74715   9.439   1.028   5.173 -0.4286  0.0203 -1.0465
  554MOL0     C74716   9.473   1.174   5.208 -0.6553  1.1850 -0.3023
  554MOL0     C74717   9.595   1.215   5.128 -0.6251 -0.4026 -0.2097
  554MOL0     C74718   9.652   1.340   5.193 -0.4946  0.1516  0.1474
  554MOL0     C74719   9.777   1.375   5.123  0.4189  0.2606 -1.1930
  554MOL0     C74720   9.873   1.398   5.056 -0.2342  0.5820 -0.1325
  554MOL0     C74721   9.369   0.912   4.827  0.0859  1.2228  1.1025
  554MOL0     C74722   9.332   0.796   4.756  0.0564 -0.4918 -0.4595
  554MOL0     H74723   9.184   0.231   4.900  0.8169  1.3662  0.3515
  554MOL0     H74724   9.125   0.017   4.801  1.0967 -0.2927  1.3559
  554MOL0     H74725   9.000  -0.044   4.544  0.0318 -1.4068  1.4203
  554MOL0     H74726   9.078  -0.018   4.389  0.2836 -1.3177 -0.2645
  554MOL0     H74727   8.971  -0.250   4.403 -0.3969  0.4356  1.0984
  554MOL0     H74728   9.154  -0.264   4.395  2.8213  1.6143  1.4640
  554MOL0     H74729   9.127  -0.275   4.660  1.2819 -1.2515 -1.6295
  554MOL0     H74730   8.957  -0.281   4.635  1.2137  2.0478  2.3364
  554MOL0     H74731   8.997  -0.496   4.659  0.9267 -0.4095  0.3842
  554MOL0     H74732   8.997  -0.493   4.489 -0.7840 -2.5123  1.5128
  554MOL0     H74733   9.239  -0.493   4.493 -2.4069 -0.8845 -1.1506
  554MOL0     H74734   9.247  -0.484   4.678  0.2093 -2.8214  0.9024
  554MOL0     H74735   9.301  -0.691   4.618  0.2913  1.0446  0.4793
  554MOL0     H74736   9.158  -0.673   4.715  0.6436  0.8002  0.2223
  554MOL0     H74737   9.117  -0.854   4.547  0.6386  1.8823  4.2234
  554MOL0     H74738   9.033  -0.719   4.508 -1.1175 -1.5484 -1.0273
  554MOL0     H74739   9.160  -0.657   4.326 -1.3364 -0.4564  0.5737
  554MOL0     H74740   9.144  -0.831   4.312 -0.3858  3.0684 -3.4711
  554MOL0     H74741   9.426  -0.567   4.275  2.2025  0.9852 -0.9366
  554MOL0     H74742   9.674  -0.618   4.192  0.4965 -0.5091  0.9256
  554MOL0     H74743   9.735  -0.779   4.208 -0.4227  0.4157  1.1314
  554MOL0     H74744   9.615  -0.848   3.997  2.7506  0.6929 -1.7946
  554MOL0     H74745   9.749  -0.741   3.977  0.3614 -1.4528 -0.3723
  554MOL0     H74746   9.557  -0.556   3.996  1.8039 -0.7800  0.0791
  554MOL0     H74747   9.449  -0.691   3.946  0.1988 -2.4217 -0.4579
  554MOL0     H74748   9.514  -0.566   3.751 -0.1273  0.7334  0.9536
  554MOL0     H74749   9.637  -0.704   3.756  1.3389  1.6139 -0.5458
  554MOL0     H74750   9.613  -0.561   3.567 -0.3011 -0.0059  0.3671
  554MOL0     H74751   9.707  -0.431   3.270 -1.7708 -0.0096 -0.9978
  554MOL0     H74752   9.713  -0.619   3.285 -4.6287 -1.1857  0.8706
  554MOL0     H74753   9.589  -0.525   3.354  0.1630  1.2946 -0.1817
  554MOL0     H74754   9.912  -0.388   3.042 -0.1667  2.2388 -0.3586
  554MOL0     H74755  10.047  -0.308   2.845  0.1315 -1.3688 -0.5586
  554MOL0     H74756  10.225  -0.240   2.704 -2.2527 -1.2007 -0.3805
  554MOL0     H74757  10.366  -0.298   2.625  1.0689 -2.0824 -0.0486
  554MOL0     H74758  10.251  -0.521   2.588  0.8973 -0.4631  3.7753
  554MOL0     H74759  10.101  -0.448   2.644 -0.3832 -2.4538  1.6833
  554MOL0     H74760  10.083  -0.300   2.471 -0.9163 -0.4987 -3.4927
  554MOL0     H74761  10.097  -0.453   2.398 -1.2526 -0.2042  1.0355
  554MOL0     H74762  10.362  -0.389   2.432  0.4424  2.3546  1.3100
  554MOL0     H74763  10.267  -0.380   2.274 -1.4427 -0.4904  0.0683
  554MOL0     H74764  10.324  -0.153   2.476  0.3007 -0.6472  1.3628
  554MOL0     H74765  10.224  -0.144   2.324  0.3394 -0.2158 -0.7157
  554MOL0     H74766  10.516  -0.230   2.348  1.3319  0.7931 -0.4202
  554MOL0     H74767  10.419  -0.169   2.201 -1.3440  1.7291  0.9494
  554MOL0     H74768  10.570  -0.014   2.250 -0.4260 -0.4626 -0.9768
  554MOL0     H74769  10.550  -0.018   2.426  1.5719 -2.1925 -0.4000
  554MOL0     H74770  10.303   0.068   2.353 -0.1922  1.9544  0.6131
  554MOL0     H74771  10.368   0.070   2.193  0.5996  1.1198  0.6764
  554MOL0     H74772  10.395  -0.513   3.001  0.5531  0.1200 -1.1815
  554MOL0     H74773  10.239  -0.574   3.212 -0.4756  2.3278  0.6370
  554MOL0     H74774  10.083  -0.422   3.583  0.1894 -0.7351  0.3033
  554MOL0     H74775   9.955  -0.447   3.794  0.4724 -0.1580 -1.1826
  554MOL0     H74776   9.287   0.141   4.425 -2.4122  1.2429 -1.5889
  554MOL0     H74777   9.362   0.365   4.526  0.1680  0.0681  0.1344
  554MOL0     H74778   9.354   0.564   4.997  1.1231 -0.3151 -0.6705
  554MOL0     H74779   9.387   0.765   5.134  1.7386 -2.5417 -0.5087
  554MOL0     H74780   9.358   0.991   5.237 -0.1239  2.0564  0.6446
  554MOL0     H74781   9.529   0.968   5.188 -0.2445  0.8579  1.7876
  554MOL0     H74782   9.489   1.169   5.316 -0.7261  1.9982 -0.2473
  554MOL0     H74783   9.386   1.236   5.185 -0.6499  0.8468 -1.3166
  554MOL0     H74784   9.564   1.234   5.025 -0.0374  1.1225 -0.1333
  554MOL0     H74785   9.661   1.128   5.131 -1.9010 -1.4039  2.2565
  554MOL0     H74786   9.674   1.330   5.300 -2.9299 -1.2410  0.5936
  554MOL0     H74787   9.582   1.422   5.178  0.1502  0.5405 -0.8617
  554MOL0     H74788   9.966   1.406   5.003  0.2361  0.2221  0.6237
  554MOL0     H74789   9.365   1.009   4.779 -4.1783  1.0099  0.6628
  554MOL0     H74790   9.329   0.798   4.647  2.8223 -2.8286 -0.7035
  555MOL0     O74791   6.321   6.150   0.878 -0.6122  0.1338  0.7330
  555MOL0     C74792   6.329   6.078   0.973  0.6750 -0.2865 -0.9204
  555MOL0     O74793   6.227   6.004   1.028  0.9112 -0.4240  0.3688
  555MOL0     C74794   6.098   6.041   1.009 -0.0313 -0.2037 -0.3937
  555MOL0     C74795   6.047   6.111   0.891  0.0314  0.4068 -0.3653
  555MOL0     C74796   5.908   6.142   0.872 -0.0700  0.0660  0.4589
  555MOL0     C74797   5.817   6.086   0.959  1.3618  0.8800  0.5091
  555MOL0     O74798   5.684   6.114   0.935 -0.1784  0.4491  0.3540
  555MOL0     C74799   5.587   6.112   1.044  0.3752 -0.1409 -0.0680
  555MOL0     C74800   5.441   6.155   0.996  0.0029  0.2487  0.4287
  555MOL0     C74801   5.325   6.141   1.097 -0.5802 -0.4826  0.2012
  555MOL0     C74802   5.258   6.005   1.075 -0.6424 -0.0220 -0.2536
  555MOL0     C74803   5.140   5.987   1.170 -0.4694  0.5659 -0.5105
  555MOL0     C74804   5.129   5.845   1.220  0.2210  0.1273 -0.3574
  555MOL0     C74805   5.054   5.854   1.350  0.3194  0.7425  0.1172
  555MOL0     C74806   5.035   5.714   1.412 -0.9322  0.1103  0.5606
  555MOL0     N74807   5.168   5.662   1.445 -0.0559 -0.2808  0.4362
  555MOL0     C74808   5.232   5.667   1.571 -0.0764  0.2713  0.7406
  555MOL0     C74809   5.328   5.571   1.573  0.2250  0.5768  0.2941
  555MOL0     C74810   5.406   5.544   1.696 -0.3212  0.3371  0.1172
  555MOL0     C74811   5.549   5.496   1.682 -0.3662 -0.8140  0.3499
  555MOL0     C74812   5.601   5.410   1.791 -0.6093 -0.2287  0.1584
  555MOL0     C74813   5.737   5.353   1.750  0.3235 -0.2922  0.6304
  555MOL0     O74814   5.811   5.286   1.858  0.0760  0.2086 -0.4043
  555MOL0     C74815   5.870   5.363   1.955  1.2449 -0.7980 -0.1501
  555MOL0     C74816   5.992   5.408   1.928 -2.0772 -0.3477 -0.3183
  555MOL0     C74817   6.058   5.495   2.015  0.8627 -0.4870 -0.5817
  555MOL0     C74818   6.195   5.543   1.980 -0.5320  0.2351 -0.0000
  555MOL0     C74819   5.994   5.532   2.139  0.4879  0.0613  0.3845
  555MOL0     C74820   6.052   5.613   2.244 -0.3819 -0.1952 -0.3931
  555MOL0     O74821   6.152   5.698   2.207 -0.5819 -0.1215  0.2809
  555MOL0     C74822   6.210   5.787   2.303  0.0765  0.3879 -0.1354
  555MOL0     C74823   6.292   5.722   2.396 -0.1805 -0.6440 -0.2296
  555MOL0     C74824   6.369   5.790   2.486 -0.7791  1.2411  0.5648
  555MOL0     C74825   6.360   5.934   2.482 -0.0487 -0.7672  0.8525
  555MOL0     O74826   6.409   6.021   2.576 -0.2860 -0.0703  0.1498
  555MOL0     C74827   6.462   5.968   2.696 -0.3923 -0.1596 -0.4094
  555MOL0     C74828   6.624   5.956   2.672  0.1757 -0.1666 -0.1456
  555MOL0     C74829   6.687   6.086   2.613  0.9844 -0.3817 -0.7292
  555MOL0     C74830   6.833   6.069   2.577 -0.2115 -0.0420  0.4710
  555MOL0     C74831   6.846   6.006   2.439 -0.0745  0.5420  0.1191
  555MOL0     C74832   6.981   5.947   2.428 -0.7868  0.1913 -0.0728
  555MOL0     C74833   7.034   5.915   2.286 -0.5121 -0.1278 -0.0987
  555MOL0     C74834   7.161   5.837   2.285 -1.1843  0.2499  0.1681
  555MOL0    Cl74835   7.233   5.815   2.113  0.0562 -0.3585  0.3912
  555MOL0     C74836   6.272   5.995   2.390  0.1419  0.0190  0.5794
  555MOL0     C74837   6.208   5.925   2.294  1.0108 -0.5195 -0.4021
  555MOL0     O74838   6.008   5.603   2.363 -0.2242 -0.0781  0.5454
  555MOL0     C74839   5.870   5.465   2.173  0.2781 -0.0884 -0.1185
  555MOL0     C74840   5.805   5.388   2.075  0.7674  0.1986  0.4928
  555MOL0     N74841   5.322   5.518   1.451  0.5774 -0.4150  1.0199
  555MOL0     N74842   5.235   5.564   1.377  0.8196 -0.0817 -0.5262
  555MOL0     C74843   5.870   6.021   1.074  0.3551 -0.0554 -0.6684
  555MOL0     C74844   6.007   5.993   1.095 -0.1496  0.0499 -0.5990
  555MOL0     C74845   6.462   6.055   1.034  0.1466  0.4484 -0.6277
  555MOL0     C74846   6.567   6.140   1.026  0.3506 -0.1947 -0.1520
  555MOL0     C74847   6.691   6.113   1.091 -0.3920 -0.4030 -1.1692
  555MOL0     C74848   6.702   5.992   1.167 -0.6914  0.4294  0.9497
  555MOL0     O74849   6.817   5.944   1.226  0.0993 -0.0657 -0.4424
  555MOL0     C74850   6.927   6.034   1.251 -1.0259 -0.5141  0.1146
  555MOL0     C74851   7.034   5.938   1.319  0.3646  0.6577  0.0606
  555MOL0     C74852   7.167   6.002   1.372  0.4726  0.4306  0.7705
  555MOL0     C74853   7.256   6.076   1.264  0.8088  0.2520 -0.0939
  555MOL0     C74854   7.258   6.002   1.138  0.6069  0.7504  0.4487
  555MOL0     C74855   7.258   5.947   1.026  0.0118 -0.0939  0.0994
  555MOL0     C74856   6.594   5.907   1.175  0.2419  0.9888 -0.6823
  555MOL0     C74857   6.480   5.941   1.112  0.3186 -0.0249 -0.5358
  555MOL0     H74858   6.103   6.151   0.807 -0.4140  0.4107 -0.6631
  555MOL0     H74859   5.871   6.201   0.789 -0.9690  0.9030  1.4193
  555MOL0     H74860   5.580   6.010   1.081 -0.1396 -0.2908 -0.5590
  555MOL0     H74861   5.605   6.184   1.124 -1.4971  2.7649 -2.0524
  555MOL0     H74862   5.455   6.257   0.959 -0.7144 -0.8742 -3.4635
  555MOL0     H74863   5.416   6.101   0.904 -0.8243 -0.7396  1.2081
  555MOL0     H74864   5.361   6.151   1.200  1.2594  3.1767 -0.5926
  555MOL0     H74865   5.250   6.221   1.091 -1.0790 -0.8795  1.0072
  555MOL0     H74866   5.217   6.001   0.974 -0.5371 -0.6620 -0.2754
  555MOL0     H74867   5.324   5.919   1.058 -1.1322 -0.0392 -2.2228
  555MOL0     H74868   5.147   6.051   1.258 -1.3116  0.5607 -0.4267
  555MOL0     H74869   5.044   6.006   1.121 -1.2176 -0.0120  0.6773
  555MOL0     H74870   5.080   5.777   1.150 -2.8648 -0.8501  2.4181
  555MOL0     H74871   5.232   5.815   1.241  0.2888  1.9156  2.5533
  555MOL0     H74872   5.096   5.925   1.422 -1.5030  0.3536  1.6408
  555MOL0     H74873   4.954   5.895   1.339  0.4700  1.5780  1.5943
  555MOL0     H74874   4.982   5.649   1.342  0.1104  0.5278 -0.6371
  555MOL0     H74875   4.967   5.723   1.497 -2.1662 -3.9692  0.2151
  555MOL0     H74876   5.221   5.732   1.657  2.1923 -0.0578  1.3427
  555MOL0     H74877   5.407   5.640   1.750  0.5573  0.7920 -0.6826
  555MOL0     H74878   5.342   5.474   1.750 -1.5445  1.2166 -0.1418
  555MOL0     H74879   5.608   5.588   1.677 -0.6223 -0.7141 -1.3743
  555MOL0     H74880   5.562   5.437   1.591  1.0629 -1.7345  1.1196
  555MOL0     H74881   5.525   5.332   1.797 -2.7866  1.8534  1.4432
  555MOL0     H74882   5.604   5.472   1.881 -0.8352  0.4880 -0.3130
  555MOL0     H74883   5.807   5.431   1.718 -0.3521  0.8651  1.8498
  555MOL0     H74884   5.719   5.286   1.665 -1.5047 -0.0178  0.7613
  555MOL0     H74885   6.035   5.369   1.837  1.1558  0.5993  0.6793
  555MOL0     H74886   6.267   5.506   2.054 -1.8340 -4.1038 -0.6379
  555MOL0     H74887   6.227   5.498   1.886  2.5126  0.6948  0.7028
  555MOL0     H74888   6.204   5.652   1.974  1.4280  0.1210  0.2693
  555MOL0     H74889   6.292   5.614   2.387  0.8233 -0.6501 -0.2253
  555MOL0     H74890   6.435   5.736   2.552  0.0129  1.9263  0.3555
  555MOL0     H74891   6.439   6.036   2.779  0.1738 -1.0376  0.4955
  555MOL0     H74892   6.418   5.875   2.733  0.9330  0.0973  2.0362
  555MOL0     H74893   6.673   5.931   2.766  1.1915 -0.4206 -0.7341
  555MOL0     H74894   6.645   5.875   2.602  2.2310  0.2328 -0.0371
  555MOL0     H74895   6.682   6.151   2.701 -2.0445  1.1200 -1.8912
  555MOL0     H74896   6.627   6.131   2.534 -2.6055  0.1958  2.0359
  555MOL0     H74897   6.876   6.170   2.578 -1.3681  0.4733  0.1513
  555MOL0     H74898   6.888   6.017   2.656  1.7099  2.9984  1.3303
  555MOL0     H74899   6.833   6.083   2.363  0.4145  0.2410 -0.2795
  555MOL0     H74900   6.776   5.924   2.423 -0.0908 -0.0529  2.7740
  555MOL0     H74901   7.051   6.012   2.482  0.2517 -0.7154 -0.2859
  555MOL0     H74902   6.987   5.855   2.487  0.3000 -1.0946 -2.0806
  555MOL0     H74903   7.047   6.018   2.251  3.9106  0.4379  2.4672
  555MOL0     H74904   6.953   5.860   2.238 -2.5682 -1.1659  4.1589
  555MOL0     H74905   7.164   5.742   2.339  2.3002  1.1544  1.8998
  555MOL0     H74906   7.235   5.892   2.345 -0.9780 -0.6650  0.7724
  555MOL0     H74907   6.253   6.102   2.390  0.3160  0.0663 -0.4455
  555MOL0     H74908   6.141   5.974   2.225 -1.5699  0.5437  2.6462
  555MOL0     H74909   5.820   5.493   2.265 -1.5284  3.0728 -1.8878
  555MOL0     H74910   5.708   5.346   2.099  1.2036 -1.2741 -0.1615
  555MOL0     H74911   5.804   5.978   1.148  2.7237 -3.0832 -0.1112
  555MOL0     H74912   6.027   5.940   1.187 -0.6722  0.2944 -0.3384
  555MOL0     H74913   6.556   6.237   0.977 -0.6051  0.4361  1.2280
  555MOL0     H74914   6.764   6.193   1.102 -2.0190  1.0772 -0.6998
  555MOL0     H74915   6.971   6.080   1.162  0.0353 -1.7988 -0.0598
  555MOL0     H74916   6.906   6.116   1.320  1.4966  0.6749 -0.3918
  555MOL0     H74917   7.048   5.851   1.254 -4.2566 -0.4447  0.2013
  555MOL0     H74918   6.988   5.901   1.411  1.0924  0.4984  0.3677
  555MOL0     H74919   7.234   5.926   1.413  3.3976  2.2135 -0.3959
  555MOL0     H74920   7.132   6.077   1.443 -2.8993  0.9422 -1.2089
  555MOL0     H74921   7.359   6.084   1.301  0.0260  0.9543  2.1275
  555MOL0     H74922   7.211   6.173   1.241  1.0150 -0.3975 -3.8327
  555MOL0     H74923   7.250   5.884   0.940  2.0187  0.6249 -0.6767
  555MOL0     H74924   6.595   5.827   1.247  0.6701  1.0508 -0.6149
  555MOL0     H74925   6.397   5.872   1.131 -0.1257  1.3637  3.6116
  556MOL0     O74926   2.127   0.403   3.311  0.0176 -0.2818 -0.2546
  556MOL0     C74927   2.079   0.355   3.407  0.6945 -0.0517 -0.9259
  556MOL0     O74928   2.145   0.331   3.527  0.2178 -0.0299 -0.2671
  556MOL0     C74929   2.274   0.383   3.548 -0.1466 -0.5481 -0.1121
  556MOL0     C74930   2.378   0.363   3.453  0.5997  0.1024 -0.2093
  556MOL0     C74931   2.503   0.429   3.467 -0.1047  0.8215  0.5095
  556MOL0     C74932   2.529   0.503   3.583  0.7393 -0.6883  0.9468
  556MOL0     O74933   2.636   0.579   3.612 -0.7319 -0.2078  0.3790
  556MOL0     C74934   2.725   0.603   3.504  0.0178 -0.1118  0.2208
  556MOL0     C74935   2.807   0.732   3.532  0.3623  0.0884 -0.1574
  556MOL0     C74936   2.910   0.758   3.417  0.7201 -0.3106  0.1704
  556MOL0     C74937   3.006   0.882   3.438  0.0019 -0.2193 -0.1839
  556MOL0     C74938   2.970   0.996   3.340 -0.1619 -0.4686  0.5481
  556MOL0     C74939   3.069   1.120   3.342 -0.5050  0.0156 -0.4889
  556MOL0     C74940   3.221   1.077   3.328  1.0305 -0.0905  0.6573
  556MOL0     C74941   3.253   1.039   3.184 -0.6679  0.0926 -1.3515
  556MOL0     N74942   3.400   1.013   3.170 -0.2924 -0.0780  0.8399
  556MOL0     C74943   3.485   0.930   3.248  0.0599 -0.0832 -0.9550
  556MOL0     C74944   3.603   0.920   3.183  0.3047  1.2695 -0.4819
  556MOL0     C74945   3.730   0.836   3.209 -0.4979  0.3850 -1.0984
  556MOL0     C74946   3.749   0.717   3.104  0.2059  0.3562 -0.2138
  556MOL0     C74947   3.772   0.773   2.967  0.1536  0.3870 -0.1448
  556MOL0     C74948   3.905   0.839   2.971 -0.3558 -0.1020  0.3360
  556MOL0     O74949   4.018   0.740   2.994  0.0900 -0.1325  0.0060
  556MOL0     C74950   4.147   0.771   2.957  0.6036 -0.3096  0.7224
  556MOL0     C74951   4.194   0.900   2.979 -0.7212 -0.6762  0.3866
  556MOL0     C74952   4.325   0.941   2.943  0.7110 -0.0010  0.5386
  556MOL0     C74953   4.355   1.075   2.990  0.2901  0.1392 -0.5933
  556MOL0     C74954   4.397   0.862   2.854  0.3393  0.3538  0.3218
  556MOL0     C74955   4.520   0.901   2.792 -0.7745  0.0956 -0.2321
  556MOL0     O74956   4.565   1.028   2.814  0.2153 -0.3985  0.1655
  556MOL0     C74957   4.677   1.056   2.739 -0.6999 -0.3630  0.8571
  556MOL0     C74958   4.813   1.037   2.778 -0.0163  0.3825 -0.5825
  556MOL0     C74959   4.928   1.053   2.694 -1.3136  0.4690  0.6739
  556MOL0     C74960   4.905   1.109   2.569 -1.1201  0.6187 -0.0392
  556MOL0     O74961   5.010   1.130   2.475  0.4941  0.4997  0.2350
  556MOL0     C74962   5.123   1.190   2.531 -0.7494 -0.1913  0.0018
  556MOL0     C74963   5.197   1.281   2.435  0.7756 -0.4213  0.1472
  556MOL0     C74964   5.269   1.192   2.325 -0.1757 -0.2649  0.5139
  556MOL0     C74965   5.279   1.261   2.183  0.1829 -0.3740 -1.3044
  556MOL0     C74966   5.347   1.158   2.084  0.5296  0.6363 -0.5101
  556MOL0     C74967   5.499   1.155   2.093  0.9072  0.3917 -0.9627
  556MOL0     C74968   5.560   1.064   1.995 -0.4128  1.5088  1.0215
  556MOL0     C74969   5.584   1.131   1.855  0.4879  0.5680  0.2280
  556MOL0    Cl74970   5.447   1.127   1.745 -0.1855  0.5454 -0.1719
  556MOL0     C74971   4.782   1.143   2.527  0.0880 -0.0351 -0.4292
  556MOL0     C74972   4.671   1.122   2.612 -0.9103 -0.2553  0.7268
  556MOL0     O74973   4.551   0.830   2.694 -0.2071  0.1844  0.1146
  556MOL0     C74974   4.352   0.732   2.825  0.2747  0.1029  0.3848
  556MOL0     C74975   4.229   0.675   2.884 -0.1759  0.5702 -0.4734
  556MOL0     N74976   3.593   1.009   3.076 -0.3934 -0.4688 -0.4406
  556MOL0     N74977   3.475   1.055   3.062 -0.1447  0.1800 -0.7264
  556MOL0     C74978   2.427   0.519   3.673 -0.1786 -0.1571  0.0536
  556MOL0     C74979   2.303   0.443   3.672 -0.6775 -0.3952 -0.2360
  556MOL0     C74980   1.945   0.283   3.405 -0.0558  0.3737  0.4445
  556MOL0     C74981   1.862   0.304   3.300 -0.4558 -0.8638  0.7703
  556MOL0     C74982   1.739   0.239   3.292  0.1021 -0.6440 -0.7470
  556MOL0     C74983   1.695   0.166   3.399 -0.0111  0.0589 -0.2267
  556MOL0     O74984   1.573   0.106   3.396 -0.4151  0.2460  0.0507
  556MOL0     C74985   1.501   0.092   3.272  0.8750 -0.8019 -0.5203
  556MOL0     C74986   1.391  -0.013   3.292 -0.0081  0.4638  0.2805
  556MOL0     C74987   1.289   0.054   3.382 -0.3830  0.0005 -0.5926
  556MOL0     C74988   1.167  -0.040   3.394 -0.4065 -1.1423 -0.0707
  556MOL0     C74989   1.085  -0.018   3.280 -0.1361 -1.0013  1.0249
  556MOL0     C74990   1.031   0.001   3.172 -0.5528 -0.3620 -0.3834
  556MOL0     C74991   1.788   0.129   3.498 -0.0511 -0.1180  1.0514
  556MOL0     C74992   1.910   0.188   3.503 -0.8901 -0.3957 -0.2576
  556MOL0     H74993   2.350   0.306   3.364 -1.1816  3.2733 -1.8503
  556MOL0     H74994   2.592   0.422   3.405 -0.8615  0.5107 -0.5778
  556MOL0     H74995   2.787   0.515   3.481 -1.8073 -2.1967  2.7345
  556MOL0     H74996   2.681   0.622   3.406  1.8332  1.5493 -0.3422
  556MOL0     H74997   2.737   0.814   3.548 -1.1169 -0.7040 -2.0921
  556MOL0     H74998   2.872   0.713   3.618 -0.8915 -1.1797  0.5671
  556MOL0     H74999   2.974   0.671   3.402  0.8762  0.0408 -1.3751
  556MOL0     H75000   2.857   0.775   3.323 -2.0345 -2.0015  1.3075
  556MOL0     H75001   2.988   0.931   3.534 -0.6815 -0.3366 -0.2498
  556MOL0     H75002   3.111   0.851   3.436  1.6384  3.5092  5.1525
  556MOL0     H75003   2.954   0.962   3.238 -1.2070  2.8539 -0.5311
  556MOL0     H75004   2.872   1.023   3.382  0.0706 -2.4193  2.5184
  556MOL0     H75005   3.036   1.195   3.270  0.1710 -0.0023 -0.8230
  556MOL0     H75006   3.063   1.154   3.446 -1.7770  0.8072 -0.7975
  556MOL0     H75007   3.277   1.165   3.361  2.1662 -0.3772 -0.3970
  556MOL0     H75008   3.244   1.006   3.407 -3.2669  0.0282  2.2648
  556MOL0     H75009   3.218   1.123   3.123 -1.5585  0.2565 -0.6506
  556MOL0     H75010   3.193   0.950   3.162 -1.2079  0.3700 -1.0355
  556MOL0     H75011   3.456   0.886   3.343 -0.7191  0.2133 -1.0435
  556MOL0     H75012   3.815   0.903   3.227  0.5055 -0.7670 -1.4062
  556MOL0     H75013   3.717   0.790   3.308 -1.3157  1.4359 -0.6995
  556MOL0     H75014   3.653   0.665   3.100  0.5391 -0.3584  0.6780
  556MOL0     H75015   3.826   0.641   3.121  0.8736  0.0456 -3.9182
  556MOL0     H75016   3.703   0.844   2.921 -0.0774  0.1386 -0.1812
  556MOL0     H75017   3.764   0.692   2.893  0.9441 -0.0797  0.2646
  556MOL0     H75018   3.912   0.911   3.053 -1.1120 -0.3557  0.6372
  556MOL0     H75019   3.921   0.898   2.881  0.8303 -0.8670  0.0293
  556MOL0     H75020   4.127   0.964   3.035 -0.9339 -2.4168  2.2313
  556MOL0     H75021   4.295   1.104   3.077  1.8798 -1.2194  1.0224
  556MOL0     H75022   4.461   1.086   3.011 -0.2625  0.8309  2.2742
  556MOL0     H75023   4.337   1.139   2.903 -2.7799  0.4268  0.1364
  556MOL0     H75024   4.825   0.993   2.876  0.6427  3.2725  0.7328
  556MOL0     H75025   5.025   1.021   2.730 -1.3139  0.9581  1.1067
  556MOL0     H75026   5.080   1.254   2.608 -2.9469 -2.0347  0.4120
  556MOL0     H75027   5.191   1.123   2.585  1.1855  1.8893  0.2871
  556MOL0     H75028   5.129   1.351   2.385  0.3952 -1.1566 -0.3991
  556MOL0     H75029   5.262   1.342   2.497 -0.2709 -0.1516  1.0112
  556MOL0     H75030   5.221   1.094   2.329  3.2326 -2.1064  0.5182
  556MOL0     H75031   5.375   1.178   2.350  0.0095  0.6898  0.2885
  556MOL0     H75032   5.176   1.274   2.150  0.2443  0.6178 -1.1359
  556MOL0     H75033   5.328   1.358   2.198 -0.2632 -0.3946  0.5250
  556MOL0     H75034   5.321   1.186   1.982  2.2821  1.6438 -0.7198
  556MOL0     H75035   5.305   1.060   2.108 -2.7898  2.4210  1.7681
  556MOL0     H75036   5.528   1.261   2.091 -2.8468  1.7169  2.4437
  556MOL0     H75037   5.530   1.110   2.188 -3.2049  1.0429  0.9152
  556MOL0     H75038   5.502   0.972   1.983 -0.4471  1.4298  1.7590
  556MOL0     H75039   5.661   1.033   2.023 -0.7045  0.4953  0.9804
  556MOL0     H75040   5.669   1.091   1.799 -0.9472 -0.8438 -1.0209
  556MOL0     H75041   5.609   1.236   1.876  2.1689  0.1824  0.3001
  556MOL0     H75042   4.763   1.210   2.443 -2.8165 -0.0814  0.0780
  556MOL0     H75043   4.579   1.156   2.566 -0.8596 -1.8695 -0.6644
  556MOL0     H75044   4.397   0.666   2.752  1.6583  1.5552 -0.1526
  556MOL0     H75045   4.199   0.572   2.869  0.6871  0.5500 -2.4117
  556MOL0     H75046   2.447   0.595   3.748 -0.0805 -0.0552 -0.0752
  556MOL0     H75047   2.224   0.460   3.745  1.8549 -0.1764  2.6823
  556MOL0     H75048   1.910   0.368   3.227 -0.5459 -3.4442 -1.6996
  556MOL0     H75049   1.676   0.257   3.205 -0.8684 -1.6532 -0.2825
  556MOL0     H75050   1.452   0.189   3.257  1.2001 -0.4318  0.7351
  556MOL0     H75051   1.559   0.072   3.181 -2.3381  0.1621 -2.9782
  556MOL0     H75052   1.432  -0.106   3.333 -1.6900 -1.1481 -1.5119
  556MOL0     H75053   1.345  -0.019   3.193 -2.9379 -0.3595  1.5788
  556MOL0     H75054   1.261   0.146   3.331  3.3658  1.3920 -0.4311
  556MOL0     H75055   1.327   0.076   3.482 -0.9620 -1.1785 -0.0858
  556MOL0     H75056   1.103  -0.013   3.479  0.1777  0.6707 -0.1617
  556MOL0     H75057   1.194  -0.145   3.412 -0.2866 -0.8783  1.4613
  556MOL0     H75058   0.991   0.039   3.080  1.1227  2.2618 -0.1276
  556MOL0     H75059   1.755   0.053   3.568  0.2776 -1.4964 -0.2556
  556MOL0     H75060   1.966   0.164   3.593 -2.8756 -3.1420  0.3701
  557MOL0     O75061   4.156   8.806   0.201  0.1147  0.3156  0.3409
  557MOL0     C75062   4.040   8.816   0.166 -0.4193 -0.6152 -0.3942
  557MOL0     O75063   3.932   8.829   0.256  0.4166  0.6774 -0.2557
  557MOL0     C75064   3.952   8.800   0.382 -0.7143 -0.4798 -0.1531
  557MOL0     C75065   3.971   8.672   0.424 -0.5021  1.2356  0.0520
  557MOL0     C75066   3.976   8.640   0.562  0.3348 -0.2328 -0.0593
  557MOL0     C75067   3.961   8.735   0.663  0.1874  0.6509  0.2372
  557MOL0     O75068   3.958   8.697   0.793 -0.2288  0.7101 -0.2729
  557MOL0     C75069   4.007   8.792   0.888  0.6292  0.3779  0.1546
  557MOL0     C75070   4.063   8.719   1.014  0.0503 -0.1005 -0.6239
  557MOL0     C75071   4.017   8.787   1.138  0.0773  0.0693 -0.1516
  557MOL0     C75072   4.078   8.744   1.271  0.2350 -0.4553  0.6070
  557MOL0     C75073   3.995   8.810   1.383  1.1943 -0.6045 -0.3735
  557MOL0     C75074   4.005   8.959   1.375  0.0545  0.1538 -0.4274
  557MOL0     C75075   3.940   9.022   1.500 -0.3890 -0.4044  0.3204
  557MOL0     C75076   3.973   9.168   1.490 -0.8011  0.1494 -0.1539
  557MOL0     N75077   3.919   9.236   1.606 -0.8352  0.3507 -0.4371
  557MOL0     C75078   3.974   9.216   1.733  0.1940  0.0504  0.8573
  557MOL0     C75079   3.899   9.278   1.818  0.1552  0.2703  0.0401
  557MOL0     C75080   3.927   9.292   1.966 -0.1470  0.2852  0.2323
  557MOL0     C75081   4.062   9.352   1.997  0.2438 -0.8432 -0.6119
  557MOL0     C75082   4.081   9.493   1.937 -0.0359  0.7128 -0.5342
  557MOL0     C75083   4.209   9.560   1.979 -0.1059 -0.0776 -1.0723
  557MOL0     O75084   4.195   9.694   1.938  0.1334 -1.0344  1.1034
  557MOL0     C75085   4.252   9.800   2.006  0.0828  0.4797  0.0993
  557MOL0     C75086   4.329   9.782   2.115 -0.2495 -0.9937  0.1254
  557MOL0     C75087   4.376   9.894   2.182 -0.1541 -0.0670 -0.0195
  557MOL0     C75088   4.458   9.880   2.299  0.2849 -0.1396  0.9111
  557MOL0     C75089   4.352  10.030   2.129 -0.3448  0.2011  0.5513
  557MOL0     C75090   4.409  10.158   2.168 -0.3980 -0.0919  0.3073
  557MOL0     O75091   4.376  10.279   2.102 -0.3347 -0.7368 -0.1218
  557MOL0     C75092   4.413  10.398   2.162  1.3438 -0.5600  0.9826
  557MOL0     C75093   4.352  10.441   2.276 -0.1988  0.1078 -0.2068
  557MOL0     C75094   4.378  10.563   2.343  0.1287 -0.5362  0.1476
  557MOL0     C75095   4.473  10.644   2.292 -0.0711 -0.5228  0.0692
  557MOL0     O75096   4.504  10.753   2.373  0.1056 -0.3587  0.0281
  557MOL0     C75097   4.554  10.862   2.299 -0.0447  0.1310  0.0704
  557MOL0     C75098   4.565  10.983   2.392 -0.1725 -1.2838  0.7729
  557MOL0     C75099   4.651  10.959   2.514 -0.6745  0.0724 -0.7656
  557MOL0     C75100   4.809  10.975   2.482  0.9497  0.5976  0.6382
  557MOL0     C75101   4.892  10.936   2.596  0.7267 -0.3749  0.1249
  557MOL0     C75102   5.046  10.954   2.590 -0.0915  0.0170 -0.3943
  557MOL0     C75103   5.119  10.872   2.693 -0.5195  0.4358 -0.6906
  557MOL0     C75104   5.121  10.950   2.823  0.4497  0.1999  0.5010
  557MOL0    Cl75105   5.162  10.842   2.960 -0.3697  0.2142 -0.2436
  557MOL0     C75106   4.534  10.610   2.167  0.6310  0.1186  0.3940
  557MOL0     C75107   4.505  10.482   2.102 -0.3181  0.4651 -0.3989
  557MOL0     O75108   4.499  10.151   2.249 -0.0284  0.1226  0.4773
  557MOL0     C75109   4.267  10.035   2.017  0.2306 -0.0664  0.7590
  557MOL0     C75110   4.236   9.920   1.950  0.2319  0.0036 -0.0383
  557MOL0     N75111   3.799   9.344   1.748  0.7589  0.7698 -0.4804
  557MOL0     N75112   3.810   9.311   1.621 -0.0895  0.0595 -0.1245
  557MOL0     C75113   3.931   8.867   0.616 -0.2468  0.4561  0.2530
  557MOL0     C75114   3.924   8.902   0.478 -0.6104  0.9077 -0.5832
  557MOL0     C75115   4.018   8.835   0.020  0.0890  0.2271  0.7176
  557MOL0     C75116   4.126   8.824  -0.070  0.6140 -0.2700  0.4009
  557MOL0     C75117   4.110   8.842  -0.207 -0.5335  0.1789 -0.1132
  557MOL0     C75118   3.989   8.879  -0.258  0.1537  0.1312 -0.7225
  557MOL0     O75119   3.970   8.900  -0.394 -0.0781  0.2932 -0.0254
  557MOL0     C75120   4.079   8.923  -0.481 -0.0844 -0.5442 -0.2035
  557MOL0     C75121   4.013   8.995  -0.605 -0.3580 -0.6937 -0.3193
  557MOL0     C75122   3.964   9.139  -0.573 -0.0069  0.7981 -0.0811
  557MOL0     C75123   3.892   9.195  -0.695 -0.4278 -0.5444 -0.5997
  557MOL0     C75124   3.793   9.100  -0.761  0.0829 -0.5378  0.1145
  557MOL0     C75125   3.727   9.017  -0.823 -0.3451  0.3353 -0.1429
  557MOL0     C75126   3.883   8.892  -0.171 -0.4318  0.2926 -1.0626
  557MOL0     C75127   3.896   8.885  -0.030 -0.3200 -0.1920 -0.1748
  557MOL0     H75128   3.983   8.595   0.349 -2.0018 -1.0137  1.9743
  557MOL0     H75129   3.992   8.540   0.602  2.7375 -0.2447 -0.8600
  557MOL0     H75130   4.078   8.860   0.839  0.3755  0.8072  0.3748
  557MOL0     H75131   3.927   8.861   0.917  1.8890  0.7454  3.0937
  557MOL0     H75132   4.020   8.620   1.000  0.9692 -1.1908  3.2277
  557MOL0     H75133   4.172   8.711   1.017 -0.0881 -2.2923  1.2104
  557MOL0     H75134   4.039   8.894   1.129 -0.2053  0.1619  0.2293
  557MOL0     H75135   3.910   8.769   1.149  0.0325  1.1930  1.6513
  557MOL0     H75136   4.066   8.636   1.285 -1.1386 -0.0211  3.6319
  557MOL0     H75137   4.185   8.761   1.283  0.6375 -0.9396 -1.8670
  557MOL0     H75138   3.888   8.789   1.377  0.9830  0.5854 -1.0765
  557MOL0     H75139   4.029   8.769   1.479 -2.3283 -2.6303  0.1644
  557MOL0     H75140   4.111   8.987   1.373  1.6013 -4.2282  2.7853
  557MOL0     H75141   3.953   8.998   1.287  1.3128  0.3824 -1.0940
  557MOL0     H75142   3.832   9.003   1.508 -0.3683 -0.0526  1.7917
  557MOL0     H75143   3.978   8.980   1.594  0.5946 -0.3064 -0.0304
  557MOL0     H75144   3.938   9.223   1.402  0.5518  1.0051 -0.1949
  557MOL0     H75145   4.080   9.189   1.481 -1.2654  2.5562 -0.8649
  557MOL0     H75146   4.072   9.173   1.749  0.8569  0.8675 -0.8373
  557MOL0     H75147   3.854   9.364   2.006 -0.5052  0.3786 -0.5731
  557MOL0     H75148   3.924   9.199   2.023 -0.8157  0.6266  0.7654
  557MOL0     H75149   4.136   9.273   1.977 -0.5097 -1.0470 -2.9320
  557MOL0     H75150   4.059   9.371   2.105  0.9285  0.8594 -0.8634
  557MOL0     H75151   3.998   9.555   1.972 -2.7083 -3.8560  2.3133
  557MOL0     H75152   4.080   9.490   1.827 -1.9806  3.0077 -0.6605
  557MOL0     H75153   4.299   9.518   1.932 -0.3382 -2.8007  0.7101
  557MOL0     H75154   4.216   9.558   2.088 -0.8306  4.0659 -0.7908
  557MOL0     H75155   4.366   9.687   2.153  2.8985 -0.2835 -0.8520
  557MOL0     H75156   4.466   9.776   2.333  1.4772 -0.2896  0.2558
  557MOL0     H75157   4.559   9.911   2.272  0.2233  0.1514  1.0130
  557MOL0     H75158   4.417   9.934   2.385 -2.3776 -1.8150  0.8030
  557MOL0     H75159   4.277  10.373   2.313  1.3748 -2.6264 -1.7218
  557MOL0     H75160   4.334  10.589   2.439  0.6674 -0.0420  0.2653
  557MOL0     H75161   4.656  10.840   2.265  0.1176 -3.5099  2.3629
  557MOL0     H75162   4.492  10.882   2.212  0.2737 -0.8355 -0.3792
  557MOL0     H75163   4.604  11.067   2.335 -2.4792 -1.4935 -1.2881
  557MOL0     H75164   4.467  11.013   2.428 -0.1743  0.7386 -0.7735
  557MOL0     H75165   4.628  10.857   2.548 -1.5673  0.2220 -0.9031
  557MOL0     H75166   4.618  11.022   2.597  1.3256  0.9264 -0.5707
  557MOL0     H75167   4.835  10.902   2.405 -0.6037  2.3908 -1.7367
  557MOL0     H75168   4.834  11.074   2.444  0.6526 -0.1531 -1.6398
  557MOL0     H75169   4.865  10.832   2.614 -0.2151  0.0995  1.7013
  557MOL0     H75170   4.865  11.005   2.677  3.1709  1.3721 -0.4271
  557MOL0     H75171   5.069  10.922   2.488 -4.3749  0.8980 -1.8706
  557MOL0     H75172   5.069  11.060   2.603  0.3851  0.0331 -1.2975
  557MOL0     H75173   5.219  10.846   2.658 -1.0790 -0.9627 -1.3239
  557MOL0     H75174   5.066  10.778   2.709 -1.0479  0.7102 -0.8141
  557MOL0     H75175   5.027  11.000   2.846  1.8412  3.0288  0.4257
  557MOL0     H75176   5.194  11.031   2.813  2.0611 -1.5225 -4.8328
  557MOL0     H75177   4.599  10.680   2.115  1.2867 -1.7707 -1.4768
  557MOL0     H75178   4.547  10.464   2.004 -0.3903  1.7143 -0.6705
  557MOL0     H75179   4.240  10.129   1.970 -1.3594 -1.3083 -0.9415
  557MOL0     H75180   4.178   9.928   1.858  0.9954  3.3336 -0.3492
  557MOL0     H75181   3.890   8.937   0.689 -2.9844 -0.0113 -0.7009
  557MOL0     H75182   3.890   9.003   0.459  2.2340  2.0440 -0.0721
  557MOL0     H75183   4.225   8.808  -0.029  0.2254  0.5803  1.7478
  557MOL0     H75184   4.193   8.835  -0.278 -1.8860 -0.6412 -1.6810
  557MOL0     H75185   4.142   8.999  -0.434 -3.2309  2.1483 -0.0108
  557MOL0     H75186   4.124   8.827  -0.511 -0.3988 -0.2268 -1.7562
  557MOL0     H75187   3.924   8.936  -0.631 -2.5427  2.8995 -1.6715
  557MOL0     H75188   4.086   8.986  -0.686 -1.0135 -0.8773 -0.9030
  557MOL0     H75189   4.042   9.214  -0.553  0.1920  2.2246 -4.9341
  557MOL0     H75190   3.891   9.146  -0.491 -1.3876  2.8856 -1.3865
  557MOL0     H75191   3.970   9.221  -0.767  0.7370 -1.2784  0.3606
  557MOL0     H75192   3.859   9.298  -0.676  1.0868 -0.0747 -0.3761
  557MOL0     H75193   3.660   8.948  -0.869  0.4809  0.7483 -2.0353
  557MOL0     H75194   3.782   8.905  -0.208 -0.2703 -0.8541 -1.9690
  557MOL0     H75195   3.821   8.905   0.046  1.0820  1.7286  0.8158
  558MOL0     O75196   3.952  10.538   5.662  0.9876 -0.0109  0.4051
  558MOL0     C75197   4.051  10.573   5.726  0.1556 -0.4744  0.1092
  558MOL0     O75198   4.138  10.482   5.776 -0.0216  0.2562  0.4209
  558MOL0     C75199   4.149  10.354   5.724  0.3920 -0.2278 -0.7732
  558MOL0     C75200   4.115  10.317   5.595 -0.6337  0.4891  0.5618
  558MOL0     C75201   4.134  10.183   5.551  0.9956 -0.6879 -0.5336
  558MOL0     C75202   4.185  10.094   5.636 -0.1948  0.3220 -0.2622
  558MOL0     O75203   4.205   9.962   5.603  0.3545  0.4289 -0.0905
  558MOL0     C75204   4.339   9.930   5.559 -0.7631 -0.1598  1.5771
  558MOL0     C75205   4.339   9.871   5.420  0.3386  0.2340  0.0242
  558MOL0     C75206   4.301   9.976   5.319  0.4319 -0.1355  0.0245
  558MOL0     C75207   4.337   9.930   5.176  0.2414 -0.3162  0.4768
  558MOL0     C75208   4.264   9.804   5.136  0.4753  0.5046  0.3478
  558MOL0     C75209   4.108   9.811   5.145 -0.3536  0.3966 -0.4362
  558MOL0     C75210   4.049   9.935   5.075 -1.2592 -0.3836 -0.9148
  558MOL0     C75211   3.905   9.932   5.025 -0.2896 -0.0574  0.5751
  558MOL0     N75212   3.893  10.038   4.922  0.2639  0.3991  0.2908
  558MOL0     C75213   3.868  10.166   4.960 -0.0132 -0.1110  0.2876
  558MOL0     C75214   3.892  10.244   4.857  0.0987 -0.2967 -0.4794
  558MOL0     C75215   3.882  10.395   4.857 -0.3807  0.4212 -0.1423
  558MOL0     C75216   3.808  10.450   4.727  0.3219 -0.3670  0.2291
  558MOL0     C75217   3.785  10.603   4.720  0.3354  0.1109 -0.0642
  558MOL0     C75218   3.704  10.633   4.598  0.2305  0.1494 -0.0342
  558MOL0     O75219   3.675  10.776   4.594 -0.6472  0.1957  0.3628
  558MOL0     C75220   3.735  10.836   4.486  0.8757 -0.2386  0.4900
  558MOL0     C75221   3.780  10.968   4.507 -0.1676 -0.4742  0.1170
  558MOL0     C75222   3.848  11.042   4.407  0.1157  0.9421  0.1329
  558MOL0     C75223   3.893  11.176   4.439  0.6255 -0.0099 -0.0913
  558MOL0     C75224   3.858  10.986   4.277  0.6549  0.6482  0.2860
  558MOL0     C75225   3.908  11.064   4.158  0.8022  1.4478 -0.0287
  558MOL0     O75226   3.951  10.981   4.057  0.0645  0.4501 -0.0339
  558MOL0     C75227   4.013  11.014   3.945 -0.4083 -0.4105 -0.5171
  558MOL0     C75228   3.993  11.137   3.879  0.8515  0.1926  0.5956
  558MOL0     C75229   4.061  11.162   3.760 -0.0994  1.3840  0.0053
  558MOL0     C75230   4.144  11.063   3.705  0.9631 -0.9649  0.3091
  558MOL0     O75231   4.195  11.077   3.579 -0.4174  0.6578 -0.5159
  558MOL0     C75232   4.198  11.204   3.513  0.8912 -0.5653 -1.2085
  558MOL0     C75233   4.266  11.205   3.385 -0.3168  0.7203  0.3139
  558MOL0     C75234   4.413  11.172   3.392 -0.7201  0.8614  0.6656
  558MOL0     C75235   4.469  11.132   3.254 -0.7292  0.1630 -0.5863
  558MOL0     C75236   4.619  11.093   3.271 -0.2441 -0.4517  0.9842
  558MOL0     C75237   4.627  10.944   3.312 -0.6826 -0.0433  0.3832
  558MOL0     C75238   4.778  10.905   3.314 -0.1003  0.6839  0.1392
  558MOL0     C75239   4.839  10.903   3.176 -0.2181 -0.3857  0.0767
  558MOL0    Cl75240   4.730  10.822   3.050  0.1402  0.5311 -0.1913
  558MOL0     C75241   4.156  10.947   3.769  0.2814  0.8519  0.1965
  558MOL0     C75242   4.085  10.912   3.886 -0.3380  1.2534  0.4505
  558MOL0     O75243   3.895  11.187   4.151 -0.2230 -0.1028  0.0555
  558MOL0     C75244   3.807  10.853   4.257 -0.7737 -1.1535 -0.2683
  558MOL0     C75245   3.738  10.783   4.355 -0.3785  0.2593  0.5303
  558MOL0     N75246   3.914  10.165   4.744 -0.4414  0.7741  0.0100
  558MOL0     N75247   3.921  10.042   4.787  0.3142  0.4130 -0.1614
  558MOL0     C75248   4.211  10.131   5.769  0.0340 -0.9760 -0.3477
  558MOL0     C75249   4.196  10.265   5.816 -0.4644 -0.0361  0.5050
  558MOL0     C75250   4.084  10.717   5.736  0.1752 -0.8133 -0.1246
  558MOL0     C75251   4.207  10.747   5.802 -0.7011 -0.4497  0.2918
  558MOL0     C75252   4.244  10.884   5.805  0.0493  0.2819  0.4402
  558MOL0     C75253   4.169  10.989   5.749  0.2795  0.4516  0.5097
  558MOL0     O75254   4.209  11.124   5.753 -0.6077 -0.0954 -0.2322
  558MOL0     C75255   4.326  11.167   5.833  0.7532  1.2110  0.4821
  558MOL0     C75256   4.459  11.166   5.760 -0.7883  0.2348 -0.0225
  558MOL0     C75257   4.447  11.278   5.660 -0.8871  0.1014  0.0841
  558MOL0     C75258   4.578  11.318   5.582  0.1548  0.2362 -0.4846
  558MOL0     C75259   4.670  11.367   5.681 -0.5688 -0.0659 -0.0117
  558MOL0     C75260   4.747  11.419   5.756  1.1760  1.3111 -0.2837
  558MOL0     C75261   4.045  10.948   5.689  0.5297  0.7312  0.5727
  558MOL0     C75262   4.006  10.816   5.673 -0.0345 -0.7093 -0.2363
  558MOL0     H75263   4.070  10.387   5.526 -4.1412 -0.6648  1.4319
  558MOL0     H75264   4.104  10.155   5.450 -0.3532 -0.7669 -0.1346
  558MOL0     H75265   4.414  10.010   5.557  0.5571 -1.2578 -2.1938
  558MOL0     H75266   4.386   9.847   5.612 -1.7098 -1.0774  1.0160
  558MOL0     H75267   4.440   9.842   5.387 -0.0353 -0.1734 -0.7921
  558MOL0     H75268   4.274   9.784   5.406  1.1919 -0.0536 -2.9585
  558MOL0     H75269   4.198  10.008   5.335  0.1360 -0.4911 -1.1107
  558MOL0     H75270   4.366  10.064   5.330 -1.3521  0.9359  3.3691
  558MOL0     H75271   4.299  10.016   5.119 -3.4143 -1.1502  1.3485
  558MOL0     H75272   4.445   9.922   5.165  0.1518  0.8073 -1.8957
  558MOL0     H75273   4.288   9.793   5.030  0.6752  1.0334  0.3355
  558MOL0     H75274   4.294   9.711   5.185 -0.1604  0.9511  1.6280
  558MOL0     H75275   4.070   9.716   5.105 -3.3508  2.0237 -1.7740
  558MOL0     H75276   4.084   9.808   5.252  0.8127 -2.1688 -0.1697
  558MOL0     H75277   4.054  10.028   5.132 -0.7112 -1.1433  0.3241
  558MOL0     H75278   4.113   9.966   4.992 -2.4349  3.4638 -0.5828
  558MOL0     H75279   3.841   9.958   5.110  1.1281 -0.2021  1.7164
  558MOL0     H75280   3.872   9.836   4.984 -1.3509  1.5060 -2.6148
  558MOL0     H75281   3.831  10.196   5.058 -0.1339  1.3945 -0.1918
  558MOL0     H75282   3.846  10.438   4.950  1.6330  1.8871  0.0315
  558MOL0     H75283   3.984  10.436   4.861 -1.5255  3.5185  0.0746
  558MOL0     H75284   3.708  10.407   4.718  1.2008 -2.4009 -0.4822
  558MOL0     H75285   3.879  10.416   4.651  3.1646 -1.7422  3.2469
  558MOL0     H75286   3.880  10.658   4.712  1.5735 -1.9471 -0.1222
  558MOL0     H75287   3.730  10.630   4.810  0.3189 -1.2143  0.3298
  558MOL0     H75288   3.611  10.576   4.587 -1.0262  2.2362 -0.9075
  558MOL0     H75289   3.752  10.594   4.508 -1.2748 -0.2297 -0.7132
  558MOL0     H75290   3.765  11.017   4.603  1.0467 -1.3399  0.7828
  558MOL0     H75291   3.987  11.185   4.384 -0.6571 -0.6631 -2.5456
  558MOL0     H75292   3.833  11.255   4.393 -0.6537 -2.2128 -2.4733
  558MOL0     H75293   3.921  11.190   4.544 -0.7789  0.9031  0.1785
  558MOL0     H75294   3.928  11.212   3.923 -0.4486 -0.8043  0.4480
  558MOL0     H75295   4.038  11.253   3.706 -4.3045 -0.2704 -1.4105
  558MOL0     H75296   4.094  11.235   3.504  1.4429  1.3988 -1.2931
  558MOL0     H75297   4.251  11.269   3.583  1.3532 -2.3089  0.1414
  558MOL0     H75298   4.215  11.137   3.315  0.8103  0.4895 -0.3120
  558MOL0     H75299   4.251  11.306   3.346 -2.5709  1.4876  2.8337
  558MOL0     H75300   4.440  11.092   3.461 -0.9068  0.3280  0.1235
  558MOL0     H75301   4.464  11.264   3.422 -1.4530  1.4582  0.1186
  558MOL0     H75302   4.405  11.052   3.217 -1.6287  2.0068 -3.3382
  558MOL0     H75303   4.456  11.215   3.184 -1.6000  0.1406 -0.4604
  558MOL0     H75304   4.670  11.159   3.341  1.3204  0.3388 -0.8137
  558MOL0     H75305   4.661  11.100   3.171  0.2782 -0.3496  1.2091
  558MOL0     H75306   4.589  10.934   3.414  0.2448 -1.5462  0.6025
  558MOL0     H75307   4.571  10.879   3.244 -0.8968  0.5279 -0.0020
  558MOL0     H75308   4.797  10.805   3.353 -2.0345  0.6207  1.0288
  558MOL0     H75309   4.832  10.987   3.363 -2.5307  1.4585  1.6722
  558MOL0     H75310   4.941  10.865   3.170  0.4201  1.3279 -0.6206
  558MOL0     H75311   4.857  11.007   3.146 -2.1660  0.8831  2.8535
  558MOL0     H75312   4.206  10.863   3.723  2.4235  2.1857 -0.0683
  558MOL0     H75313   4.066  10.816   3.932 -1.9899  0.5739 -1.5073
  558MOL0     H75314   3.801  10.799   4.163 -1.8495  0.0515 -0.9233
  558MOL0     H75315   3.711  10.682   4.326 -0.5979  0.7390 -1.0742
  558MOL0     H75316   4.263  10.055   5.827 -4.2114 -3.6578  0.3650
  558MOL0     H75317   4.225  10.282   5.919 -1.3030 -2.5764  1.2331
  558MOL0     H75318   4.282  10.682   5.846  1.0297 -0.2878 -2.1921
  558MOL0     H75319   4.336  10.898   5.861 -1.5182  1.2847  2.9468
  558MOL0     H75320   4.302  11.261   5.885 -0.3303  0.5236  1.2534
  558MOL0     H75321   4.344  11.095   5.913 -3.3958 -0.7936 -0.1645
  558MOL0     H75322   4.474  11.068   5.715  1.0578 -1.2483  3.4339
  558MOL0     H75323   4.532  11.189   5.839 -0.2719  3.7370 -1.3349
  558MOL0     H75324   4.429  11.366   5.722  1.2060  0.0470  0.8435
  558MOL0     H75325   4.365  11.270   5.588  1.0226 -0.4558 -2.1693
  558MOL0     H75326   4.560  11.401   5.513  0.3599  2.8739  2.4117
  558MOL0     H75327   4.619  11.227   5.537 -0.6618 -1.3877  1.7964
  558MOL0     H75328   4.826  11.472   5.807  2.6407  0.5583 -1.6943
  558MOL0     H75329   3.971  11.024   5.666  2.0550  2.3411  0.7101
  558MOL0     H75330   3.910  10.787   5.634 -1.0976 -1.7944  2.8477
  559MOL0     O75331   8.946   7.519   2.269  0.2008  0.5914  0.3911
  559MOL0     C75332   8.849   7.463   2.223  0.4435  0.0152  0.8901
  559MOL0     O75333   8.809   7.331   2.247 -0.0937 -0.2149  0.7236
  559MOL0     C75334   8.911   7.232   2.256  0.0518 -0.1727 -0.4950
  559MOL0     C75335   8.869   7.111   2.304  0.3090  0.7260 -0.6583
  559MOL0     C75336   8.950   7.000   2.296  0.0298 -0.3730 -1.0172
  559MOL0     C75337   9.084   7.009   2.246  0.7682 -0.5023 -0.7325
  559MOL0     O75338   9.154   6.896   2.262  0.3093 -0.0656  0.7500
  559MOL0     C75339   9.296   6.918   2.285 -0.0268  0.2941 -0.2164
  559MOL0     C75340   9.382   6.800   2.282 -0.2760  0.5937  0.6220
  559MOL0     C75341   9.529   6.829   2.265  0.2298  0.4502 -0.6715
  559MOL0     C75342   9.580   6.876   2.402 -0.2259  0.1071  0.4194
  559MOL0     C75343   9.732   6.915   2.408  0.2035  0.3933 -0.2742
  559MOL0     C75344   9.810   6.794   2.358 -0.2395  0.3658  0.2714
  559MOL0     C75345   9.959   6.802   2.400  0.8848 -0.5877 -0.6997
  559MOL0     C75346  10.028   6.673   2.366 -0.8598  0.0709  0.0766
  559MOL0     N75347  10.177   6.674   2.374  0.2187 -0.3354  0.3021
  559MOL0     C75348  10.262   6.788   2.376 -0.9709 -0.1819  0.4060
  559MOL0     C75349  10.384   6.728   2.405  0.6912  0.3802 -0.2571
  559MOL0     C75350  10.522   6.796   2.418  0.2380 -0.0543 -0.2906
  559MOL0     C75351  10.551   6.818   2.559  0.2244 -0.4927 -0.0587
  559MOL0     C75352  10.464   6.933   2.628  0.3658 -0.1852  0.1324
  559MOL0     C75353  10.512   6.952   2.774 -0.5573  0.3135 -0.5910
  559MOL0     O75354  10.627   7.034   2.769  0.0836 -0.3676  0.1780
  559MOL0     C75355  10.652   7.095   2.893 -0.0505 -1.0109  0.7160
  559MOL0     C75356  10.576   7.199   2.944  0.3699 -0.2142  0.1557
  559MOL0     C75357  10.597   7.265   3.071  0.3012  0.1038  0.2982
  559MOL0     C75358  10.487   7.360   3.126  0.4667  0.4909  0.3744
  559MOL0     C75359  10.717   7.246   3.132 -0.1390  0.2720  0.4861
  559MOL0     C75360  10.766   7.323   3.245 -0.2325 -0.1282 -0.4500
  559MOL0     O75361  10.696   7.326   3.368 -0.6832  0.7671  0.7070
  559MOL0     C75362  10.725   7.426   3.462  0.3890 -0.2453  0.6167
  559MOL0     C75363  10.614   7.462   3.535 -0.6136 -0.9825  1.2327
  559MOL0     C75364  10.634   7.534   3.655 -0.1009 -0.8196  0.2633
  559MOL0     C75365  10.756   7.576   3.699 -0.6949 -0.5932 -0.3659
  559MOL0     O75366  10.752   7.658   3.811  0.6827 -0.5917  0.4503
  559MOL0     C75367  10.853   7.640   3.917 -0.0027 -0.2242 -0.0586
  559MOL0     C75368  10.846   7.774   4.004 -0.5420  0.2392  0.8263
  559MOL0     C75369  10.732   7.806   4.102  0.4675  0.4688 -0.0973
  559MOL0     C75370  10.747   7.958   4.153 -0.2863  0.2671 -0.7282
  559MOL0     C75371  10.616   7.983   4.224 -0.3695 -0.9005 -0.3929
  559MOL0     C75372  10.605   8.130   4.286  0.0740  0.3692 -0.3927
  559MOL0     C75373  10.719   8.146   4.379 -0.0434  0.5508 -1.2187
  559MOL0     C75374  10.682   8.243   4.490  0.3070 -0.8179  0.3722
  559MOL0    Cl75375  10.776   8.214   4.635 -0.2540  0.4069  0.0807
  559MOL0     C75376  10.867   7.546   3.622 -0.4991 -0.2243  0.3685
  559MOL0     C75377  10.856   7.461   3.507 -0.4030 -0.0619 -0.0856
  559MOL0     O75378  10.879   7.374   3.224  0.0726 -0.3192 -0.0274
  559MOL0     C75379  10.806   7.156   3.072  0.6185 -0.2663  0.6178
  559MOL0     C75380  10.773   7.073   2.962 -0.1533  0.4429  0.5269
  559MOL0     N75381  10.369   6.589   2.421 -0.5586 -0.5256 -0.8019
  559MOL0     N75382  10.250   6.565   2.412  0.4915 -0.1168  0.3418
  559MOL0     C75383   9.121   7.135   2.196 -0.0728 -0.3929 -0.0368
  559MOL0     C75384   9.038   7.242   2.202  0.3100 -0.1612  0.2356
  559MOL0     C75385   8.773   7.562   2.132 -0.2865  0.2906  0.0308
  559MOL0     C75386   8.805   7.701   2.123  0.3710  0.7144 -0.0653
  559MOL0     C75387   8.730   7.785   2.042 -0.4115 -0.2118 -0.4710
  559MOL0     C75388   8.611   7.740   1.978 -0.0604 -0.7743 -0.2853
  559MOL0     O75389   8.520   7.836   1.932 -0.0569  0.1620  0.5159
  559MOL0     C75390   8.380   7.799   1.940  0.0155 -0.8825 -0.5627
  559MOL0     C75391   8.286   7.921   1.909  0.1118 -0.5687  0.3191
  559MOL0     C75392   8.293   7.959   1.756  0.1423  0.2554 -0.3882
  559MOL0     C75393   8.198   8.067   1.713 -0.2687  0.0791  0.1268
  559MOL0     C75394   8.256   8.142   1.600  0.6643 -0.0035 -0.0765
  559MOL0     C75395   8.281   8.196   1.490  1.2402  0.8497  0.5045
  559MOL0     C75396   8.569   7.606   1.996 -0.6187 -0.4549  0.3411
  559MOL0     C75397   8.653   7.525   2.070  0.7045 -0.2528  0.0202
  559MOL0     H75398   8.764   7.111   2.333 -0.7965  2.6084 -4.1739
  559MOL0     H75399   8.919   6.899   2.319  1.0217  0.0865  3.2142
  559MOL0     H75400   9.338   6.974   2.201  0.7657 -4.4035 -3.3530
  559MOL0     H75401   9.306   6.972   2.379 -4.5927  0.7987  0.1994
  559MOL0     H75402   9.365   6.734   2.368 -3.1216 -0.3914 -0.5901
  559MOL0     H75403   9.349   6.745   2.193  0.3179  1.5956 -0.2482
  559MOL0     H75404   9.586   6.739   2.240  3.7628  1.2711  3.1855
  559MOL0     H75405   9.528   6.893   2.176 -2.4970 -1.6526 -2.2913
  559MOL0     H75406   9.524   6.965   2.431 -0.2096 -0.3661  1.9492
  559MOL0     H75407   9.561   6.806   2.483 -1.1499 -0.3604 -0.1799
  559MOL0     H75408   9.740   7.008   2.352 -3.5380  0.3870 -1.0665
  559MOL0     H75409   9.768   6.927   2.510  2.6600 -1.1115 -0.8968
  559MOL0     H75410   9.759   6.709   2.402  1.0418  0.7951  2.7302
  559MOL0     H75411   9.797   6.785   2.249 -0.6204  1.2311  0.2347
  559MOL0     H75412  10.011   6.887   2.355  1.2437  1.0325  2.5149
  559MOL0     H75413   9.967   6.830   2.505 -1.3352  1.4432 -0.9869
  559MOL0     H75414   9.990   6.652   2.265 -1.6845 -0.5470  0.5109
  559MOL0     H75415   9.994   6.587   2.423  4.5668 -3.3653 -1.1039
  559MOL0     H75416  10.233   6.893   2.367  2.6886  0.9692  0.2612
  559MOL0     H75417  10.589   6.721   2.376 -1.3417 -4.1092  3.6825
  559MOL0     H75418  10.516   6.890   2.362  1.6883  1.7247  2.3478
  559MOL0     H75419  10.654   6.852   2.572 -0.1038 -0.3113  2.8760
  559MOL0     H75420  10.539   6.723   2.613  2.3142 -0.3656  0.6986
  559MOL0     H75421  10.359   6.903   2.637  0.8409 -1.4919  1.7086
  559MOL0     H75422  10.475   7.028   2.574  2.3922 -0.8184 -0.6381
  559MOL0     H75423  10.542   6.852   2.807 -1.7605 -1.0303 -3.2740
  559MOL0     H75424  10.450   7.001   2.850  1.4616 -1.2274  2.2548
  559MOL0     H75425  10.477   7.211   2.901  0.7238  0.0535 -0.6037
  559MOL0     H75426  10.530   7.460   3.134 -0.7540  1.3467 -2.3581
  559MOL0     H75427  10.409   7.376   3.051  0.4814  0.0451  0.2593
  559MOL0     H75428  10.433   7.339   3.219 -0.1877  2.4656  0.4757
  559MOL0     H75429  10.516   7.434   3.498 -1.9995  3.9354  0.4712
  559MOL0     H75430  10.544   7.546   3.713 -1.6550  0.2124 -2.1816
  559MOL0     H75431  10.819   7.558   3.980 -0.4844  1.4692  2.0214
  559MOL0     H75432  10.957   7.632   3.883 -0.0998 -2.4229  0.0468
  559MOL0     H75433  10.929   7.769   4.074 -0.0350  0.6381  0.2621
  559MOL0     H75434  10.864   7.854   3.931  0.1716  1.0719  1.8886
  559MOL0     H75435  10.743   7.740   4.188  0.3703 -1.0908 -1.2375
  559MOL0     H75436  10.635   7.785   4.056  1.2394  0.2835 -1.7167
  559MOL0     H75437  10.833   7.957   4.220 -1.4337  0.4446  0.8146
  559MOL0     H75438  10.757   8.033   4.074  0.7572  2.7019  1.5798
  559MOL0     H75439  10.609   7.923   4.316 -0.8780 -1.5042 -0.8176
  559MOL0     H75440  10.538   7.956   4.153  0.1103 -1.6984 -0.6260
  559MOL0     H75441  10.605   8.206   4.207  1.2746  1.0620  0.2541
  559MOL0     H75442  10.505   8.126   4.331 -1.0471 -1.6611 -2.8238
  559MOL0     H75443  10.807   8.185   4.328  0.9567 -1.9482 -1.5543
  559MOL0     H75444  10.762   8.055   4.422  0.9439  1.4979 -0.1509
  559MOL0     H75445  10.576   8.240   4.516  0.5397  3.0242  2.5388
  559MOL0     H75446  10.698   8.343   4.447  1.6780 -1.3508 -0.4173
  559MOL0     H75447  10.971   7.560   3.652 -0.7613  2.2768  0.3003
  559MOL0     H75448  10.941   7.426   3.450 -1.9429 -2.9523 -0.7809
  559MOL0     H75449  10.899   7.130   3.121 -0.1222 -4.5572  0.2055
  559MOL0     H75450  10.851   7.006   2.926 -0.0851  1.2421 -0.8862
  559MOL0     H75451   9.222   7.153   2.160  0.6254  0.9830  2.4378
  559MOL0     H75452   9.057   7.335   2.149 -2.5457  1.1743  1.3234
  559MOL0     H75453   8.895   7.741   2.169  0.6875 -0.1184  0.0784
  559MOL0     H75454   8.750   7.891   2.028 -0.2736 -0.2706 -0.7313
  559MOL0     H75455   8.359   7.708   1.885 -1.3842 -0.2292 -1.1345
  559MOL0     H75456   8.362   7.781   2.047 -1.6001 -0.8159 -0.8080
  559MOL0     H75457   8.313   8.006   1.972  1.9266 -0.9335  0.0752
  559MOL0     H75458   8.182   7.891   1.929  0.5924 -3.6709 -1.2371
  559MOL0     H75459   8.268   7.866   1.705  1.0199 -2.0738  3.0352
  559MOL0     H75460   8.396   7.989   1.734  0.0636  0.5351 -0.3730
  559MOL0     H75461   8.198   8.136   1.798  1.4998  1.7891 -1.1580
  559MOL0     H75462   8.097   8.034   1.685 -1.2693  2.4539  0.6767
  559MOL0     H75463   8.288   8.225   1.387 -1.5792 -1.7059 -0.5541
  559MOL0     H75464   8.482   7.560   1.949  1.0706 -2.6535 -0.8129
  559MOL0     H75465   8.626   7.421   2.086  2.2857 -0.6139  0.5047
  560MOL0     O75466   3.292   2.057   8.766 -0.2116 -0.1140  0.4300
  560MOL0     C75467   3.189   2.027   8.820  0.5126 -0.6159 -0.0428
  560MOL0     O75468   3.158   2.071   8.947 -0.8312  0.6547 -0.0298
  560MOL0     C75469   3.262   2.136   9.012  0.4013 -0.1636  0.4419
  560MOL0     C75470   3.202   2.246   9.084 -0.7751 -0.1059 -0.1124
  560MOL0     C75471   3.287   2.331   9.154  0.4903  0.2101  0.5654
  560MOL0     C75472   3.432   2.326   9.142  0.9123  0.3669  0.0464
  560MOL0     O75473   3.500   2.419   9.209  0.2296 -0.3639  0.5460
  560MOL0     C75474   3.636   2.401   9.226 -0.3392  0.2007 -0.2215
  560MOL0     C75475   3.693   2.520   9.303  0.6600  0.2452 -0.2192
  560MOL0     C75476   3.843   2.507   9.345  0.3406  1.4048 -1.0272
  560MOL0     C75477   3.859   2.609   9.455  0.4670 -0.0440 -0.6927
  560MOL0     C75478   3.998   2.662   9.469 -0.5147 -0.5058  0.0474
  560MOL0     C75479   4.098   2.546   9.488 -0.1112 -1.1685 -0.4621
  560MOL0     C75480   4.229   2.612   9.513 -0.3929  0.3818  0.0116
  560MOL0     C75481   4.343   2.527   9.448 -0.1769 -0.4526 -0.4409
  560MOL0     N75482   4.476   2.583   9.456  0.4705  0.6484 -0.8271
  560MOL0     C75483   4.554   2.607   9.573  0.9443  1.0575  0.9779
  560MOL0     C75484   4.672   2.664   9.531  0.4242  0.2779  1.0898
  560MOL0     C75485   4.784   2.702   9.613 -0.4943  0.1162 -0.5549
  560MOL0     C75486   4.879   2.582   9.631  0.4765  0.2123 -0.7728
  560MOL0     C75487   4.950   2.598   9.764  0.5627 -0.1673  0.2028
  560MOL0     C75488   5.085   2.683   9.743 -0.6420  0.3042 -0.3514
  560MOL0     O75489   5.137   2.740   9.872 -0.6086  0.2465  0.0248
  560MOL0     C75490   5.255   2.690   9.903  0.3219  0.2893 -0.4194
  560MOL0     C75491   5.259   2.584   9.999  0.6545  0.7478  0.5127
  560MOL0     C75492   5.385   2.519  10.020  0.0311  0.3641 -0.5495
  560MOL0     C75493   5.391   2.402  10.109  0.0003 -0.7503 -0.2301
  560MOL0     C75494   5.499   2.558   9.942  0.7970  0.0128  0.9811
  560MOL0     C75495   5.625   2.493   9.959 -0.6656 -0.1294 -1.8232
  560MOL0     O75496   5.735   2.576   9.947 -0.5592  0.0079 -0.6345
  560MOL0     C75497   5.862   2.519   9.960  0.1994 -0.3339  0.3598
  560MOL0     C75498   5.940   2.482   9.847  0.3135 -0.2050  0.1517
  560MOL0     C75499   6.042   2.388   9.854  0.5294 -0.6609  0.0497
  560MOL0     C75500   6.075   2.324   9.977 -0.9024 -0.5769  0.6351
  560MOL0     O75501   6.182   2.243   9.973 -0.0521  0.0280 -0.2580
  560MOL0     C75502   6.222   2.172  10.093 -0.7030  0.5121 -0.9160
  560MOL0     C75503   6.348   2.085  10.044 -0.4885 -0.0092  0.6636
  560MOL0     C75504   6.462   2.163   9.978  0.8550  0.2741 -0.7330
  560MOL0     C75505   6.590   2.075   9.992  0.3942 -0.0931 -0.1217
  560MOL0     C75506   6.709   2.129   9.915 -0.5824 -0.6727 -0.5772
  560MOL0     C75507   6.745   2.276   9.950 -0.3406 -0.0391 -0.8271
  560MOL0     C75508   6.771   2.304  10.104 -0.1429  1.0507  0.1680
  560MOL0     C75509   6.907   2.266  10.163  0.2006 -0.7907 -0.5553
  560MOL0    Cl75510   7.045   2.356  10.073 -0.3508 -0.0543  0.8181
  560MOL0     C75511   5.996   2.360  10.091 -0.0077  0.0550 -0.5435
  560MOL0     C75512   5.889   2.457  10.081 -0.5083  0.0906  0.1820
  560MOL0     O75513   5.634   2.371   9.976  0.9084  0.0168  0.9398
  560MOL0     C75514   5.488   2.658   9.840  0.0329  0.9487 -0.3746
  560MOL0     C75515   5.368   2.734   9.825  0.9522 -0.2285 -0.0031
  560MOL0     N75516   4.660   2.691   9.399 -0.0491 -0.6464  0.0984
  560MOL0     N75517   4.544   2.643   9.355 -0.6007 -0.5933 -0.2026
  560MOL0     C75518   3.479   2.214   9.072 -1.1409  0.5443  0.6438
  560MOL0     C75519   3.396   2.120   9.012 -1.0212 -0.4377 -0.1631
  560MOL0     C75520   3.098   1.931   8.756 -0.0131  0.0578  0.0824
  560MOL0     C75521   3.144   1.860   8.644 -0.0742  0.2727  0.5132
  560MOL0     C75522   3.060   1.778   8.571 -0.7519 -0.6585 -0.8367
  560MOL0     C75523   2.925   1.756   8.613 -0.3577 -0.1356 -0.4383
  560MOL0     O75524   2.837   1.669   8.562 -0.3912 -0.4326  0.2114
  560MOL0     C75525   2.880   1.561   8.479 -0.1870 -0.1931 -1.2892
  560MOL0     C75526   2.809   1.425   8.516 -0.4093 -0.0260 -0.4896
  560MOL0     C75527   2.837   1.389   8.664 -0.8255 -0.0277 -0.5805
  560MOL0     C75528   2.958   1.315   8.692 -0.7651  0.1580  0.0443
  560MOL0     C75529   3.064   1.415   8.717  0.0185 -0.3524  0.2162
  560MOL0     C75530   3.153   1.492   8.760  1.0042 -0.6401 -0.4436
  560MOL0     C75531   2.881   1.825   8.723  0.7958 -0.5439 -0.1398
  560MOL0     C75532   2.962   1.914   8.793 -0.4303  0.4553 -0.1032
  560MOL0     H75533   3.095   2.263   9.090 -0.6742  0.9615 -0.9812
  560MOL0     H75534   3.244   2.416   9.207 -1.7354 -0.8075  0.4885
  560MOL0     H75535   3.660   2.309   9.279 -1.0647  0.0865 -0.0795
  560MOL0     H75536   3.686   2.403   9.128  0.5539  1.8238  0.2324
  560MOL0     H75537   3.677   2.613   9.249  0.3464 -0.3397 -1.1617
  560MOL0     H75538   3.629   2.524   9.392 -0.0397  1.9547 -0.7749
  560MOL0     H75539   3.871   2.407   9.378  0.9340  0.6864 -3.4647
  560MOL0     H75540   3.911   2.528   9.261  2.5938 -0.0419  0.3528
  560MOL0     H75541   3.788   2.690   9.437  0.0732 -0.8698 -3.4229
  560MOL0     H75542   3.835   2.557   9.548  3.6613 -1.1900 -0.3821
  560MOL0     H75543   4.018   2.715   9.375  0.9382 -0.9487  0.0740
  560MOL0     H75544   4.004   2.732   9.553  0.0118  3.2556 -2.8307
  560MOL0     H75545   4.077   2.490   9.579 -0.3947 -0.9190 -0.3710
  560MOL0     H75546   4.093   2.477   9.404 -0.8146  1.0200 -2.3147
  560MOL0     H75547   4.242   2.711   9.469  1.1585  0.0935 -0.2350
  560MOL0     H75548   4.250   2.630   9.619  0.4955  0.5372 -0.1793
  560MOL0     H75549   4.329   2.501   9.343 -1.8421  1.8130 -0.8604
  560MOL0     H75550   4.344   2.434   9.504  0.2989 -3.0218 -4.3369
  560MOL0     H75551   4.525   2.575   9.672  2.8072 -0.6216  1.0437
  560MOL0     H75552   4.841   2.774   9.554 -5.5171  3.1249 -2.3310
  560MOL0     H75553   4.750   2.750   9.706  1.0850  4.3215 -1.9257
  560MOL0     H75554   4.939   2.551   9.545  0.7161 -1.7052  0.0276
  560MOL0     H75555   4.821   2.490   9.645 -0.0433  0.4421 -1.3524
  560MOL0     H75556   4.987   2.508   9.813  3.3010  0.8004  0.0799
  560MOL0     H75557   4.881   2.645   9.835 -1.9784 -1.8238 -1.0134
  560MOL0     H75558   5.085   2.760   9.666  1.4787 -0.7824 -1.5063
  560MOL0     H75559   5.155   2.605   9.712 -0.8116  0.0527 -0.1063
  560MOL0     H75560   5.169   2.567  10.058  1.0580 -2.9834  0.3100
  560MOL0     H75561   5.297   2.374  10.156 -1.1013  2.0789 -0.5521
  560MOL0     H75562   5.420   2.315  10.049  1.2436 -0.8633  0.5005
  560MOL0     H75563   5.471   2.410  10.183 -0.8958  0.4827  0.6335
  560MOL0     H75564   5.929   2.508   9.743 -2.3558 -0.5495  0.2746
  560MOL0     H75565   6.103   2.363   9.767 -0.5734 -3.0122 -0.1384
  560MOL0     H75566   6.251   2.231  10.179 -0.1694 -0.8276 -0.1407
  560MOL0     H75567   6.133   2.114  10.119 -1.7056  1.4546 -2.1301
  560MOL0     H75568   6.382   2.039  10.137 -0.3811 -1.5938 -0.1377
  560MOL0     H75569   6.322   2.012   9.967  0.2775 -0.3506  0.7278
  560MOL0     H75570   6.484   2.248  10.044 -0.7785 -1.0210  1.6134
  560MOL0     H75571   6.446   2.186   9.873  1.4106 -0.1943 -0.9235
  560MOL0     H75572   6.633   2.066  10.092  0.8412  0.9520 -0.2042
  560MOL0     H75573   6.568   1.976   9.951  1.0145 -1.3002  2.2507
  560MOL0     H75574   6.683   2.122   9.809 -0.3859 -0.1575 -0.6609
  560MOL0     H75575   6.796   2.063   9.922  0.4773  0.4622 -2.2347
  560MOL0     H75576   6.836   2.311   9.900 -0.3027  0.5927 -0.3373
  560MOL0     H75577   6.662   2.340   9.920 -0.0734  1.1716  0.8514
  560MOL0     H75578   6.698   2.256  10.171 -1.1629 -0.5246 -1.9423
  560MOL0     H75579   6.759   2.411  10.122  2.3080  1.6212 -1.1982
  560MOL0     H75580   6.915   2.159  10.142 -0.1189 -1.6014  2.8925
  560MOL0     H75581   6.918   2.289  10.269 -0.8819  1.5425 -0.8879
  560MOL0     H75582   6.013   2.317  10.190 -2.9518 -0.0272  0.0124
  560MOL0     H75583   5.832   2.465  10.174 -1.7920 -0.5536 -0.5221
  560MOL0     H75584   5.574   2.673   9.774  0.4901 -2.0757 -0.6390
  560MOL0     H75585   5.354   2.813   9.753 -2.2510 -0.2329  0.4726
  560MOL0     H75586   3.586   2.198   9.062 -1.1034  1.7296 -1.2763
  560MOL0     H75587   3.432   2.028   8.969 -2.7630 -1.0627 -0.3699
  560MOL0     H75588   3.249   1.867   8.617  0.3639 -0.3963  1.9484
  560MOL0     H75589   3.108   1.724   8.490  5.8307  4.0819 -0.8906
  560MOL0     H75590   2.860   1.589   8.375 -1.2210  0.5770 -0.8942
  560MOL0     H75591   2.990   1.559   8.485  0.0406  4.0138 -0.5771
  560MOL0     H75592   2.824   1.349   8.439 -1.7794  0.8577 -1.6874
  560MOL0     H75593   2.704   1.450   8.503 -0.8680 -2.4883 -2.1068
  560MOL0     H75594   2.750   1.327   8.688  0.0374 -0.5029  1.5216
  560MOL0     H75595   2.833   1.475   8.731  1.5869  0.3905 -0.8734
  560MOL0     H75596   2.985   1.256   8.604 -1.1709 -0.4771  0.3353
  560MOL0     H75597   2.936   1.252   8.779 -1.6393  1.0570  0.4921
  560MOL0     H75598   3.219   1.569   8.795 -3.3248  3.4301 -0.3128
  560MOL0     H75599   2.777   1.824   8.753  1.1099  3.2430  1.6678
  560MOL0     H75600   2.915   1.974   8.870  0.8321 -1.3430  2.1980
  561MOL0     O75601   9.750   5.558   3.989  1.3863 -0.7216  0.5446
  561MOL0     C75602   9.805   5.576   3.880 -0.1611 -0.6625 -0.2274
  561MOL0     O75603   9.842   5.703   3.828 -0.3262  0.5371 -0.1279
  561MOL0     C75604   9.816   5.820   3.898  0.0472 -0.3538 -0.5820
  561MOL0     C75605   9.844   5.930   3.816 -1.2020 -0.2383 -0.5535
  561MOL0     C75606   9.847   6.056   3.873  0.0383  0.4273  1.0341
  561MOL0     C75607   9.845   6.073   4.008  0.4619  0.3853  0.1816
  561MOL0     O75608   9.869   6.199   4.052 -0.1018 -0.2560 -0.1723
  561MOL0     C75609   9.870   6.230   4.193  0.9667 -0.0773 -0.3953
  561MOL0     C75610   9.726   6.257   4.254 -0.0336  0.4541  0.1657
  561MOL0     C75611   9.651   6.365   4.168  0.0772 -0.4112 -0.8596
  561MOL0     C75612   9.555   6.455   4.250 -0.2906 -0.3745 -0.1160
  561MOL0     C75613   9.469   6.537   4.145 -0.9051 -0.4466 -0.1865
  561MOL0     C75614   9.390   6.664   4.198  0.2973  0.0695 -0.3913
  561MOL0     C75615   9.340   6.731   4.078 -0.5158 -0.9111 -0.3463
  561MOL0     C75616   9.261   6.867   4.117  0.8912  1.1649 -0.1077
  561MOL0     N75617   9.209   6.923   3.990 -0.9044 -0.0719 -0.5630
  561MOL0     C75618   9.092   6.884   3.932  0.4734 -0.1060  0.0615
  561MOL0     C75619   9.089   6.937   3.810  0.1358  0.3452  0.8833
  561MOL0     C75620   8.981   6.922   3.709 -0.4262  0.6495  0.1384
  561MOL0     C75621   8.888   7.047   3.694 -0.2850  0.2216 -0.5601
  561MOL0     C75622   8.746   7.017   3.771 -0.0800  0.6737  0.7908
  561MOL0     C75623   8.652   7.118   3.701  0.0929  0.4970 -0.0800
  561MOL0     O75624   8.687   7.259   3.719  0.2026  0.3883  0.2424
  561MOL0     C75625   8.592   7.359   3.728  0.1434 -0.0915  0.6332
  561MOL0     C75626   8.655   7.480   3.756 -0.0247 -0.6018  0.5105
  561MOL0     C75627   8.584   7.601   3.781  0.7785  0.4757  0.1638
  561MOL0     C75628   8.685   7.724   3.817 -0.0218  0.3385  0.5304
  561MOL0     C75629   8.439   7.588   3.775 -0.3960 -0.3133 -0.0433
  561MOL0     C75630   8.351   7.696   3.801  0.5056  0.5998 -0.0153
  561MOL0     O75631   8.412   7.820   3.806 -0.2435  0.0722  0.1441
  561MOL0     C75632   8.331   7.926   3.830  0.2187 -0.3965 -0.0638
  561MOL0     C75633   8.225   7.939   3.914 -0.1929  0.6464  1.1745
  561MOL0     C75634   8.163   8.060   3.928 -0.0529 -1.1087  0.1260
  561MOL0     C75635   8.202   8.179   3.858  0.8023  0.4770 -0.0708
  561MOL0     O75636   8.121   8.288   3.874  0.1364  0.1233 -0.7252
  561MOL0     C75637   8.099   8.373   3.763  0.6110  0.3384  0.3938
  561MOL0     C75638   7.960   8.440   3.778  0.3279  0.1829  0.1414
  561MOL0     C75639   7.944   8.486   3.924 -0.5153  0.7195  0.8058
  561MOL0     C75640   7.814   8.558   3.944 -1.0735 -0.2179 -0.2407
  561MOL0     C75641   7.692   8.474   3.976  0.5274  0.8905 -0.1177
  561MOL0     C75642   7.637   8.382   3.862  0.0948  0.1410  0.5178
  561MOL0     C75643   7.613   8.432   3.718  0.5043  0.4514  0.3842
  561MOL0     C75644   7.528   8.335   3.628 -0.4601  0.5063 -0.9919
  561MOL0    Cl75645   7.449   8.426   3.489  0.1586 -0.3094 -0.4786
  561MOL0     C75646   8.307   8.167   3.775 -0.1137  0.0710 -0.5779
  561MOL0     C75647   8.366   8.038   3.756 -0.3663  0.9430 -0.3089
  561MOL0     O75648   8.231   7.668   3.810  0.3905 -0.0153  0.6341
  561MOL0     C75649   8.377   7.462   3.737  0.2557 -0.4223  0.5848
  561MOL0     C75650   8.452   7.349   3.712  0.2624  0.2380  0.9215
  561MOL0     N75651   9.213   7.008   3.801  0.7829  0.9507 -0.4991
  561MOL0     N75652   9.280   7.002   3.909 -0.9836  0.0028 -0.2725
  561MOL0     C75653   9.821   5.959   4.088  0.0609 -0.6257 -0.1235
  561MOL0     C75654   9.800   5.840   4.036 -0.7584  0.2590 -0.0512
  561MOL0     C75655   9.807   5.467   3.783 -0.7191 -0.3615  0.0044
  561MOL0     C75656   9.769   5.333   3.813 -0.0861 -0.1710 -0.0627
  561MOL0     C75657   9.759   5.235   3.704  0.4959  0.4760  0.5363
  561MOL0     C75658   9.810   5.265   3.579 -0.3716 -0.8698  0.8001
  561MOL0     O75659   9.814   5.181   3.478  0.5187  0.1016 -0.4338
  561MOL0     C75660   9.809   5.038   3.492 -0.9766 -0.3357  0.2870
  561MOL0     C75661   9.924   4.977   3.574 -0.3423 -0.3470 -0.3097
  561MOL0     C75662  10.061   5.041   3.531  0.6016  1.5522  0.1306
  561MOL0     C75663  10.180   4.984   3.616 -0.2130 -0.7150  0.0493
  561MOL0     C75664  10.184   5.023   3.757  0.1558 -0.2451  0.7102
  561MOL0     C75665  10.172   5.057   3.877  0.0343  0.0967 -0.3471
  561MOL0     C75666   9.860   5.395   3.556 -0.9669  0.6063  0.7025
  561MOL0     C75667   9.859   5.494   3.650  0.6981 -0.1491 -0.2103
  561MOL0     H75668   9.871   5.898   3.716  4.8093 -0.6249  0.7850
  561MOL0     H75669   9.855   6.138   3.804  3.5364 -1.5755 -1.2463
  561MOL0     H75670   9.907   6.143   4.249 -1.6049  0.5097  2.4908
  561MOL0     H75671   9.929   6.316   4.224  0.6108 -0.6872  2.2113
  561MOL0     H75672   9.670   6.163   4.262  0.4319  0.0449 -0.9937
  561MOL0     H75673   9.729   6.301   4.354 -0.5519  4.0382 -1.2558
  561MOL0     H75674   9.726   6.433   4.128  2.2465 -1.6026  0.9582
  561MOL0     H75675   9.596   6.318   4.085 -1.8470  1.9842 -1.0589
  561MOL0     H75676   9.488   6.401   4.316 -0.9545 -0.4921 -0.8685
  561MOL0     H75677   9.620   6.517   4.312  0.3980 -0.7716 -0.4201
  561MOL0     H75678   9.549   6.583   4.085  0.8326 -0.2055  2.1472
  561MOL0     H75679   9.408   6.478   4.076 -3.2429  1.0765  0.4815
  561MOL0     H75680   9.308   6.634   4.264  0.9808  0.5150  0.6869
  561MOL0     H75681   9.465   6.715   4.258  0.2133 -0.2828  0.0200
  561MOL0     H75682   9.421   6.758   4.010 -2.6293  2.3418 -1.8181
  561MOL0     H75683   9.269   6.672   4.019  0.4376  1.0221 -3.7121
  561MOL0     H75684   9.338   6.929   4.165  2.3748  1.3516 -2.5600
  561MOL0     H75685   9.181   6.838   4.185  2.0697 -2.0765  0.0826
  561MOL0     H75686   9.005   6.835   3.975  1.1156 -0.6684  0.7443
  561MOL0     H75687   9.024   6.909   3.609  2.1552  1.5480  1.0275
  561MOL0     H75688   8.929   6.827   3.725  0.7357  0.1112  0.9229
  561MOL0     H75689   8.862   7.059   3.589 -2.3160  0.2475 -0.1123
  561MOL0     H75690   8.937   7.137   3.731 -0.1410 -0.3087  0.6160
  561MOL0     H75691   8.754   7.042   3.877 -2.6413  0.5218  1.0770
  561MOL0     H75692   8.713   6.913   3.763 -1.4403  1.2068 -1.1106
  561MOL0     H75693   8.547   7.104   3.728 -0.8540  2.5334 -2.3840
  561MOL0     H75694   8.645   7.094   3.594 -0.6192 -2.8795  0.5978
  561MOL0     H75695   8.762   7.487   3.773  0.3646 -3.3221 -0.3513
  561MOL0     H75696   8.790   7.695   3.822  0.4307  1.1488 -2.4525
  561MOL0     H75697   8.668   7.807   3.748  2.1829  0.1034 -0.3645
  561MOL0     H75698   8.653   7.767   3.912 -0.0571  0.3884  0.4961
  561MOL0     H75699   8.174   7.865   3.976 -1.6863  0.8997  0.3014
  561MOL0     H75700   8.081   8.068   3.998 -0.5272 -3.3516 -0.1200
  561MOL0     H75701   8.168   8.458   3.758 -1.3018  1.9732  0.6468
  561MOL0     H75702   8.105   8.325   3.665  1.5079  0.2316  0.4917
  561MOL0     H75703   7.940   8.522   3.709  1.4303 -0.1617 -0.6182
  561MOL0     H75704   7.885   8.362   3.762  1.7075 -0.8428 -1.6427
  561MOL0     H75705   8.028   8.553   3.943  0.0580  0.8491 -1.8497
  561MOL0     H75706   7.940   8.401   3.993 -2.9140 -0.7417 -0.9821
  561MOL0     H75707   7.830   8.622   4.031 -1.1136 -1.5489  0.7741
  561MOL0     H75708   7.797   8.623   3.857  0.6082 -0.8066 -1.0603
  561MOL0     H75709   7.607   8.536   4.006 -0.5167  0.2734 -1.6965
  561MOL0     H75710   7.711   8.409   4.062  0.5357  0.2686 -0.5805
  561MOL0     H75711   7.705   8.298   3.847 -2.6485 -1.9643 -1.0726
  561MOL0     H75712   7.542   8.337   3.892 -0.3072  1.5829  1.5093
  561MOL0     H75713   7.704   8.475   3.674  0.2982  2.5283  1.7969
  561MOL0     H75714   7.541   8.513   3.734 -1.1368 -1.1406  1.4292
  561MOL0     H75715   7.444   8.301   3.689  0.2547 -0.5172 -0.5428
  561MOL0     H75716   7.593   8.252   3.599 -0.6366  0.9604 -2.8453
  561MOL0     H75717   8.352   8.248   3.717  0.2340 -1.2026 -2.1549
  561MOL0     H75718   8.446   8.020   3.685  0.2523 -1.8141  0.9414
  561MOL0     H75719   8.270   7.451   3.723  0.0466  2.2476 -0.3623
  561MOL0     H75720   8.399   7.256   3.700  1.6306 -0.8146  2.6021
  561MOL0     H75721   9.807   5.969   4.195 -4.2884 -1.1297 -0.4475
  561MOL0     H75722   9.786   5.758   4.106 -0.3112  0.2760  0.0634
  561MOL0     H75723   9.732   5.302   3.911 -0.5651  1.6796  0.3851
  561MOL0     H75724   9.712   5.138   3.718 -0.8934  0.4551 -3.1677
  561MOL0     H75725   9.720   5.003   3.545 -1.5818  1.1980  0.3293
  561MOL0     H75726   9.819   5.002   3.389  4.5420  0.2154  0.3379
  561MOL0     H75727   9.928   4.869   3.560 -4.1337 -0.5907 -0.3142
  561MOL0     H75728   9.907   4.993   3.681  0.0684  2.6739 -0.6143
  561MOL0     H75729  10.060   5.150   3.541  1.1884  1.5150  0.6645
  561MOL0     H75730  10.080   5.012   3.427 -0.3563  3.5518 -0.6588
  561MOL0     H75731  10.269   5.033   3.576 -1.7942  2.8022  0.3865
  561MOL0     H75732  10.179   4.875   3.616  0.2464 -0.7582  1.8976
  561MOL0     H75733  10.156   5.112   3.967 -0.1836 -0.1920 -0.2099
  561MOL0     H75734   9.896   5.427   3.459  1.9443 -0.8353  1.1993
  561MOL0     H75735   9.894   5.593   3.622  0.0152  0.2473  0.2872
  562MOL0     O75736   5.611   9.441   2.759 -0.2776  0.2961  0.6759
  562MOL0     C75737   5.644   9.552   2.804 -0.3846 -0.4427  0.8057
  562MOL0     O75738   5.563   9.639   2.872  0.0562  1.0079  0.0955
  562MOL0     C75739   5.437   9.598   2.922  0.3943  0.4497 -1.0210
  562MOL0     C75740   5.441   9.506   3.026 -0.0644 -1.0887  0.2405
  562MOL0     C75741   5.326   9.452   3.076  0.5073 -0.6195 -0.1719
  562MOL0     C75742   5.197   9.495   3.040  0.1860 -0.3030 -0.1768
  562MOL0     O75743   5.093   9.438   3.101  0.0093  0.6106 -0.0090
  562MOL0     C75744   4.984   9.519   3.145 -0.3713  0.3140 -0.6949
  562MOL0     C75745   4.888   9.444   3.241  0.0334 -0.6741  0.5855
  562MOL0     C75746   4.773   9.530   3.282 -0.4972 -0.1093 -0.4103
  562MOL0     C75747   4.667   9.450   3.367 -0.1861 -0.6353  0.8055
  562MOL0     C75748   4.728   9.357   3.473 -0.0036  0.6962  0.3644
  562MOL0     C75749   4.632   9.297   3.562 -0.3385  0.2506  0.3196
  562MOL0     C75750   4.576   9.159   3.510  0.4066 -1.1396  0.3853
  562MOL0     C75751   4.476   9.085   3.607 -0.8205  0.1650  0.1951
  562MOL0     N75752   4.503   9.115   3.752 -0.3211  0.0766  0.2040
  562MOL0     C75753   4.617   9.074   3.827  0.7161  0.8152  0.0530
  562MOL0     C75754   4.586   9.102   3.952 -0.1212 -0.4252 -0.2441
  562MOL0     C75755   4.677   9.072   4.070 -0.0018  0.1989 -0.3064
  562MOL0     C75756   4.626   8.988   4.181 -0.6809 -0.7365  0.2780
  562MOL0     C75757   4.741   8.905   4.239  0.9890  0.4348 -0.3893
  562MOL0     C75758   4.681   8.807   4.342 -0.1069  0.3580  0.2598
  562MOL0     O75759   4.774   8.709   4.387  0.1897  0.0885 -0.8071
  562MOL0     C75760   4.723   8.628   4.488  0.8166  0.5209  0.1370
  562MOL0     C75761   4.813   8.536   4.548  0.4085  0.6469  0.9738
  562MOL0     C75762   4.759   8.437   4.633  0.0006 -0.7000 -0.9004
  562MOL0     C75763   4.851   8.349   4.703 -0.2689 -0.1453 -0.7812
  562MOL0     C75764   4.621   8.441   4.673  0.4804 -0.1198 -0.2102
  562MOL0     C75765   4.560   8.358   4.773  0.4489  0.2562 -0.8236
  562MOL0     O75766   4.428   8.335   4.755 -0.8938 -0.6537 -0.6235
  562MOL0     C75767   4.337   8.283   4.843  0.1195  0.9936 -0.6059
  562MOL0     C75768   4.353   8.253   4.983 -1.0798  0.5185  0.3080
  562MOL0     C75769   4.244   8.219   5.062  0.1916  0.8065  1.0310
  562MOL0     C75770   4.114   8.216   5.013 -0.4794  0.0233 -0.9290
  562MOL0     O75771   4.021   8.206   5.109 -0.2351  0.0544  0.2571
  562MOL0     C75772   3.885   8.229   5.087 -0.5836 -0.4899 -0.0782
  562MOL0     C75773   3.830   8.224   5.229  0.1850 -0.2781  0.3644
  562MOL0     C75774   3.684   8.206   5.233  0.0078 -0.0572  0.0836
  562MOL0     C75775   3.626   8.162   5.367  0.1751  0.2790 -0.4030
  562MOL0     C75776   3.670   8.014   5.402  0.0661  0.3960 -0.4024
  562MOL0     C75777   3.587   7.957   5.520  0.4417 -0.0399 -0.2983
  562MOL0     C75778   3.651   7.828   5.554  0.1427  0.5935 -1.5078
  562MOL0     C75779   3.617   7.781   5.694  0.3027  0.0857 -0.2181
  562MOL0    Cl75780   3.636   7.610   5.732  0.0850 -0.1278  0.2238
  562MOL0     C75781   4.099   8.244   4.878  0.0612 -0.1326 -0.3272
  562MOL0     C75782   4.208   8.273   4.794 -0.3124  0.3309  0.4624
  562MOL0     O75783   4.635   8.313   4.869 -0.2279  0.2015  0.2107
  562MOL0     C75784   4.543   8.552   4.629 -0.1948  0.5190  0.4949
  562MOL0     C75785   4.590   8.636   4.533  0.7995 -0.1054 -0.0556
  562MOL0     N75786   4.470   9.177   3.948  1.0521 -0.1531 -0.7976
  562MOL0     N75787   4.416   9.185   3.835 -0.5710  0.0374 -0.7317
  562MOL0     C75788   5.189   9.601   2.947 -0.9187  0.6103  0.0210
  562MOL0     C75789   5.311   9.647   2.890 -0.2529 -0.0408  0.1936
  562MOL0     C75790   5.790   9.598   2.772  1.0784 -0.2244  0.3626
  562MOL0     C75791   5.835   9.718   2.831 -0.0342 -0.4852 -0.6568
  562MOL0     C75792   5.955   9.775   2.792  1.1025  0.1917 -0.2069
  562MOL0     C75793   6.029   9.702   2.699 -0.3958 -0.5118  0.0619
  562MOL0     O75794   6.153   9.749   2.638  0.6302  0.3122  0.4370
  562MOL0     C75795   6.185   9.885   2.647 -0.1740  0.3342 -0.3306
  562MOL0     C75796   6.310   9.926   2.571  0.0655  0.4128  0.3013
  562MOL0     C75797   6.285   9.917   2.422  0.3947 -0.3789  0.7733
  562MOL0     C75798   6.406   9.994   2.351  0.6473  0.2124  0.3572
  562MOL0     C75799   6.361  10.022   2.212  0.1928 -0.1948 -1.3340
  562MOL0     C75800   6.330  10.078   2.113  1.1432 -0.0395 -0.1089
  562MOL0     C75801   5.993   9.585   2.642  0.6051  0.6157  0.5994
  562MOL0     C75802   5.870   9.531   2.679 -0.4292 -0.3758  0.3929
  562MOL0     H75803   5.533   9.451   3.045  0.5534  0.1066  0.7616
  562MOL0     H75804   5.335   9.372   3.149 -1.2929  1.1877  2.1938
  562MOL0     H75805   5.024   9.599   3.207  0.7445  0.8837 -2.1246
  562MOL0     H75806   4.921   9.541   3.059 -3.0150 -1.3266  0.6588
  562MOL0     H75807   4.851   9.363   3.178  1.4499 -0.1780 -0.9525
  562MOL0     H75808   4.938   9.394   3.324  0.1926 -3.9262 -1.3277
  562MOL0     H75809   4.811   9.604   3.353  1.8970 -1.5617 -0.0670
  562MOL0     H75810   4.744   9.587   3.194  1.6142  2.0219  0.1823
  562MOL0     H75811   4.595   9.514   3.419 -2.2365 -1.2696 -1.0899
  562MOL0     H75812   4.606   9.394   3.296 -1.3508  0.3711  0.9823
  562MOL0     H75813   4.783   9.277   3.422 -0.3718 -0.0015  1.0391
  562MOL0     H75814   4.801   9.411   3.534  1.3996 -1.4667  0.7352
  562MOL0     H75815   4.692   9.276   3.651  0.3477 -1.6108 -0.5363
  562MOL0     H75816   4.561   9.377   3.586  0.2401  1.5995 -2.0725
  562MOL0     H75817   4.520   9.160   3.416  1.1604 -2.8307 -0.1393
  562MOL0     H75818   4.667   9.099   3.496  0.0795 -1.7206  0.6849
  562MOL0     H75819   4.485   8.982   3.572 -1.3786 -0.0404  0.6489
  562MOL0     H75820   4.372   9.110   3.586 -1.5398 -0.2768  2.8648
  562MOL0     H75821   4.702   9.016   3.793  0.2386  0.8304 -1.1994
  562MOL0     H75822   4.765   9.017   4.036 -0.5801  0.6840 -2.8593
  562MOL0     H75823   4.709   9.172   4.102 -0.0106  0.3108 -0.6347
  562MOL0     H75824   4.546   8.926   4.141 -0.7806 -1.0421  0.9401
  562MOL0     H75825   4.571   9.043   4.257 -0.0351 -0.2327  0.3961
  562MOL0     H75826   4.811   8.969   4.293 -0.8327  1.0371  1.3961
  562MOL0     H75827   4.787   8.848   4.157  0.4741  1.0513 -1.1133
  562MOL0     H75828   4.588   8.764   4.302  1.1212 -1.9006 -0.3072
  562MOL0     H75829   4.645   8.861   4.430 -0.4750 -1.1542  1.0670
  562MOL0     H75830   4.911   8.531   4.501  1.0685  1.7995  2.1634
  562MOL0     H75831   4.872   8.401   4.797 -0.6244  1.6069 -1.6252
  562MOL0     H75832   4.824   8.244   4.716 -1.8825  0.5509  2.5315
  562MOL0     H75833   4.942   8.351   4.641  1.0604 -1.0675  1.0293
  562MOL0     H75834   4.454   8.260   5.022  0.2201 -3.2215 -1.8273
  562MOL0     H75835   4.253   8.206   5.169 -2.2586  4.7294  1.9288
  562MOL0     H75836   3.869   8.330   5.047  2.3154  0.7437  1.4587
  562MOL0     H75837   3.833   8.153   5.029 -2.6491  2.2463 -2.0899
  562MOL0     H75838   3.888   8.155   5.291 -0.6006 -1.8585 -0.5772
  562MOL0     H75839   3.848   8.321   5.276  1.2737 -0.6771  0.8005
  562MOL0     H75840   3.660   8.134   5.155  2.0550  1.8121 -2.4482
  562MOL0     H75841   3.643   8.305   5.208  1.3036  1.0145  1.8825
  562MOL0     H75842   3.656   8.232   5.446  2.3809 -0.7557 -0.2540
  562MOL0     H75843   3.517   8.165   5.360  0.0433  1.1488  1.4050
  562MOL0     H75844   3.773   8.024   5.436  0.7221 -4.0288 -0.5296
  562MOL0     H75845   3.661   7.945   5.317  2.2853 -0.3087 -0.1094
  562MOL0     H75846   3.589   8.030   5.601 -2.1031 -0.3909  0.1498
  562MOL0     H75847   3.480   7.954   5.498 -0.2687  0.4704  2.6964
  562MOL0     H75848   3.758   7.842   5.537 -0.0115  0.7652 -2.3863
  562MOL0     H75849   3.616   7.752   5.483 -0.9195  0.9055 -1.3322
  562MOL0     H75850   3.508   7.790   5.706  0.5384  0.2586  2.4464
  562MOL0     H75851   3.673   7.844   5.763  0.7095 -0.6906  0.1667
  562MOL0     H75852   3.998   8.253   4.839 -0.3771  2.6497  1.1890
  562MOL0     H75853   4.185   8.298   4.690  0.6768 -5.7975 -1.6080
  562MOL0     H75854   4.438   8.557   4.654 -0.1625  0.5743  0.6197
  562MOL0     H75855   4.510   8.702   4.499 -1.8494 -1.4466  3.0679
  562MOL0     H75856   5.091   9.643   2.926 -1.1857  0.7206  1.3913
  562MOL0     H75857   5.300   9.731   2.822 -3.3991  1.0559  1.8501
  562MOL0     H75858   5.775   9.785   2.891 -1.8738 -1.7882 -0.9363
  562MOL0     H75859   5.991   9.866   2.839  0.9638  0.2140 -0.1420
  562MOL0     H75860   6.103   9.947   2.610 -1.7691  0.2899  2.7881
  562MOL0     H75861   6.203   9.903   2.753  0.3894 -0.8246 -0.2088
  562MOL0     H75862   6.388   9.854   2.595  0.2806  0.4769 -0.1824
  562MOL0     H75863   6.335  10.028   2.602  2.2382 -0.5688  1.9814
  562MOL0     H75864   6.188   9.959   2.392  1.2893 -0.5553 -2.7025
  562MOL0     H75865   6.288   9.814   2.387  0.8274  0.6728 -2.6285
  562MOL0     H75866   6.487   9.921   2.357 -0.5723 -1.2010  0.2600
  562MOL0     H75867   6.441  10.074   2.416  0.4033 -1.1549  2.2714
  562MOL0     H75868   6.297  10.123   2.021  0.0454 -1.5265 -0.4918
  562MOL0     H75869   6.058   9.527   2.578 -1.1831 -0.8171 -0.0024
  562MOL0     H75870   5.839   9.435   2.638 -1.2772  0.1477 -0.2305
  563MOL0     O75871   4.373   7.694   2.837 -0.0206  0.1786  0.7568
  563MOL0     C75872   4.316   7.786   2.779  0.1692 -0.0409 -0.8709
  563MOL0     O75873   4.378   7.897   2.721 -0.7165  0.2233  0.1969
  563MOL0     C75874   4.519   7.901   2.731  0.4455  0.2379  0.0586
  563MOL0     C75875   4.591   7.870   2.838  0.1666 -0.6357 -0.4646
  563MOL0     C75876   4.727   7.862   2.853  0.1990  0.0309 -0.2988
  563MOL0     C75877   4.794   7.907   2.734  1.3493 -0.0052  0.3422
  563MOL0     O75878   4.929   7.921   2.726  0.2378  0.6215  0.0076
  563MOL0     C75879   5.009   7.937   2.835  0.0774  0.1957  1.0485
  563MOL0     C75880   5.015   8.083   2.891  0.9419  0.1342 -0.3282
  563MOL0     C75881   5.124   8.097   3.005  0.4265  0.4151  0.6240
  563MOL0     C75882   5.141   8.245   3.036 -0.3967  0.6310 -0.5634
  563MOL0     C75883   5.251   8.253   3.149 -0.3279  0.1867 -0.3644
  563MOL0     C75884   5.243   8.152   3.267  0.1991 -0.0649 -0.3669
  563MOL0     C75885   5.358   8.189   3.373 -0.2194  0.7117 -0.3128
  563MOL0     C75886   5.482   8.099   3.359  0.3376 -0.2004 -0.6241
  563MOL0     N75887   5.586   8.125   3.464  0.2602  0.0021 -0.0939
  563MOL0     C75888   5.672   8.237   3.464  0.0364  0.1155  0.6758
  563MOL0     C75889   5.743   8.232   3.585 -0.5460 -0.8036  0.5418
  563MOL0     C75890   5.839   8.334   3.641 -0.1832  0.3182 -0.1845
  563MOL0     C75891   5.860   8.456   3.544  0.3033 -0.3967  0.7709
  563MOL0     C75892   5.973   8.552   3.605  0.5427 -0.1820 -0.3498
  563MOL0     C75893   6.112   8.503   3.593  1.1226 -0.4771 -0.8159
  563MOL0     O75894   6.169   8.466   3.719  0.4678 -0.1564  0.8307
  563MOL0     C75895   6.201   8.570   3.799 -0.6826  0.0911  1.3685
  563MOL0     C75896   6.131   8.587   3.915  0.0933 -0.0654 -0.3173
  563MOL0     C75897   6.163   8.688   4.008  0.3120  0.7194  0.5551
  563MOL0     C75898   6.082   8.694   4.135  0.0384  0.3061  0.1937
  563MOL0     C75899   6.274   8.770   3.984 -0.7263  0.0291  0.5794
  563MOL0     C75900   6.336   8.875   4.074  0.1085 -0.1442 -0.3026
  563MOL0     O75901   6.466   8.884   4.070  0.9710 -1.0060 -0.0112
  563MOL0     C75902   6.532   8.987   4.136  0.1077  0.2090  0.0094
  563MOL0     C75903   6.586   8.971   4.265 -0.5739  0.0749 -0.1957
  563MOL0     C75904   6.690   9.060   4.314  0.6550 -0.2021 -0.1271
  563MOL0     C75905   6.723   9.178   4.238 -0.1921  0.9132 -0.4298
  563MOL0     O75906   6.816   9.250   4.302  0.3288 -0.7013  0.4522
  563MOL0     C75907   6.904   9.341   4.229 -0.3299 -0.5940  0.7298
  563MOL0     C75908   6.846   9.474   4.205 -0.3822 -0.9217  0.8003
  563MOL0     C75909   6.869   9.571   4.326 -0.2806  1.0859 -0.5869
  563MOL0     C75910   7.011   9.624   4.349 -0.4118 -0.1323 -0.6295
  563MOL0     C75911   7.015   9.725   4.466  0.3811  0.0790  0.3014
  563MOL0     C75912   7.156   9.785   4.469 -0.5235 -0.6175 -0.5372
  563MOL0     C75913   7.169   9.875   4.599  0.2766  0.0551 -0.6818
  563MOL0     C75914   7.314   9.928   4.611  0.0473  0.0185  0.1663
  563MOL0    Cl75915   7.323  10.097   4.667 -0.4691 -0.2470  0.0018
  563MOL0     C75916   6.668   9.192   4.105 -0.5147  1.1160  0.0869
  563MOL0     C75917   6.575   9.096   4.059  1.4887  0.0853  0.9371
  563MOL0     O75918   6.259   8.953   4.133 -0.1731  0.7203  0.1476
  563MOL0     C75919   6.349   8.746   3.865  0.0991 -0.5471 -0.2599
  563MOL0     C75920   6.314   8.656   3.772  0.3342 -0.3347 -0.1207
  563MOL0     N75921   5.700   8.114   3.652  0.0337 -0.3714  0.8921
  563MOL0     N75922   5.612   8.053   3.576 -0.2126  0.7479 -0.2344
  563MOL0     C75923   4.727   7.950   2.620 -0.0732  0.5846 -0.7945
  563MOL0     C75924   4.588   7.951   2.621 -0.0426 -0.3426 -0.4337
  563MOL0     C75925   4.162   7.788   2.762 -0.4253  0.3553  1.0389
  563MOL0     C75926   4.063   7.709   2.836 -0.2123  0.3273  0.6854
  563MOL0     C75927   3.929   7.727   2.830  0.1398 -0.2978  1.0410
  563MOL0     C75928   3.871   7.816   2.741 -0.2113  0.0678  0.5573
  563MOL0     O75929   3.739   7.835   2.763 -0.5122 -0.2433 -0.2712
  563MOL0     C75930   3.666   7.917   2.677 -0.7371 -0.7184 -0.8868
  563MOL0     C75931   3.648   7.874   2.532 -0.3534  0.1760 -0.8623
  563MOL0     C75932   3.557   7.752   2.521 -0.1837 -0.7909  0.4486
  563MOL0     C75933   3.452   7.762   2.412 -0.3117  1.8103 -0.1470
  563MOL0     C75934   3.521   7.776   2.283  1.1380 -0.5781 -0.1867
  563MOL0     C75935   3.587   7.787   2.185 -0.0165  0.2754  0.1076
  563MOL0     C75936   3.960   7.874   2.651 -0.8147  0.1757 -0.9722
  563MOL0     C75937   4.097   7.867   2.660  0.4275 -0.0351 -0.7509
  563MOL0     H75938   4.533   7.861   2.929 -3.6652 -0.4400 -2.6751
  563MOL0     H75939   4.767   7.841   2.952 -1.2627 -2.5682 -0.1659
  563MOL0     H75940   4.985   7.858   2.907 -1.9304  0.2599  0.5057
  563MOL0     H75941   5.109   7.914   2.795  0.1353  1.9925  0.0633
  563MOL0     H75942   5.054   8.141   2.806  3.5992  0.5242  1.0340
  563MOL0     H75943   4.917   8.121   2.920  0.4442 -0.3385 -1.3517
  563MOL0     H75944   5.097   8.036   3.092  1.4806 -2.3031 -0.8567
  563MOL0     H75945   5.218   8.054   2.970 -0.4311 -1.4394  0.4620
  563MOL0     H75946   5.182   8.282   2.941  1.4320 -1.0465 -0.4897
  563MOL0     H75947   5.048   8.298   3.057  0.2802  0.9488  2.0798
  563MOL0     H75948   5.351   8.248   3.105  0.4984  1.9306  1.1623
  563MOL0     H75949   5.255   8.354   3.190  2.7224  0.7303 -1.7485
  563MOL0     H75950   5.145   8.165   3.315  0.5783 -2.5616  1.2586
  563MOL0     H75951   5.251   8.046   3.244 -0.1214 -0.1302 -0.1867
  563MOL0     H75952   5.405   8.286   3.358  4.0055 -0.9134  0.9140
  563MOL0     H75953   5.325   8.188   3.478  0.2271  1.6004 -0.1599
  563MOL0     H75954   5.526   8.115   3.261 -1.2992 -0.1556 -1.3798
  563MOL0     H75955   5.457   7.992   3.359 -0.6968 -0.0556  2.3098
  563MOL0     H75956   5.671   8.306   3.380  0.2418 -1.2383 -0.4800
  563MOL0     H75957   5.800   8.383   3.731 -2.6688  0.6975 -1.3817
  563MOL0     H75958   5.935   8.286   3.663 -0.2554  0.5915  0.7741
  563MOL0     H75959   5.768   8.511   3.522  1.2913 -0.0250 -3.3190
  563MOL0     H75960   5.886   8.427   3.442  0.5104  0.2972  0.6207
  563MOL0     H75961   5.945   8.580   3.707  3.7958 -1.1236  0.9336
  563MOL0     H75962   5.970   8.644   3.546  2.6221 -0.1573 -0.4816
  563MOL0     H75963   6.164   8.581   3.538 -1.2373  2.5319  0.9057
  563MOL0     H75964   6.114   8.405   3.544  0.8961 -1.6986  1.4375
  563MOL0     H75965   6.073   8.498   3.939  1.0829 -0.1492  2.0087
  563MOL0     H75966   6.151   8.702   4.219  1.4645  0.9162 -0.9808
  563MOL0     H75967   6.027   8.788   4.121 -0.6892 -0.3354 -1.5782
  563MOL0     H75968   6.007   8.616   4.153  0.5765 -0.6189 -1.4170
  563MOL0     H75969   6.560   8.890   4.333 -0.0928 -0.1469 -0.2761
  563MOL0     H75970   6.738   9.035   4.408 -0.0693 -3.5636 -0.5061
  563MOL0     H75971   6.998   9.350   4.284  0.4633  2.0229 -0.8489
  563MOL0     H75972   6.935   9.304   4.130 -0.7271  1.3806 -0.1760
  563MOL0     H75973   6.890   9.518   4.115 -1.7109 -2.8779 -0.9056
  563MOL0     H75974   6.738   9.465   4.191 -0.1618 -1.9302 -0.5365
  563MOL0     H75975   6.842   9.508   4.412 -0.6271 -0.9671 -2.1055
  563MOL0     H75976   6.795   9.651   4.315 -1.9510  0.4129  3.7137
  563MOL0     H75977   7.071   9.537   4.375  1.0595  0.9132 -0.3600
  563MOL0     H75978   7.057   9.671   4.261  0.6742 -0.5757 -0.3170
  563MOL0     H75979   7.006   9.667   4.559 -0.3441 -0.8436 -0.3203
  563MOL0     H75980   6.935   9.797   4.447  0.6829 -0.1374 -2.1133
  563MOL0     H75981   7.237   9.711   4.465  0.0729 -0.0326  0.4956
  563MOL0     H75982   7.177   9.849   4.382  4.0733  0.5041  1.1327
  563MOL0     H75983   7.143   9.812   4.686  0.8154 -2.8338 -2.4730
  563MOL0     H75984   7.094   9.954   4.604 -0.9980 -1.0544 -1.5494
  563MOL0     H75985   7.357   9.914   4.511 -1.2080 -2.0061 -0.1707
  563MOL0     H75986   7.362   9.865   4.686 -1.7134  0.6526  1.9031
  563MOL0     H75987   6.701   9.275   4.043 -2.8966  1.2186 -1.1584
  563MOL0     H75988   6.539   9.091   3.957 -0.2291 -3.1506  1.5418
  563MOL0     H75989   6.437   8.806   3.842 -1.8132  3.0878  1.1653
  563MOL0     H75990   6.389   8.645   3.694  3.9548 -1.1362  3.1511
  563MOL0     H75991   4.788   7.971   2.533  1.3966  0.4895  0.1839
  563MOL0     H75992   4.547   7.981   2.526  2.5643  2.1369 -0.9226
  563MOL0     H75993   4.102   7.643   2.913 -1.3355 -1.5344 -0.2537
  563MOL0     H75994   3.883   7.661   2.902  1.0740 -0.3208  1.6274
  563MOL0     H75995   3.567   7.936   2.720 -0.7593 -3.5142  0.5706
  563MOL0     H75996   3.722   8.011   2.675 -0.1802 -0.9674  1.1125
  563MOL0     H75997   3.744   7.848   2.487 -2.2523 -2.2433 -3.9912
  563MOL0     H75998   3.605   7.953   2.470 -0.8935 -0.8636 -1.8758
  563MOL0     H75999   3.503   7.753   2.616  2.0554  1.6318  1.8166
  563MOL0     H76000   3.621   7.666   2.501  1.3687  1.0597 -3.6718
  563MOL0     H76001   3.384   7.845   2.433 -2.9809 -0.6316  1.4798
  563MOL0     H76002   3.393   7.670   2.415  0.6069  1.1327  4.4966
  563MOL0     H76003   3.637   7.791   2.090 -2.4308  1.7946 -1.2188
  563MOL0     H76004   3.924   7.947   2.578  0.5162  3.0764  1.0725
  563MOL0     H76005   4.160   7.922   2.590  1.0284 -3.1785 -2.8978
  564MOL0     O76006   7.964  10.502   4.965 -0.1984  0.4574  0.5059
  564MOL0     C76007   7.937  10.578   4.874 -0.2616 -0.4620 -0.5741
  564MOL0     O76008   7.961  10.560   4.739  1.2001  0.2561  0.5161
  564MOL0     C76009   8.061  10.492   4.687  0.4163 -0.0603  0.6026
  564MOL0     C76010   8.093  10.352   4.708  0.0051  0.2519  0.3629
  564MOL0     C76011   8.198  10.293   4.632  0.6285 -0.6152 -0.2459
  564MOL0     C76012   8.281  10.372   4.544  0.2311  0.1404 -0.0151
  564MOL0     O76013   8.390  10.331   4.479  0.1158 -0.0919  0.0980
  564MOL0     C76014   8.490  10.287   4.562  0.2641  1.2297 -0.7277
  564MOL0     C76015   8.496  10.141   4.583  0.9706 -0.4653 -0.5750
  564MOL0     C76016   8.450  10.054   4.476 -0.5819 -0.4156  0.4663
  564MOL0     C76017   8.420   9.909   4.525 -0.1643  0.3628  0.2002
  564MOL0     C76018   8.313   9.846   4.429  0.5722  0.0409  0.2982
  564MOL0     C76019   8.285   9.700   4.468  1.3910  0.9459  0.9925
  564MOL0     C76020   8.189   9.628   4.368  0.3293  0.3647  0.8992
  564MOL0     C76021   8.247   9.580   4.233  0.0746 -0.2792  0.0822
  564MOL0     N76022   8.146   9.557   4.121 -0.3045  0.1740 -0.4237
  564MOL0     C76023   8.020   9.510   4.131  0.0671  0.5985  0.2822
  564MOL0     C76024   7.975   9.508   4.004  0.2037 -0.4367 -0.2505
  564MOL0     C76025   7.835   9.446   3.964  0.4476 -0.0091 -0.6010
  564MOL0     C76026   7.746   9.568   3.937 -1.0814  0.3542  0.3600
  564MOL0     C76027   7.724   9.596   3.790 -0.3334  0.3390 -0.1296
  564MOL0     C76028   7.856   9.659   3.721  0.3359  0.4718 -0.7583
  564MOL0     O76029   7.908   9.795   3.774 -0.6972  0.9290 -0.6379
  564MOL0     C76030   7.826   9.900   3.771 -0.7130 -0.4192  0.4333
  564MOL0     C76031   7.834   9.986   3.882  0.4926  0.1255 -0.1221
  564MOL0     C76032   7.791  10.118   3.876 -0.2509  0.6839  1.1261
  564MOL0     C76033   7.809  10.201   4.006  0.3218 -0.1200  0.3165
  564MOL0     C76034   7.723  10.170   3.756  0.5495  0.2268  0.7095
  564MOL0     C76035   7.666  10.297   3.734  0.8560 -0.3564  0.1121
  564MOL0     O76036   7.656  10.339   3.600 -0.0752 -0.2192  0.4717
  564MOL0     C76037   7.693  10.471   3.598  0.4686 -0.3252 -0.2483
  564MOL0     C76038   7.826  10.507   3.590  0.5524 -0.3571  0.4496
  564MOL0     C76039   7.851  10.643   3.563 -0.4289 -0.0059  0.6445
  564MOL0     C76040   7.755  10.739   3.547 -0.5627 -0.1610  0.2125
  564MOL0     O76041   7.803  10.865   3.510 -0.3503  1.1488 -0.2714
  564MOL0     C76042   7.717  10.977   3.487  0.6657 -0.8783 -0.8245
  564MOL0     C76043   7.765  11.065   3.367  0.4830 -0.3596 -0.1020
  564MOL0     C76044   7.884  11.158   3.387  0.0159  0.4569 -0.4495
  564MOL0     C76045   7.930  11.213   3.256 -0.7442 -0.4214 -0.6444
  564MOL0     C76046   8.047  11.307   3.263 -0.3409 -0.1574  0.0056
  564MOL0     C76047   8.054  11.403   3.145  0.6057  0.3955  0.1750
  564MOL0     C76048   7.943  11.517   3.143 -0.0959 -0.5363  0.9247
  564MOL0     C76049   7.991  11.623   3.247 -0.6168 -0.5017 -0.6860
  564MOL0    Cl76050   7.875  11.761   3.240 -0.2251 -0.3154  0.2185
  564MOL0     C76051   7.619  10.701   3.554 -0.2917 -0.0890  0.1078
  564MOL0     C76052   7.591  10.565   3.576 -0.0949 -0.3653  0.5940
  564MOL0     O76053   7.647  10.366   3.836 -0.2182 -0.4084 -0.5979
  564MOL0     C76054   7.719  10.079   3.649 -0.2007  0.2373  0.0158
  564MOL0     C76055   7.777   9.954   3.648  0.8263  0.3988 -0.4673
  564MOL0     N76056   8.077   9.562   3.922  0.3412 -0.4102  0.4908
  564MOL0     N76057   8.168   9.599   3.998 -0.2017  0.8865 -0.1188
  564MOL0     C76058   8.238  10.508   4.533  1.2954  0.0705  0.2969
  564MOL0     C76059   8.129  10.560   4.597 -0.1683 -0.4734 -0.5820
  564MOL0     C76060   7.860  10.700   4.903  0.0257  0.7150 -1.0121
  564MOL0     C76061   7.856  10.762   5.029 -0.1279 -1.2737  0.6130
  564MOL0     C76062   7.779  10.873   5.052  0.0503 -1.1467 -0.0587
  564MOL0     C76063   7.712  10.936   4.951 -0.0288 -0.3031  0.1874
  564MOL0     O76064   7.639  11.047   4.970  0.8368  0.6493 -0.1867
  564MOL0     C76065   7.680  11.142   5.069 -0.5767 -0.0880 -0.9577
  564MOL0     C76066   7.650  11.284   5.012  0.6307 -1.0289  0.3227
  564MOL0     C76067   7.655  11.401   5.106  0.4334 -0.0277 -0.4640
  564MOL0     C76068   7.796  11.420   5.179 -0.8225  1.2071 -0.2910
  564MOL0     C76069   7.805  11.563   5.226  0.2055 -0.0522  0.4164
  564MOL0     C76070   7.805  11.686   5.238 -0.2908 -0.0724  0.4141
  564MOL0     C76071   7.710  10.876   4.827  0.5892 -0.3719  0.2508
  564MOL0     C76072   7.790  10.765   4.798 -0.1867 -0.0537 -0.2750
  564MOL0     H76073   8.029  10.300   4.778 -1.1474 -2.3200 -2.3963
  564MOL0     H76074   8.218  10.188   4.650 -1.3144 -0.6593  2.1655
  564MOL0     H76075   8.584  10.315   4.512  0.1306  0.8176 -1.2089
  564MOL0     H76076   8.474  10.339   4.657  1.2075  1.7910 -0.8648
  564MOL0     H76077   8.602  10.113   4.587  1.2738  0.7200  1.6475
  564MOL0     H76078   8.459  10.104   4.679  0.7175 -2.0332 -1.2397
  564MOL0     H76079   8.363  10.105   4.434  1.1937  2.9582  0.5604
  564MOL0     H76080   8.504  10.061   4.381 -3.0785 -0.4737 -1.0323
  564MOL0     H76081   8.504   9.841   4.507  0.7680  0.9317  2.1261
  564MOL0     H76082   8.382   9.896   4.627  0.6050 -0.3845  0.4078
  564MOL0     H76083   8.230   9.916   4.438  1.5771  1.1678  0.9957
  564MOL0     H76084   8.357   9.844   4.328  3.8407  1.3972  1.5490
  564MOL0     H76085   8.375   9.640   4.452  0.6229  0.3880 -1.8126
  564MOL0     H76086   8.245   9.689   4.569  2.4513 -3.3295  1.1394
  564MOL0     H76087   8.159   9.535   4.416  0.7167 -0.9411 -1.2320
  564MOL0     H76088   8.099   9.685   4.344 -0.0999 -0.9326 -0.7368
  564MOL0     H76089   8.307   9.489   4.240  0.9242  0.0426 -2.1927
  564MOL0     H76090   8.314   9.656   4.192 -0.6226  0.2218 -0.1616
  564MOL0     H76091   7.971   9.492   4.226  2.3039 -0.5728  1.3066
  564MOL0     H76092   7.853   9.387   3.874  1.8848 -1.5934  0.6654
  564MOL0     H76093   7.802   9.380   4.045  0.4454 -1.0950 -1.4631
  564MOL0     H76094   7.792   9.658   3.980  2.1440 -0.4974 -1.0015
  564MOL0     H76095   7.654   9.557   3.996  0.1955  2.0589  2.8883
  564MOL0     H76096   7.643   9.668   3.775  0.0705  0.0906 -5.8619
  564MOL0     H76097   7.699   9.503   3.737  2.7756  1.1514 -3.4552
  564MOL0     H76098   7.830   9.671   3.615  2.0451  0.0257 -1.2461
  564MOL0     H76099   7.928   9.577   3.726  1.2417  1.3078  0.5999
  564MOL0     H76100   7.894   9.952   3.966 -0.0801  2.4036  1.2931
  564MOL0     H76101   7.828  10.304   3.976  2.7303 -0.0707  1.7756
  564MOL0     H76102   7.714  10.193   4.060 -0.0099 -1.5182 -0.4104
  564MOL0     H76103   7.888  10.163   4.071  0.2969  1.0701  1.0784
  564MOL0     H76104   7.906  10.435   3.604  0.8515 -0.2830 -0.7514
  564MOL0     H76105   7.951  10.685   3.563 -1.6768  3.9163 -4.3520
  564MOL0     H76106   7.619  10.940   3.455  1.7387 -3.4110 -1.4303
  564MOL0     H76107   7.694  11.038   3.575 -3.5392 -2.6837 -0.3873
  564MOL0     H76108   7.779  11.005   3.277 -1.5508  0.1824 -0.8322
  564MOL0     H76109   7.680  11.129   3.344 -0.9161 -1.7592  0.9507
  564MOL0     H76110   7.965  11.091   3.418  0.9921  1.0180 -1.6802
  564MOL0     H76111   7.863  11.231   3.465 -0.1729 -2.7636  2.7867
  564MOL0     H76112   7.956  11.131   3.188  1.6877  2.5760 -3.6619
  564MOL0     H76113   7.842  11.260   3.213 -1.4801 -0.8372  0.3814
  564MOL0     H76114   8.138  11.247   3.263 -1.8195 -2.5195  0.3164
  564MOL0     H76115   8.054  11.361   3.358 -3.0302 -0.0137  0.1945
  564MOL0     H76116   8.153  11.450   3.139  0.5905  0.5301  0.9181
  564MOL0     H76117   8.042  11.344   3.054  3.8889  0.9146 -0.7184
  564MOL0     H76118   7.842  11.480   3.165 -1.5608  0.7387 -2.8062
  564MOL0     H76119   7.939  11.569   3.047  0.0079  0.9930  1.7002
  564MOL0     H76120   8.093  11.657   3.227 -0.3888  1.3693  2.9132
  564MOL0     H76121   7.996  11.591   3.351  3.6804 -1.2580 -0.9431
  564MOL0     H76122   7.545  10.780   3.548  1.8738  2.0368 -0.2891
  564MOL0     H76123   7.489  10.535   3.555  0.5339 -0.9469 -1.9392
  564MOL0     H76124   7.674  10.106   3.554  2.4493  1.2415 -1.0660
  564MOL0     H76125   7.785   9.897   3.556  1.3493 -3.1339  1.5761
  564MOL0     H76126   8.304  10.571   4.474 -1.4488  1.3440 -1.5984
  564MOL0     H76127   8.104  10.665   4.589  1.6796  0.1184  0.8482
  564MOL0     H76128   7.924  10.727   5.106  0.3296 -1.9596 -0.0960
  564MOL0     H76129   7.772  10.928   5.146 -3.3814 -1.1158 -0.2371
  564MOL0     H76130   7.621  11.121   5.158 -1.0629  0.4518 -1.1506
  564MOL0     H76131   7.782  11.128   5.108 -0.3458 -0.2578 -1.6066
  564MOL0     H76132   7.548  11.281   4.973  0.7620  0.7729 -0.2339
  564MOL0     H76133   7.721  11.297   4.929  1.6998  0.2778  1.3924
  564MOL0     H76134   7.578  11.389   5.184  0.3868 -0.1122 -0.5239
  564MOL0     H76135   7.634  11.496   5.056  2.7766  0.6034 -0.3848
  564MOL0     H76136   7.877  11.393   5.111 -0.8119 -0.1651  0.2362
  564MOL0     H76137   7.808  11.352   5.264  2.8896 -0.5895 -2.0047
  564MOL0     H76138   7.804  11.790   5.262 -0.5175 -0.8096  4.2910
  564MOL0     H76139   7.653  10.917   4.745 -2.4735  3.3623  3.8017
  564MOL0     H76140   7.777  10.709   4.705  1.6042  2.5228 -2.2065
  565MOL0     O76141   8.657   5.258   6.438  0.4171 -0.2474 -0.5080
  565MOL0     C76142   8.715   5.312   6.345  0.5639  0.8517 -0.4726
  565MOL0     O76143   8.777   5.241   6.247 -0.1642 -0.0558  0.1619
  565MOL0     C76144   8.812   5.107   6.261 -0.5744  0.1267 -0.7995
  565MOL0     C76145   8.943   5.072   6.232 -0.3051  0.5557 -0.0290
  565MOL0     C76146   8.978   4.937   6.216 -0.6404  0.5974 -0.3825
  565MOL0     C76147   8.873   4.840   6.194 -0.2910  0.6226 -0.9930
  565MOL0     O76148   8.901   4.712   6.147 -0.3189  0.6879 -0.2952
  565MOL0     C76149   9.018   4.645   6.184 -0.5765  0.9867 -0.0906
  565MOL0     C76150   9.007   4.492   6.178 -0.2350 -0.5856 -0.7485
  565MOL0     C76151   8.967   4.428   6.309 -0.6855  0.2283 -0.7696
  565MOL0     C76152   8.899   4.296   6.270 -0.2422  0.3372  0.4708
  565MOL0     C76153   8.813   4.255   6.386  0.1145  0.0683  0.3202
  565MOL0     C76154   8.751   4.118   6.370 -0.3613  1.1328 -0.1495
  565MOL0     C76155   8.645   4.098   6.484  0.1224  0.0041  0.5676
  565MOL0     C76156   8.711   4.100   6.628 -0.3245 -0.2241  0.4310
  565MOL0     N76157   8.629   4.034   6.725  0.4526 -0.1961  0.7001
  565MOL0     C76158   8.543   4.111   6.801  0.6775  0.8092  0.2645
  565MOL0     C76159   8.488   4.019   6.884 -0.5054  0.4640 -0.4636
  565MOL0     C76160   8.416   4.046   7.015 -0.2821  0.0865 -0.0540
  565MOL0     C76161   8.323   3.929   7.065  0.6517  0.1285 -0.1831
  565MOL0     C76162   8.275   3.958   7.214  0.3066 -0.1374  0.4641
  565MOL0     C76163   8.151   4.052   7.215 -0.2606  1.0404 -0.2454
  565MOL0     O76164   8.066   4.033   7.324  0.0801  0.8485 -0.1740
  565MOL0     C76165   7.943   4.096   7.327  0.4904 -0.3406  0.9163
  565MOL0     C76166   7.904   4.199   7.244  0.2308  0.1933  0.1595
  565MOL0     C76167   7.786   4.277   7.265  0.0388 -0.3860 -0.4029
  565MOL0     C76168   7.763   4.389   7.169  0.0650  0.1249 -0.4102
  565MOL0     C76169   7.704   4.243   7.375 -0.6127  0.8865 -0.0625
  565MOL0     C76170   7.565   4.297   7.402  0.3936 -0.0453  0.6810
  565MOL0     O76171   7.488   4.260   7.517  0.0271 -0.3457  0.3937
  565MOL0     C76172   7.367   4.309   7.538 -0.2057 -0.3685  0.1877
  565MOL0     C76173   7.336   4.352   7.666  0.0365  0.0963  0.4685
  565MOL0     C76174   7.202   4.381   7.690  0.4257 -0.4142 -0.8216
  565MOL0     C76175   7.100   4.361   7.593  1.0370  0.3601 -0.4512
  565MOL0     O76176   6.958   4.363   7.607  0.1957  0.5635  0.3627
  565MOL0     C76177   6.902   4.386   7.740  0.2450  0.4783 -0.4333
  565MOL0     C76178   6.760   4.338   7.761 -0.4629  0.6748 -0.2551
  565MOL0     C76179   6.750   4.188   7.795  0.5007 -0.1936 -0.1755
  565MOL0     C76180   6.644   4.123   7.703  0.2775  0.2816  1.2801
  565MOL0     C76181   6.698   4.095   7.563  1.5260  0.7095 -0.3457
  565MOL0     C76182   6.586   4.044   7.467 -0.1796 -0.8536  0.1832
  565MOL0     C76183   6.640   3.960   7.346  0.3961 -0.7636  0.3038
  565MOL0     C76184   6.742   4.045   7.267 -0.9181 -0.1652  0.3449
  565MOL0    Cl76185   6.654   4.182   7.200  0.2342  0.0853  0.3947
  565MOL0     C76186   7.135   4.325   7.468  0.3904 -1.1093  0.6178
  565MOL0     C76187   7.271   4.291   7.439  0.4092  0.0784  0.2519
  565MOL0     O76188   7.524   4.381   7.316 -0.0354  0.0079  0.2615
  565MOL0     C76189   7.744   4.139   7.460  0.1021  0.3156 -0.0028
  565MOL0     C76190   7.864   4.077   7.437 -0.4526  0.3990 -0.0863
  565MOL0     N76191   8.549   3.901   6.863 -0.6779 -0.9987  0.9807
  565MOL0     N76192   8.641   3.909   6.778 -0.7867  0.4710  0.4536
  565MOL0     C76193   8.741   4.870   6.229 -0.4811  0.2572 -0.2663
  565MOL0     C76194   8.719   5.002   6.275  0.5027  0.2738  0.5470
  565MOL0     C76195   8.737   5.464   6.344  0.3805  0.8058 -0.1762
  565MOL0     C76196   8.826   5.517   6.255  1.1488 -0.3408 -1.4871
  565MOL0     C76197   8.853   5.652   6.268 -0.5361  0.1781 -0.2334
  565MOL0     C76198   8.779   5.741   6.354  0.0145 -0.3396  0.6017
  565MOL0     O76199   8.815   5.873   6.341  0.1062  0.3400 -0.0945
  565MOL0     C76200   8.716   5.972   6.368 -0.3514 -0.2667 -0.4137
  565MOL0     C76201   8.766   6.067   6.483  0.5078  0.0544 -0.2190
  565MOL0     C76202   8.805   5.981   6.608 -0.7138 -0.5393 -1.3454
  565MOL0     C76203   8.862   6.072   6.722  0.3079 -0.2721 -0.5046
  565MOL0     C76204   8.919   5.988   6.840  0.7511 -0.8624  0.2286
  565MOL0     C76205   8.951   5.922   6.934 -0.4429 -0.5446 -0.2034
  565MOL0     C76206   8.682   5.687   6.439  0.0557 -0.5024 -0.2407
  565MOL0     C76207   8.668   5.550   6.441  0.4914  0.7315 -0.5812
  565MOL0     H76208   9.017   5.144   6.200  3.9200 -3.1060  0.4083
  565MOL0     H76209   9.076   4.898   6.191 -0.5936  0.1112  0.5232
  565MOL0     H76210   9.100   4.685   6.124  0.9219 -0.2658  1.0106
  565MOL0     H76211   9.042   4.673   6.287 -1.8024 -1.0180  0.8054
  565MOL0     H76212   8.946   4.454   6.095 -0.3087 -0.9247 -0.5449
  565MOL0     H76213   9.111   4.476   6.149  0.0412  0.5851 -0.4604
  565MOL0     H76214   9.053   4.432   6.376 -1.8168  3.2443  0.6907
  565MOL0     H76215   8.894   4.489   6.362 -0.7488  0.4308 -1.0822
  565MOL0     H76216   8.845   4.310   6.176  1.8357  1.6825 -0.5783
  565MOL0     H76217   8.972   4.220   6.240  1.0297  0.9962  1.7515
  565MOL0     H76218   8.876   4.258   6.476  0.6717  1.7256 -0.0877
  565MOL0     H76219   8.730   4.326   6.387 -0.5346 -0.6686  0.1273
  565MOL0     H76220   8.694   4.116   6.277 -0.6843 -1.1048  0.0283
  565MOL0     H76221   8.822   4.035   6.381 -0.1885  1.1760 -0.9332
  565MOL0     H76222   8.566   4.173   6.481 -0.5150 -0.6597  0.5251
  565MOL0     H76223   8.611   3.995   6.466  0.6556  0.0279 -0.7095
  565MOL0     H76224   8.744   4.200   6.657 -0.2202 -0.4166  0.9922
  565MOL0     H76225   8.798   4.033   6.631 -0.6319 -0.6633 -0.1615
  565MOL0     H76226   8.537   4.219   6.795  3.9606  1.0430 -1.6298
  565MOL0     H76227   8.484   4.073   7.096 -0.3573  1.3099 -0.3763
  565MOL0     H76228   8.363   4.138   6.991  0.5553  0.1260 -1.9861
  565MOL0     H76229   8.371   3.831   7.065 -0.7937 -0.6657  2.5976
  565MOL0     H76230   8.241   3.927   6.992  0.1725  1.3465  0.3034
  565MOL0     H76231   8.357   4.001   7.272 -0.3977  0.0758  1.3446
  565MOL0     H76232   8.247   3.867   7.268 -1.1320  0.0199  0.0242
  565MOL0     H76233   8.100   4.034   7.120  1.6506  3.9160 -1.9752
  565MOL0     H76234   8.197   4.151   7.221  1.7576  0.0649  2.4100
  565MOL0     H76235   7.971   4.222   7.162  1.3564 -0.3121  0.9200
  565MOL0     H76236   7.855   4.406   7.113  0.8930 -2.1991  0.1658
  565MOL0     H76237   7.691   4.350   7.096 -0.5427  0.4234  0.0204
  565MOL0     H76238   7.735   4.476   7.229  0.9135 -0.3442  0.6841
  565MOL0     H76239   7.415   4.373   7.737 -1.3580 -0.3797  2.2249
  565MOL0     H76240   7.173   4.419   7.787  0.1601 -0.2907 -0.9485
  565MOL0     H76241   6.966   4.350   7.822 -1.3157  1.4656  1.2907
  565MOL0     H76242   6.905   4.495   7.743  0.3336  0.4795 -0.6001
  565MOL0     H76243   6.713   4.402   7.836  1.2636  2.5011 -0.6272
  565MOL0     H76244   6.702   4.357   7.670  1.1820 -1.2127 -1.7735
  565MOL0     H76245   6.741   4.185   7.904  1.9910  1.6779  0.0458
  565MOL0     H76246   6.851   4.152   7.775  0.4959  0.6659 -1.9251
  565MOL0     H76247   6.616   4.027   7.747 -0.4894  0.3365  0.9377
  565MOL0     H76248   6.545   4.170   7.709 -0.5431 -1.0636 -0.7226
  565MOL0     H76249   6.773   4.018   7.580  0.9955  0.4959  1.1981
  565MOL0     H76250   6.739   4.187   7.519  2.0873  0.5682 -0.1228
  565MOL0     H76251   6.508   3.989   7.520  0.4174 -1.5322  0.3685
  565MOL0     H76252   6.536   4.137   7.438  0.9726  0.3398  1.8354
  565MOL0     H76253   6.557   3.950   7.275  3.4180 -2.0647 -3.3987
  565MOL0     H76254   6.679   3.862   7.374  1.7620  0.3893  2.7259
  565MOL0     H76255   6.779   3.990   7.180 -1.4568  0.0415 -0.0200
  565MOL0     H76256   6.824   4.080   7.331  0.7152 -1.6250 -0.8619
  565MOL0     H76257   7.058   4.323   7.391 -0.8788  1.6610  1.7043
  565MOL0     H76258   7.292   4.242   7.345  0.2123 -1.4913  0.9944
  565MOL0     H76259   7.687   4.109   7.548  0.5960 -1.6359 -0.3079
  565MOL0     H76260   7.905   4.005   7.507  2.8069  0.3126 -1.9000
  565MOL0     H76261   8.666   4.791   6.232 -1.1223  0.7271 -2.1971
  565MOL0     H76262   8.613   5.018   6.295  0.1358 -0.8106 -0.4046
  565MOL0     H76263   8.871   5.447   6.185  1.3700 -1.2353 -0.4795
  565MOL0     H76264   8.929   5.685   6.198  0.8420 -0.3715  0.9508
  565MOL0     H76265   8.694   6.035   6.282 -2.2252 -1.2727 -0.7443
  565MOL0     H76266   8.623   5.922   6.398 -0.9664  1.7232  1.2268
  565MOL0     H76267   8.691   6.135   6.524  1.8457  0.5244  1.5620
  565MOL0     H76268   8.851   6.122   6.442  0.2441 -1.0446 -2.3734
  565MOL0     H76269   8.877   5.902   6.585 -2.4424 -2.3988 -0.6722
  565MOL0     H76270   8.724   5.925   6.655 -0.7777  0.5036 -0.1523
  565MOL0     H76271   8.785   6.139   6.762  1.1095  0.3976 -0.0428
  565MOL0     H76272   8.949   6.125   6.682  0.6708 -0.7879 -0.4202
  565MOL0     H76273   8.982   5.870   7.023  0.5684 -0.1486 -0.3038
  565MOL0     H76274   8.634   5.756   6.508  0.7712 -0.3589  0.1186
  565MOL0     H76275   8.602   5.502   6.513  2.7411  0.5540  1.4802
  566MOL0     O76276   2.822   9.792   4.839  0.7646  0.2028 -0.4208
  566MOL0     C76277   2.895   9.801   4.937  0.5316  0.4689 -0.6070
  566MOL0     O76278   3.031   9.810   4.932 -0.2577 -0.1653 -0.4281
  566MOL0     C76279   3.077   9.827   4.808  0.4080  0.2227  0.7268
  566MOL0     C76280   3.100   9.947   4.750  1.2468  0.2116  0.0320
  566MOL0     C76281   3.125   9.950   4.615  0.0404 -0.1333  0.2100
  566MOL0     C76282   3.136   9.830   4.534 -0.3913  0.8029 -0.0084
  566MOL0     O76283   3.173   9.846   4.408  0.1817 -0.8314 -0.5218
  566MOL0     C76284   3.176   9.738   4.315 -1.1635  0.2863  0.7721
  566MOL0     C76285   3.181   9.774   4.164  0.4671  0.2335 -0.2712
  566MOL0     C76286   3.302   9.870   4.139 -0.0005 -0.1766  1.3817
  566MOL0     C76287   3.344   9.887   3.986  0.5483 -0.3923 -0.9351
  566MOL0     C76288   3.324   9.756   3.906 -1.1899  0.1211  0.5488
  566MOL0     C76289   3.383   9.762   3.765  0.5723 -0.4141  0.7014
  566MOL0     C76290   3.335   9.881   3.684 -0.7070  0.3889  0.4202
  566MOL0     C76291   3.382   9.849   3.548 -0.0705 -0.1885 -0.1920
  566MOL0     N76292   3.337   9.953   3.455  0.1687  0.3824 -0.8268
  566MOL0     C76293   3.406  10.070   3.446 -0.4537  0.2199  0.1848
  566MOL0     C76294   3.341  10.144   3.354 -0.1534 -0.0185 -0.3341
  566MOL0     C76295   3.373  10.287   3.323 -0.1006 -0.0815 -1.0778
  566MOL0     C76296   3.280  10.343   3.209 -0.3504  0.1745  0.0775
  566MOL0     C76297   3.303  10.494   3.188 -0.5162  0.0505 -0.1590
  566MOL0     C76298   3.218  10.561   3.093 -1.0270 -0.2653  1.1467
  566MOL0     O76299   3.228  10.513   2.952  0.5211 -0.5320 -0.5432
  566MOL0     C76300   3.147  10.573   2.859  0.3941 -0.2009 -0.3340
  566MOL0     C76301   3.050  10.671   2.890  0.3012  0.6610  0.5094
  566MOL0     C76302   2.968  10.727   2.796  0.5208 -0.0250  0.1890
  566MOL0     C76303   2.856  10.812   2.847 -0.4780  0.0630  0.0939
  566MOL0     C76304   2.981  10.685   2.660 -0.0319 -0.0676  0.1076
  566MOL0     C76305   2.896  10.743   2.553 -0.5449 -0.9141  0.4470
  566MOL0     O76306   2.816  10.851   2.570 -0.6687  0.7495 -0.1868
  566MOL0     C76307   2.761  10.904   2.454 -0.2048  0.3110 -0.6977
  566MOL0     C76308   2.828  11.009   2.386 -0.5236  0.8685  0.9097
  566MOL0     C76309   2.761  11.064   2.281  0.0706 -0.0780  0.9527
  566MOL0     C76310   2.642  11.027   2.237  0.7563  0.9643 -0.1808
  566MOL0     O76311   2.607  11.096   2.125  0.2691  0.2560  0.7391
  566MOL0     C76312   2.487  11.061   2.058  0.4293  0.8739  0.5895
  566MOL0     C76313   2.489  11.118   1.920 -0.2151  0.3301 -0.5770
  566MOL0     C76314   2.505  11.270   1.926  0.2439 -0.1237  1.0210
  566MOL0     C76315   2.514  11.309   1.773  0.0414 -0.2144 -1.2222
  566MOL0     C76316   2.513  11.465   1.780 -0.0542  0.5471 -0.0188
  566MOL0     C76317   2.538  11.518   1.640  0.5864  0.4963  0.2303
  566MOL0     C76318   2.568  11.667   1.623 -1.5509  0.5840  0.8334
  566MOL0     C76319   2.468  11.760   1.688  1.4590  1.2527 -0.2504
  566MOL0    Cl76320   2.483  11.921   1.596 -0.2211 -0.2569 -0.0992
  566MOL0     C76321   2.564  10.930   2.309 -0.5990  0.4785 -0.6447
  566MOL0     C76322   2.626  10.860   2.418 -0.7613 -0.0667  0.2019
  566MOL0     O76323   2.918  10.690   2.448 -0.2200 -0.2863  0.6214
  566MOL0     C76324   3.075  10.583   2.628 -0.2146 -0.0619 -0.4653
  566MOL0     C76325   3.165  10.534   2.728 -0.0569 -0.4617  0.4226
  566MOL0     N76326   3.242  10.060   3.303 -0.1454 -0.0382 -0.4060
  566MOL0     N76327   3.234   9.953   3.368 -0.2068  0.2311  0.5318
  566MOL0     C76328   3.127   9.706   4.592  0.0778  0.2988 -0.7277
  566MOL0     C76329   3.085   9.709   4.730 -0.4619 -0.5702  1.2171
  566MOL0     C76330   2.835   9.766   5.075  0.7978 -0.0462 -0.1433
  566MOL0     C76331   2.920   9.750   5.188  0.0447  0.9718  0.1491
  566MOL0     C76332   2.873   9.711   5.312 -0.2416 -0.5168  0.0167
  566MOL0     C76333   2.733   9.696   5.329 -0.1143 -0.8265 -0.3593
  566MOL0     O76334   2.686   9.651   5.453 -0.5333  0.0296  0.1758
  566MOL0     C76335   2.596   9.544   5.469  0.6822  0.4366  0.2029
  566MOL0     C76336   2.599   9.499   5.614  0.5122 -0.7517  0.5044
  566MOL0     C76337   2.587   9.348   5.643 -0.4031 -0.5979 -0.6360
  566MOL0     C76338   2.448   9.304   5.637  0.4090 -0.0583 -1.1168
  566MOL0     C76339   2.395   9.277   5.505  0.2261  0.8151 -0.1662
  566MOL0     C76340   2.352   9.238   5.395  0.4418 -0.7266  0.0232
  566MOL0     C76341   2.643   9.719   5.221  0.6398 -0.2966 -0.3529
  566MOL0     C76342   2.694   9.757   5.098  0.0991  0.4805 -0.3563
  566MOL0     H76343   3.080  10.040   4.802 -0.8128 -0.3130  0.2660
  566MOL0     H76344   3.117  10.044   4.561 -3.1939 -1.7802 -2.5436
  566MOL0     H76345   3.272   9.686   4.323  0.2829  2.7345  0.4179
  566MOL0     H76346   3.091   9.673   4.339  0.5555 -2.0049  0.9894
  566MOL0     H76347   3.194   9.681   4.108 -0.7496 -0.0612 -0.0902
  566MOL0     H76348   3.093   9.823   4.122 -0.5517 -1.1017  0.2326
  566MOL0     H76349   3.293   9.965   4.191  1.6952  0.3988  0.6848
  566MOL0     H76350   3.389   9.821   4.184  0.9583  0.6241  0.4543
  566MOL0     H76351   3.281   9.967   3.946  0.9695 -0.9646 -2.8478
  566MOL0     H76352   3.444   9.931   3.984  0.9794 -1.3790 -2.2918
  566MOL0     H76353   3.367   9.668   3.955 -2.8407 -0.4022  1.1287
  566MOL0     H76354   3.217   9.738   3.897 -1.1426  0.0355  0.0964
  566MOL0     H76355   3.492   9.760   3.770  0.5361 -2.2771  1.6917
  566MOL0     H76356   3.352   9.673   3.710  0.9281  0.4920 -1.0257
  566MOL0     H76357   3.227   9.886   3.673 -0.7858 -0.2658  0.8501
  566MOL0     H76358   3.379   9.975   3.720 -0.0561 -1.0798  3.8509
  566MOL0     H76359   3.335   9.754   3.523 -4.5256  2.6943 -4.8763
  566MOL0     H76360   3.491   9.841   3.542 -0.1494 -0.3133 -2.5657
  566MOL0     H76361   3.490  10.105   3.504  1.6889 -2.6028 -0.9651
  566MOL0     H76362   3.358  10.349   3.412 -3.6612 -0.9641 -0.9176
  566MOL0     H76363   3.475  10.280   3.284  1.1184 -1.2238  1.9323
  566MOL0     H76364   3.175  10.320   3.229  0.5961 -2.7474  2.2831
  566MOL0     H76365   3.322  10.288   3.125  1.0237  2.4437 -0.8323
  566MOL0     H76366   3.410  10.507   3.166 -0.4187  2.1783  1.2585
  566MOL0     H76367   3.290  10.542   3.286  0.9484  1.2285 -0.5031
  566MOL0     H76368   3.230  10.669   3.112  0.0116 -0.1609  0.0473
  566MOL0     H76369   3.120  10.541   3.136 -0.4589  0.7503  3.0369
  566MOL0     H76370   3.043  10.710   2.992  0.4917  1.6600  0.1561
  566MOL0     H76371   2.860  10.905   2.790 -0.0381 -0.9810 -1.6386
  566MOL0     H76372   2.760  10.760   2.841 -1.1548  0.4023  4.5930
  566MOL0     H76373   2.869  10.817   2.956 -2.8718 -1.0934  0.5020
  566MOL0     H76374   2.928  11.042   2.411 -0.7612  2.2670  0.1152
  566MOL0     H76375   2.808  11.147   2.228  1.0916 -0.2891  1.4994
  566MOL0     H76376   2.468  10.953   2.050  0.4451  0.8535  0.8098
  566MOL0     H76377   2.400  11.095   2.116 -1.1713 -0.6409 -0.7943
  566MOL0     H76378   2.579  11.078   1.870  0.7068  0.0541  1.2279
  566MOL0     H76379   2.393  11.082   1.882 -0.1681 -0.6411  0.1764
  566MOL0     H76380   2.584  11.300   1.995  0.1314  1.0899  0.6390
  566MOL0     H76381   2.415  11.302   1.979  0.8852  0.6159  1.6964
  566MOL0     H76382   2.603  11.260   1.732  1.0516 -3.1450  3.7691
  566MOL0     H76383   2.429  11.261   1.723 -1.0639 -0.6455  0.9692
  566MOL0     H76384   2.597  11.493   1.845  1.1062 -0.8876 -0.8435
  566MOL0     H76385   2.425  11.513   1.824  0.3294  0.8802  0.3973
  566MOL0     H76386   2.616  11.456   1.595 -0.9883 -1.3730 -0.0440
  566MOL0     H76387   2.451  11.505   1.576  0.6717  2.4700 -0.3669
  566MOL0     H76388   2.593  11.677   1.517  1.6418 -1.4593  1.2273
  566MOL0     H76389   2.669  11.685   1.661 -0.5519 -0.4077 -1.1712
  566MOL0     H76390   2.479  11.775   1.796  2.2554 -1.8031  0.1648
  566MOL0     H76391   2.365  11.729   1.667  1.1409  2.1100 -0.0356
  566MOL0     H76392   2.469  10.894   2.273  0.1042 -1.3469 -0.7703
  566MOL0     H76393   2.574  10.792   2.484  1.5253  1.3731  3.7897
  566MOL0     H76394   3.096  10.535   2.533  1.5814 -2.2489  0.9199
  566MOL0     H76395   3.230  10.450   2.706 -0.0413 -0.2145 -0.5036
  566MOL0     H76396   3.126   9.611   4.539 -1.0830 -0.2385  0.2087
  566MOL0     H76397   3.045   9.617   4.772 -0.1338 -2.9062 -2.9888
  566MOL0     H76398   3.027   9.761   5.173  1.0513 -2.4717  3.2128
  566MOL0     H76399   2.951   9.692   5.384 -0.8663 -2.6962  0.1968
  566MOL0     H76400   2.498   9.584   5.444 -0.7223 -1.5703  2.1177
  566MOL0     H76401   2.611   9.457   5.405  1.9665  0.1141  0.8958
  566MOL0     H76402   2.526   9.560   5.669  1.3809 -0.3866  1.2849
  566MOL0     H76403   2.700   9.522   5.649  1.3876  1.2054 -2.8674
  566MOL0     H76404   2.614   9.338   5.749 -0.0870  0.0618 -0.6479
  566MOL0     H76405   2.643   9.287   5.571 -3.0630 -1.2883 -2.2268
  566MOL0     H76406   2.385   9.380   5.685 -0.6213  0.3706 -3.0415
  566MOL0     H76407   2.434   9.214   5.697  1.1364  1.2541  1.1541
  566MOL0     H76408   2.320   9.187   5.306  0.1905 -0.2404 -0.1670
  566MOL0     H76409   2.535   9.710   5.228  0.3358  2.5078 -0.3069
  566MOL0     H76410   2.619   9.778   5.022 -0.5377 -3.0293 -0.8576
  567MOL0     O76411   4.135   5.106  10.325 -0.4612  0.0265 -0.7430
  567MOL0     C76412   4.068   5.069  10.416  0.6130  0.2644  0.0957
  567MOL0     O76413   4.035   4.942  10.443  0.7493 -0.2001 -0.6403
  567MOL0     C76414   4.101   4.843  10.375 -0.4483 -0.8363 -0.9374
  567MOL0     C76415   4.239   4.825  10.402 -0.8253  0.4341  1.0302
  567MOL0     C76416   4.301   4.720  10.341 -0.1541  0.1430 -0.1932
  567MOL0     C76417   4.240   4.645  10.235 -0.1222  0.1436  0.6162
  567MOL0     O76418   4.320   4.552  10.173 -0.1550 -0.0574  0.0108
  567MOL0     C76419   4.293   4.525  10.042 -0.5234 -0.5937  0.3001
  567MOL0     C76420   4.411   4.459   9.976  0.5356  0.7656 -0.3670
  567MOL0     C76421   4.531   4.551   9.997 -0.2516  0.5856 -1.1657
  567MOL0     C76422   4.652   4.484   9.925  0.4226  0.1403  0.7906
  567MOL0     C76423   4.792   4.551   9.933  0.7323  0.2952 -0.7572
  567MOL0     C76424   4.851   4.533   9.795 -0.4825 -0.2848  1.1690
  567MOL0     C76425   4.996   4.557   9.779  0.8790  0.0547 -0.1948
  567MOL0     C76426   5.040   4.621   9.652 -0.3165  0.0949  0.3464
  567MOL0     N76427   5.031   4.770   9.660  0.0878  0.0456  0.9457
  567MOL0     C76428   4.961   4.852   9.747  1.0224  0.0394  0.3228
  567MOL0     C76429   4.986   4.979   9.693 -0.0889 -0.3183 -0.8833
  567MOL0     C76430   4.935   5.097   9.772  0.3731 -0.1302 -1.1123
  567MOL0     C76431   5.019   5.109   9.895  0.4505  0.5613 -0.7860
  567MOL0     C76432   4.938   5.172  10.009  0.5103 -0.9053 -0.6407
  567MOL0     C76433   5.034   5.200  10.127  0.0718  0.4889  0.5321
  567MOL0     O76434   5.068   5.085  10.199 -0.5313 -0.4664 -0.6047
  567MOL0     C76435   4.977   5.031  10.290 -0.9034  0.9853 -0.5548
  567MOL0     C76436   4.955   4.897  10.273 -0.1269 -0.1798 -0.1905
  567MOL0     C76437   4.855   4.828  10.345 -1.0633 -0.7925 -1.3193
  567MOL0     C76438   4.816   4.692  10.316 -0.0796  0.7526 -0.4243
  567MOL0     C76439   4.778   4.905  10.444  0.2021  0.1850  0.6229
  567MOL0     C76440   4.660   4.863  10.523 -0.0246 -0.7422  0.0345
  567MOL0     O76441   4.613   4.947  10.613  0.0261  0.0845  0.4616
  567MOL0     C76442   4.491   4.940  10.674 -0.3867 -0.0157 -0.9905
  567MOL0     C76443   4.416   5.054  10.681 -0.0050 -0.0738 -0.3420
  567MOL0     C76444   4.291   5.060  10.744 -0.1733  0.0865  0.5088
  567MOL0     C76445   4.247   4.941  10.812  0.4848  0.4988 -0.3743
  567MOL0     O76446   4.131   4.925  10.876 -0.0550 -0.4752  0.6272
  567MOL0     C76447   4.125   4.968  11.011 -0.9184 -0.1836 -0.7729
  567MOL0     C76448   4.016   4.896  11.084  0.0304  0.5565  0.1221
  567MOL0     C76449   3.988   4.966  11.216  0.3751 -0.7071  0.4713
  567MOL0     C76450   3.889   5.080  11.213 -0.3654 -0.5981  0.1471
  567MOL0     C76451   3.740   5.027  11.185 -0.3326 -0.5005  0.1927
  567MOL0     C76452   3.678   4.992  11.319  0.2944 -0.1188 -0.0151
  567MOL0     C76453   3.529   5.003  11.307  0.6123  0.1451 -0.2730
  567MOL0     C76454   3.459   4.915  11.407  0.3855 -0.4059  0.6045
  567MOL0    Cl76455   3.293   4.952  11.377 -0.1712 -0.0096  0.8803
  567MOL0     C76456   4.319   4.821  10.796  0.5391  0.3581  0.2692
  567MOL0     C76457   4.443   4.820  10.728 -0.3170  0.4774  0.7264
  567MOL0     O76458   4.595   4.774  10.487 -0.2704  0.8649 -0.8957
  567MOL0     C76459   4.808   5.040  10.454 -0.3572 -0.6292 -0.0543
  567MOL0     C76460   4.908   5.104  10.384  0.7551  0.5476 -0.8388
  567MOL0     N76461   5.061   4.970   9.579  0.4944  0.5794 -0.1287
  567MOL0     N76462   5.085   4.851   9.557 -0.2805 -0.0665 -0.1884
  567MOL0     C76463   4.106   4.667  10.208  0.3348 -0.3907  0.1811
  567MOL0     C76464   4.035   4.760  10.283 -0.1342  0.3105 -1.0943
  567MOL0     C76465   4.006   5.169  10.509 -0.4381 -0.6317 -0.2016
  567MOL0     C76466   4.004   5.306  10.471 -0.3595  0.3063 -0.2357
  567MOL0     C76467   3.954   5.403  10.554  0.5924 -0.3886  0.5502
  567MOL0     C76468   3.897   5.373  10.681  0.0632  1.2757  0.5521
  567MOL0     O76469   3.854   5.479  10.747  1.0781 -0.7296 -0.2707
  567MOL0     C76470   3.811   5.478  10.885 -0.3468  0.4249 -0.1332
  567MOL0     C76471   3.901   5.551  10.990  0.1395 -0.0323  0.1101
  567MOL0     C76472   3.900   5.498  11.129 -0.5638 -0.0712 -0.3114
  567MOL0     C76473   3.762   5.468  11.179 -0.0012 -1.0114  0.2190
  567MOL0     C76474   3.771   5.410  11.311 -0.7157 -0.2798 -0.6206
  567MOL0     C76475   3.789   5.364  11.424 -0.2113 -0.1458  0.6273
  567MOL0     C76476   3.899   5.242  10.727 -0.9282  0.5530  0.4280
  567MOL0     C76477   3.948   5.139  10.634 -0.0438  0.0832  0.5456
  567MOL0     H76478   4.299   4.881  10.473 -2.2908 -1.3193  3.7896
  567MOL0     H76479   4.405   4.700  10.363 -0.5639  0.5032  2.3315
  567MOL0     H76480   4.205   4.466  10.018  0.2986 -1.0748 -1.7466
  567MOL0     H76481   4.274   4.619   9.989  1.8977 -0.7959 -1.0895
  567MOL0     H76482   4.420   4.359  10.020  0.0920  0.9634  0.1949
  567MOL0     H76483   4.384   4.447   9.871 -1.1388  0.5909  0.0535
  567MOL0     H76484   4.499   4.647   9.956 -3.1211  0.8943  1.4388
  567MOL0     H76485   4.565   4.572  10.098  0.4079  0.6815 -1.4007
  567MOL0     H76486   4.653   4.381   9.962 -2.6101 -0.7474 -1.2424
  567MOL0     H76487   4.623   4.473   9.820 -2.4616 -3.0651  1.7328
  567MOL0     H76488   4.798   4.659   9.942 -0.0944  0.2645  0.3020
  567MOL0     H76489   4.839   4.497  10.015 -1.1623  0.8791  0.7620
  567MOL0     H76490   4.845   4.433   9.750  2.6769  0.5818 -1.5501
  567MOL0     H76491   4.806   4.612   9.735 -0.9750 -0.8718  0.7491
  567MOL0     H76492   5.035   4.621   9.859  0.9196  0.7015 -0.7183
  567MOL0     H76493   5.040   4.457   9.779 -1.7629 -1.1911  0.5121
  567MOL0     H76494   4.991   4.584   9.561  1.3557 -2.2724  0.3412
  567MOL0     H76495   5.147   4.605   9.638 -0.1733  1.4740 -0.3951
  567MOL0     H76496   4.906   4.819   9.835 -2.0703  0.1977 -1.4231
  567MOL0     H76497   4.958   5.187   9.715  0.3971  0.2691 -0.4808
  567MOL0     H76498   4.832   5.095   9.809  0.6791 -2.7634 -0.1723
  567MOL0     H76499   5.090   5.189   9.870 -1.1032  1.7106 -1.6677
  567MOL0     H76500   5.075   5.023   9.933  0.0601  0.9046  0.5940
  567MOL0     H76501   4.855   5.114  10.052 -0.2982  0.6219 -0.0674
  567MOL0     H76502   4.900   5.269   9.977  6.5637  1.7758 -0.9493
  567MOL0     H76503   4.989   5.277  10.192  0.8676  0.7159  0.8273
  567MOL0     H76504   5.126   5.250  10.097  0.2577  0.4327  0.9911
  567MOL0     H76505   4.995   4.841  10.189 -3.3097 -0.8178 -1.4099
  567MOL0     H76506   4.718   4.676  10.269  0.3994 -1.1101 -0.8923
  567MOL0     H76507   4.894   4.659  10.247  0.2524 -0.2266  0.3851
  567MOL0     H76508   4.821   4.634  10.409 -3.2737 -2.1401 -1.7944
  567MOL0     H76509   4.463   5.141  10.634  1.1636  0.4338  1.6510
  567MOL0     H76510   4.247   5.156  10.769  1.1841  0.4610  1.5410
  567MOL0     H76511   4.219   4.948  11.062 -1.2044  1.4031  0.4212
  567MOL0     H76512   4.111   5.076  11.016  1.3285  0.1272  4.1236
  567MOL0     H76513   3.930   4.869  11.022 -1.0065  0.3745  1.5911
  567MOL0     H76514   4.048   4.797  11.119 -0.4334  0.4678  0.3084
  567MOL0     H76515   4.082   5.014  11.243 -0.4745  1.6011 -0.4059
  567MOL0     H76516   3.963   4.893  11.294  0.5330 -0.5569  0.6634
  567MOL0     H76517   3.899   5.131  11.309 -3.0090 -0.2798  0.3180
  567MOL0     H76518   3.912   5.155  11.136 -1.8367 -0.5032 -0.2412
  567MOL0     H76519   3.741   4.937  11.122  0.7476 -1.3424  1.3594
  567MOL0     H76520   3.680   5.103  11.135 -2.0540 -0.8606  1.6180
  567MOL0     H76521   3.699   4.888  11.346 -1.9000 -0.0124  2.5536
  567MOL0     H76522   3.710   5.058  11.401 -1.0713  0.3218  0.1871
  567MOL0     H76523   3.494   4.971  11.209 -0.7714 -1.7248  0.7649
  567MOL0     H76524   3.481   5.101  11.315 -2.4936 -1.0506 -2.4914
  567MOL0     H76525   3.494   4.946  11.506 -0.7461  2.1024  0.2824
  567MOL0     H76526   3.474   4.807  11.398  0.6521 -0.4900  1.8572
  567MOL0     H76527   4.277   4.733  10.843  2.7007  0.5690  2.8636
  567MOL0     H76528   4.508   4.734  10.716  1.4473  2.0761 -2.5567
  567MOL0     H76529   4.763   5.118  10.514  0.9306  1.5831 -1.7751
  567MOL0     H76530   4.939   5.207  10.402  1.9258  0.0928 -0.1415
  567MOL0     H76531   4.057   4.607  10.132 -1.7739  1.8516 -0.3525
  567MOL0     H76532   3.927   4.757  10.271 -0.2980 -1.2108  0.3871
  567MOL0     H76533   4.052   5.334  10.378 -2.3399 -1.4426 -1.8973
  567MOL0     H76534   3.952   5.507  10.524  1.7986 -0.0065  1.6780
  567MOL0     H76535   3.709   5.519  10.883 -1.2115 -1.5260 -3.4482
  567MOL0     H76536   3.794   5.374  10.917 -0.5841  0.7262  0.7544
  567MOL0     H76537   3.885   5.659  10.978 -0.8428 -0.3717 -2.5300
  567MOL0     H76538   4.004   5.530  10.959  0.2955 -0.4598  0.9142
  567MOL0     H76539   3.963   5.557  11.196  1.5974 -0.5183 -1.8367
  567MOL0     H76540   3.961   5.407  11.120 -0.0910  0.2036  0.0796
  567MOL0     H76541   3.711   5.408  11.104  0.6609  1.3200 -2.2456
  567MOL0     H76542   3.694   5.553  11.184  1.2322  0.1061 -0.9813
  567MOL0     H76543   3.802   5.309  11.515 -0.7100 -1.0946  0.1439
  567MOL0     H76544   3.872   5.214  10.829  1.4981 -0.1422  0.9506
  567MOL0     H76545   3.950   5.035  10.663  3.1684 -1.5406 -4.2671
  568MOL0     O76546   1.483   7.785   2.528 -0.1997  0.7508  0.3871
  568MOL0     C76547   1.364   7.794   2.493  0.9941  0.4561 -0.1475
  568MOL0     O76548   1.259   7.857   2.554 -0.3022 -0.6081  0.0017
  568MOL0     C76549   1.268   7.884   2.686 -1.5020  0.1004 -0.5546
  568MOL0     C76550   1.335   7.995   2.743  0.6084  0.6961  0.3782
  568MOL0     C76551   1.329   8.027   2.872  0.5359  0.7957 -0.3265
  568MOL0     C76552   1.250   7.948   2.951 -0.1748  0.6251 -0.2543
  568MOL0     O76553   1.216   7.999   3.075  0.5452  0.8790 -0.3206
  568MOL0     C76554   1.111   7.920   3.147  0.2224 -0.6067  0.1040
  568MOL0     C76555   0.970   7.924   3.094  0.6934 -0.8829  0.9212
  568MOL0     C76556   0.932   8.073   3.058  0.5309  0.2834  0.2549
  568MOL0     C76557   0.781   8.103   3.073 -0.2020 -0.0986 -0.3764
  568MOL0     C76558   0.697   8.036   2.968 -0.3158 -0.1188  0.7748
  568MOL0     C76559   0.602   8.145   2.900 -0.0644  0.0935 -0.5387
  568MOL0     C76560   0.680   8.226   2.797 -0.3457  0.2708 -0.8927
  568MOL0     C76561   0.600   8.331   2.721  0.5821  0.4152  0.5903
  568MOL0     N76562   0.669   8.388   2.607  0.2304  0.0660  0.2853
  568MOL0     C76563   0.681   8.332   2.479  0.2215  0.1071 -0.3544
  568MOL0     C76564   0.757   8.420   2.409  0.1093 -0.1467  1.3509
  568MOL0     C76565   0.794   8.381   2.270 -0.0178  0.3941 -0.3808
  568MOL0     C76566   0.743   8.485   2.176  0.4091  0.2488 -0.3165
  568MOL0     C76567   0.661   8.425   2.054  0.3126  0.2103  0.0564
  568MOL0     C76568   0.629   8.528   1.940  0.5346  0.6464  0.3374
  568MOL0     O76569   0.745   8.608   1.907  0.3434  0.3216 -0.3885
  568MOL0     C76570   0.761   8.701   1.798  0.5326  0.0808 -0.1683
  568MOL0     C76571   0.652   8.703   1.710 -0.0549 -0.0877 -0.1497
  568MOL0     C76572   0.657   8.780   1.591 -0.0134 -0.5164 -0.8404
  568MOL0     C76573   0.539   8.779   1.508  0.1098  0.9708  0.9651
  568MOL0     C76574   0.770   8.862   1.567  0.2150 -0.8474  0.1976
  568MOL0     C76575   0.791   8.943   1.439  0.4834 -0.2184  0.3016
  568MOL0     O76576   0.911   9.012   1.427 -0.1553  0.0901 -0.2129
  568MOL0     C76577   0.975   9.038   1.309 -0.6801 -0.1433  0.4238
  568MOL0     C76578   0.916   9.077   1.190 -0.6341 -0.1166  0.4816
  568MOL0     C76579   0.994   9.128   1.088  0.1320 -0.3978  0.0789
  568MOL0     C76580   1.130   9.140   1.098 -0.0047  0.0330  0.6928
  568MOL0     O76581   1.208   9.184   0.998 -0.9936 -0.2936 -0.0919
  568MOL0     C76582   1.158   9.312   0.937 -0.6649  0.1916 -0.0943
  568MOL0     C76583   1.257   9.363   0.831  0.4110 -0.7409 -1.0050
  568MOL0     C76584   1.389   9.428   0.882  0.7629  0.5020 -0.2645
  568MOL0     C76585   1.454   9.517   0.778  0.3090 -0.5010  0.1450
  568MOL0     C76586   1.535   9.420   0.682 -0.5749 -0.3135  0.4146
  568MOL0     C76587   1.597   9.504   0.567 -0.1079  0.9729  0.4880
  568MOL0     C76588   1.730   9.574   0.593 -0.1822 -0.2034  0.7750
  568MOL0     C76589   1.846   9.482   0.578  0.6895  0.4713 -0.0456
  568MOL0    Cl76590   2.003   9.544   0.619 -0.0636 -0.7435  0.3296
  568MOL0     C76591   1.194   9.093   1.211 -0.2496 -0.0206  0.6456
  568MOL0     C76592   1.115   9.044   1.315  0.2114  0.0917  0.4064
  568MOL0     O76593   0.729   8.906   1.341 -0.6986 -0.6549 -0.8384
  568MOL0     C76594   0.872   8.869   1.661  0.1782  0.7272  0.9012
  568MOL0     C76595   0.875   8.779   1.772  0.3513 -0.0079 -0.4052
  568MOL0     N76596   0.798   8.522   2.495  0.5272 -0.3066 -0.1569
  568MOL0     N76597   0.739   8.504   2.615 -0.5670  0.5965  0.3513
  568MOL0     C76598   1.213   7.820   2.905  0.2837 -0.3237 -0.1483
  568MOL0     C76599   1.215   7.791   2.776 -0.3987  0.0809  0.3547
  568MOL0     C76600   1.324   7.719   2.372  0.0239  1.2680  0.2832
  568MOL0     C76601   1.394   7.710   2.249 -0.6469  1.3618 -0.6696
  568MOL0     C76602   1.345   7.654   2.138  0.8254  0.4259  0.4968
  568MOL0     C76603   1.220   7.589   2.142 -0.1865  0.7035  0.5100
  568MOL0     O76604   1.177   7.545   2.023  0.2228  0.2477 -0.4552
  568MOL0     C76605   1.077   7.438   2.019 -0.3284 -0.0176  0.7257
  568MOL0     C76606   1.052   7.379   1.880  0.1388 -0.7639  0.4172
  568MOL0     C76607   0.931   7.436   1.801  0.1151  0.1630 -0.1501
  568MOL0     C76608   0.955   7.584   1.767  0.5352 -0.1964  0.6369
  568MOL0     C76609   0.866   7.627   1.655  0.3979  0.3215 -0.9258
  568MOL0     C76610   0.792   7.635   1.560  0.4268  0.2251 -0.9527
  568MOL0     C76611   1.151   7.587   2.258 -0.4022  0.0464 -0.0293
  568MOL0     C76612   1.201   7.651   2.373 -0.2152  0.1375  0.5719
  568MOL0     H76613   1.402   8.061   2.688 -0.4450  1.4770 -0.0105
  568MOL0     H76614   1.365   8.121   2.912 -0.2532  1.9900 -2.2525
  568MOL0     H76615   1.141   7.816   3.161  3.0657  0.2779  1.2581
  568MOL0     H76616   1.110   7.953   3.252  0.3092 -2.7248  0.8220
  568MOL0     H76617   0.954   7.857   3.009 -2.1000  0.6131  0.1060
  568MOL0     H76618   0.911   7.881   3.176  0.9523  0.1166  1.6499
  568MOL0     H76619   0.990   8.138   3.125 -1.4234  2.0315  0.3637
  568MOL0     H76620   0.965   8.103   2.958 -1.5700  1.8119 -0.0704
  568MOL0     H76621   0.747   8.069   3.171 -0.1123  4.7837  1.6013
  568MOL0     H76622   0.765   8.210   3.064  0.8971 -0.0248 -1.9400
  568MOL0     H76623   0.755   7.980   2.894 -2.4080 -2.9196  1.1094
  568MOL0     H76624   0.634   7.960   3.014 -2.3843  0.5845 -0.7621
  568MOL0     H76625   0.520   8.083   2.862 -1.1743 -0.0788  1.8871
  568MOL0     H76626   0.565   8.212   2.979 -1.0500 -0.7674 -0.2502
  568MOL0     H76627   0.748   8.280   2.865 -1.7687 -2.7774  3.3629
  568MOL0     H76628   0.730   8.158   2.728 -1.0466 -0.3758 -0.7759
  568MOL0     H76629   0.565   8.393   2.805 -3.9800 -1.9914  0.7976
  568MOL0     H76630   0.511   8.288   2.674  0.6573  0.7416  0.1469
  568MOL0     H76631   0.627   8.244   2.444 -0.9711  0.7143 -0.0805
  568MOL0     H76632   0.901   8.371   2.249 -0.3438  0.5378 -2.2050
  568MOL0     H76633   0.751   8.284   2.247 -1.8017  0.8668  0.7680
  568MOL0     H76634   0.828   8.531   2.124 -1.1405  0.7353 -2.5399
  568MOL0     H76635   0.683   8.557   2.232 -0.2061 -1.0989  0.8084
  568MOL0     H76636   0.565   8.390   2.094 -0.1896 -2.4242 -3.0156
  568MOL0     H76637   0.716   8.335   2.023  1.1130  1.4526 -2.3801
  568MOL0     H76638   0.552   8.594   1.982  0.6610 -1.3238  4.0479
  568MOL0     H76639   0.572   8.481   1.859 -1.2298  2.5612  0.4067
  568MOL0     H76640   0.570   8.632   1.721 -0.3912  0.6140  2.3995
  568MOL0     H76641   0.516   8.881   1.477 -0.3899  0.8237  0.8413
  568MOL0     H76642   0.548   8.719   1.416 -2.1423  3.6497 -1.1814
  568MOL0     H76643   0.448   8.747   1.560 -1.4823  1.3378 -1.4308
  568MOL0     H76644   0.808   9.073   1.185 -0.9281  2.8289  2.3063
  568MOL0     H76645   0.934   9.159   1.003 -2.5945 -1.0829  1.6105
  568MOL0     H76646   1.064   9.297   0.883 -0.8613  1.4798 -0.1627
  568MOL0     H76647   1.154   9.394   1.010  1.5053 -0.2391  0.5558
  568MOL0     H76648   1.278   9.282   0.760 -0.3659 -0.3698 -1.6775
  568MOL0     H76649   1.207   9.444   0.777 -1.2537  0.4359  2.0453
  568MOL0     H76650   1.457   9.352   0.923  0.3040  0.9013  1.3256
  568MOL0     H76651   1.373   9.495   0.967  0.9644  0.5727 -0.2812
  568MOL0     H76652   1.374   9.567   0.724 -1.5942 -2.0463  1.4091
  568MOL0     H76653   1.519   9.588   0.831  0.1309 -0.2162 -0.0171
  568MOL0     H76654   1.472   9.347   0.631 -2.3366  0.1121  1.9182
  568MOL0     H76655   1.612   9.360   0.731  0.2407 -1.4963 -2.1433
  568MOL0     H76656   1.602   9.446   0.474  0.7442  2.2406 -0.2844
  568MOL0     H76657   1.528   9.587   0.547  0.1257  0.7218 -1.5706
  568MOL0     H76658   1.732   9.609   0.697 -3.2773 -0.9848  1.2069
  568MOL0     H76659   1.743   9.655   0.521 -2.5647  1.0630  1.6625
  568MOL0     H76660   1.849   9.440   0.477 -2.8842 -1.0635  0.3362
  568MOL0     H76661   1.821   9.401   0.648  0.2134  0.4424 -0.2404
  568MOL0     H76662   1.302   9.083   1.216 -0.1758  0.9289  4.4445
  568MOL0     H76663   1.156   9.006   1.408 -1.8403 -0.6069  1.0892
  568MOL0     H76664   0.965   8.917   1.634 -0.4145  1.3748 -0.0656
  568MOL0     H76665   0.960   8.784   1.840  0.5140  1.7788 -0.6801
  568MOL0     H76666   1.163   7.746   2.966  0.5640 -2.3139 -2.2342
  568MOL0     H76667   1.173   7.699   2.735 -1.2972  1.0747 -1.0496
  568MOL0     H76668   1.487   7.767   2.253  0.9363 -0.9360 -2.1810
  568MOL0     H76669   1.409   7.678   2.054  2.5706 -0.4006  1.5288
  568MOL0     H76670   1.118   7.353   2.075 -0.5130 -1.1703 -0.8260
  568MOL0     H76671   0.980   7.460   2.066 -1.3869 -3.4973  0.4575
  568MOL0     H76672   1.046   7.270   1.882 -1.5096 -0.7889 -2.0154
  568MOL0     H76673   1.138   7.398   1.816  2.8561 -1.8599  3.5024
  568MOL0     H76674   0.836   7.429   1.854 -1.6297 -0.9199 -3.1724
  568MOL0     H76675   0.911   7.392   1.703 -0.2187  0.5727 -0.2696
  568MOL0     H76676   1.058   7.601   1.735 -0.1782  1.1340 -1.1250
  568MOL0     H76677   0.944   7.645   1.857  1.3160 -0.5132  0.9487
  568MOL0     H76678   0.722   7.647   1.480  0.1428 -2.5866 -1.2330
  568MOL0     H76679   1.051   7.544   2.260 -0.0697 -0.7355  1.2008
  568MOL0     H76680   1.146   7.639   2.466 -0.9429  1.4912  0.3486
  569MOL0     O76681   6.358   0.836   0.772  0.4387  0.5813 -0.3673
  569MOL0     C76682   6.428   0.825   0.868  0.2049  0.3372  0.4692
  569MOL0     O76683   6.402   0.739   0.973  0.4147  1.0715  0.0489
  569MOL0     C76684   6.309   0.633   0.970  0.2969  0.1477 -0.7226
  569MOL0     C76685   6.308   0.547   1.077 -0.4998  1.5295  1.1059
  569MOL0     C76686   6.215   0.442   1.093 -0.4428 -0.3579  1.2752
  569MOL0     C76687   6.117   0.422   1.008  0.7865  0.4352 -0.0670
  569MOL0     O76688   6.030   0.316   1.040 -0.2877 -0.3548  0.1495
  569MOL0     C76689   5.917   0.280   0.959  0.2648  0.3054 -0.1278
  569MOL0     C76690   5.888   0.135   1.013  0.1474  0.2556 -0.1504
  569MOL0     C76691   5.769   0.065   0.943 -0.6321 -0.6423 -0.0340
  569MOL0     C76692   5.786  -0.079   0.967 -0.1519  0.6120  0.1548
  569MOL0     C76693   5.673  -0.165   0.919 -0.0716  0.5810 -0.6461
  569MOL0     C76694   5.706  -0.297   0.857  0.7271 -0.4806  0.5079
  569MOL0     C76695   5.823  -0.382   0.907  0.8252 -0.5628  0.4059
  569MOL0     C76696   5.810  -0.418   1.058 -0.5132  0.0107  0.5160
  569MOL0     N76697   5.933  -0.466   1.119  0.1912  0.5121 -0.2872
  569MOL0     C76698   5.932  -0.590   1.171  0.5714 -0.2298  0.7208
  569MOL0     C76699   6.021  -0.582   1.271 -0.6542  0.5702 -0.0081
  569MOL0     C76700   6.072  -0.707   1.359 -1.5199  0.4802 -0.2980
  569MOL0     C76701   6.029  -0.708   1.512  0.4620 -0.2552  0.1826
  569MOL0     C76702   6.144  -0.683   1.619  0.2070 -0.1239 -0.2609
  569MOL0     C76703   6.227  -0.554   1.592  0.7787  0.2573 -0.3222
  569MOL0     O76704   6.271  -0.493   1.706 -0.0305  0.0086 -0.7926
  569MOL0     C76705   6.343  -0.376   1.693  1.0621  0.3782 -0.0547
  569MOL0     C76706   6.389  -0.317   1.803 -0.4182  0.1886 -0.7336
  569MOL0     C76707   6.457  -0.191   1.801  0.1884  0.3363 -0.1235
  569MOL0     C76708   6.466  -0.119   1.932 -0.2113 -0.4594  0.2751
  569MOL0     C76709   6.494  -0.138   1.675 -0.4878  1.1707  0.4957
  569MOL0     C76710   6.563  -0.004   1.651 -0.0444 -0.0701 -0.0166
  569MOL0     O76711   6.639   0.005   1.532 -0.2921  0.1205 -0.2835
  569MOL0     C76712   6.727   0.110   1.506 -0.7094 -0.1243 -0.5309
  569MOL0     C76713   6.802   0.180   1.601  0.0942 -1.1721  0.3048
  569MOL0     C76714   6.887   0.287   1.566 -0.0695  0.3406  0.1181
  569MOL0     C76715   6.913   0.328   1.430  0.7931 -0.0299 -0.3305
  569MOL0     O76716   6.995   0.426   1.390  0.7122 -0.3329 -0.1559
  569MOL0     C76717   7.044   0.431   1.251  0.0307  0.6015 -0.4187
  569MOL0     C76718   7.172   0.510   1.237 -0.6595 -0.3351 -0.1355
  569MOL0     C76719   7.166   0.644   1.306 -0.1888 -0.2960 -0.0252
  569MOL0     C76720   7.304   0.700   1.346 -0.1923  0.5805  0.0758
  569MOL0     C76721   7.283   0.810   1.450 -1.4227  0.3795  0.7570
  569MOL0     C76722   7.420   0.871   1.491 -0.2804 -0.4726  0.2117
  569MOL0     C76723   7.494   0.788   1.599 -0.6265  0.1042  0.2168
  569MOL0     C76724   7.616   0.853   1.650 -0.3295  0.4638 -0.3808
  569MOL0    Cl76725   7.596   1.015   1.713 -0.5809 -0.0526  0.1674
  569MOL0     C76726   6.833   0.257   1.335  0.4980 -0.3180  0.6960
  569MOL0     C76727   6.746   0.148   1.374  1.2932 -0.1497 -1.3226
  569MOL0     O76728   6.556   0.083   1.732 -0.2026 -0.2635 -1.2146
  569MOL0     C76729   6.456  -0.202   1.563 -0.5116  0.1454  0.2694
  569MOL0     C76730   6.382  -0.322   1.570  0.6473  0.8297 -0.4610
  569MOL0     N76731   6.087  -0.463   1.264  0.5086 -0.1608 -0.3200
  569MOL0     N76732   6.027  -0.385   1.178  0.7674  0.2826  0.9299
  569MOL0     C76733   6.108   0.510   0.899 -0.0763  0.2880 -0.4828
  569MOL0     C76734   6.206   0.611   0.878  0.2529 -0.8705  0.1934
  569MOL0     C76735   6.530   0.922   0.890 -0.3962 -0.0252 -0.1811
  569MOL0     C76736   6.552   1.030   0.802 -0.0570 -0.8176  0.0082
  569MOL0     C76737   6.655   1.127   0.822  0.1855  1.4027  0.0242
  569MOL0     C76738   6.738   1.113   0.933  0.3186 -0.3743  0.6618
  569MOL0     O76739   6.835   1.199   0.972  0.0451 -0.0310  0.6391
  569MOL0     C76740   6.868   1.320   0.909 -0.1610 -0.7648 -0.3247
  569MOL0     C76741   6.757   1.424   0.935 -0.5648  0.7289 -0.3035
  569MOL0     C76742   6.781   1.558   0.869 -0.7668 -0.6135 -0.7464
  569MOL0     C76743   6.737   1.558   0.722 -0.4315 -0.5747 -0.4248
  569MOL0     C76744   6.602   1.502   0.693 -0.8763 -0.5080  0.1857
  569MOL0     C76745   6.494   1.451   0.673 -1.2123  0.2884 -0.7611
  569MOL0     C76746   6.721   1.007   1.023  0.2447  0.3847  0.2297
  569MOL0     C76747   6.610   0.917   1.009  0.0760  0.0891  0.2015
  569MOL0     H76748   6.382   0.567   1.154  2.0464  2.7921 -1.4928
  569MOL0     H76749   6.247   0.377   1.174 -0.2142  0.0984  1.5557
  569MOL0     H76750   5.842   0.357   0.972 -0.1467 -0.1450  0.2300
  569MOL0     H76751   5.946   0.287   0.854  2.4179 -0.3600  0.3638
  569MOL0     H76752   5.976   0.072   0.999 -0.4562 -1.6957  3.6155
  569MOL0     H76753   5.860   0.132   1.118  4.0173  3.4867  1.2359
  569MOL0     H76754   5.676   0.109   0.978 -1.0562 -1.0585 -0.6286
  569MOL0     H76755   5.782   0.090   0.838 -2.3750  4.2924  0.6482
  569MOL0     H76756   5.871  -0.113   0.908  1.1819 -0.9942  2.8049
  569MOL0     H76757   5.823  -0.091   1.070  2.6725  1.4537 -0.6716
  569MOL0     H76758   5.608  -0.180   1.005  2.9881 -2.4629  1.4011
  569MOL0     H76759   5.620  -0.116   0.837 -1.6937 -2.3737 -1.5048
  569MOL0     H76760   5.617  -0.359   0.841 -0.2721  1.3063 -1.2394
  569MOL0     H76761   5.744  -0.264   0.759 -3.4738  1.5887 -0.6584
  569MOL0     H76762   5.825  -0.474   0.848 -2.6047  0.5617 -1.7398
  569MOL0     H76763   5.919  -0.331   0.894  0.2319  0.0424 -2.0526
  569MOL0     H76764   5.727  -0.488   1.065 -1.3899  0.7667 -1.5710
  569MOL0     H76765   5.792  -0.330   1.121  0.5629  0.3882  0.3308
  569MOL0     H76766   5.868  -0.675   1.150  2.2349 -1.7019  1.2821
  569MOL0     H76767   6.050  -0.805   1.317 -2.3884  0.3577  0.4237
  569MOL0     H76768   6.182  -0.704   1.357 -1.4118  0.8795  2.2950
  569MOL0     H76769   5.991  -0.809   1.533 -0.1235 -0.5421 -1.9841
  569MOL0     H76770   5.960  -0.626   1.530  0.9529  0.4205 -0.9026
  569MOL0     H76771   6.207  -0.770   1.637 -0.0262  0.0576  1.7232
  569MOL0     H76772   6.097  -0.663   1.716 -2.0357 -2.3919 -0.7646
  569MOL0     H76773   6.153  -0.492   1.540 -1.6960 -3.8887 -2.2601
  569MOL0     H76774   6.310  -0.587   1.529  1.0851  2.6093 -1.2725
  569MOL0     H76775   6.374  -0.348   1.906  1.3882  0.0597 -0.4772
  569MOL0     H76776   6.383  -0.048   1.933 -2.6643 -2.9937 -2.6904
  569MOL0     H76777   6.468  -0.176   2.025 -1.9787  2.7215  2.4655
  569MOL0     H76778   6.552  -0.051   1.930  1.4168 -2.4327 -0.5087
  569MOL0     H76779   6.784   0.149   1.703 -2.7280  1.1565  0.6321
  569MOL0     H76780   6.951   0.326   1.644 -1.2827  1.4912  0.5745
  569MOL0     H76781   7.052   0.332   1.205  1.1633  0.8760 -0.8498
  569MOL0     H76782   6.964   0.479   1.194 -1.6639  0.5236  1.7475
  569MOL0     H76783   7.252   0.462   1.294 -0.0343  1.6234  0.7107
  569MOL0     H76784   7.205   0.520   1.133 -3.0916 -2.2816 -1.1975
  569MOL0     H76785   7.105   0.638   1.397 -2.9007  0.4982 -1.6602
  569MOL0     H76786   7.106   0.720   1.255  0.3010  0.0503 -0.0947
  569MOL0     H76787   7.363   0.619   1.389  0.6836  2.1242  1.9199
  569MOL0     H76788   7.361   0.735   1.260  1.3066 -0.1793  0.7316
  569MOL0     H76789   7.235   0.769   1.539  1.5670  1.3537  2.9897
  569MOL0     H76790   7.228   0.893   1.404 -0.6455 -0.4390 -1.8426
  569MOL0     H76791   7.483   0.887   1.403 -0.1765 -0.2649  0.3219
  569MOL0     H76792   7.397   0.967   1.538 -3.2057 -0.2829 -1.3282
  569MOL0     H76793   7.529   0.689   1.572 -2.2257 -0.6427  0.7195
  569MOL0     H76794   7.433   0.767   1.688 -0.3469 -2.1518 -0.0835
  569MOL0     H76795   7.691   0.850   1.571  2.1825 -1.3476  1.8925
  569MOL0     H76796   7.644   0.790   1.735 -2.4567  0.4629  0.3979
  569MOL0     H76797   6.823   0.287   1.231 -1.1497  2.2398  1.4872
  569MOL0     H76798   6.681   0.107   1.297 -0.6540  0.6901 -0.1951
  569MOL0     H76799   6.480  -0.178   1.459  1.0992 -0.4971  0.4547
  569MOL0     H76800   6.339  -0.356   1.477 -3.0165  2.9664  0.2500
  569MOL0     H76801   6.021   0.511   0.834 -1.7513 -1.8056  1.5522
  569MOL0     H76802   6.186   0.685   0.801 -0.2082 -0.7586  0.4180
  569MOL0     H76803   6.487   1.045   0.716  2.3175  1.7604 -1.5255
  569MOL0     H76804   6.667   1.210   0.753 -0.3568  0.9570 -0.6290
  569MOL0     H76805   6.962   1.361   0.949 -0.8879  2.4694 -1.5891
  569MOL0     H76806   6.882   1.306   0.801 -1.4869  1.5938 -0.8706
  569MOL0     H76807   6.763   1.424   1.045  2.8461 -0.6702 -0.3381
  569MOL0     H76808   6.661   1.378   0.912  0.1346 -1.3378  0.6537
  569MOL0     H76809   6.886   1.588   0.876  0.2367 -3.5950 -1.3682
  569MOL0     H76810   6.713   1.628   0.918 -2.3955 -2.8004  0.2479
  569MOL0     H76811   6.820   1.513   0.667  0.7290 -1.8089  2.1324
  569MOL0     H76812   6.743   1.660   0.683  0.1249 -1.1943 -2.0431
  569MOL0     H76813   6.405   1.394   0.653 -1.1877  0.0984 -0.3385
  569MOL0     H76814   6.786   1.002   1.110 -2.5515  0.6442  2.5030
  569MOL0     H76815   6.592   0.841   1.084  0.7536 -1.4351 -1.1217
  570MOL0     O76816   4.123   8.677   7.277  0.3017  0.4001 -0.3110
  570MOL0     C76817   4.191   8.611   7.357  0.9371 -0.4227 -0.2021
  570MOL0     O76818   4.317   8.572   7.341  1.0237  0.1930  0.5281
  570MOL0     C76819   4.395   8.599   7.226  0.0482  0.0816 -0.2312
  570MOL0     C76820   4.391   8.725   7.174 -0.3502  0.4839 -0.3110
  570MOL0     C76821   4.468   8.756   7.069  0.0244 -0.0682  0.4517
  570MOL0     C76822   4.552   8.662   7.008 -0.2420 -0.3280 -0.2233
  570MOL0     O76823   4.627   8.692   6.900  0.7243  0.7113  0.0094
  570MOL0     C76824   4.697   8.818   6.911  0.6445 -0.8678 -0.7136
  570MOL0     C76825   4.786   8.849   6.784 -0.2198  0.2430 -0.4704
  570MOL0     C76826   4.689   8.855   6.666 -0.8294  1.4706 -0.0460
  570MOL0     C76827   4.746   8.821   6.526  1.1070 -0.2314 -0.5060
  570MOL0     C76828   4.876   8.895   6.505  0.4697 -0.5077 -0.2026
  570MOL0     C76829   4.883   8.955   6.356 -1.0623 -0.6760 -0.0115
  570MOL0     C76830   4.880   8.844   6.235 -0.6259 -1.1507 -0.0613
  570MOL0     C76831   4.874   8.920   6.102  0.2443  0.6214 -0.6294
  570MOL0     N76832   4.741   8.913   6.037 -0.0574 -0.2431  0.5510
  570MOL0     C76833   4.694   8.803   5.973  0.9857 -0.3094  0.9792
  570MOL0     C76834   4.577   8.841   5.910 -0.2396  0.7094  0.3364
  570MOL0     C76835   4.493   8.746   5.823  0.0798 -1.0347  0.3267
  570MOL0     C76836   4.509   8.778   5.680  0.8461 -0.1362 -0.5812
  570MOL0     C76837   4.444   8.684   5.585  0.1876 -0.8981 -0.2102
  570MOL0     C76838   4.492   8.540   5.593  0.3830 -0.0636 -0.4415
  570MOL0     O76839   4.452   8.452   5.704  0.9073 -1.1674  0.0304
  570MOL0     C76840   4.331   8.397   5.682  0.5008 -0.2098 -0.4157
  570MOL0     C76841   4.304   8.307   5.580  0.7765 -1.2533  0.1970
  570MOL0     C76842   4.179   8.247   5.567 -0.5363 -0.2932  0.3772
  570MOL0     C76843   4.168   8.165   5.433 -0.0519 -0.2769  0.1101
  570MOL0     C76844   4.086   8.258   5.678  0.5245 -0.3642  0.2760
  570MOL0     C76845   3.963   8.177   5.674 -0.4509  0.2096 -0.2873
  570MOL0     O76846   3.871   8.215   5.761 -0.3107 -0.5229 -0.2729
  570MOL0     C76847   3.774   8.311   5.728  0.6523 -0.3848 -0.1083
  570MOL0     C76848   3.676   8.346   5.823  0.7024  1.1117  0.4204
  570MOL0     C76849   3.567   8.437   5.798  0.8249  0.5265  0.3858
  570MOL0     C76850   3.559   8.490   5.667  0.1894 -0.9391 -0.0989
  570MOL0     O76851   3.462   8.579   5.619 -0.0434  0.3263 -0.0407
  570MOL0     C76852   3.386   8.647   5.718 -0.2013  0.4796 -0.3155
  570MOL0     C76853   3.275   8.731   5.647  0.5950  0.1903 -0.1170
  570MOL0     C76854   3.191   8.803   5.752  0.3010 -0.3591  0.5597
  570MOL0     C76855   3.076   8.878   5.681 -0.0689 -0.0207  0.0168
  570MOL0     C76856   2.980   8.931   5.783 -0.0448 -0.3111 -0.3559
  570MOL0     C76857   2.856   9.010   5.735  0.0844  0.0310 -0.4201
  570MOL0     C76858   2.762   8.924   5.636 -0.3729 -0.2446 -0.2635
  570MOL0     C76859   2.633   8.989   5.606  0.4203 -0.8644  0.2653
  570MOL0    Cl76860   2.503   8.944   5.707 -0.3605 -0.1403 -0.1371
  570MOL0     C76861   3.665   8.468   5.579  0.0395  0.4035  0.0363
  570MOL0     C76862   3.769   8.377   5.609  0.3866  0.9071  0.0007
  570MOL0     O76863   3.960   8.085   5.594 -0.3810  0.1996  0.7394
  570MOL0     C76864   4.117   8.350   5.781  0.6182  0.4783  0.0930
  570MOL0     C76865   4.240   8.407   5.791 -0.0980  0.4200 -1.3605
  570MOL0     N76866   4.552   8.970   5.927 -0.1081  0.1163  0.1862
  570MOL0     N76867   4.647   9.008   6.015  0.3229 -0.6882 -0.4987
  570MOL0     C76868   4.569   8.530   7.072 -0.5956 -0.0869  0.0694
  570MOL0     C76869   4.485   8.501   7.184  0.3616 -0.1555 -0.3539
  570MOL0     C76870   4.129   8.567   7.485  0.7019 -0.1183 -0.3878
  570MOL0     C76871   4.214   8.507   7.587 -0.2010  0.0307 -0.0717
  570MOL0     C76872   4.157   8.461   7.706  0.0031  0.7886 -0.1854
  570MOL0     C76873   4.027   8.479   7.732 -0.4169  0.3290  0.4189
  570MOL0     O76874   3.979   8.418   7.843 -0.1096 -0.2054  0.3177
  570MOL0     C76875   3.928   8.513   7.938 -0.4909 -0.8281  0.7435
  570MOL0     C76876   3.825   8.452   8.033  0.5155 -0.0187 -0.3650
  570MOL0     C76877   3.807   8.544   8.152 -0.5059  0.6158 -1.1971
  570MOL0     C76878   3.745   8.461   8.269  0.5011  0.1026 -0.5528
  570MOL0     C76879   3.692   8.549   8.372  0.0673 -0.1095 -0.1134
  570MOL0     C76880   3.657   8.619   8.468  0.3578  0.5722 -0.9974
  570MOL0     C76881   3.941   8.542   7.638  0.3910 -1.5437  0.3000
  570MOL0     C76882   3.987   8.584   7.512 -1.7620  0.7658  0.2740
  570MOL0     H76883   4.328   8.805   7.211 -2.3906 -0.2937 -1.8901
  570MOL0     H76884   4.452   8.854   7.024 -1.3442 -0.4131  0.1331
  570MOL0     H76885   4.631   8.901   6.937 -1.1600 -2.9530  1.9024
  570MOL0     H76886   4.779   8.814   6.984  0.3596  3.8919  0.1939
  570MOL0     H76887   4.850   8.936   6.803  2.2292 -1.2776 -1.4842
  570MOL0     H76888   4.851   8.763   6.772 -1.2605 -0.6467  0.0773
  570MOL0     H76889   4.611   8.779   6.672 -0.3057  0.9072 -0.2473
  570MOL0     H76890   4.638   8.952   6.662 -0.9217  1.4490  0.4743
  570MOL0     H76891   4.752   8.714   6.509 -2.9081 -0.7309  0.1806
  570MOL0     H76892   4.669   8.844   6.452 -0.3329 -0.0481  0.9943
  570MOL0     H76893   4.889   8.977   6.576  1.5018  0.2482 -1.2121
  570MOL0     H76894   4.961   8.825   6.510 -1.6307 -3.2666 -0.8867
  570MOL0     H76895   4.795   9.019   6.344 -1.4861 -1.5894 -2.2331
  570MOL0     H76896   4.979   9.008   6.347 -1.2705 -0.5121 -1.3882
  570MOL0     H76897   4.971   8.783   6.229 -0.0172 -0.1018 -3.5273
  570MOL0     H76898   4.792   8.780   6.233 -0.8755 -0.9961 -4.8422
  570MOL0     H76899   4.949   8.878   6.034  1.4856  1.1398  0.3720
  570MOL0     H76900   4.913   9.021   6.118  0.5662  0.3834  0.1823
  570MOL0     H76901   4.749   8.711   5.959  4.8975  1.8900  0.3320
  570MOL0     H76902   4.500   8.644   5.864 -1.5585  0.1291  3.9053
  570MOL0     H76903   4.387   8.759   5.848 -0.1625 -3.0465  0.5644
  570MOL0     H76904   4.615   8.786   5.652  1.8692 -1.1092  2.5731
  570MOL0     H76905   4.459   8.875   5.673 -0.4050 -0.6005  1.2492
  570MOL0     H76906   4.464   8.717   5.483 -1.0522 -2.3182 -0.9525
  570MOL0     H76907   4.336   8.689   5.601 -0.2484  1.2137 -3.0813
  570MOL0     H76908   4.598   8.552   5.617  0.2964  1.6480 -0.7866
  570MOL0     H76909   4.477   8.497   5.493 -1.0196 -2.1467  0.5864
  570MOL0     H76910   4.388   8.304   5.511  2.2422  2.0069  1.6579
  570MOL0     H76911   4.257   8.175   5.372 -0.0877  1.1320  0.2626
  570MOL0     H76912   4.150   8.060   5.461  0.1537 -0.0786  1.0471
  570MOL0     H76913   4.091   8.205   5.367  1.3419  2.7257  0.1815
  570MOL0     H76914   3.685   8.297   5.919  0.2427 -0.1120 -0.1448
  570MOL0     H76915   3.493   8.460   5.874  0.5504  2.7634 -0.4715
  570MOL0     H76916   3.339   8.582   5.793  1.8830  1.4569  1.9753
  570MOL0     H76917   3.438   8.722   5.779 -0.1660  0.5394 -0.4189
  570MOL0     H76918   3.314   8.807   5.579 -2.8124  1.2733 -1.0984
  570MOL0     H76919   3.212   8.662   5.589  0.7577 -1.8336  1.9641
  570MOL0     H76920   3.249   8.872   5.813 -1.5052  0.6991  1.1703
  570MOL0     H76921   3.155   8.728   5.824  0.9067  1.6148  3.0391
  570MOL0     H76922   3.126   8.962   5.631  0.7925  1.5132  3.1638
  570MOL0     H76923   3.023   8.808   5.616  0.0431 -0.2982  0.2236
  570MOL0     H76924   3.041   9.004   5.837 -1.3758  0.5001  0.1159
  570MOL0     H76925   2.949   8.845   5.843  0.1294  0.6549  1.1603
  570MOL0     H76926   2.800   9.027   5.827  1.8336  0.9674  0.5211
  570MOL0     H76927   2.889   9.098   5.679  1.0454  1.4298  2.1923
  570MOL0     H76928   2.739   8.827   5.680 -0.7460  0.5072  1.2617
  570MOL0     H76929   2.809   8.905   5.538  0.8727  1.9837 -0.1623
  570MOL0     H76930   2.608   8.986   5.500 -0.0822  1.5996  0.2690
  570MOL0     H76931   2.655   9.095   5.623 -1.0477  0.0171 -2.8046
  570MOL0     H76932   3.684   8.517   5.484 -2.2512 -1.9480 -1.7466
  570MOL0     H76933   3.843   8.357   5.532 -0.0605  0.9184 -0.4386
  570MOL0     H76934   4.052   8.350   5.868 -0.1899 -1.0916 -0.4755
  570MOL0     H76935   4.258   8.459   5.885  2.8143 -0.8222 -1.1200
  570MOL0     H76936   4.636   8.452   7.036  1.1805  0.0008  2.9016
  570MOL0     H76937   4.466   8.404   7.228 -1.2935 -0.2682 -1.2322
  570MOL0     H76938   4.321   8.500   7.574 -0.4744 -2.0703 -1.8450
  570MOL0     H76939   4.209   8.406   7.784 -2.0295 -1.0500 -0.0258
  570MOL0     H76940   4.009   8.568   7.986 -1.5823  0.3524  1.3187
  570MOL0     H76941   3.874   8.591   7.882 -1.8576 -0.6214  2.2410
  570MOL0     H76942   3.850   8.350   8.063  0.2898 -0.1972 -0.7700
  570MOL0     H76943   3.731   8.444   7.977  2.3134 -0.9272 -3.5055
  570MOL0     H76944   3.747   8.631   8.122 -1.2577 -0.0103 -1.5184
  570MOL0     H76945   3.900   8.585   8.193 -0.2589 -2.8612  2.1978
  570MOL0     H76946   3.818   8.398   8.321 -4.0907 -2.6522  3.4055
  570MOL0     H76947   3.664   8.394   8.237  0.0680  0.9396 -1.2544
  570MOL0     H76948   3.630   8.664   8.562 -3.0958 -1.0771 -1.0265
  570MOL0     H76949   3.837   8.553   7.666  0.8947 -1.3593  2.1883
  570MOL0     H76950   3.938   8.634   7.430  0.5043 -0.2687 -1.8377
  571MOL0     O76951   5.360   9.123   4.690 -0.4422  0.0672  0.3793
  571MOL0     C76952   5.305   9.187   4.595  0.5058  0.7455  0.0230
  571MOL0     O76953   5.174   9.165   4.556 -0.1869  0.3559  0.5308
  571MOL0     C76954   5.103   9.078   4.635  0.5285  0.0502  0.3593
  571MOL0     C76955   5.098   9.087   4.779 -0.2940  0.2512 -0.1960
  571MOL0     C76956   4.999   9.015   4.854 -1.0087  0.5105 -0.1076
  571MOL0     C76957   4.916   8.931   4.787 -0.0395  0.3785 -0.1705
  571MOL0     O76958   4.812   8.879   4.868 -0.0127  0.3586  0.8012
  571MOL0     C76959   4.700   8.816   4.792 -0.3735  0.2720 -0.3208
  571MOL0     C76960   4.586   8.771   4.887  1.0201 -0.3065 -0.2754
  571MOL0     C76961   4.644   8.666   4.999  0.8816 -0.6843  0.5245
  571MOL0     C76962   4.534   8.571   5.051  0.4295  0.0659 -0.0992
  571MOL0     C76963   4.438   8.630   5.160  0.4659  0.1425  0.4669
  571MOL0     C76964   4.311   8.540   5.191  0.4564  0.1487 -0.3090
  571MOL0     C76965   4.237   8.594   5.315 -0.3809  0.3222  1.1195
  571MOL0     C76966   4.087   8.570   5.314  0.2531 -0.1760 -0.6064
  571MOL0     N76967   4.026   8.624   5.436  0.6899  0.1663  0.0212
  571MOL0     C76968   4.054   8.617   5.564  0.5294  0.8681 -0.4307
  571MOL0     C76969   3.956   8.669   5.636 -0.4713 -0.3009 -0.4594
  571MOL0     C76970   3.935   8.672   5.787  0.4730  0.4227 -0.6770
  571MOL0     C76971   4.044   8.750   5.854 -0.8773 -0.9044 -0.8484
  571MOL0     C76972   4.027   8.767   6.008 -0.0153  0.0579  0.4881
  571MOL0     C76973   3.927   8.864   6.063 -0.2149 -0.5517 -0.0670
  571MOL0     O76974   3.787   8.834   6.037  0.0155 -0.1805  0.2525
  571MOL0     C76975   3.718   8.746   6.117 -0.1014 -0.9284  0.5285
  571MOL0     C76976   3.585   8.726   6.081 -1.1068  0.1875 -0.1351
  571MOL0     C76977   3.502   8.655   6.165 -0.5015  0.5010  0.4698
  571MOL0     C76978   3.362   8.622   6.110 -0.3165  0.8829 -0.1514
  571MOL0     C76979   3.543   8.600   6.290  0.5070 -0.1791 -0.2507
  571MOL0     C76980   3.454   8.538   6.389 -0.2892 -0.6049  0.5969
  571MOL0     O76981   3.484   8.585   6.509 -0.1993 -0.3595 -0.3124
  571MOL0     C76982   3.439   8.512   6.619  0.1830 -0.2754 -0.4106
  571MOL0     C76983   3.309   8.524   6.679  0.4688 -0.1571  0.7235
  571MOL0     C76984   3.276   8.448   6.795 -0.1620 -0.7956 -0.3348
  571MOL0     C76985   3.371   8.360   6.845 -0.3209  0.6258  0.1797
  571MOL0     O76986   3.347   8.298   6.966 -0.8889  0.2937  0.4948
  571MOL0     C76987   3.310   8.164   6.950  0.4040  0.7619  0.1406
  571MOL0     C76988   3.243   8.100   7.075 -0.0742  0.4010  1.0239
  571MOL0     C76989   3.111   8.166   7.101 -0.3185 -0.2875  0.1342
  571MOL0     C76990   3.023   8.075   7.195 -0.1827 -0.8580  1.1248
  571MOL0     C76991   2.884   8.144   7.209  0.2965 -0.0658 -0.3260
  571MOL0     C76992   2.802   8.064   7.307 -0.7621 -1.2600 -0.6211
  571MOL0     C76993   2.655   8.109   7.302 -0.2403  0.3249 -1.4362
  571MOL0     C76994   2.573   8.046   7.399 -0.3884 -0.1213  0.2756
  571MOL0    Cl76995   2.613   8.090   7.567  0.0730  0.1966  0.3117
  571MOL0     C76996   3.493   8.349   6.789 -0.2189  0.6510 -1.1189
  571MOL0     C76997   3.524   8.425   6.676  0.0315  0.2308 -0.4054
  571MOL0     O76998   3.374   8.449   6.359 -0.1557 -0.1347 -0.7455
  571MOL0     C76999   3.675   8.623   6.326  0.2196  0.4704 -0.1394
  571MOL0     C77000   3.763   8.695   6.241  0.0117  0.8238  0.1808
  571MOL0     N77001   3.858   8.712   5.551  1.1932  0.0547  0.6273
  571MOL0     N77002   3.896   8.679   5.432 -1.2880  1.0736 -0.4517
  571MOL0     C77003   4.926   8.919   4.650 -0.1949 -0.4350  0.2207
  571MOL0     C77004   5.017   8.992   4.573  0.4988 -0.6771  0.4515
  571MOL0     C77005   5.381   9.286   4.524  0.2345  0.6010  0.0826
  571MOL0     C77006   5.320   9.344   4.415 -0.3617  0.5550  1.4414
  571MOL0     C77007   5.383   9.450   4.348  0.3218  0.6325 -0.2385
  571MOL0     C77008   5.516   9.497   4.378  1.2056  0.6969  0.6788
  571MOL0     O77009   5.570   9.597   4.299 -0.1980 -0.4372 -0.3681
  571MOL0     C77010   5.710   9.627   4.295  0.1988 -1.0094 -0.0592
  571MOL0     C77011   5.806   9.518   4.259 -0.5063 -0.2040 -0.4348
  571MOL0     C77012   5.754   9.433   4.142 -0.0581 -1.3891 -1.0417
  571MOL0     C77013   5.859   9.393   4.038  0.6932  0.2885 -0.3987
  571MOL0     C77014   5.935   9.288   4.098 -0.1466 -0.6605 -0.0640
  571MOL0     C77015   6.007   9.217   4.167  0.3337  0.3235 -0.1710
  571MOL0     C77016   5.570   9.430   4.495 -0.9475 -0.8891  1.0773
  571MOL0     C77017   5.508   9.323   4.564  0.6413  0.6859  0.1225
  571MOL0     H77018   5.170   9.157   4.820  0.0046  1.8717 -3.1885
  571MOL0     H77019   4.963   9.026   4.956 -0.7670  0.0821  0.0244
  571MOL0     H77020   4.665   8.883   4.713  0.6251  0.3797 -0.6928
  571MOL0     H77021   4.747   8.730   4.743 -0.0379  1.0494 -1.4217
  571MOL0     H77022   4.554   8.862   4.939 -0.9623 -2.5250  2.7405
  571MOL0     H77023   4.505   8.736   4.823  0.3230  4.8619 -2.7321
  571MOL0     H77024   4.721   8.612   4.942 -0.7839  1.3208 -4.1841
  571MOL0     H77025   4.689   8.721   5.082 -0.0651  3.3097 -1.3766
  571MOL0     H77026   4.459   8.545   4.975 -2.6235  0.3433  2.6041
  571MOL0     H77027   4.583   8.477   5.079  1.2146 -0.3585 -2.5822
  571MOL0     H77028   4.496   8.634   5.253  0.5566  0.8653  0.3851
  571MOL0     H77029   4.398   8.730   5.139  0.3927 -0.0459 -0.3242
  571MOL0     H77030   4.241   8.534   5.106 -1.1631 -0.4110  1.0096
  571MOL0     H77031   4.341   8.439   5.218  0.8218  0.3716  0.1169
  571MOL0     H77032   4.289   8.559   5.405  2.7736 -1.0592 -1.0490
  571MOL0     H77033   4.252   8.701   5.327  1.3928  0.4457 -1.3696
  571MOL0     H77034   4.060   8.464   5.302 -2.4958 -0.0718  3.0396
  571MOL0     H77035   4.036   8.608   5.225 -5.0375 -0.9851  1.6937
  571MOL0     H77036   4.143   8.578   5.613  0.4323  0.2550 -0.7326
  571MOL0     H77037   3.835   8.713   5.801 -0.1029 -0.7908 -1.1290
  571MOL0     H77038   3.940   8.570   5.827 -1.0832  0.5658 -0.0659
  571MOL0     H77039   4.053   8.853   5.817  0.6630 -0.8535 -0.4178
  571MOL0     H77040   4.141   8.707   5.826 -0.3438 -0.3762  0.1258
  571MOL0     H77041   4.123   8.785   6.056 -0.2510 -1.0339  1.4207
  571MOL0     H77042   4.006   8.668   6.050  1.1038 -1.8030 -2.9668
  571MOL0     H77043   3.945   8.967   6.030 -3.0678 -1.2287 -4.6144
  571MOL0     H77044   3.928   8.886   6.170 -0.3033  6.2860 -1.0255
  571MOL0     H77045   3.564   8.782   5.991  0.5424  0.1283 -0.5962
  571MOL0     H77046   3.357   8.521   6.067 -0.1313 -0.1086  2.0022
  571MOL0     H77047   3.290   8.621   6.192 -2.2016 -0.5096 -1.7291
  571MOL0     H77048   3.332   8.700   6.040 -1.1516  0.3016 -0.4611
  571MOL0     H77049   3.246   8.601   6.635  0.0341 -0.4775  0.7882
  571MOL0     H77050   3.186   8.456   6.854 -0.5368 -0.4653 -0.9356
  571MOL0     H77051   3.238   8.170   6.869  1.5716  1.8587 -0.8524
  571MOL0     H77052   3.385   8.097   6.908 -2.1899 -1.4074 -1.3748
  571MOL0     H77053   3.228   7.998   7.039  0.8292  0.7862 -0.5233
  571MOL0     H77054   3.301   8.106   7.167  0.0333  3.2050  0.8564
  571MOL0     H77055   3.053   8.200   7.015  0.8878 -0.9346 -0.9823
  571MOL0     H77056   3.142   8.257   7.155 -4.2380  1.9217 -0.9687
  571MOL0     H77057   3.013   7.977   7.147 -0.1845  0.3057 -1.3984
  571MOL0     H77058   3.076   8.053   7.288 -4.1496 -4.2075  2.8997
  571MOL0     H77059   2.843   8.156   7.109  1.9019 -3.2941 -1.5076
  571MOL0     H77060   2.906   8.245   7.247  3.4626 -0.9729  0.6353
  571MOL0     H77061   2.807   7.958   7.281  0.3635 -1.4368  0.2811
  571MOL0     H77062   2.846   8.074   7.406 -2.2798 -2.0615  0.1833
  571MOL0     H77063   2.611   8.079   7.207 -1.8040 -0.6880 -0.4302
  571MOL0     H77064   2.655   8.218   7.313  3.7041  0.4385 -0.9144
  571MOL0     H77065   2.567   7.937   7.391  1.6411 -0.1086 -2.6712
  571MOL0     H77066   2.468   8.065   7.373 -0.5296 -2.4695 -1.1141
  571MOL0     H77067   3.581   8.301   6.830  0.4037  0.6620 -2.3988
  571MOL0     H77068   3.627   8.433   6.641  0.3074 -0.3577  0.2352
  571MOL0     H77069   3.711   8.585   6.420 -1.1187 -0.2423  0.1082
  571MOL0     H77070   3.863   8.716   6.278  1.7740 -2.0664 -2.4662
  571MOL0     H77071   4.857   8.856   4.595  0.6340  1.1261 -2.8428
  571MOL0     H77072   5.024   8.989   4.465  2.1997 -0.7485  0.5415
  571MOL0     H77073   5.212   9.329   4.409 -0.5916  2.3870 -2.3713
  571MOL0     H77074   5.324   9.488   4.265  1.9103  0.4628 -1.4797
  571MOL0     H77075   5.733   9.711   4.229 -0.8670 -0.9504 -0.3591
  571MOL0     H77076   5.729   9.657   4.399 -1.5161 -0.9343  0.2524
  571MOL0     H77077   5.831   9.446   4.337 -3.9308 -2.8238 -1.5267
  571MOL0     H77078   5.897   9.571   4.231  0.1175  0.3954  2.3635
  571MOL0     H77079   5.684   9.502   4.094  3.2249  0.5774 -3.3340
  571MOL0     H77080   5.702   9.341   4.170  0.7270 -1.7330 -0.6778
  571MOL0     H77081   5.924   9.480   4.023 -0.1661  1.7000  3.0861
  571MOL0     H77082   5.811   9.369   3.943  2.0122 -2.6465 -0.4354
  571MOL0     H77083   6.060   9.152   4.233 -0.8324  1.1915  1.6902
  571MOL0     H77084   5.674   9.449   4.522 -0.6173  1.2243 -1.2705
  571MOL0     H77085   5.566   9.268   4.637 -0.2185 -0.1503  0.2008
  572MOL0     O77086   1.485  11.462   4.643  0.5726  0.3739  0.1452
  572MOL0     C77087   1.591  11.494   4.684 -0.0383  0.9730 -0.3168
  572MOL0     O77088   1.612  11.602   4.765  0.1559  0.2986 -0.0443
  572MOL0     C77089   1.516  11.700   4.784 -0.3363  0.0900 -1.5617
  572MOL0     C77090   1.571  11.827   4.812 -0.2074 -0.0274 -0.2966
  572MOL0     C77091   1.503  11.948   4.808  0.0331  0.6760  0.2042
  572MOL0     C77092   1.365  11.935   4.787  1.0831 -0.0169  1.1258
  572MOL0     O77093   1.291  12.053   4.782 -0.1164  0.4989 -0.8722
  572MOL0     C77094   1.187  12.065   4.683 -0.1249 -0.0786 -0.4152
  572MOL0     C77095   1.241  12.080   4.540  0.1169 -1.0506  0.5558
  572MOL0     C77096   1.126  12.158   4.462  0.4883  0.9476  0.1298
  572MOL0     C77097   1.169  12.197   4.325 -0.0262 -0.1334 -0.2189
  572MOL0     C77098   1.132  12.325   4.252  0.1124  0.1123 -0.5161
  572MOL0     C77099   0.990  12.326   4.203  0.4442 -0.0093 -0.0472
  572MOL0     C77100   0.943  12.203   4.120 -0.4413 -0.1305 -0.7014
  572MOL0     C77101   0.800  12.238   4.070  0.8475  0.4539 -0.0652
  572MOL0     N77102   0.717  12.131   4.012 -0.1813 -0.0150 -0.1278
  572MOL0     C77103   0.721  11.999   4.057  0.2023 -0.4719  0.2880
  572MOL0     C77104   0.629  11.931   3.976 -0.3978 -0.4716 -0.2039
  572MOL0     C77105   0.606  11.780   3.970 -0.0169 -0.8610  1.0727
  572MOL0     C77106   0.531  11.718   4.086  0.0740 -0.0407 -0.0594
  572MOL0     C77107   0.399  11.770   4.105  0.8561  0.1862  0.0980
  572MOL0     C77108   0.299  11.700   4.010  0.3821 -0.1813  0.4033
  572MOL0     O77109   0.161  11.735   4.046 -0.2941  0.3428 -0.0387
  572MOL0     C77110   0.104  11.858   4.008  0.1739 -0.5947  0.2255
  572MOL0     C77111   0.173  11.962   3.941 -0.5280  0.2507 -0.3916
  572MOL0     C77112   0.111  12.079   3.905  0.3395  1.6144  0.4658
  572MOL0     C77113   0.197  12.168   3.822  0.2117  0.1194  0.4588
  572MOL0     C77114  -0.028  12.099   3.924 -0.9492  0.8015 -0.3249
  572MOL0     C77115  -0.106  12.219   3.875 -1.2726 -0.6379 -0.3487
  572MOL0     O77116  -0.212  12.196   3.805 -0.4965  0.6845  0.0061
  572MOL0     C77117  -0.287  12.305   3.764 -0.3641 -0.2057  0.9770
  572MOL0     C77118  -0.317  12.323   3.631  0.2042  0.5337  0.5273
  572MOL0     C77119  -0.392  12.433   3.587  0.4283  0.0977  0.5053
  572MOL0     C77120  -0.428  12.535   3.670 -0.3882  0.0925 -1.3667
  572MOL0     O77121  -0.516  12.622   3.614  0.3046 -0.1307  0.5577
  572MOL0     C77122  -0.593  12.698   3.709  0.3639 -0.3107 -0.5711
  572MOL0     C77123  -0.694  12.776   3.639 -0.0484 -0.5653 -0.2927
  572MOL0     C77124  -0.814  12.817   3.731 -0.1681  0.1435 -0.5770
  572MOL0     C77125  -0.912  12.895   3.655  0.5195 -0.4155  0.5580
  572MOL0     C77126  -1.017  12.947   3.741 -0.3711  0.6033  0.6237
  572MOL0     C77127  -1.129  13.011   3.663  0.4744  0.7067 -0.7164
  572MOL0     C77128  -1.266  13.011   3.730 -0.5949 -0.2369  0.1328
  572MOL0     C77129  -1.380  13.053   3.639  0.5335  0.5335  0.0104
  572MOL0    Cl77130  -1.527  13.055   3.721  0.4489  0.3875 -0.3344
  572MOL0     C77131  -0.397  12.528   3.812  0.1676  0.4215  0.7281
  572MOL0     C77132  -0.329  12.411   3.852  0.0217 -0.0618  0.4975
  572MOL0     O77133  -0.057  12.332   3.878 -0.6855  0.2978  0.0746
  572MOL0     C77134  -0.100  12.004   3.988  0.1973  0.5692 -0.2007
  572MOL0     C77135  -0.037  11.886   4.024  0.9180  0.2101  0.0691
  572MOL0     N77136   0.580  12.019   3.878 -0.0404 -0.1709 -0.6131
  572MOL0     N77137   0.637  12.139   3.897  0.5483 -0.7729 -0.5574
  572MOL0     C77138   1.298  11.808   4.765 -0.7700 -1.2317  1.3912
  572MOL0     C77139   1.376  11.694   4.763 -0.6119 -0.2446  0.5493
  572MOL0     C77140   1.701  11.408   4.643  0.1627 -0.9018  0.3947
  572MOL0     C77141   1.674  11.285   4.582 -0.7130  0.3346  0.2666
  572MOL0     C77142   1.778  11.205   4.542  0.7935  0.3832  0.2154
  572MOL0     C77143   1.911  11.229   4.561 -0.7498 -0.5630 -0.6465
  572MOL0     O77144   1.994  11.132   4.508  0.6593 -0.1210 -0.3285
  572MOL0     C77145   2.129  11.141   4.559 -0.6430  0.3529  0.8646
  572MOL0     C77146   2.130  11.081   4.700 -0.1715  0.0616 -0.3540
  572MOL0     C77147   2.078  10.931   4.702  0.1562  0.1236 -0.3665
  572MOL0     C77148   2.093  10.868   4.839  0.0725 -0.0203 -0.2127
  572MOL0     C77149   2.027  10.729   4.834 -0.3553  0.0286 -0.5778
  572MOL0     C77150   1.963  10.619   4.832 -0.2130 -1.0466 -0.2733
  572MOL0     C77151   1.937  11.353   4.637 -0.3856  0.5733 -0.1514
  572MOL0     C77152   1.832  11.437   4.676  0.2232  0.3016  1.1205
  572MOL0     H77153   1.679  11.829   4.824  0.0147 -0.7987 -1.8959
  572MOL0     H77154   1.544  12.047   4.829  5.7733 -1.9749  4.0219
  572MOL0     H77155   1.108  11.990   4.690 -3.9642  3.4394 -1.8240
  572MOL0     H77156   1.132  12.157   4.705 -0.3085 -1.2533  5.8889
  572MOL0     H77157   1.337  12.131   4.545 -0.7464  0.8861 -1.2432
  572MOL0     H77158   1.269  11.981   4.502 -2.7528 -1.1413 -1.7345
  572MOL0     H77159   1.048  12.086   4.435  0.5277  0.5704  0.9888
  572MOL0     H77160   1.094  12.240   4.526  1.2367 -1.5277  4.0499
  572MOL0     H77161   1.274  12.220   4.340 -0.4698  0.2677  2.7205
  572MOL0     H77162   1.163  12.113   4.255  2.2056 -0.1217 -0.5017
  572MOL0     H77163   1.141  12.403   4.328 -2.7110  0.8598 -0.8179
  572MOL0     H77164   1.192  12.341   4.162 -1.4375 -1.5915 -1.9483
  572MOL0     H77165   0.925  12.349   4.288  1.0274  2.0600 -0.1011
  572MOL0     H77166   0.984  12.414   4.139 -1.6317  0.9632  1.3944
  572MOL0     H77167   1.011  12.178   4.038  0.3620 -0.8430  0.1529
  572MOL0     H77168   0.945  12.122   4.193  1.1686 -0.5213 -1.1386
  572MOL0     H77169   0.796  12.309   3.987 -3.5002  0.9346  0.3187
  572MOL0     H77170   0.741  12.286   4.150  1.9572  1.8385 -0.0437
  572MOL0     H77171   0.786  11.956   4.132  0.6431  0.6928  0.5951
  572MOL0     H77172   0.545  11.764   3.880 -0.2983 -0.1142  1.1254
  572MOL0     H77173   0.708  11.741   3.960  0.2444 -0.4182  1.9038
  572MOL0     H77174   0.587  11.744   4.176 -2.3577  0.4175  1.4061
  572MOL0     H77175   0.541  11.609   4.083  5.2803  0.1905  0.5175
  572MOL0     H77176   0.390  11.879   4.108  3.2256  0.4805  3.9232
  572MOL0     H77177   0.376  11.742   4.209  3.7399  3.1967  1.7453
  572MOL0     H77178   0.306  11.592   4.028  0.2788  0.0013  1.6377
  572MOL0     H77179   0.326  11.722   3.906  0.1133  2.3274  0.7978
  572MOL0     H77180   0.280  11.954   3.922 -0.7114 -2.0480 -0.7262
  572MOL0     H77181   0.270  12.217   3.887 -1.8007  0.6247  2.4495
  572MOL0     H77182   0.248  12.114   3.742  1.1200 -0.5079  1.4500
  572MOL0     H77183   0.140  12.237   3.758  1.1004 -2.4124 -3.4163
  572MOL0     H77184  -0.304  12.237   3.566 -0.2591  1.8297 -1.3492
  572MOL0     H77185  -0.423  12.443   3.484 -0.5182 -0.7908  0.6876
  572MOL0     H77186  -0.637  12.626   3.778 -0.5151 -0.3430 -1.1463
  572MOL0     H77187  -0.522  12.767   3.757 -1.7601  0.3688  1.7787
  572MOL0     H77188  -0.640  12.861   3.596 -1.6841  0.4488 -0.4227
  572MOL0     H77189  -0.737  12.725   3.552  0.9836  0.6114 -1.5417
  572MOL0     H77190  -0.779  12.873   3.817 -0.4140  0.1923 -0.5099
  572MOL0     H77191  -0.864  12.725   3.762  0.9310  0.2068  1.5332
  572MOL0     H77192  -0.871  12.976   3.593 -2.3018  1.0280  0.4134
  572MOL0     H77193  -0.946  12.819   3.584 -1.4206  1.5615 -0.7679
  572MOL0     H77194  -0.982  13.022   3.811 -1.2379  3.9339 -2.2490
  572MOL0     H77195  -1.065  12.866   3.798 -2.7145  3.1122  2.5067
  572MOL0     H77196  -1.100  13.115   3.646  3.5205  0.0658  0.0218
  572MOL0     H77197  -1.144  12.961   3.566 -1.5310  2.8093 -1.6022
  572MOL0     H77198  -1.264  13.085   3.811 -0.9745  0.2029 -0.2517
  572MOL0     H77199  -1.277  12.907   3.762 -1.9647 -0.6569 -1.5530
  572MOL0     H77200  -1.382  12.997   3.545 -2.6198  1.2622 -0.4594
  572MOL0     H77201  -1.346  13.149   3.598  1.7945 -0.7727 -2.2138
  572MOL0     H77202  -0.427  12.597   3.890  0.1516  0.9806  0.2312
  572MOL0     H77203  -0.297  12.404   3.956 -1.9957  2.6851  1.4239
  572MOL0     H77204  -0.201  12.024   4.023 -0.2059 -0.8315 -0.5051
  572MOL0     H77205  -0.096  11.807   4.069  1.6778  0.8936  2.4361
  572MOL0     H77206   1.192  11.809   4.740 -0.2950 -1.4874 -0.8292
  572MOL0     H77207   1.326  11.600   4.740  0.8189 -0.9985  0.3399
  572MOL0     H77208   1.569  11.268   4.562 -0.5224 -0.0133 -0.5075
  572MOL0     H77209   1.750  11.123   4.477  0.2987  0.4471  0.3436
  572MOL0     H77210   2.184  11.082   4.485 -1.7593  0.2453  0.0790
  572MOL0     H77211   2.164  11.244   4.566 -2.7368  1.0461  2.3653
  572MOL0     H77212   2.064  11.124   4.776  0.3412 -4.5309  3.1354
  572MOL0     H77213   2.232  11.086   4.739 -0.8541  1.0649  1.4134
  572MOL0     H77214   2.113  10.858   4.629  0.4007 -0.0103 -0.1166
  572MOL0     H77215   1.970  10.933   4.685  0.1079  1.0915 -0.0396
  572MOL0     H77216   2.032  10.925   4.910 -1.0789  1.2204 -2.0972
  572MOL0     H77217   2.200  10.866   4.862 -0.2425 -0.6522  1.3466
  572MOL0     H77218   1.904  10.529   4.836 -0.6534 -0.7676  3.3112
  572MOL0     H77219   2.037  11.366   4.678 -0.1188  2.3516 -1.2651
  572MOL0     H77220   1.849  11.523   4.741 -1.8227  0.5502  1.3720
  573MOL0     O77221   6.848   3.670   8.841 -0.3074  0.6895  0.0380
  573MOL0     C77222   6.913   3.621   8.747 -0.1709  0.1544 -0.4936
  573MOL0     O77223   6.864   3.537   8.648  1.0383  0.1099  0.4227
  573MOL0     C77224   6.732   3.532   8.619 -0.1031 -0.4071 -1.1028
  573MOL0     C77225   6.665   3.410   8.610 -0.1900  0.1771  0.5604
  573MOL0     C77226   6.526   3.408   8.600  0.1388  1.4596  0.2594
  573MOL0     C77227   6.448   3.514   8.594  0.8455  0.3312 -0.6105
  573MOL0     O77228   6.305   3.501   8.584  0.4954 -0.0087 -0.2287
  573MOL0     C77229   6.224   3.619   8.566  0.2914 -0.0433  0.0503
  573MOL0     C77230   6.084   3.557   8.559  0.5375  0.1089  0.6904
  573MOL0     C77231   5.977   3.627   8.468  0.2583  0.5890  0.1787
  573MOL0     C77232   5.856   3.546   8.473 -0.3719  0.5182 -0.7361
  573MOL0     C77233   5.744   3.605   8.386 -1.1983  1.0967  0.6157
  573MOL0     C77234   5.646   3.478   8.344 -0.7493 -0.5444 -0.0231
  573MOL0     C77235   5.516   3.537   8.299  1.3756 -0.0547 -0.0301
  573MOL0     C77236   5.401   3.437   8.265 -0.6373 -0.3435 -0.0785
  573MOL0     N77237   5.271   3.498   8.262 -0.8908  0.3430 -0.3632
  573MOL0     C77238   5.223   3.564   8.156  0.9129  0.3477 -0.0917
  573MOL0     C77239   5.093   3.586   8.191 -1.2030 -0.0669 -0.8757
  573MOL0     C77240   4.993   3.657   8.100 -0.4464 -0.5733  0.7641
  573MOL0     C77241   4.856   3.594   8.105 -0.2718  0.5346  0.1117
  573MOL0     C77242   4.758   3.694   8.045 -0.2439  0.7125  0.0725
  573MOL0     C77243   4.613   3.648   8.063 -0.3784  1.0155 -0.5453
  573MOL0     O77244   4.569   3.622   8.196 -0.8129 -0.2335 -0.3245
  573MOL0     C77245   4.464   3.533   8.202  0.9093 -0.4032  0.0872
  573MOL0     C77246   4.364   3.517   8.107  0.5670 -0.1354  1.1874
  573MOL0     C77247   4.249   3.440   8.124  0.0444  0.3512 -0.3114
  573MOL0     C77248   4.159   3.426   8.007 -1.0965  0.6417  0.2670
  573MOL0     C77249   4.236   3.375   8.247  0.6200  0.6606 -0.5321
  573MOL0     C77250   4.131   3.274   8.272 -0.0340 -0.9032  0.3567
  573MOL0     O77251   4.104   3.174   8.181 -0.0467  0.0484  0.2254
  573MOL0     C77252   3.979   3.099   8.185 -0.6158 -1.0421 -0.0056
  573MOL0     C77253   3.861   3.152   8.237  0.1361  0.0938  0.7215
  573MOL0     C77254   3.747   3.070   8.227  0.6813  0.3304  0.0985
  573MOL0     C77255   3.743   2.943   8.170 -0.3993  0.5532  0.3146
  573MOL0     O77256   3.621   2.877   8.162  0.0874  0.0339 -0.1320
  573MOL0     C77257   3.616   2.761   8.086 -0.1280 -0.2196  0.3570
  573MOL0     C77258   3.614   2.641   8.179  0.4705 -0.0599  0.4530
  573MOL0     C77259   3.655   2.509   8.101  0.5756 -0.3924  0.2883
  573MOL0     C77260   3.554   2.473   7.991  0.7864 -0.5466  0.2154
  573MOL0     C77261   3.567   2.325   7.945 -0.4799 -0.2397 -0.6988
  573MOL0     C77262   3.703   2.283   7.888 -0.5443  1.3421 -0.3784
  573MOL0     C77263   3.721   2.357   7.757  0.4595 -0.6717 -1.1249
  573MOL0     C77264   3.854   2.313   7.703 -0.0168  0.1054  0.4482
  573MOL0    Cl77265   3.996   2.312   7.820  0.1451 -0.0647  0.3916
  573MOL0     C77266   3.867   2.895   8.111  0.0981  0.0985  0.9209
  573MOL0     C77267   3.987   2.971   8.125 -0.3467 -1.2899 -0.0164
  573MOL0     O77268   4.066   3.294   8.373 -0.6745 -0.0829 -0.3547
  573MOL0     C77269   4.332   3.392   8.350 -0.3310 -0.2828 -0.4400
  573MOL0     C77270   4.439   3.479   8.329 -0.3512  0.8811 -1.0850
  573MOL0     N77271   5.070   3.541   8.326 -0.0978 -0.4176 -0.9096
  573MOL0     N77272   5.181   3.497   8.363  0.1142 -0.3444 -0.2500
  573MOL0     C77273   6.511   3.641   8.606 -0.1820 -0.7838  0.0740
  573MOL0     C77274   6.652   3.649   8.612 -0.2572 -0.0227  0.4909
  573MOL0     C77275   7.061   3.631   8.743  0.4090  0.1817 -0.8638
  573MOL0     C77276   7.124   3.612   8.625  0.1805 -0.2211  0.2883
  573MOL0     C77277   7.262   3.620   8.615 -0.2829  0.9909 -0.1738
  573MOL0     C77278   7.335   3.645   8.728 -0.5946  0.4766  0.0521
  573MOL0     O77279   7.472   3.659   8.712  0.4816  0.2088 -1.0700
  573MOL0     C77280   7.544   3.534   8.685  0.8300  0.2493  0.7368
  573MOL0     C77281   7.689   3.566   8.707 -0.0963 -0.3958  1.2886
  573MOL0     C77282   7.780   3.443   8.689  0.6138 -0.5111  0.5668
  573MOL0     C77283   7.926   3.471   8.700  0.4977 -0.3991  0.0928
  573MOL0     C77284   7.962   3.551   8.821 -0.2669  0.3329  0.4059
  573MOL0     C77285   8.000   3.622   8.917  0.8007  0.7099 -0.3290
  573MOL0     C77286   7.268   3.670   8.848 -0.3776 -0.2861  0.1506
  573MOL0     C77287   7.127   3.665   8.861 -0.6041 -0.2573  0.4778
  573MOL0     H77288   6.723   3.318   8.612 -3.5465 -2.0898  0.6944
  573MOL0     H77289   6.485   3.307   8.602  3.3226  0.0689  2.4354
  573MOL0     H77290   6.236   3.691   8.647 -1.8353 -0.6082  0.9343
  573MOL0     H77291   6.250   3.677   8.477  1.3769  1.0479  1.0415
  573MOL0     H77292   6.102   3.451   8.537  2.0302 -0.1021  2.6058
  573MOL0     H77293   6.053   3.564   8.664  4.7186 -1.5930  2.2895
  573MOL0     H77294   5.955   3.726   8.509  0.2831  0.7282 -0.1421
  573MOL0     H77295   6.013   3.635   8.365  0.9270 -2.1492  0.1177
  573MOL0     H77296   5.874   3.441   8.444 -2.2022 -0.5060  1.5211
  573MOL0     H77297   5.828   3.548   8.579 -1.4742 -1.0306 -0.9637
  573MOL0     H77298   5.677   3.685   8.418 -2.4071 -0.1333  1.2468
  573MOL0     H77299   5.789   3.646   8.295 -2.7202 -1.2481 -1.3247
  573MOL0     H77300   5.697   3.420   8.267  0.3236  1.6211 -1.0472
  573MOL0     H77301   5.619   3.417   8.431 -3.5316 -0.6664 -0.8704
  573MOL0     H77302   5.483   3.605   8.378 -0.2798 -0.1000 -0.6308
  573MOL0     H77303   5.532   3.598   8.211  2.2772  1.2450  1.0060
  573MOL0     H77304   5.394   3.356   8.338 -5.4821 -0.5474 -0.4838
  573MOL0     H77305   5.418   3.390   8.168 -1.5571 -1.7603  0.4106
  573MOL0     H77306   5.273   3.585   8.062  0.8136 -2.4942 -0.8836
  573MOL0     H77307   4.992   3.765   8.113 -1.1578 -0.3886 -0.6702
  573MOL0     H77308   5.031   3.643   7.998  0.5434  3.5817  0.3932
  573MOL0     H77309   4.841   3.580   8.212  2.4718  3.0609  0.9549
  573MOL0     H77310   4.850   3.495   8.058  0.3435  1.5649 -2.3202
  573MOL0     H77311   4.785   3.694   7.939  2.6417  2.8840  0.6960
  573MOL0     H77312   4.775   3.792   8.091 -0.2308  0.6836  0.1303
  573MOL0     H77313   4.617   3.552   8.012 -0.6764  0.3436  0.6533
  573MOL0     H77314   4.550   3.715   8.004 -0.6940 -0.9849 -2.6209
  573MOL0     H77315   4.371   3.552   8.004  1.5437 -2.8452  0.2391
  573MOL0     H77316   4.173   3.325   7.968 -0.8968  1.1614 -1.0661
  573MOL0     H77317   4.053   3.440   8.031 -0.9881  2.7972 -0.2916
  573MOL0     H77318   4.190   3.492   7.925  3.9075 -0.8048  0.6738
  573MOL0     H77319   3.859   3.254   8.272 -2.0001  0.0048  0.9864
  573MOL0     H77320   3.649   3.101   8.261 -1.0462 -2.7820 -1.5846
  573MOL0     H77321   3.524   2.756   8.026  1.6763  0.4750 -2.6789
  573MOL0     H77322   3.690   2.760   8.005  3.4398 -1.6617  3.3570
  573MOL0     H77323   3.688   2.655   8.259 -0.2421  0.4768  1.0272
  573MOL0     H77324   3.510   2.629   8.210 -0.1021  0.2802 -1.2214
  573MOL0     H77325   3.671   2.425   8.169  0.6041 -2.5361 -2.2026
  573MOL0     H77326   3.755   2.518   8.058 -0.5671  1.4476 -2.2700
  573MOL0     H77327   3.457   2.493   8.038  0.3119 -0.2993 -0.8304
  573MOL0     H77328   3.574   2.546   7.912  0.4213  3.1263  3.2335
  573MOL0     H77329   3.484   2.304   7.877 -2.2991  2.7949  0.3508
  573MOL0     H77330   3.551   2.253   8.026 -0.5401 -0.8598 -1.2615
  573MOL0     H77331   3.789   2.290   7.955 -0.3061  0.5931 -0.6053
  573MOL0     H77332   3.702   2.176   7.867  1.1993  0.3026  3.8338
  573MOL0     H77333   3.728   2.465   7.772  3.9741 -1.0554  0.8545
  573MOL0     H77334   3.632   2.320   7.704 -0.8181 -0.0811  0.5390
  573MOL0     H77335   3.880   2.370   7.613  0.4539 -0.3212  0.3095
  573MOL0     H77336   3.832   2.211   7.671 -1.9642 -0.4309  3.0936
  573MOL0     H77337   3.877   2.800   8.059  0.3918  1.1043 -0.9391
  573MOL0     H77338   4.077   2.945   8.070 -2.4228 -1.3507 -3.7339
  573MOL0     H77339   4.315   3.356   8.451 -2.9465  1.9128  0.0240
  573MOL0     H77340   4.507   3.506   8.409 -0.9672 -0.5350 -0.0389
  573MOL0     H77341   6.449   3.728   8.618  1.4551  0.4719 -0.1922
  573MOL0     H77342   6.690   3.751   8.618  1.2498 -0.2553 -2.8444
  573MOL0     H77343   7.076   3.572   8.536 -0.0281 -3.9293  1.8914
  573MOL0     H77344   7.306   3.600   8.518  2.8917  1.0245  1.1315
  573MOL0     H77345   7.515   3.457   8.757 -1.0736  4.8629  5.6241
  573MOL0     H77346   7.527   3.517   8.578  3.1820  1.7871  0.0458
  573MOL0     H77347   7.706   3.629   8.795 -0.6997 -0.4038  1.4136
  573MOL0     H77348   7.712   3.631   8.622  0.6506 -0.1278  1.6820
  573MOL0     H77349   7.764   3.397   8.591 -1.5234  1.9633 -0.4015
  573MOL0     H77350   7.748   3.371   8.765 -1.3696 -0.1101  0.1783
  573MOL0     H77351   7.948   3.533   8.613 -1.3753  1.8153  1.0982
  573MOL0     H77352   7.973   3.372   8.706 -1.7866 -1.6205 -0.8094
  573MOL0     H77353   8.040   3.685   8.994  3.4254 -1.6398  0.3885
  573MOL0     H77354   7.323   3.688   8.939 -0.3615 -0.8187  0.2522
  573MOL0     H77355   7.074   3.686   8.953  0.2192 -0.6065  1.0413
  574MOL0     O77356   4.665   5.993   3.294 -0.9800 -0.1920 -0.4992
  574MOL0     C77357   4.656   6.116   3.285  0.0243  0.2506  0.1461
  574MOL0     O77358   4.737   6.206   3.362 -0.2606 -0.8368 -0.2099
  574MOL0     C77359   4.855   6.168   3.434  0.0852 -0.1383 -0.9268
  574MOL0     C77360   4.912   6.043   3.450  0.2273  0.2176  0.1130
  574MOL0     C77361   5.037   6.023   3.517  0.1599  0.5935 -0.0264
  574MOL0     C77362   5.089   6.126   3.600 -0.0825  0.2897 -0.1911
  574MOL0     O77363   5.199   6.098   3.668  0.4506  0.0592  0.1427
  574MOL0     C77364   5.291   6.214   3.680 -0.1567  0.3101  0.0935
  574MOL0     C77365   5.434   6.174   3.719  0.4613  0.3453  0.0455
  574MOL0     C77366   5.442   6.169   3.871  1.0949 -0.4656 -0.4035
  574MOL0     C77367   5.585   6.158   3.910  0.2979  0.8747 -0.3470
  574MOL0     C77368   5.619   6.125   4.064  0.3970 -0.7093 -0.0431
  574MOL0     C77369   5.572   6.227   4.173  0.2514 -0.2709 -1.1408
  574MOL0     C77370   5.641   6.363   4.162  0.6047 -0.2561  0.1789
  574MOL0     C77371   5.565   6.479   4.234  0.0144 -0.5696  0.3752
  574MOL0     N77372   5.634   6.606   4.231 -0.0669  0.2633 -0.3247
  574MOL0     C77373   5.708   6.662   4.125 -0.0819 -0.0879 -0.0812
  574MOL0     C77374   5.760   6.773   4.174 -0.2828 -0.2539 -0.4841
  574MOL0     C77375   5.845   6.868   4.095 -0.0180  0.2868 -0.1879
  574MOL0     C77376   5.879   6.992   4.167  0.3510  0.1533  0.5236
  574MOL0     C77377   5.936   7.090   4.065  0.4056 -0.2789 -0.6235
  574MOL0     C77378   5.946   7.230   4.124  0.1089  0.4326  0.9260
  574MOL0     O77379   6.042   7.243   4.229 -0.5297 -0.6108  0.1190
  574MOL0     C77380   6.063   7.366   4.290  0.2299  0.8595 -0.3638
  574MOL0     C77381   5.976   7.480   4.267 -0.5517 -0.3713 -0.9160
  574MOL0     C77382   6.003   7.598   4.333 -0.5531 -0.5843 -0.1863
  574MOL0     C77383   5.918   7.724   4.291  0.4013  0.2929  0.0340
  574MOL0     C77384   6.122   7.610   4.410 -0.7977 -0.2036  0.1945
  574MOL0     C77385   6.156   7.735   4.481 -1.0853 -1.0197  0.0322
  574MOL0     O77386   6.066   7.831   4.501 -0.5329 -0.2291  0.0095
  574MOL0     C77387   6.108   7.950   4.563  0.1625  0.4505 -0.4883
  574MOL0     C77388   6.144   7.960   4.698  0.2514  0.5739 -0.1800
  574MOL0     C77389   6.177   8.088   4.744 -0.4487  0.0601  1.1675
  574MOL0     C77390   6.183   8.205   4.664  0.5094 -0.7303 -0.9446
  574MOL0     O77391   6.184   8.331   4.711 -0.1047 -0.9669 -0.1269
  574MOL0     C77392   6.281   8.375   4.809 -0.9307 -0.0498  0.3099
  574MOL0     C77393   6.288   8.526   4.806  0.0589  0.3488  0.7937
  574MOL0     C77394   6.389   8.580   4.907 -0.0023  0.6912 -0.4891
  574MOL0     C77395   6.396   8.726   4.930 -0.3631  0.8607  0.3670
  574MOL0     C77396   6.452   8.799   4.809 -0.8584 -0.8674  0.1025
  574MOL0     C77397   6.605   8.787   4.791 -0.0537 -0.2859 -0.6135
  574MOL0     C77398   6.655   8.915   4.716 -0.8511  0.2817  0.9166
  574MOL0     C77399   6.810   8.911   4.699  0.0335 -0.7273 -0.0941
  574MOL0    Cl77400   6.873   8.771   4.601 -0.2060  0.6042 -0.2007
  574MOL0     C77401   6.157   8.189   4.531  0.1454 -0.0168 -0.4510
  574MOL0     C77402   6.125   8.061   4.479  0.9645 -0.1815 -0.6910
  574MOL0     O77403   6.277   7.750   4.493 -0.1234 -0.6029  0.1236
  574MOL0     C77404   6.207   7.495   4.421 -0.7044 -0.0122  0.0273
  574MOL0     C77405   6.180   7.374   4.358 -0.4210 -0.3541  0.5667
  574MOL0     N77406   5.720   6.788   4.307  0.7787 -0.2480 -0.4535
  574MOL0     N77407   5.649   6.687   4.336 -0.3697  0.8315  0.0045
  574MOL0     C77408   5.028   6.249   3.588 -0.0312 -0.2435 -0.2078
  574MOL0     C77409   4.916   6.265   3.510 -0.2639  0.1338 -0.9706
  574MOL0     C77410   4.545   6.164   3.200  0.5810 -0.0624 -0.1535
  574MOL0     C77411   4.530   6.301   3.174 -0.1380  0.3088 -0.8667
  574MOL0     C77412   4.426   6.341   3.102  0.8601 -0.6671  0.0808
  574MOL0     C77413   4.335   6.257   3.033 -1.0168 -0.4175 -1.0397
  574MOL0     O77414   4.232   6.305   2.953 -0.5532  0.5603 -0.0151
  574MOL0     C77415   4.218   6.248   2.826  0.5195  0.1732  0.7562
  574MOL0     C77416   4.079   6.260   2.762  0.0971 -0.6538  0.2632
  574MOL0     C77417   3.970   6.187   2.837  0.0080 -0.3349  0.0788
  574MOL0     C77418   3.987   6.033   2.834  0.0786 -0.2119  0.1535
  574MOL0     C77419   3.892   5.964   2.922  0.7546  0.2013  0.0429
  574MOL0     C77420   3.810   5.912   2.996  0.9126 -0.0767  0.0420
  574MOL0     C77421   4.355   6.124   3.060 -0.2255 -0.1044 -0.1667
  574MOL0     C77422   4.454   6.071   3.144  0.3919 -0.5576 -0.9608
  574MOL0     H77423   4.873   5.949   3.414  0.1830 -0.5734  2.1151
  574MOL0     H77424   5.094   5.932   3.503  0.1366  0.6759 -0.6448
  574MOL0     H77425   5.300   6.260   3.581  0.5584  1.3885  0.6538
  574MOL0     H77426   5.256   6.288   3.752  0.4514  1.6427 -0.9389
  574MOL0     H77427   5.466   6.073   3.691  1.9110  1.2131 -1.6206
  574MOL0     H77428   5.507   6.250   3.692  0.0518  1.1106  1.0302
  574MOL0     H77429   5.406   6.256   3.926  2.4799  0.3391 -0.7255
  574MOL0     H77430   5.384   6.081   3.901 -1.4587  1.0983 -0.3975
  574MOL0     H77431   5.637   6.077   3.858  0.0502 -0.7854  1.8033
  574MOL0     H77432   5.631   6.253   3.883 -1.5551  2.6289  2.1878
  574MOL0     H77433   5.567   6.033   4.091  0.4229 -0.3239  1.4172
  574MOL0     H77434   5.728   6.112   4.061  1.0902  3.6877 -1.0558
  574MOL0     H77435   5.463   6.234   4.167 -0.2643 -1.9840  2.9673
  574MOL0     H77436   5.593   6.192   4.274  4.2174 -0.2915 -1.7909
  574MOL0     H77437   5.739   6.341   4.206  0.5775 -1.9191 -0.5229
  574MOL0     H77438   5.646   6.387   4.055 -0.5537 -2.5408 -0.4479
  574MOL0     H77439   5.524   6.460   4.334  0.1216 -0.5970  0.4141
  574MOL0     H77440   5.477   6.495   4.172  0.3291  0.3033  0.1346
  574MOL0     H77441   5.720   6.626   4.023  0.8319 -0.4141  0.1328
  574MOL0     H77442   5.930   6.809   4.060 -0.3334 -1.2477  1.5291
  574MOL0     H77443   5.791   6.898   4.005 -1.5685 -0.5359  0.4422
  574MOL0     H77444   5.954   6.976   4.244  1.5879  0.1774 -0.6439
  574MOL0     H77445   5.782   7.026   4.206  0.6818  1.5681  0.1968
  574MOL0     H77446   5.883   7.087   3.969 -1.6686 -1.5628  0.4962
  574MOL0     H77447   6.039   7.058   4.048  0.9081 -0.2357  1.9580
  574MOL0     H77448   5.848   7.267   4.156 -0.9727 -2.6513  1.4678
  574MOL0     H77449   5.986   7.300   4.050  1.4532  1.1031  2.2244
  574MOL0     H77450   5.889   7.481   4.202 -0.0363  1.7088 -1.6470
  574MOL0     H77451   5.866   7.767   4.378 -2.7892 -2.6934 -0.1805
  574MOL0     H77452   5.980   7.794   4.235  1.2126 -0.8736 -0.5677
  574MOL0     H77453   5.837   7.695   4.224  0.3462 -1.7424  0.8910
  574MOL0     H77454   6.145   7.882   4.773  1.2068 -0.1625 -0.9344
  574MOL0     H77455   6.179   8.103   4.852 -0.1193  1.1490  1.0211
  574MOL0     H77456   6.258   8.342   4.911  1.2443  1.3909  1.3536
  574MOL0     H77457   6.378   8.343   4.772 -0.6569  1.6232 -0.5024
  574MOL0     H77458   6.318   8.551   4.703  0.5810  1.6557  1.2355
  574MOL0     H77459   6.193   8.568   4.839 -0.3296 -3.9766  6.6768
  574MOL0     H77460   6.490   8.550   4.878  0.0971 -0.7607  1.2175
  574MOL0     H77461   6.379   8.544   5.010  2.1027  1.0934 -0.1032
  574MOL0     H77462   6.295   8.760   4.956  0.5058  2.0819  2.3420
  574MOL0     H77463   6.459   8.750   5.016  0.1155  2.0993 -0.3072
  574MOL0     H77464   6.433   8.902   4.839  0.8182 -0.9687  1.6766
  574MOL0     H77465   6.389   8.756   4.730 -3.9365 -1.7691  2.8684
  574MOL0     H77466   6.657   8.791   4.887  0.2049 -2.4023 -0.6134
  574MOL0     H77467   6.618   8.692   4.739  1.7659  0.6266 -1.9300
  574MOL0     H77468   6.635   8.998   4.784  2.3852 -0.2480  2.7431
  574MOL0     H77469   6.601   8.924   4.622  1.2768  1.6838 -0.2333
  574MOL0     H77470   6.844   8.920   4.803  0.9117 -1.6280 -0.2885
  574MOL0     H77471   6.847   9.003   4.651  1.2749 -0.5379  1.1498
  574MOL0     H77472   6.159   8.267   4.455  0.5988  0.6582  0.2460
  574MOL0     H77473   6.099   8.061   4.374 -0.5468  0.8265 -0.3479
  574MOL0     H77474   6.306   7.500   4.466  1.5751  0.1903 -4.3768
  574MOL0     H77475   6.236   7.283   4.374  0.8548  0.6717  2.1771
  574MOL0     H77476   5.057   6.334   3.649 -0.4429  0.8325 -1.4413
  574MOL0     H77477   4.875   6.366   3.509  1.2987  0.9376  2.2847
  574MOL0     H77478   4.605   6.369   3.212  0.1449  1.0716 -2.7052
  574MOL0     H77479   4.428   6.446   3.077 -2.2194 -0.9931 -1.9980
  574MOL0     H77480   4.284   6.294   2.753 -0.3694  1.3998  0.7070
  574MOL0     H77481   4.236   6.140   2.837 -0.5253 -0.2208 -0.9832
  574MOL0     H77482   4.094   6.216   2.663  1.2603 -1.6369  0.8498
  574MOL0     H77483   4.048   6.365   2.756  0.8058 -0.3857  1.0603
  574MOL0     H77484   3.871   6.211   2.797  0.2377  1.7357  0.6791
  574MOL0     H77485   3.973   6.217   2.942 -0.3826 -0.9853  0.2862
  574MOL0     H77486   4.087   6.003   2.868  0.7454  1.1333 -0.5093
  574MOL0     H77487   3.982   6.006   2.728  2.0143 -0.7452  0.1525
  574MOL0     H77488   3.745   5.858   3.062 -2.7827  4.2336  0.4350
  574MOL0     H77489   4.297   6.045   3.014 -0.8388  0.5579 -0.5474
  574MOL0     H77490   4.456   5.966   3.169 -0.6064  0.0714  2.3796
  575MOL0     O77491   5.471   6.016  11.059  0.0043  1.2310  0.2613
  575MOL0     C77492   5.550   6.072  10.987 -0.8342  0.8592  0.5982
  575MOL0     O77493   5.518   6.146  10.879  0.6900  0.0403  0.1875
  575MOL0     C77494   5.403   6.218  10.896 -1.1109 -0.2961  0.3352
  575MOL0     C77495   5.381   6.317  10.997 -0.5471  0.4402  0.6509
  575MOL0     C77496   5.265   6.400  11.003 -0.6441 -0.2210  0.0755
  575MOL0     C77497   5.182   6.403  10.897 -0.3745 -0.1498  0.2683
  575MOL0     O77498   5.059   6.460  10.900  0.4992 -0.3729  0.0266
  575MOL0     C77499   5.058   6.592  10.958 -0.6012 -0.5081  1.1918
  575MOL0     C77500   5.075   6.696  10.844  0.4899  0.2376  0.5127
  575MOL0     C77501   4.959   6.707  10.748  0.3059 -0.2104 -0.3816
  575MOL0     C77502   4.985   6.820  10.654 -0.2072 -0.2087 -0.8715
  575MOL0     C77503   5.125   6.824  10.575 -0.6603 -0.3731 -0.6793
  575MOL0     C77504   5.137   6.695  10.490 -0.1641  0.1203  0.1087
  575MOL0     C77505   5.031   6.696  10.379 -0.1015  0.2985  0.7848
  575MOL0     C77506   5.104   6.754  10.254 -0.0366 -0.1532  0.3755
  575MOL0     N77507   5.154   6.898  10.244  0.5349  0.1497 -0.8587
  575MOL0     C77508   5.282   6.912  10.275 -0.7169 -0.6833  0.4265
  575MOL0     C77509   5.297   7.034  10.233  0.8265 -0.0736  0.5031
  575MOL0     C77510   5.425   7.110  10.232 -0.3867  0.1052 -0.0871
  575MOL0     C77511   5.496   7.068  10.104 -0.0193 -0.4002  0.1945
  575MOL0     C77512   5.644   7.118  10.100  0.8072  0.5642 -0.0300
  575MOL0     C77513   5.661   7.269  10.108 -0.7890 -0.6600  0.2973
  575MOL0     O77514   5.552   7.342  10.036 -0.2807 -0.3005 -0.4906
  575MOL0     C77515   5.554   7.342   9.904 -0.2573  0.3720  0.3345
  575MOL0     C77516   5.674   7.347   9.823 -0.1280  0.0751  0.3771
  575MOL0     C77517   5.675   7.373   9.688 -0.7095  0.1219  0.9008
  575MOL0     C77518   5.804   7.393   9.613  0.5471  0.5807  0.4441
  575MOL0     C77519   5.548   7.387   9.623 -0.2000 -1.1524  1.4167
  575MOL0     C77520   5.530   7.410   9.474 -0.0298 -0.2585  0.1605
  575MOL0     O77521   5.408   7.444   9.427 -0.4939 -0.6781  0.3292
  575MOL0     C77522   5.365   7.406   9.302  1.1996 -0.2734 -0.8708
  575MOL0     C77523   5.357   7.514   9.211  0.2145  0.2099  0.6949
  575MOL0     C77524   5.290   7.501   9.092  0.0793 -0.3560 -0.1270
  575MOL0     C77525   5.243   7.374   9.054 -0.6246 -0.1882  0.4861
  575MOL0     O77526   5.182   7.368   8.934 -0.1383  0.1939  0.4019
  575MOL0     C77527   5.138   7.239   8.876  0.0064  0.4708  0.0702
  575MOL0     C77528   5.083   7.271   8.748  0.3782 -0.2875  0.0912
  575MOL0     C77529   4.942   7.339   8.773 -0.0956  0.8190 -0.2831
  575MOL0     C77530   4.866   7.379   8.643 -0.5660 -0.9717 -0.6298
  575MOL0     C77531   4.736   7.452   8.670 -0.1465  0.0451  0.6968
  575MOL0     C77532   4.757   7.601   8.698  0.1778  0.1389 -0.2071
  575MOL0     C77533   4.627   7.673   8.723  0.5743  0.0364 -0.1934
  575MOL0     C77534   4.569   7.666   8.870  0.1549  0.5528 -0.0576
  575MOL0    Cl77535   4.485   7.511   8.891 -0.3777  0.1848 -0.1076
  575MOL0     C77536   5.244   7.264   9.147 -0.6166 -0.0556  0.5752
  575MOL0     C77537   5.296   7.288   9.273  0.6802  0.2489 -0.7578
  575MOL0     O77538   5.628   7.400   9.407 -0.2676  0.6464 -0.7057
  575MOL0     C77539   5.433   7.379   9.695  0.3452  0.1192  0.2523
  575MOL0     C77540   5.431   7.353   9.834 -0.0803 -0.2124 -1.8935
  575MOL0     N77541   5.182   7.086  10.161 -0.4597 -0.3408  0.1865
  575MOL0     N77542   5.091   6.998  10.177 -0.2747 -0.2948 -0.3288
  575MOL0     C77543   5.209   6.319  10.789  0.0773 -0.4283 -0.2434
  575MOL0     C77544   5.317   6.233  10.783 -0.1572  0.3048  0.3175
  575MOL0     C77545   5.695   6.023  10.977 -0.3451 -0.6085 -0.0676
  575MOL0     C77546   5.779   6.081  10.885 -0.8968 -1.1329  0.6387
  575MOL0     C77547   5.909   6.044  10.866 -0.3242 -0.5553  0.8207
  575MOL0     C77548   5.962   5.940  10.934 -0.9153 -0.5533 -0.4356
  575MOL0     O77549   6.097   5.899  10.914 -0.0740  0.6446 -0.8336
  575MOL0     C77550   6.152   5.913  10.780 -0.2602 -0.7918 -0.7194
  575MOL0     C77551   6.261   6.029  10.787  0.4387  0.6476  0.0305
  575MOL0     C77552   6.301   6.067  10.645 -0.9102  0.3706 -0.1272
  575MOL0     C77553   6.441   6.129  10.616 -0.5036 -0.4715 -0.0999
  575MOL0     C77554   6.537   6.040  10.679 -1.0343 -0.0951  0.5512
  575MOL0     C77555   6.629   5.958  10.712  0.3781 -0.6591 -0.5438
  575MOL0     C77556   5.884   5.875  11.031 -0.7508 -1.0107 -0.0143
  575MOL0     C77557   5.752   5.923  11.053  0.9659  0.6890 -0.8140
  575MOL0     H77558   5.453   6.315  11.078 -0.1021  1.4823  0.3058
  575MOL0     H77559   5.244   6.437  11.103  1.2418  3.4058 -0.7010
  575MOL0     H77560   4.960   6.603  11.006 -1.8347 -1.8235 -0.8445
  575MOL0     H77561   5.130   6.591  11.040  0.4461 -5.8141  0.5275
  575MOL0     H77562   5.086   6.794  10.891 -0.9036 -0.7407  3.0359
  575MOL0     H77563   5.174   6.674  10.802  0.7042 -0.7126  1.4828
  575MOL0     H77564   4.935   6.612  10.700 -1.0234  0.0021 -0.1820
  575MOL0     H77565   4.867   6.725  10.805  0.4975  0.1359 -0.1783
  575MOL0     H77566   4.899   6.817  10.585  0.8499  1.1970 -2.3183
  575MOL0     H77567   4.965   6.917  10.700  2.9351  1.0864 -1.9405
  575MOL0     H77568   5.149   6.907  10.508  1.9592  0.4108  1.0652
  575MOL0     H77569   5.191   6.831  10.662 -0.4890 -2.2872 -0.5945
  575MOL0     H77570   5.237   6.685  10.448 -0.3580 -0.2653 -0.2605
  575MOL0     H77571   5.128   6.610  10.559  1.3155 -0.2802 -0.1602
  575MOL0     H77572   4.994   6.594  10.372 -0.6680  0.5377  0.2207
  575MOL0     H77573   4.942   6.754  10.402 -1.9024 -2.6092  1.6617
  575MOL0     H77574   5.031   6.739  10.174  0.3643  0.9724 -0.2318
  575MOL0     H77575   5.189   6.688  10.235 -0.9993 -1.3994  0.2838
  575MOL0     H77576   5.357   6.841  10.308  0.5494 -0.5535 -1.9397
  575MOL0     H77577   5.401   7.216  10.242 -1.8624 -0.4031  4.0853
  575MOL0     H77578   5.481   7.076  10.319 -1.6170 -0.6444  0.4406
  575MOL0     H77579   5.441   7.107  10.018  1.8065  2.9984  0.3448
  575MOL0     H77580   5.493   6.959  10.098 -3.9359 -0.3463 -1.9458
  575MOL0     H77581   5.680   7.093  10.000  0.3478 -0.3251  0.0151
  575MOL0     H77582   5.704   7.071  10.179 -0.2800  0.0116  0.4951
  575MOL0     H77583   5.762   7.311  10.098 -1.8940  1.6467 -2.6435
  575MOL0     H77584   5.637   7.297  10.212 -1.9072  0.0888 -0.1382
  575MOL0     H77585   5.771   7.341   9.872 -0.4864  0.6344  1.1636
  575MOL0     H77586   5.805   7.477   9.543 -2.2741 -1.4206 -2.2804
  575MOL0     H77587   5.883   7.403   9.689  2.0987  0.6170 -1.1118
  575MOL0     H77588   5.820   7.304   9.551 -2.1575  1.5208 -1.7764
  575MOL0     H77589   5.412   7.604   9.239 -2.4303  1.6175  1.7586
  575MOL0     H77590   5.277   7.583   9.022 -2.1878 -0.9059 -0.4550
  575MOL0     H77591   5.223   7.171   8.863 -0.9720 -0.6069 -0.9326
  575MOL0     H77592   5.061   7.188   8.935 -0.9151  1.7514  0.0136
  575MOL0     H77593   5.154   7.322   8.682  0.8499 -1.9550 -0.7426
  575MOL0     H77594   5.079   7.174   8.698 -0.6326 -0.9365  1.3583
  575MOL0     H77595   4.940   7.429   8.834 -3.0895 -0.6349  2.0415
  575MOL0     H77596   4.891   7.260   8.829  1.6942  1.5734  2.6096
  575MOL0     H77597   4.935   7.445   8.590 -1.0367  0.1770  0.1543
  575MOL0     H77598   4.839   7.296   8.576 -4.3064 -2.2730  2.1776
  575MOL0     H77599   4.688   7.395   8.750  0.9810 -0.6419  0.9019
  575MOL0     H77600   4.669   7.450   8.584  4.3994  2.1776 -3.4329
  575MOL0     H77601   4.825   7.608   8.784 -3.3551 -1.0446  2.9144
  575MOL0     H77602   4.804   7.643   8.608 -1.1619 -0.4732 -1.2146
  575MOL0     H77603   4.555   7.646   8.645 -1.1275 -0.0147  1.3390
  575MOL0     H77604   4.645   7.780   8.712 -0.0125  0.1406 -0.1527
  575MOL0     H77605   4.491   7.741   8.887 -0.0771  0.6311 -1.3427
  575MOL0     H77606   4.654   7.669   8.939  0.8634 -3.3784 -0.5355
  575MOL0     H77607   5.197   7.172   9.113 -0.6419  0.4649 -0.8696
  575MOL0     H77608   5.295   7.208   9.346  1.4216  0.8753 -0.0373
  575MOL0     H77609   5.337   7.403   9.650  0.6067 -1.3676 -1.2189
  575MOL0     H77610   5.341   7.365   9.893 -0.8848 -1.5824 -2.8072
  575MOL0     H77611   5.127   6.305  10.719 -2.4738  2.8538  1.8015
  575MOL0     H77612   5.339   6.159  10.707 -1.0161 -0.4055  0.7419
  575MOL0     H77613   5.745   6.162  10.821  2.1907  1.8583  2.4582
  575MOL0     H77614   5.964   6.099  10.790 -1.5676 -1.7825 -1.0342
  575MOL0     H77615   6.217   5.829  10.752  3.3004  2.0140 -1.6373
  575MOL0     H77616   6.072   5.929  10.708 -0.9575 -2.8951 -0.4688
  575MOL0     H77617   6.339   6.006  10.860 -2.6442  0.6257  3.6757
  575MOL0     H77618   6.218   6.113  10.841 -1.4174 -0.3836  0.2542
  575MOL0     H77619   6.222   6.132  10.604 -0.5137  0.5561 -0.6050
  575MOL0     H77620   6.312   5.966  10.607 -0.2663  0.2678  0.3119
  575MOL0     H77621   6.436   6.226  10.665 -0.6682  0.5886 -2.1351
  575MOL0     H77622   6.459   6.136  10.508  2.6311 -0.4255  0.3200
  575MOL0     H77623   6.707   5.891  10.742  1.1286  0.6397  0.5514
  575MOL0     H77624   5.916   5.793  11.094 -0.3459 -0.4939  0.4618
  575MOL0     H77625   5.688   5.878  11.129  0.9701  0.4760 -0.9356
  576MOL0     O77626  11.234   3.819   4.858 -0.5245  0.1044 -0.5401
  576MOL0     C77627  11.309   3.728   4.862 -0.1753  0.3578 -0.2593
  576MOL0     O77628  11.387   3.694   4.757 -0.1661 -0.7540 -0.9057
  576MOL0     C77629  11.358   3.742   4.634 -0.8931  0.2471 -0.1153
  576MOL0     C77630  11.261   3.687   4.551 -0.1866 -0.9516  0.4480
  576MOL0     C77631  11.246   3.726   4.419  0.2909  0.1727 -0.4645
  576MOL0     C77632  11.328   3.822   4.358 -0.0880  0.0865  0.3250
  576MOL0     O77633  11.317   3.860   4.230  0.1012  0.0844 -1.3034
  576MOL0     C77634  11.326   3.753   4.136 -0.5185 -0.7619 -0.1731
  576MOL0     C77635  11.385   3.810   4.001 -0.2775  0.1666  0.3303
  576MOL0     C77636  11.430   3.703   3.906 -1.4579  0.6443 -0.2273
  576MOL0     C77637  11.472   3.763   3.767 -0.2013 -0.0650  0.5385
  576MOL0     C77638  11.504   3.639   3.694 -0.1895  0.7005  0.9830
  576MOL0     C77639  11.388   3.561   3.625  0.2042  0.0270  0.1963
  576MOL0     C77640  11.418   3.425   3.556  0.3284  0.1643  0.2059
  576MOL0     C77641  11.510   3.437   3.423  0.4713  0.0445  0.0365
  576MOL0     N77642  11.457   3.533   3.334 -0.4121  0.3795 -0.1981
  576MOL0     C77643  11.343   3.514   3.248  0.3002  0.4896  0.3866
  576MOL0     C77644  11.298   3.629   3.216 -0.9962 -0.1984 -0.5832
  576MOL0     C77645  11.165   3.679   3.165 -0.5671 -0.3809  1.0694
  576MOL0     C77646  11.106   3.583   3.061 -0.7644  0.2088  0.4805
  576MOL0     C77647  10.959   3.582   3.067  1.0519  1.1628  0.9018
  576MOL0     C77648  10.901   3.474   2.967 -0.1700 -0.5975  0.5590
  576MOL0     O77649  10.950   3.498   2.838  0.0157 -0.0596  0.1269
  576MOL0     C77650  10.941   3.410   2.735  0.2678  0.2252  0.4195
  576MOL0     C77651  10.887   3.285   2.732  0.1573  0.1928  0.3986
  576MOL0     C77652  10.892   3.206   2.620  0.5925 -0.3331 -0.1533
  576MOL0     C77653  10.839   3.072   2.623  0.0920  0.1281  0.7125
  576MOL0     C77654  10.927   3.262   2.494 -0.2242 -0.5522 -0.2147
  576MOL0     C77655  10.901   3.213   2.355 -0.9506  0.1099 -0.2455
  576MOL0     O77656  10.801   3.127   2.344  0.5707  0.5423  0.2474
  576MOL0     C77657  10.787   3.034   2.237 -0.4453 -0.0186  0.7169
  576MOL0     C77658  10.817   3.066   2.107 -0.5011  0.3290 -0.6570
  576MOL0     C77659  10.818   2.960   2.013  0.0262 -0.6756  0.2034
  576MOL0     C77660  10.766   2.833   2.052 -0.2874  0.9956 -0.5213
  576MOL0     O77661  10.780   2.717   1.987 -0.1221  1.2140 -0.4879
  576MOL0     C77662  10.790   2.720   1.846  0.4909  0.2794 -0.7412
  576MOL0     C77663  10.792   2.586   1.775 -0.9904 -0.1717  0.0324
  576MOL0     C77664  10.786   2.605   1.624  1.0782 -0.3953  0.1836
  576MOL0     C77665  10.783   2.470   1.547  0.7418  0.7857 -0.0665
  576MOL0     C77666  10.698   2.483   1.412 -0.0044 -0.3248  0.1175
  576MOL0     C77667  10.777   2.551   1.295 -0.5257 -0.4875 -0.4613
  576MOL0     C77668  10.721   2.577   1.161 -1.0740 -0.8076 -0.0321
  576MOL0     C77669  10.631   2.469   1.103  0.3474  0.9282  0.5539
  576MOL0    Cl77670  10.576   2.529   0.956  0.2405 -0.2310 -0.0078
  576MOL0     C77671  10.715   2.811   2.180 -0.2856 -1.4012 -0.1622
  576MOL0     C77672  10.737   2.914   2.267  0.5177 -0.3160  0.2936
  576MOL0     O77673  10.978   3.239   2.268 -0.1626 -0.6709  0.2613
  576MOL0     C77674  11.005   3.371   2.505  0.7494 -1.5957 -0.2652
  576MOL0     C77675  11.004   3.455   2.620  0.0207  0.2588 -0.2748
  576MOL0     N77676  11.394   3.715   3.263 -0.0180  0.1293 -0.1894
  576MOL0     N77677  11.481   3.660   3.337 -0.0765 -0.5757  0.4019
  576MOL0     C77678  11.423   3.884   4.437  0.1723 -1.0914 -0.6507
  576MOL0     C77679  11.438   3.855   4.574 -1.5456  0.4371  0.4171
  576MOL0     C77680  11.331   3.677   4.998  0.1657  0.4426  1.1265
  576MOL0     C77681  11.368   3.546   5.019  0.2334  0.8001 -0.0838
  576MOL0     C77682  11.375   3.503   5.158  0.2033 -0.2815 -0.5505
  576MOL0     C77683  11.342   3.589   5.263  0.6489  0.4157 -0.1440
  576MOL0     O77684  11.368   3.536   5.389 -0.1735  0.0071  0.2646
  576MOL0     C77685  11.384   3.636   5.495 -0.0238 -0.3328  0.2106
  576MOL0     C77686  11.505   3.728   5.479 -0.4673 -0.0651  0.2024
  576MOL0     C77687  11.642   3.657   5.447  1.0514  0.2432  0.1588
  576MOL0     C77688  11.665   3.624   5.297 -0.1531  0.3560 -0.3734
  576MOL0     C77689  11.669   3.740   5.205  0.2305  0.8044  0.2187
  576MOL0     C77690  11.676   3.842   5.138 -0.7517  0.4112  0.0200
  576MOL0     C77691  11.304   3.716   5.237  0.0233  0.0242 -0.0201
  576MOL0     C77692  11.293   3.756   5.108  0.5790  0.2327  0.3241
  576MOL0     H77693  11.201   3.606   4.591 -1.2186 -0.3494  0.1482
  576MOL0     H77694  11.166   3.684   4.359  0.1972 -0.3315  0.0028
  576MOL0     H77695  11.388   3.672   4.173 -1.1592 -0.2312  2.2775
  576MOL0     H77696  11.222   3.720   4.130 -1.5900  2.1409  0.5081
  576MOL0     H77697  11.308   3.875   3.957 -1.2038 -1.7317 -1.0013
  576MOL0     H77698  11.472   3.871   4.024 -1.3028  2.1041 -0.6780
  576MOL0     H77699  11.506   3.637   3.949 -2.1283  0.2376  0.3357
  576MOL0     H77700  11.349   3.630   3.896 -0.3630 -1.1089  2.5172
  576MOL0     H77701  11.387   3.817   3.724 -0.6487  0.5568  2.1387
  576MOL0     H77702  11.557   3.830   3.779  1.2770 -1.9028  0.6806
  576MOL0     H77703  11.566   3.680   3.614 -3.2078  1.3854 -1.1711
  576MOL0     H77704  11.556   3.564   3.755 -2.9059 -2.0421  0.2211
  576MOL0     H77705  11.309   3.543   3.697 -0.0900  0.7194  0.0553
  576MOL0     H77706  11.335   3.632   3.561 -2.0565  0.5379  2.5007
  576MOL0     H77707  11.471   3.356   3.622  0.2329 -1.4772 -1.3636
  576MOL0     H77708  11.328   3.368   3.534  0.6393 -1.0071  1.8170
  576MOL0     H77709  11.512   3.341   3.372  0.9418 -0.6480  1.3183
  576MOL0     H77710  11.614   3.465   3.446  0.2925 -1.5060  3.3723
  576MOL0     H77711  11.294   3.418   3.238  2.5812 -0.5260 -2.6366
  576MOL0     H77712  11.097   3.697   3.249 -2.4502  4.9900 -1.1374
  576MOL0     H77713  11.184   3.774   3.114  0.8614 -1.8434 -1.2740
  576MOL0     H77714  11.138   3.479   3.071 -1.2585  0.0475  0.4044
  576MOL0     H77715  11.144   3.612   2.963 -3.1928 -0.2434 -0.6872
  576MOL0     H77716  10.902   3.675   3.060 -1.6403 -0.4856 -1.1815
  576MOL0     H77717  10.920   3.547   3.163 -1.3512 -2.2976 -1.1252
  576MOL0     H77718  10.792   3.476   2.955 -0.1090 -0.2854  0.0095
  576MOL0     H77719  10.936   3.375   2.996  1.8906 -0.1000 -0.0608
  576MOL0     H77720  10.851   3.242   2.825 -0.2865  0.0868  0.1819
  576MOL0     H77721  10.745   3.063   2.568  0.8501 -0.2890 -0.5827
  576MOL0     H77722  10.916   3.007   2.581  2.5801  1.9327  2.1818
  576MOL0     H77723  10.828   3.039   2.726 -1.7996 -0.5671  0.3301
  576MOL0     H77724  10.859   3.162   2.077 -0.8342  0.0992 -1.9381
  576MOL0     H77725  10.868   2.973   1.918  2.2116  2.9516  1.6360
  576MOL0     H77726  10.705   2.781   1.817  1.6974  3.9651  2.5189
  576MOL0     H77727  10.881   2.774   1.817  2.1520  1.5139  5.2589
  576MOL0     H77728  10.891   2.539   1.782 -0.7112  0.2241 -1.1293
  576MOL0     H77729  10.715   2.518   1.813  0.2999 -1.9097 -0.3225
  576MOL0     H77730  10.864   2.672   1.587  0.6925  0.1319  0.3168
  576MOL0     H77731  10.697   2.667   1.608  0.4262 -0.0487  4.0988
  576MOL0     H77732  10.887   2.440   1.530  0.8762  1.4839 -0.5289
  576MOL0     H77733  10.747   2.391   1.613  0.8750 -0.6592 -1.6710
  576MOL0     H77734  10.601   2.530   1.432 -0.0545 -0.1148 -0.6051
  576MOL0     H77735  10.687   2.377   1.388  2.3609 -0.1610 -2.0719
  576MOL0     H77736  10.800   2.649   1.338  0.4467 -0.8678 -0.0778
  576MOL0     H77737  10.871   2.505   1.262  1.2339  3.8240 -2.2899
  576MOL0     H77738  10.801   2.588   1.087 -1.2883  0.1835 -0.1393
  576MOL0     H77739  10.661   2.668   1.177  0.3677 -0.0169  1.0401
  576MOL0     H77740  10.550   2.451   1.175  1.0234  1.5771  1.4857
  576MOL0     H77741  10.686   2.376   1.088  0.3666  1.2877 -2.2429
  576MOL0     H77742  10.689   2.708   2.201 -3.4986 -0.6247  0.1161
  576MOL0     H77743  10.717   2.904   2.373  1.0612  1.9685  0.6805
  576MOL0     H77744  11.052   3.415   2.417 -1.2138  2.4311  0.4303
  576MOL0     H77745  11.066   3.543   2.619 -1.4076  1.2886 -1.0053
  576MOL0     H77746  11.479   3.964   4.390 -0.7002  0.1877  0.3876
  576MOL0     H77747  11.514   3.914   4.624 -1.5231  0.5626  0.2371
  576MOL0     H77748  11.400   3.479   4.939  0.7756  1.3730 -0.3450
  576MOL0     H77749  11.393   3.401   5.188  0.7671 -0.8966 -2.7855
  576MOL0     H77750  11.297   3.702   5.505  2.6257  3.3369  1.3705
  576MOL0     H77751  11.400   3.581   5.589  3.4135 -2.2794 -1.3299
  576MOL0     H77752  11.511   3.780   5.575 -0.1940  0.7434 -0.2416
  576MOL0     H77753  11.489   3.809   5.406 -2.0181 -1.2281 -0.8225
  576MOL0     H77754  11.655   3.570   5.513  0.3593  1.4488  1.9679
  576MOL0     H77755  11.707   3.739   5.479  1.6432  0.7481 -2.1649
  576MOL0     H77756  11.605   3.541   5.260  0.0139 -0.9314  2.0256
  576MOL0     H77757  11.763   3.577   5.299 -0.7791 -1.2733  3.9446
  576MOL0     H77758  11.696   3.925   5.074 -0.6246 -0.2566 -0.8141
  576MOL0     H77759  11.294   3.788   5.318 -0.7929 -1.3982  1.2056
  576MOL0     H77760  11.278   3.864   5.100  2.7079  0.6472  1.1970
  577MOL0     O77761   2.544   5.109   4.468  0.8857  0.4333  0.0306
  577MOL0     C77762   2.427   5.074   4.470  0.4443  0.2933 -0.7697
  577MOL0     O77763   2.370   4.979   4.387  0.4818  0.3323 -0.2150
  577MOL0     C77764   2.434   4.904   4.290  0.4666  0.2434  0.4578
  577MOL0     C77765   2.368   4.864   4.177 -0.3375  0.6706 -0.6999
  577MOL0     C77766   2.425   4.786   4.078 -0.6052 -0.9780 -0.0036
  577MOL0     C77767   2.557   4.748   4.089 -0.3067 -0.0756 -0.7099
  577MOL0     O77768   2.617   4.672   3.988 -0.1356 -0.4827  0.6147
  577MOL0     C77769   2.596   4.706   3.847  1.1315 -0.7526 -0.0825
  577MOL0     C77770   2.568   4.583   3.760 -0.8575 -0.0844  0.2015
  577MOL0     C77771   2.683   4.477   3.749 -0.3295 -1.5773 -1.0001
  577MOL0     C77772   2.643   4.338   3.764  1.2443 -0.5066 -0.3272
  577MOL0     C77773   2.560   4.273   3.654 -0.4440 -0.2091 -0.0247
  577MOL0     C77774   2.537   4.122   3.686  0.0347 -0.2092  0.0969
  577MOL0     C77775   2.452   4.057   3.577 -0.5145  0.2995 -0.1520
  577MOL0     C77776   2.437   3.904   3.597  0.4199  0.0730 -0.0337
  577MOL0     N77777   2.303   3.866   3.550 -0.8390  0.2707 -0.0571
  577MOL0     C77778   2.178   3.922   3.583 -0.5757  0.5895  0.1731
  577MOL0     C77779   2.086   3.853   3.511 -0.4355  0.0127 -0.4626
  577MOL0     C77780   1.951   3.906   3.494  0.1636 -0.8262  0.2494
  577MOL0     C77781   1.857   3.806   3.562 -0.3527  0.5136 -0.4781
  577MOL0     C77782   1.870   3.776   3.712  0.7758  0.1289 -0.4427
  577MOL0     C77783   1.835   3.918   3.784  0.1112 -0.2156  0.5620
  577MOL0     O77784   1.813   3.908   3.924  0.5351  0.2358  0.2442
  577MOL0     C77785   1.922   3.901   4.007 -0.5355 -0.3650  0.3562
  577MOL0     C77786   2.057   3.901   3.973  0.3820 -0.0014 -0.3156
  577MOL0     C77787   2.163   3.889   4.067 -0.0574 -0.0902  0.9171
  577MOL0     C77788   2.305   3.909   4.017  0.3598  0.7963  0.2241
  577MOL0     C77789   2.133   3.878   4.205 -1.0117 -0.6339 -0.6508
  577MOL0     C77790   2.236   3.881   4.314 -0.3519  0.5485 -0.0895
  577MOL0     O77791   2.182   3.849   4.439  0.2550  0.3680 -0.1699
  577MOL0     C77792   2.260   3.817   4.548 -0.3704 -0.3347 -0.6492
  577MOL0     C77793   2.368   3.720   4.550  0.4717 -0.8550  0.2223
  577MOL0     C77794   2.439   3.698   4.667 -0.4789 -0.1658  0.4084
  577MOL0     C77795   2.411   3.769   4.785  0.2442  0.3859  0.0283
  577MOL0     O77796   2.484   3.754   4.905 -0.1637  0.4608 -0.4740
  577MOL0     C77797   2.635   3.735   4.912 -0.3030  1.0070 -0.0129
  577MOL0     C77798   2.703   3.744   5.044  0.7227 -0.0043  0.6031
  577MOL0     C77799   2.670   3.873   5.104  0.4707 -0.4504 -0.7439
  577MOL0     C77800   2.539   3.881   5.182 -0.6893  0.0441 -0.4529
  577MOL0     C77801   2.484   4.026   5.186  0.6022 -1.0904  0.6581
  577MOL0     C77802   2.582   4.123   5.263  0.2909 -0.3280  0.0598
  577MOL0     C77803   2.523   4.262   5.289 -0.0666  0.3331 -0.2494
  577MOL0     C77804   2.605   4.344   5.391 -0.3101  0.4839  0.4211
  577MOL0    Cl77805   2.507   4.469   5.457  0.2815 -0.0869  0.2512
  577MOL0     C77806   2.309   3.863   4.782  0.5355 -0.2059 -0.1923
  577MOL0     C77807   2.230   3.885   4.669 -0.9675 -0.4842  0.1048
  577MOL0     O77808   2.353   3.905   4.292  0.7681 -0.1177 -0.7125
  577MOL0     C77809   2.003   3.862   4.239 -0.4159  0.4867 -0.0598
  577MOL0     C77810   1.899   3.873   4.143 -0.0387  0.3217  0.7625
  577MOL0     N77811   2.153   3.753   3.441 -0.3457  0.3939 -0.3680
  577MOL0     N77812   2.283   3.758   3.461 -0.4423  0.1177 -0.2357
  577MOL0     C77813   2.614   4.770   4.207 -0.6728  0.0289  0.1647
  577MOL0     C77814   2.556   4.846   4.315  0.3217  0.7543  0.4070
  577MOL0     C77815   2.347   5.150   4.561  0.2531  0.4679 -0.7371
  577MOL0     C77816   2.217   5.109   4.571  0.2147 -0.1836  0.2085
  577MOL0     C77817   2.129   5.172   4.656  0.0031 -1.0455 -0.4751
  577MOL0     C77818   2.170   5.274   4.748 -0.2099 -0.8736 -0.0234
  577MOL0     O77819   2.079   5.323   4.836  0.4738  0.0929  0.7050
  577MOL0     C77820   2.108   5.399   4.948  0.1531  0.6475  0.1064
  577MOL0     C77821   2.102   5.551   4.912 -0.2214 -0.2019  0.6546
  577MOL0     C77822   2.038   5.615   5.039 -1.1721  0.3833  0.5898
  577MOL0     C77823   2.021   5.761   5.033 -0.2683 -0.0516 -0.6802
  577MOL0     C77824   1.920   5.805   4.939 -0.3445  0.6177 -1.1085
  577MOL0     C77825   1.832   5.837   4.859 -0.4894 -0.6303  0.2309
  577MOL0     C77826   2.306   5.308   4.744 -0.0713 -0.3929 -0.8124
  577MOL0     C77827   2.394   5.253   4.652 -0.2997  0.8142  0.5143
  577MOL0     H77828   2.265   4.891   4.156 -2.3081 -4.0377  1.4239
  577MOL0     H77829   2.368   4.761   3.989 -0.8301 -3.8894  0.8372
  577MOL0     H77830   2.522   4.785   3.828  1.4599  0.3465  2.7266
  577MOL0     H77831   2.684   4.754   3.802  0.5889  0.9111  0.5540
  577MOL0     H77832   2.481   4.530   3.800 -0.0134 -1.7861 -0.0994
  577MOL0     H77833   2.555   4.613   3.656 -0.7332 -0.8118 -0.0323
  577MOL0     H77834   2.729   4.494   3.652 -0.6705  1.0365 -0.7950
  577MOL0     H77835   2.756   4.509   3.824  1.8285 -1.7308 -2.9396
  577MOL0     H77836   2.738   4.285   3.773  1.9337  0.2723 -2.3989
  577MOL0     H77837   2.587   4.318   3.856  0.0316  1.6051 -0.5504
  577MOL0     H77838   2.463   4.323   3.647  0.6861  2.2092  0.6301
  577MOL0     H77839   2.617   4.285   3.562 -1.0074 -1.2658 -0.5274
  577MOL0     H77840   2.631   4.067   3.694  0.5027  0.6886  1.0746
  577MOL0     H77841   2.478   4.111   3.778 -1.7206  0.5092 -0.8976
  577MOL0     H77842   2.356   4.110   3.566 -1.1644 -0.3877  1.8111
  577MOL0     H77843   2.507   4.063   3.483 -2.1067 -1.4777 -1.2853
  577MOL0     H77844   2.448   3.870   3.700  0.1464  1.7153  0.5691
  577MOL0     H77845   2.509   3.851   3.533 -1.2643 -1.3473 -0.8214
  577MOL0     H77846   2.161   4.016   3.635  1.3320 -0.2340  2.4813
  577MOL0     H77847   1.929   4.002   3.541 -2.6427 -1.0973 -0.3280
  577MOL0     H77848   1.931   3.933   3.390  0.8765  1.3105  0.6287
  577MOL0     H77849   1.872   3.712   3.506 -0.4192  1.1426 -1.5785
  577MOL0     H77850   1.752   3.828   3.543 -0.8742  0.6419  2.1599
  577MOL0     H77851   1.969   3.735   3.732 -0.5593 -3.1631 -0.0853
  577MOL0     H77852   1.796   3.700   3.738 -1.8362  3.4412  2.9460
  577MOL0     H77853   1.742   3.961   3.747  0.8076  0.7574 -0.1273
  577MOL0     H77854   1.920   3.985   3.766  0.8477 -1.0384  0.9076
  577MOL0     H77855   2.085   3.909   3.868  1.7317  0.2986  0.0435
  577MOL0     H77856   2.362   3.829   4.065 -0.6862  0.0445  0.2439
  577MOL0     H77857   2.326   3.921   3.910  2.1387  3.5234  0.7858
  577MOL0     H77858   2.336   4.004   4.061  1.3254  1.0359 -0.8959
  577MOL0     H77859   2.401   3.663   4.464  0.7797 -0.4048  0.0366
  577MOL0     H77860   2.502   3.610   4.671 -1.9454 -1.2187  1.4162
  577MOL0     H77861   2.665   3.636   4.876  2.8501  0.6927  2.8920
  577MOL0     H77862   2.685   3.806   4.846  1.6732 -1.3827 -1.2255
  577MOL0     H77863   2.672   3.658   5.105 -2.1813  1.3988  1.3133
  577MOL0     H77864   2.810   3.753   5.026  0.1227  2.4389 -2.6480
  577MOL0     H77865   2.665   3.943   5.021  0.4451 -2.8693 -2.9153
  577MOL0     H77866   2.758   3.906   5.160  0.6438 -3.6078  1.1014
  577MOL0     H77867   2.454   3.827   5.140  0.4652 -0.8580 -1.6891
  577MOL0     H77868   2.554   3.841   5.283 -3.2349 -2.8230 -1.0624
  577MOL0     H77869   2.382   4.029   5.225 -0.1608  0.5064 -1.2402
  577MOL0     H77870   2.477   4.059   5.082  1.0638  2.5000  1.6083
  577MOL0     H77871   2.600   4.069   5.357  2.1317 -2.3804 -1.3839
  577MOL0     H77872   2.679   4.134   5.214  1.1224 -4.4356  0.4417
  577MOL0     H77873   2.418   4.238   5.307  0.4482 -1.3323  0.7495
  577MOL0     H77874   2.534   4.318   5.195  2.6432 -0.1804 -0.3107
  577MOL0     H77875   2.698   4.381   5.346 -0.0545  0.9388  1.2990
  577MOL0     H77876   2.631   4.283   5.478  3.1163  0.1346 -0.6959
  577MOL0     H77877   2.284   3.930   4.864  0.4348  0.6728 -0.9298
  577MOL0     H77878   2.144   3.952   4.668  0.1186  0.9821  0.7368
  577MOL0     H77879   1.966   3.848   4.340 -0.9428 -2.7486 -0.5830
  577MOL0     H77880   1.797   3.887   4.177 -0.1419 -3.9643  2.9779
  577MOL0     H77881   2.711   4.731   4.235 -0.9379 -0.9388 -0.2416
  577MOL0     H77882   2.608   4.860   4.409 -1.6430 -1.3433  1.9078
  577MOL0     H77883   2.178   5.029   4.510  0.3198 -0.2668  0.2523
  577MOL0     H77884   2.024   5.145   4.655  0.1641 -1.6791 -1.9150
  577MOL0     H77885   2.032   5.368   5.020  0.5718 -0.1257  0.2262
  577MOL0     H77886   2.207   5.374   4.987  0.3818  2.2016  0.5846
  577MOL0     H77887   2.033   5.570   4.829  0.2863 -0.3704  0.1884
  577MOL0     H77888   2.194   5.598   4.878 -0.8580  0.0589 -0.8035
  577MOL0     H77889   2.097   5.590   5.128 -1.2712 -2.1138  0.0280
  577MOL0     H77890   1.938   5.571   5.043 -0.4228 -1.5524 -0.8237
  577MOL0     H77891   2.117   5.808   5.012 -1.4402  2.1708 -1.3586
  577MOL0     H77892   1.981   5.782   5.132  1.0572  1.0946 -0.3483
  577MOL0     H77893   1.753   5.868   4.794  0.8081 -1.4316 -1.8093
  577MOL0     H77894   2.340   5.383   4.815 -0.2621 -0.5960 -0.5022
  577MOL0     H77895   2.500   5.277   4.651 -0.4587  1.5041 -0.4716
  578MOL0     O77896   0.536   1.078   4.318 -0.4350  0.1394  0.2895
  578MOL0     C77897   0.548   1.192   4.273  0.1660 -0.1797 -0.0855
  578MOL0     O77898   0.619   1.294   4.327 -0.6146 -0.8576 -0.5158
  578MOL0     C77899   0.707   1.270   4.432  0.0611  0.5169 -0.3751
  578MOL0     C77900   0.827   1.201   4.408 -0.2504 -0.7188 -0.3163
  578MOL0     C77901   0.910   1.165   4.504  0.0592  0.1560 -0.0742
  578MOL0     C77902   0.902   1.224   4.634  1.0116  0.3190  0.1356
  578MOL0     O77903   1.001   1.199   4.725 -0.7311 -0.0486  1.0116
  578MOL0     C77904   0.945   1.146   4.846 -0.2245  0.6584  0.3911
  578MOL0     C77905   1.039   1.034   4.888 -0.6587  0.3098  0.0600
  578MOL0     C77906   0.977   0.968   5.013  0.4895  0.0492 -0.1700
  578MOL0     C77907   1.021   1.032   5.147 -0.0950 -0.6899 -0.0515
  578MOL0     C77908   0.960   0.972   5.271  0.0436 -0.3198  0.3959
  578MOL0     C77909   0.803   0.984   5.284  0.6767 -0.0522 -0.8398
  578MOL0     C77910   0.746   0.916   5.411  0.0284  0.3031 -0.7979
  578MOL0     C77911   0.601   0.950   5.435  0.6247  0.9055  1.0640
  578MOL0     N77912   0.561   0.922   5.566  0.8527 -0.3702 -0.9918
  578MOL0     C77913   0.505   0.799   5.612 -0.7210  0.2304  0.4413
  578MOL0     C77914   0.430   0.838   5.717  0.4128  0.2732  0.0336
  578MOL0     C77915   0.358   0.744   5.795  0.5988 -0.1845 -1.0419
  578MOL0     C77916   0.208   0.768   5.787  0.9713  0.4218 -0.0037
  578MOL0     C77917   0.156   0.734   5.646  0.1639  0.4697  0.6999
  578MOL0     C77918  -0.001   0.750   5.625 -0.0393 -0.2331  0.7373
  578MOL0     O77919  -0.075   0.663   5.702 -0.0328 -0.0533 -0.3168
  578MOL0     C77920  -0.207   0.657   5.667  0.6719 -0.2820  0.5611
  578MOL0     C77921  -0.254   0.562   5.574  0.4938  0.3776  0.0824
  578MOL0     C77922  -0.384   0.537   5.545  1.0786 -0.1089 -0.5909
  578MOL0     C77923  -0.412   0.424   5.460 -0.7126 -0.1513  0.4370
  578MOL0     C77924  -0.483   0.608   5.617  0.3589 -0.5499  0.5557
  578MOL0     C77925  -0.627   0.592   5.574 -0.1570  0.1386  0.7651
  578MOL0     O77926  -0.657   0.625   5.448  0.2565  0.1949  0.4455
  578MOL0     C77927  -0.787   0.624   5.402 -0.3446  0.0894  0.7813
  578MOL0     C77928  -0.848   0.506   5.359 -0.3762  0.1373  0.4692
  578MOL0     C77929  -0.983   0.501   5.334  0.6435 -0.9070 -0.5912
  578MOL0     C77930  -1.059   0.616   5.336 -0.5632 -0.1637 -0.2528
  578MOL0     O77931  -1.188   0.607   5.305 -0.6350 -0.1459 -0.1197
  578MOL0     C77932  -1.244   0.721   5.231 -0.4026  0.2750 -0.1074
  578MOL0     C77933  -1.375   0.675   5.155  0.5399 -0.3691  0.1721
  578MOL0     C77934  -1.343   0.553   5.060  0.4839  0.2472  0.3275
  578MOL0     C77935  -1.301   0.612   4.924  0.0678  1.1641  0.3785
  578MOL0     C77936  -1.275   0.506   4.822 -0.2773 -0.3928  0.2119
  578MOL0     C77937  -1.157   0.423   4.867 -1.0478  0.3324 -0.5682
  578MOL0     C77938  -1.128   0.319   4.758 -0.8887 -0.6750  0.2205
  578MOL0     C77939  -0.986   0.264   4.777 -0.1696 -1.6097 -0.9755
  578MOL0    Cl77940  -0.930   0.164   4.660 -0.4814  0.0740 -0.2077
  578MOL0     C77941  -0.997   0.738   5.380 -0.2104  0.3054  0.3519
  578MOL0     C77942  -0.864   0.744   5.412 -0.0115  0.2502  0.1869
  578MOL0     O77943  -0.704   0.533   5.645 -0.5142 -0.6883  0.7147
  578MOL0     C77944  -0.445   0.696   5.722 -0.0613  0.5085  0.1092
  578MOL0     C77945  -0.306   0.726   5.732 -0.4701 -0.4915  0.0298
  578MOL0     N77946   0.462   0.969   5.760  0.6807  0.9731 -0.5841
  578MOL0     N77947   0.530   1.021   5.661 -0.3660 -0.4372 -0.2620
  578MOL0     C77948   0.777   1.287   4.666 -0.1376  0.3645 -0.0792
  578MOL0     C77949   0.679   1.302   4.566  0.1905  0.1831 -0.1385
  578MOL0     C77950   0.463   1.231   4.158  0.5828 -0.6777 -0.1031
  578MOL0     C77951   0.383   1.131   4.090  0.6218 -0.1479  0.5987
  578MOL0     C77952   0.304   1.161   3.981  1.3473  0.2651 -0.8421
  578MOL0     C77953   0.298   1.292   3.938  0.0303  0.9961 -0.6046
  578MOL0     O77954   0.222   1.337   3.831  0.1364 -0.0708  0.3451
  578MOL0     C77955   0.133   1.252   3.759 -0.0367  0.5102 -0.1360
  578MOL0     C77956  -0.004   1.298   3.782 -0.5088 -0.4334  0.0988
  578MOL0     C77957  -0.050   1.240   3.923  0.8109  0.5028  0.4691
  578MOL0     C77958  -0.187   1.299   3.962  0.6417 -0.1485 -0.0614
  578MOL0     C77959  -0.194   1.435   4.017  0.0914 -0.5516 -0.4668
  578MOL0     C77960  -0.213   1.538   4.081 -0.6970  0.1384  0.4144
  578MOL0     C77961   0.382   1.383   3.999  0.5153  0.6744  0.3349
  578MOL0     C77962   0.459   1.356   4.106 -0.4070  0.2294 -0.6403
  578MOL0     H77963   0.848   1.172   4.306  0.1566  0.8002 -0.6812
  578MOL0     H77964   0.998   1.109   4.474 -0.5650 -0.8888 -0.0242
  578MOL0     H77965   0.936   1.221   4.926 -0.6346  1.5732 -0.4888
  578MOL0     H77966   0.850   1.096   4.827 -1.0779  2.2341  0.2684
  578MOL0     H77967   1.040   0.958   4.810  3.8556  1.2503 -1.1088
  578MOL0     H77968   1.139   1.078   4.899 -0.5857  0.5421 -1.3392
  578MOL0     H77969   0.868   0.966   5.005  0.1609  0.5416  2.8468
  578MOL0     H77970   1.001   0.861   5.010 -2.5498 -0.7274 -3.6364
  578MOL0     H77971   1.129   1.013   5.157  0.0989  0.1857 -0.4055
  578MOL0     H77972   1.014   1.141   5.147  2.6075 -0.3701  2.1516
  578MOL0     H77973   0.993   0.868   5.274 -0.0475 -0.3399  0.9501
  578MOL0     H77974   1.021   1.019   5.349  2.7524 -1.1684 -1.0909
  578MOL0     H77975   0.774   1.090   5.292  0.3166 -0.1784 -0.4639
  578MOL0     H77976   0.747   0.952   5.195  0.5822 -0.3083 -0.6868
  578MOL0     H77977   0.765   0.809   5.405  1.1234  0.2919  1.5977
  578MOL0     H77978   0.791   0.956   5.503  0.1459 -0.3479 -0.5714
  578MOL0     H77979   0.536   0.907   5.358 -0.1985  1.4166  1.4673
  578MOL0     H77980   0.578   1.056   5.426 -2.2541  0.1921 -2.0879
  578MOL0     H77981   0.489   0.706   5.558  0.9259  0.2932 -0.2083
  578MOL0     H77982   0.375   0.645   5.753 -0.5601 -1.1554  0.6611
  578MOL0     H77983   0.391   0.748   5.899  0.5696  4.4860 -0.9652
  578MOL0     H77984   0.194   0.876   5.798 -0.3900  0.2174  0.4733
  578MOL0     H77985   0.155   0.720   5.870  0.6322  2.3542  0.9656
  578MOL0     H77986   0.184   0.631   5.619  3.0099  1.1835  0.6947
  578MOL0     H77987   0.210   0.801   5.579 -1.0159  0.3427 -0.4187
  578MOL0     H77988  -0.024   0.736   5.519 -0.9348 -2.3612  1.1682
  578MOL0     H77989  -0.018   0.853   5.658  3.1192  0.9183 -0.7911
  578MOL0     H77990  -0.177   0.491   5.548 -0.6866 -0.0121 -2.6230
  578MOL0     H77991  -0.425   0.472   5.362  0.7709 -1.3277 -0.3912
  578MOL0     H77992  -0.338   0.346   5.439  1.1204  1.3369  1.1029
  578MOL0     H77993  -0.507   0.379   5.489  0.2901 -2.2946  0.5699
  578MOL0     H77994  -0.793   0.413   5.365  3.9069  2.3486 -0.3082
  578MOL0     H77995  -1.028   0.404   5.315 -0.6446 -0.3413 -0.5149
  578MOL0     H77996  -1.281   0.799   5.297 -3.7443 -2.8901  2.1771
  578MOL0     H77997  -1.167   0.762   5.164  0.9922  0.3415  1.4746
  578MOL0     H77998  -1.452   0.645   5.228  0.9037 -1.5406  0.0991
  578MOL0     H77999  -1.411   0.761   5.099  2.0568 -0.2750 -0.7015
  578MOL0     H78000  -1.437   0.498   5.054 -1.3978  3.1168  1.1519
  578MOL0     H78001  -1.281   0.479   5.110 -1.9594 -1.5475  0.8531
  578MOL0     H78002  -1.386   0.674   4.894 -2.5751 -1.3238  2.2378
  578MOL0     H78003  -1.208   0.665   4.946 -0.5983  1.6510  2.2259
  578MOL0     H78004  -1.255   0.543   4.721 -2.3244 -0.0923 -0.1162
  578MOL0     H78005  -1.368   0.450   4.811 -0.9945  1.1463 -2.4361
  578MOL0     H78006  -1.067   0.481   4.889  0.7608 -2.2554 -0.5612
  578MOL0     H78007  -1.184   0.356   4.950  1.4795  0.1752  0.2182
  578MOL0     H78008  -1.127   0.375   4.665  1.9820 -0.4581  0.2796
  578MOL0     H78009  -1.212   0.249   4.759 -1.6534  0.2105 -0.6995
  578MOL0     H78010  -0.966   0.217   4.874  0.4404 -0.6223 -0.6083
  578MOL0     H78011  -0.920   0.350   4.767 -2.7693  0.4092 -1.7736
  578MOL0     H78012  -1.062   0.824   5.390 -1.4190 -0.2591 -1.8613
  578MOL0     H78013  -0.823   0.835   5.454 -0.1573  0.2363  0.3637
  578MOL0     H78014  -0.521   0.751   5.776 -0.0497  1.7052 -1.0353
  578MOL0     H78015  -0.278   0.793   5.813 -1.7988 -0.3573  0.4055
  578MOL0     H78016   0.749   1.322   4.765 -1.1787 -0.1800 -0.1692
  578MOL0     H78017   0.585   1.349   4.593 -1.2838 -2.8749  0.5154
  578MOL0     H78018   0.376   1.038   4.145  0.2732  0.0985  0.9837
  578MOL0     H78019   0.233   1.087   3.944 -0.6827  1.9057 -0.4403
  578MOL0     H78020   0.130   1.269   3.651 -2.0721 -1.2688 -0.4278
  578MOL0     H78021   0.132   1.144   3.778  0.3492  0.7807  1.5599
  578MOL0     H78022  -0.065   1.257   3.701  1.1228 -1.4514 -0.6808
  578MOL0     H78023  -0.003   1.407   3.780  0.6966 -0.3372  2.4554
  578MOL0     H78024   0.017   1.264   4.006 -1.3657  1.7606  1.9774
  578MOL0     H78025  -0.063   1.132   3.912  0.0023  0.4196  1.9579
  578MOL0     H78026  -0.230   1.230   4.035 -3.4458  1.4283 -0.6695
  578MOL0     H78027  -0.255   1.291   3.877 -1.6059  1.9405  1.3973
  578MOL0     H78028  -0.226   1.621   4.148 -2.7710  0.6998 -0.5876
  578MOL0     H78029   0.400   1.480   3.954 -1.1150  0.3637 -1.1407
  578MOL0     H78030   0.516   1.436   4.151  1.9661 -1.2535 -0.8320
  579MOL0     O78031   5.398   5.213   5.213 -0.5631 -0.2369 -0.2904
  579MOL0     C78032   5.305   5.164   5.275  0.2184  0.6996  0.7334
  579MOL0     O78033   5.327   5.113   5.401  0.3093 -0.3240 -0.1947
  579MOL0     C78034   5.439   5.145   5.467 -0.3752  0.4007  0.6283
  579MOL0     C78035   5.527   5.042   5.493  0.0978  0.8565  0.0418
  579MOL0     C78036   5.649   5.063   5.568  0.5700  0.0805  0.1889
  579MOL0     C78037   5.682   5.194   5.600  0.5941 -0.2642  1.0128
  579MOL0     O78038   5.797   5.237   5.660  0.0315  0.3347 -0.7620
  579MOL0     C78039   5.861   5.157   5.761 -0.1451 -1.1234 -0.3514
  579MOL0     C78040   5.971   5.259   5.810 -0.6488  0.2011 -0.4153
  579MOL0     C78041   5.928   5.396   5.876 -0.2561  0.2585  0.3675
  579MOL0     C78042   5.858   5.391   6.017 -0.0958  1.3956 -0.4442
  579MOL0     C78043   5.767   5.523   6.040  0.6550 -0.4791  0.6241
  579MOL0     C78044   5.857   5.647   6.050 -0.3097 -0.6768 -0.0279
  579MOL0     C78045   5.795   5.775   6.106 -0.1595 -1.0119 -0.2611
  579MOL0     C78046   5.890   5.875   6.154  0.4380  0.6713 -0.5305
  579MOL0     N78047   5.984   5.941   6.056 -0.1884  0.5057 -0.4743
  579MOL0     C78048   5.939   6.046   5.985  0.8092 -0.3976 -0.2539
  579MOL0     C78049   6.048   6.115   5.937  0.5489  0.4327 -0.7845
  579MOL0     C78050   6.040   6.248   5.870 -0.7592  0.3618 -0.0369
  579MOL0     C78051   6.173   6.326   5.857  0.0246 -0.2025 -0.9414
  579MOL0     C78052   6.157   6.469   5.800  0.3286 -0.8985 -0.0215
  579MOL0     C78053   6.288   6.528   5.751 -0.1328  1.4359  0.7093
  579MOL0     O78054   6.375   6.516   5.863 -0.3250 -0.5963  0.2231
  579MOL0     C78055   6.483   6.598   5.869 -0.2465 -0.9408 -0.3109
  579MOL0     C78056   6.514   6.708   5.786  0.5600 -0.5523 -0.1523
  579MOL0     C78057   6.630   6.799   5.805 -0.2057  0.4266 -0.6919
  579MOL0     C78058   6.626   6.922   5.724 -0.3889  0.3790  0.5101
  579MOL0     C78059   6.717   6.776   5.909  0.4744  0.7240 -0.9791
  579MOL0     C78060   6.842   6.859   5.916 -0.7770 -0.1048 -0.1719
  579MOL0     O78061   6.865   6.928   6.026  0.2888 -0.0276 -0.2125
  579MOL0     C78062   6.977   7.013   6.042 -0.2762 -0.4134  0.3960
  579MOL0     C78063   6.997   7.064   6.176 -0.0403  0.0838 -0.9608
  579MOL0     C78064   7.091   7.157   6.203 -0.7476 -0.2436  0.3563
  579MOL0     C78065   7.168   7.212   6.101 -1.1909  0.1174 -0.0333
  579MOL0     O78066   7.276   7.300   6.131 -0.9198  0.0165  0.3289
  579MOL0     C78067   7.253   7.428   6.080  0.1143  0.5598  0.3216
  579MOL0     C78068   7.382   7.511   6.049 -0.2204 -0.2643  0.3033
  579MOL0     C78069   7.362   7.652   5.975  0.3394 -0.3811  0.6916
  579MOL0     C78070   7.234   7.740   6.011 -1.0800  0.7469 -0.0488
  579MOL0     C78071   7.248   7.871   5.935 -0.2675  0.2619  0.6989
  579MOL0     C78072   7.141   7.970   5.967  0.7390  0.1913 -0.0308
  579MOL0     C78073   7.156   8.108   5.902 -0.2902 -0.2870 -0.0144
  579MOL0     C78074   7.282   8.181   5.919 -0.7828  0.4938  0.3536
  579MOL0    Cl78075   7.282   8.349   5.872  0.5069  0.2735  0.2107
  579MOL0     C78076   7.152   7.165   5.971  0.5022  0.3808  0.2281
  579MOL0     C78077   7.060   7.064   5.945  1.1924  0.7918 -0.5492
  579MOL0     O78078   6.927   6.835   5.828  0.0744 -0.0264  0.1565
  579MOL0     C78079   6.698   6.655   5.983 -0.5442 -0.0399 -0.2336
  579MOL0     C78080   6.581   6.575   5.954 -0.9563  0.7979  0.0783
  579MOL0     N78081   6.154   6.047   5.988 -0.6119  0.3998  0.0079
  579MOL0     N78082   6.123   5.940   6.057 -0.5309  0.3637 -0.0493
  579MOL0     C78083   5.596   5.305   5.564  0.4332  1.0862  0.3039
  579MOL0     C78084   5.471   5.278   5.500 -0.2704  0.4651  0.1801
  579MOL0     C78085   5.166   5.141   5.215  0.5556 -0.5791 -0.4438
  579MOL0     C78086   5.071   5.081   5.299  1.1530 -0.2527  0.2967
  579MOL0     C78087   4.936   5.073   5.260  0.2701  1.4432 -0.7977
  579MOL0     C78088   4.910   5.099   5.126  0.0153  0.1598 -0.0006
  579MOL0     O78089   4.780   5.079   5.083 -0.0903 -0.3281 -0.2819
  579MOL0     C78090   4.740   4.942   5.092  0.4592  0.2648  0.8610
  579MOL0     C78091   4.610   4.938   5.014  0.1188  0.7772 -0.1432
  579MOL0     C78092   4.503   5.014   5.099 -0.3179 -0.5026  0.1749
  579MOL0     C78093   4.508   5.000   5.246 -0.2558 -0.3531 -0.6016
  579MOL0     C78094   4.385   5.044   5.318 -0.3662 -0.2413  0.1735
  579MOL0     C78095   4.286   5.087   5.385 -1.3216 -0.0104  0.6320
  579MOL0     C78096   5.004   5.161   5.034  0.1371  0.2321 -0.6869
  579MOL0     C78097   5.139   5.184   5.077 -0.1062 -0.1724 -0.3138
  579MOL0     H78098   5.490   4.942   5.477  0.7266  0.8106 -1.2398
  579MOL0     H78099   5.714   4.983   5.602 -0.5209 -0.9686 -0.1304
  579MOL0     H78100   5.804   5.146   5.853  2.5248  1.6221  1.8493
  579MOL0     H78101   5.899   5.068   5.709  0.9433 -0.2556 -1.0972
  579MOL0     H78102   6.032   5.201   5.880 -1.6226 -2.1133 -1.4005
  579MOL0     H78103   6.031   5.281   5.722  1.7009 -0.7027  0.8657
  579MOL0     H78104   6.018   5.454   5.898 -1.3351  0.7817  4.0374
  579MOL0     H78105   5.872   5.459   5.806  1.1446 -0.9973 -2.0210
  579MOL0     H78106   5.781   5.314   6.010 -0.7128  2.1538 -2.9339
  579MOL0     H78107   5.927   5.366   6.098 -2.5984  0.6313  1.5807
  579MOL0     H78108   5.693   5.544   5.962  1.9230 -0.0268 -0.4842
  579MOL0     H78109   5.718   5.515   6.138 -2.6958  1.3898 -0.7204
  579MOL0     H78110   5.943   5.614   6.110  1.2642  1.0445 -1.2179
  579MOL0     H78111   5.893   5.678   5.952  0.7629  0.3713  0.6690
  579MOL0     H78112   5.721   5.812   6.034 -1.2763  0.1540  1.4313
  579MOL0     H78113   5.735   5.736   6.188 -2.6650  1.4292 -0.7860
  579MOL0     H78114   5.944   5.829   6.237 -2.7442 -0.5377  1.0503
  579MOL0     H78115   5.834   5.948   6.214  0.8886 -0.5901  1.5381
  579MOL0     H78116   5.834   6.073   5.975  1.0974  2.5179  2.5355
  579MOL0     H78117   6.004   6.227   5.769 -0.7963 -0.4388  0.1394
  579MOL0     H78118   5.966   6.316   5.912  0.3140  2.1520 -0.8970
  579MOL0     H78119   6.243   6.267   5.797  2.0475 -1.2832  2.1879
  579MOL0     H78120   6.218   6.333   5.956  0.8074 -2.1988 -1.1133
  579MOL0     H78121   6.096   6.531   5.868 -0.8296 -2.0245  0.0124
  579MOL0     H78122   6.090   6.465   5.714 -0.2235  0.9715  0.2586
  579MOL0     H78123   6.276   6.633   5.722  1.6080  1.0505 -1.7155
  579MOL0     H78124   6.330   6.479   5.662  1.4325  1.5911  1.3251
  579MOL0     H78125   6.447   6.717   5.701 -0.6460 -1.0583  0.7227
  579MOL0     H78126   6.723   6.971   5.710 -0.3527 -0.0989 -1.2210
  579MOL0     H78127   6.578   6.895   5.629 -1.1246 -1.0351  1.2673
  579MOL0     H78128   6.566   7.002   5.768 -2.4551 -0.7816 -0.0837
  579MOL0     H78129   6.934   7.025   6.255  1.6667 -0.2099  0.3097
  579MOL0     H78130   7.113   7.206   6.297  1.4896 -0.3439 -0.0526
  579MOL0     H78131   7.191   7.432   5.990 -1.0262  2.5234  1.1378
  579MOL0     H78132   7.185   7.476   6.151 -0.5491  2.6089 -1.5935
  579MOL0     H78133   7.447   7.523   6.135  1.3207  0.2836 -0.8968
  579MOL0     H78134   7.446   7.448   5.986  2.0827  0.1858  2.0884
  579MOL0     H78135   7.357   7.626   5.869 -1.5518  0.4279  0.5343
  579MOL0     H78136   7.449   7.717   5.983 -1.2686  1.8640  0.7959
  579MOL0     H78137   7.143   7.691   5.978 -1.9308  2.1035  0.2160
  579MOL0     H78138   7.232   7.755   6.120  1.5641  0.4749  0.1231
  579MOL0     H78139   7.242   7.847   5.829  0.5625  1.0460  0.4558
  579MOL0     H78140   7.348   7.916   5.943  0.1602 -0.6933  0.8263
  579MOL0     H78141   7.040   7.936   5.941  0.6198  0.9063 -0.5493
  579MOL0     H78142   7.151   7.972   6.076  2.4498 -2.2889 -0.0567
  579MOL0     H78143   7.075   8.168   5.945 -0.6531 -1.2784  0.7253
  579MOL0     H78144   7.127   8.091   5.798 -1.4523 -0.0996  0.2652
  579MOL0     H78145   7.364   8.132   5.867 -1.5391 -0.1726 -0.2424
  579MOL0     H78146   7.306   8.168   6.025  0.3644 -1.7339 -0.1289
  579MOL0     H78147   7.221   7.200   5.894 -1.0254  0.8008 -0.9867
  579MOL0     H78148   7.035   7.037   5.843 -0.7703 -0.0340  0.0900
  579MOL0     H78149   6.780   6.626   6.047  2.2571 -0.1237 -3.5796
  579MOL0     H78150   6.575   6.489   6.020 -1.4855  0.3946 -0.4754
  579MOL0     H78151   5.623   5.409   5.576  0.5899  1.0949 -0.1191
  579MOL0     H78152   5.409   5.361   5.468  0.4374 -0.5710 -4.5436
  579MOL0     H78153   5.099   5.059   5.402  1.1770 -1.9496 -0.0465
  579MOL0     H78154   4.877   5.013   5.329  0.8225 -1.8256 -2.9424
  579MOL0     H78155   4.806   4.895   5.020 -2.8655 -1.3525 -1.3832
  579MOL0     H78156   4.738   4.884   5.185  0.0386 -1.4445 -0.1760
  579MOL0     H78157   4.583   4.832   5.007 -1.0152  0.9519  1.0860
  579MOL0     H78158   4.616   4.989   4.918 -0.8870 -0.1213 -0.7069
  579MOL0     H78159   4.401   5.000   5.060 -0.4278 -1.9864  0.9243
  579MOL0     H78160   4.510   5.122   5.087 -0.8633 -0.6332 -1.6541
  579MOL0     H78161   4.597   5.059   5.272 -0.6913  0.9173 -1.8861
  579MOL0     H78162   4.527   4.899   5.285  2.9310  0.6409  0.7443
  579MOL0     H78163   4.207   5.130   5.445 -1.9561  0.1876 -0.3153
  579MOL0     H78164   4.983   5.166   4.928  0.5411  0.6164 -0.7506
  579MOL0     H78165   5.215   5.233   5.017 -2.0408  3.4283 -0.1330
  580MOL0     O78166  11.135   1.273  10.546  0.0607 -0.9459  0.3816
  580MOL0     C78167  11.111   1.335  10.643  1.0457 -0.0822  0.8615
  580MOL0     O78168  11.195   1.437  10.692 -0.2469  0.2463 -0.4613
  580MOL0     C78169  11.303   1.471  10.618  1.3546 -0.3343 -0.8835
  580MOL0     C78170  11.291   1.568  10.527  1.3842  0.5411  0.6268
  580MOL0     C78171  11.394   1.615  10.451 -0.2789 -0.5176  0.3385
  580MOL0     C78172  11.525   1.557  10.469 -0.5491 -0.0491  0.0731
  580MOL0     O78173  11.631   1.604  10.391  1.2298  0.7000 -0.6959
  580MOL0     C78174  11.759   1.594  10.451 -0.2170  0.1671 -0.6775
  580MOL0     C78175  11.856   1.628  10.341  0.7964  0.5578 -0.6843
  580MOL0     C78176  11.987   1.684  10.374  0.1424 -0.5569 -0.9054
  580MOL0     C78177  11.973   1.821  10.434  0.2480  0.2542  0.4209
  580MOL0     C78178  12.081   1.925  10.386 -0.5960 -0.2431 -0.2123
  580MOL0     C78179  12.230   1.889  10.420  0.5335 -0.5162  0.0550
  580MOL0     C78180  12.322   1.993  10.376  0.4697 -0.3547  0.3580
  580MOL0     C78181  12.459   1.939  10.347  0.3469  0.1494  0.3586
  580MOL0     N78182  12.541   2.047  10.295  0.1053 -0.7522  0.0529
  580MOL0     C78183  12.604   2.142  10.368 -0.2280  0.6732  0.3717
  580MOL0     C78184  12.635   2.232  10.270 -0.0055  0.5113  0.2913
  580MOL0     C78185  12.705   2.363  10.288  0.2740 -0.2361 -0.7238
  580MOL0     C78186  12.715   2.418  10.431  0.2635 -0.5513  0.6820
  580MOL0     C78187  12.582   2.473  10.472 -0.4633  0.8002 -0.5811
  580MOL0     C78188  12.590   2.556  10.597 -0.0981 -0.1380 -0.8938
  580MOL0     O78189  12.691   2.656  10.586  0.1914 -0.8280 -0.6775
  580MOL0     C78190  12.668   2.767  10.508  0.2897 -0.2557  1.1632
  580MOL0     C78191  12.584   2.856  10.565 -0.1666 -0.1245  0.0875
  580MOL0     C78192  12.548   2.973  10.487 -1.1937  0.0480 -0.6101
  580MOL0     C78193  12.458   3.080  10.565  0.4024 -0.3602 -0.5968
  580MOL0     C78194  12.608   2.994  10.352  0.6063 -0.1742 -0.2967
  580MOL0     C78195  12.563   3.110  10.264 -0.1049  0.0073  0.2798
  580MOL0     O78196  12.610   3.105  10.132  0.6924  0.0598  0.1672
  580MOL0     C78197  12.561   3.201  10.044 -0.2797  0.4808  0.2558
  580MOL0     C78198  12.583   3.344  10.055 -1.1418 -0.5758 -0.7434
  580MOL0     C78199  12.516   3.420   9.968 -0.0363 -0.3740 -0.2065
  580MOL0     C78200  12.438   3.375   9.867  0.3162 -0.8598  0.4064
  580MOL0     O78201  12.375   3.472   9.793  0.8315 -0.2507  0.3885
  580MOL0     C78202  12.354   3.451   9.655 -0.7188  0.6123  0.0753
  580MOL0     C78203  12.223   3.522   9.609 -0.1863  0.5986 -0.6970
  580MOL0     C78204  12.234   3.671   9.619  0.5397 -0.2113 -0.6862
  580MOL0     C78205  12.120   3.744   9.545 -0.3248  0.4507 -0.7367
  580MOL0     C78206  12.132   3.890   9.576 -0.2942 -0.7125  0.0777
  580MOL0     C78207  12.242   3.961   9.495 -0.5875 -0.2072  0.1505
  580MOL0     C78208  12.221   3.942   9.339  0.8038 -0.5525  0.7752
  580MOL0     C78209  12.323   4.031   9.271 -0.5383  0.4067  0.1777
  580MOL0    Cl78210  12.331   4.008   9.097  0.2520 -0.2710 -0.0803
  580MOL0     C78211  12.426   3.239   9.841 -1.0800 -0.3224 -0.3996
  580MOL0     C78212  12.490   3.150   9.931  0.0235 -0.3681  0.0045
  580MOL0     O78213  12.476   3.186  10.303  0.5577  0.1830  0.4117
  580MOL0     C78214  12.692   2.891  10.307 -0.1021  0.6180  0.3883
  580MOL0     C78215  12.730   2.789  10.388 -0.2572 -0.5375  0.5346
  580MOL0     N78216  12.594   2.187  10.145 -0.2906  0.3076  0.4594
  580MOL0     N78217  12.543   2.066  10.161  0.6054 -0.1590 -0.2629
  580MOL0     C78218  11.538   1.451  10.569 -0.7233  0.2734 -0.5289
  580MOL0     C78219  11.428   1.422  10.649  0.7398  0.5445  0.0105
  580MOL0     C78220  10.977   1.309  10.707  0.1071  1.0077  0.6317
  580MOL0     C78221  10.958   1.333  10.844 -0.4246 -0.3890  0.5454
  580MOL0     C78222  10.835   1.315  10.907  1.0675 -0.0713  0.1013
  580MOL0     C78223  10.725   1.268  10.824 -0.8825 -0.4172 -0.3482
  580MOL0     O78224  10.607   1.247  10.884 -0.2941 -0.4572 -0.6158
  580MOL0     C78225  10.530   1.367  10.881  0.1751  0.6750 -0.0951
  580MOL0     C78226  10.454   1.374  10.748  1.1056 -0.1356  0.2653
  580MOL0     C78227  10.363   1.241  10.724 -0.0516 -0.7984 -0.0088
  580MOL0     C78228  10.291   1.208  10.591  0.2347  0.2142  0.3210
  580MOL0     C78229  10.390   1.173  10.485  0.5410 -0.6135  0.5025
  580MOL0     C78230  10.455   1.149  10.389  0.9986 -0.3955 -0.6778
  580MOL0     C78231  10.747   1.231  10.689  0.2978  0.0711 -0.7998
  580MOL0     C78232  10.868   1.257  10.626 -0.0819 -0.4813  0.3284
  580MOL0     H78233  11.193   1.607  10.500  0.7126 -2.3305 -1.5474
  580MOL0     H78234  11.374   1.688  10.373  2.3484 -1.4147 -1.3321
  580MOL0     H78235  11.771   1.649  10.545  0.6684 -2.3238  0.7713
  580MOL0     H78236  11.789   1.491  10.471  0.2013  0.1949 -1.1308
  580MOL0     H78237  11.870   1.537  10.281  1.4266 -1.1465  1.8501
  580MOL0     H78238  11.802   1.705  10.286  1.7625  0.8688 -1.2028
  580MOL0     H78239  12.044   1.611  10.432  0.1244  1.2576  1.5428
  580MOL0     H78240  12.038   1.680  10.278  1.1793 -1.3832 -0.3354
  580MOL0     H78241  11.876   1.862  10.403  0.7800 -0.6263 -2.7996
  580MOL0     H78242  11.978   1.808  10.542 -2.5804  2.2728  0.9060
  580MOL0     H78243  12.077   1.930  10.276  2.0756 -0.3503 -0.3841
  580MOL0     H78244  12.061   2.026  10.423  1.9055  0.7090 -1.2004
  580MOL0     H78245  12.238   1.876  10.528 -0.0152  4.4614  0.9229
  580MOL0     H78246  12.252   1.798  10.362 -3.0800 -0.5068 -1.6172
  580MOL0     H78247  12.292   2.040  10.282  0.1738 -2.4901 -0.6672
  580MOL0     H78248  12.341   2.067  10.455  0.9065  0.7633 -0.7565
  580MOL0     H78249  12.449   1.847  10.288 -0.5825  1.0513 -0.9340
  580MOL0     H78250  12.503   1.901  10.440  1.3918  0.5602  0.0512
  580MOL0     H78251  12.604   2.146  10.476  0.6714  2.4501  0.3322
  580MOL0     H78252  12.809   2.356  10.255  1.2127 -0.7943  2.1366
  580MOL0     H78253  12.654   2.429  10.217 -2.0320  1.2851  2.1613
  580MOL0     H78254  12.787   2.500  10.420 -0.5741  0.1979  0.5884
  580MOL0     H78255  12.754   2.341  10.497 -2.0988 -0.2273  2.6067
  580MOL0     H78256  12.513   2.389  10.480  0.1258  0.3745  0.1974
  580MOL0     H78257  12.540   2.531  10.389 -0.2247 -0.8324 -1.9063
  580MOL0     H78258  12.621   2.486  10.675  1.2509 -1.1367 -2.2828
  580MOL0     H78259  12.492   2.599  10.618 -0.8521 -0.2461 -3.7920
  580MOL0     H78260  12.527   2.843  10.657 -2.2012 -1.7912 -1.3227
  580MOL0     H78261  12.526   3.166  10.572  2.6341 -1.9570 -1.6006
  580MOL0     H78262  12.368   3.102  10.506  0.4692  2.4705  0.1794
  580MOL0     H78263  12.421   3.059  10.665 -1.6283 -1.7264 -1.5678
  580MOL0     H78264  12.638   3.394  10.135  0.1497 -0.3694 -1.7200
  580MOL0     H78265  12.518   3.528   9.969  1.1493 -0.3311 -1.6353
  580MOL0     H78266  12.436   3.491   9.593  0.2429 -2.4344 -0.8052
  580MOL0     H78267  12.333   3.351   9.618 -0.7027  0.5744  0.1695
  580MOL0     H78268  12.210   3.498   9.503  2.9318 -0.0520 -1.0387
  580MOL0     H78269  12.138   3.486   9.668  1.3072 -4.1497 -1.0331
  580MOL0     H78270  12.333   3.695   9.580  1.6668 -1.6762  1.1337
  580MOL0     H78271  12.228   3.698   9.725 -1.1983 -2.9200  0.0070
  580MOL0     H78272  12.149   3.720   9.443  1.0018  0.1104 -0.3057
  580MOL0     H78273  12.021   3.698   9.559 -0.8976  0.3433 -4.2773
  580MOL0     H78274  12.156   3.909   9.681  2.9815  1.0024 -0.8552
  580MOL0     H78275  12.045   3.948   9.544  2.4433  1.9606 -3.3651
  580MOL0     H78276  12.250   4.065   9.529  2.5502 -0.0206 -0.8027
  580MOL0     H78277  12.336   3.914   9.526  1.2628  1.1256 -2.9392
  580MOL0     H78278  12.123   3.983   9.313  1.9738  0.2057 -3.1905
  580MOL0     H78279  12.239   3.840   9.302  1.1784 -0.1893 -0.0731
  580MOL0     H78280  12.424   4.006   9.305 -0.1437  0.5952 -0.8425
  580MOL0     H78281  12.303   4.133   9.305  0.6463  0.9808 -0.7747
  580MOL0     H78282  12.371   3.194   9.758  2.7895 -2.3555 -2.1340
  580MOL0     H78283  12.490   3.042   9.922 -2.5970 -0.6244  1.7855
  580MOL0     H78284  12.720   2.889  10.202  1.4264  2.8256  0.6882
  580MOL0     H78285  12.811   2.724  10.357  2.2851  2.9319 -0.8284
  580MOL0     H78286  11.633   1.400  10.582  0.1261  1.8232 -0.3830
  580MOL0     H78287  11.414   1.338  10.717 -2.2697  0.1710 -0.8912
  580MOL0     H78288  11.046   1.380  10.888 -0.4108 -1.2144  1.4257
  580MOL0     H78289  10.832   1.333  11.014  1.1371  0.3333  0.0350
  580MOL0     H78290  10.459   1.362  10.964 -1.4156 -3.5343 -1.4169
  580MOL0     H78291  10.590   1.459  10.881 -0.2583  0.9612 -0.1304
  580MOL0     H78292  10.528   1.388  10.669 -0.1124 -1.0348 -1.0862
  580MOL0     H78293  10.389   1.460  10.766 -1.4990 -1.8602 -0.3204
  580MOL0     H78294  10.282   1.252  10.796  0.1137  2.3525 -0.1480
  580MOL0     H78295  10.424   1.152  10.742  2.3413  0.3379 -1.8801
  580MOL0     H78296  10.225   1.287  10.554 -3.0128 -1.7426  1.5074
  580MOL0     H78297  10.222   1.124  10.597  1.3131 -0.7550 -0.4028
  580MOL0     H78298  10.515   1.140  10.301  0.7043  3.0891 -1.3652
  580MOL0     H78299  10.664   1.193  10.631  0.6550 -0.6231 -0.8609
  580MOL0     H78300  10.884   1.215  10.528  1.6794 -0.2521  0.5019
  581MOL0     O78301   1.974   2.454   7.078  0.5153  0.2494 -0.4580
  581MOL0     C78302   2.053   2.357   7.082 -1.5225 -1.1479  0.7073
  581MOL0     O78303   2.018   2.219   7.096  0.1467 -0.3015  0.1334
  581MOL0     C78304   1.892   2.178   7.116 -0.0296  0.6506  0.6069
  581MOL0     C78305   1.873   2.045   7.095  0.0349  0.2544  0.0720
  581MOL0     C78306   1.757   1.979   7.111  0.5125 -0.2268  0.4017
  581MOL0     C78307   1.651   2.049   7.177 -0.5602 -0.3475  0.6522
  581MOL0     O78308   1.533   1.976   7.197 -0.2489 -0.0799  0.5128
  581MOL0     C78309   1.420   2.042   7.252  0.4374  0.7360 -0.1647
  581MOL0     C78310   1.300   1.958   7.259  0.2389 -0.9520 -0.0882
  581MOL0     C78311   1.299   1.817   7.330  0.1213 -0.9375 -0.0717
  581MOL0     C78312   1.157   1.776   7.364 -0.1377 -0.1845 -0.3298
  581MOL0     C78313   1.157   1.624   7.420 -0.0366 -0.1976  0.5562
  581MOL0     C78314   1.025   1.599   7.490 -0.0354 -0.0220  0.0806
  581MOL0     C78315   1.032   1.474   7.583 -0.0317 -0.3309  0.5103
  581MOL0     C78316   0.901   1.423   7.627 -0.6582  0.8383  0.0119
  581MOL0     N78317   0.821   1.365   7.522  0.3804 -0.3063 -0.4943
  581MOL0     C78318   0.849   1.269   7.430 -1.0132 -0.1629 -0.0302
  581MOL0     C78319   0.738   1.256   7.356  0.3389  0.9540  0.5931
  581MOL0     C78320   0.710   1.163   7.243  0.2226  0.3054 -0.1262
  581MOL0     C78321   0.608   1.057   7.284  0.5888  0.3758 -0.2406
  581MOL0     C78322   0.629   0.994   7.422  0.9929  1.2744 -0.4241
  581MOL0     C78323   0.510   0.900   7.465 -0.4863 -0.5169 -0.1913
  581MOL0     O78324   0.541   0.822   7.580 -0.5458 -0.3307 -0.2429
  581MOL0     C78325   0.471   0.705   7.611  0.0539  0.5281  0.7848
  581MOL0     C78326   0.344   0.677   7.554 -0.3667 -0.2710  0.3577
  581MOL0     C78327   0.259   0.572   7.594 -0.3406  0.0434  0.1300
  581MOL0     C78328   0.136   0.552   7.512 -0.2451  0.3090  0.4213
  581MOL0     C78329   0.300   0.494   7.703 -0.2663 -0.1492 -0.7107
  581MOL0     C78330   0.226   0.367   7.742  0.0432 -0.2198 -1.0066
  581MOL0     O78331   0.093   0.360   7.730 -0.0393  0.0845 -0.4146
  581MOL0     C78332   0.041   0.242   7.774  0.4814  1.3233 -0.0339
  581MOL0     C78333   0.009   0.143   7.680  0.6443 -0.0313  0.0084
  581MOL0     C78334  -0.046   0.025   7.723 -0.3038 -0.2402 -0.5103
  581MOL0     C78335  -0.081   0.002   7.857  0.1312  0.7901  0.2080
  581MOL0     O78336  -0.140  -0.120   7.892 -0.2598 -0.5136 -0.7286
  581MOL0     C78337  -0.285  -0.108   7.904 -0.4125  0.5512  0.2236
  581MOL0     C78338  -0.366  -0.228   7.953  0.5169 -0.0094  0.4658
  581MOL0     C78339  -0.349  -0.237   8.105  0.2420  0.5045 -0.1579
  581MOL0     C78340  -0.427  -0.352   8.171 -0.3252  0.7016 -0.8455
  581MOL0     C78341  -0.583  -0.344   8.154 -0.2937  0.4742  0.1011
  581MOL0     C78342  -0.637  -0.458   8.238 -0.7861  0.1536 -0.3263
  581MOL0     C78343  -0.786  -0.464   8.222  0.1869  0.2836 -0.1137
  581MOL0     C78344  -0.830  -0.516   8.077  0.1519  0.0198  0.4086
  581MOL0    Cl78345  -0.737  -0.664   8.019  0.0690  0.1787 -0.1522
  581MOL0     C78346  -0.056   0.099   7.953 -0.7613 -0.4733 -0.2470
  581MOL0     C78347   0.011   0.218   7.910  0.4781 -0.2056  0.2252
  581MOL0     O78348   0.306   0.277   7.780  0.3322  0.1893 -0.0862
  581MOL0     C78349   0.418   0.524   7.759 -0.2849  1.0086 -0.2838
  581MOL0     C78350   0.506   0.624   7.716 -0.4492  0.0708 -0.0476
  581MOL0     N78351   0.637   1.333   7.416  0.4205  1.0283  0.6415
  581MOL0     N78352   0.688   1.390   7.511  0.4584  0.3123 -0.8061
  581MOL0     C78353   1.669   2.183   7.204 -0.1249  0.6468 -0.0105
  581MOL0     C78354   1.788   2.252   7.174 -0.3798 -0.6019  0.2215
  581MOL0     C78355   2.193   2.391   7.062 -0.5732 -0.0452  0.6336
  581MOL0     C78356   2.235   2.500   6.984  0.1040  0.4436 -0.1256
  581MOL0     C78357   2.366   2.532   6.964 -0.5520  0.2541 -0.4418
  581MOL0     C78358   2.467   2.457   7.024  0.0295  0.3940  0.3696
  581MOL0     O78359   2.592   2.481   6.978 -0.2370  0.7610  0.1860
  581MOL0     C78360   2.701   2.392   7.009 -0.5169  0.4516 -0.3312
  581MOL0     C78361   2.822   2.456   6.953 -0.7033 -0.1320 -0.2099
  581MOL0     C78362   2.957   2.384   6.974 -0.1599  0.2044 -0.5311
  581MOL0     C78363   3.011   2.388   7.118  0.6568 -0.5650  0.1112
  581MOL0     C78364   3.147   2.326   7.120  0.1808  0.3285  0.7510
  581MOL0     C78365   3.261   2.308   7.099 -0.8602  0.9784 -1.1615
  581MOL0     C78366   2.431   2.352   7.108 -0.2758  0.2282  0.8285
  581MOL0     C78367   2.295   2.319   7.120  1.0676  0.1261 -0.3361
  581MOL0     H78368   1.953   1.983   7.055 -1.6556 -0.7054 -2.0232
  581MOL0     H78369   1.743   1.871   7.105  0.8147 -0.7374  5.2021
  581MOL0     H78370   1.438   2.067   7.357  3.9846  0.2495 -0.5294
  581MOL0     H78371   1.395   2.138   7.205 -0.7839  0.1441 -0.7789
  581MOL0     H78372   1.233   2.025   7.313  1.3830  0.9925 -0.9627
  581MOL0     H78373   1.250   1.946   7.163 -2.0218  2.1152  0.5551
  581MOL0     H78374   1.353   1.741   7.273  1.3806 -1.2960  1.5270
  581MOL0     H78375   1.355   1.829   7.423 -1.0821 -1.3811  0.7253
  581MOL0     H78376   1.125   1.852   7.436  3.0991 -1.4891  2.8447
  581MOL0     H78377   1.099   1.794   7.273 -4.0033  0.4623  2.0455
  581MOL0     H78378   1.150   1.570   7.324  1.0739  1.7913 -0.7040
  581MOL0     H78379   1.245   1.604   7.482  0.6056  2.2665  0.5455
  581MOL0     H78380   0.991   1.678   7.558  0.3205 -0.2678  0.5412
  581MOL0     H78381   0.940   1.602   7.420 -0.9407  0.8927  1.1634
  581MOL0     H78382   1.078   1.395   7.522  1.7234  1.1196 -0.1516
  581MOL0     H78383   1.102   1.493   7.666  0.7753 -0.1321 -0.1980
  581MOL0     H78384   0.850   1.512   7.665  1.6632  2.7410 -1.0485
  581MOL0     H78385   0.929   1.360   7.712  0.9665  2.8614  1.0677
  581MOL0     H78386   0.940   1.209   7.421 -0.0493  0.9786  1.6386
  581MOL0     H78387   0.666   1.220   7.160  1.2991 -0.2402 -1.0901
  581MOL0     H78388   0.801   1.112   7.211 -1.2592 -3.2038  0.7481
  581MOL0     H78389   0.611   0.976   7.210  1.1479 -0.4117  0.6297
  581MOL0     H78390   0.508   1.101   7.274 -0.5096 -1.3430  2.2619
  581MOL0     H78391   0.629   1.071   7.499  2.6825  2.4485 -1.5454
  581MOL0     H78392   0.723   0.939   7.427  1.6122  2.3855  0.4840
  581MOL0     H78393   0.478   0.837   7.383  1.2473 -0.8453 -0.6480
  581MOL0     H78394   0.430   0.975   7.473  0.2171  0.5851 -2.6714
  581MOL0     H78395   0.310   0.737   7.470 -0.4018 -0.8573 -0.0548
  581MOL0     H78396   0.120   0.627   7.434 -1.4839 -0.1756  0.1885
  581MOL0     H78397   0.131   0.448   7.481 -1.3844 -0.2563  2.3122
  581MOL0     H78398   0.044   0.549   7.571 -1.4416 -3.2682 -1.3467
  581MOL0     H78399   0.022   0.151   7.573  1.6286  0.0009  0.1219
  581MOL0     H78400  -0.070  -0.055   7.654 -0.9295 -1.1976  0.7601
  581MOL0     H78401  -0.314  -0.024   7.968 -1.4722  1.0405 -0.8656
  581MOL0     H78402  -0.311  -0.095   7.799 -1.6012 -0.0846  0.4087
  581MOL0     H78403  -0.469  -0.216   7.919  0.5232 -0.0382  0.4358
  581MOL0     H78404  -0.320  -0.316   7.906 -0.0348 -0.3240  0.5073
  581MOL0     H78405  -0.361  -0.139   8.152  2.8764  2.6422 -3.4899
  581MOL0     H78406  -0.242  -0.248   8.123 -0.1208 -0.1916  1.7696
  581MOL0     H78407  -0.392  -0.447   8.128 -1.4001  0.4713 -1.2525
  581MOL0     H78408  -0.399  -0.345   8.276 -2.1596  4.7323 -0.4370
  581MOL0     H78409  -0.608  -0.359   8.048 -0.0529 -3.1952  0.4064
  581MOL0     H78410  -0.637  -0.261   8.200 -2.4690 -1.1534  0.6561
  581MOL0     H78411  -0.581  -0.551   8.226  0.0617  0.3132  1.8916
  581MOL0     H78412  -0.627  -0.440   8.345 -0.1058 -1.8172 -0.0157
  581MOL0     H78413  -0.840  -0.370   8.240 -3.7572 -1.3763 -1.9768
  581MOL0     H78414  -0.832  -0.526   8.300 -2.1937  1.8230 -0.2055
  581MOL0     H78415  -0.811  -0.441   7.999 -0.9332 -1.7772 -1.7047
  581MOL0     H78416  -0.935  -0.546   8.074  0.1125  0.1936 -0.3050
  581MOL0     H78417  -0.077   0.088   8.059 -0.7281 -1.9252 -0.3678
  581MOL0     H78418   0.030   0.311   7.962 -1.8921  3.5083 -4.7636
  581MOL0     H78419   0.439   0.447   7.833 -1.7502 -2.3377 -3.0603
  581MOL0     H78420   0.585   0.668   7.777 -0.3352  1.0200 -0.8641
  581MOL0     H78421   1.587   2.242   7.244  0.0913  1.7725 -1.1505
  581MOL0     H78422   1.797   2.354   7.210 -0.0902 -0.8209  0.7885
  581MOL0     H78423   2.155   2.545   6.926 -0.2803  1.4600  1.1535
  581MOL0     H78424   2.395   2.616   6.901  0.8756  1.4973  1.7493
  581MOL0     H78425   2.709   2.375   7.117 -0.2935  0.7015 -0.3048
  581MOL0     H78426   2.688   2.292   6.968 -1.7462 -1.1067  3.4956
  581MOL0     H78427   2.834   2.551   7.006  0.1280 -1.2616  1.7653
  581MOL0     H78428   2.798   2.473   6.848 -3.8272  0.8129  0.5542
  581MOL0     H78429   3.033   2.438   6.916 -0.1611  1.7831  0.8590
  581MOL0     H78430   2.956   2.283   6.932 -1.5858 -0.9054  1.9685
  581MOL0     H78431   2.939   2.343   7.186 -1.6350  2.6621  0.0499
  581MOL0     H78432   2.999   2.490   7.156 -1.1131 -1.2341  1.4840
  581MOL0     H78433   3.361   2.279   7.074 -0.4140 -2.3775  3.2016
  581MOL0     H78434   2.494   2.274   7.151 -0.7055 -0.9595 -0.5866
  581MOL0     H78435   2.281   2.225   7.172 -2.8788 -0.2944 -1.8728
  582MOL0     O78436   2.794  10.698   1.095  0.6742  0.4711 -0.9624
  582MOL0     C78437   2.829  10.748   1.198 -0.6804 -0.8190 -0.2806
  582MOL0     O78438   2.853  10.688   1.318 -0.1812 -0.4105  1.1621
  582MOL0     C78439   2.815  10.554   1.331 -0.3189 -0.7031  1.0155
  582MOL0     C78440   2.687  10.531   1.374  0.7673 -0.0959 -0.8363
  582MOL0     C78441   2.644  10.392   1.390  0.0175  0.2787  0.6496
  582MOL0     C78442   2.718  10.283   1.341 -0.5701 -0.6352  0.1011
  582MOL0     O78443   2.669  10.158   1.365  0.8192 -0.0476  0.6451
  582MOL0     C78444   2.701  10.061   1.265 -0.3923 -0.0792  1.0292
  582MOL0     C78445   2.714   9.935   1.349 -0.1882 -1.2324  0.4482
  582MOL0     C78446   2.681   9.819   1.250  0.0442  0.4205 -0.2019
  582MOL0     C78447   2.695   9.686   1.323  0.1896 -0.3388  0.2649
  582MOL0     C78448   2.647   9.574   1.232  0.3343 -0.0331  1.3200
  582MOL0     C78449   2.655   9.438   1.310  0.4564  0.3748 -0.4642
  582MOL0     C78450   2.630   9.315   1.219 -0.2567 -0.6811  0.2849
  582MOL0     C78451   2.484   9.275   1.207  0.0886  0.4484 -0.3492
  582MOL0     N78452   2.401   9.374   1.131  0.0601 -0.2719  0.6743
  582MOL0     C78453   2.384   9.377   0.992  0.2650 -0.1427 -0.4603
  582MOL0     C78454   2.292   9.469   0.978 -0.7167 -0.3307 -0.2470
  582MOL0     C78455   2.252   9.532   0.849 -0.1683  0.0643  0.2255
  582MOL0     C78456   2.334   9.658   0.813  0.0573 -0.7055  0.2760
  582MOL0     C78457   2.318   9.775   0.904  0.1097  0.6710 -0.4649
  582MOL0     C78458   2.371   9.907   0.844  0.3818  1.1970  1.5635
  582MOL0     O78459   2.518   9.892   0.817 -0.1171  0.2422  0.4794
  582MOL0     C78460   2.568   9.840   0.696 -0.3136  0.0307  0.0820
  582MOL0     C78461   2.687   9.769   0.707 -0.0790  0.4368  0.1566
  582MOL0     C78462   2.760   9.711   0.592  0.3518  0.0618  0.5343
  582MOL0     C78463   2.891   9.645   0.606  0.4633 -0.1541  0.1417
  582MOL0     C78464   2.696   9.733   0.458 -0.4520  0.3462 -0.3137
  582MOL0     C78465   2.746   9.670   0.326  0.4504  0.0484  0.0456
  582MOL0     O78466   2.663   9.697   0.226 -0.0419  0.8886  0.3110
  582MOL0     C78467   2.693   9.638   0.101  0.1190  0.4317 -0.6145
  582MOL0     C78468   2.759   9.514   0.076  0.0363 -0.8816 -0.3565
  582MOL0     C78469   2.795   9.465  -0.052  0.4011 -0.1694  0.4768
  582MOL0     C78470   2.767   9.544  -0.160 -0.7919 -1.1101  0.3763
  582MOL0     O78471   2.809   9.514  -0.287  0.1457 -0.3240  0.3144
  582MOL0     C78472   2.823   9.613  -0.386  0.3543 -0.4479  1.3897
  582MOL0     C78473   2.895   9.576  -0.511 -0.0624 -0.1895 -0.4289
  582MOL0     C78474   2.821   9.461  -0.577 -0.5881  0.1597 -0.9656
  582MOL0     C78475   2.856   9.461  -0.726 -0.4170 -0.1902  0.6266
  582MOL0     C78476   2.806   9.352  -0.817  0.7004  0.2391  0.5600
  582MOL0     C78477   2.663   9.375  -0.859  0.3426  0.8006  0.1325
  582MOL0     C78478   2.603   9.268  -0.950 -0.0190 -0.7316  0.7575
  582MOL0     C78479   2.690   9.225  -1.064 -0.1027 -0.4500 -0.2441
  582MOL0    Cl78480   2.580   9.183  -1.196  0.2429 -0.3838 -0.1751
  582MOL0     C78481   2.689   9.658  -0.142  0.3695 -0.6382 -0.4654
  582MOL0     C78482   2.652   9.700  -0.014 -0.3073 -0.1689  0.3477
  582MOL0     O78483   2.860   9.629   0.320  0.5358  0.5050  0.3030
  582MOL0     C78484   2.584   9.814   0.460 -0.8998 -0.1923 -0.4075
  582MOL0     C78485   2.531   9.873   0.569  0.7913 -0.6981 -0.3996
  582MOL0     N78486   2.255   9.515   1.104  1.0135 -0.1153  1.2108
  582MOL0     N78487   2.308   9.450   1.192 -0.1859 -0.0543  0.3537
  582MOL0     C78488   2.850  10.321   1.296  0.6055  0.3482 -1.0544
  582MOL0     C78489   2.900  10.450   1.300  0.5131  0.8928  0.8675
  582MOL0     C78490   2.829  10.900   1.209 -0.3238 -0.9474 -0.4852
  582MOL0     C78491   2.821  10.977   1.328 -1.1772 -0.1202  0.0164
  582MOL0     C78492   2.807  11.114   1.319  0.1397 -1.2508 -0.4483
  582MOL0     C78493   2.789  11.178   1.197  0.0373 -0.2184 -0.1075
  582MOL0     O78494   2.772  11.318   1.198  0.1667  0.0986  0.2065
  582MOL0     C78495   2.735  11.382   1.083 -0.3396 -0.8099 -0.5516
  582MOL0     C78496   2.676  11.507   1.139 -0.3117 -0.4771  0.0645
  582MOL0     C78497   2.551  11.490   1.219 -0.1942  0.1850 -0.7149
  582MOL0     C78498   2.494  11.634   1.221 -0.0901  0.3079 -0.1673
  582MOL0     C78499   2.374  11.644   1.308  0.7072 -0.0486 -0.0138
  582MOL0     C78500   2.291  11.668   1.395 -0.2901 -0.1514 -0.0133
  582MOL0     C78501   2.798  11.104   1.082  0.1554  0.0017  0.0822
  582MOL0     C78502   2.818  10.964   1.084 -0.2652 -0.3153  0.2000
  582MOL0     H78503   2.618  10.607   1.408  2.8486  1.0832  1.0690
  582MOL0     H78504   2.541  10.381   1.421 -0.1495  2.6103  1.0903
  582MOL0     H78505   2.618  10.052   1.194  1.8091  1.4736 -1.9621
  582MOL0     H78506   2.789  10.086   1.205 -0.6411  0.7229  0.9935
  582MOL0     H78507   2.814   9.934   1.393  0.0226  1.6444  0.2359
  582MOL0     H78508   2.642   9.937   1.432 -1.9644  1.3136 -1.0283
  582MOL0     H78509   2.579   9.846   1.223  0.6844  2.5010 -0.7645
  582MOL0     H78510   2.730   9.810   1.152 -0.6659  0.8002 -0.6031
  582MOL0     H78511   2.803   9.669   1.332  0.1237 -1.3442 -0.6165
  582MOL0     H78512   2.637   9.682   1.415 -1.2264 -1.4416 -0.6315
  582MOL0     H78513   2.545   9.604   1.204  0.6413 -0.9905 -1.0095
  582MOL0     H78514   2.706   9.576   1.140 -2.8587 -2.0577 -1.0034
  582MOL0     H78515   2.756   9.421   1.347 -0.1573 -1.1167  0.6458
  582MOL0     H78516   2.587   9.427   1.395 -2.6817 -0.1037 -2.8352
  582MOL0     H78517   2.681   9.319   1.123  0.1214  2.8759  0.5187
  582MOL0     H78518   2.678   9.238   1.280 -1.4428  1.5685  4.5005
  582MOL0     H78519   2.437   9.288   1.305  1.2679  1.3341  0.1094
  582MOL0     H78520   2.471   9.171   1.174  1.8135 -0.2512  1.0579
  582MOL0     H78521   2.441   9.331   0.912  0.2338 -0.7719 -0.1308
  582MOL0     H78522   2.265   9.458   0.769  1.0603  1.1097 -0.5700
  582MOL0     H78523   2.146   9.561   0.848  0.0324  0.8266 -0.7224
  582MOL0     H78524   2.302   9.689   0.713  1.0970 -2.0057 -0.4936
  582MOL0     H78525   2.438   9.623   0.812 -0.4114 -2.1606  0.1071
  582MOL0     H78526   2.378   9.746   0.991 -0.9472  0.5356  0.2406
  582MOL0     H78527   2.217   9.776   0.946 -0.0018 -0.5477 -0.6511
  582MOL0     H78528   2.361   9.992   0.913  4.7917  2.2297  1.2708
  582MOL0     H78529   2.310   9.940   0.759  0.9147  1.7098  1.3709
  582MOL0     H78530   2.731   9.747   0.804 -0.5275  0.6475  0.4084
  582MOL0     H78531   2.928   9.632   0.709  2.7771 -3.3935 -0.9379
  582MOL0     H78532   2.893   9.543   0.567  1.0338 -0.4188  0.8417
  582MOL0     H78533   2.964   9.714   0.562  0.2966 -1.0524 -1.6191
  582MOL0     H78534   2.797   9.446   0.152  3.1975 -0.2278 -1.2313
  582MOL0     H78535   2.836   9.366  -0.068 -1.7865 -1.1123  0.3366
  582MOL0     H78536   2.725   9.635  -0.429  1.3488 -0.2374 -0.9800
  582MOL0     H78537   2.883   9.697  -0.350  0.1395  0.1343  0.4437
  582MOL0     H78538   2.884   9.664  -0.575  1.8022  0.6304  0.3193
  582MOL0     H78539   2.997   9.538  -0.498 -0.6036 -3.5747 -4.0817
  582MOL0     H78540   2.712   9.474  -0.574 -0.9478 -2.1034 -1.7317
  582MOL0     H78541   2.832   9.365  -0.526 -0.2645  1.3035  1.2336
  582MOL0     H78542   2.840   9.560  -0.770 -1.5427 -1.3864 -1.8728
  582MOL0     H78543   2.965   9.459  -0.729 -0.4173 -1.9460  0.9407
  582MOL0     H78544   2.811   9.250  -0.779  0.4801 -0.2434 -0.6869
  582MOL0     H78545   2.860   9.349  -0.911  0.7502  2.3701  0.4702
  582MOL0     H78546   2.597   9.385  -0.772  0.1466 -2.0458  0.4068
  582MOL0     H78547   2.662   9.460  -0.927 -0.8218  0.6358 -0.0684
  582MOL0     H78548   2.506   9.302  -0.987  0.4566 -2.1747 -2.1164
  582MOL0     H78549   2.591   9.179  -0.888 -2.5803  0.8754  2.7804
  582MOL0     H78550   2.749   9.137  -1.037  0.5185  0.2842  0.8418
  582MOL0     H78551   2.750   9.310  -1.096 -1.9503  0.7593 -0.6601
  582MOL0     H78552   2.669   9.726  -0.223 -2.8332  0.6205  1.1871
  582MOL0     H78553   2.601   9.795  -0.003 -0.6659 -0.4733  1.5551
  582MOL0     H78554   2.551   9.844   0.361  2.6818  0.4143 -1.5676
  582MOL0     H78555   2.445   9.936   0.553  0.2888 -1.5272 -1.0465
  582MOL0     H78556   2.921  10.246   1.265 -0.8667 -0.2039 -3.3303
  582MOL0     H78557   3.007  10.470   1.291  0.6428  0.3689  1.1863
  582MOL0     H78558   2.821  10.934   1.428 -1.0694 -0.1200  0.0160
  582MOL0     H78559   2.812  11.184   1.402  1.2207  0.7764 -2.1131
  582MOL0     H78560   2.821  11.405   1.020  1.1646  0.2736  1.7751
  582MOL0     H78561   2.658  11.334   1.022 -2.5598 -0.7574  2.0247
  582MOL0     H78562   2.656  11.579   1.059  1.1817  1.4275  1.3118
  582MOL0     H78563   2.757  11.548   1.199  0.0188 -2.5464  1.1171
  582MOL0     H78564   2.573  11.457   1.321  1.3069  0.3286 -0.9758
  582MOL0     H78565   2.482  11.420   1.172  1.0562 -0.7818 -1.1648
  582MOL0     H78566   2.482  11.672   1.119  1.8873  2.1422  0.2093
  582MOL0     H78567   2.570  11.706   1.254 -0.7140 -0.0583  2.2726
  582MOL0     H78568   2.213  11.700   1.461 -2.0855 -0.3983 -1.9179
  582MOL0     H78569   2.778  11.156   0.989 -1.5050 -2.3842 -1.0051
  582MOL0     H78570   2.817  10.907   0.992  2.9658  0.6904 -0.6037
  583MOL0     O78571   0.170   0.052   0.484  0.6279 -0.1703 -0.2048
  583MOL0     C78572   0.144   0.133   0.399  0.3690 -1.0091  0.5256
  583MOL0     O78573   0.240   0.208   0.333 -0.2987  1.3080  0.2644
  583MOL0     C78574   0.369   0.173   0.339 -0.1745 -0.2109 -0.4419
  583MOL0     C78575   0.440   0.238   0.246 -0.3025  0.0295  0.6264
  583MOL0     C78576   0.582   0.221   0.227 -0.0370 -1.2480 -0.9964
  583MOL0     C78577   0.649   0.150   0.327 -1.1383 -1.7117  0.5672
  583MOL0     O78578   0.787   0.142   0.305 -0.3715 -0.3051 -0.5598
  583MOL0     C78579   0.861   0.031   0.349 -0.1529 -0.9107  1.0293
  583MOL0     C78580   1.004   0.034   0.293 -0.4292  0.3010 -0.0165
  583MOL0     C78581   1.102   0.151   0.334 -0.1383  0.4270  0.0033
  583MOL0     C78582   1.250   0.135   0.275  0.6394  0.1338 -0.3333
  583MOL0     C78583   1.331   0.050   0.373  0.0015  0.8218  0.7298
  583MOL0     C78584   1.474   0.060   0.333 -0.4074 -0.2671 -0.1950
  583MOL0     C78585   1.522   0.054   0.180  1.2365 -0.3827 -0.0658
  583MOL0     C78586   1.659  -0.003   0.164 -1.2279  0.8201 -0.6385
  583MOL0     N78587   1.759   0.075   0.236  0.1884 -0.2769  0.1559
  583MOL0     C78588   1.832   0.170   0.176 -0.0029  1.3746 -0.3786
  583MOL0     C78589   1.923   0.200   0.271 -0.2567  0.0815  0.5393
  583MOL0     C78590   2.023   0.310   0.245  0.7002  0.1587  0.1243
  583MOL0     C78591   2.175   0.281   0.266  0.5223  0.3053  0.4699
  583MOL0     C78592   2.212   0.295   0.418  1.2818 -0.4861  0.6871
  583MOL0     C78593   2.349   0.244   0.449 -0.0392 -0.2304  0.4157
  583MOL0     O78594   2.437   0.331   0.373 -0.2757  1.1214  0.8148
  583MOL0     C78595   2.521   0.407   0.446 -0.7323 -0.2409 -0.1681
  583MOL0     C78596   2.644   0.442   0.395 -0.4564  0.5587 -0.0125
  583MOL0     C78597   2.734   0.510   0.463 -0.7912  0.0396 -0.3323
  583MOL0     C78598   2.864   0.530   0.400 -0.9718 -0.7274 -0.4687
  583MOL0     C78599   2.705   0.570   0.592  0.8034 -0.7407  0.2396
  583MOL0     C78600   2.795   0.646   0.678  0.4126 -0.9944 -0.4503
  583MOL0     O78601   2.741   0.734   0.771  0.0760 -0.5663 -0.2231
  583MOL0     C78602   2.810   0.770   0.891 -0.4586  0.9307  0.5127
  583MOL0     C78603   2.803   0.898   0.942 -0.1722  0.0830  0.4234
  583MOL0     C78604   2.864   0.935   1.058 -0.9689  0.2325 -0.1996
  583MOL0     C78605   2.941   0.844   1.127  0.1320  1.1850  0.1266
  583MOL0     O78606   2.996   0.877   1.244  0.7090  0.0315 -0.5459
  583MOL0     C78607   3.092   0.795   1.312  1.0439 -0.1761 -0.3620
  583MOL0     C78608   3.030   0.683   1.401 -0.8384  0.1113 -0.7553
  583MOL0     C78609   3.129   0.595   1.478 -0.1486 -0.5983  0.4210
  583MOL0     C78610   3.060   0.503   1.578  0.4172 -0.2367  0.0881
  583MOL0     C78611   2.978   0.387   1.512  0.1273 -0.4995 -0.0980
  583MOL0     C78612   3.071   0.281   1.458 -1.6405 -0.6459  0.4327
  583MOL0     C78613   2.973   0.191   1.376  0.0991 -0.6489 -0.5834
  583MOL0     C78614   3.040   0.057   1.351 -0.3349 -0.0720  0.1482
  583MOL0    Cl78615   3.205   0.078   1.278  0.2030  0.3347 -0.1247
  583MOL0     C78616   2.960   0.716   1.068 -0.4537  0.4887  0.2292
  583MOL0     C78617   2.897   0.681   0.954  0.1153  0.6030 -0.6996
  583MOL0     O78618   2.915   0.618   0.667  0.6476  0.5139 -0.0140
  583MOL0     C78619   2.573   0.557   0.639 -0.6771  0.1076 -0.2812
  583MOL0     C78620   2.487   0.476   0.561 -1.4824  0.4990  0.7853
  583MOL0     N78621   1.901   0.134   0.389  1.1128  0.6586  0.9566
  583MOL0     N78622   1.797   0.062   0.368  0.6050 -0.0691  0.3767
  583MOL0     C78623   0.581   0.081   0.419  0.3007  0.4632 -0.7021
  583MOL0     C78624   0.439   0.084   0.424 -0.3147 -0.3063  1.0898
  583MOL0     C78625   0.012   0.137   0.342  1.0319  0.2388  0.7546
  583MOL0     C78626  -0.008   0.187   0.207 -0.3459  0.5890  0.0033
  583MOL0     C78627  -0.135   0.174   0.144  0.1986 -0.5893 -0.5345
  583MOL0     C78628  -0.244   0.129   0.222  0.5106 -0.6186 -0.6911
  583MOL0     O78629  -0.370   0.092   0.171  0.0186  0.0534 -0.2014
  583MOL0     C78630  -0.449   0.185   0.088 -0.2764 -0.2342 -0.4003
  583MOL0     C78631  -0.516   0.108  -0.023  0.0889  0.6570 -0.1828
  583MOL0     C78632  -0.415   0.054  -0.123 -0.6001  0.5821  0.5084
  583MOL0     C78633  -0.466  -0.036  -0.239  0.4401 -0.0073 -0.7615
  583MOL0     C78634  -0.583   0.027  -0.303 -0.2613 -0.5543 -0.6910
  583MOL0     C78635  -0.662   0.072  -0.376 -0.0525 -0.3923  0.4604
  583MOL0     C78636  -0.224   0.090   0.355  0.0191 -0.2834 -0.0691
  583MOL0     C78637  -0.103   0.103   0.421  0.1419  0.1278 -0.1909
  583MOL0     H78638   0.384   0.288   0.168  1.3472  0.8591 -0.0800
  583MOL0     H78639   0.625   0.270   0.141 -0.2139  0.1882 -0.3102
  583MOL0     H78640   0.863   0.010   0.456 -0.6268  0.6584  1.3746
  583MOL0     H78641   0.819  -0.056   0.298  0.7755 -0.3635 -0.7631
  583MOL0     H78642   1.054  -0.062   0.302  0.0012  0.4989 -0.2273
  583MOL0     H78643   0.986   0.054   0.187 -1.4011 -2.4771 -0.4360
  583MOL0     H78644   1.062   0.245   0.295 -1.7355  0.4926  1.6518
  583MOL0     H78645   1.101   0.162   0.443 -2.4821 -2.2938  0.3692
  583MOL0     H78646   1.238   0.085   0.179  0.3375 -1.6423  0.5937
  583MOL0     H78647   1.296   0.234   0.264  1.6171 -0.2399  0.3292
  583MOL0     H78648   1.304   0.074   0.476  0.2164 -1.5439  1.4090
  583MOL0     H78649   1.306  -0.057   0.373  2.6188  0.1069 -0.9015
  583MOL0     H78650   1.511   0.151   0.381 -1.6694 -1.4442  3.3711
  583MOL0     H78651   1.519  -0.029   0.379  0.0672  0.2092  0.2723
  583MOL0     H78652   1.459  -0.006   0.113  3.0505 -2.4264 -0.0751
  583MOL0     H78653   1.530   0.155   0.139 -1.4382  0.0624  0.3535
  583MOL0     H78654   1.697  -0.012   0.062 -1.1057 -0.7928 -0.4745
  583MOL0     H78655   1.667  -0.104   0.206 -2.2699  0.6766 -0.7524
  583MOL0     H78656   1.833   0.215   0.078  0.8441  1.0301 -0.5385
  583MOL0     H78657   2.023   0.341   0.140 -0.2219  0.2402  0.1452
  583MOL0     H78658   1.997   0.402   0.298 -1.1944 -0.5566  0.5130
  583MOL0     H78659   2.240   0.344   0.204  4.5388 -2.0479  1.8897
  583MOL0     H78660   2.200   0.176   0.246 -0.0236  0.0025  1.3349
  583MOL0     H78661   2.136   0.235   0.468 -1.7897  1.9383 -0.7969
  583MOL0     H78662   2.196   0.397   0.454 -1.1061 -0.7410  0.4988
  583MOL0     H78663   2.372   0.144   0.410  2.4603  0.7542 -0.9289
  583MOL0     H78664   2.370   0.242   0.556  1.6761 -1.7632  0.0969
  583MOL0     H78665   2.661   0.426   0.289  2.9905  3.5997 -0.1033
  583MOL0     H78666   2.871   0.495   0.296 -2.1313 -1.0896 -0.4354
  583MOL0     H78667   2.879   0.638   0.396  2.1037 -0.9201  1.6835
  583MOL0     H78668   2.949   0.477   0.445 -1.1677 -0.2453  0.5003
  583MOL0     H78669   2.752   0.979   0.890 -0.1798  0.4174  0.9335
  583MOL0     H78670   2.859   1.039   1.086  1.9328  0.2982  0.3966
  583MOL0     H78671   3.161   0.765   1.233 -2.9320 -0.2623 -4.1665
  583MOL0     H78672   3.150   0.847   1.388  1.4877 -0.3078 -0.6052
  583MOL0     H78673   2.967   0.725   1.480 -1.5347  0.9324 -1.7226
  583MOL0     H78674   2.969   0.609   1.349 -0.1624 -2.1931  1.5469
  583MOL0     H78675   3.192   0.670   1.528 -0.1140  1.8378 -2.9497
  583MOL0     H78676   3.191   0.542   1.405  0.7421 -0.3631  0.9927
  583MOL0     H78677   3.135   0.462   1.646 -3.1711 -3.4249  2.5675
  583MOL0     H78678   2.994   0.560   1.644 -0.3510 -1.1241  0.1085
  583MOL0     H78679   2.927   0.434   1.427 -0.7668 -0.6334  0.3473
  583MOL0     H78680   2.906   0.339   1.579 -0.6461  1.4000  0.5249
  583MOL0     H78681   3.150   0.313   1.389 -2.3119 -0.5518 -0.3106
  583MOL0     H78682   3.122   0.230   1.540  0.1689 -0.7749 -0.7239
  583MOL0     H78683   2.948   0.243   1.283 -0.5382 -1.3294 -0.8020
  583MOL0     H78684   2.878   0.187   1.429  0.1393 -1.0429 -0.5367
  583MOL0     H78685   2.974  -0.007   1.291  1.3325 -2.5270  0.8043
  583MOL0     H78686   3.055   0.007   1.447 -0.1742 -0.3256 -0.0080
  583MOL0     H78687   3.014   0.641   1.125 -3.3070 -0.7134  1.5492
  583MOL0     H78688   2.921   0.579   0.926  0.1856  0.2510  0.5848
  583MOL0     H78689   2.532   0.605   0.728 -2.1861 -0.0546 -0.8724
  583MOL0     H78690   2.386   0.472   0.600 -2.1360 -1.9679 -0.9421
  583MOL0     H78691   0.631   0.011   0.484  2.4932  1.2496 -1.4499
  583MOL0     H78692   0.389   0.019   0.496  3.2624 -1.1066  3.0884
  583MOL0     H78693   0.078   0.218   0.149 -0.8088  0.5255 -0.7319
  583MOL0     H78694  -0.134   0.201   0.039  2.1376  1.6212 -0.0176
  583MOL0     H78695  -0.529   0.235   0.145 -1.5886 -5.0478  2.5906
  583MOL0     H78696  -0.378   0.258   0.051  1.9542 -1.7250  0.7257
  583MOL0     H78697  -0.588   0.176  -0.069 -2.1051 -0.1476  1.8586
  583MOL0     H78698  -0.578   0.029   0.020 -2.1860  1.6935 -1.4006
  583MOL0     H78699  -0.330   0.013  -0.069  2.1909  2.6840 -1.9455
  583MOL0     H78700  -0.364   0.141  -0.166  1.6996 -1.9873 -2.4152
  583MOL0     H78701  -0.507  -0.123  -0.187  0.8254 -0.0315 -0.4908
  583MOL0     H78702  -0.390  -0.067  -0.312  1.3762  0.7958 -0.1620
  583MOL0     H78703  -0.743   0.086  -0.445  0.1515  0.3300  0.3609
  583MOL0     H78704  -0.315   0.070   0.410  0.6115 -2.6347  0.1565
  583MOL0     H78705  -0.099   0.063   0.522  2.8108 -2.7533 -1.2732
  584MOL0     O78706   6.753  10.892   7.433 -0.3246 -0.5876 -0.2317
  584MOL0     C78707   6.878  10.899   7.452  0.8208  0.4945  0.2346
  584MOL0     O78708   6.951  10.836   7.543 -0.1892 -0.0502 -0.0386
  584MOL0     C78709   6.884  10.755   7.634 -0.2242 -1.3322  0.4313
  584MOL0     C78710   6.928  10.748   7.769  0.6975  0.0061  0.0088
  584MOL0     C78711   6.854  10.678   7.867 -0.3552  0.6853  0.1018
  584MOL0     C78712   6.747  10.589   7.827  0.5873 -0.8931  0.1489
  584MOL0     O78713   6.667  10.521   7.913  0.1031  0.3260  0.0457
  584MOL0     C78714   6.605  10.605   8.015 -0.5155 -0.4410  0.4609
  584MOL0     C78715   6.539  10.517   8.119 -0.0866  0.0203  0.1456
  584MOL0     C78716   6.620  10.395   8.148 -0.4964  0.2022  0.1817
  584MOL0     C78717   6.745  10.433   8.234 -0.5949  0.4609 -0.1819
  584MOL0     C78718   6.811  10.321   8.313  0.0376 -0.1542 -0.0701
  584MOL0     C78719   6.927  10.252   8.255 -0.7717  0.2519  0.4652
  584MOL0     C78720   6.897  10.178   8.128  0.9282 -0.0643 -0.2271
  584MOL0     C78721   6.913  10.260   8.001 -0.2499 -0.0187  0.3656
  584MOL0     N78722   6.828  10.214   7.876  0.5375 -0.2300 -1.0693
  584MOL0     C78723   6.824  10.280   7.754  0.1653 -0.4691 -0.6285
  584MOL0     C78724   6.761  10.199   7.668 -0.7546  0.3086 -0.2135
  584MOL0     C78725   6.750  10.227   7.516 -0.0854  0.4917 -0.3044
  584MOL0     C78726   6.698  10.095   7.447  0.7650 -0.3649  0.1304
  584MOL0     C78727   6.540  10.072   7.455 -1.2642 -0.2835 -0.6964
  584MOL0     C78728   6.453  10.164   7.378  0.4158 -0.1465 -0.4125
  584MOL0     O78729   6.310  10.139   7.389 -0.0131  0.5805  0.7233
  584MOL0     C78730   6.248  10.176   7.505  0.4163  0.2221  0.1864
  584MOL0     C78731   6.298  10.251   7.612  0.6711  0.5431 -0.0636
  584MOL0     C78732   6.222  10.289   7.720 -0.2092 -0.0277  0.5455
  584MOL0     C78733   6.289  10.379   7.823 -1.4202  0.1614 -0.1995
  584MOL0     C78734   6.084  10.272   7.713  0.0815  0.6612 -0.1192
  584MOL0     C78735   5.993  10.328   7.809 -0.0704  0.1363 -0.0708
  584MOL0     O78736   5.877  10.368   7.757  0.6325 -0.3904  0.0021
  584MOL0     C78737   5.781  10.420   7.828  0.7798  0.1512 -0.7990
  584MOL0     C78738   5.667  10.344   7.882 -0.3020 -0.7801 -0.5716
  584MOL0     C78739   5.555  10.414   7.927 -0.4354 -0.3479 -0.3954
  584MOL0     C78740   5.569  10.548   7.962  0.3828  0.2728  0.4586
  584MOL0     O78741   5.458  10.618   8.015 -0.0005 -0.4407 -0.2160
  584MOL0     C78742   5.433  10.578   8.153  0.1957 -0.7884  0.0186
  584MOL0     C78743   5.304  10.637   8.213  0.7448  0.2870 -1.0270
  584MOL0     C78744   5.176  10.609   8.133 -0.2250 -0.6664 -1.1360
  584MOL0     C78745   5.048  10.660   8.220  0.1310  0.0196  0.2321
  584MOL0     C78746   4.932  10.673   8.125 -0.8935  0.7365  1.0782
  584MOL0     C78747   4.797  10.703   8.194  0.1937  0.0942 -0.1910
  584MOL0     C78748   4.690  10.698   8.092  0.9158 -0.7921  0.1705
  584MOL0     C78749   4.555  10.763   8.142  0.4032  0.4796  0.4652
  584MOL0    Cl78750   4.574  10.940   8.129 -0.0688 -0.2323  0.2608
  584MOL0     C78751   5.686  10.614   7.941  0.4641 -0.1725  0.2528
  584MOL0     C78752   5.789  10.555   7.871 -0.9714  0.1681 -0.0181
  584MOL0     O78753   6.036  10.349   7.924  0.0987  0.0682 -0.0946
  584MOL0     C78754   6.034  10.185   7.611 -0.3628  0.3812 -0.2444
  584MOL0     C78755   6.115  10.137   7.508 -0.4685  0.2854  0.3939
  584MOL0     N78756   6.716  10.087   7.740  0.0173  0.0906 -0.2634
  584MOL0     N78757   6.755  10.106   7.862  0.1908  0.3855 -0.4990
  584MOL0     C78758   6.707  10.598   7.694  0.3577 -0.9101 -0.6562
  584MOL0     C78759   6.774  10.679   7.596 -0.2098  0.3100  0.6540
  584MOL0     C78760   6.959  10.964   7.358 -0.1710  0.5089 -0.4527
  584MOL0     C78761   7.096  10.983   7.388 -0.2447 -0.2639 -0.6653
  584MOL0     C78762   7.174  11.053   7.290 -1.3902  0.3584  0.4496
  584MOL0     C78763   7.125  11.109   7.172  1.3266 -0.8157  0.3604
  584MOL0     O78764   7.206  11.180   7.087  0.3800  0.1556 -0.2357
  584MOL0     C78765   7.147  11.264   6.987  0.9146  0.7719 -0.0698
  584MOL0     C78766   7.199  11.404   7.016 -0.7670 -0.4095  0.4281
  584MOL0     C78767   7.141  11.465   7.143  0.4013 -0.9912 -0.6804
  584MOL0     C78768   6.997  11.520   7.117  0.3047  0.0039 -0.3679
  584MOL0     C78769   6.955  11.614   7.223 -0.2274  1.2677  0.0819
  584MOL0     C78770   6.887  11.671   7.307 -0.3874  0.1300 -0.3754
  584MOL0     C78771   6.991  11.084   7.152  1.3598  0.6111  0.9533
  584MOL0     C78772   6.908  11.010   7.236  0.1089  1.2902 -1.0295
  584MOL0     H78773   7.004  10.819   7.798  0.7306  0.4990 -1.2230
  584MOL0     H78774   6.889  10.694   7.969 -2.7960 -4.1078  1.9800
  584MOL0     H78775   6.685  10.666   8.058  1.1200 -2.7027  0.7649
  584MOL0     H78776   6.527  10.669   7.973  0.8543  2.3127  1.8154
  584MOL0     H78777   6.522  10.578   8.208 -2.0916  1.0772 -0.8988
  584MOL0     H78778   6.448  10.476   8.074  2.0176 -3.0844 -1.6501
  584MOL0     H78779   6.576  10.321   8.215 -0.9227 -0.0431 -0.3565
  584MOL0     H78780   6.629  10.337   8.055 -4.7095 -0.3683 -0.0499
  584MOL0     H78781   6.820  10.495   8.185 -0.3648  1.0067  0.8390
  584MOL0     H78782   6.696  10.496   8.308 -3.2146 -3.8445  2.2065
  584MOL0     H78783   6.850  10.372   8.401  1.6745  0.3468 -1.0466
  584MOL0     H78784   6.726  10.263   8.350 -0.5526  1.3784  1.0935
  584MOL0     H78785   7.011  10.321   8.238 -0.1190 -0.3362  1.2081
  584MOL0     H78786   6.959  10.168   8.318 -1.0882 -1.2369 -1.2839
  584MOL0     H78787   6.964  10.093   8.110 -0.2611 -0.5771 -2.7717
  584MOL0     H78788   6.797  10.138   8.143  1.5530 -1.8557 -0.5843
  584MOL0     H78789   7.019  10.270   7.976 -0.5255 -0.3458 -1.0415
  584MOL0     H78790   6.883  10.364   8.013 -1.0251 -0.4115  2.1037
  584MOL0     H78791   6.876  10.370   7.722  3.0991 -1.6835  0.3913
  584MOL0     H78792   6.691  10.315   7.490 -1.4870 -1.0844 -2.8060
  584MOL0     H78793   6.853  10.246   7.484  0.2256  1.0471  0.9779
  584MOL0     H78794   6.750  10.005   7.482 -1.1933 -1.4308  0.4778
  584MOL0     H78795   6.698  10.102   7.337 -2.5201  1.1568  0.1187
  584MOL0     H78796   6.522  10.071   7.563  2.1166 -2.0642 -0.0105
  584MOL0     H78797   6.516   9.974   7.414 -1.3692 -0.7304  0.3771
  584MOL0     H78798   6.477  10.160   7.271 -1.5504  0.5658 -0.9113
  584MOL0     H78799   6.472  10.269   7.402 -1.9895  0.0249  1.0882
  584MOL0     H78800   6.399  10.290   7.607  0.2222  1.6891 -0.6107
  584MOL0     H78801   6.262  10.484   7.808 -3.0688  0.1698  2.3438
  584MOL0     H78802   6.269  10.355   7.928  0.1968 -1.8838 -0.3000
  584MOL0     H78803   6.398  10.374   7.820 -1.4542 -1.6203  0.3564
  584MOL0     H78804   5.669  10.236   7.873 -1.5958 -0.8308 -0.4921
  584MOL0     H78805   5.470  10.351   7.950  0.4120 -1.4167 -0.0978
  584MOL0     H78806   5.444  10.471   8.172 -2.6027 -1.4965 -1.8022
  584MOL0     H78807   5.509  10.629   8.213 -0.4971  0.1590  0.1011
  584MOL0     H78808   5.292  10.600   8.315 -3.0092  1.9884 -0.6612
  584MOL0     H78809   5.311  10.746   8.226  0.2498  0.4384 -1.9258
  584MOL0     H78810   5.170  10.507   8.094  0.0730 -0.8798 -0.6393
  584MOL0     H78811   5.183  10.671   8.043  1.3305 -0.2901 -0.7788
  584MOL0     H78812   5.022  10.578   8.289 -2.8793  0.6660  0.0015
  584MOL0     H78813   5.071  10.750   8.278 -0.2794 -0.4100  1.0877
  584MOL0     H78814   4.930  10.581   8.067  1.6930  0.3569  1.4654
  584MOL0     H78815   4.956  10.761   8.064 -0.3519  0.5778  1.0539
  584MOL0     H78816   4.774  10.629   8.271 -2.2036 -0.5385 -1.3976
  584MOL0     H78817   4.790  10.795   8.252 -1.8703  0.7151 -1.3270
  584MOL0     H78818   4.669  10.593   8.071  2.7975 -1.4471  1.3753
  584MOL0     H78819   4.718  10.740   7.995 -0.0552 -0.2919  0.0892
  584MOL0     H78820   4.539  10.722   8.242  3.5831  1.4253  1.4687
  584MOL0     H78821   4.474  10.727   8.077  0.9313  2.3931 -1.3413
  584MOL0     H78822   5.692  10.719   7.968 -0.9105 -0.0427  0.0986
  584MOL0     H78823   5.871  10.615   7.833 -1.5890  0.1609 -1.4348
  584MOL0     H78824   5.932  10.148   7.614  0.3405 -1.6537  2.3400
  584MOL0     H78825   6.079  10.075   7.427  0.0708 -0.9567  1.0889
  584MOL0     H78826   6.628  10.532   7.659  1.0525 -1.4859 -1.1648
  584MOL0     H78827   6.740  10.679   7.493  0.1494  0.7986  0.5319
  584MOL0     H78828   7.137  10.961   7.486  1.3347 -0.8370 -1.4270
  584MOL0     H78829   7.272  11.069   7.332 -1.5136  1.3097  0.3920
  584MOL0     H78830   7.188  11.249   6.887  0.5703  1.8403 -0.3903
  584MOL0     H78831   7.038  11.261   6.991  0.8639 -1.6112 -1.5009
  584MOL0     H78832   7.170  11.474   6.936  0.4143  1.8430  1.8455
  584MOL0     H78833   7.308  11.403   7.019 -0.6633  0.9699 -1.1321
  584MOL0     H78834   7.211  11.543   7.177  1.3984 -2.4096  0.6541
  584MOL0     H78835   7.138  11.399   7.230 -2.7681  1.9496  1.7470
  584MOL0     H78836   6.924  11.439   7.104  2.3251 -2.3564  1.7077
  584MOL0     H78837   7.002  11.580   7.026  2.0267 -1.6688 -1.4534
  584MOL0     H78838   6.831  11.717   7.386  0.9280 -2.4204  2.2234
  584MOL0     H78839   6.933  11.102   7.062 -1.3138 -0.1006  2.4212
  584MOL0     H78840   6.804  10.987   7.213 -0.0146  1.8691 -1.0736
  585MOL0     O78841   5.791   9.837   7.537 -0.0239  0.0886  0.6522
  585MOL0     C78842   5.860   9.751   7.483  0.3017  0.3200  0.4416
  585MOL0     O78843   5.808   9.665   7.393 -0.5306 -0.5456 -0.1260
  585MOL0     C78844   5.684   9.659   7.344  0.8110  0.0511  0.1523
  585MOL0     C78845   5.633   9.530   7.305  0.6391 -0.6516  0.8322
  585MOL0     C78846   5.503   9.513   7.243 -0.0226  0.5213  0.5497
  585MOL0     C78847   5.430   9.637   7.220  0.6637  0.5813 -0.7948
  585MOL0     O78848   5.301   9.649   7.168 -0.0077 -0.1330 -0.8676
  585MOL0     C78849   5.237   9.532   7.116  0.3119  0.2391  0.1144
  585MOL0     C78850   5.170   9.447   7.230  0.1671 -0.4713 -0.0020
  585MOL0     C78851   5.055   9.528   7.294  0.3662  0.2637  0.1605
  585MOL0     C78852   4.938   9.517   7.210  0.4745 -0.3273 -0.2873
  585MOL0     C78853   4.824   9.611   7.270  0.0353  0.2318  0.4792
  585MOL0     C78854   4.781   9.571   7.412  0.3967 -1.1739 -0.3903
  585MOL0     C78855   4.630   9.614   7.424 -0.3101  0.4245  0.8801
  585MOL0     C78856   4.607   9.763   7.393  0.5612  0.2474  0.2106
  585MOL0     N78857   4.461   9.783   7.393 -0.4761  0.3509  0.8737
  585MOL0     C78858   4.388   9.759   7.275  0.1051  0.1025  0.1622
  585MOL0     C78859   4.263   9.808   7.298  0.4661 -0.5102 -0.4512
  585MOL0     C78860   4.141   9.851   7.202  0.2522 -0.1186 -0.6866
  585MOL0     C78861   4.194   9.915   7.070 -1.4007 -0.1537  0.5480
  585MOL0     C78862   4.074   9.929   6.979 -0.1869  0.3784  0.9061
  585MOL0     C78863   4.114  10.006   6.861 -0.9427  0.5225  0.3218
  585MOL0     O78864   4.202   9.918   6.783 -0.1719 -0.3816  0.0791
  585MOL0     C78865   4.247   9.963   6.657 -0.3737  0.1517  0.2145
  585MOL0     C78866   4.266  10.097   6.630  0.4110 -0.4191 -0.7285
  585MOL0     C78867   4.313  10.147   6.514 -0.5790 -0.2718  0.0812
  585MOL0     C78868   4.342  10.292   6.508 -0.0432 -0.5093 -0.5685
  585MOL0     C78869   4.336  10.062   6.410  0.0602 -0.1119  0.6845
  585MOL0     C78870   4.357  10.122   6.275 -0.0631 -0.8348  0.3534
  585MOL0     O78871   4.481  10.175   6.259  0.5535  0.1597  0.0387
  585MOL0     C78872   4.482  10.283   6.180 -0.1712 -0.1298  0.3353
  585MOL0     C78873   4.504  10.404   6.227 -1.0376 -0.6368 -0.0223
  585MOL0     C78874   4.537  10.521   6.153  0.6606 -0.0238 -0.1338
  585MOL0     C78875   4.543  10.520   6.014 -1.4684 -0.3912 -0.8751
  585MOL0     O78876   4.581  10.636   5.949 -0.4677  0.1901  0.3883
  585MOL0     C78877   4.626  10.631   5.812 -0.0755 -0.5119  0.5517
  585MOL0     C78878   4.635  10.779   5.768 -0.8532  0.3165  0.0053
  585MOL0     C78879   4.735  10.799   5.651 -0.0136 -0.3219 -0.2065
  585MOL0     C78880   4.809  10.937   5.647 -0.1626 -0.0666  0.3534
  585MOL0     C78881   4.883  10.993   5.769 -0.0705  0.2720 -0.8406
  585MOL0     C78882   5.033  10.935   5.782  1.6700  0.3590  0.3610
  585MOL0     C78883   5.036  10.791   5.856  0.6967 -0.3879  0.6567
  585MOL0     C78884   5.180  10.750   5.892  0.0545 -0.4816  0.0504
  585MOL0    Cl78885   5.284  10.719   5.751 -0.1155  0.0848  0.4421
  585MOL0     C78886   4.517  10.398   5.951  0.2478  0.5876 -0.2550
  585MOL0     C78887   4.492  10.281   6.038 -0.4159 -0.3184  0.3562
  585MOL0     O78888   4.266  10.129   6.195 -0.1261 -0.4665 -0.1140
  585MOL0     C78889   4.317   9.924   6.426  0.5792 -0.6917 -0.3825
  585MOL0     C78890   4.270   9.875   6.547 -0.0416  0.5322  0.0073
  585MOL0     N78891   4.269   9.839   7.437  0.8385  0.3505  0.0917
  585MOL0     N78892   4.383   9.818   7.489 -0.3768 -0.6044  0.0257
  585MOL0     C78893   5.477   9.760   7.256 -0.3095 -0.4948 -0.9415
  585MOL0     C78894   5.598   9.770   7.323  0.1672  0.3086  0.1747
  585MOL0     C78895   6.001   9.739   7.509 -0.8696 -0.5874 -0.3401
  585MOL0     C78896   6.058   9.826   7.604 -0.3224  0.6651  0.2181
  585MOL0     C78897   6.190   9.813   7.652  0.2471  0.0610  0.0056
  585MOL0     C78898   6.273   9.712   7.602  0.7387 -0.4371 -0.4505
  585MOL0     O78899   6.409   9.715   7.640 -0.8451  0.8254 -0.2722
  585MOL0     C78900   6.508   9.686   7.527 -0.3563  0.3624  0.1934
  585MOL0     C78901   6.638   9.746   7.586  0.2761 -0.1754  0.2512
  585MOL0     C78902   6.683   9.670   7.709  0.0714  0.9571  0.1219
  585MOL0     C78903   6.735   9.528   7.676  0.6251 -0.0171  0.2312
  585MOL0     C78904   6.828   9.480   7.781  0.7634  0.4266 -0.0587
  585MOL0     C78905   6.898   9.450   7.872 -0.4776  0.8673  0.1043
  585MOL0     C78906   6.219   9.624   7.508  0.4103 -0.8486  0.8408
  585MOL0     C78907   6.085   9.639   7.465 -0.0435 -0.2905 -0.2734
  585MOL0     H78908   5.707   9.451   7.304  0.0817 -1.2260 -1.7607
  585MOL0     H78909   5.468   9.415   7.211  1.0725 -0.4485  2.1741
  585MOL0     H78910   5.163   9.569   7.045  1.3949 -0.0476 -1.1987
  585MOL0     H78911   5.297   9.468   7.051 -0.1725 -0.4815  0.3679
  585MOL0     H78912   5.143   9.347   7.196  1.3938 -0.0153 -2.5869
  585MOL0     H78913   5.250   9.446   7.304 -0.2827  0.5274  0.5202
  585MOL0     H78914   5.050   9.492   7.397 -1.5885 -0.0392 -0.0027
  585MOL0     H78915   5.089   9.630   7.316 -1.3795  0.1499  4.1764
  585MOL0     H78916   4.961   9.551   7.109  1.9265 -0.5792 -0.0518
  585MOL0     H78917   4.902   9.415   7.194  1.2414 -0.7904  0.8368
  585MOL0     H78918   4.857   9.716   7.270 -1.4349  0.7484 -1.1509
  585MOL0     H78919   4.736   9.610   7.205  0.4983 -2.0402 -0.1856
  585MOL0     H78920   4.793   9.463   7.424  0.3733 -0.8854  6.3244
  585MOL0     H78921   4.830   9.625   7.494  0.8499 -0.6336 -1.0084
  585MOL0     H78922   4.569   9.564   7.347 -2.3732  1.6805  1.6228
  585MOL0     H78923   4.586   9.586   7.520  0.1844  1.7881  1.5254
  585MOL0     H78924   4.639   9.789   7.292 -1.2830 -0.7709 -0.6959
  585MOL0     H78925   4.665   9.829   7.458 -0.4384  1.7058 -0.3126
  585MOL0     H78926   4.432   9.736   7.179  1.3591  2.6973  0.0478
  585MOL0     H78927   4.084   9.762   7.174  0.5578 -0.3648 -0.5392
  585MOL0     H78928   4.069   9.914   7.256 -0.8668 -2.2211  0.4366
  585MOL0     H78929   4.268   9.847   7.026 -0.7240  1.6014 -1.2096
  585MOL0     H78930   4.236  10.016   7.077  1.2093 -1.2409  1.6767
  585MOL0     H78931   3.994   9.988   7.024  0.6488  1.2015  1.3462
  585MOL0     H78932   4.038   9.830   6.947 -0.4040  0.4249  1.0019
  585MOL0     H78933   4.179  10.085   6.899 -0.3280 -0.3960  1.2256
  585MOL0     H78934   4.029  10.045   6.805 -2.1400  1.5516  2.7070
  585MOL0     H78935   4.253  10.162   6.716 -0.2875 -1.4691 -0.0241
  585MOL0     H78936   4.445  10.331   6.504 -0.6853  1.8687  2.0107
  585MOL0     H78937   4.288  10.331   6.421  0.6110  0.8632 -0.3936
  585MOL0     H78938   4.287  10.338   6.591 -0.1111 -0.9257 -0.3819
  585MOL0     H78939   4.517  10.415   6.334 -0.0202 -0.2677 -0.1687
  585MOL0     H78940   4.560  10.606   6.216 -0.6878 -0.7462  1.4015
  585MOL0     H78941   4.729  10.595   5.803  1.3104  3.4275 -2.8434
  585MOL0     H78942   4.555  10.571   5.755 -0.6341  0.7627 -0.1380
  585MOL0     H78943   4.540  10.827   5.743  0.0071  0.7310 -2.6998
  585MOL0     H78944   4.671  10.833   5.856 -1.3829  2.7724 -1.2034
  585MOL0     H78945   4.688  10.791   5.552 -1.1791  1.9630  0.0987
  585MOL0     H78946   4.806  10.716   5.643 -1.9346 -2.0367 -0.3278
  585MOL0     H78947   4.877  10.921   5.563 -0.1537  0.9053  0.1593
  585MOL0     H78948   4.744  11.017   5.611  2.6278  1.5723 -1.3673
  585MOL0     H78949   4.824  10.982   5.860 -3.2784 -1.7430 -2.9606
  585MOL0     H78950   4.903  11.099   5.751  3.5472  0.0141  0.8263
  585MOL0     H78951   5.081  10.917   5.686 -0.2076 -1.9785 -0.2391
  585MOL0     H78952   5.086  11.016   5.833  0.2745  2.2405 -1.0618
  585MOL0     H78953   4.983  10.714   5.798 -6.4216 -0.1140  5.4828
  585MOL0     H78954   4.973  10.806   5.944  0.5071  0.1577  0.4273
  585MOL0     H78955   5.176  10.657   5.950 -0.5374  0.0821  0.9423
  585MOL0     H78956   5.223  10.826   5.958  0.7091  0.0314 -0.9484
  585MOL0     H78957   4.510  10.381   5.845  0.1331 -0.9404 -0.0269
  585MOL0     H78958   4.478  10.193   5.975 -1.5546  0.4286 -0.4684
  585MOL0     H78959   4.350   9.858   6.347 -3.1346 -3.5074  0.1643
  585MOL0     H78960   4.274   9.767   6.552 -0.2747  0.3797 -2.2438
  585MOL0     H78961   5.419   9.850   7.239  1.5783  1.0844  0.4882
  585MOL0     H78962   5.621   9.865   7.369 -1.5947  1.2168 -0.7557
  585MOL0     H78963   6.004   9.913   7.638 -1.0218  0.5162 -0.4911
  585MOL0     H78964   6.229   9.885   7.723 -2.2514  1.6851 -0.1594
  585MOL0     H78965   6.506   9.579   7.504 -2.9493  0.2186  0.7951
  585MOL0     H78966   6.468   9.735   7.437 -1.3423 -2.4149 -0.9941
  585MOL0     H78967   6.630   9.853   7.610  0.7418 -0.7534  3.4134
  585MOL0     H78968   6.728   9.735   7.525 -1.8031 -3.6429 -2.5317
  585MOL0     H78969   6.608   9.651   7.787 -1.3844 -3.0158 -1.9898
  585MOL0     H78970   6.768   9.727   7.748  0.1752  1.0049 -0.1689
  585MOL0     H78971   6.783   9.521   7.578  2.3956 -4.1173  1.1911
  585MOL0     H78972   6.644   9.468   7.670  0.4065  0.3722 -0.4374
  585MOL0     H78973   6.969   9.409   7.942  0.5992 -1.2984 -2.0961
  585MOL0     H78974   6.282   9.553   7.454  2.7845  2.0890 -0.5486
  585MOL0     H78975   6.051   9.562   7.397  0.6882 -0.5474 -0.3508
  586MOL0     O78976   5.963   7.502   5.200 -0.4661  0.4414 -0.4502
  586MOL0     C78977   6.001   7.386   5.216  0.1581 -0.7483  0.1320
  586MOL0     O78978   6.095   7.344   5.309  0.0336 -0.1400  0.4843
  586MOL0     C78979   6.146   7.444   5.384 -0.0303 -0.1370 -0.2569
  586MOL0     C78980   6.235   7.539   5.331 -0.2114  0.3539 -0.2547
  586MOL0     C78981   6.292   7.637   5.408  0.4248  0.8512  0.6293
  586MOL0     C78982   6.252   7.655   5.543 -0.3418  0.8755  1.1097
  586MOL0     O78983   6.292   7.766   5.620  0.7725  0.1598  0.1228
  586MOL0     C78984   6.323   7.891   5.554 -0.3046 -0.1560  0.4909
  586MOL0     C78985   6.287   8.022   5.618  0.5231  0.5548  1.0010
  586MOL0     C78986   6.338   8.155   5.551  0.9760  0.2220 -0.2613
  586MOL0     C78987   6.258   8.275   5.603  0.4692 -0.4595 -0.0520
  586MOL0     C78988   6.121   8.288   5.553  0.9765  0.3617  0.5623
  586MOL0     C78989   6.059   8.414   5.608  0.6882  1.2647  0.2372
  586MOL0     C78990   5.901   8.418   5.589 -0.3016  0.4574 -0.5726
  586MOL0     C78991   5.836   8.544   5.650  0.0562  0.0739 -0.7167
  586MOL0     N78992   5.902   8.595   5.777  0.2445  0.4039  0.4659
  586MOL0     C78993   5.839   8.589   5.907  0.0307  0.5134 -0.4231
  586MOL0     C78994   5.912   8.669   5.994  0.0277 -0.3963  0.0406
  586MOL0     C78995   5.887   8.689   6.146  0.2346  0.5646 -0.8591
  586MOL0     C78996   5.749   8.757   6.192 -0.2201  0.3387  0.4021
  586MOL0     C78997   5.708   8.734   6.337  1.0926  0.0642 -0.9005
  586MOL0     C78998   5.825   8.775   6.430 -0.6777  0.0681 -0.5068
  586MOL0     O78999   5.885   8.904   6.409 -0.2728 -0.0190 -0.2297
  586MOL0     C79000   6.000   8.927   6.483 -0.6812 -0.1953  0.9212
  586MOL0     C79001   6.106   8.987   6.419 -0.5961  0.0605  0.0651
  586MOL0     C79002   6.230   9.018   6.471  0.8009 -0.2119 -0.0093
  586MOL0     C79003   6.327   9.087   6.375  0.0948 -0.0887  0.9423
  586MOL0     C79004   6.257   8.973   6.601  0.0603  0.3147 -0.7145
  586MOL0     C79005   6.378   9.020   6.669 -0.0812  0.9344 -0.4487
  586MOL0     O79006   6.502   9.019   6.612  0.6316 -0.5622  1.1137
  586MOL0     C79007   6.622   9.067   6.662  0.5264 -0.1578 -0.3300
  586MOL0     C79008   6.639   9.127   6.790  0.7315 -0.2377  0.6880
  586MOL0     C79009   6.758   9.173   6.831  0.3189  0.7602 -0.1628
  586MOL0     C79010   6.867   9.179   6.747  0.1516  0.3653 -0.3537
  586MOL0     O79011   6.988   9.236   6.795  0.0821  0.0309 -0.7581
  586MOL0     C79012   6.988   9.348   6.890 -0.4266 -0.7036 -0.4015
  586MOL0     C79013   7.130   9.382   6.932 -0.3711 -0.2622  0.0811
  586MOL0     C79014   7.129   9.477   7.054 -0.1278  0.0767 -0.1399
  586MOL0     C79015   7.265   9.501   7.113 -0.5063  0.0850 -0.0088
  586MOL0     C79016   7.271   9.644   7.184  0.4494  0.2851 -0.5816
  586MOL0     C79017   7.291   9.766   7.097  0.2232  0.0641 -0.6964
  586MOL0     C79018   7.421   9.777   7.020 -0.0203 -0.2429 -0.2700
  586MOL0     C79019   7.408   9.880   6.911  0.6860 -0.4791 -0.3124
  586MOL0    Cl79020   7.561   9.894   6.801 -0.1118  0.4925  0.3098
  586MOL0     C79021   6.851   9.138   6.613 -0.4707 -0.1582 -0.1246
  586MOL0     C79022   6.738   9.075   6.574  1.1004 -0.2522  0.0789
  586MOL0     O79023   6.362   9.061   6.785  0.1904  0.6576  0.2099
  586MOL0     C79024   6.157   8.899   6.674 -0.7641  0.4219 -0.7171
  586MOL0     C79025   6.031   8.877   6.612 -0.0168  0.2502  0.4834
  586MOL0     N79026   6.007   8.726   5.915 -0.1336 -0.5114  0.9458
  586MOL0     N79027   6.000   8.691   5.790  0.0623  0.0355 -0.2274
  586MOL0     C79028   6.164   7.564   5.597  0.6742  0.1444 -1.0773
  586MOL0     C79029   6.105   7.461   5.519 -0.7303 -0.3391 -0.1731
  586MOL0     C79030   5.940   7.274   5.131  1.3991 -0.2656  0.4029
  586MOL0     C79031   5.864   7.310   5.020  0.2970 -0.1841 -0.6230
  586MOL0     C79032   5.798   7.209   4.941 -0.1919  0.4493 -0.1112
  586MOL0     C79033   5.825   7.079   4.962  0.1576  0.4094 -0.3101
  586MOL0     O79034   5.772   6.976   4.888 -0.0974 -0.0068  0.0454
  586MOL0     C79035   5.715   7.000   4.757  0.2779  0.3189 -0.2584
  586MOL0     C79036   5.690   6.867   4.693 -0.1956 -0.3723 -0.2041
  586MOL0     C79037   5.574   6.787   4.747  0.7290  1.3353 -0.2129
  586MOL0     C79038   5.608   6.732   4.883  0.4666  0.6075 -0.1434
  586MOL0     C79039   5.507   6.625   4.914  0.7172 -0.1704  1.1056
  586MOL0     C79040   5.444   6.524   4.935 -1.0933  0.4557  0.4348
  586MOL0     C79041   5.904   7.040   5.072  0.4988  0.5108  0.9100
  586MOL0     C79042   5.953   7.136   5.153 -0.2621  0.8438 -0.3453
  586MOL0     H79043   6.258   7.535   5.226  1.8945  0.6469  0.1521
  586MOL0     H79044   6.353   7.709   5.353 -1.7698  3.2480  1.1470
  586MOL0     H79045   6.431   7.889   5.538 -0.2741  3.4599 -0.7333
  586MOL0     H79046   6.273   7.896   5.457 -1.9886  0.8034  1.3542
  586MOL0     H79047   6.178   8.025   5.619  0.4128  1.1474 -2.4914
  586MOL0     H79048   6.323   8.022   5.722 -0.0370  0.9262  1.1941
  586MOL0     H79049   6.443   8.148   5.579  0.6034 -0.3821  1.0541
  586MOL0     H79050   6.331   8.154   5.441  1.5626  0.4888 -0.3047
  586MOL0     H79051   6.256   8.265   5.712  0.1149 -2.2160 -0.1925
  586MOL0     H79052   6.303   8.369   5.572  3.4094 -2.6059 -3.0021
  586MOL0     H79053   6.115   8.278   5.445 -1.2708 -2.9855  0.8344
  586MOL0     H79054   6.050   8.217   5.596  0.2563 -0.5057 -1.9297
  586MOL0     H79055   6.089   8.401   5.712 -0.4295 -1.6544  0.2925
  586MOL0     H79056   6.101   8.497   5.550  3.3376 -1.0675 -1.4782
  586MOL0     H79057   5.862   8.404   5.488 -1.9757 -0.8581  0.1926
  586MOL0     H79058   5.863   8.327   5.638  0.1920 -0.2308 -1.4324
  586MOL0     H79059   5.730   8.527   5.666 -0.0431  1.5819  0.5274
  586MOL0     H79060   5.852   8.620   5.573  2.3462 -1.0201 -1.4098
  586MOL0     H79061   5.752   8.532   5.939 -0.9230  0.2468 -3.2213
  586MOL0     H79062   5.903   8.591   6.193  2.4327  1.9042  1.4415
  586MOL0     H79063   5.963   8.749   6.197  0.0031  1.2915 -1.3616
  586MOL0     H79064   5.666   8.714   6.135 -1.2738  4.4633 -1.6377
  586MOL0     H79065   5.753   8.861   6.156  1.0017  0.1729  0.0188
  586MOL0     H79066   5.684   8.627   6.342 -0.2947  0.3824 -0.3670
  586MOL0     H79067   5.615   8.784   6.362 -0.7298 -4.2188  2.2338
  586MOL0     H79068   5.907   8.703   6.429 -0.0547  0.7673 -0.9232
  586MOL0     H79069   5.791   8.768   6.534 -0.5326 -1.2984 -0.5301
  586MOL0     H79070   6.068   9.018   6.322 -0.7897 -1.2112 -0.2787
  586MOL0     H79071   6.402   9.009   6.356 -0.7873 -0.8035  0.3487
  586MOL0     H79072   6.281   9.123   6.283  0.9892  2.2029  1.3348
  586MOL0     H79073   6.379   9.176   6.412  4.2383 -1.5283 -0.8360
  586MOL0     H79074   6.551   9.160   6.845  1.5489  3.2257  0.1385
  586MOL0     H79075   6.752   9.213   6.931 -1.1005  1.4329 -0.4902
  586MOL0     H79076   6.939   9.435   6.846  0.2682  1.1070  2.1956
  586MOL0     H79077   6.936   9.311   6.980 -0.3727  3.3358  1.5135
  586MOL0     H79078   7.161   9.287   6.978  0.0686 -0.2000 -0.0797
  586MOL0     H79079   7.198   9.415   6.853 -1.3398 -1.3363 -1.2557
  586MOL0     H79080   7.070   9.440   7.139  0.2274 -2.2066 -0.8165
  586MOL0     H79081   7.086   9.571   7.020 -2.5778 -0.3957  1.3893
  586MOL0     H79082   7.290   9.427   7.189  2.6004  1.5998  0.6051
  586MOL0     H79083   7.338   9.498   7.031 -2.1882 -1.7287 -1.5349
  586MOL0     H79084   7.361   9.637   7.244 -2.5073  1.4738  4.5620
  586MOL0     H79085   7.190   9.656   7.256  1.1408  1.7935 -0.0170
  586MOL0     H79086   7.211   9.766   7.023 -1.0155 -1.0595  0.5783
  586MOL0     H79087   7.282   9.863   7.148 -3.2089  1.0906 -2.8999
  586MOL0     H79088   7.455   9.682   6.978  2.5743 -0.0085  1.0750
  586MOL0     H79089   7.511   9.799   7.079 -0.3153  1.1664 -0.3071
  586MOL0     H79090   7.389   9.972   6.967 -1.7428 -1.1742  0.0973
  586MOL0     H79091   7.327   9.864   6.840  1.3504 -1.1527 -0.9425
  586MOL0     H79092   6.933   9.148   6.542 -0.9448  0.8950 -0.5429
  586MOL0     H79093   6.727   9.039   6.473  0.7757  0.2160 -0.0540
  586MOL0     H79094   6.167   8.865   6.776  1.8067  1.2026 -0.6304
  586MOL0     H79095   5.964   8.823   6.678  0.4233 -1.3674 -0.3456
  586MOL0     H79096   6.116   7.578   5.693 -0.1298  2.5152 -1.7405
  586MOL0     H79097   6.023   7.402   5.557 -2.9254  1.2942 -2.0972
  586MOL0     H79098   5.848   7.412   4.988 -1.2265  0.3442  1.5477
  586MOL0     H79099   5.734   7.239   4.860 -1.6631  0.3215  0.9661
  586MOL0     H79100   5.620   7.049   4.779 -1.3859 -2.4824 -0.7341
  586MOL0     H79101   5.789   7.067   4.712  0.3333  1.6406  1.6966
  586MOL0     H79102   5.779   6.803   4.689  0.5211  0.6428 -1.4624
  586MOL0     H79103   5.664   6.887   4.589  1.1466 -0.1315 -0.5191
  586MOL0     H79104   5.577   6.696   4.687 -0.1598 -0.9483  2.9786
  586MOL0     H79105   5.480   6.843   4.742 -1.1970 -1.7543 -1.3859
  586MOL0     H79106   5.611   6.816   4.953  0.0997 -0.1647  0.8188
  586MOL0     H79107   5.704   6.682   4.896  0.2876 -0.3190 -2.0077
  586MOL0     H79108   5.404   6.425   4.935  0.5661 -0.3939 -3.2875
  586MOL0     H79109   5.928   6.937   5.095  2.2089  0.1243 -2.1103
  586MOL0     H79110   6.004   7.097   5.241  0.8969  0.6084 -1.0982
  587MOL0     O79111   0.796   2.439   8.211  0.5709  0.5135 -0.2424
  587MOL0     C79112   0.793   2.317   8.231  0.5698 -0.6148 -0.0336
  587MOL0     O79113   0.698   2.237   8.168 -0.0591  0.6540  0.1342
  587MOL0     C79114   0.581   2.295   8.127 -0.0283 -0.0568 -0.7476
  587MOL0     C79115   0.477   2.305   8.218 -0.0705 -1.4381 -0.7614
  587MOL0     C79116   0.363   2.377   8.177  0.5819  0.7961  0.3677
  587MOL0     C79117   0.357   2.435   8.042 -0.0969  0.6793  0.4213
  587MOL0     O79118   0.236   2.487   7.995  0.4040 -0.6373  0.1370
  587MOL0     C79119   0.229   2.539   7.867 -0.1388 -0.1679 -0.6516
  587MOL0     C79120   0.097   2.616   7.850  0.6728  0.1180 -0.0368
  587MOL0     C79121   0.091   2.701   7.720 -0.2622  0.0380  0.6404
  587MOL0     C79122  -0.050   2.760   7.694 -0.1029  0.1876 -0.6227
  587MOL0     C79123  -0.149   2.665   7.634 -0.3898  0.7181 -0.1019
  587MOL0     C79124  -0.284   2.726   7.605  0.6934  0.0277  0.2168
  587MOL0     C79125  -0.382   2.627   7.541 -0.5990  0.0803 -0.0645
  587MOL0     C79126  -0.521   2.681   7.556  0.0216 -0.2567 -0.3350
  587MOL0     N79127  -0.555   2.783   7.458  0.5027 -0.7444  1.0547
  587MOL0     C79128  -0.522   2.922   7.459  0.2181  0.4353 -0.4270
  587MOL0     C79129  -0.553   2.958   7.328  0.5126  0.3005 -0.4000
  587MOL0     C79130  -0.512   3.089   7.269 -0.4041 -0.7437 -0.0891
  587MOL0     C79131  -0.350   3.102   7.264  0.6646  1.1271 -0.1851
  587MOL0     C79132  -0.289   3.008   7.155 -0.8165 -0.4668 -0.2164
  587MOL0     C79133  -0.149   3.047   7.134  0.0960 -0.3638 -0.0055
  587MOL0     O79134  -0.057   2.998   7.228 -0.0915  0.6757 -1.0566
  587MOL0     C79135   0.068   3.049   7.210 -0.5068  0.5829 -0.5577
  587MOL0     C79136   0.110   3.133   7.097 -0.9078  0.1814 -0.0043
  587MOL0     C79137   0.243   3.175   7.095  0.5075  0.0333 -0.4110
  587MOL0     C79138   0.274   3.279   6.985  0.4477  0.4485  0.8178
  587MOL0     C79139   0.336   3.151   7.203 -0.4703 -0.7954 -0.0780
  587MOL0     C79140   0.461   3.228   7.218 -0.4121 -0.0458  0.2246
  587MOL0     O79141   0.547   3.244   7.113  0.3366 -0.7939  0.3249
  587MOL0     C79142   0.651   3.333   7.101  0.0913 -0.1543 -0.9778
  587MOL0     C79143   0.745   3.355   7.207 -0.5806  0.0521  0.6938
  587MOL0     C79144   0.855   3.429   7.178 -0.5611 -0.2951 -0.7234
  587MOL0     C79145   0.876   3.498   7.057  0.5805 -0.6791 -0.8590
  587MOL0     O79146   0.984   3.583   7.058  0.2658 -0.3407  0.0820
  587MOL0     C79147   0.995   3.690   6.963 -0.1937 -0.1596 -0.1967
  587MOL0     C79148   1.096   3.665   6.851 -1.5895 -1.1958 -0.9027
  587MOL0     C79149   1.080   3.764   6.734 -0.0347 -0.1811  0.7380
  587MOL0     C79150   1.178   3.768   6.617  0.0722  1.4658 -0.3548
  587MOL0     C79151   1.111   3.811   6.491  0.3209 -0.0091 -0.0529
  587MOL0     C79152   1.017   3.711   6.419  0.1987 -0.1290  0.6253
  587MOL0     C79153   1.064   3.565   6.416 -0.4962  0.2182  0.2607
  587MOL0     C79154   1.016   3.491   6.284 -0.7642  0.6787 -0.3339
  587MOL0    Cl79155   1.076   3.561   6.129 -0.1192 -0.1588 -0.0337
  587MOL0     C79156   0.781   3.481   6.953 -0.2074 -0.0860 -0.5385
  587MOL0     C79157   0.668   3.400   6.978  0.3868 -0.0952  0.4766
  587MOL0     O79158   0.486   3.264   7.335 -0.2251 -0.4382  0.8352
  587MOL0     C79159   0.300   3.066   7.304  0.1957  1.2626 -0.3290
  587MOL0     C79160   0.165   3.009   7.304 -1.0149 -0.3007  0.4547
  587MOL0     N79161  -0.608   2.852   7.265  0.4140 -0.2607 -0.0888
  587MOL0     N79162  -0.619   2.753   7.339 -0.3145  0.5773  0.8557
  587MOL0     C79163   0.470   2.435   7.967  0.0982 -0.5036  0.2128
  587MOL0     C79164   0.582   2.367   8.007 -0.4837  0.1890 -0.3321
  587MOL0     C79165   0.904   2.259   8.295 -0.0267  0.4891  0.1642
  587MOL0     C79166   0.897   2.115   8.308  1.0217 -0.0855 -0.3266
  587MOL0     C79167   1.012   2.057   8.363  0.4822 -0.0145  0.1913
  587MOL0     C79168   1.138   2.122   8.382  0.8286 -0.3416  0.4821
  587MOL0     O79169   1.263   2.062   8.393  0.8746  0.1401 -0.2829
  587MOL0     C79170   1.249   1.943   8.476  0.1430  0.1241  0.6680
  587MOL0     C79171   1.381   1.912   8.552  0.3136  0.5397 -1.4342
  587MOL0     C79172   1.513   1.895   8.487 -0.3511  1.0881  0.3716
  587MOL0     C79173   1.634   1.934   8.580  0.5541  0.5399  0.0491
  587MOL0     C79174   1.748   1.969   8.497  0.1427  1.0350 -0.1495
  587MOL0     C79175   1.848   2.023   8.452  0.5769 -0.0331  0.1855
  587MOL0     C79176   1.136   2.259   8.371  0.2635  0.1667  0.6881
  587MOL0     C79177   1.022   2.329   8.328  0.1330  0.0056 -0.0595
  587MOL0     H79178   0.475   2.249   8.312  0.5454  1.6800  1.2595
  587MOL0     H79179   0.271   2.380   8.234  0.1224 -0.7909 -0.2395
  587MOL0     H79180   0.304   2.617   7.853 -0.0228 -0.1373  0.1123
  587MOL0     H79181   0.239   2.458   7.794 -1.2447 -2.4168  1.5385
  587MOL0     H79182   0.027   2.532   7.841  2.8333 -1.9903  1.5480
  587MOL0     H79183   0.073   2.681   7.935 -2.0558 -0.3485 -0.3672
  587MOL0     H79184   0.159   2.787   7.714  1.3592 -1.2128 -5.0030
  587MOL0     H79185   0.123   2.642   7.634 -0.2081  0.7069  0.1894
  587MOL0     H79186  -0.098   2.784   7.790 -0.3450 -0.1631 -0.6557
  587MOL0     H79187  -0.050   2.853   7.636 -4.2151 -0.1502 -1.4851
  587MOL0     H79188  -0.100   2.627   7.543  0.6876 -1.1442  1.1845
  587MOL0     H79189  -0.164   2.581   7.703  1.2640  1.4365  1.1949
  587MOL0     H79190  -0.324   2.752   7.703 -1.3584 -2.2580  0.0656
  587MOL0     H79191  -0.268   2.819   7.548 -0.1664 -0.0100 -0.0920
  587MOL0     H79192  -0.344   2.606   7.440  0.9476  1.3841  0.1861
  587MOL0     H79193  -0.387   2.538   7.603 -0.3924  0.4790  0.5338
  587MOL0     H79194  -0.521   2.727   7.655 -0.1725  0.0343 -0.4678
  587MOL0     H79195  -0.594   2.602   7.535  0.9154 -0.7414 -1.6962
  587MOL0     H79196  -0.471   2.974   7.539  2.7128 -0.2584 -1.4601
  587MOL0     H79197  -0.563   3.099   7.172 -0.3666 -1.0869 -0.1433
  587MOL0     H79198  -0.540   3.173   7.333 -1.2841 -0.5439 -0.7143
  587MOL0     H79199  -0.297   3.099   7.360 -0.7745 -0.1110  0.6222
  587MOL0     H79200  -0.335   3.204   7.228 -6.7619  2.1270 -2.0021
  587MOL0     H79201  -0.349   3.013   7.064 -2.0583  2.2135  0.6360
  587MOL0     H79202  -0.290   2.910   7.202  2.4630 -0.3512  0.3336
  587MOL0     H79203  -0.144   3.156   7.132  3.6785 -0.3447  2.2628
  587MOL0     H79204  -0.129   3.013   7.032  0.2183  1.8813 -0.7780
  587MOL0     H79205   0.041   3.151   7.016 -1.5496 -2.3859 -0.1029
  587MOL0     H79206   0.184   3.318   6.937  0.3053 -2.0882 -1.1548
  587MOL0     H79207   0.332   3.363   7.025 -0.8448  2.1680 -0.7497
  587MOL0     H79208   0.336   3.234   6.908  0.0999 -0.6755  1.1813
  587MOL0     H79209   0.730   3.304   7.302 -0.4697 -0.9933  0.1632
  587MOL0     H79210   0.916   3.445   7.266 -1.3953  2.2270 -0.5274
  587MOL0     H79211   0.897   3.714   6.920  0.2513  0.6377 -0.7967
  587MOL0     H79212   1.026   3.783   7.011 -0.8290 -0.8083  1.5279
  587MOL0     H79213   1.189   3.700   6.898 -0.7286  0.7586 -3.7945
  587MOL0     H79214   1.097   3.556   6.845 -2.0153 -1.2017 -0.9121
  587MOL0     H79215   1.088   3.867   6.767 -1.4395  0.9772 -2.1365
  587MOL0     H79216   0.978   3.766   6.692 -0.6135  1.2481  2.1335
  587MOL0     H79217   1.257   3.842   6.636  2.5299 -1.3120  1.2304
  587MOL0     H79218   1.227   3.670   6.612 -1.6215  0.6522 -2.0943
  587MOL0     H79219   1.178   3.854   6.417 -0.3706  0.9118 -0.1626
  587MOL0     H79220   1.045   3.894   6.518  1.7615  1.0338  0.3397
  587MOL0     H79221   0.919   3.716   6.468 -0.1066 -0.9084  0.1216
  587MOL0     H79222   1.007   3.746   6.315  1.1642 -0.2082  0.4973
  587MOL0     H79223   1.018   3.505   6.495 -1.8319 -0.0168 -0.6663
  587MOL0     H79224   1.173   3.574   6.424 -0.6512  3.4811  0.0747
  587MOL0     H79225   0.907   3.499   6.286 -0.7967  0.8741 -1.7248
  587MOL0     H79226   1.041   3.385   6.291 -1.2897  0.6682  3.9609
  587MOL0     H79227   0.792   3.534   6.859 -1.2536  0.2204 -0.4908
  587MOL0     H79228   0.602   3.376   6.896 -0.4473 -2.9622  1.8418
  587MOL0     H79229   0.366   3.037   7.385  0.6543 -1.4627 -1.5759
  587MOL0     H79230   0.119   2.949   7.382 -0.1203  2.0910  2.9851
  587MOL0     H79231   0.478   2.467   7.863  2.2814 -1.7167 -0.0359
  587MOL0     H79232   0.667   2.373   7.940 -1.3000 -1.6900 -1.6123
  587MOL0     H79233   0.813   2.062   8.264  1.9487 -0.8973 -1.1672
  587MOL0     H79234   1.013   1.949   8.370  1.4155 -0.0469 -0.2895
  587MOL0     H79235   1.166   1.957   8.546 -0.4200  0.6123 -0.0799
  587MOL0     H79236   1.230   1.861   8.407 -0.2060 -0.0318  0.9458
  587MOL0     H79237   1.364   1.820   8.607  1.5082  1.7057  1.0727
  587MOL0     H79238   1.388   1.987   8.631 -0.4007 -1.5384  0.7148
  587MOL0     H79239   1.503   1.957   8.397 -3.0616  0.1637 -0.0644
  587MOL0     H79240   1.536   1.790   8.467  2.0664  2.1652 -3.6381
  587MOL0     H79241   1.653   1.848   8.645  0.8477  0.2299 -0.4404
  587MOL0     H79242   1.605   2.021   8.640 -0.3735 -0.9645  1.8649
  587MOL0     H79243   1.945   2.062   8.427  2.3441 -2.2865  2.9858
  587MOL0     H79244   1.229   2.306   8.403  2.3143 -3.2682  0.3081
  587MOL0     H79245   1.028   2.437   8.312  2.1417  0.0148  0.5840
  588MOL0     O79246   1.581   2.316   7.580  1.0405 -0.5303  0.4716
  588MOL0     C79247   1.558   2.431   7.626  0.3523  0.0500  0.6748
  588MOL0     O79248   1.439   2.501   7.587 -0.2519 -0.2819 -0.3421
  588MOL0     C79249   1.355   2.446   7.497 -0.5146 -0.0905  0.5942
  588MOL0     C79250   1.368   2.469   7.359  0.2181  0.1874 -0.6265
  588MOL0     C79251   1.273   2.404   7.274  0.6000  0.5733 -0.2449
  588MOL0     C79252   1.167   2.331   7.326  0.1438 -0.8902  0.5437
  588MOL0     O79253   1.074   2.296   7.233 -0.3749  0.6585 -0.0622
  588MOL0     C79254   0.941   2.259   7.284 -0.0773  1.4528 -0.1690
  588MOL0     C79255   0.929   2.104   7.257 -0.4460 -0.8528  0.3371
  588MOL0     C79256   0.790   2.044   7.279 -0.0118 -0.2776  0.0057
  588MOL0     C79257   0.807   1.897   7.296 -0.2664  0.3345 -0.2652
  588MOL0     C79258   0.665   1.829   7.313 -0.5810  0.0971 -0.7120
  588MOL0     C79259   0.643   1.776   7.458  0.2282  0.1061  0.9762
  588MOL0     C79260   0.497   1.723   7.468  0.6458  0.2096 -0.5582
  588MOL0     C79261   0.458   1.718   7.621  0.1936  0.5532  0.8656
  588MOL0     N79262   0.332   1.646   7.644 -0.5393  0.0122 -0.2570
  588MOL0     C79263   0.258   1.579   7.549  0.5249 -0.2509 -0.2186
  588MOL0     C79264   0.153   1.527   7.618  0.0648 -0.7693  0.7550
  588MOL0     C79265   0.030   1.470   7.538 -0.0647 -0.1094  0.1218
  588MOL0     C79266   0.015   1.320   7.502  0.0478 -0.2709 -0.0508
  588MOL0     C79267   0.105   1.255   7.403 -0.0741 -0.1939  0.3297
  588MOL0     C79268   0.042   1.117   7.368 -0.4164 -1.2934  0.0415
  588MOL0     O79269   0.084   1.018   7.468 -0.7495  0.7499  0.1600
  588MOL0     C79270  -0.008   0.943   7.532 -0.0227 -0.4020  0.2814
  588MOL0     C79271   0.024   0.882   7.653 -0.5526  0.0080  0.5353
  588MOL0     C79272  -0.062   0.805   7.733  0.5854 -0.1313  0.7499
  588MOL0     C79273  -0.018   0.759   7.868 -0.4456  0.2482  0.8590
  588MOL0     C79274  -0.182   0.765   7.673  0.3298 -0.6250  0.7083
  588MOL0     C79275  -0.284   0.695   7.744 -0.2310 -0.1190  0.1203
  588MOL0     O79276  -0.241   0.572   7.805 -0.3887  0.0616 -0.6213
  588MOL0     C79277  -0.336   0.501   7.871  0.7063 -0.6775  0.3026
  588MOL0     C79278  -0.406   0.550   7.976  0.7842 -0.1316  0.1153
  588MOL0     C79279  -0.489   0.466   8.051  0.0844  0.8191  0.1521
  588MOL0     C79280  -0.501   0.325   8.032 -0.3115 -0.0916  0.0543
  588MOL0     O79281  -0.576   0.260   8.126 -0.1517  0.2411 -1.1955
  588MOL0     C79282  -0.546   0.120   8.142  1.4501  0.0569 -0.1096
  588MOL0     C79283  -0.611   0.096   8.284 -0.1028  0.1898 -0.2891
  588MOL0     C79284  -0.764   0.118   8.275  0.2634 -0.7154  0.1946
  588MOL0     C79285  -0.843   0.085   8.407 -0.6830  0.4538 -0.0817
  588MOL0     C79286  -0.993   0.085   8.398  0.7906  0.8595  0.3249
  588MOL0     C79287  -1.049  -0.033   8.320 -0.5169  0.6684 -0.2018
  588MOL0     C79288  -1.066  -0.158   8.403 -0.5349  0.0692 -0.7225
  588MOL0     C79289  -1.160  -0.259   8.333  0.1876 -0.6730  0.2626
  588MOL0    Cl79290  -1.155  -0.411   8.420 -0.5300  0.2826 -0.0123
  588MOL0     C79291  -0.434   0.279   7.920  0.4985 -0.9921 -0.3953
  588MOL0     C79292  -0.348   0.368   7.842 -0.1191  0.1827  0.4406
  588MOL0     O79293  -0.396   0.753   7.756 -0.0687  0.1480 -0.3380
  588MOL0     C79294  -0.208   0.813   7.542  0.2621  0.8786 -0.4637
  588MOL0     C79295  -0.126   0.896   7.474 -0.4351 -0.3783  0.7686
  588MOL0     N79296   0.172   1.553   7.753 -0.3264 -0.6765  0.0132
  588MOL0     N79297   0.284   1.609   7.769  0.6817 -0.1207 -0.4169
  588MOL0     C79298   1.162   2.315   7.466  0.1021  0.4478  0.3224
  588MOL0     C79299   1.258   2.363   7.550 -0.2255  0.1275  1.4264
  588MOL0     C79300   1.633   2.489   7.741 -0.2071 -0.2049 -0.1989
  588MOL0     C79301   1.753   2.435   7.788  0.2376 -0.1308  0.1173
  588MOL0     C79302   1.807   2.474   7.905 -0.0989  0.3715 -0.4144
  588MOL0     C79303   1.763   2.585   7.977  0.8118  0.5118  0.1107
  588MOL0     O79304   1.810   2.629   8.090  0.0481  0.4293  0.3384
  588MOL0     C79305   1.953   2.627   8.108  0.2938  0.5171 -0.3615
  588MOL0     C79306   1.988   2.719   8.214 -0.6354  0.1305  0.2205
  588MOL0     C79307   1.949   2.679   8.356  0.2490  0.3039  0.0772
  588MOL0     C79308   2.030   2.749   8.468 -0.6426  0.1848 -0.1408
  588MOL0     C79309   1.994   2.889   8.478  0.4655 -0.5390  0.2677
  588MOL0     C79310   1.971   3.005   8.464  0.4481  0.1711 -0.1177
  588MOL0     C79311   1.648   2.645   7.924  0.2129 -0.0979 -1.0457
  588MOL0     C79312   1.588   2.608   7.804  0.1707 -0.7425  0.0490
  588MOL0     H79313   1.457   2.521   7.325  1.7429 -0.8843  1.4608
  588MOL0     H79314   1.287   2.420   7.167 -1.2618 -4.0183 -1.4122
  588MOL0     H79315   0.923   2.275   7.391 -0.4786 -1.6258  0.3137
  588MOL0     H79316   0.863   2.311   7.228 -0.4078  1.5615  0.3874
  588MOL0     H79317   0.949   2.083   7.152  1.7423 -1.9239  0.9024
  588MOL0     H79318   1.010   2.052   7.309  0.6012  0.7350  0.3655
  588MOL0     H79319   0.746   2.090   7.368  0.3654 -0.3179  0.2148
  588MOL0     H79320   0.727   2.061   7.191  0.9798 -1.1797 -0.9025
  588MOL0     H79321   0.872   1.870   7.213  0.7710  0.8372  0.3549
  588MOL0     H79322   0.862   1.870   7.387 -1.4530  0.5378  0.5484
  588MOL0     H79323   0.584   1.903   7.308  0.2121  1.1827  1.1109
  588MOL0     H79324   0.659   1.748   7.240  2.1353 -1.2520  0.4432
  588MOL0     H79325   0.709   1.690   7.471  2.5571  1.1436 -2.6377
  588MOL0     H79326   0.662   1.855   7.532 -1.8916 -0.2370  1.9583
  588MOL0     H79327   0.424   1.791   7.423  0.1010 -1.6300 -2.6485
  588MOL0     H79328   0.489   1.628   7.414  1.7763 -2.7022  3.8707
  588MOL0     H79329   0.442   1.817   7.665 -1.0300 -0.0399  1.8114
  588MOL0     H79330   0.539   1.674   7.680  1.1718 -0.2101 -0.9645
  588MOL0     H79331   0.255   1.582   7.441  1.1854 -2.1201 -0.3303
  588MOL0     H79332  -0.063   1.491   7.591 -0.3019  1.0971 -0.7225
  588MOL0     H79333   0.021   1.520   7.441 -3.7162 -1.1689 -0.2273
  588MOL0     H79334  -0.083   1.316   7.454  0.9321 -0.0022 -1.9916
  588MOL0     H79335   0.027   1.260   7.593  3.7994 -0.3532 -0.4361
  588MOL0     H79336   0.208   1.239   7.438 -0.2411 -0.5986  0.6440
  588MOL0     H79337   0.107   1.323   7.317  1.7567 -2.3676 -1.4643
  588MOL0     H79338   0.088   1.080   7.276  0.1874  0.0634 -0.2201
  588MOL0     H79339  -0.065   1.129   7.349 -0.4669  0.7810  1.3211
  588MOL0     H79340   0.126   0.903   7.684  1.2915  0.7344 -4.9173
  588MOL0     H79341  -0.029   0.650   7.867 -1.5881  0.3192 -1.3452
  588MOL0     H79342   0.085   0.790   7.884 -1.6855  4.0193  2.8461
  588MOL0     H79343  -0.085   0.807   7.940  0.0769  0.8070  0.9835
  588MOL0     H79344  -0.387   0.651   8.012  1.4984 -0.1913 -0.0741
  588MOL0     H79345  -0.542   0.506   8.138  0.8259  0.7141  0.6604
  588MOL0     H79346  -0.596   0.059   8.066  1.6376  2.8052 -2.5820
  588MOL0     H79347  -0.439   0.098   8.148  1.5918  0.6084 -0.6025
  588MOL0     H79348  -0.600  -0.012   8.301  0.6057  0.3897  0.5353
  588MOL0     H79349  -0.557   0.153   8.360  2.7676 -1.9615 -0.5684
  588MOL0     H79350  -0.793   0.048   8.196  0.2942  0.8061 -1.2261
  588MOL0     H79351  -0.780   0.218   8.234  1.5407 -0.7976 -0.5691
  588MOL0     H79352  -0.806  -0.006   8.455  2.0194  1.8044  0.5940
  588MOL0     H79353  -0.822   0.162   8.482 -2.4816 -1.1450  2.1983
  588MOL0     H79354  -1.038   0.171   8.347 -1.9285 -0.0794  0.9340
  588MOL0     H79355  -1.023   0.084   8.503  1.4915  0.8800  0.5249
  588MOL0     H79356  -1.145  -0.003   8.277  0.8415  2.6377 -2.0730
  588MOL0     H79357  -0.991  -0.077   8.239 -2.4937 -2.6871  0.0220
  588MOL0     H79358  -1.109  -0.141   8.503 -0.7780 -3.7956 -0.0158
  588MOL0     H79359  -0.974  -0.215   8.419 -1.1224 -0.5510  0.6204
  588MOL0     H79360  -1.118  -0.280   8.235  0.4899 -0.1862  0.2826
  588MOL0     H79361  -1.262  -0.220   8.334  0.7015  0.7153  1.1386
  588MOL0     H79362  -0.430   0.173   7.894  2.1902 -1.4165  1.2851
  588MOL0     H79363  -0.292   0.321   7.762 -0.0118  2.5455 -0.9519
  588MOL0     H79364  -0.300   0.783   7.493  0.8809  0.2084 -1.2338
  588MOL0     H79365  -0.160   0.936   7.380  3.4542  1.1548 -0.2063
  588MOL0     H79366   1.079   2.267   7.518 -3.6928  3.9356 -1.9149
  588MOL0     H79367   1.258   2.336   7.656 -2.9429  0.3443  1.5564
  588MOL0     H79368   1.784   2.354   7.722  1.8122  0.6289 -0.1336
  588MOL0     H79369   1.900   2.435   7.944 -0.8774 -2.2344 -0.9204
  588MOL0     H79370   1.997   2.531   8.136 -1.3324  0.5301  2.5923
  588MOL0     H79371   1.999   2.665   8.016  0.4786  0.9676 -0.0864
  588MOL0     H79372   1.947   2.816   8.186 -1.4900 -0.8389 -2.1606
  588MOL0     H79373   2.093   2.749   8.220 -0.5970 -0.0218  0.3173
  588MOL0     H79374   1.943   2.571   8.368 -3.9510  0.4487  0.4955
  588MOL0     H79375   1.845   2.704   8.378  0.7962  0.2005  3.1733
  588MOL0     H79376   2.136   2.736   8.448 -0.2706 -4.5092  3.2768
  588MOL0     H79377   2.022   2.695   8.563  2.0189 -0.5799 -0.2862
  588MOL0     H79378   1.961   3.111   8.475  3.5415  0.7247 -1.5860
  588MOL0     H79379   1.606   2.734   7.969 -0.2888 -0.1751 -1.3490
  588MOL0     H79380   1.512   2.658   7.746  1.5042 -0.9887 -2.0065
  589MOL0     O79381   2.076   8.738   3.379 -0.2881  0.3607  0.0762
  589MOL0     C79382   2.172   8.753   3.304 -0.2036 -0.0956 -0.2071
  589MOL0     O79383   2.163   8.759   3.168 -0.2922 -0.2165 -0.0342
  589MOL0     C79384   2.050   8.695   3.116 -0.3967  0.4472  0.4871
  589MOL0     C79385   2.077   8.587   3.032  0.2040  0.5208 -0.3522
  589MOL0     C79386   1.979   8.522   2.974 -0.0287  0.5514 -0.0947
  589MOL0     C79387   1.846   8.552   2.986 -0.3823 -0.2687  0.7106
  589MOL0     O79388   1.767   8.492   2.902  0.6434 -0.1237  0.0259
  589MOL0     C79389   1.634   8.533   2.858  0.3311 -0.3138  0.1790
  589MOL0     C79390   1.645   8.660   2.767 -0.1129  0.2928 -0.4867
  589MOL0     C79391   1.697   8.630   2.630  0.1361  1.1333  1.6928
  589MOL0     C79392   1.695   8.760   2.553 -0.4115 -0.0176  0.9947
  589MOL0     C79393   1.743   8.735   2.405 -0.0441  0.4209  0.1908
  589MOL0     C79394   1.625   8.720   2.303  0.6596  0.0631  0.1192
  589MOL0     C79395   1.683   8.695   2.169  0.0694 -0.0933  0.3435
  589MOL0     C79396   1.797   8.774   2.110  0.4037  0.7294 -0.5717
  589MOL0     N79397   1.765   8.920   2.125 -1.3661 -0.1046 -0.0201
  589MOL0     C79398   1.854   9.024   2.137 -0.5647  0.6720 -0.4133
  589MOL0     C79399   1.786   9.140   2.132  0.3769 -1.3456 -0.2358
  589MOL0     C79400   1.847   9.280   2.143 -0.4049 -0.0255  0.0514
  589MOL0     C79401   1.822   9.369   2.017 -0.3624 -0.0272 -0.3533
  589MOL0     C79402   1.874   9.313   1.882 -0.6814 -0.7946 -0.1414
  589MOL0     C79403   2.021   9.349   1.849  0.0653 -0.8877  0.5783
  589MOL0     O79404   2.125   9.300   1.941  0.4956  0.2021 -0.0642
  589MOL0     C79405   2.188   9.183   1.918 -0.8098 -0.1950 -0.5933
  589MOL0     C79406   2.118   9.072   1.866  0.0266  0.2379  0.7105
  589MOL0     C79407   2.191   8.947   1.847  0.6607 -0.5637 -0.2248
  589MOL0     C79408   2.099   8.830   1.825  0.3459  0.2212  0.4973
  589MOL0     C79409   2.327   8.925   1.883  0.1614  0.0122  0.3791
  589MOL0     C79410   2.417   8.808   1.867  0.3270 -0.4907 -0.6443
  589MOL0     O79411   2.506   8.792   1.967  0.5629  0.5111 -0.0888
  589MOL0     C79412   2.620   8.714   1.951 -0.3722  0.3613  1.0713
  589MOL0     C79413   2.659   8.650   2.073 -0.5032  0.2881 -0.2445
  589MOL0     C79414   2.776   8.573   2.068  0.3680 -0.2092  0.3048
  589MOL0     C79415   2.858   8.562   1.947 -0.9734 -0.1825  0.9646
  589MOL0     O79416   2.978   8.502   1.956 -0.3066  0.5387 -0.5115
  589MOL0     C79417   3.084   8.555   1.870 -0.0507 -0.3893 -0.7229
  589MOL0     C79418   3.221   8.519   1.921  0.1206 -0.2269  0.0011
  589MOL0     C79419   3.255   8.373   1.896 -0.9950 -0.0730  0.1771
  589MOL0     C79420   3.398   8.337   1.945  1.1091  0.1923  0.3549
  589MOL0     C79421   3.511   8.396   1.867 -0.3876  0.0561  0.0329
  589MOL0     C79422   3.512   8.382   1.712 -0.0648 -0.0439  0.4817
  589MOL0     C79423   3.507   8.239   1.656 -0.8267  0.5336  0.6853
  589MOL0     C79424   3.557   8.248   1.510 -1.0346  0.0524  1.4722
  589MOL0    Cl79425   3.458   8.359   1.401 -0.2376  0.1702 -0.7772
  589MOL0     C79426   2.803   8.626   1.831 -0.4589 -1.1974  0.6435
  589MOL0     C79427   2.690   8.703   1.830 -0.1810 -0.3211 -0.1217
  589MOL0     O79428   2.406   8.749   1.760  1.1556  0.4926 -0.9860
  589MOL0     C79429   2.381   9.040   1.944 -0.0532 -0.7748 -0.2710
  589MOL0     C79430   2.324   9.163   1.966  0.5120 -0.1808  0.0058
  589MOL0     N79431   1.653   9.107   2.110 -0.3830 -0.2268  0.7884
  589MOL0     N79432   1.640   8.983   2.108 -0.3405  0.4339 -0.0460
  589MOL0     C79433   1.811   8.648   3.081  0.1745 -0.4983  0.8356
  589MOL0     C79434   1.912   8.720   3.137  0.3997 -0.9811 -0.8967
  589MOL0     C79435   2.311   8.767   3.359  0.2646  1.1738  0.5596
  589MOL0     C79436   2.336   8.823   3.488 -0.7699 -0.5637 -0.5803
  589MOL0     C79437   2.462   8.820   3.537  0.1344 -0.2771 -0.8297
  589MOL0     C79438   2.573   8.760   3.468 -0.5040 -0.2028 -0.0940
  589MOL0     O79439   2.708   8.754   3.504  0.7295  0.1566  0.0719
  589MOL0     C79440   2.748   8.865   3.577  0.0910 -0.0921  1.0780
  589MOL0     C79441   2.815   8.989   3.504  0.0712  0.0397  0.5108
  589MOL0     C79442   2.906   9.065   3.601 -1.2747 -0.1541 -0.3819
  589MOL0     C79443   3.005   9.144   3.517 -0.0632 -0.2035  0.2473
  589MOL0     C79444   2.941   9.261   3.463 -0.5525 -0.1542  0.5600
  589MOL0     C79445   2.894   9.371   3.422 -0.4227 -0.4689 -0.1859
  589MOL0     C79446   2.544   8.713   3.341 -0.7609  0.2033 -0.3752
  589MOL0     C79447   2.423   8.716   3.283 -0.6078  0.7630 -0.5306
  589MOL0     H79448   2.179   8.564   3.003  1.3479  1.0922  2.7992
  589MOL0     H79449   2.006   8.427   2.928 -1.1556 -1.5129  3.1708
  589MOL0     H79450   1.588   8.451   2.801 -0.5256  0.7887 -0.7605
  589MOL0     H79451   1.589   8.549   2.956  4.2247  2.0296  1.7987
  589MOL0     H79452   1.541   8.692   2.756  0.1399  1.1181 -0.5846
  589MOL0     H79453   1.708   8.732   2.821  1.8814 -0.8203 -1.2088
  589MOL0     H79454   1.797   8.587   2.646 -0.1466  1.2637  4.3733
  589MOL0     H79455   1.643   8.551   2.578  2.4548  0.1139  0.6796
  589MOL0     H79456   1.594   8.800   2.540  0.7984  2.1526 -4.2992
  589MOL0     H79457   1.757   8.838   2.600 -1.2173  1.2711 -0.0045
  589MOL0     H79458   1.807   8.819   2.376 -0.5883  0.4919 -0.8351
  589MOL0     H79459   1.804   8.644   2.408 -3.5511 -2.1657 -0.4073
  589MOL0     H79460   1.570   8.631   2.337 -1.1482  1.5781  1.3145
  589MOL0     H79461   1.563   8.810   2.301  1.4212  0.6263  1.1291
  589MOL0     H79462   1.712   8.590   2.164  0.7216  0.0783  0.3168
  589MOL0     H79463   1.602   8.721   2.100  2.4371  1.8987 -1.9236
  589MOL0     H79464   1.814   8.748   2.005  1.0465 -1.3427 -0.0132
  589MOL0     H79465   1.890   8.755   2.164  0.4022 -2.3679 -1.4660
  589MOL0     H79466   1.962   9.016   2.140 -0.5993  0.3654  0.4262
  589MOL0     H79467   1.796   9.330   2.226  1.6037 -1.8007  2.5085
  589MOL0     H79468   1.955   9.281   2.161 -0.4195  1.4576  0.1337
  589MOL0     H79469   1.843   9.475   2.027 -2.7187  0.6543 -1.8242
  589MOL0     H79470   1.714   9.354   2.010 -0.8004  1.4854  2.0341
  589MOL0     H79471   1.822   9.364   1.800  0.8201  0.7805 -0.1623
  589MOL0     H79472   1.857   9.205   1.877  1.6311 -1.1528 -3.9351
  589MOL0     H79473   2.034   9.457   1.838 -0.1181 -0.6050  2.7997
  589MOL0     H79474   2.036   9.302   1.751  0.5612  1.6364 -0.6435
  589MOL0     H79475   2.015   9.083   1.836  0.6218  2.4279 -0.8059
  589MOL0     H79476   2.166   8.758   1.777  1.1233  1.0684  0.2783
  589MOL0     H79477   2.070   8.792   1.924  0.3681  0.8893  0.7722
  589MOL0     H79478   2.011   8.856   1.767  0.7711 -1.0573 -0.7551
  589MOL0     H79479   2.605   8.638   2.167  1.0621 -1.5447  0.4825
  589MOL0     H79480   2.802   8.522   2.160  0.8147 -1.6688 -0.6061
  589MOL0     H79481   3.075   8.518   1.768  0.0949 -2.1732 -0.1248
  589MOL0     H79482   3.071   8.663   1.873  1.4667 -0.1728 -0.9924
  589MOL0     H79483   3.292   8.586   1.872 -0.7319 -0.6399 -1.8729
  589MOL0     H79484   3.240   8.551   2.024 -1.6644  2.5718 -0.4378
  589MOL0     H79485   3.236   8.349   1.791 -0.7629 -2.9281  0.7018
  589MOL0     H79486   3.184   8.315   1.955 -1.4720  2.3693  2.1708
  589MOL0     H79487   3.400   8.372   2.048  2.2480  3.9969 -0.7917
  589MOL0     H79488   3.415   8.229   1.947  0.4660  0.0974  1.7290
  589MOL0     H79489   3.613   8.366   1.893  0.0804  0.4421 -1.2675
  589MOL0     H79490   3.513   8.505   1.875 -2.1038  0.0224  1.3481
  589MOL0     H79491   3.422   8.426   1.669 -1.0286 -3.7043 -1.6130
  589MOL0     H79492   3.589   8.444   1.665  0.5680 -1.9161 -1.0795
  589MOL0     H79493   3.422   8.171   1.665 -0.1733 -0.2075  1.4102
  589MOL0     H79494   3.578   8.185   1.719 -1.3056 -0.3596  0.4818
  589MOL0     H79495   3.568   8.150   1.461 -3.0226  1.0917 -1.3259
  589MOL0     H79496   3.661   8.283   1.511 -0.7475 -0.5023 -1.1087
  589MOL0     H79497   2.855   8.631   1.736 -3.1323  1.6472 -0.8458
  589MOL0     H79498   2.659   8.752   1.739 -2.1850  0.5134  0.9556
  589MOL0     H79499   2.486   9.032   1.974  0.4246 -0.4909 -1.8117
  589MOL0     H79500   2.376   9.247   2.011  0.5343 -1.6770  3.0730
  589MOL0     H79501   1.705   8.665   3.098 -0.7687 -3.2712 -1.5556
  589MOL0     H79502   1.875   8.803   3.197  0.2468 -1.1440 -0.7621
  589MOL0     H79503   2.250   8.863   3.541  1.3163  3.2604  0.2853
  589MOL0     H79504   2.460   8.853   3.641  0.5402 -3.1146  0.1701
  589MOL0     H79505   2.669   8.909   3.639  0.7731  2.6781  0.0885
  589MOL0     H79506   2.823   8.820   3.644 -0.0745  0.5443  1.7006
  589MOL0     H79507   2.750   9.056   3.447  0.2028 -2.0353 -2.2547
  589MOL0     H79508   2.872   8.952   3.418 -0.0935  1.8084 -0.3980
  589MOL0     H79509   2.975   9.001   3.656  1.4214  2.1417 -0.8288
  589MOL0     H79510   2.854   9.128   3.674 -1.6070  0.5398 -1.1828
  589MOL0     H79511   3.052   9.091   3.434  2.4793  2.9880 -0.5757
  589MOL0     H79512   3.088   9.178   3.580  0.4477  0.6213 -0.8423
  589MOL0     H79513   2.878   9.473   3.396 -0.1029 -0.1809  0.7294
  589MOL0     H79514   2.625   8.680   3.276 -0.1374  1.3998 -0.2443
  589MOL0     H79515   2.401   8.686   3.181  0.1157 -0.1027 -0.4350
  590MOL0     O79516   0.504  10.297   0.033  0.1206 -0.6296  0.6574
  590MOL0     C79517   0.602  10.345  -0.017 -0.2964 -0.8314  0.3248
  590MOL0     O79518   0.620  10.377  -0.146 -0.2248 -0.6748  0.4436
  590MOL0     C79519   0.512  10.344  -0.230  0.0140 -0.7503  0.4677
  590MOL0     C79520   0.489  10.215  -0.270  0.7636 -0.5926 -0.0489
  590MOL0     C79521   0.393  10.181  -0.371  1.2568  0.2296 -0.3922
  590MOL0     C79522   0.306  10.282  -0.430  0.6094 -0.2721 -0.3284
  590MOL0     O79523   0.207  10.262  -0.520  0.0512  0.1074  0.5931
  590MOL0     C79524   0.202  10.138  -0.603  0.5436  0.4571 -1.1392
  590MOL0     C79525   0.121  10.024  -0.542  0.5682 -0.2167  0.8602
  590MOL0     C79526   0.102   9.914  -0.647 -0.2859  0.4321  0.4297
  590MOL0     C79527   0.030   9.778  -0.604  0.2007 -0.8998 -0.8758
  590MOL0     C79528   0.018   9.683  -0.719  0.3038  0.6783  0.0384
  590MOL0     C79529   0.142   9.594  -0.738  0.3348 -0.2993  0.1995
  590MOL0     C79530   0.101   9.479  -0.831  0.5192 -0.0065 -0.5489
  590MOL0     C79531   0.196   9.358  -0.831  1.0689 -0.4962  0.0388
  590MOL0     N79532   0.333   9.385  -0.864  0.0354  0.2814 -0.2872
  590MOL0     C79533   0.441   9.324  -0.807 -0.0216  0.1097 -0.4273
  590MOL0     C79534   0.547   9.369  -0.880  0.7842  0.1390  0.1619
  590MOL0     C79535   0.693   9.313  -0.844  0.3833 -0.1256 -0.1000
  590MOL0     C79536   0.772   9.318  -0.977  0.7599  0.5057 -0.1166
  590MOL0     C79537   0.842   9.448  -1.003 -0.0467  0.2123 -0.6774
  590MOL0     C79538   0.982   9.441  -0.933  0.1346 -0.2250  0.4834
  590MOL0     O79539   1.043   9.561  -0.993  0.0690 -0.1849 -0.1153
  590MOL0     C79540   1.167   9.596  -0.949  0.5357  0.3865  0.1850
  590MOL0     C79541   1.239   9.516  -0.863  0.1322 -0.9958  0.0349
  590MOL0     C79542   1.366   9.553  -0.823 -0.5353 -0.1062 -0.4452
  590MOL0     C79543   1.433   9.472  -0.713 -0.2960  0.3629 -0.2540
  590MOL0     C79544   1.430   9.671  -0.878 -0.5623 -0.3203 -0.5614
  590MOL0     C79545   1.563   9.722  -0.852 -0.0414  0.2182  0.0520
  590MOL0     O79546   1.572   9.856  -0.850 -0.2073  0.0876  0.1586
  590MOL0     C79547   1.682   9.926  -0.812 -0.4201  0.1323  0.4459
  590MOL0     C79548   1.745  10.000  -0.919 -0.4519 -0.6038 -0.4916
  590MOL0     C79549   1.846  10.083  -0.875  0.0337 -0.9061 -0.4863
  590MOL0     C79550   1.881  10.107  -0.740  0.2004  0.2310  1.0261
  590MOL0     O79551   1.982  10.197  -0.715  0.0621 -0.5758  0.7234
  590MOL0     C79552   2.083  10.183  -0.616  0.4493 -0.3898  0.4387
  590MOL0     C79553   2.060  10.230  -0.469 -0.8304 -0.2116 -0.2874
  590MOL0     C79554   2.191  10.238  -0.388  0.6918  0.2221  0.2630
  590MOL0     C79555   2.169  10.321  -0.254  0.4173  0.4237  0.8560
  590MOL0     C79556   2.291  10.359  -0.174 -0.4356  0.1400  0.1447
  590MOL0     C79557   2.393  10.246  -0.174 -0.3807  0.0917  0.2703
  590MOL0     C79558   2.501  10.260  -0.078 -0.6281 -0.8083 -1.2714
  590MOL0     C79559   2.569  10.125  -0.066  0.1311  0.0167 -0.0076
  590MOL0    Cl79560   2.467  10.008   0.038 -0.0089  0.7996  0.1887
  590MOL0     C79561   1.813  10.035  -0.640  1.0144 -0.2517  0.2937
  590MOL0     C79562   1.711   9.937  -0.675  0.4614 -0.7554 -0.9472
  590MOL0     O79563   1.657   9.642  -0.869  0.0369  0.0816 -0.4080
  590MOL0     C79564   1.351   9.743  -0.968 -0.2745  0.3414  1.3951
  590MOL0     C79565   1.219   9.705  -1.005  0.0281 -0.0470 -0.0316
  590MOL0     N79566   0.501   9.447  -0.981  0.0431 -0.2115 -0.0598
  590MOL0     N79567   0.373   9.461  -0.969 -0.3338 -0.8412 -0.0858
  590MOL0     C79568   0.336  10.412  -0.393 -0.2954 -0.3841  0.1958
  590MOL0     C79569   0.434  10.441  -0.291  0.1263 -0.0604 -0.1209
  590MOL0     C79570   0.718  10.381   0.064 -0.0626 -0.1404 -0.3804
  590MOL0     C79571   0.835  10.428   0.003 -0.1028 -0.2240 -0.6508
  590MOL0     C79572   0.945  10.463   0.080  0.1674  0.2767 -0.1406
  590MOL0     C79573   0.947  10.451   0.217  0.1211 -0.3415 -0.1079
  590MOL0     O79574   1.059  10.503   0.281 -0.2249  0.6497 -0.2880
  590MOL0     C79575   1.053  10.490   0.428 -0.1609 -0.5978 -0.2196
  590MOL0     C79576   1.174  10.556   0.498 -0.1941 -0.5295  0.3508
  590MOL0     C79577   1.222  10.696   0.440  0.0841 -0.1422  0.8282
  590MOL0     C79578   1.324  10.759   0.543  0.5146  0.5033 -0.2883
  590MOL0     C79579   1.461  10.688   0.554  0.4631 -0.6329 -0.3168
  590MOL0     C79580   1.571  10.644   0.549  0.6540 -0.6115 -0.2992
  590MOL0     C79581   0.828  10.405   0.280  0.4155 -0.6404 -0.1228
  590MOL0     C79582   0.711  10.383   0.207 -0.7833  0.2111  0.2396
  590MOL0     H79583   0.545  10.142  -0.213  1.0969  0.4891  1.0435
  590MOL0     H79584   0.387  10.074  -0.388 -1.6896  0.7510 -3.4933
  590MOL0     H79585   0.152  10.172  -0.694  2.1453  0.4521 -2.0659
  590MOL0     H79586   0.303  10.104  -0.629  1.0402  0.2342  0.9406
  590MOL0     H79587   0.184   9.984  -0.462  2.1057 -0.5496 -0.4608
  590MOL0     H79588   0.023  10.067  -0.516  1.4142  3.6479 -1.5425
  590MOL0     H79589   0.056   9.961  -0.735  1.5587  1.4808 -0.0276
  590MOL0     H79590   0.205   9.890  -0.674  0.0174 -1.0535  2.6636
  590MOL0     H79591   0.073   9.730  -0.515  0.3584  2.0839  0.8195
  590MOL0     H79592  -0.071   9.816  -0.587  0.7115  0.5163 -0.8750
  590MOL0     H79593  -0.061   9.611  -0.695  1.5048 -0.9134 -0.5754
  590MOL0     H79594  -0.003   9.731  -0.815  3.6343  1.0570 -0.6200
  590MOL0     H79595   0.223   9.655  -0.780  0.8983  0.1529  1.8372
  590MOL0     H79596   0.177   9.564  -0.639  0.1194  1.7017  0.9463
  590MOL0     H79597   0.000   9.443  -0.806  0.2122  0.5212 -1.0024
  590MOL0     H79598   0.101   9.528  -0.929  0.9173  0.1897 -0.4524
  590MOL0     H79599   0.154   9.282  -0.897 -0.4654  1.4143 -1.3355
  590MOL0     H79600   0.189   9.313  -0.732  1.6900  1.1850  0.8925
  590MOL0     H79601   0.439   9.268  -0.714 -2.8995  1.4558  0.4301
  590MOL0     H79602   0.740   9.362  -0.758 -2.4799  2.8197 -0.0175
  590MOL0     H79603   0.679   9.211  -0.807  1.6971 -0.6524 -0.9823
  590MOL0     H79604   0.706   9.293  -1.060  0.4308 -0.1390  0.3298
  590MOL0     H79605   0.850   9.241  -0.978  0.7825  0.4340  2.3390
  590MOL0     H79606   0.780   9.524  -0.955 -3.5741 -2.2295 -0.9583
  590MOL0     H79607   0.853   9.470  -1.110 -1.2119  1.3606 -0.5898
  590MOL0     H79608   1.038   9.353  -0.966  1.9675  0.1047  2.4938
  590MOL0     H79609   0.972   9.426  -0.825 -0.3824 -0.3146  0.4271
  590MOL0     H79610   1.190   9.428  -0.821 -0.0154  0.7090  3.8474
  590MOL0     H79611   1.424   9.365  -0.730 -0.1914  0.2612  0.2940
  590MOL0     H79612   1.540   9.496  -0.714 -0.2275  0.0914 -1.9090
  590MOL0     H79613   1.395   9.495  -0.612 -0.9040 -0.1803 -0.3564
  590MOL0     H79614   1.716   9.987  -1.023  3.3341 -1.7021 -1.5917
  590MOL0     H79615   1.893  10.139  -0.956 -3.8636 -0.7356 -2.8736
  590MOL0     H79616   2.130  10.084  -0.621 -0.2055 -0.6595 -1.8873
  590MOL0     H79617   2.170  10.238  -0.654 -0.5794 -0.4404 -2.2157
  590MOL0     H79618   2.024  10.332  -0.479  1.0334  0.8994  2.9324
  590MOL0     H79619   1.982  10.172  -0.418 -0.8035  1.7948  2.2030
  590MOL0     H79620   2.256  10.297  -0.453 -1.6159  2.5401 -0.0644
  590MOL0     H79621   2.229  10.139  -0.360 -0.6532 -0.7614 -1.2367
  590MOL0     H79622   2.126  10.417  -0.286 -0.1286 -0.0009  0.2916
  590MOL0     H79623   2.107  10.266  -0.182 -0.3508  0.2391  0.0721
  590MOL0     H79624   2.273  10.388  -0.070  3.5598 -2.3217  1.7707
  590MOL0     H79625   2.332  10.453  -0.212 -0.6597  0.7423  1.3503
  590MOL0     H79626   2.347  10.148  -0.161  0.5125 -0.1888  1.5494
  590MOL0     H79627   2.436  10.239  -0.274  2.0253  0.5650  1.1788
  590MOL0     H79628   2.482  10.293   0.025  1.9137 -0.2276 -0.9085
  590MOL0     H79629   2.580  10.317  -0.128 -0.4398 -2.3711 -2.8698
  590MOL0     H79630   2.661  10.141  -0.010 -0.2275  3.1202 -0.1687
  590MOL0     H79631   2.582  10.074  -0.163 -0.9302 -1.7683  0.7253
  590MOL0     H79632   1.831  10.054  -0.535 -2.2706  1.2385  0.6979
  590MOL0     H79633   1.660   9.882  -0.596  1.6988  0.0717  0.4752
  590MOL0     H79634   1.386   9.838  -1.007 -4.1144  1.8132  1.0552
  590MOL0     H79635   1.157   9.770  -1.066 -1.5232  1.6151  3.0931
  590MOL0     H79636   0.296  10.495  -0.451 -1.3858  0.4449  2.0440
  590MOL0     H79637   0.464  10.544  -0.274  2.8425 -0.3199 -2.5673
  590MOL0     H79638   0.834  10.429  -0.105 -1.2503 -1.7545 -0.6920
  590MOL0     H79639   1.035  10.500   0.032  0.7017 -2.2176 -1.2334
  590MOL0     H79640   0.960  10.542   0.452 -0.8784 -0.7216 -2.4672
  590MOL0     H79641   1.040  10.384   0.450  1.8474 -0.6846  0.7688
  590MOL0     H79642   1.254  10.482   0.491 -2.6136 -3.1756 -1.8226
  590MOL0     H79643   1.148  10.579   0.602  0.7476 -1.2401  0.7555
  590MOL0     H79644   1.141  10.769   0.434 -0.1190 -0.1934  2.4684
  590MOL0     H79645   1.279  10.687   0.347  1.6583  3.7454  1.2073
  590MOL0     H79646   1.272  10.760   0.639 -1.6330  0.3343 -1.4040
  590MOL0     H79647   1.334  10.860   0.502 -1.1773  1.3072  1.1646
  590MOL0     H79648   1.661  10.586   0.554 -0.6084 -2.6216  0.6503
  590MOL0     H79649   0.828  10.392   0.388  1.8919 -0.7486 -0.1194
  590MOL0     H79650   0.629  10.365   0.277 -0.6537  0.0329  0.3490
  591MOL0     O79651   3.798   1.574   7.216  0.0683  0.7348  0.1104
  591MOL0     C79652   3.798   1.578   7.095  0.1876 -0.6302 -1.0581
  591MOL0     O79653   3.726   1.663   7.015 -0.6682  0.8763  0.5152
  591MOL0     C79654   3.624   1.741   7.056  0.6752 -0.4495 -0.0268
  591MOL0     C79655   3.581   1.841   6.970 -0.1896  1.2061  0.2407
  591MOL0     C79656   3.471   1.914   6.990  1.0634 -0.5461 -0.7711
  591MOL0     C79657   3.381   1.882   7.094  0.3056  0.6016 -0.1393
  591MOL0     O79658   3.283   1.979   7.121 -0.4418  0.2045 -1.0779
  591MOL0     C79659   3.178   1.942   7.213 -0.4230  1.3028 -0.1980
  591MOL0     C79660   3.075   1.843   7.159 -0.6919  0.4909  1.2176
  591MOL0     C79661   2.948   1.816   7.236  0.1419 -0.4421 -0.8618
  591MOL0     C79662   2.861   1.937   7.229  0.1164  0.4407  1.5297
  591MOL0     C79663   2.705   1.912   7.265 -0.4693  0.6827  0.4313
  591MOL0     C79664   2.608   2.032   7.256 -0.0523  0.9801 -0.3287
  591MOL0     C79665   2.632   2.144   7.355 -0.5158 -0.7786 -0.3630
  591MOL0     C79666   2.628   2.101   7.508  0.1688 -0.4284 -0.7818
  591MOL0     N79667   2.498   2.054   7.541  0.8744  0.4093 -0.2356
  591MOL0     C79668   2.389   2.136   7.555 -1.0724 -0.5813 -0.4342
  591MOL0     C79669   2.283   2.052   7.569  0.8421  0.2614  0.1128
  591MOL0     C79670   2.140   2.083   7.564  0.1100 -0.5462  0.0444
  591MOL0     C79671   2.091   2.079   7.414  0.1905 -0.1395 -0.1636
  591MOL0     C79672   2.095   1.938   7.351 -0.1738  0.5741 -0.1234
  591MOL0     C79673   2.017   1.832   7.435 -0.4263  0.4913  0.1989
  591MOL0     O79674   1.884   1.880   7.458  0.5325  0.8157 -0.1613
  591MOL0     C79675   1.812   1.805   7.537  1.1886 -0.0225  0.1417
  591MOL0     C79676   1.846   1.777   7.665 -0.9397 -0.3159 -0.3483
  591MOL0     C79677   1.784   1.678   7.740 -0.0111  0.2558  0.3184
  591MOL0     C79678   1.845   1.656   7.873 -0.0738 -0.4112  0.1406
  591MOL0     C79679   1.660   1.629   7.690  0.4280  0.5804  0.5936
  591MOL0     C79680   1.567   1.540   7.763  0.0472  0.5366  0.6120
  591MOL0     O79681   1.462   1.497   7.690 -0.1255  0.6391  1.2060
  591MOL0     C79682   1.372   1.415   7.754  0.1826  1.1394 -0.6257
  591MOL0     C79683   1.364   1.283   7.714 -0.1358 -0.2406  0.7315
  591MOL0     C79684   1.304   1.189   7.793 -0.1123  0.2211 -1.0087
  591MOL0     C79685   1.242   1.219   7.914  0.1289 -1.1178 -0.5131
  591MOL0     O79686   1.173   1.133   7.994 -0.3961 -0.7393  0.4333
  591MOL0     C79687   1.146   1.005   7.948  0.0854  0.3062 -0.4053
  591MOL0     C79688   1.032   1.009   7.853  0.9039 -0.2140 -0.3415
  591MOL0     C79689   0.911   1.079   7.909 -0.3282  0.0391 -0.0378
  591MOL0     C79690   0.790   1.059   7.810  0.0374 -0.7728  0.6820
  591MOL0     C79691   0.675   1.159   7.853 -0.2037  0.2266  0.4743
  591MOL0     C79692   0.551   1.133   7.779 -0.8671  0.9021 -0.9306
  591MOL0     C79693   0.430   1.194   7.842 -0.1054 -0.6150 -0.1558
  591MOL0     C79694   0.311   1.161   7.756 -0.0357 -0.0341  0.0230
  591MOL0    Cl79695   0.156   1.165   7.856  0.3026  0.0477 -0.3498
  591MOL0     C79696   1.218   1.351   7.936 -0.3447  0.0456 -0.2021
  591MOL0     C79697   1.285   1.453   7.860 -0.0429 -0.2629  0.2523
  591MOL0     O79698   1.575   1.528   7.882  0.5512 -0.0991 -0.1498
  591MOL0     C79699   1.613   1.673   7.563  1.0899  0.3411  0.4788
  591MOL0     C79700   1.691   1.755   7.493 -0.0485 -0.7935  0.5286
  591MOL0     N79701   2.335   1.925   7.585  0.3701  0.3049  0.0309
  591MOL0     N79702   2.460   1.924   7.561 -0.2661 -0.4243 -0.2025
  591MOL0     C79703   3.409   1.778   7.177 -0.3184 -0.0669 -0.7546
  591MOL0     C79704   3.530   1.706   7.161  0.4973  0.0200 -0.5040
  591MOL0     C79705   3.895   1.496   7.032  0.3085  0.6000  0.1779
  591MOL0     C79706   3.868   1.436   6.909 -0.3609  0.5897 -1.4985
  591MOL0     C79707   3.970   1.370   6.842  0.2059  0.5009 -0.3386
  591MOL0     C79708   4.107   1.371   6.889  0.0891  0.6720 -0.2783
  591MOL0     O79709   4.208   1.306   6.831  0.3633  0.8582  0.1570
  591MOL0     C79710   4.168   1.228   6.719 -0.1487  0.4148 -0.6479
  591MOL0     C79711   4.288   1.149   6.667  0.6420 -0.2610 -0.1042
  591MOL0     C79712   4.253   1.046   6.552 -0.1464 -0.4662 -0.4688
  591MOL0     C79713   4.304   1.103   6.415 -0.4184  0.1005 -0.2563
  591MOL0     C79714   4.452   1.114   6.417 -0.3992  0.1839  0.0486
  591MOL0     C79715   4.574   1.115   6.436 -0.5061 -0.6424 -0.8988
  591MOL0     C79716   4.130   1.423   7.009  0.4163 -0.1681 -0.0554
  591MOL0     C79717   4.027   1.491   7.074 -1.1333 -0.3759 -0.0842
  591MOL0     H79718   3.641   1.866   6.883 -1.0483 -2.8918 -1.7535
  591MOL0     H79719   3.442   1.992   6.921 -1.5635  0.5332  1.3297
  591MOL0     H79720   3.203   1.933   7.319 -1.9659  3.6857  0.4393
  591MOL0     H79721   3.116   2.032   7.219 -3.3991 -0.6490  0.7687
  591MOL0     H79722   3.057   1.877   7.057 -0.8506 -1.1050  0.6769
  591MOL0     H79723   3.124   1.745   7.157  0.7648  1.1605  2.4661
  591MOL0     H79724   2.900   1.723   7.201  1.2998 -1.4162  0.0494
  591MOL0     H79725   2.973   1.802   7.341 -0.3296 -2.6252 -0.9759
  591MOL0     H79726   2.903   2.001   7.307  2.6323 -0.6292  1.1820
  591MOL0     H79727   2.871   1.994   7.136 -0.1300  0.7461  1.6914
  591MOL0     H79728   2.668   1.835   7.197 -0.3876  1.1192 -0.1104
  591MOL0     H79729   2.695   1.871   7.366 -1.3771  0.0631  0.1084
  591MOL0     H79730   2.615   2.074   7.155  1.9894 -3.0005 -2.0559
  591MOL0     H79731   2.511   1.983   7.267  0.7962 -2.1202 -4.2229
  591MOL0     H79732   2.728   2.193   7.335 -1.2676  1.5172  1.2257
  591MOL0     H79733   2.558   2.224   7.346  0.6602  0.6787  1.8909
  591MOL0     H79734   2.664   2.181   7.574  1.0554 -1.2219 -0.2743
  591MOL0     H79735   2.717   2.038   7.521 -0.4236 -0.8617  1.7929
  591MOL0     H79736   2.403   2.244   7.556  0.3943 -0.6689  2.6547
  591MOL0     H79737   2.089   2.014   7.632 -1.3755 -0.7625 -1.2367
  591MOL0     H79738   2.119   2.185   7.598 -2.3510 -0.9530 -0.0898
  591MOL0     H79739   2.163   2.140   7.359  1.9613 -0.9641  1.1328
  591MOL0     H79740   1.993   2.118   7.388 -0.0255 -0.9656 -0.6188
  591MOL0     H79741   2.202   1.915   7.348  0.0414  1.5970 -1.4475
  591MOL0     H79742   2.053   1.942   7.250 -0.4542  3.1045  0.0212
  591MOL0     H79743   2.072   1.823   7.529 -0.0942  1.5484  0.1280
  591MOL0     H79744   2.019   1.729   7.398  0.2663  1.3755 -2.4428
  591MOL0     H79745   1.940   1.824   7.692 -2.3430  2.5012 -0.0659
  591MOL0     H79746   1.849   1.548   7.888  1.6806 -0.3040  0.6043
  591MOL0     H79747   1.946   1.696   7.882  0.2092 -0.8353 -0.9780
  591MOL0     H79748   1.780   1.701   7.949 -1.5847 -0.7979 -0.8722
  591MOL0     H79749   1.431   1.257   7.633  2.0599  2.1219  1.6557
  591MOL0     H79750   1.310   1.085   7.763  2.1137  1.0401 -3.8446
  591MOL0     H79751   1.233   0.948   7.914 -0.6061 -0.3446 -1.1163
  591MOL0     H79752   1.104   0.960   8.039 -1.7595  0.3314 -1.2054
  591MOL0     H79753   1.055   1.064   7.761  4.7215  2.2017  1.8365
  591MOL0     H79754   1.011   0.905   7.823  2.0063 -0.4368 -0.3714
  591MOL0     H79755   0.936   1.185   7.919  4.7460 -0.9544  0.6272
  591MOL0     H79756   0.879   1.034   8.003 -4.2165  1.7758 -0.3442
  591MOL0     H79757   0.832   1.081   7.712  2.3119 -1.5634  1.4247
  591MOL0     H79758   0.760   0.953   7.807 -0.8559 -0.5203 -2.0349
  591MOL0     H79759   0.714   1.261   7.844  0.0819  0.0790  0.0076
  591MOL0     H79760   0.670   1.145   7.962  2.5581  0.7537  0.7369
  591MOL0     H79761   0.575   1.181   7.684  1.1426  0.4317 -0.7152
  591MOL0     H79762   0.557   1.025   7.762  1.1515  1.1927 -2.3837
  591MOL0     H79763   0.445   1.301   7.829  0.5265 -0.9069 -2.1326
  591MOL0     H79764   0.418   1.157   7.944  0.4214 -0.2410  0.0458
  591MOL0     H79765   0.321   1.058   7.720  0.0014  0.5175 -1.6760
  591MOL0     H79766   0.306   1.236   7.676  3.4639 -0.3030 -0.6204
  591MOL0     H79767   1.148   1.378   8.015 -1.6351  0.3650 -1.4306
  591MOL0     H79768   1.267   1.558   7.878 -2.7490 -0.8126  1.0790
  591MOL0     H79769   1.508   1.664   7.536  0.3833 -0.1968  3.1411
  591MOL0     H79770   1.656   1.782   7.394  1.9054  1.2328  0.3100
  591MOL0     H79771   3.361   1.756   7.272 -0.8200  0.8316 -0.7973
  591MOL0     H79772   3.556   1.631   7.235 -1.8194 -1.4674 -1.0999
  591MOL0     H79773   3.770   1.437   6.862 -0.5419 -2.4442 -1.4143
  591MOL0     H79774   3.945   1.332   6.743  2.3472 -4.8223  0.8469
  591MOL0     H79775   4.082   1.163   6.738 -1.0425  0.4623 -3.9116
  591MOL0     H79776   4.142   1.302   6.643  1.1486 -0.7203 -2.2752
  591MOL0     H79777   4.323   1.094   6.755 -1.1551  0.3251  1.0248
  591MOL0     H79778   4.363   1.222   6.635  0.6007  0.3057  1.0451
  591MOL0     H79779   4.146   1.037   6.531  0.2746 -3.6490 -1.7379
  591MOL0     H79780   4.299   0.948   6.569  0.7417  0.4551  3.2095
  591MOL0     H79781   4.253   1.196   6.389 -0.9820 -0.6520 -2.0154
  591MOL0     H79782   4.267   1.038   6.335  0.1579  1.5642 -1.7418
  591MOL0     H79783   4.677   1.126   6.460 -0.3744 -0.8114 -1.3790
  591MOL0     H79784   4.224   1.439   7.062 -0.6787  4.4145  0.9524
  591MOL0     H79785   4.054   1.542   7.166  0.8454  1.1084 -1.3919
  592MOL0     O79786   6.223   4.721   9.215 -0.2015 -0.1978  0.3774
  592MOL0     C79787   6.330   4.660   9.190 -1.6125  0.6083 -0.4682
  592MOL0     O79788   6.427   4.703   9.107  0.0771 -0.0398 -0.4738
  592MOL0     C79789   6.414   4.822   9.035 -0.3332 -1.1049 -0.3432
  592MOL0     C79790   6.357   4.943   9.080  0.4457 -0.0075  0.5015
  592MOL0     C79791   6.343   5.061   9.008  0.5547  0.0620  0.1889
  592MOL0     C79792   6.388   5.056   8.879  0.1071 -0.0902  0.8456
  592MOL0     O79793   6.370   5.160   8.791 -0.0146  0.3593  0.2407
  592MOL0     C79794   6.269   5.256   8.814 -0.5930  0.1225  0.1987
  592MOL0     C79795   6.259   5.340   8.695  0.4093 -0.3075  0.7046
  592MOL0     C79796   6.172   5.473   8.706 -0.0175 -0.4126  0.1523
  592MOL0     C79797   6.178   5.562   8.582 -0.6935  0.4376 -0.2649
  592MOL0     C79798   6.314   5.631   8.580 -0.5194  0.7194 -0.4039
  592MOL0     C79799   6.320   5.751   8.480  0.6361  0.6464 -1.1359
  592MOL0     C79800   6.284   5.719   8.329 -0.1412  0.7468  0.2727
  592MOL0     C79801   6.369   5.599   8.279  0.0757 -0.0663 -0.5164
  592MOL0     N79802   6.357   5.563   8.140  0.2298 -0.1316  0.4486
  592MOL0     C79803   6.464   5.557   8.053 -0.8781  0.5424 -0.9323
  592MOL0     C79804   6.417   5.492   7.945  0.2216 -0.3693 -0.2739
  592MOL0     C79805   6.508   5.484   7.819  0.0586 -0.5708 -0.3061
  592MOL0     C79806   6.668   5.498   7.835  1.4761  0.1554  0.4861
  592MOL0     C79807   6.751   5.420   7.719  0.2976 -0.1093  0.1736
  592MOL0     C79808   6.872   5.358   7.764  0.0701 -0.2342  0.5467
  592MOL0     O79809   6.945   5.330   7.644 -0.4092 -0.0841  0.2522
  592MOL0     C79810   7.080   5.304   7.653 -0.0890  0.3849 -0.4574
  592MOL0     C79811   7.144   5.290   7.534  0.3520  0.0985 -0.3316
  592MOL0     C79812   7.283   5.248   7.524  0.3637  0.2709 -0.5899
  592MOL0     C79813   7.328   5.247   7.379 -0.4924  0.3849  0.0823
  592MOL0     C79814   7.360   5.207   7.639  0.0405 -0.2454  0.0891
  592MOL0     C79815   7.505   5.171   7.654  0.8602 -0.7171 -0.0833
  592MOL0     O79816   7.547   5.097   7.764  0.3073  0.0605 -0.1537
  592MOL0     C79817   7.679   5.058   7.770 -0.3376  0.0383 -0.4472
  592MOL0     C79818   7.738   4.974   7.673 -0.0246  0.0546  0.2070
  592MOL0     C79819   7.854   4.907   7.701 -0.8651 -0.2357 -0.7290
  592MOL0     C79820   7.927   4.920   7.816  0.0507 -0.3614 -0.0398
  592MOL0     O79821   8.041   4.861   7.854 -0.1684  0.9954 -0.0822
  592MOL0     C79822   8.108   4.784   7.751  0.1588  0.1320 -0.2093
  592MOL0     C79823   8.210   4.693   7.829  0.5755 -0.1262  0.2743
  592MOL0     C79824   8.148   4.550   7.872  0.2700  0.0414  1.0079
  592MOL0     C79825   8.044   4.569   7.990  0.3644 -0.2066 -0.6402
  592MOL0     C79826   7.930   4.461   7.982 -0.0628  0.6750 -0.9170
  592MOL0     C79827   7.835   4.493   8.089  0.6645  0.5854 -0.3648
  592MOL0     C79828   7.749   4.625   8.080 -0.2117  0.2587 -0.7125
  592MOL0     C79829   7.695   4.654   7.933 -0.6258  0.0682  0.3091
  592MOL0    Cl79830   7.558   4.548   7.900 -0.1303 -0.6173 -0.0696
  592MOL0     C79831   7.881   5.018   7.907  0.1082  0.6177  0.3227
  592MOL0     C79832   7.759   5.084   7.888 -0.4159 -0.1175 -0.0177
  592MOL0     O79833   7.577   5.207   7.563  0.1370 -0.4722 -0.9960
  592MOL0     C79834   7.289   5.224   7.757 -0.0380 -0.1648 -0.0446
  592MOL0     C79835   7.154   5.261   7.766  0.0102 -0.7931  0.0513
  592MOL0     N79836   6.284   5.447   7.965  0.3796  0.0691  0.4676
  592MOL0     N79837   6.251   5.493   8.086 -1.0453  0.7377  0.8642
  592MOL0     C79838   6.440   4.933   8.826 -1.1760 -0.4357 -0.2042
  592MOL0     C79839   6.456   4.820   8.907  1.7185  0.1784  0.5886
  592MOL0     C79840   6.355   4.526   9.250  0.1196  1.1893  0.1054
  592MOL0     C79841   6.272   4.470   9.346  0.4152 -0.4697  0.5818
  592MOL0     C79842   6.306   4.348   9.410 -0.1885 -0.6955 -0.2585
  592MOL0     C79843   6.413   4.275   9.367 -0.0385 -0.6533  0.3514
  592MOL0     O79844   6.427   4.159   9.437  0.1549  0.3331  0.2800
  592MOL0     C79845   6.530   4.063   9.393  0.5992 -0.7878 -0.7979
  592MOL0     C79846   6.526   3.937   9.473  0.0567 -0.1526  0.3761
  592MOL0     C79847   6.588   3.945   9.609 -0.3255  0.0429  0.1833
  592MOL0     C79848   6.582   3.814   9.692 -0.1359  0.5396 -0.0126
  592MOL0     C79849   6.459   3.740   9.707  0.5563  0.3024 -0.1471
  592MOL0     C79850   6.347   3.694   9.702  1.0906  0.3449  0.4609
  592MOL0     C79851   6.489   4.324   9.258 -0.5795  0.1206 -0.8779
  592MOL0     C79852   6.463   4.445   9.200  0.2082  0.1365  0.4313
  592MOL0     H79853   6.313   4.946   9.180 -1.0587 -0.0721 -0.1211
  592MOL0     H79854   6.312   5.156   9.052 -0.9642 -1.1138  1.8078
  592MOL0     H79855   6.177   5.211   8.853  0.6508 -0.3911  2.7121
  592MOL0     H79856   6.313   5.319   8.892  0.6757  0.8036 -1.0246
  592MOL0     H79857   6.367   5.355   8.680  1.5000 -2.9348  4.5017
  592MOL0     H79858   6.224   5.273   8.616  0.0676 -0.9767  1.4015
  592MOL0     H79859   6.071   5.437   8.727  0.6599 -1.3052  2.1215
  592MOL0     H79860   6.201   5.521   8.800  0.3665 -1.8113  0.7837
  592MOL0     H79861   6.157   5.496   8.497  1.9271 -2.2166  0.9558
  592MOL0     H79862   6.097   5.635   8.583 -0.5185  0.6662 -1.2591
  592MOL0     H79863   6.337   5.667   8.681  3.2875  2.1946 -1.6018
  592MOL0     H79864   6.390   5.559   8.547 -1.5909  0.3396 -2.1527
  592MOL0     H79865   6.262   5.837   8.515  0.2661 -0.2612  0.6510
  592MOL0     H79866   6.424   5.785   8.484  0.0755  2.3456  0.4419
  592MOL0     H79867   6.177   5.696   8.325  0.4277 -2.0442 -1.6149
  592MOL0     H79868   6.299   5.810   8.270  0.4067  2.6930  3.2084
  592MOL0     H79869   6.341   5.507   8.330  0.7119  1.0001  1.9452
  592MOL0     H79870   6.472   5.627   8.304 -0.8169  2.2690  0.9229
  592MOL0     H79871   6.548   5.625   8.048 -1.6446  2.0719  3.2307
  592MOL0     H79872   6.491   5.388   7.769  0.8995 -0.6866 -0.3924
  592MOL0     H79873   6.474   5.568   7.759  4.2077  1.3176 -0.3999
  592MOL0     H79874   6.684   5.447   7.931 -1.8678  3.3078  3.0179
  592MOL0     H79875   6.704   5.602   7.841 -2.9839  1.8832  1.1733
  592MOL0     H79876   6.768   5.502   7.648 -0.8595  3.0234  3.2192
  592MOL0     H79877   6.690   5.340   7.676 -1.8230 -0.9919  4.3099
  592MOL0     H79878   6.843   5.269   7.819 -0.2087 -0.7407 -0.3978
  592MOL0     H79879   6.932   5.429   7.821  2.3259 -1.6805  0.0950
  592MOL0     H79880   7.088   5.307   7.443  2.3227 -0.6913 -1.7828
  592MOL0     H79881   7.341   5.139   7.366 -1.1556  0.1249  1.3858
  592MOL0     H79882   7.259   5.292   7.308 -0.4829 -0.4484 -0.4756
  592MOL0     H79883   7.429   5.282   7.355  2.0498 -5.3112  0.7954
  592MOL0     H79884   7.701   4.951   7.574  2.2607  1.2365 -1.0057
  592MOL0     H79885   7.876   4.842   7.617 -0.4101 -2.7058  1.1940
  592MOL0     H79886   8.031   4.721   7.705  1.3398 -0.3798 -1.5720
  592MOL0     H79887   8.159   4.850   7.680 -0.2822  3.8350  2.6062
  592MOL0     H79888   8.291   4.669   7.760 -1.7622 -3.2883 -1.6176
  592MOL0     H79889   8.255   4.742   7.917  2.0179 -1.0235  0.0690
  592MOL0     H79890   8.229   4.484   7.904  2.4505  2.3280  0.5464
  592MOL0     H79891   8.089   4.504   7.793 -0.6663 -0.0476  1.7288
  592MOL0     H79892   8.085   4.560   8.091  0.3689  1.4148 -0.4748
  592MOL0     H79893   7.994   4.666   7.984  1.4533  0.3268 -1.5651
  592MOL0     H79894   7.975   4.361   7.987 -4.5403 -1.5616 -0.3918
  592MOL0     H79895   7.882   4.463   7.883  0.3113 -1.2595 -1.1704
  592MOL0     H79896   7.759   4.416   8.102 -1.3264  2.6961  1.1927
  592MOL0     H79897   7.882   4.492   8.188  2.4439 -0.0331 -1.1756
  592MOL0     H79898   7.807   4.713   8.109  0.3604 -0.8104  1.6131
  592MOL0     H79899   7.653   4.618   8.132  0.3834  0.1419  0.3953
  592MOL0     H79900   7.771   4.637   7.856 -4.2414 -2.8439 -3.0417
  592MOL0     H79901   7.658   4.756   7.929  2.9817  1.5361  0.5789
  592MOL0     H79902   7.944   5.050   7.990  1.8207  0.9602 -1.0631
  592MOL0     H79903   7.728   5.146   7.972  0.8073  0.2553  0.1718
  592MOL0     H79904   7.350   5.218   7.847  3.5368  1.2194 -2.1740
  592MOL0     H79905   7.111   5.272   7.865  1.2160 -0.0735  0.5253
  592MOL0     H79906   6.472   4.938   8.722  3.0506  0.4657  0.9264
  592MOL0     H79907   6.501   4.728   8.873  1.3052  0.5169 -0.9771
  592MOL0     H79908   6.177   4.513   9.376  0.4433 -0.0695  0.1105
  592MOL0     H79909   6.231   4.307   9.477 -1.8338  0.3227 -1.3934
  592MOL0     H79910   6.506   4.041   9.289  1.0217 -1.0758 -0.8381
  592MOL0     H79911   6.632   4.103   9.385  1.7739 -3.6536 -1.4308
  592MOL0     H79912   6.585   3.857   9.428  0.4736 -0.0987  0.8251
  592MOL0     H79913   6.427   3.891   9.480  0.6261 -1.8171 -1.4981
  592MOL0     H79914   6.533   4.031   9.649 -3.9618 -1.5052 -1.0742
  592MOL0     H79915   6.692   3.974   9.591 -0.3114 -1.8052 -3.7166
  592MOL0     H79916   6.636   3.823   9.786  3.7295  0.1647 -2.0102
  592MOL0     H79917   6.650   3.744   9.641  2.3464  1.7798  1.4374
  592MOL0     H79918   6.255   3.639   9.698  1.4605 -0.2406 -0.3655
  592MOL0     H79919   6.569   4.258   9.227 -0.7940 -0.7309  0.2809
  592MOL0     H79920   6.527   4.475   9.118 -0.3702 -0.1711 -0.1396
  593MOL0     O79921   9.258   5.916   0.089 -0.8457 -0.5031  0.4100
  593MOL0     C79922   9.255   6.033   0.108 -0.3006  0.3186  0.4108
  593MOL0     O79923   9.292   6.130   0.016 -0.2187 -0.4174 -0.9300
  593MOL0     C79924   9.357   6.111  -0.096 -0.1750 -1.0722 -0.1900
  593MOL0     C79925   9.457   6.022  -0.102 -0.0341  0.1852  1.0082
  593MOL0     C79926   9.522   5.995  -0.222  1.0993  0.1631  0.7050
  593MOL0     C79927   9.476   6.060  -0.337  0.0681  0.8011  0.9841
  593MOL0     O79928   9.548   6.037  -0.451  0.3457  0.6060  0.2816
  593MOL0     C79929   9.476   6.060  -0.579  0.5002  0.6697  0.6655
  593MOL0     C79930   9.568   6.017  -0.696  0.4630  0.1255 -0.1549
  593MOL0     C79931   9.470   5.986  -0.812 -0.4468  0.1266 -0.2510
  593MOL0     C79932   9.557   5.956  -0.930 -0.1552  0.7447  0.5640
  593MOL0     C79933   9.469   5.949  -1.056 -0.3168  0.3158 -0.5315
  593MOL0     C79934   9.544   5.921  -1.189  0.2995  1.0473 -0.0687
  593MOL0     C79935   9.647   6.027  -1.235  0.0975  0.4385 -0.7540
  593MOL0     C79936   9.610   6.176  -1.265 -0.4086  0.2901  0.8005
  593MOL0     N79937   9.495   6.185  -1.352  0.0029 -0.7095  0.9386
  593MOL0     C79938   9.492   6.172  -1.492  0.4439  0.5237 -0.5980
  593MOL0     C79939   9.359   6.205  -1.525 -0.3945  0.5660 -0.7944
  593MOL0     C79940   9.283   6.210  -1.648  0.4450 -0.6378  0.2310
  593MOL0     C79941   9.363   6.285  -1.763 -0.4980 -0.1168 -0.5902
  593MOL0     C79942   9.383   6.427  -1.715  0.2559  0.3796 -0.6169
  593MOL0     C79943   9.462   6.505  -1.812 -0.4853 -0.0154  0.6827
  593MOL0     O79944   9.461   6.645  -1.787  0.0970 -0.3676 -0.0689
  593MOL0     C79945   9.360   6.720  -1.841  0.1635  0.2105 -0.4540
  593MOL0     C79946   9.382   6.857  -1.866 -0.1552  0.7081  0.8215
  593MOL0     C79947   9.282   6.937  -1.923  0.3472 -0.5578 -0.6174
  593MOL0     C79948   9.324   7.078  -1.961 -0.0751 -0.5287  0.2423
  593MOL0     C79949   9.153   6.884  -1.965  0.6917  0.8236  0.5990
  593MOL0     C79950   9.044   6.969  -2.011  1.2256 -0.4077  0.5286
  593MOL0     O79951   8.981   7.026  -1.911 -0.3482  0.2213 -0.2359
  593MOL0     C79952   8.876   7.120  -1.928  0.5769 -0.1628  0.0547
  593MOL0     C79953   8.845   7.192  -2.048 -0.4263  0.5530 -0.0831
  593MOL0     C79954   8.765   7.301  -2.054  0.7205  0.1774  1.2885
  593MOL0     C79955   8.696   7.346  -1.939  0.6964  0.5008  0.5413
  593MOL0     O79956   8.603   7.449  -1.963  0.0551  0.1638  0.0764
  593MOL0     C79957   8.527   7.512  -1.853 -0.5362 -0.4455 -0.8166
  593MOL0     C79958   8.409   7.595  -1.908 -0.1598 -0.4232  0.3244
  593MOL0     C79959   8.377   7.721  -1.826  0.2032  0.4917 -0.2513
  593MOL0     C79960   8.240   7.779  -1.860  0.5410  0.5496 -0.2375
  593MOL0     C79961   8.200   7.876  -1.750  0.6192  0.1159 -0.3117
  593MOL0     C79962   8.084   7.974  -1.779 -0.1740  0.2265  0.3899
  593MOL0     C79963   8.090   8.045  -1.923  1.0979  0.4343  0.5314
  593MOL0     C79964   7.999   8.165  -1.934  0.7708 -0.4326 -0.7644
  593MOL0    Cl79965   8.013   8.254  -2.092  0.6328  0.2081 -0.0087
  593MOL0     C79966   8.704   7.270  -1.816  0.3395  0.0089 -0.1175
  593MOL0     C79967   8.788   7.157  -1.813 -0.5056  0.1372 -0.1022
  593MOL0     O79968   9.006   6.953  -2.131  0.3993  0.6432 -0.3532
  593MOL0     C79969   9.137   6.744  -1.954  0.6141 -0.9370  0.0242
  593MOL0     C79970   9.232   6.668  -1.885 -0.4180  0.6167  0.2216
  593MOL0     N79971   9.299   6.233  -1.398  0.7528  0.2511  0.4976
  593MOL0     N79972   9.377   6.216  -1.298  0.6213 -0.0427 -0.1263
  593MOL0     C79973   9.365   6.148  -0.331 -0.7129 -0.9887  0.1847
  593MOL0     C79974   9.310   6.173  -0.211 -0.8037  0.7088 -0.2894
  593MOL0     C79975   9.193   6.074   0.231 -0.5204  1.0354 -0.0276
  593MOL0     C79976   9.230   6.012   0.354 -0.0502 -0.1659  0.1073
  593MOL0     C79977   9.189   6.067   0.474  0.2481  0.2110  0.4059
  593MOL0     C79978   9.123   6.190   0.483 -1.0307 -0.4165 -0.3866
  593MOL0     O79979   9.081   6.229   0.606 -0.5852 -0.2735 -0.0085
  593MOL0     C79980   9.002   6.341   0.631  0.3148 -1.0856  0.3899
  593MOL0     C79981   8.929   6.317   0.756 -0.5005  0.5248  0.1823
  593MOL0     C79982   8.782   6.362   0.766 -0.0784  0.1880  0.4091
  593MOL0     C79983   8.694   6.237   0.733 -0.3064  0.2451 -0.8534
  593MOL0     C79984   8.664   6.159   0.860 -1.2800 -0.0957  0.2239
  593MOL0     C79985   8.635   6.069   0.935 -0.2149  0.6760  0.4890
  593MOL0     C79986   9.090   6.248   0.362  0.7262 -0.1442 -0.1471
  593MOL0     C79987   9.107   6.190   0.243  0.2895  0.5668 -0.2387
  593MOL0     H79988   9.490   5.958  -0.021  0.2602  0.2457  0.9378
  593MOL0     H79989   9.612   5.934  -0.224  0.5260 -0.7324  1.5888
  593MOL0     H79990   9.386   5.999  -0.582 -0.2699  1.7844 -2.0696
  593MOL0     H79991   9.451   6.166  -0.593 -1.2228  0.1111 -0.7757
  593MOL0     H79992   9.635   6.103  -0.706 -1.1062  1.5054  0.7207
  593MOL0     H79993   9.614   5.922  -0.667 -1.0904 -0.6792 -0.2105
  593MOL0     H79994   9.417   5.898  -0.774  1.5278 -1.6373 -1.3794
  593MOL0     H79995   9.394   6.064  -0.827  0.7521  1.8673  2.0265
  593MOL0     H79996   9.628   6.038  -0.946 -0.2626  0.2861 -2.9925
  593MOL0     H79997   9.611   5.861  -0.928 -0.5139  0.5066 -0.5845
  593MOL0     H79998   9.399   5.867  -1.034 -0.0875  0.2843  0.1041
  593MOL0     H79999   9.415   6.044  -1.056 -0.1185  0.4325 -1.1537
  593MOL0     H80000   9.608   5.832  -1.175  0.4809  1.4607  2.1189
  593MOL0     H80001   9.473   5.889  -1.265  1.5826 -1.6132 -0.3080
  593MOL0     H80002   9.729   6.020  -1.163 -2.9796  1.7802  3.2822
  593MOL0     H80003   9.679   5.979  -1.328 -3.7835 -1.8638 -1.1351
  593MOL0     H80004   9.696   6.226  -1.310 -1.4082  1.1350 -0.2501
  593MOL0     H80005   9.605   6.230  -1.170  1.1640 -0.8193  1.5517
  593MOL0     H80006   9.571   6.136  -1.557  0.2302 -0.1533 -0.4825
  593MOL0     H80007   9.269   6.111  -1.691 -2.2040  0.1201 -0.8479
  593MOL0     H80008   9.183   6.248  -1.627  0.1027 -0.0684 -2.1242
  593MOL0     H80009   9.307   6.290  -1.857  0.6523  0.7673 -1.2617
  593MOL0     H80010   9.455   6.233  -1.792 -1.2376 -0.7341 -1.8882
  593MOL0     H80011   9.436   6.429  -1.619  1.3240  2.7228 -1.1891
  593MOL0     H80012   9.296   6.488  -1.688  0.7837  1.3432 -1.0525
  593MOL0     H80013   9.441   6.488  -1.918 -0.4668  2.9855  0.0976
  593MOL0     H80014   9.561   6.458  -1.812 -0.4766 -0.0939 -1.2824
  593MOL0     H80015   9.479   6.891  -1.829  0.2890 -1.3164  1.6678
  593MOL0     H80016   9.321   7.147  -1.876  2.8758 -1.4172  1.1622
  593MOL0     H80017   9.421   7.070  -2.010  1.9777 -1.5700  4.0847
  593MOL0     H80018   9.255   7.115  -2.037  1.7901  0.3607 -1.0706
  593MOL0     H80019   8.883   7.168  -2.147 -3.0995 -0.5403 -0.9430
  593MOL0     H80020   8.747   7.362  -2.142 -0.7861 -0.8794  0.8362
  593MOL0     H80021   8.484   7.425  -1.803  1.6265 -1.4282 -0.5635
  593MOL0     H80022   8.587   7.551  -1.770  1.3014 -2.7012 -0.9949
  593MOL0     H80023   8.430   7.621  -2.012 -0.7769  2.7914  0.9135
  593MOL0     H80024   8.321   7.530  -1.902  1.3173 -2.7293 -1.1833
  593MOL0     H80025   8.452   7.798  -1.849 -0.5639  0.7183 -2.2321
  593MOL0     H80026   8.378   7.691  -1.721 -0.0210  1.3886  0.0155
  593MOL0     H80027   8.241   7.840  -1.950  0.6773  2.0548  0.7510
  593MOL0     H80028   8.161   7.703  -1.863 -1.4057  2.5090 -0.9977
  593MOL0     H80029   8.286   7.941  -1.730 -1.5309  2.0068  3.9088
  593MOL0     H80030   8.180   7.821  -1.658 -3.7772 -0.6086 -1.4793
  593MOL0     H80031   7.984   7.933  -1.763  0.8129 -0.9005  5.4853
  593MOL0     H80032   8.102   8.051  -1.703  1.0317 -0.8988  1.3008
  593MOL0     H80033   8.075   7.986  -2.014  0.3927 -0.6008  1.3019
  593MOL0     H80034   8.197   8.068  -1.925  0.8999  1.3582  0.4701
  593MOL0     H80035   8.019   8.243  -1.860  1.8612 -1.5569  0.1410
  593MOL0     H80036   7.898   8.125  -1.921  0.7078 -1.1737 -3.0936
  593MOL0     H80037   8.652   7.299  -1.726  0.5573 -1.0065  0.3457
  593MOL0     H80038   8.805   7.123  -1.711 -2.1241  2.5360  1.0724
  593MOL0     H80039   9.046   6.695  -1.985 -0.1985 -0.1716  1.0930
  593MOL0     H80040   9.210   6.562  -1.875 -1.1289  0.3206 -3.1896
  593MOL0     H80041   9.324   6.194  -0.421  3.6266  2.1212 -0.5464
  593MOL0     H80042   9.218   6.229  -0.199  0.2337  2.2749  0.6911
  593MOL0     H80043   9.284   5.918   0.358 -0.5306 -0.4133  1.0239
  593MOL0     H80044   9.215   6.012   0.564  0.7166  1.7532  1.2366
  593MOL0     H80045   9.067   6.428   0.648 -0.8782 -0.2058  0.6010
  593MOL0     H80046   8.935   6.363   0.548 -1.0050  2.8454  2.2407
  593MOL0     H80047   8.984   6.375   0.831  1.7308 -1.3057  0.0555
  593MOL0     H80048   8.954   6.214   0.779  1.9270  0.3952 -2.4644
  593MOL0     H80049   8.760   6.446   0.700 -0.5315  2.1684  2.9118
  593MOL0     H80050   8.763   6.401   0.867 -5.4129 -2.2105  0.6803
  593MOL0     H80051   8.747   6.171   0.664 -1.2418 -0.5976 -0.7848
  593MOL0     H80052   8.595   6.258   0.690 -1.6235 -1.9660  0.8692
  593MOL0     H80053   8.615   5.988   1.002  1.7545 -1.2177 -1.0702
  593MOL0     H80054   9.029   6.338   0.354  1.3061  0.3316  0.5465
  593MOL0     H80055   9.075   6.241   0.152  0.0711 -0.4152 -0.7342
  594MOL0     O80056   1.021   6.683   3.010  0.1638  0.1035 -0.1311
  594MOL0     C80057   1.061   6.614   2.916 -0.0878 -0.0087  0.6728
  594MOL0     O80058   1.200   6.588   2.881  0.4322  0.2894 -0.6420
  594MOL0     C80059   1.276   6.676   2.955 -0.3873 -0.3486  0.8943
  594MOL0     C80060   1.338   6.625   3.065 -0.0106 -0.3007 -0.1034
  594MOL0     C80061   1.417   6.718   3.143  0.5060  0.7586  0.8044
  594MOL0     C80062   1.436   6.854   3.096  0.8191 -0.5357 -0.0031
  594MOL0     O80063   1.498   6.947   3.167 -0.2295  0.2941 -0.1319
  594MOL0     C80064   1.552   6.907   3.297 -0.7607 -0.0735 -0.0807
  594MOL0     C80065   1.609   7.036   3.366  0.0326 -0.8929 -0.6294
  594MOL0     C80066   1.756   7.061   3.327 -0.4621  0.4811 -0.1794
  594MOL0     C80067   1.771   7.106   3.181  1.0841 -0.5246 -0.1544
  594MOL0     C80068   1.914   7.137   3.144 -0.2661  0.1096 -0.8668
  594MOL0     C80069   1.941   7.170   2.997  0.1271  0.5982  0.2938
  594MOL0     C80070   2.040   7.289   2.973  0.6535 -0.0706 -0.2365
  594MOL0     C80071   2.071   7.326   2.825 -0.4368  0.2415 -0.5577
  594MOL0     N80072   1.960   7.402   2.769  0.5376  0.7912  0.0601
  594MOL0     C80073   1.947   7.545   2.779 -0.8858  0.6110  0.0987
  594MOL0     C80074   1.834   7.562   2.709 -0.2308  0.3328  0.3319
  594MOL0     C80075   1.765   7.701   2.692 -0.4294  0.0882 -0.1886
  594MOL0     C80076   1.664   7.718   2.809 -0.7335  1.0437  0.3863
  594MOL0     C80077   1.737   7.745   2.940  0.0170 -0.5285  1.1018
  594MOL0     C80078   1.622   7.779   3.045  0.5138  0.8383  0.7376
  594MOL0     O80079   1.675   7.742   3.177  0.2216  0.7529  0.1512
  594MOL0     C80080   1.767   7.811   3.257  0.0642  1.0030  0.9713
  594MOL0     C80081   1.823   7.921   3.207 -0.8821  0.5256 -0.0124
  594MOL0     C80082   1.920   7.994   3.283 -0.4405 -0.5471 -0.3036
  594MOL0     C80083   1.975   8.126   3.221  0.4388  0.7469  0.0384
  594MOL0     C80084   1.960   7.949   3.408 -0.4229 -0.0728 -0.3755
  594MOL0     C80085   2.074   8.013   3.485 -0.2350  0.8125 -0.2442
  594MOL0     O80086   2.064   7.992   3.620 -0.1049  0.4197 -0.2911
  594MOL0     C80087   2.178   8.001   3.696  0.1923 -0.7437 -0.2265
  594MOL0     C80088   2.297   7.930   3.665  0.3185 -0.1726  0.1725
  594MOL0     C80089   2.417   7.962   3.729 -0.0607 -0.3778 -0.0009
  594MOL0     C80090   2.429   8.064   3.823 -1.3477  0.5580 -0.7290
  594MOL0     O80091   2.553   8.088   3.893  0.4697 -0.2715  0.5027
  594MOL0     C80092   2.640   7.966   3.896  0.2042 -0.1184  0.3709
  594MOL0     C80093   2.773   8.001   3.964  0.4798  0.4443  0.4342
  594MOL0     C80094   2.850   7.883   4.000 -0.3379 -0.4900 -0.1768
  594MOL0     C80095   2.910   7.807   3.885  1.3163 -0.1546  0.4493
  594MOL0     C80096   3.021   7.722   3.944  0.8410 -0.1791  0.7271
  594MOL0     C80097   3.105   7.633   3.852  0.2956 -0.2674  0.8603
  594MOL0     C80098   3.039   7.495   3.822  0.1632 -0.7099  0.7230
  594MOL0     C80099   3.101   7.424   3.700 -0.6074  0.4360 -0.8069
  594MOL0    Cl80100   3.036   7.511   3.555 -0.2081  0.1163 -0.2063
  594MOL0     C80101   2.315   8.130   3.854 -0.1088  0.7653 -0.7861
  594MOL0     C80102   2.196   8.101   3.793  0.6174 -0.2507  0.3006
  594MOL0     O80103   2.169   8.061   3.426  0.1631  0.2524  0.5267
  594MOL0     C80104   1.891   7.838   3.462 -0.9745  0.9860 -0.5403
  594MOL0     C80105   1.804   7.760   3.385  0.3189 -0.3512  0.8533
  594MOL0     N80106   1.777   7.439   2.670 -0.0710  0.0985 -0.2325
  594MOL0     N80107   1.854   7.346   2.705 -0.7703  0.5753 -0.4655
  594MOL0     C80108   1.379   6.895   2.980  0.3886 -0.4264 -0.7592
  594MOL0     C80109   1.298   6.806   2.911  0.2978 -0.2289  0.0441
  594MOL0     C80110   0.961   6.540   2.830  0.2828  0.1267 -0.2956
  594MOL0     C80111   0.993   6.440   2.738 -0.1765  0.0426  0.9050
  594MOL0     C80112   0.902   6.360   2.672  1.1629  0.5324  0.7534
  594MOL0     C80113   0.765   6.400   2.672  0.5089  1.2181  0.1403
  594MOL0     O80114   0.665   6.349   2.590 -0.5654 -0.0719  0.0956
  594MOL0     C80115   0.708   6.240   2.506 -0.7374 -0.1449  0.6210
  594MOL0     C80116   0.579   6.189   2.437  0.5803 -0.9330 -0.0093
  594MOL0     C80117   0.596   6.075   2.336 -0.1117 -0.5469 -0.0980
  594MOL0     C80118   0.694   6.100   2.213  0.5628  0.2655 -0.0760
  594MOL0     C80119   0.676   6.238   2.160 -0.9228  0.4851  0.4282
  594MOL0     C80120   0.677   6.352   2.123  0.2132  0.3607 -0.1539
  594MOL0     C80121   0.728   6.492   2.772 -0.0330  0.2200 -0.9112
  594MOL0     C80122   0.823   6.554   2.846  0.0580  0.1782  0.3538
  594MOL0     H80123   1.312   6.526   3.103 -1.1394  0.4372  1.1195
  594MOL0     H80124   1.466   6.689   3.236  1.8647 -0.0608 -0.1258
  594MOL0     H80125   1.483   6.858   3.366 -0.4140 -0.6554 -0.1463
  594MOL0     H80126   1.631   6.835   3.274 -0.4937 -0.0119  0.6371
  594MOL0     H80127   1.545   7.125   3.365  0.2747 -0.7078  0.0816
  594MOL0     H80128   1.605   7.025   3.474 -0.4805  0.3359 -0.5046
  594MOL0     H80129   1.793   7.148   3.381  0.9266  0.4587 -1.0591
  594MOL0     H80130   1.826   6.980   3.352 -0.3613  0.6477  0.0813
  594MOL0     H80131   1.734   7.030   3.111  1.0459  1.1369 -2.0223
  594MOL0     H80132   1.714   7.196   3.157 -1.5690 -2.7353 -3.0232
  594MOL0     H80133   1.951   7.222   3.202 -1.0602 -1.2732  1.8020
  594MOL0     H80134   1.978   7.052   3.167  0.0050  1.0471  2.3558
  594MOL0     H80135   1.993   7.086   2.950  1.7511  0.0286  2.9112
  594MOL0     H80136   1.845   7.200   2.954 -0.2681 -2.3107 -1.0358
  594MOL0     H80137   1.990   7.380   3.007 -0.9945  0.1088 -2.8192
  594MOL0     H80138   2.136   7.271   3.021  0.6107 -2.7255 -0.9679
  594MOL0     H80139   2.094   7.236   2.768 -1.3159 -1.2438  1.3502
  594MOL0     H80140   2.158   7.393   2.820  0.7741 -1.1578  0.9144
  594MOL0     H80141   2.024   7.604   2.827  1.8512 -2.4154 -0.1922
  594MOL0     H80142   1.852   7.766   2.702 -0.1348 -0.5145  1.5652
  594MOL0     H80143   1.721   7.711   2.593 -1.2845 -0.9585  0.0648
  594MOL0     H80144   1.602   7.629   2.822 -1.7666  1.6235 -0.3558
  594MOL0     H80145   1.606   7.805   2.776  2.3260  2.3277 -2.1636
  594MOL0     H80146   1.813   7.823   2.931 -0.6286 -0.0647 -0.7292
  594MOL0     H80147   1.802   7.663   2.973  2.7488  0.4211 -1.4429
  594MOL0     H80148   1.528   7.729   3.024  0.3462  1.9824 -1.5371
  594MOL0     H80149   1.599   7.886   3.039 -0.1397  0.6140 -1.5472
  594MOL0     H80150   1.789   7.957   3.110 -1.2492 -0.3275 -0.2046
  594MOL0     H80151   1.976   8.198   3.303  0.1039 -0.1024  0.7978
  594MOL0     H80152   2.075   8.123   3.177  1.3203  0.9388  1.9174
  594MOL0     H80153   1.906   8.169   3.148 -2.9309  1.3603  3.3348
  594MOL0     H80154   2.292   7.858   3.585 -2.8918 -1.2630  1.2151
  594MOL0     H80155   2.493   7.889   3.701 -1.4919 -1.3093 -1.6061
  594MOL0     H80156   2.585   7.897   3.962 -0.4617  0.2665  0.2257
  594MOL0     H80157   2.661   7.917   3.800 -1.3942 -0.0252 -0.0500
  594MOL0     H80158   2.833   8.058   3.894 -2.2052 -0.5304 -2.9241
  594MOL0     H80159   2.757   8.046   4.063 -3.3143 -0.4997  0.3878
  594MOL0     H80160   2.781   7.813   4.049 -0.3353 -0.1400  0.3386
  594MOL0     H80161   2.927   7.909   4.073 -1.6931  0.7344  0.8880
  594MOL0     H80162   2.835   7.742   3.839 -1.7375  3.2018  0.2589
  594MOL0     H80163   2.947   7.859   3.797  1.7999  0.7981  1.1880
  594MOL0     H80164   2.979   7.660   4.024 -3.7481 -1.6999 -2.4810
  594MOL0     H80165   3.098   7.788   3.985 -0.1883  0.0376  2.4016
  594MOL0     H80166   3.132   7.685   3.760 -1.8507  2.8270  1.8076
  594MOL0     H80167   3.209   7.621   3.885  0.0791 -0.0486  1.6552
  594MOL0     H80168   2.933   7.513   3.802  0.3862  1.7252  1.3686
  594MOL0     H80169   3.062   7.431   3.907 -1.0368  0.2383  1.8054
  594MOL0     H80170   3.079   7.317   3.695  4.0521 -0.7664 -0.3950
  594MOL0     H80171   3.208   7.446   3.702 -0.6414  0.5433  0.2840
  594MOL0     H80172   2.331   8.215   3.921 -1.9814  0.5797 -0.0446
  594MOL0     H80173   2.108   8.161   3.814  2.7983  2.0620  3.7458
  594MOL0     H80174   1.904   7.805   3.565 -0.6268  2.0359 -0.2359
  594MOL0     H80175   1.743   7.679   3.424  0.8388  0.0102  2.5291
  594MOL0     H80176   1.413   6.994   2.952  0.8756  0.6349  3.0182
  594MOL0     H80177   1.259   6.837   2.814  0.3700 -1.3088 -0.3483
  594MOL0     H80178   1.097   6.423   2.710 -1.0944 -2.0550 -1.7213
  594MOL0     H80179   0.933   6.298   2.589 -3.0703  1.1028 -1.5157
  594MOL0     H80180   0.784   6.271   2.434  0.3359  2.1569  2.5999
  594MOL0     H80181   0.747   6.155   2.562  1.8936 -0.9804 -2.2586
  594MOL0     H80182   0.540   6.280   2.391 -2.0195 -0.7806  2.2662
  594MOL0     H80183   0.507   6.152   2.510 -0.2310  0.1611 -0.2436
  594MOL0     H80184   0.498   6.046   2.298  0.6727 -1.0044 -1.8580
  594MOL0     H80185   0.644   5.998   2.398  4.1035  4.0488  3.2737
  594MOL0     H80186   0.696   6.023   2.136  0.9092  1.2738 -1.0995
  594MOL0     H80187   0.794   6.097   2.256 -0.2867 -1.8908  1.9874
  594MOL0     H80188   0.683   6.455   2.093  1.3494  0.4904  0.4829
  594MOL0     H80189   0.627   6.530   2.782  1.1530  3.5001  0.1009
  594MOL0     H80190   0.797   6.631   2.918  2.3531  0.1621  1.2885
  595MOL0     O80191   2.918   1.150   3.744 -0.3965 -0.3549 -0.0488
  595MOL0     C80192   2.799   1.126   3.723 -0.2754 -0.1010 -0.4555
  595MOL0     O80193   2.717   1.052   3.801 -0.3660 -0.4846  0.1567
  595MOL0     C80194   2.750   1.002   3.923 -0.6312  0.2289 -0.4455
  595MOL0     C80195   2.699   0.882   3.969  0.6940  0.6078 -0.1385
  595MOL0     C80196   2.742   0.834   4.086 -0.1467  0.3728  0.0223
  595MOL0     C80197   2.805   0.904   4.182  0.2002  0.2718 -0.2781
  595MOL0     O80198   2.822   0.860   4.310  1.1725  0.2636 -0.2775
  595MOL0     C80199   2.956   0.827   4.342  0.8139 -0.1216  0.3441
  595MOL0     C80200   2.971   0.758   4.481  0.2919 -0.6267  0.8159
  595MOL0     C80201   3.103   0.696   4.493 -0.3406  0.1725 -0.2676
  595MOL0     C80202   3.142   0.664   4.635  0.1483  0.4773 -0.0340
  595MOL0     C80203   3.303   0.678   4.648  0.0409 -0.2153  0.2749
  595MOL0     C80204   3.343   0.687   4.793  0.3488  0.0175  1.3351
  595MOL0     C80205   3.315   0.563   4.882 -0.6855  0.0168 -0.2780
  595MOL0     C80206   3.408   0.440   4.853  0.0935 -0.0890  1.2803
  595MOL0     N80207   3.550   0.474   4.848  0.1151  0.4681 -0.2230
  595MOL0     C80208   3.637   0.484   4.745  0.2763 -0.4323 -0.4271
  595MOL0     C80209   3.756   0.530   4.794 -0.2756 -0.5504 -0.4578
  595MOL0     C80210   3.882   0.552   4.717  0.5824 -0.5689 -0.6025
  595MOL0     C80211   3.855   0.668   4.619 -0.3788 -0.9268  0.4058
  595MOL0     C80212   3.929   0.803   4.661 -0.3151 -0.0939  0.2812
  595MOL0     C80213   3.916   0.907   4.547 -0.8498  0.6062  0.6705
  595MOL0     O80214   3.999   0.854   4.434  0.5762 -0.3942 -0.0772
  595MOL0     C80215   3.982   0.946   4.333 -0.1787  0.1161 -0.1802
  595MOL0     C80216   4.075   1.041   4.311  0.6808  0.2931 -0.3533
  595MOL0     C80217   4.057   1.136   4.204 -0.1803  1.1491  0.8082
  595MOL0     C80218   4.176   1.235   4.183  0.5675 -0.0235  0.4761
  595MOL0     C80219   3.939   1.127   4.118 -0.3190  0.4539  0.1119
  595MOL0     C80220   3.914   1.216   4.000  0.0693 -0.9148  0.1139
  595MOL0     O80221   4.014   1.288   3.950 -0.0753 -0.6761  0.5313
  595MOL0     C80222   3.992   1.374   3.849  1.4499  0.7628  0.1116
  595MOL0     C80223   4.088   1.394   3.748 -0.4755 -0.4481  0.7538
  595MOL0     C80224   4.062   1.486   3.640 -0.5382 -0.0143 -1.3475
  595MOL0     C80225   3.950   1.563   3.646 -0.3838 -0.4237  0.9826
  595MOL0     O80226   3.932   1.655   3.539  0.0954  0.2510  0.0322
  595MOL0     C80227   3.797   1.677   3.502 -0.0836 -0.0176  0.6499
  595MOL0     C80228   3.809   1.733   3.363 -0.3259  1.4416  0.1924
  595MOL0     C80229   3.674   1.719   3.293 -0.1265  0.4217 -1.2353
  595MOL0     C80230   3.646   1.574   3.252 -0.4694 -0.8240 -0.7823
  595MOL0     C80231   3.496   1.582   3.190 -0.3550 -0.2189 -0.4168
  595MOL0     C80232   3.465   1.439   3.148 -0.7563 -0.7476 -0.6664
  595MOL0     C80233   3.336   1.420   3.061 -0.3125  0.4929  0.0757
  595MOL0     C80234   3.208   1.409   3.142 -0.4532  0.1596 -0.0435
  595MOL0    Cl80235   3.153   1.566   3.213  0.0460  0.4997  0.2131
  595MOL0     C80236   3.870   1.563   3.756  1.6757  0.1829  0.9195
  595MOL0     C80237   3.892   1.467   3.857 -0.2634  0.4399  0.1915
  595MOL0     O80238   3.803   1.220   3.951  0.0754 -0.2030  0.6384
  595MOL0     C80239   3.847   1.027   4.152 -0.1544  1.0208  0.4871
  595MOL0     C80240   3.871   0.939   4.255  0.5415 -0.6085  0.5135
  595MOL0     N80241   3.730   0.563   4.925 -0.6514  0.0733 -0.0636
  595MOL0     N80242   3.609   0.539   4.958 -0.4439 -0.8386 -0.0799
  595MOL0     C80243   2.842   1.032   4.148  0.4674 -0.7708 -0.2530
  595MOL0     C80244   2.813   1.087   4.020  0.9805 -0.5895  0.1411
  595MOL0     C80245   2.765   1.185   3.599 -0.1903 -0.2255  0.0894
  595MOL0     C80246   2.839   1.286   3.540 -0.0489  0.7782  0.3009
  595MOL0     C80247   2.812   1.335   3.408  0.2428 -0.3715 -0.4018
  595MOL0     C80248   2.694   1.291   3.343  0.1083 -0.0671 -0.5679
  595MOL0     O80249   2.646   1.367   3.237  0.3887 -0.0178 -0.1936
  595MOL0     C80250   2.544   1.467   3.261  0.1788  0.0859  0.8159
  595MOL0     C80251   2.520   1.568   3.153  0.8005 -0.4637 -0.2709
  595MOL0     C80252   2.403   1.667   3.190 -0.3746 -0.2170 -0.4751
  595MOL0     C80253   2.386   1.780   3.088 -1.8057  0.1634  0.4714
  595MOL0     C80254   2.255   1.853   3.100 -0.0151 -0.7910  0.6109
  595MOL0     C80255   2.153   1.913   3.098  0.3054 -0.2057 -0.1826
  595MOL0     C80256   2.614   1.205   3.415 -0.0960 -0.5754 -0.2736
  595MOL0     C80257   2.650   1.143   3.537  0.0887 -0.1104  0.7093
  595MOL0     H80258   2.649   0.812   3.902 -1.3947  2.1247 -0.2702
  595MOL0     H80259   2.700   0.738   4.112  0.1374 -0.1141 -1.2601
  595MOL0     H80260   3.006   0.762   4.270 -0.2434 -0.5302 -0.0407
  595MOL0     H80261   3.009   0.923   4.336 -0.6923  0.7434  0.1488
  595MOL0     H80262   2.944   0.832   4.557  0.7237  0.2781  0.0973
  595MOL0     H80263   2.891   0.683   4.486  0.9235 -1.2586  1.7090
  595MOL0     H80264   3.115   0.603   4.436  1.2631 -0.6172  1.2770
  595MOL0     H80265   3.172   0.769   4.449 -0.2109 -0.7827 -1.7188
  595MOL0     H80266   3.087   0.733   4.699 -4.2793 -0.9827 -1.8589
  595MOL0     H80267   3.113   0.561   4.660 -0.3204  0.6138 -0.0191
  595MOL0     H80268   3.342   0.587   4.601  0.0755 -0.1908  0.2564
  595MOL0     H80269   3.326   0.771   4.594  2.0324 -1.3295 -0.9182
  595MOL0     H80270   3.451   0.706   4.788 -0.0140  1.9838 -1.7669
  595MOL0     H80271   3.289   0.770   4.840  1.6248  1.4460  0.3879
  595MOL0     H80272   3.336   0.595   4.984  0.8283  1.0017 -0.8703
  595MOL0     H80273   3.212   0.528   4.869 -0.4258 -0.3766 -1.3912
  595MOL0     H80274   3.379   0.408   4.752  2.5423  0.2079  0.4381
  595MOL0     H80275   3.389   0.361   4.927 -3.2282 -1.1732 -0.5050
  595MOL0     H80276   3.627   0.449   4.642  1.0651  0.7529 -0.9358
  595MOL0     H80277   3.974   0.582   4.769  0.3724  2.1193 -1.5758
  595MOL0     H80278   3.908   0.463   4.660  0.4550  0.0852 -1.7188
  595MOL0     H80279   3.751   0.696   4.604 -0.5043 -1.5815  0.0355
  595MOL0     H80280   3.912   0.637   4.531  1.3797 -0.1041  1.1965
  595MOL0     H80281   4.033   0.795   4.695 -0.4143 -0.2177  0.5565
  595MOL0     H80282   3.862   0.847   4.735 -1.0227 -1.0068  0.1944
  595MOL0     H80283   3.972   0.993   4.586  0.3541 -0.4141  1.2557
  595MOL0     H80284   3.810   0.916   4.523 -0.3762  2.9045 -1.0008
  595MOL0     H80285   4.160   1.051   4.378 -0.0435 -1.1461  0.8347
  595MOL0     H80286   4.234   1.261   4.272  3.1885  0.1670 -1.1769
  595MOL0     H80287   4.237   1.195   4.102 -0.7870  0.1222 -0.6575
  595MOL0     H80288   4.137   1.327   4.138 -2.2773 -1.0977  0.5162
  595MOL0     H80289   4.187   1.354   3.767 -0.0505  0.3556  0.2957
  595MOL0     H80290   4.125   1.500   3.553  0.8819  0.5899 -0.2676
  595MOL0     H80291   3.740   1.584   3.508 -0.1130 -0.1016 -0.6684
  595MOL0     H80292   3.752   1.749   3.571  1.1382 -0.5603  2.0703
  595MOL0     H80293   3.837   1.839   3.368  1.8159  0.9402 -0.1170
  595MOL0     H80294   3.887   1.680   3.307 -0.0527 -0.5742  2.3469
  595MOL0     H80295   3.657   1.772   3.198 -2.8431 -0.4264 -1.2960
  595MOL0     H80296   3.606   1.761   3.367  1.1859 -0.4658  0.5387
  595MOL0     H80297   3.720   1.552   3.175 -2.2168  1.2589 -3.2647
  595MOL0     H80298   3.638   1.501   3.333  2.2491 -1.3374 -0.8823
  595MOL0     H80299   3.481   1.645   3.102  2.4318  1.9231  0.4849
  595MOL0     H80300   3.425   1.634   3.254 -0.8701 -1.6763  0.2568
  595MOL0     H80301   3.551   1.413   3.085  0.7480  3.3578 -0.5755
  595MOL0     H80302   3.463   1.369   3.232 -0.4088  1.3023  1.1318
  595MOL0     H80303   3.348   1.326   3.006  0.9629  1.1369 -0.7979
  595MOL0     H80304   3.336   1.501   2.987  3.1453  2.2676  1.7563
  595MOL0     H80305   3.220   1.329   3.215  1.8167  0.0444 -0.4612
  595MOL0     H80306   3.132   1.368   3.075  2.0943 -0.7653 -2.5794
  595MOL0     H80307   3.781   1.625   3.770  0.4252 -1.4041  0.2882
  595MOL0     H80308   3.828   1.469   3.944 -0.6480  3.0159 -0.0659
  595MOL0     H80309   3.762   1.022   4.085 -0.6860 -0.2711  1.2176
  595MOL0     H80310   3.802   0.857   4.272 -3.0271  2.5557  3.1287
  595MOL0     H80311   2.886   1.092   4.227  1.0843 -1.9972  0.3748
  595MOL0     H80312   2.842   1.188   3.992  0.2714 -0.2376  0.6572
  595MOL0     H80313   2.920   1.334   3.593 -1.1059  1.6613  1.1802
  595MOL0     H80314   2.876   1.416   3.373  0.4515  1.2580  3.2372
  595MOL0     H80315   2.446   1.424   3.284 -0.4689 -0.3528 -2.2991
  595MOL0     H80316   2.581   1.518   3.350 -0.9609  0.4261  1.1115
  595MOL0     H80317   2.498   1.524   3.055  1.8904  0.0742 -0.7756
  595MOL0     H80318   2.620   1.606   3.131  1.0055  1.6268  3.4881
  595MOL0     H80319   2.429   1.714   3.286  0.7661  0.6883 -1.2021
  595MOL0     H80320   2.315   1.602   3.192  1.5171 -2.9506  0.4165
  595MOL0     H80321   2.391   1.748   2.983  5.0809  1.3540 -0.0190
  595MOL0     H80322   2.466   1.850   3.110 -1.3302  0.9886 -3.1911
  595MOL0     H80323   2.059   1.964   3.099 -1.6992 -3.4701 -1.9222
  595MOL0     H80324   2.514   1.175   3.384 -0.8539 -0.8288  2.2090
  595MOL0     H80325   2.585   1.071   3.585 -3.2062  2.8286  1.0910
  596MOL0     O80326   1.063  10.002   7.558 -0.4438 -0.2522  0.2002
  596MOL0     C80327   1.137   9.923   7.503  0.7809  0.1718  0.6454
  596MOL0     O80328   1.244   9.854   7.568  1.1437  0.4307  0.1370
  596MOL0     C80329   1.256   9.870   7.699 -0.3965 -0.0187 -0.4498
  596MOL0     C80330   1.161   9.800   7.781 -0.2227 -0.5790  0.8966
  596MOL0     C80331   1.180   9.807   7.924  0.4253  0.4067  0.0751
  596MOL0     C80332   1.291   9.882   7.978  0.4538 -0.3102  0.1414
  596MOL0     O80333   1.320   9.883   8.112  0.6688 -0.7846  0.7812
  596MOL0     C80334   1.320   9.752   8.179  0.1054 -0.5722 -0.3055
  596MOL0     C80335   1.359   9.756   8.323  0.2855 -0.1229 -0.3939
  596MOL0     C80336   1.232   9.786   8.423  0.2212  0.0297  0.5818
  596MOL0     C80337   1.274   9.826   8.558  0.3766 -0.2229  0.7341
  596MOL0     C80338   1.157   9.836   8.656 -0.1366 -0.3874 -1.0608
  596MOL0     C80339   1.219   9.850   8.800 -0.1738  0.3142  0.6586
  596MOL0     C80340   1.308   9.974   8.817  0.0161  0.8032  0.3553
  596MOL0     C80341   1.235  10.102   8.805  0.1320 -0.1552 -0.2401
  596MOL0     N80342   1.291  10.186   8.691 -0.0408  0.3569  0.0467
  596MOL0     C80343   1.241  10.170   8.563 -0.9321 -0.8066 -1.4919
  596MOL0     C80344   1.314  10.260   8.496 -0.4886 -0.9693  0.3719
  596MOL0     C80345   1.298  10.298   8.345 -0.1031 -0.4904 -0.4224
  596MOL0     C80346   1.372  10.212   8.236  0.1493  0.4909 -0.6144
  596MOL0     C80347   1.526  10.214   8.271  0.3529  0.4162  0.3025
  596MOL0     C80348   1.616  10.152   8.168  0.2418 -0.3577  0.8223
  596MOL0     O80349   1.753  10.193   8.173  0.2269 -0.5133  0.5213
  596MOL0     C80350   1.820  10.171   8.053  0.1924 -0.2412  0.3156
  596MOL0     C80351   1.780  10.102   7.938 -1.1246 -0.1638 -0.2209
  596MOL0     C80352   1.861  10.083   7.824  0.4429  0.1718 -0.3316
  596MOL0     C80353   1.813   9.983   7.721  0.3314 -0.0411 -0.4032
  596MOL0     C80354   1.976  10.163   7.816  0.1066  0.3630 -0.5114
  596MOL0     C80355   2.060  10.184   7.698 -0.8188  0.2654 -0.3599
  596MOL0     O80356   2.193  10.235   7.714  0.2165 -0.0741 -0.9706
  596MOL0     C80357   2.247  10.278   7.597  0.8303 -0.4546  0.4439
  596MOL0     C80358   2.366  10.226   7.536  1.1273 -0.3990  1.0740
  596MOL0     C80359   2.427  10.288   7.425 -0.1304  0.3463 -0.1649
  596MOL0     C80360   2.373  10.400   7.373 -0.2194  0.2730  0.2496
  596MOL0     O80361   2.443  10.462   7.267 -0.4226 -0.2491  0.0985
  596MOL0     C80362   2.454  10.604   7.275  0.2167  0.3484  0.4260
  596MOL0     C80363   2.565  10.664   7.187  0.2017  0.4212  0.8050
  596MOL0     C80364   2.698  10.586   7.187  0.6373  0.1634  0.6147
  596MOL0     C80365   2.802  10.641   7.083  0.2718  0.4833  0.5213
  596MOL0     C80366   2.945  10.577   7.097 -0.8140  0.0458  0.0114
  596MOL0     C80367   3.018  10.601   7.235 -0.0323 -0.2818  0.5780
  596MOL0     C80368   3.076  10.746   7.249 -0.1564  0.0323 -0.2672
  596MOL0     C80369   3.219  10.764   7.206  0.8261 -0.3394  0.5216
  596MOL0    Cl80370   3.325  10.661   7.306 -0.2118  0.0760  0.5893
  596MOL0     C80371   2.252  10.460   7.429 -0.1507  0.3019  0.6148
  596MOL0     C80372   2.199  10.393   7.538  0.5436  0.3556 -0.0516
  596MOL0     O80373   2.010  10.161   7.590  0.6359 -0.4704 -0.3068
  596MOL0     C80374   2.012  10.234   7.933 -1.0257 -0.2349  0.4326
  596MOL0     C80375   1.943  10.228   8.051 -0.2950 -0.8131  0.7607
  596MOL0     N80376   1.418  10.305   8.585  0.4738 -1.2340 -0.4352
  596MOL0     N80377   1.400  10.256   8.703 -0.8003 -0.0762  0.9917
  596MOL0     C80378   1.359   9.972   7.891 -0.5774  0.0028 -0.4421
  596MOL0     C80379   1.352   9.955   7.758  0.6502 -1.4451  0.3129
  596MOL0     C80380   1.103   9.879   7.362 -0.0277  0.3273 -0.4285
  596MOL0     C80381   1.205   9.815   7.294 -0.2401  0.0365 -0.8019
  596MOL0     C80382   1.175   9.746   7.179  0.6400  0.1733  0.8119
  596MOL0     C80383   1.043   9.744   7.134 -0.3128 -0.0211  0.5247
  596MOL0     O80384   1.023   9.677   7.011 -0.4636  0.0307  0.3237
  596MOL0     C80385   1.140   9.676   6.915  0.0738  0.3913 -0.0326
  596MOL0     C80386   1.203   9.809   6.883  0.0442 -0.8933  0.4041
  596MOL0     C80387   1.328   9.821   6.791  0.6872  0.3792  0.1833
  596MOL0     C80388   1.469   9.803   6.871 -0.4059  0.2253 -0.0769
  596MOL0     C80389   1.457   9.876   7.002  0.9728 -0.4951 -0.7980
  596MOL0     C80390   1.450   9.941   7.109  1.1143 -0.1419 -0.8946
  596MOL0     C80391   0.943   9.804   7.208 -0.4558 -0.9322 -0.1353
  596MOL0     C80392   0.964   9.883   7.320 -0.2284 -0.2835  0.5826
  596MOL0     H80393   1.073   9.754   7.738  0.2624  0.6093 -1.5373
  596MOL0     H80394   1.120   9.746   7.990 -0.4469  0.8972 -0.2452
  596MOL0     H80395   1.228   9.692   8.183  0.7213 -1.5164  0.1707
  596MOL0     H80396   1.387   9.688   8.120  2.5704  2.3090 -0.9011
  596MOL0     H80397   1.392   9.654   8.344 -2.7504 -1.1804 -0.2751
  596MOL0     H80398   1.440   9.828   8.339  0.0392  0.3333 -1.1682
  596MOL0     H80399   1.168   9.848   8.360  1.2203 -3.1703 -4.1275
  596MOL0     H80400   1.183   9.690   8.441  1.3468 -0.0334  4.0834
  596MOL0     H80401   1.351   9.751   8.581 -1.2088 -2.4171 -0.7504
  596MOL0     H80402   1.326   9.922   8.549  0.0011 -0.1430 -0.9196
  596MOL0     H80403   1.093   9.922   8.636  0.4387  0.1417 -0.6894
  596MOL0     H80404   1.089   9.751   8.651 -0.7010 -0.1036  0.7541
  596MOL0     H80405   1.126   9.853   8.858 -2.1916  0.0729 -2.3359
  596MOL0     H80406   1.267   9.754   8.823  0.7195 -0.4733 -3.5622
  596MOL0     H80407   1.369   9.961   8.907  0.5206  1.8673  0.1793
  596MOL0     H80408   1.376   9.978   8.731 -3.5704 -0.7491 -2.8701
  596MOL0     H80409   1.250  10.164   8.894  1.3882  0.4451 -0.8398
  596MOL0     H80410   1.127  10.088   8.794 -0.1039 -2.3219  3.2376
  596MOL0     H80411   1.163  10.106   8.523 -0.0085 -2.4011 -0.8311
  596MOL0     H80412   1.190  10.296   8.327 -0.5017 -1.5363  1.7286
  596MOL0     H80413   1.333  10.401   8.331  2.9298 -1.2794  0.6566
  596MOL0     H80414   1.348  10.240   8.133  0.6020  1.2122 -0.5284
  596MOL0     H80415   1.348  10.110   8.267  0.3471  0.4461 -0.6067
  596MOL0     H80416   1.535  10.157   8.364 -3.5853  1.6595  1.6505
  596MOL0     H80417   1.558  10.318   8.290 -0.1222  0.2080  2.5615
  596MOL0     H80418   1.574  10.175   8.069  0.0268  1.2735  1.2548
  596MOL0     H80419   1.619  10.043   8.176  0.3164 -0.5890 -1.5052
  596MOL0     H80420   1.689  10.043   7.942 -2.9201  2.4815  0.5890
  596MOL0     H80421   1.736  10.029   7.657  0.2130 -0.6848 -0.7358
  596MOL0     H80422   1.893   9.945   7.657  1.3802  3.2807 -1.3013
  596MOL0     H80423   1.753   9.898   7.754 -1.3195  1.7132  1.4446
  596MOL0     H80424   2.414  10.137   7.575  3.2215 -0.1600 -0.7526
  596MOL0     H80425   2.516  10.243   7.383 -1.1797  0.0912 -2.2720
  596MOL0     H80426   2.353  10.640   7.254  0.3034 -1.3429 -3.9823
  596MOL0     H80427   2.472  10.641   7.376 -0.3138  2.0600 -0.0867
  596MOL0     H80428   2.517  10.668   7.089 -0.2593  6.1224  0.9647
  596MOL0     H80429   2.592  10.763   7.225  0.5465  0.6200  0.0426
  596MOL0     H80430   2.667  10.484   7.160 -1.9431  1.2701 -1.0401
  596MOL0     H80431   2.736  10.592   7.289 -2.3286 -0.2631  1.8705
  596MOL0     H80432   2.751  10.627   6.987 -2.0842 -0.6394  1.8387
  596MOL0     H80433   2.810  10.750   7.091 -1.2762  0.8964 -2.3059
  596MOL0     H80434   3.001  10.628   7.017 -0.2428  0.0761  0.4223
  596MOL0     H80435   2.949  10.471   7.073  1.7403 -0.2144  1.2293
  596MOL0     H80436   2.960  10.577   7.324  3.2702 -2.5327  2.3289
  596MOL0     H80437   3.100  10.529   7.240 -0.1841 -0.9421 -3.2716
  596MOL0     H80438   3.081  10.772   7.356 -1.1358  0.3527 -0.2915
  596MOL0     H80439   3.002  10.809   7.199 -0.7325 -1.2813 -1.1219
  596MOL0     H80440   3.242  10.871   7.211 -3.6834  1.1319 -3.0343
  596MOL0     H80441   3.231  10.755   7.098  2.2180  0.5604  0.5767
  596MOL0     H80442   2.213  10.557   7.402  0.3848 -0.2059 -2.2933
  596MOL0     H80443   2.121  10.432   7.602  0.9920  0.2591  0.5674
  596MOL0     H80444   2.106  10.285   7.917  0.9327 -3.7601 -0.3698
  596MOL0     H80445   1.965  10.291   8.137 -2.3345 -0.8137  1.3339
  596MOL0     H80446   1.432  10.032   7.944 -3.9946  2.8994  1.4343
  596MOL0     H80447   1.408  10.022   7.694 -0.3665  0.0840  0.9744
  596MOL0     H80448   1.303   9.824   7.339 -2.0270  4.8225  3.0324
  596MOL0     H80449   1.257   9.695   7.130 -0.2406 -1.1480  0.6653
  596MOL0     H80450   1.214   9.605   6.952 -1.0081  0.9689  3.7745
  596MOL0     H80451   1.100   9.634   6.823  0.9443  0.3912 -0.4112
  596MOL0     H80452   1.206   9.879   6.967 -1.7688  0.3694 -0.5194
  596MOL0     H80453   1.128   9.855   6.817 -1.2336 -0.7801  1.8987
  596MOL0     H80454   1.328   9.915   6.736 -0.6364  0.5765  0.4797
  596MOL0     H80455   1.322   9.743   6.714  2.6461  1.6902 -1.4012
  596MOL0     H80456   1.546   9.861   6.820  0.5425  1.7857  2.8631
  596MOL0     H80457   1.498   9.698   6.882 -3.8269 -0.9787 -1.1991
  596MOL0     H80458   1.467  10.009   7.191  2.2041  0.7682 -1.8409
  596MOL0     H80459   0.840   9.791   7.174 -0.1547  2.8412 -3.1225
  596MOL0     H80460   0.892   9.939   7.378  0.1776  2.9805 -1.7917
  597MOL0     O80461  11.350   8.503   7.206 -0.5247 -0.4294  0.4521
  597MOL0     C80462  11.337   8.406   7.130 -0.6451  0.0436  1.1891
  597MOL0     O80463  11.438   8.326   7.082 -0.5751  0.6277  0.6914
  597MOL0     C80464  11.560   8.389   7.095 -0.0855  0.2887  0.7261
  597MOL0     C80465  11.595   8.485   7.000 -0.9423 -0.5108  0.0992
  597MOL0     C80466  11.711   8.568   7.022 -0.1299 -0.7117 -0.7385
  597MOL0     C80467  11.793   8.538   7.136  0.2135  0.4503  0.3047
  597MOL0     O80468  11.904   8.613   7.168 -0.2182 -0.0060  0.1588
  597MOL0     C80469  11.910   8.746   7.130  1.0333 -0.4497  0.2978
  597MOL0     C80470  11.997   8.789   7.009  0.5459  0.2329  0.1264
  597MOL0     C80471  11.989   8.940   6.986  0.6499  0.0181 -0.4317
  597MOL0     C80472  12.055   8.996   6.860 -0.0321  0.3874 -0.2395
  597MOL0     C80473  12.038   9.150   6.834 -0.5936  0.3415  2.3932
  597MOL0     C80474  12.098   9.234   6.951 -0.1464 -0.0146  0.6092
  597MOL0     C80475  12.101   9.387   6.912 -1.2129  0.6900  0.0944
  597MOL0     C80476  12.167   9.478   7.016  0.3311  0.2375 -0.1283
  597MOL0     N80477  12.118   9.614   7.006  0.0070  0.2017 -0.4629
  597MOL0     C80478  12.129   9.683   6.887  0.4067  0.2383  0.0083
  597MOL0     C80479  12.082   9.806   6.922  0.2360  0.3431 -0.1098
  597MOL0     C80480  12.072   9.935   6.839  0.4417  0.3069 -0.5382
  597MOL0     C80481  12.181   9.975   6.732  0.4360 -0.1215  0.2929
  597MOL0     C80482  12.329   9.966   6.771  0.4878 -0.1525  0.3708
  597MOL0     C80483  12.354  10.052   6.891  0.2401  0.1669  0.8376
  597MOL0     O80484  12.488  10.094   6.898 -0.2289 -1.3572  0.0289
  597MOL0     C80485  12.521  10.173   7.016 -0.5420  1.2244 -0.6923
  597MOL0     C80486  12.655  10.173   7.053  0.1075  0.7474 -0.2085
  597MOL0     C80487  12.716  10.242   7.163  0.8403 -0.1907  0.2212
  597MOL0     C80488  12.866  10.257   7.167  0.2501 -0.1809  0.0206
  597MOL0     C80489  12.621  10.313   7.246  0.2528  0.5772 -0.2616
  597MOL0     C80490  12.658  10.383   7.373 -0.3969  0.3708  0.0074
  597MOL0     O80491  12.777  10.348   7.431 -0.2394 -0.4027  0.0724
  597MOL0     C80492  12.816  10.400   7.555  0.4320  0.1486 -0.6837
  597MOL0     C80493  12.832  10.330   7.673  0.5767  0.2952 -0.6364
  597MOL0     C80494  12.884  10.396   7.785 -0.2636  0.7202 -0.0108
  597MOL0     C80495  12.925  10.535   7.774  0.2240  0.5900 -0.5230
  597MOL0     O80496  13.007  10.588   7.870 -0.6154  0.1094  0.7391
  597MOL0     C80497  13.104  10.501   7.933 -0.4286  0.2828 -0.0306
  597MOL0     C80498  13.240  10.574   7.942  0.5642  0.4334 -1.0404
  597MOL0     C80499  13.304  10.599   7.804  0.0405 -0.5681 -0.6165
  597MOL0     C80500  13.447  10.661   7.811  0.0416  0.3300  0.4624
  597MOL0     C80501  13.500  10.728   7.680 -0.7386 -0.0803 -0.5989
  597MOL0     C80502  13.642  10.779   7.682  0.7258 -1.3147  1.1203
  597MOL0     C80503  13.680  10.838   7.539  0.3809  0.3799 -0.5506
  597MOL0     C80504  13.595  10.962   7.503  0.7661 -0.7289 -0.8522
  597MOL0    Cl80505  13.641  11.105   7.617 -0.0506 -0.5234  0.2542
  597MOL0     C80506  12.895  10.596   7.662  1.0541 -0.2891  0.5523
  597MOL0     C80507  12.838  10.538   7.555 -0.4407  0.1606 -0.4334
  597MOL0     O80508  12.579  10.466   7.419  0.2770  0.8853  0.2651
  597MOL0     C80509  12.487  10.304   7.212 -0.0582 -0.6787  0.0465
  597MOL0     C80510  12.438  10.236   7.102 -0.2745 -0.2128  0.6572
  597MOL0     N80511  12.051   9.805   7.058  0.3918 -0.0181  1.2680
  597MOL0     N80512  12.082   9.689   7.107 -0.0805  0.4106  0.2491
  597MOL0     C80513  11.755   8.438   7.227  0.3874 -0.6710 -0.2771
  597MOL0     C80514  11.642   8.356   7.196 -0.6197 -0.0107  0.8530
  597MOL0     C80515  11.200   8.349   7.097  0.5482 -0.6486 -0.5688
  597MOL0     C80516  11.187   8.240   7.014  0.3200  0.7535  0.3660
  597MOL0     C80517  11.061   8.181   6.991 -0.8300 -0.0100  0.3797
  597MOL0     C80518  10.953   8.230   7.067 -1.5542  0.4184  0.0693
  597MOL0     O80519  10.832   8.166   7.076  0.4524  0.1834  0.1826
  597MOL0     C80520  10.841   8.026   7.102  0.7753 -0.4687 -0.4192
  597MOL0     C80521  10.717   7.971   7.174  0.1025 -0.0999 -0.0784
  597MOL0     C80522  10.663   8.069   7.294 -0.3462 -0.1647  0.0721
  597MOL0     C80523  10.686   8.019   7.440  0.2302 -0.4529 -0.1531
  597MOL0     C80524  10.632   8.120   7.529 -0.9687 -0.4473 -0.3721
  597MOL0     C80525  10.562   8.199   7.587  0.0553 -0.3733  0.1256
  597MOL0     C80526  10.969   8.343   7.144  0.9392 -1.0546  0.1602
  597MOL0     C80527  11.090   8.404   7.156 -0.2216 -0.6879 -0.2608
  597MOL0     H80528  11.534   8.510   6.914  1.1297  1.8221 -0.8100
  597MOL0     H80529  11.744   8.646   6.954  0.0427 -1.1801 -1.2010
  597MOL0     H80530  11.810   8.791   7.126  1.4344  0.7395  2.3995
  597MOL0     H80531  11.949   8.789   7.222  1.6649  2.1747 -1.0869
  597MOL0     H80532  12.100   8.761   7.032 -0.1978 -2.3281  0.6884
  597MOL0     H80533  11.964   8.740   6.918  0.2366  1.8455 -0.6641
  597MOL0     H80534  11.884   8.962   6.964  0.8362 -0.0661 -1.4661
  597MOL0     H80535  12.040   8.991   7.068 -1.5576 -0.6614  1.4797
  597MOL0     H80536  12.158   8.960   6.872 -0.3792 -0.3045  0.8674
  597MOL0     H80537  12.011   8.957   6.768 -0.5247 -1.1025  0.5918
  597MOL0     H80538  12.092   9.164   6.740 -1.3980  0.5129  1.9486
  597MOL0     H80539  11.936   9.181   6.813  0.3596  1.4180 -1.3268
  597MOL0     H80540  12.045   9.224   7.046 -0.5356  0.5159  0.4541
  597MOL0     H80541  12.203   9.211   6.969  0.3133  0.5703 -1.0963
  597MOL0     H80542  12.168   9.398   6.826 -2.4618 -1.3567 -1.2301
  597MOL0     H80543  12.003   9.429   6.886  0.5003  2.7866 -4.0810
  597MOL0     H80544  12.275   9.476   6.999  1.0902  3.4846  3.0200
  597MOL0     H80545  12.151   9.436   7.116  1.6478 -3.1580 -1.1852
  597MOL0     H80546  12.152   9.642   6.789 -2.2250 -1.7055  0.0912
  597MOL0     H80547  11.976   9.911   6.792 -0.0220 -2.3245  1.5516
  597MOL0     H80548  12.060  10.020   6.907  0.1743 -0.5880  0.5513
  597MOL0     H80549  12.151  10.076   6.704 -1.6875 -0.7024  0.2689
  597MOL0     H80550  12.177   9.927   6.633  1.6723  0.8798 -0.2603
  597MOL0     H80551  12.366  10.008   6.677 -0.5298  1.1443  0.5232
  597MOL0     H80552  12.363   9.864   6.789  0.7589 -0.6123 -2.4069
  597MOL0     H80553  12.335   9.997   6.984  0.9451  1.1639  1.6039
  597MOL0     H80554  12.286  10.137   6.899  3.0100  2.4060  3.3159
  597MOL0     H80555  12.708  10.112   6.980 -1.9024  0.3026 -1.3725
  597MOL0     H80556  12.880  10.363   7.191  1.2266  0.7359 -3.9412
  597MOL0     H80557  12.912  10.193   7.243  1.0892  0.7680  0.3300
  597MOL0     H80558  12.910  10.237   7.069 -1.0080  0.2859 -0.6640
  597MOL0     H80559  12.809  10.225   7.686  0.9632  0.5631  3.2531
  597MOL0     H80560  12.910  10.335   7.871  3.5530  2.0423 -0.0201
  597MOL0     H80561  13.069  10.467   8.031  2.2431  0.0942  0.9640
  597MOL0     H80562  13.121  10.415   7.868 -0.0234  0.3936 -0.0755
  597MOL0     H80563  13.233  10.668   7.997  2.9311  0.2794 -0.3877
  597MOL0     H80564  13.297  10.499   7.997 -1.1713  1.0596  1.7950
  597MOL0     H80565  13.231  10.665   7.758 -2.5344  0.0454  3.7517
  597MOL0     H80566  13.306  10.501   7.757 -0.1472 -1.4331  1.1104
  597MOL0     H80567  13.445  10.732   7.894  0.1177  0.1029  0.6612
  597MOL0     H80568  13.524  10.588   7.837 -1.2839 -1.6924 -0.9784
  597MOL0     H80569  13.429  10.807   7.654 -0.6504 -0.6839 -2.8868
  597MOL0     H80570  13.494  10.644   7.609 -0.7441  0.8109 -1.6865
  597MOL0     H80571  13.665  10.853   7.760 -1.8658  0.0937  0.6643
  597MOL0     H80572  13.706  10.691   7.689  1.1981 -0.8559  3.9440
  597MOL0     H80573  13.655  10.765   7.462  3.1282 -1.8342  0.4838
  597MOL0     H80574  13.784  10.869   7.528  0.6499  1.5296  3.4053
  597MOL0     H80575  13.489  10.936   7.516  0.5171  0.4550 -0.3609
  597MOL0     H80576  13.603  10.995   7.399 -0.4830  2.9398  0.0742
  597MOL0     H80577  12.915  10.702   7.660 -0.8578  0.1250  1.3214
  597MOL0     H80578  12.826  10.599   7.467  1.6276  0.7095 -0.3946
  597MOL0     H80579  12.412  10.349   7.277 -1.9298 -3.0301 -0.3293
  597MOL0     H80580  12.332  10.223   7.085 -1.0726  1.9291  3.3134
  597MOL0     H80581  11.818   8.427   7.314 -1.9751  4.1406  2.4864
  597MOL0     H80582  11.605   8.270   7.251  4.5165 -1.6278  2.3822
  597MOL0     H80583  11.276   8.200   6.966 -0.9659 -1.3537 -0.3917
  597MOL0     H80584  11.048   8.087   6.939  0.7165  0.4869 -0.9860
  597MOL0     H80585  10.867   7.973   7.011  0.7113 -1.6721  0.2510
  597MOL0     H80586  10.924   8.017   7.173  1.7640 -1.4007 -1.6619
  597MOL0     H80587  10.741   7.873   7.216  1.0114 -0.2840 -0.9887
  597MOL0     H80588  10.631   7.961   7.106  0.1236  0.4193 -0.1798
  597MOL0     H80589  10.555   8.082   7.292 -0.4217 -0.6072  0.8199
  597MOL0     H80590  10.705   8.169   7.282 -0.9112  0.1437  0.5891
  597MOL0     H80591  10.793   8.009   7.461  0.6090  3.0090  0.1154
  597MOL0     H80592  10.647   7.919   7.461 -0.0102 -0.1751  0.7981
  597MOL0     H80593  10.508   8.267   7.649  1.8519 -0.8186  2.3393
  597MOL0     H80594  10.892   8.373   7.214 -0.6954 -2.8276 -0.7981
  597MOL0     H80595  11.081   8.480   7.234 -3.4083 -0.2390 -0.9040
  598MOL0     O80596   5.070   5.297   6.440 -0.1394  0.0629  0.0078
  598MOL0     C80597   5.008   5.281   6.543  0.2158 -0.2247 -0.1238
  598MOL0     O80598   4.994   5.368   6.643  0.0432  0.3674 -0.2020
  598MOL0     C80599   4.995   5.500   6.611  0.3359 -0.1072 -0.9085
  598MOL0     C80600   5.119   5.566   6.622  0.1290  0.5524  0.3357
  598MOL0     C80601   5.121   5.703   6.592  0.6231 -0.8148  0.9818
  598MOL0     C80602   5.006   5.775   6.550 -0.2448 -0.3264  0.1617
  598MOL0     O80603   5.029   5.906   6.524  0.2565  0.0180  0.2855
  598MOL0     C80604   4.934   5.981   6.437 -0.7253  0.1277 -0.3516
  598MOL0     C80605   4.865   6.096   6.521 -0.4368  0.6803 -0.4171
  598MOL0     C80606   4.765   6.170   6.430  0.7106 -0.1966  0.3223
  598MOL0     C80607   4.671   6.262   6.514 -0.0012 -0.0687  0.6263
  598MOL0     C80608   4.578   6.188   6.609  0.4382 -0.3161 -1.4187
  598MOL0     C80609   4.466   6.275   6.652 -0.0368 -0.6381  0.4715
  598MOL0     C80610   4.509   6.377   6.758 -0.1913 -0.3150  0.7999
  598MOL0     C80611   4.517   6.516   6.699  0.0686 -0.0166 -0.0127
  598MOL0     N80612   4.555   6.612   6.805  0.6176 -0.4788  0.6099
  598MOL0     C80613   4.488   6.651   6.918  0.2151 -0.5099  0.5038
  598MOL0     C80614   4.550   6.762   6.965  0.0826  0.9610  0.8090
  598MOL0     C80615   4.521   6.852   7.072 -0.4365 -0.0255 -0.3797
  598MOL0     C80616   4.559   6.801   7.210 -0.0390  0.6165 -0.4613
  598MOL0     C80617   4.708   6.791   7.235 -0.9265  0.0983 -1.0752
  598MOL0     C80618   4.747   6.791   7.384  1.2480  0.7019 -0.1484
  598MOL0     O80619   4.894   6.775   7.392  0.8282 -0.6295  0.0810
  598MOL0     C80620   4.947   6.831   7.505  0.0808  0.8480 -0.6646
  598MOL0     C80621   5.085   6.815   7.511 -0.3866 -0.6284 -0.5007
  598MOL0     C80622   5.159   6.885   7.608 -0.0825  0.8446 -0.0843
  598MOL0     C80623   5.318   6.892   7.582  0.0450  0.4695 -0.9083
  598MOL0     C80624   5.096   6.945   7.714  0.3145 -0.6225 -0.0278
  598MOL0     C80625   5.165   7.015   7.821 -1.3289  0.0669 -0.1832
  598MOL0     O80626   5.149   7.149   7.817 -0.7226 -0.2708 -0.0824
  598MOL0     C80627   5.251   7.222   7.879 -0.8713  0.3560  0.0805
  598MOL0     C80628   5.217   7.348   7.937 -0.1031 -0.4457 -0.7218
  598MOL0     C80629   5.312   7.431   8.006 -0.4485  0.5741 -0.2848
  598MOL0     C80630   5.447   7.398   8.005  0.4057  0.1352  0.0931
  598MOL0     O80631   5.517   7.483   8.083 -0.6581 -0.3748  0.0742
  598MOL0     C80632   5.636   7.425   8.147  0.5651  0.9078 -0.2668
  598MOL0     C80633   5.704   7.520   8.249  0.4787 -0.0648 -0.1452
  598MOL0     C80634   5.765   7.632   8.181  0.8514 -1.0240 -0.0047
  598MOL0     C80635   5.858   7.719   8.277  0.2613  0.3756  0.7219
  598MOL0     C80636   6.004   7.660   8.279 -0.1297 -0.1285 -1.2007
  598MOL0     C80637   6.092   7.752   8.358 -0.8609  0.3047  0.4145
  598MOL0     C80638   6.239   7.715   8.358 -0.6145 -0.3757 -0.2265
  598MOL0     C80639   6.303   7.723   8.225  0.1414  0.0578  0.5093
  598MOL0    Cl80640   6.353   7.906   8.198 -0.0005 -0.4892 -0.2772
  598MOL0     C80641   5.488   7.274   7.943 -0.9281  1.0667  0.6279
  598MOL0     C80642   5.395   7.189   7.873  0.3110  0.0521  0.4247
  598MOL0     O80643   5.220   6.949   7.910  0.3752  0.4605  1.0450
  598MOL0     C80644   4.953   6.941   7.721 -0.4252  0.4628 -0.3598
  598MOL0     C80645   4.882   6.875   7.626  0.9272 -0.3633  0.0210
  598MOL0     N80646   4.662   6.784   6.886 -0.2455  0.2073 -0.9532
  598MOL0     N80647   4.665   6.695   6.796 -0.5764  0.7503 -0.4496
  598MOL0     C80648   4.880   5.714   6.553 -0.9929  0.4725  0.5407
  598MOL0     C80649   4.883   5.577   6.575  0.1115  0.4961  0.8497
  598MOL0     C80650   4.947   5.146   6.560  0.0886  0.5725 -0.0728
  598MOL0     C80651   4.884   5.077   6.453 -0.3988 -0.1463 -0.1636
  598MOL0     C80652   4.823   4.952   6.467  1.7808  0.8134 -0.0783
  598MOL0     C80653   4.827   4.884   6.593 -0.1636  0.3383  0.4880
  598MOL0     O80654   4.767   4.761   6.613 -0.1669 -0.2531  0.5384
  598MOL0     C80655   4.829   4.659   6.537 -0.4470 -0.2394  0.3780
  598MOL0     C80656   4.920   4.557   6.600  0.1136 -0.7766  0.9299
  598MOL0     C80657   4.930   4.575   6.752  0.4034 -0.1455  0.2926
  598MOL0     C80658   5.031   4.473   6.807 -0.4990  0.1021  0.5606
  598MOL0     C80659   5.040   4.470   6.953 -0.3380  0.6230  0.1419
  598MOL0     C80660   5.059   4.486   7.078  0.4910  0.4352  1.8522
  598MOL0     C80661   4.894   4.947   6.692  0.6073 -0.2119  0.0169
  598MOL0     C80662   4.962   5.073   6.680 -0.1025  0.1458  0.5755
  598MOL0     H80663   5.212   5.514   6.641  1.2499  1.3809 -2.3602
  598MOL0     H80664   5.216   5.753   6.603  0.1112  0.5693 -0.4047
  598MOL0     H80665   5.003   6.027   6.366 -2.0210  3.3513  0.3183
  598MOL0     H80666   4.863   5.917   6.384 -1.5800  1.0328 -0.3247
  598MOL0     H80667   4.821   6.054   6.612 -1.5603 -0.7904 -1.5712
  598MOL0     H80668   4.946   6.164   6.547 -0.0811 -0.0373  0.3948
  598MOL0     H80669   4.810   6.220   6.344 -0.3587 -2.8920 -1.9824
  598MOL0     H80670   4.705   6.090   6.385 -0.0509 -0.6388  2.0562
  598MOL0     H80671   4.726   6.330   6.579 -0.6196 -0.0545  1.1379
  598MOL0     H80672   4.611   6.330   6.452  2.3178  1.5136 -0.0295
  598MOL0     H80673   4.532   6.101   6.559  1.8780  0.0254 -3.4733
  598MOL0     H80674   4.629   6.162   6.702  1.8011  1.5161 -1.6083
  598MOL0     H80675   4.415   6.327   6.570 -2.4133  0.4669  2.5311
  598MOL0     H80676   4.382   6.219   6.692 -1.7464  0.8152 -0.8639
  598MOL0     H80677   4.439   6.383   6.842  0.9447  2.7201  1.6619
  598MOL0     H80678   4.602   6.336   6.798 -0.8390 -0.8124  1.8236
  598MOL0     H80679   4.419   6.551   6.665  0.4187 -2.3176 -3.9339
  598MOL0     H80680   4.583   6.524   6.612 -0.5626  1.9483 -0.3533
  598MOL0     H80681   4.393   6.623   6.962 -0.3266  2.2676  1.2646
  598MOL0     H80682   4.565   6.950   7.054 -0.0109  0.7575  3.9441
  598MOL0     H80683   4.412   6.855   7.069 -0.4055  1.0166 -0.8450
  598MOL0     H80684   4.508   6.705   7.226 -0.0869  0.8589  0.9852
  598MOL0     H80685   4.506   6.872   7.274 -2.3000 -0.1324 -1.3763
  598MOL0     H80686   4.765   6.876   7.197  0.7272  0.4950  1.9549
  598MOL0     H80687   4.734   6.693   7.196  2.4829  0.0861  0.8900
  598MOL0     H80688   4.694   6.708   7.431  1.8903 -0.2131 -0.9929
  598MOL0     H80689   4.711   6.888   7.417  2.3528  1.3094 -0.6631
  598MOL0     H80690   5.146   6.771   7.433  0.7367  0.0636 -0.0353
  598MOL0     H80691   5.354   6.797   7.623 -4.2454 -0.1391  2.1934
  598MOL0     H80692   5.352   6.897   7.479 -0.1270 -0.9084 -1.0476
  598MOL0     H80693   5.370   6.965   7.645  0.6183 -0.5009 -0.2144
  598MOL0     H80694   5.117   7.388   7.944 -0.7112 -2.1797  2.0138
  598MOL0     H80695   5.274   7.517   8.060 -2.5090 -0.6145  0.2977
  598MOL0     H80696   5.613   7.326   8.188  0.5093  0.4744 -1.3105
  598MOL0     H80697   5.719   7.398   8.082  2.1958  1.7947  1.3765
  598MOL0     H80698   5.617   7.560   8.302 -1.3304 -5.6075  1.7749
  598MOL0     H80699   5.765   7.453   8.311  0.2075  0.3911  0.6351
  598MOL0     H80700   5.679   7.691   8.148  1.6641  0.8186  0.9980
  598MOL0     H80701   5.825   7.596   8.096  1.3142 -2.6134  0.9407
  598MOL0     H80702   5.858   7.824   8.246 -1.4982  0.1415 -0.2330
  598MOL0     H80703   5.823   7.717   8.381  1.2075  2.2639  1.1072
  598MOL0     H80704   6.041   7.644   8.177  2.2993 -2.9715  0.0062
  598MOL0     H80705   6.001   7.559   8.319  2.1775 -1.1167 -3.2365
  598MOL0     H80706   6.085   7.859   8.337 -0.0227  0.4864  0.9979
  598MOL0     H80707   6.049   7.745   8.459 -3.4778  0.2809 -0.6374
  598MOL0     H80708   6.249   7.610   8.387  1.4035  0.2866  1.7159
  598MOL0     H80709   6.289   7.791   8.419  0.7022 -3.8182  3.4303
  598MOL0     H80710   6.246   7.671   8.148 -0.8400 -0.1905  1.3767
  598MOL0     H80711   6.396   7.669   8.244  0.0903  0.1004  0.9003
  598MOL0     H80712   5.593   7.248   7.947 -1.1662 -0.3524 -1.2764
  598MOL0     H80713   5.436   7.106   7.817  0.5249  0.3612  0.1187
  598MOL0     H80714   4.901   6.991   7.803 -3.3832 -3.2061  0.2556
  598MOL0     H80715   4.774   6.885   7.624  0.5991 -3.0739 -2.1503
  598MOL0     H80716   4.783   5.761   6.541 -1.1117 -0.2731 -1.9487
  598MOL0     H80717   4.788   5.528   6.554  1.2265 -0.5952 -2.0917
  598MOL0     H80718   4.897   5.121   6.354 -0.1472  0.3137  0.0702
  598MOL0     H80719   4.772   4.903   6.385  1.1007  2.8739 -0.9679
  598MOL0     H80720   4.739   4.609   6.500 -1.6446  4.3442 -4.1315
  598MOL0     H80721   4.889   4.709   6.460  0.7811  0.8353  1.9660
  598MOL0     H80722   5.020   4.560   6.555 -1.3930  1.6707 -2.6889
  598MOL0     H80723   4.886   4.459   6.565 -1.3085  0.0685 -0.1663
  598MOL0     H80724   4.830   4.583   6.795  0.2828  0.6549 -0.1224
  598MOL0     H80725   4.981   4.671   6.767  2.3215 -0.7860 -1.6119
  598MOL0     H80726   5.126   4.488   6.755 -0.6948  1.7757  0.6059
  598MOL0     H80727   4.997   4.378   6.767 -1.6053  0.3335  0.9202
  598MOL0     H80728   5.061   4.508   7.183  2.3088  0.9776  1.7374
  598MOL0     H80729   4.902   4.888   6.783  1.5267  0.2526  0.2566
  598MOL0     H80730   5.021   5.123   6.756  0.0131  1.7884 -0.5286
  599MOL0     O80731   7.376   0.200  10.181  0.7481 -0.4452  0.0482
  599MOL0     C80732   7.254   0.196  10.187 -0.3850  1.4738  0.8479
  599MOL0     O80733   7.180   0.231  10.306  0.3669  0.0525 -0.1507
  599MOL0     C80734   7.229   0.289  10.424 -0.0638  0.3991  0.6980
  599MOL0     C80735   7.147   0.382  10.484  1.0599 -0.8994  0.9995
  599MOL0     C80736   7.188   0.457  10.589  0.0299  0.2491  0.8440
  599MOL0     C80737   7.305   0.424  10.654 -1.0279 -0.1113 -1.1404
  599MOL0     O80738   7.341   0.492  10.768 -0.0803  0.4987  0.0421
  599MOL0     C80739   7.441   0.433  10.864  0.4116 -0.2258  1.1663
  599MOL0     C80740   7.433   0.527  10.990 -0.0006 -0.2798 -1.3201
  599MOL0     C80741   7.296   0.509  11.062 -0.5196 -0.6277  0.7843
  599MOL0     C80742   7.274   0.598  11.191  0.4921  0.6358  0.8596
  599MOL0     C80743   7.138   0.566  11.239 -0.7928  0.1201  0.1269
  599MOL0     C80744   7.113   0.619  11.376  0.0290 -1.1415  1.0615
  599MOL0     C80745   7.092   0.772  11.362 -0.2363 -0.1666 -0.1750
  599MOL0     C80746   6.983   0.815  11.458 -0.0381  0.9803  0.4086
  599MOL0     N80747   6.962   0.956  11.453 -0.5433 -0.2908 -0.3851
  599MOL0     C80748   7.035   1.046  11.528  0.3377  0.0521 -0.0781
  599MOL0     C80749   6.994   1.165  11.488  0.3840 -0.9383 -0.7860
  599MOL0     C80750   7.051   1.290  11.560  0.2073  0.3828 -0.3754
  599MOL0     C80751   6.998   1.302  11.713 -0.8222  0.1460  0.3890
  599MOL0     C80752   6.840   1.304  11.707  0.5044  0.7860 -0.0725
  599MOL0     C80753   6.769   1.339  11.838 -0.1071 -0.4181 -0.8366
  599MOL0     O80754   6.835   1.451  11.901  0.0338  0.5968  0.3906
  599MOL0     C80755   6.841   1.566  11.825  0.2616  0.6331  0.1079
  599MOL0     C80756   6.948   1.654  11.854  0.2203 -0.1592 -0.0019
  599MOL0     C80757   6.955   1.783  11.791  0.1753  0.0313  0.8523
  599MOL0     C80758   7.074   1.864  11.815 -0.5732  0.2021 -0.2618
  599MOL0     C80759   6.859   1.824  11.697 -0.5777 -0.0497  0.0576
  599MOL0     C80760   6.846   1.941  11.615 -0.4675 -0.2737 -0.4638
  599MOL0     O80761   6.727   1.981  11.563 -0.3249  0.0807 -0.6096
  599MOL0     C80762   6.696   2.106  11.509 -0.2525 -0.7888 -0.0205
  599MOL0     C80763   6.796   2.199  11.464 -0.2816  0.1015 -0.4900
  599MOL0     C80764   6.756   2.322  11.409 -0.0752 -0.1856 -0.4975
  599MOL0     C80765   6.625   2.362  11.406 -0.1605 -0.1107 -0.6821
  599MOL0     O80766   6.602   2.485  11.353 -0.3350  0.5706  0.3152
  599MOL0     C80767   6.483   2.547  11.374 -0.3799  0.3935 -0.1517
  599MOL0     C80768   6.489   2.696  11.314 -1.3984  1.0515 -0.1193
  599MOL0     C80769   6.377   2.769  11.401 -0.2293 -0.3646 -0.3760
  599MOL0     C80770   6.391   2.922  11.377 -0.9409  0.4339  0.0713
  599MOL0     C80771   6.352   2.977  11.241  0.4820  0.5325  0.1572
  599MOL0     C80772   6.404   3.127  11.214  0.8251 -0.3749 -0.3355
  599MOL0     C80773   6.539   3.145  11.160 -0.0348 -0.1369 -0.2421
  599MOL0     C80774   6.576   3.130  11.006 -1.2235  0.3184  0.2974
  599MOL0    Cl80775   6.738   3.204  10.969  0.0780  0.2249  0.2408
  599MOL0     C80776   6.527   2.278  11.467 -0.9233 -0.9778  0.0821
  599MOL0     C80777   6.559   2.144  11.510 -0.3882 -0.3474 -0.3397
  599MOL0     O80778   6.953   2.005  11.614  1.0280  0.1212  1.4242
  599MOL0     C80779   6.753   1.732  11.673  0.2684 -1.0976 -0.8762
  599MOL0     C80780   6.745   1.610  11.733 -0.3424 -0.1336  0.1207
  599MOL0     N80781   6.894   1.157  11.391  0.0008 -0.6409 -0.1051
  599MOL0     N80782   6.883   1.029  11.375  0.2236 -0.0599 -0.4986
  599MOL0     C80783   7.387   0.334  10.602 -1.2083  0.4489 -0.0526
  599MOL0     C80784   7.356   0.258  10.484 -0.4695  0.4521 -0.6657
  599MOL0     C80785   7.177   0.146  10.071 -0.3988  0.6632 -0.7098
  599MOL0     C80786   7.238   0.117   9.949  0.0368  0.1597  0.1184
  599MOL0     C80787   7.160   0.072   9.844 -0.2989  0.7823  0.1721
  599MOL0     C80788   7.020   0.048   9.859 -0.1400 -0.7945  0.1862
  599MOL0     O80789   6.945   0.007   9.756 -0.3300  0.1344  0.0002
  599MOL0     C80790   7.001  -0.012   9.620 -0.2496 -0.4682 -0.3886
  599MOL0     C80791   6.878  -0.011   9.518  0.0671 -0.7403 -0.0580
  599MOL0     C80792   6.921  -0.077   9.385  1.4079 -0.0017 -0.1175
  599MOL0     C80793   6.858   0.002   9.264 -0.0084 -0.0507  0.7399
  599MOL0     C80794   6.951  -0.023   9.156 -0.8273 -0.2702  0.3325
  599MOL0     C80795   7.017  -0.038   9.051  1.9072 -0.7180  0.0674
  599MOL0     C80796   6.965   0.065   9.987 -0.2951 -1.4805  0.0517
  599MOL0     C80797   7.038   0.119  10.093  0.0973 -0.8507 -0.4711
  599MOL0     H80798   7.059   0.413  10.427 -0.3969 -2.9098  2.0277
  599MOL0     H80799   7.128   0.535  10.636 -1.0216  0.2871 -0.5001
  599MOL0     H80800   7.419   0.329  10.888 -2.2279 -0.8276 -2.9651
  599MOL0     H80801   7.542   0.440  10.825  0.2848 -1.1081  0.6527
  599MOL0     H80802   7.514   0.506  11.060  0.5471  0.1386 -1.8142
  599MOL0     H80803   7.441   0.635  10.972  0.4843 -0.2021 -0.6855
  599MOL0     H80804   7.219   0.541  10.991  0.8533  1.5930  0.2008
  599MOL0     H80805   7.290   0.402  11.080  0.4898 -0.4336  2.3945
  599MOL0     H80806   7.358   0.562  11.251  2.1795 -0.7344 -2.1022
  599MOL0     H80807   7.299   0.703  11.171 -0.0087  0.2520 -2.3111
  599MOL0     H80808   7.076   0.613  11.161 -0.1375  2.2795  0.8395
  599MOL0     H80809   7.121   0.458  11.237  0.7865 -0.2391  2.4864
  599MOL0     H80810   7.030   0.556  11.408  2.0416 -3.7501  1.4615
  599MOL0     H80811   7.204   0.605  11.433  2.6320  1.1384 -2.1194
  599MOL0     H80812   7.188   0.810  11.400 -0.8408  0.0134  1.2424
  599MOL0     H80813   7.060   0.813  11.266  2.3653 -0.2085 -1.1569
  599MOL0     H80814   7.026   0.791  11.556  1.3062  1.2926 -0.0879
  599MOL0     H80815   6.885   0.771  11.438  1.0315 -0.1658 -3.0174
  599MOL0     H80816   7.114   1.017  11.596  0.8259 -1.3591 -1.1907
  599MOL0     H80817   7.158   1.307  11.545 -0.2361  1.5296 -2.7591
  599MOL0     H80818   7.013   1.378  11.507  0.1153 -1.0675 -2.9079
  599MOL0     H80819   7.033   1.389  11.769  0.1772 -2.9071  5.0286
  599MOL0     H80820   7.027   1.213  11.770 -1.2048 -1.4628 -1.8018
  599MOL0     H80821   6.805   1.204  11.679  0.8706  0.4189  0.7456
  599MOL0     H80822   6.807   1.376  11.631  0.5463 -0.2369 -1.0903
  599MOL0     H80823   6.761   1.259  11.912 -0.4563  1.1129  0.8721
  599MOL0     H80824   6.669   1.367  11.804  0.2926  0.7831 -1.0682
  599MOL0     H80825   7.016   1.639  11.937  0.5107 -1.7783 -0.4960
  599MOL0     H80826   7.133   1.814  11.892 -2.5199 -1.6752  0.1151
  599MOL0     H80827   7.137   1.867  11.725  0.3740  1.1215  0.4145
  599MOL0     H80828   7.045   1.967  11.834  1.3764  0.1486  4.1247
  599MOL0     H80829   6.903   2.178  11.460 -0.1260  0.2023  1.7582
  599MOL0     H80830   6.833   2.391  11.376  0.0429 -0.3442 -0.5611
  599MOL0     H80831   6.403   2.505  11.313 -1.4582  1.9600  0.1228
  599MOL0     H80832   6.457   2.544  11.481  1.3915 -1.0098  0.3002
  599MOL0     H80833   6.591   2.733  11.329 -0.7005 -0.8165  0.0284
  599MOL0     H80834   6.481   2.698  11.205  3.9092  1.7521 -0.7220
  599MOL0     H80835   6.391   2.739  11.505  1.3050 -2.0824 -1.0191
  599MOL0     H80836   6.277   2.740  11.367 -1.6300  2.2629  1.1617
  599MOL0     H80837   6.320   2.958  11.453 -1.7493 -3.0382  1.1801
  599MOL0     H80838   6.488   2.966  11.398  0.2331 -0.7450 -2.4821
  599MOL0     H80839   6.246   2.965  11.220  1.0364 -2.7734 -1.4029
  599MOL0     H80840   6.399   2.910  11.169  2.3359  0.4061  1.3987
  599MOL0     H80841   6.332   3.183  11.154 -0.2379  1.1945  2.2895
  599MOL0     H80842   6.410   3.173  11.312 -0.8532 -2.2348  0.7153
  599MOL0     H80843   6.617   3.088  11.212  3.4052  3.1866 -1.2396
  599MOL0     H80844   6.571   3.248  11.177  1.7935 -1.0415  2.6301
  599MOL0     H80845   6.511   3.193  10.945  0.0198 -0.2408 -1.6787
  599MOL0     H80846   6.570   3.029  10.966  1.4459 -0.2097  1.0179
  599MOL0     H80847   6.426   2.311  11.445  0.9648  2.8950 -4.5770
  599MOL0     H80848   6.495   2.073  11.561 -2.3596  0.5548 -1.4510
  599MOL0     H80849   6.676   1.752  11.600  0.3937  1.7239 -0.3443
  599MOL0     H80850   6.656   1.553  11.709 -0.5361  0.1181  0.2432
  599MOL0     H80851   7.482   0.310  10.649 -2.2069 -3.9141  0.2192
  599MOL0     H80852   7.425   0.188  10.439  1.0129  1.3540  0.1216
  599MOL0     H80853   7.344   0.129   9.932 -0.0283 -0.2160 -0.6176
  599MOL0     H80854   7.219   0.056   9.754  4.3043  1.1478  2.8092
  599MOL0     H80855   7.071   0.070   9.602 -0.9722 -0.0347 -1.3466
  599MOL0     H80856   7.042  -0.113   9.615  0.6596 -0.0519 -2.3344
  599MOL0     H80857   6.854   0.092   9.489 -0.2285 -1.7165 -3.7862
  599MOL0     H80858   6.787  -0.054   9.561 -0.5511  1.3699  0.9038
  599MOL0     H80859   6.882  -0.179   9.387 -1.6094  0.9875 -1.5911
  599MOL0     H80860   7.030  -0.069   9.382  1.2651  3.1829 -3.2111
  599MOL0     H80861   6.862   0.111   9.272  0.0950  0.0919 -0.9161
  599MOL0     H80862   6.758  -0.038   9.248  0.8111 -1.5192 -1.1672
  599MOL0     H80863   7.081  -0.056   8.967  1.2324  2.1391 -1.1875
  599MOL0     H80864   6.858   0.049   9.998 -0.6505 -1.2964 -2.6067
  599MOL0     H80865   6.993   0.145  10.188 -0.3135  0.8731 -1.0917
  600MOL0     O80866   2.336   4.328   5.898 -0.7327  0.9012  0.4055
  600MOL0     C80867   2.287   4.412   5.828  0.1235  0.2101 -0.7758
  600MOL0     O80868   2.150   4.405   5.780 -0.3053  0.4029 -0.4892
  600MOL0     C80869   2.075   4.304   5.840  0.7019  0.4708  0.8881
  600MOL0     C80870   2.008   4.307   5.962 -0.4191  0.6212  0.2302
  600MOL0     C80871   1.945   4.191   6.013 -0.5727  0.3579 -0.4390
  600MOL0     C80872   1.934   4.082   5.935  0.0278  0.0608  0.2012
  600MOL0     O80873   1.869   3.970   5.977 -0.0778  0.6675 -0.1209
  600MOL0     C80874   1.881   3.937   6.119  0.5657  0.9443  0.6699
  600MOL0     C80875   1.798   3.807   6.146  0.4412 -0.7501  0.1251
  600MOL0     C80876   1.646   3.817   6.125 -0.7435 -0.8346  0.3354
  600MOL0     C80877   1.599   3.686   6.065 -0.0557 -0.4773 -0.6077
  600MOL0     C80878   1.446   3.703   6.061  0.2779 -0.0561  0.1132
  600MOL0     C80879   1.390   3.782   5.948 -0.4140  0.7050  0.3267
  600MOL0     C80880   1.238   3.763   5.922 -0.3122 -0.1527  0.4900
  600MOL0     C80881   1.185   3.875   5.822  0.1434  0.9455 -0.5955
  600MOL0     N80882   1.086   3.954   5.888 -0.0195 -0.8780 -0.1794
  600MOL0     C80883   0.944   3.934   5.879 -0.4646  0.3583 -0.3262
  600MOL0     C80884   0.908   4.040   5.959 -0.1716 -0.9298 -0.2921
  600MOL0     C80885   0.765   4.086   5.968  0.0369  0.0828 -0.3311
  600MOL0     C80886   0.667   3.992   6.043 -0.2768  0.2538 -0.3802
  600MOL0     C80887   0.537   4.060   6.063 -0.3326 -0.5056 -0.8911
  600MOL0     C80888   0.452   3.957   6.123  1.7005 -0.3054 -0.0510
  600MOL0     O80889   0.322   4.011   6.156 -0.7324 -0.5640  0.7617
  600MOL0     C80890   0.233   3.937   6.221 -0.2558 -0.1288 -0.0405
  600MOL0     C80891   0.251   3.798   6.243 -0.0102 -0.3955 -0.7975
  600MOL0     C80892   0.146   3.727   6.302 -0.4193  0.7809 -0.2697
  600MOL0     C80893   0.166   3.577   6.333 -0.2232  0.3113  0.5424
  600MOL0     C80894   0.026   3.792   6.344  0.6621 -1.0035  0.0971
  600MOL0     C80895  -0.092   3.724   6.402 -0.5536 -0.3040  0.5104
  600MOL0     O80896  -0.128   3.609   6.341  0.1463  1.0707 -0.2495
  600MOL0     C80897  -0.226   3.536   6.401  0.1497 -0.3701  0.3880
  600MOL0     C80898  -0.339   3.577   6.469  0.9481 -0.8439  0.0840
  600MOL0     C80899  -0.436   3.480   6.518  0.1215  0.3602 -0.1975
  600MOL0     C80900  -0.425   3.343   6.489  0.0301  0.0387  1.2299
  600MOL0     O80901  -0.532   3.264   6.521  0.3503  0.5161  0.0615
  600MOL0     C80902  -0.505   3.142   6.594 -0.2441  0.3849 -0.9313
  600MOL0     C80903  -0.622   3.088   6.663  0.4798  0.0007  0.4314
  600MOL0     C80904  -0.679   3.200   6.757  0.0724  0.4060  0.2999
  600MOL0     C80905  -0.771   3.137   6.867 -0.0161  0.8268 -0.3500
  600MOL0     C80906  -0.798   3.260   6.954 -0.1098 -0.3280  0.2035
  600MOL0     C80907  -0.871   3.215   7.077  0.2038 -0.1073  0.2989
  600MOL0     C80908  -1.010   3.171   7.044 -0.1213  0.7066  0.4584
  600MOL0     C80909  -1.099   3.174   7.174  0.9602  0.6424 -0.0257
  600MOL0    Cl80910  -1.272   3.157   7.121 -0.2872  0.0876 -0.2929
  600MOL0     C80911  -0.319   3.306   6.406  0.7961 -0.1299  0.2231
  600MOL0     C80912  -0.219   3.403   6.364  0.5863 -0.7368  0.0452
  600MOL0     O80913  -0.148   3.770   6.503 -0.3709  0.1706 -0.3714
  600MOL0     C80914   0.021   3.931   6.340  0.7349 -0.1803  0.7407
  600MOL0     C80915   0.125   3.994   6.278 -0.7389  0.0511  0.3702
  600MOL0     N80916   1.009   4.086   6.035 -0.1813  0.6151  0.1085
  600MOL0     N80917   1.119   4.043   5.981 -0.6440 -1.2813  0.0952
  600MOL0     C80918   1.999   4.076   5.811 -1.3519 -0.1295 -0.0639
  600MOL0     C80919   2.082   4.182   5.764  0.0880  1.0405 -1.0385
  600MOL0     C80920   2.369   4.527   5.785 -0.0555 -0.7060  0.2320
  600MOL0     C80921   2.314   4.625   5.697 -0.5547  0.3852 -0.9044
  600MOL0     C80922   2.381   4.743   5.671 -0.1521 -1.0053  0.0787
  600MOL0     C80923   2.510   4.760   5.716 -0.7916  0.6172 -0.7152
  600MOL0     O80924   2.584   4.880   5.711 -0.6435 -1.3515  0.1312
  600MOL0     C80925   2.511   4.986   5.646  0.6017  0.6418  1.0788
  600MOL0     C80926   2.569   5.127   5.669 -0.1312 -0.4545  0.4801
  600MOL0     C80927   2.720   5.126   5.634  0.6400 -0.1246 -0.3455
  600MOL0     C80928   2.787   5.269   5.606 -0.3647  0.6400  0.4970
  600MOL0     C80929   2.727   5.348   5.494  0.3429  1.3602 -0.8461
  600MOL0     C80930   2.693   5.405   5.391  0.3277  0.1968  0.3604
  600MOL0     C80931   2.569   4.668   5.799 -0.1672  1.1073  1.0612
  600MOL0     C80932   2.498   4.554   5.835 -0.5562 -0.1935  0.2675
  600MOL0     H80933   2.013   4.393   6.028  2.2268  0.3742  0.4294
  600MOL0     H80934   1.909   4.193   6.116 -0.0996 -0.0445 -0.2621
  600MOL0     H80935   1.988   3.931   6.141  0.6705  2.4876  0.7093
  600MOL0     H80936   1.834   3.999   6.196 -2.2520 -2.1959  1.7179
  600MOL0     H80937   1.828   3.730   6.075  1.4643 -1.3138  1.1381
  600MOL0     H80938   1.816   3.775   6.249  1.9970  0.5160  0.2754
  600MOL0     H80939   1.593   3.848   6.215  0.3703  1.3977  0.2849
  600MOL0     H80940   1.623   3.897   6.054  1.5826  1.1377  1.6523
  600MOL0     H80941   1.635   3.683   5.962 -1.7175 -1.5305 -1.1941
  600MOL0     H80942   1.620   3.597   6.125 -3.0447 -1.2545 -0.5728
  600MOL0     H80943   1.406   3.603   6.041  0.5865 -0.1675  0.0504
  600MOL0     H80944   1.394   3.745   6.148  0.0273 -2.0867  0.9903
  600MOL0     H80945   1.405   3.886   5.980  0.3565 -0.2690  3.5096
  600MOL0     H80946   1.447   3.775   5.855 -0.0314  3.1376  0.2980
  600MOL0     H80947   1.216   3.667   5.875 -0.2117  0.6331 -1.2365
  600MOL0     H80948   1.182   3.761   6.016  1.0040  0.7826  1.3320
  600MOL0     H80949   1.151   3.833   5.726 -0.5494 -1.6394  0.6864
  600MOL0     H80950   1.263   3.944   5.789  1.6184  0.1039  0.9730
  600MOL0     H80951   0.887   3.861   5.823 -4.1602  0.3527  3.0257
  600MOL0     H80952   0.755   4.192   5.990 -2.1094  0.6159 -3.2657
  600MOL0     H80953   0.730   4.091   5.864 -0.7558  0.1507 -0.0624
  600MOL0     H80954   0.714   3.984   6.142  0.5897  2.2391 -0.5777
  600MOL0     H80955   0.658   3.894   5.996 -0.5465  0.1260 -0.0666
  600MOL0     H80956   0.508   4.102   5.966  0.3980  2.7332  0.1582
  600MOL0     H80957   0.546   4.142   6.135  1.9057 -3.4952  2.5914
  600MOL0     H80958   0.506   3.914   6.208  2.8168  2.4513  0.7453
  600MOL0     H80959   0.444   3.876   6.050  0.3330  0.9333 -1.3439
  600MOL0     H80960   0.350   3.756   6.224 -0.2070 -0.7779 -0.9732
  600MOL0     H80961   0.111   3.561   6.426 -2.1163 -1.1066 -0.7525
  600MOL0     H80962   0.119   3.520   6.253 -0.8007 -1.0543  1.8215
  600MOL0     H80963   0.269   3.545   6.355 -0.5386  0.1104  1.7880
  600MOL0     H80964  -0.354   3.678   6.506  2.7028 -0.6280  0.2888
  600MOL0     H80965  -0.507   3.491   6.599  0.5069  0.0916  0.1872
  600MOL0     H80966  -0.453   3.069   6.531 -0.8957  1.2595 -2.5535
  600MOL0     H80967  -0.436   3.162   6.676 -1.3764  0.3226  0.0587
  600MOL0     H80968  -0.694   3.042   6.595 -0.1354 -0.9143  1.6665
  600MOL0     H80969  -0.582   3.005   6.722 -1.4238 -1.4960 -0.2599
  600MOL0     H80970  -0.749   3.255   6.693  0.2949  2.6497  1.8495
  600MOL0     H80971  -0.596   3.259   6.798  1.1996  0.7902 -2.3573
  600MOL0     H80972  -0.863   3.091   6.829 -1.7021  2.0244  1.9471
  600MOL0     H80973  -0.723   3.055   6.920 -0.6024  0.4067 -0.4545
  600MOL0     H80974  -0.863   3.333   6.904  1.5396  2.3504  1.6642
  600MOL0     H80975  -0.705   3.305   6.990 -0.6414  0.5620  0.5093
  600MOL0     H80976  -0.833   3.128   7.131 -2.6010  0.8838  4.3443
  600MOL0     H80977  -0.880   3.298   7.147 -0.9363 -0.0815  0.1470
  600MOL0     H80978  -1.004   3.073   6.996 -0.0380  0.7705  0.3380
  600MOL0     H80979  -1.054   3.235   6.968  1.6750  1.4417 -0.0144
  600MOL0     H80980  -1.084   3.265   7.232  0.3338  0.0452  1.1188
  600MOL0     H80981  -1.065   3.090   7.235  0.8510  0.2372 -0.5149
  600MOL0     H80982  -0.309   3.207   6.362 -0.3234  0.2363 -0.9264
  600MOL0     H80983  -0.133   3.367   6.308  0.5733 -0.4981 -0.1298
  600MOL0     H80984  -0.054   3.997   6.382  1.1954  0.7395  0.1601
  600MOL0     H80985   0.121   4.100   6.258  1.3413 -0.2026 -1.8805
  600MOL0     H80986   1.970   3.991   5.750 -2.4935 -1.0111  1.6202
  600MOL0     H80987   2.145   4.179   5.676 -1.2307 -3.5623 -2.0983
  600MOL0     H80988   2.226   4.607   5.637 -1.9638  2.7505  0.3281
  600MOL0     H80989   2.329   4.806   5.601  1.1526  1.0147  0.8414
  600MOL0     H80990   2.504   4.970   5.538 -1.2866  0.9964  1.1251
  600MOL0     H80991   2.407   4.993   5.678  0.8999  1.1139  1.9579
  600MOL0     H80992   2.549   5.162   5.770 -0.1931 -1.4194  0.8159
  600MOL0     H80993   2.519   5.199   5.603  2.6346  1.5408  0.3788
  600MOL0     H80994   2.736   5.063   5.546 -2.2831 -1.3153 -0.1128
  600MOL0     H80995   2.771   5.070   5.713  1.5259  1.5670  0.3402
  600MOL0     H80996   2.890   5.249   5.576 -0.3732 -0.3780  1.1056
  600MOL0     H80997   2.787   5.323   5.701  0.2511 -1.8088  1.9870
  600MOL0     H80998   2.646   5.451   5.307  0.5233  1.3495  0.8667
  600MOL0     H80999   2.671   4.692   5.828  1.6730 -3.9987 -0.1408
  600MOL0     H81000   2.536   4.476   5.900 -0.3165  1.6767  2.4903
  601MOL0     O81001   1.705   6.335  11.233 -0.3044  0.2853  0.2262
  601MOL0     C81002   1.786   6.429  11.236 -0.1271  0.9035  0.4481
  601MOL0     O81003   1.911   6.429  11.297 -0.2139 -0.0490 -0.1985
  601MOL0     C81004   1.950   6.325  11.367 -0.1410  0.8171  1.1250
  601MOL0     C81005   2.067   6.268  11.329 -0.4878  0.1598  0.3989
  601MOL0     C81006   2.108   6.139  11.383 -0.4075  0.0051 -0.6720
  601MOL0     C81007   2.032   6.092  11.494 -0.1800  0.1310 -0.8808
  601MOL0     O81008   2.081   5.988  11.577  0.3316  0.5954  0.9446
  601MOL0     C81009   2.214   5.985  11.600 -1.5586 -0.7486 -0.0036
  601MOL0     C81010   2.252   5.880  11.698  0.6643  0.5769  0.3442
  601MOL0     C81011   2.401   5.867  11.712 -0.4939 -0.9190 -0.1586
  601MOL0     C81012   2.430   5.734  11.777  0.3671  0.3584 -0.5305
  601MOL0     C81013   2.575   5.701  11.796 -0.3532  0.2795 -0.8797
  601MOL0     C81014   2.591   5.553  11.839  0.9663 -0.6094  0.6385
  601MOL0     C81015   2.724   5.496  11.792  0.1135 -0.2863 -0.6523
  601MOL0     C81016   2.830   5.535  11.892  0.2811 -0.4121  0.0698
  601MOL0     N81017   2.954   5.457  11.877 -0.1244  0.1777  0.2839
  601MOL0     C81018   3.037   5.472  11.769 -0.2410 -0.0193 -0.8822
  601MOL0     C81019   3.106   5.355  11.769  0.3605 -0.3292  1.1920
  601MOL0     C81020   3.211   5.312  11.662  0.3638  0.7583 -0.8232
  601MOL0     C81021   3.179   5.178  11.607 -0.5071  0.3200  0.8065
  601MOL0     C81022   3.085   5.181  11.480 -0.8005  0.0079  0.4138
  601MOL0     C81023   2.949   5.243  11.501  0.0536 -0.0544  0.4360
  601MOL0     O81024   2.943   5.383  11.468  0.1381  0.1614  0.6803
  601MOL0     C81025   2.811   5.434  11.444  0.4556 -0.4524  0.5969
  601MOL0     C81026   2.806   5.569  11.405 -0.6532  0.3870  0.1219
  601MOL0     C81027   2.687   5.641  11.384 -0.5814  0.0826 -0.5417
  601MOL0     C81028   2.704   5.779  11.334  0.7135  0.3281 -0.5307
  601MOL0     C81029   2.563   5.574  11.395  1.3595 -0.0312 -1.8269
  601MOL0     C81030   2.427   5.638  11.370  0.3286 -0.0136 -0.8944
  601MOL0     O81031   2.319   5.549  11.355 -0.1861 -0.6713 -1.1519
  601MOL0     C81032   2.188   5.578  11.335 -1.4884  0.7215  0.2647
  601MOL0     C81033   2.112   5.466  11.286  0.5162 -0.1421 -0.1252
  601MOL0     C81034   1.970   5.476  11.283  0.1583 -0.4221 -0.2192
  601MOL0     C81035   1.895   5.594  11.313  0.1602 -0.3861  0.2151
  601MOL0     O81036   1.756   5.609  11.297 -0.0888 -0.0379 -0.0671
  601MOL0     C81037   1.677   5.487  11.305  0.3382  0.6220  0.3735
  601MOL0     C81038   1.528   5.504  11.274 -0.8046 -0.6262  1.1811
  601MOL0     C81039   1.455   5.581  11.380 -0.9353  0.4789 -0.7377
  601MOL0     C81040   1.309   5.612  11.343  1.0253  0.3862  1.0353
  601MOL0     C81041   1.244   5.712  11.446  0.1880 -0.3725  0.1165
  601MOL0     C81042   1.120   5.783  11.404 -0.7559 -0.8268 -0.3236
  601MOL0     C81043   1.051   5.852  11.517  0.1126 -0.0213 -0.1248
  601MOL0     C81044   1.102   5.985  11.544 -0.0334  0.3402  0.6807
  601MOL0    Cl81045   1.137   6.092  11.404 -0.0929 -0.0319 -0.7914
  601MOL0     C81046   1.980   5.700  11.350 -0.4529  0.0317 -0.1684
  601MOL0     C81047   2.113   5.687  11.380 -0.5101 -0.5706  0.0513
  601MOL0     O81048   2.416   5.755  11.370 -0.1138 -0.4993  0.3650
  601MOL0     C81049   2.572   5.439  11.432  0.4456  1.0000  1.2238
  601MOL0     C81050   2.692   5.369  11.455  0.7908  0.2997 -0.8478
  601MOL0     N81051   3.077   5.275  11.878 -1.1173  0.0266  0.3325
  601MOL0     N81052   2.998   5.349  11.949  0.3580  0.3553 -1.2385
  601MOL0     C81053   1.916   6.158  11.537  0.0241 -0.4504 -0.1124
  601MOL0     C81054   1.872   6.267  11.468  0.0235 -0.3307 -0.4111
  601MOL0     C81055   1.738   6.547  11.166 -0.2730  0.3528 -1.1223
  601MOL0     C81056   1.634   6.542  11.074 -0.2617  0.1309 -0.2675
  601MOL0     C81057   1.589   6.662  11.016  0.1619  0.7194  0.6081
  601MOL0     C81058   1.653   6.781  11.048  0.5343  0.0515 -0.4213
  601MOL0     O81059   1.623   6.908  11.004 -0.0159  0.2678 -0.0644
  601MOL0     C81060   1.510   6.950  10.923  0.5402  0.5522 -0.5373
  601MOL0     C81061   1.500   7.100  10.938  0.8540 -0.4153  0.7303
  601MOL0     C81062   1.428   7.146  11.065  0.6353  0.0824  0.7219
  601MOL0     C81063   1.516   7.150  11.191 -1.0836 -0.1782 -0.9981
  601MOL0     C81064   1.618   7.250  11.176  0.0953  0.1749 -0.0233
  601MOL0     C81065   1.699   7.344  11.180 -0.2964  0.2473 -1.4485
  601MOL0     C81066   1.765   6.783  11.133  0.1442  0.1739  0.0448
  601MOL0     C81067   1.803   6.665  11.198 -0.2468  0.0731  0.3180
  601MOL0     H81068   2.133   6.319  11.260  1.2795 -2.8071 -0.2712
  601MOL0     H81069   2.203   6.101  11.349  0.2777  3.0690 -2.5551
  601MOL0     H81070   2.270   5.960  11.510 -0.0233 -1.7228  1.1604
  601MOL0     H81071   2.250   6.077  11.646 -2.4096 -1.6686  2.7000
  601MOL0     H81072   2.207   5.905  11.795 -1.8409 -1.1576 -0.2619
  601MOL0     H81073   2.198   5.790  11.667  0.1494  1.5684 -1.8264
  601MOL0     H81074   2.454   5.870  11.616  0.9345  0.1177  0.6227
  601MOL0     H81075   2.448   5.949  11.767 -0.8867 -1.2809  0.7220
  601MOL0     H81076   2.383   5.739  11.876  0.7716 -1.1482 -0.2410
  601MOL0     H81077   2.388   5.661  11.706 -0.8343  1.6472 -1.2024
  601MOL0     H81078   2.623   5.726  11.701 -1.1225  3.5789 -0.5035
  601MOL0     H81079   2.616   5.766  11.873  1.9353  1.7290 -3.1587
  601MOL0     H81080   2.577   5.538  11.946 -1.7160 -0.2468  0.4041
  601MOL0     H81081   2.522   5.492  11.780  1.5213 -0.4818 -0.1577
  601MOL0     H81082   2.732   5.387  11.788  0.2162 -0.2338 -3.0808
  601MOL0     H81083   2.742   5.534  11.691 -2.6648 -0.8329 -1.4473
  601MOL0     H81084   2.791   5.520  11.993 -0.4388  0.9485  0.0128
  601MOL0     H81085   2.853   5.642  11.883 -4.2249  1.1879  3.5006
  601MOL0     H81086   3.034   5.556  11.701 -0.6154  2.8244  2.3471
  601MOL0     H81087   3.213   5.393  11.588 -1.2074  0.2035 -1.5130
  601MOL0     H81088   3.304   5.322  11.719 -0.6665  1.1007  0.8827
  601MOL0     H81089   3.127   5.118  11.683 -3.2429 -0.2327 -1.3425
  601MOL0     H81090   3.271   5.128  11.577 -0.2051  2.4501 -2.2341
  601MOL0     H81091   3.074   5.078  11.445  3.4603  0.1461 -2.0677
  601MOL0     H81092   3.129   5.239  11.398  0.8710 -2.5600 -0.6356
  601MOL0     H81093   2.914   5.234  11.605 -3.1254  0.5749 -0.4606
  601MOL0     H81094   2.880   5.194  11.432 -0.4054  3.1177 -1.5712
  601MOL0     H81095   2.895   5.632  11.409  0.0015 -0.5556  1.3286
  601MOL0     H81096   2.797   5.813  11.288  0.7752  1.1046  0.1281
  601MOL0     H81097   2.630   5.806  11.259  0.6044 -1.5288 -1.1378
  601MOL0     H81098   2.694   5.842  11.423  0.0700  1.4977 -1.4097
  601MOL0     H81099   2.155   5.368  11.270 -1.0860 -1.0353  0.7420
  601MOL0     H81100   1.911   5.388  11.260 -0.2115 -0.8921  2.2074
  601MOL0     H81101   1.710   5.416  11.229 -4.5318 -2.2544  0.5163
  601MOL0     H81102   1.694   5.446  11.405  0.0191 -3.0572 -0.9453
  601MOL0     H81103   1.510   5.557  11.180 -0.2183 -0.7421  1.0035
  601MOL0     H81104   1.499   5.400  11.259  0.2492 -0.5924 -1.6593
  601MOL0     H81105   1.511   5.671  11.407 -0.5989 -0.2053  0.9846
  601MOL0     H81106   1.464   5.523  11.472 -0.7607 -0.5635 -1.3930
  601MOL0     H81107   1.306   5.666  11.247 -1.9010 -0.2733  0.6684
  601MOL0     H81108   1.249   5.522  11.324  3.1599 -0.4111 -3.1903
  601MOL0     H81109   1.316   5.794  11.461 -0.7965  0.7922 -1.2353
  601MOL0     H81110   1.226   5.647  11.532 -0.7550 -1.1874 -0.6872
  601MOL0     H81111   1.146   5.848  11.320 -1.5035  0.3001  0.2992
  601MOL0     H81112   1.045   5.713  11.365  0.8173 -1.7643 -1.8136
  601MOL0     H81113   1.051   5.796  11.611 -1.5283  1.7375  0.9920
  601MOL0     H81114   0.946   5.868  11.491 -0.0983 -2.5742 -1.1974
  601MOL0     H81115   1.192   5.973  11.604 -1.8890 -2.2977  3.2162
  601MOL0     H81116   1.031   6.032  11.613 -1.2850 -0.8392  0.2517
  601MOL0     H81117   1.939   5.798  11.370 -1.3409 -0.8481  3.0688
  601MOL0     H81118   2.161   5.778  11.416 -2.6356  1.0791 -1.0631
  601MOL0     H81119   2.480   5.388  11.457 -1.2266  3.6212  0.8587
  601MOL0     H81120   2.688   5.268  11.495 -2.5936  0.8244  0.3913
  601MOL0     H81121   1.857   6.109  11.614  1.6566  2.4575  3.3250
  601MOL0     H81122   1.778   6.315  11.495 -0.7664 -2.3998  0.7431
  601MOL0     H81123   1.595   6.444  11.048 -0.7960  0.7313 -1.8739
  601MOL0     H81124   1.519   6.658  10.933  1.9986 -1.6405 -0.9548
  601MOL0     H81125   1.531   6.915  10.821 -1.3206 -0.5080 -0.5949
  601MOL0     H81126   1.414   6.909  10.953  2.0031 -1.1556  2.2645
  601MOL0     H81127   1.432   7.125  10.856 -1.8441 -0.4846  2.7956
  601MOL0     H81128   1.599   7.146  10.935  0.0753  1.3133  0.5848
  601MOL0     H81129   1.340   7.083  11.077 -2.0562  2.4569 -3.8865
  601MOL0     H81130   1.382   7.243  11.046 -1.5259 -0.5878  2.1579
  601MOL0     H81131   1.560   7.052  11.212  0.5345  1.2414  3.4200
  601MOL0     H81132   1.448   7.173  11.274 -0.4438 -1.7882  0.0324
  601MOL0     H81133   1.762   7.431  11.188 -0.7934  0.4516  1.3657
  601MOL0     H81134   1.818   6.876  11.150  2.7521 -0.9065 -1.5803
  601MOL0     H81135   1.888   6.683  11.263 -0.4560  3.4775 -0.1861
  602MOL0     O81136   5.103   4.477   8.894 -0.5251 -1.0031  0.3943
  602MOL0     C81137   5.041   4.377   8.942 -0.5952  0.0986 -0.1574
  602MOL0     O81138   4.909   4.370   8.934 -0.1283 -0.3249 -1.2433
  602MOL0     C81139   4.839   4.466   8.866  1.1746  0.2536 -0.2408
  602MOL0     C81140   4.731   4.522   8.930 -0.3838 -0.1743 -1.2275
  602MOL0     C81141   4.643   4.609   8.873 -0.6650 -0.3833 -1.4276
  602MOL0     C81142   4.662   4.637   8.732  0.0889 -0.1945  0.0464
  602MOL0     O81143   4.592   4.746   8.686  0.0731 -0.4734  0.2102
  602MOL0     C81144   4.469   4.714   8.621 -0.2850  0.3010 -1.0999
  602MOL0     C81145   4.382   4.834   8.611  0.3528  1.0416  0.3184
  602MOL0     C81146   4.372   4.899   8.754  0.1262 -0.9529  0.5904
  602MOL0     C81147   4.238   4.980   8.771 -1.0061  0.2366 -0.5408
  602MOL0     C81148   4.242   5.061   8.902 -0.1267 -0.6679 -0.8387
  602MOL0     C81149   4.221   4.974   9.026 -0.3512  0.7189  0.1408
  602MOL0     C81150   4.193   5.060   9.156  0.0227 -0.4074 -0.0704
  602MOL0     C81151   4.245   4.995   9.293 -0.3603  0.0779  0.3294
  602MOL0     N81152   4.250   5.062   9.426 -0.3454 -0.2514  1.0583
  602MOL0     C81153   4.341   5.156   9.459 -0.5440 -0.2290  0.0490
  602MOL0     C81154   4.313   5.178   9.590 -0.5202  0.3969 -0.2096
  602MOL0     C81155   4.382   5.288   9.674  0.3324  0.6960  0.0271
  602MOL0     C81156   4.321   5.305   9.821 -0.6471  0.1503 -0.5273
  602MOL0     C81157   4.404   5.405   9.914 -0.0096  0.2389  0.1752
  602MOL0     C81158   4.319   5.450  10.033  0.4040 -0.7790  0.3797
  602MOL0     O81159   4.180   5.490  10.007 -0.7423 -0.2886 -0.2516
  602MOL0     C81160   4.112   5.577  10.086 -0.5533 -1.0672  0.4266
  602MOL0     C81161   3.983   5.613  10.038  0.6796  0.1937 -1.3990
  602MOL0     C81162   3.892   5.682  10.122 -0.0003  0.4107 -0.5541
  602MOL0     C81163   3.754   5.706  10.065  0.4167  0.0907  0.4265
  602MOL0     C81164   3.926   5.710  10.260  0.5138 -0.1684  0.4979
  602MOL0     C81165   3.849   5.787  10.362  0.3765 -0.0782 -0.0497
  602MOL0     O81166   3.911   5.828  10.485  0.1478  0.6118 -0.4167
  602MOL0     C81167   3.844   5.865  10.597  0.7749 -0.3481 -0.2490
  602MOL0     C81168   3.847   6.003  10.628 -1.1312  0.2242  0.3072
  602MOL0     C81169   3.784   6.036  10.745  0.6808 -0.1246 -0.4942
  602MOL0     C81170   3.710   5.953  10.830  0.2269 -0.1878  0.5521
  602MOL0     O81171   3.646   6.012  10.935 -0.1191  0.6715 -0.1885
  602MOL0     C81172   3.544   5.945  11.012 -0.8724  0.6972 -0.3619
  602MOL0     C81173   3.616   5.875  11.135  0.4221 -0.4800 -0.8567
  602MOL0     C81174   3.666   5.977  11.240 -0.1795 -0.0879 -0.6267
  602MOL0     C81175   3.698   5.915  11.378  0.2640  0.3595  0.7396
  602MOL0     C81176   3.740   6.017  11.479  0.3626  0.2427  0.1076
  602MOL0     C81177   3.740   5.959  11.628 -0.6998 -0.6253 -0.5085
  602MOL0     C81178   3.770   6.070  11.724  0.2957  0.2693 -0.4962
  602MOL0     C81179   3.810   6.018  11.869  0.6724 -0.0634  0.4091
  602MOL0    Cl81180   3.666   5.926  11.936 -0.2313 -0.2833  0.1212
  602MOL0     C81181   3.689   5.820  10.793 -0.6130 -0.6180  0.4521
  602MOL0     C81182   3.763   5.780  10.678 -0.8959 -0.2464  0.3794
  602MOL0     O81183   3.730   5.805  10.332 -0.2224 -0.3942 -0.9531
  602MOL0     C81184   4.064   5.680  10.299  0.5147  0.2373 -0.2677
  602MOL0     C81185   4.156   5.621  10.212 -0.2123  0.7990 -0.5817
  602MOL0     N81186   4.212   5.098   9.620 -0.0049  0.0678 -0.6698
  602MOL0     N81187   4.172   5.023   9.525  0.3279  0.3141 -0.8620
  602MOL0     C81188   4.763   4.576   8.660  0.0762  0.5445 -1.0728
  602MOL0     C81189   4.849   4.488   8.730  0.7238 -0.6547 -0.0828
  602MOL0     C81190   5.113   4.263   8.997  0.2346  0.4241 -0.4965
  602MOL0     C81191   5.232   4.275   9.072  1.1827  0.6861 -0.2254
  602MOL0     C81192   5.312   4.171   9.117  0.2265 -0.0914 -0.1999
  602MOL0     C81193   5.271   4.043   9.084  0.8817 -0.3158 -0.7388
  602MOL0     O81194   5.337   3.941   9.137 -0.8597  0.1816  0.0525
  602MOL0     C81195   5.323   3.806   9.090 -0.1162 -0.5509 -0.6890
  602MOL0     C81196   5.402   3.719   9.187 -0.5548  0.0449 -0.0061
  602MOL0     C81197   5.328   3.705   9.323  0.1991  0.1646 -0.5540
  602MOL0     C81198   5.399   3.625   9.419 -0.1581 -0.0546  0.1793
  602MOL0     C81199   5.347   3.623   9.550 -0.6601 -0.0267  0.5720
  602MOL0     C81200   5.303   3.632   9.665  0.4877  0.2873 -0.2515
  602MOL0     C81201   5.165   4.027   8.995 -0.6567  0.4141 -0.0473
  602MOL0     C81202   5.078   4.132   8.962 -0.3764 -0.6138 -0.0570
  602MOL0     H81203   4.744   4.498   9.035  0.5108 -1.7460 -1.6653
  602MOL0     H81204   4.571   4.662   8.934  0.8061  0.7244 -0.5718
  602MOL0     H81205   4.483   4.661   8.526 -0.4155 -1.7099 -0.0490
  602MOL0     H81206   4.414   4.650   8.691  0.9683  0.3505 -0.0238
  602MOL0     H81207   4.417   4.915   8.546  1.8997  2.0252  2.2525
  602MOL0     H81208   4.280   4.807   8.583  0.0148  0.9356  1.5574
  602MOL0     H81209   4.384   4.837   8.843  4.8563  1.7630  2.1947
  602MOL0     H81210   4.458   4.964   8.772  1.1319 -2.4640  1.3978
  602MOL0     H81211   4.219   5.050   8.690 -2.5730  2.5740  1.6901
  602MOL0     H81212   4.155   4.910   8.776 -0.1726 -1.1968 -3.8934
  602MOL0     H81213   4.332   5.124   8.907 -1.0046  0.5595  0.0156
  602MOL0     H81214   4.157   5.129   8.893  1.1312  0.7016 -5.0500
  602MOL0     H81215   4.133   4.918   8.996  0.1665  0.4745 -0.9840
  602MOL0     H81216   4.307   4.907   9.037 -1.0220  0.0192  1.2963
  602MOL0     H81217   4.254   5.149   9.135  0.2764 -0.2503  1.2399
  602MOL0     H81218   4.089   5.083   9.181 -0.0714 -0.9149  0.0196
  602MOL0     H81219   4.347   4.958   9.283 -0.1947  0.2975  1.1765
  602MOL0     H81220   4.184   4.905   9.306  1.9444 -1.1137  4.7835
  602MOL0     H81221   4.418   5.201   9.397 -1.0928  0.0178 -0.4677
  602MOL0     H81222   4.491   5.284   9.679  0.2791  0.3178  1.1501
  602MOL0     H81223   4.364   5.386   9.629  1.4333  1.6909  1.6062
  602MOL0     H81224   4.314   5.207   9.869 -0.3772  0.5827  0.4203
  602MOL0     H81225   4.217   5.336   9.821 -0.2932  1.7058  2.4972
  602MOL0     H81226   4.447   5.486   9.854  2.3360 -0.9925  0.0878
  602MOL0     H81227   4.495   5.354   9.946 -0.2959 -1.3473 -1.3992
  602MOL0     H81228   4.371   5.531  10.086 -0.8755 -1.0025  2.0644
  602MOL0     H81229   4.317   5.373  10.111  1.0342  0.8564  2.0837
  602MOL0     H81230   3.969   5.596   9.932 -0.2897 -0.2683 -1.2176
  602MOL0     H81231   3.738   5.813  10.047  0.2591 -0.0648 -0.4307
  602MOL0     H81232   3.739   5.648   9.973 -2.9084 -1.1186  1.5871
  602MOL0     H81233   3.676   5.663  10.128 -1.8510  1.1635 -1.4673
  602MOL0     H81234   3.905   6.077  10.575  0.4589 -1.1350  0.0414
  602MOL0     H81235   3.782   6.143  10.764  2.2751  0.4966 -3.2044
  602MOL0     H81236   3.476   6.020  11.054  1.3077  2.1677  0.7360
  602MOL0     H81237   3.486   5.875  10.951  0.9202  2.1075 -4.0190
  602MOL0     H81238   3.544   5.806  11.181 -0.6221  2.7911  2.9784
  602MOL0     H81239   3.694   5.817  11.085  0.3346 -0.1840 -1.3413
  602MOL0     H81240   3.594   6.060  11.251 -1.7211 -1.1810 -1.9534
  602MOL0     H81241   3.746   6.013  11.174 -1.9189 -1.0356 -3.4528
  602MOL0     H81242   3.605   5.865  11.405  0.6432 -0.6529  0.2205
  602MOL0     H81243   3.777   5.839  11.381  0.3164  0.3175 -1.0153
  602MOL0     H81244   3.681   6.109  11.480  0.9927  0.6603 -0.1882
  602MOL0     H81245   3.839   6.062  11.469  1.1261 -0.3726  3.5500
  602MOL0     H81246   3.638   5.928  11.652 -0.2471 -0.4308  1.8872
  602MOL0     H81247   3.807   5.872  11.629 -3.7671 -3.3350 -3.3224
  602MOL0     H81248   3.695   6.149  11.717 -0.1190 -0.2228 -1.9735
  602MOL0     H81249   3.872   6.092  11.691  0.5770  3.9348  2.2501
  602MOL0     H81250   3.827   6.104  11.935 -4.1568  1.9270 -0.5731
  602MOL0     H81251   3.899   5.954  11.869  2.0403  1.7292  1.6071
  602MOL0     H81252   3.632   5.747  10.849 -0.5445  0.3412  1.8225
  602MOL0     H81253   3.760   5.673  10.659 -1.4663 -0.5537  2.0281
  602MOL0     H81254   4.101   5.701  10.399  2.6379 -0.2461 -0.9009
  602MOL0     H81255   4.257   5.607  10.249  0.1413 -0.2288 -1.8605
  602MOL0     H81256   4.782   4.594   8.555  0.7529 -2.7989 -1.6297
  602MOL0     H81257   4.931   4.447   8.673  0.0066  0.9847 -2.4505
  602MOL0     H81258   5.272   4.375   9.086  1.5551  0.4138  0.7516
  602MOL0     H81259   5.407   4.175   9.169  1.0637 -2.9074 -1.2877
  602MOL0     H81260   5.219   3.771   9.089  0.2674 -1.7670 -0.2369
  602MOL0     H81261   5.374   3.800   8.994  0.9168 -2.3462 -0.0801
  602MOL0     H81262   5.501   3.761   9.204  0.5219 -1.8704 -1.1093
  602MOL0     H81263   5.421   3.618   9.149  0.1439  0.4137 -0.6612
  602MOL0     H81264   5.234   3.659   9.291  1.4461 -1.5612 -1.9742
  602MOL0     H81265   5.305   3.804   9.363 -1.9774 -0.3572 -0.4096
  602MOL0     H81266   5.506   3.645   9.418 -0.0742  0.0589  2.9105
  602MOL0     H81267   5.390   3.524   9.379 -0.1065  0.5858 -1.5087
  602MOL0     H81268   5.260   3.637   9.764  0.8385 -2.6140  0.1416
  602MOL0     H81269   5.157   3.929   8.950 -2.0200 -1.1611  3.2726
  602MOL0     H81270   4.992   4.118   8.897  0.6919 -4.6201 -0.8810
  603MOL0     O81271   3.647   1.887  11.312 -0.4388 -0.3157  0.3775
  603MOL0     C81272   3.675   1.979  11.394 -0.0200 -0.5968 -0.6941
  603MOL0     O81273   3.797   2.037  11.407 -0.1852 -0.3098  0.2550
  603MOL0     C81274   3.901   2.010  11.320  0.4349  0.3505  1.3731
  603MOL0     C81275   3.954   1.883  11.302 -0.2070 -0.7646 -0.7178
  603MOL0     C81276   4.061   1.863  11.209 -0.0291  0.0372  0.0764
  603MOL0     C81277   4.124   1.971  11.139 -0.4491 -0.6375  0.1535
  603MOL0     O81278   4.223   1.956  11.046  0.4268  0.2514 -0.2851
  603MOL0     C81279   4.319   1.859  11.082  0.3694  0.6343 -0.4500
  603MOL0     C81280   4.464   1.892  11.036 -0.1730  0.0538  0.0175
  603MOL0     C81281   4.512   1.773  10.949  0.1579 -0.9099 -0.2132
  603MOL0     C81282   4.633   1.815  10.851  0.6290  0.3016 -0.2455
  603MOL0     C81283   4.662   1.689  10.770 -0.6413 -1.3832  0.0258
  603MOL0     C81284   4.708   1.564  10.832  0.2265  0.3435 -0.6240
  603MOL0     C81285   4.788   1.495  10.731  0.2612 -0.4515  0.0432
  603MOL0     C81286   4.852   1.370  10.793 -0.3549 -0.0120 -0.0832
  603MOL0     N81287   4.958   1.309  10.709  0.4857 -0.0025  0.3367
  603MOL0     C81288   5.012   1.186  10.730  0.4424 -0.1352  0.1710
  603MOL0     C81289   5.132   1.180  10.667  0.1195 -0.2672  0.1774
  603MOL0     C81290   5.235   1.075  10.661 -0.2285  0.2053 -0.0430
  603MOL0     C81291   5.184   0.929  10.629 -0.6058 -0.2087  0.2200
  603MOL0     C81292   5.152   0.852  10.763 -0.1957  0.0397  0.9229
  603MOL0     C81293   5.121   0.704  10.717 -0.2718  0.2654 -0.7389
  603MOL0     O81294   5.017   0.697  10.618  0.5231 -0.7926  0.2952
  603MOL0     C81295   4.961   0.574  10.587 -0.6054 -0.1745  0.0952
  603MOL0     C81296   5.031   0.449  10.603  0.5469 -0.4224 -0.2805
  603MOL0     C81297   4.978   0.327  10.559  0.6286 -0.1008 -0.6458
  603MOL0     C81298   5.060   0.201  10.570  0.1458  1.0722  0.7275
  603MOL0     C81299   4.845   0.331  10.508  0.8150  1.3538  0.2469
  603MOL0     C81300   4.767   0.212  10.448 -0.1621 -0.6121  0.4176
  603MOL0     O81301   4.671   0.235  10.342 -0.0378 -0.4968 -0.0885
  603MOL0     C81302   4.642   0.145  10.245 -0.4202 -0.1993  1.3856
  603MOL0     C81303   4.561   0.194  10.143  0.6808 -1.2695 -0.6682
  603MOL0     C81304   4.518   0.125  10.032 -1.3854 -0.2801  0.2827
  603MOL0     C81305   4.557  -0.012  10.031 -0.1962 -0.6466  0.5569
  603MOL0     O81306   4.515  -0.080   9.920 -0.1906  0.9907  0.1580
  603MOL0     C81307   4.387  -0.138   9.932 -0.3565 -0.4881 -0.4134
  603MOL0     C81308   4.336  -0.219   9.808 -0.3732 -0.4465 -0.1071
  603MOL0     C81309   4.435  -0.332   9.766 -0.7289 -0.3839 -0.3498
  603MOL0     C81310   4.396  -0.396   9.632 -0.3047  0.1014 -0.5330
  603MOL0     C81311   4.297  -0.514   9.654 -0.0007  1.2457 -0.1989
  603MOL0     C81312   4.247  -0.578   9.524  0.2258  0.0954  0.9160
  603MOL0     C81313   4.357  -0.621   9.426 -1.4441  0.1663  0.3280
  603MOL0     C81314   4.297  -0.718   9.326  0.7822  0.3936 -0.2740
  603MOL0    Cl81315   4.164  -0.635   9.225 -0.1170 -0.1870 -0.1100
  603MOL0     C81316   4.636  -0.070  10.125 -0.7765 -0.4034  0.5228
  603MOL0     C81317   4.681   0.013  10.229 -0.4492 -0.2466 -0.3164
  603MOL0     O81318   4.801   0.099  10.484  0.7917  0.7477 -0.0108
  603MOL0     C81319   4.777   0.451  10.494 -0.5198  0.5780  0.1725
  603MOL0     C81320   4.831   0.574  10.538  0.2382  0.1793 -0.3550
  603MOL0     N81321   5.140   1.299  10.589 -0.3580  0.2825  0.1319
  603MOL0     N81322   5.042   1.375  10.624  0.7106  0.3160 -0.2040
  603MOL0     C81323   4.072   2.096  11.169 -0.4912  0.2519  0.2978
  603MOL0     C81324   3.973   2.116  11.266 -0.1259  0.1721 -0.1298
  603MOL0     C81325   3.575   2.024  11.499 -0.9574 -0.4703 -0.6003
  603MOL0     C81326   3.439   1.989  11.489 -0.8856 -0.1358  0.4861
  603MOL0     C81327   3.353   2.023  11.594  0.3650  0.1187  0.0358
  603MOL0     C81328   3.392   2.116  11.698  0.0432  0.2616  0.6574
  603MOL0     O81329   3.287   2.167  11.777 -0.5015  0.7841  0.3025
  603MOL0     C81330   3.331   2.202  11.914  0.3052  0.1519 -0.2516
  603MOL0     C81331   3.230   2.183  12.025 -0.1527  0.3670  0.2093
  603MOL0     C81332   3.186   2.037  12.023 -0.3476 -0.0716 -0.5623
  603MOL0     C81333   3.116   1.992  12.148  0.3992 -0.3590  0.0448
  603MOL0     C81334   3.018   1.891  12.129  0.1397  0.1077  0.8602
  603MOL0     C81335   2.949   1.793  12.130  0.3386 -0.2970 -0.1609
  603MOL0     C81336   3.526   2.158  11.697 -0.4823 -0.3639  0.2053
  603MOL0     C81337   3.617   2.106  11.609 -0.3483  0.3736  0.1579
  603MOL0     H81338   3.908   1.799  11.353 -0.7558 -1.4587 -2.3102
  603MOL0     H81339   4.083   1.763  11.173  0.0648  1.0565 -3.0396
  603MOL0     H81340   4.335   1.859  11.190  1.2351 -2.4934 -0.4829
  603MOL0     H81341   4.282   1.758  11.064 -0.0247  0.5893  0.5479
  603MOL0     H81342   4.462   1.981  10.973  2.0020 -0.0367 -0.2701
  603MOL0     H81343   4.519   1.916  11.128  0.1341 -1.9450  0.4048
  603MOL0     H81344   4.548   1.690  11.010  3.3099 -1.0289 -1.9796
  603MOL0     H81345   4.434   1.731  10.885 -1.8313 -1.6206  2.4981
  603MOL0     H81346   4.616   1.902  10.787 -0.2384 -0.2349 -0.7773
  603MOL0     H81347   4.717   1.843  10.914 -0.4254  0.8493  0.9523
  603MOL0     H81348   4.574   1.666  10.709 -2.3806 -0.2972  2.0064
  603MOL0     H81349   4.738   1.728  10.701  1.8269 -1.1172  2.6569
  603MOL0     H81350   4.774   1.591  10.915 -0.0802 -0.0051 -0.2641
  603MOL0     H81351   4.617   1.511  10.863  0.5484  1.7409  3.1996
  603MOL0     H81352   4.719   1.468  10.651  1.2142 -1.9346 -0.3163
  603MOL0     H81353   4.863   1.562  10.689 -0.2453  0.3569  0.4040
  603MOL0     H81354   4.781   1.288  10.808 -0.9172  0.0551 -2.0161
  603MOL0     H81355   4.881   1.397  10.894 -3.5931  1.1090  0.6555
  603MOL0     H81356   4.958   1.113  10.791  0.9224  0.5824  1.4804
  603MOL0     H81357   5.299   1.108  10.579 -0.2244  2.1336  0.6805
  603MOL0     H81358   5.301   1.084  10.748 -0.7562 -0.2392  0.4161
  603MOL0     H81359   5.249   0.872  10.562 -1.7179 -0.0200 -1.0663
  603MOL0     H81360   5.090   0.940  10.575 -1.7630 -2.2725  1.6805
  603MOL0     H81361   5.073   0.897  10.824  1.3004  2.6927  1.0367
  603MOL0     H81362   5.242   0.867  10.823 -2.1416  3.1205  3.3811
  603MOL0     H81363   5.096   0.638  10.801 -0.3598 -0.4691 -1.3313
  603MOL0     H81364   5.217   0.674  10.674  0.4062  1.3251  0.0068
  603MOL0     H81365   5.128   0.442  10.650  2.6286  0.4288 -4.0415
  603MOL0     H81366   5.057   0.145  10.477  2.6730  0.7196  0.8012
  603MOL0     H81367   5.166   0.226  10.572  0.4233  0.9206 -3.5335
  603MOL0     H81368   5.035   0.136  10.655  2.5202  0.0201  0.6893
  603MOL0     H81369   4.522   0.295  10.139  0.9922 -1.1802 -2.3576
  603MOL0     H81370   4.463   0.163   9.947  0.0365  0.5640 -0.2885
  603MOL0     H81371   4.390  -0.196  10.025  1.5266  2.0891  1.2573
  603MOL0     H81372   4.322  -0.051   9.944  2.7474  1.7606  1.6968
  603MOL0     H81373   4.238  -0.263   9.829 -1.0372 -0.1272 -2.2887
  603MOL0     H81374   4.319  -0.149   9.727  0.3029 -1.3627 -1.0667
  603MOL0     H81375   4.451  -0.408   9.843  1.5081  0.1197 -0.2602
  603MOL0     H81376   4.533  -0.291   9.741  0.5763 -3.5418 -0.8592
  603MOL0     H81377   4.339  -0.323   9.573 -1.4582 -1.9290 -2.0526
  603MOL0     H81378   4.481  -0.440   9.579  0.6797  0.7821  0.4301
  603MOL0     H81379   4.216  -0.463   9.708  1.7077  1.1726  2.6308
  603MOL0     H81380   4.343  -0.588   9.721 -0.6286 -0.5634 -1.6553
  603MOL0     H81381   4.185  -0.665   9.549 -0.3025  0.4850  0.9994
  603MOL0     H81382   4.187  -0.504   9.471  0.4126  1.8781  3.0277
  603MOL0     H81383   4.434  -0.669   9.486 -0.4317  3.5862  2.0534
  603MOL0     H81384   4.390  -0.530   9.374  3.7260 -2.4453 -1.7004
  603MOL0     H81385   4.260  -0.812   9.368  1.5983  0.0246 -0.3698
  603MOL0     H81386   4.383  -0.739   9.262  1.4759  1.4189  0.2958
  603MOL0     H81387   4.669  -0.172  10.113 -4.2019 -1.4424 -1.2986
  603MOL0     H81388   4.758  -0.023  10.296 -1.2957  0.0693  0.8643
  603MOL0     H81389   4.672   0.455  10.466 -0.4991 -0.6323 -0.1160
  603MOL0     H81390   4.760   0.654  10.555 -0.8978 -1.4279  3.4030
  603MOL0     H81391   4.127   2.163  11.103 -0.1144 -1.6446 -1.4070
  603MOL0     H81392   3.951   2.222  11.274  4.2286  1.1111  3.9331
  603MOL0     H81393   3.400   1.925  11.410 -0.0501 -2.1234  1.5982
  603MOL0     H81394   3.248   1.995  11.593  0.0281  1.3301  0.1344
  603MOL0     H81395   3.416   2.142  11.948  2.1433  2.0331 -1.2718
  603MOL0     H81396   3.362   2.306  11.930 -1.3539  0.7211 -0.5718
  603MOL0     H81397   3.145   2.250  12.014 -1.6816 -1.4621  0.4256
  603MOL0     H81398   3.278   2.211  12.119  1.0117  1.7492 -0.7533
  603MOL0     H81399   3.277   1.976  12.018  0.1790  0.5285  1.0274
  603MOL0     H81400   3.131   2.025  11.929  2.5390 -1.7520 -2.1925
  603MOL0     H81401   3.079   2.088  12.185  3.6620  1.0926 -0.0882
  603MOL0     H81402   3.188   1.947  12.217 -0.0101  3.0688  2.9956
  603MOL0     H81403   2.877   1.715  12.145 -2.2930  2.2688  1.7946
  603MOL0     H81404   3.560   2.227  11.774  0.4308 -1.1576  0.5386
  603MOL0     H81405   3.722   2.130  11.623  0.3026 -1.5771 -0.9949
  604MOL0     O81406   2.423  10.679   3.975 -0.1094 -0.0378 -0.0999
  604MOL0     C81407   2.405  10.660   3.856 -0.6317 -0.4613  1.1105
  604MOL0     O81408   2.288  10.611   3.802  0.0554 -0.6171  0.2328
  604MOL0     C81409   2.198  10.563   3.894  0.3568  0.6770 -0.5240
  604MOL0     C81410   2.146  10.431   3.886 -0.9726  0.9177 -0.9709
  604MOL0     C81411   2.043  10.390   3.970  0.8787  0.0138 -0.2506
  604MOL0     C81412   1.985  10.480   4.059 -0.5042  0.0108 -0.6289
  604MOL0     O81413   1.884  10.455   4.151 -0.5644 -1.3295 -0.6389
  604MOL0     C81414   1.883  10.330   4.213 -0.3259 -0.2920  0.1544
  604MOL0     C81415   1.954  10.345   4.351 -0.5373 -0.5858  0.5316
  604MOL0     C81416   1.884  10.429   4.463 -0.6246  0.3433 -0.2180
  604MOL0     C81417   1.725  10.414   4.470 -0.7186 -0.6291 -0.4318
  604MOL0     C81418   1.671  10.510   4.570  0.2555 -0.1702  0.0992
  604MOL0     C81419   1.700  10.667   4.556  0.0953  0.0936  0.4288
  604MOL0     C81420   1.645  10.729   4.425 -1.1747 -0.6931  0.1578
  604MOL0     C81421   1.747  10.771   4.322 -0.4751 -0.2292  0.0565
  604MOL0     N81422   1.701  10.801   4.186  0.1270  0.1767  0.3836
  604MOL0     C81423   1.611  10.729   4.113  0.3181  0.9023  0.5166
  604MOL0     C81424   1.562  10.805   4.019  0.5821  0.4949  0.0497
  604MOL0     C81425   1.453  10.756   3.934 -0.4823  0.7774  0.6255
  604MOL0     C81426   1.487  10.750   3.782 -0.5840 -0.6437 -0.8915
  604MOL0     C81427   1.350  10.761   3.711 -0.3909  0.4696  0.9087
  604MOL0     C81428   1.373  10.727   3.557  0.5850 -0.0165  0.1205
  604MOL0     O81429   1.260  10.687   3.484 -0.2290  0.4776  0.8436
  604MOL0     C81430   1.266  10.679   3.347  0.0726 -0.6245  1.1784
  604MOL0     C81431   1.154  10.729   3.280  0.7183 -0.3991 -0.5063
  604MOL0     C81432   1.140  10.704   3.137 -0.1085 -0.0307 -0.4513
  604MOL0     C81433   1.017  10.768   3.072 -0.9241 -0.2471  0.4658
  604MOL0     C81434   1.219  10.621   3.060  0.2482  0.0341  0.4800
  604MOL0     C81435   1.202  10.583   2.913 -0.1956  0.3361  0.4928
  604MOL0     O81436   1.293  10.491   2.867 -0.1618 -0.1768  0.9118
  604MOL0     C81437   1.275  10.442   2.740 -1.2591  1.1409 -0.1438
  604MOL0     C81438   1.400  10.397   2.685 -0.4404 -0.9260 -0.3362
  604MOL0     C81439   1.411  10.357   2.549 -0.2473 -0.7442 -0.6275
  604MOL0     C81440   1.293  10.357   2.476  0.4963  0.3924 -0.1682
  604MOL0     O81441   1.300  10.320   2.343 -0.2352 -0.3336  0.5420
  604MOL0     C81442   1.391  10.382   2.251  0.2152 -0.0074 -0.0663
  604MOL0     C81443   1.332  10.378   2.107  1.0091 -0.3676  0.5271
  604MOL0     C81444   1.453  10.415   2.012 -0.0176  0.3122  0.5994
  604MOL0     C81445   1.421  10.371   1.871 -0.3849 -0.4836 -0.4887
  604MOL0     C81446   1.539  10.422   1.778  0.2873 -0.5578 -0.0638
  604MOL0     C81447   1.608  10.315   1.706 -0.8815  0.1569 -0.8724
  604MOL0     C81448   1.664  10.207   1.794  0.9502 -0.7490 -0.7957
  604MOL0     C81449   1.786  10.244   1.885  0.1298 -0.3789  0.3123
  604MOL0    Cl81450   1.800  10.108   1.996 -0.5183 -0.1574  0.2680
  604MOL0     C81451   1.178  10.407   2.526  0.6566  0.7058  0.5514
  604MOL0     C81452   1.162  10.438   2.661 -0.3044 -0.0447  0.2858
  604MOL0     O81453   1.104  10.634   2.848 -0.9380  1.1641  0.1063
  604MOL0     C81454   1.332  10.565   3.129 -0.1674 -0.8825  0.8160
  604MOL0     C81455   1.351  10.600   3.267  0.4072 -0.0860  0.3493
  604MOL0     N81456   1.636  10.925   4.026  0.3632  0.5495 -0.1485
  604MOL0     N81457   1.703  10.922   4.133  0.0866  0.1573  0.0318
  604MOL0     C81458   2.033  10.611   4.065  1.1996 -0.3271  0.5500
  604MOL0     C81459   2.134  10.644   3.989 -0.6407 -1.0781  0.1289
  604MOL0     C81460   2.512  10.709   3.770  0.9223  0.2047  0.0852
  604MOL0     C81461   2.643  10.733   3.799 -1.4296  0.2899  0.3878
  604MOL0     C81462   2.729  10.799   3.711  0.0820 -0.8507 -1.3744
  604MOL0     C81463   2.686  10.825   3.583  0.0333  0.1579 -0.0455
  604MOL0     O81464   2.773  10.886   3.498 -0.9901 -0.6950  0.3235
  604MOL0     C81465   2.741  10.944   3.366 -0.4821 -0.4801 -0.4109
  604MOL0     C81466   2.867  10.993   3.299  1.4481  0.1801 -0.7072
  604MOL0     C81467   2.984  10.900   3.306  0.3103  0.6929 -0.5378
  604MOL0     C81468   3.068  10.896   3.446  0.0042  0.6568 -0.2058
  604MOL0     C81469   3.203  10.939   3.412 -0.7900  0.0803  0.7968
  604MOL0     C81470   3.324  10.959   3.388 -0.3671  1.3265 -0.1689
  604MOL0     C81471   2.560  10.803   3.550  0.4575 -0.0062  0.0273
  604MOL0     C81472   2.470  10.748   3.639  0.4371 -0.7648  0.6988
  604MOL0     H81473   2.191  10.357   3.820  0.0722  0.3337  0.3472
  604MOL0     H81474   1.998  10.292   3.956  0.1812  0.4550 -1.1892
  604MOL0     H81475   1.780  10.296   4.227 -1.2283  2.1494 -0.2193
  604MOL0     H81476   1.926  10.249   4.153  0.6881  1.2472 -1.2487
  604MOL0     H81477   1.963  10.241   4.385 -0.9409 -0.7089  0.2753
  604MOL0     H81478   2.058  10.377   4.344 -0.5558 -0.8406 -4.6135
  604MOL0     H81479   1.923  10.387   4.556  1.7446 -1.3756 -1.8759
  604MOL0     H81480   1.920  10.532   4.454  0.0335  0.2856  1.4055
  604MOL0     H81481   1.674  10.425   4.374  0.7617 -1.9117 -1.4082
  604MOL0     H81482   1.698  10.310   4.490  0.4651 -0.8300  0.2607
  604MOL0     H81483   1.564  10.486   4.565  0.5267 -1.3825 -0.3273
  604MOL0     H81484   1.711  10.481   4.667  3.7941 -0.7648 -1.3777
  604MOL0     H81485   1.637  10.719   4.629 -0.2007  0.7718 -0.2957
  604MOL0     H81486   1.799  10.701   4.588  0.0708  0.8888 -0.2848
  604MOL0     H81487   1.574  10.662   4.376 -1.5159  1.2937 -2.3080
  604MOL0     H81488   1.587  10.815   4.458 -2.5562 -1.8621  0.8498
  604MOL0     H81489   1.825  10.696   4.304 -0.7187 -0.1674 -1.2928
  604MOL0     H81490   1.799  10.860   4.360  2.3263 -0.7790 -2.1726
  604MOL0     H81491   1.587  10.624   4.129 -1.5319  0.8877 -1.9358
  604MOL0     H81492   1.436  10.651   3.960 -0.5088  0.8702  0.9863
  604MOL0     H81493   1.362  10.813   3.951  0.2469  1.8892  0.8888
  604MOL0     H81494   1.540  10.658   3.756  1.0205  0.2113 -0.7868
  604MOL0     H81495   1.558  10.831   3.761  1.0984 -1.8407 -0.0748
  604MOL0     H81496   1.298  10.857   3.716  1.2846  1.6338 -1.8810
  604MOL0     H81497   1.295  10.674   3.750  1.9801 -1.7554 -0.4142
  604MOL0     H81498   1.442  10.643   3.550  0.0184 -0.4144 -0.9579
  604MOL0     H81499   1.414  10.817   3.511 -1.1700  0.2078 -1.1484
  604MOL0     H81500   1.085  10.796   3.330  3.7619  2.5974  0.0588
  604MOL0     H81501   0.951  10.695   3.026  0.6021 -0.8964 -0.7871
  604MOL0     H81502   0.950  10.821   3.141  0.1254 -1.9837  2.9608
  604MOL0     H81503   1.056  10.838   2.997  1.2866  0.8759  2.5090
  604MOL0     H81504   1.492  10.411   2.741 -1.6491  0.8950  1.2963
  604MOL0     H81505   1.510  10.341   2.506 -0.4061 -1.7522 -0.6536
  604MOL0     H81506   1.426  10.485   2.266  1.4977 -0.2979 -0.9435
  604MOL0     H81507   1.484  10.326   2.258 -1.6732 -3.3111  1.0253
  604MOL0     H81508   1.272  10.288   2.089 -0.1451  0.9766 -3.1775
  604MOL0     H81509   1.257  10.454   2.085  0.5471 -1.4936 -2.1268
  604MOL0     H81510   1.549  10.377   2.050  0.6939 -0.3773 -1.7147
  604MOL0     H81511   1.466  10.523   2.013  0.1167  0.2976  0.7572
  604MOL0     H81512   1.398  10.264   1.875 -2.2313 -0.2113 -2.1511
  604MOL0     H81513   1.329  10.413   1.830 -0.6117  0.1775  0.6612
  604MOL0     H81514   1.617  10.480   1.827  2.2353  0.0434 -3.5760
  604MOL0     H81515   1.494  10.483   1.700 -0.7491 -1.6263 -0.3375
  604MOL0     H81516   1.538  10.263   1.639 -3.2382  1.1218  0.7039
  604MOL0     H81517   1.691  10.353   1.646  0.2208 -2.3842 -1.0756
  604MOL0     H81518   1.699  10.124   1.732 -0.0267 -0.9400 -1.1092
  604MOL0     H81519   1.587  10.167   1.861  1.1696 -0.6052 -0.4579
  604MOL0     H81520   1.769  10.333   1.948  1.8926  0.9375 -0.9885
  604MOL0     H81521   1.869  10.260   1.816 -1.8670 -1.2227 -2.4487
  604MOL0     H81522   1.095  10.418   2.457  1.5573  0.1829 -0.6576
  604MOL0     H81523   1.063  10.458   2.702 -0.5116 -0.8383  0.1915
  604MOL0     H81524   1.399  10.494   3.083 -1.0797 -1.0969 -0.2155
  604MOL0     H81525   1.442  10.554   3.305  0.3932 -0.0681  0.4050
  604MOL0     H81526   1.983  10.686   4.126 -1.1968 -1.7806  0.4946
  604MOL0     H81527   2.161  10.748   4.006  1.3005 -1.4092 -0.6209
  604MOL0     H81528   2.683  10.703   3.895 -1.4399  1.3435  0.7324
  604MOL0     H81529   2.829  10.812   3.750 -1.0870  1.0332  1.3270
  604MOL0     H81530   2.705  10.856   3.311  3.1509 -1.9723 -0.6372
  604MOL0     H81531   2.666  11.023   3.364  1.3935  1.4049  0.2970
  604MOL0     H81532   2.890  11.089   3.347 -3.0182  1.0152  0.2927
  604MOL0     H81533   2.839  11.005   3.194 -1.1199 -2.4159 -0.4234
  604MOL0     H81534   3.046  10.917   3.217  0.2086  2.0201 -0.3667
  604MOL0     H81535   2.951  10.796   3.316  1.0047  0.4025 -1.1604
  604MOL0     H81536   3.065  10.798   3.494  0.0539  1.1365  0.8072
  604MOL0     H81537   3.023  10.957   3.525 -0.6122 -1.6800  1.3706
  604MOL0     H81538   3.420  10.985   3.347  0.2465 -0.6368 -0.0607
  604MOL0     H81539   2.530  10.825   3.448  2.0700 -1.7625 -0.8928
  604MOL0     H81540   2.371  10.717   3.607  0.7678  0.5551 -1.8013
  605MOL0     O81541  10.567   9.982   1.859  0.2864 -0.3522 -0.0793
  605MOL0     C81542  10.546  10.059   1.949  0.0155  0.3274 -0.2621
  605MOL0     O81543  10.570  10.035   2.084  0.6300 -0.2207  0.0930
  605MOL0     C81544  10.598   9.908   2.126 -0.3443 -0.0327 -0.0742
  605MOL0     C81545  10.703   9.911   2.226 -0.3119 -1.2620  0.1293
  605MOL0     C81546  10.725   9.799   2.294  0.5755  0.0338  0.0981
  605MOL0     C81547  10.664   9.678   2.269  0.9272 -1.0183 -1.0134
  605MOL0     O81548  10.721   9.572   2.341 -0.5977 -0.1334  0.0617
  605MOL0     C81549  10.760   9.467   2.259 -0.4123 -0.5661 -0.2106
  605MOL0     C81550  10.856   9.373   2.325 -0.6199  0.5401  0.5828
  605MOL0     C81551  11.002   9.415   2.301 -0.7467  0.2361 -0.7818
  605MOL0     C81552  11.103   9.357   2.406 -0.2146  0.1842 -0.2429
  605MOL0     C81553  11.233   9.437   2.400  0.1640 -0.9842  0.3173
  605MOL0     C81554  11.323   9.391   2.512 -0.4032 -0.4751 -0.4065
  605MOL0     C81555  11.438   9.497   2.519  0.8703 -0.1174 -0.0736
  605MOL0     C81556  11.515   9.519   2.386  0.6410 -0.4804  0.2501
  605MOL0     N81557  11.606   9.629   2.401  0.3104  0.6031  0.5896
  605MOL0     C81558  11.727   9.632   2.338 -0.3115  0.4902 -0.2649
  605MOL0     C81559  11.771   9.760   2.343 -0.2349 -0.3199  0.9965
  605MOL0     C81560  11.900   9.796   2.286  0.0753 -0.6956  0.4207
  605MOL0     C81561  11.895   9.851   2.143  0.8737  0.5550  0.7870
  605MOL0     C81562  11.861   9.736   2.049  0.0947 -0.0171 -0.5816
  605MOL0     C81563  11.798   9.772   1.917  0.1086  0.4229 -0.0650
  605MOL0     O81564  11.899   9.836   1.834 -0.2286 -0.4857  0.7053
  605MOL0     C81565  11.873   9.952   1.754 -0.0745  0.1078 -0.3319
  605MOL0     C81566  11.878   9.946   1.614 -0.7439 -0.0159 -0.2318
  605MOL0     C81567  11.855  10.058   1.529 -0.1631  0.7118 -0.0012
  605MOL0     C81568  11.860  10.046   1.378  0.0515  0.1800  1.0182
  605MOL0     C81569  11.814  10.175   1.596  0.2158 -0.8148 -1.3844
  605MOL0     C81570  11.771  10.286   1.531 -0.8827  0.1712  0.2663
  605MOL0     O81571  11.826  10.404   1.561 -0.3710  0.6229 -0.0078
  605MOL0     C81572  11.788  10.521   1.495  0.0255  0.4166  0.1471
  605MOL0     C81573  11.735  10.541   1.367 -0.1082  0.3964  1.3072
  605MOL0     C81574  11.703  10.665   1.312 -0.8423  0.1200 -0.0081
  605MOL0     C81575  11.727  10.773   1.389  0.9599 -0.5998  0.2042
  605MOL0     O81576  11.714  10.903   1.340  0.2528 -1.0810 -0.4261
  605MOL0     C81577  11.618  10.929   1.249  0.4156 -0.4751 -0.4273
  605MOL0     C81578  11.604  11.083   1.226 -0.2396 -0.3049 -0.1015
  605MOL0     C81579  11.574  11.163   1.358 -0.7607  0.5226 -0.2587
  605MOL0     C81580  11.425  11.155   1.392 -0.5928 -0.2430 -0.6072
  605MOL0     C81581  11.391  11.226   1.524  0.0281  0.1733  0.4902
  605MOL0     C81582  11.412  11.385   1.519  0.5268  0.6987  0.8985
  605MOL0     C81583  11.366  11.445   1.648  1.2593  0.4582 -0.7594
  605MOL0     C81584  11.330  11.591   1.629  0.5581  0.7301 -0.5560
  605MOL0    Cl81585  11.194  11.618   1.514  0.0113  0.2176  0.5271
  605MOL0     C81586  11.768  10.759   1.524 -1.1421  0.0413 -0.6399
  605MOL0     C81587  11.807  10.630   1.573  1.1615 -0.2207 -0.3877
  605MOL0     O81588  11.670  10.269   1.459  0.7718 -0.0208 -0.5133
  605MOL0     C81589  11.812  10.174   1.739  0.1216  0.6077 -0.3219
  605MOL0     C81590  11.844  10.072   1.814  0.7541  0.1651 -0.5097
  605MOL0     N81591  11.663   9.836   2.403 -0.8783 -0.1273 -0.8623
  605MOL0     N81592  11.571   9.755   2.434 -1.0834 -0.0320  1.3172
  605MOL0     C81593  10.570   9.672   2.158 -0.1385 -0.0339 -0.4841
  605MOL0     C81594  10.537   9.785   2.083 -0.4906 -0.5389  0.5925
  605MOL0     C81595  10.467  10.175   1.925 -0.1182 -0.2772  0.5366
  605MOL0     C81596  10.455  10.278   2.017  0.1089  0.4937  0.3104
  605MOL0     C81597  10.380  10.393   2.002 -0.4319  1.6232  0.3967
  605MOL0     C81598  10.316  10.406   1.880  0.3840 -0.0729  1.4324
  605MOL0     O81599  10.244  10.513   1.838  0.4184  0.1606 -0.5621
  605MOL0     C81600  10.254  10.634   1.915  0.2618 -1.1588 -0.4643
  605MOL0     C81601  10.279  10.745   1.812 -0.0408 -0.2750  0.0508
  605MOL0     C81602  10.337  10.878   1.861  0.1495  1.0260 -0.5663
  605MOL0     C81603  10.288  10.929   2.003 -0.1878  0.0851 -0.0037
  605MOL0     C81604  10.149  10.925   2.018  1.1197 -0.5405  0.8927
  605MOL0     C81605  10.026  10.918   2.025 -0.0249 -0.1211 -0.6698
  605MOL0     C81606  10.326  10.304   1.778  0.4623 -0.3944  0.0572
  605MOL0     C81607  10.402  10.191   1.796 -0.7127  0.4151  0.5000
  605MOL0     H81608  10.732  10.013   2.249 -2.6821 -0.2083 -1.1677
  605MOL0     H81609  10.793   9.801   2.378  0.0935  3.3692  0.5483
  605MOL0     H81610  10.671   9.413   2.224  1.0852 -1.7825 -2.3951
  605MOL0     H81611  10.805   9.503   2.166 -2.0289  0.9772 -0.4512
  605MOL0     H81612  10.819   9.380   2.428 -0.9964  0.7855  0.4349
  605MOL0     H81613  10.834   9.268   2.303 -0.4957  0.6852 -0.2558
  605MOL0     H81614  11.036   9.397   2.199  2.8419  2.4176 -0.1741
  605MOL0     H81615  11.015   9.522   2.320  3.6616  0.0416 -1.6909
  605MOL0     H81616  11.061   9.369   2.506 -1.4471  2.2170 -0.9372
  605MOL0     H81617  11.123   9.250   2.398  0.8708  0.1750  1.8642
  605MOL0     H81618  11.283   9.411   2.306  0.4665  1.4844 -0.2700
  605MOL0     H81619  11.210   9.543   2.411 -2.7143 -1.1432 -2.4991
  605MOL0     H81620  11.275   9.381   2.610  0.5528  0.2045  0.1583
  605MOL0     H81621  11.368   9.294   2.490  3.6850  1.3991 -1.2957
  605MOL0     H81622  11.395   9.589   2.559 -0.7820 -0.2589 -1.4296
  605MOL0     H81623  11.506   9.462   2.596 -1.0329 -2.0190  0.8312
  605MOL0     H81624  11.448   9.552   2.305  3.7130 -0.1127 -2.3386
  605MOL0     H81625  11.576   9.433   2.357  0.0289 -0.8870  0.1436
  605MOL0     H81626  11.778   9.546   2.297  0.3952  0.5378  0.4940
  605MOL0     H81627  11.959   9.860   2.352  0.9176 -1.1140  0.0905
  605MOL0     H81628  11.957   9.703   2.289 -0.9721 -1.3240  1.9640
  605MOL0     H81629  11.990   9.884   2.100  1.8456 -1.5963  1.1299
  605MOL0     H81630  11.815   9.925   2.144  1.6195  1.3936 -0.0513
  605MOL0     H81631  11.778   9.678   2.089  1.6319 -1.4218  0.7309
  605MOL0     H81632  11.950   9.674   2.039 -1.1335 -2.5008  2.2908
  605MOL0     H81633  11.705   9.829   1.927 -0.3548 -0.2152 -0.6536
  605MOL0     H81634  11.779   9.677   1.866  3.5285 -0.5220  0.1716
  605MOL0     H81635  11.916   9.856   1.567  0.6381  0.0156  0.7474
  605MOL0     H81636  11.828   9.943   1.357 -1.4069  0.4998  1.5840
  605MOL0     H81637  11.806  10.122   1.321  0.5133 -0.9232 -0.9663
  605MOL0     H81638  11.964  10.058   1.346 -0.1611  3.5272  1.2495
  605MOL0     H81639  11.714  10.454   1.305 -1.0015  2.9567 -2.3364
  605MOL0     H81640  11.666  10.677   1.210 -2.4648 -0.6609  0.4685
  605MOL0     H81641  11.640  10.886   1.151 -2.5537 -2.0361 -0.5397
  605MOL0     H81642  11.521  10.892   1.283  0.1304  0.5858 -0.0533
  605MOL0     H81643  11.700  11.111   1.182 -1.0387  1.1425 -1.0098
  605MOL0     H81644  11.533  11.118   1.151 -2.6873  1.4988  2.8354
  605MOL0     H81645  11.603  11.264   1.328  1.5634 -0.5825 -2.1378
  605MOL0     H81646  11.635  11.135   1.444  0.3000  0.6512 -0.9411
  605MOL0     H81647  11.367  11.188   1.305 -3.7081 -1.3836  0.8914
  605MOL0     H81648  11.390  11.052   1.404 -1.5332 -0.1761 -2.3709
  605MOL0     H81649  11.456  11.193   1.604 -3.2642 -1.2128  2.8232
  605MOL0     H81650  11.286  11.198   1.535  0.0888 -0.9506 -1.3237
  605MOL0     H81651  11.518  11.410   1.505  0.6147 -0.9567 -2.5595
  605MOL0     H81652  11.352  11.422   1.435  3.8410 -0.2881 -2.2052
  605MOL0     H81653  11.445  11.442   1.723 -2.8458  1.4433  4.1908
  605MOL0     H81654  11.275  11.395   1.684  1.0410  1.3528 -0.0346
  605MOL0     H81655  11.414  11.641   1.580 -0.5874  1.5677 -1.7410
  605MOL0     H81656  11.308  11.632   1.728 -3.1999  0.1642 -0.9924
  605MOL0     H81657  11.788  10.842   1.591 -0.9499 -1.0810  0.7443
  605MOL0     H81658  11.852  10.633   1.671  5.6757  2.2007 -2.2542
  605MOL0     H81659  11.781  10.266   1.787  0.7938  0.7808 -0.2033
  605MOL0     H81660  11.826  10.086   1.920 -1.7842  0.4624 -0.9187
  605MOL0     H81661  10.527   9.577   2.128 -0.4604 -0.4417  1.1617
  605MOL0     H81662  10.450   9.784   2.019  2.2174  0.0953 -3.5371
  605MOL0     H81663  10.506  10.266   2.112  0.2103  1.1390  0.3455
  605MOL0     H81664  10.380  10.469   2.080  3.3401 -1.2596  3.6030
  605MOL0     H81665  10.164  10.656   1.973  1.3562  0.0772  0.8484
  605MOL0     H81666  10.340  10.641   1.982  0.5431 -0.5206 -0.8877
  605MOL0     H81667  10.187  10.758   1.753 -1.4920 -0.4280  2.1591
  605MOL0     H81668  10.360  10.714   1.746  0.8803  2.5726 -0.2924
  605MOL0     H81669  10.318  10.955   1.787 -0.6949 -1.0174 -2.6076
  605MOL0     H81670  10.445  10.865   1.865  0.1814 -0.2232 -3.2632
  605MOL0     H81671  10.324  11.032   2.011  1.2519 -0.3691 -0.3156
  605MOL0     H81672  10.329  10.870   2.085  3.3416 -1.6281 -2.7464
  605MOL0     H81673   9.921  10.924   2.049  0.0167 -1.7943  0.0540
  605MOL0     H81674  10.283  10.330   1.682 -0.3505 -1.2100  0.1823
  605MOL0     H81675  10.410  10.111   1.723  1.1220 -1.4514  2.6248
  606MOL0     O81676   5.363   0.710   3.366  0.5543  0.0050 -0.5460
  606MOL0     C81677   5.268   0.691   3.435  0.8089  0.1904  0.7408
  606MOL0     O81678   5.247   0.757   3.554  0.2275  0.6436 -0.1335
  606MOL0     C81679   5.292   0.880   3.555 -0.4937  0.1102 -0.3153
  606MOL0     C81680   5.416   0.912   3.624  0.2665 -0.6350  0.6845
  606MOL0     C81681   5.458   1.049   3.629  0.1715  0.6394  0.4583
  606MOL0     C81682   5.369   1.151   3.586  0.5215  0.2013  0.2736
  606MOL0     O81683   5.387   1.280   3.584 -0.5338 -0.5840 -0.3185
  606MOL0     C81684   5.501   1.343   3.656 -0.1908  0.8273  0.5719
  606MOL0     C81685   5.531   1.476   3.603  0.0643  1.2475 -0.2671
  606MOL0     C81686   5.434   1.580   3.648 -0.7065 -0.6292 -0.3241
  606MOL0     C81687   5.492   1.680   3.763 -0.7919 -0.4886 -0.2543
  606MOL0     C81688   5.390   1.798   3.790 -0.7328  0.0269  0.1829
  606MOL0     C81689   5.436   1.912   3.895 -0.1885  0.6190 -1.0433
  606MOL0     C81690   5.485   1.866   4.041  0.2759  0.6286  1.1467
  606MOL0     C81691   5.569   1.976   4.108 -0.0413 -0.0871 -0.7687
  606MOL0     N81692   5.560   1.955   4.249  0.2419  0.2313 -0.0696
  606MOL0     C81693   5.446   1.942   4.328 -0.3923  0.1999 -0.2433
  606MOL0     C81694   5.491   1.882   4.441  0.7471 -0.4703  0.5703
  606MOL0     C81695   5.395   1.829   4.550 -0.5688  0.2066  1.2772
  606MOL0     C81696   5.316   1.935   4.619  0.9379 -0.0553  0.0703
  606MOL0     C81697   5.209   1.896   4.723 -0.3814  0.7577  0.2964
  606MOL0     C81698   5.249   1.827   4.846  0.4250 -0.9031 -0.1875
  606MOL0     O81699   5.129   1.787   4.913  0.1873 -0.4035  1.5189
  606MOL0     C81700   5.130   1.776   5.048 -0.1026 -0.6714  0.0492
  606MOL0     C81701   5.016   1.811   5.117  0.4933 -0.1964 -1.3932
  606MOL0     C81702   5.014   1.825   5.254 -0.5170  0.0531 -1.0555
  606MOL0     C81703   4.884   1.866   5.331 -0.1588  0.4326 -0.0484
  606MOL0     C81704   5.131   1.793   5.333  0.0134 -0.7392  0.4941
  606MOL0     C81705   5.153   1.823   5.476  0.8056 -0.0796  0.5138
  606MOL0     O81706   5.077   1.926   5.537  0.1668  0.0827 -0.4195
  606MOL0     C81707   5.086   1.932   5.673  0.6712  0.8646  0.5050
  606MOL0     C81708   5.210   1.927   5.735  0.4335  0.4485 -0.6915
  606MOL0     C81709   5.217   1.942   5.869 -0.0335  0.0195 -0.8809
  606MOL0     C81710   5.103   1.955   5.949 -0.5521 -0.5082  0.1821
  606MOL0     O81711   5.103   1.988   6.090 -0.2588  0.3097  0.6448
  606MOL0     C81712   5.224   1.975   6.168  0.1378  0.3854 -0.4568
  606MOL0     C81713   5.188   1.950   6.312  1.2080  0.1718 -0.8915
  606MOL0     C81714   5.134   1.801   6.337 -0.4647 -0.4111  0.4578
  606MOL0     C81715   5.076   1.797   6.480 -0.7572 -0.4490  0.5069
  606MOL0     C81716   5.012   1.662   6.517  0.9178 -0.1399  0.6299
  606MOL0     C81717   5.096   1.534   6.482  0.0427  1.0701 -0.5042
  606MOL0     C81718   5.026   1.404   6.530  0.0561 -0.0435  0.3696
  606MOL0     C81719   5.108   1.280   6.483  0.4121 -0.3072  0.1940
  606MOL0    Cl81720   5.056   1.155   6.599  0.2085  0.2725  0.6090
  606MOL0     C81721   4.980   1.949   5.887  0.6903  0.6103 -0.9588
  606MOL0     C81722   4.973   1.946   5.746 -0.5188 -0.4267 -0.0156
  606MOL0     O81723   5.217   1.740   5.539  0.2290 -0.2679 -0.0386
  606MOL0     C81724   5.243   1.749   5.261 -0.4496 -0.7096 -0.0826
  606MOL0     C81725   5.248   1.742   5.119 -0.0812 -1.4315  0.1039
  606MOL0     N81726   5.625   1.867   4.426 -0.4229 -0.5274  0.1550
  606MOL0     N81727   5.664   1.907   4.315 -0.3720  0.2581  0.0675
  606MOL0     C81728   5.245   1.121   3.533 -0.5052 -0.2985 -0.1884
  606MOL0     C81729   5.209   0.992   3.519 -0.0052  0.2735 -0.5621
  606MOL0     C81730   5.167   0.586   3.400 -1.0948  0.2964 -1.0331
  606MOL0     C81731   5.190   0.495   3.294 -0.5148 -0.0943 -0.5334
  606MOL0     C81732   5.098   0.395   3.267  0.8348 -0.3094  0.7077
  606MOL0     C81733   4.968   0.391   3.316  0.8753  0.3162 -0.1483
  606MOL0     O81734   4.888   0.283   3.286 -0.3696  0.0671  0.0390
  606MOL0     C81735   4.744   0.301   3.296  0.6882 -0.7223  0.1309
  606MOL0     C81736   4.692   0.185   3.211  0.0713  0.6412  0.1733
  606MOL0     C81737   4.540   0.192   3.181  0.4030  0.4198  0.1591
  606MOL0     C81738   4.501   0.072   3.088 -0.0214  0.2227  0.0779
  606MOL0     C81739   4.361   0.042   3.105 -0.1732  0.1190 -0.1949
  606MOL0     C81740   4.250  -0.007   3.117  0.4794  0.1872 -0.5952
  606MOL0     C81741   4.936   0.479   3.421  0.6262 -0.7244  0.1793
  606MOL0     C81742   5.040   0.574   3.460  0.3492  0.6980  0.0419
  606MOL0     H81743   5.473   0.823   3.647  2.5944 -0.7805 -4.2577
  606MOL0     H81744   5.558   1.071   3.666 -0.0974 -1.3134  2.5544
  606MOL0     H81745   5.472   1.338   3.762 -2.0156 -0.5592  0.0529
  606MOL0     H81746   5.594   1.291   3.636 -2.2551 -2.1172 -2.3461
  606MOL0     H81747   5.639   1.493   3.610  0.9989 -3.2119 -0.7143
  606MOL0     H81748   5.513   1.467   3.495 -0.4618  2.0120 -0.2471
  606MOL0     H81749   5.396   1.640   3.564 -2.6983  1.5584  1.9629
  606MOL0     H81750   5.348   1.538   3.702 -0.8582  1.6274  1.3266
  606MOL0     H81751   5.496   1.631   3.861 -0.4560  1.2824  0.6636
  606MOL0     H81752   5.594   1.714   3.744 -0.4719 -1.7851 -0.9160
  606MOL0     H81753   5.382   1.859   3.700 -0.6333  2.1250  1.5388
  606MOL0     H81754   5.293   1.752   3.810 -0.9582  0.4430  0.0518
  606MOL0     H81755   5.518   1.957   3.838  2.9069 -3.0255  0.1227
  606MOL0     H81756   5.363   1.987   3.924  0.9337  1.8305 -1.2316
  606MOL0     H81757   5.396   1.851   4.103 -0.7569  3.7417  0.6114
  606MOL0     H81758   5.554   1.782   4.031  0.9285  1.4608 -3.9210
  606MOL0     H81759   5.532   2.073   4.076  0.4178  1.2762  2.4816
  606MOL0     H81760   5.674   1.969   4.077  0.5487 -0.9138  1.2613
  606MOL0     H81761   5.348   1.968   4.291 -0.4110  1.2141  0.4871
  606MOL0     H81762   5.323   1.764   4.498  1.3279 -1.6198  0.8082
  606MOL0     H81763   5.440   1.761   4.623 -1.2907 -2.9633 -0.9799
  606MOL0     H81764   5.258   1.993   4.547 -4.1697 -2.6028  1.6514
  606MOL0     H81765   5.386   2.000   4.672  0.4931  0.6833 -0.2282
  606MOL0     H81766   5.130   1.834   4.680  0.8291  0.8481 -2.2291
  606MOL0     H81767   5.165   1.993   4.751  2.7764  2.5756 -0.5299
  606MOL0     H81768   5.317   1.890   4.903 -2.1273  2.2919 -0.4161
  606MOL0     H81769   5.303   1.734   4.825  0.4523 -1.6514  2.7796
  606MOL0     H81770   4.935   1.843   5.052 -0.0948  1.1856 -0.0533
  606MOL0     H81771   4.796   1.831   5.276 -0.0872 -2.2910  1.3767
  606MOL0     H81772   4.870   1.810   5.424 -1.4497 -2.7657 -2.0087
  606MOL0     H81773   4.885   1.975   5.332  0.3167  0.4446 -1.1918
  606MOL0     H81774   5.313   1.914   5.701  0.6340 -1.7479  0.5234
  606MOL0     H81775   5.318   1.958   5.904 -1.0420 -0.5554  2.6899
  606MOL0     H81776   5.292   1.896   6.134 -0.1945 -0.5812  1.0298
  606MOL0     H81777   5.289   2.062   6.156 -1.5871  1.7444 -0.3497
  606MOL0     H81778   5.276   1.978   6.369  0.7359  3.4426 -1.5719
  606MOL0     H81779   5.108   2.020   6.335 -0.1779 -0.9424 -2.0624
  606MOL0     H81780   5.221   1.738   6.313 -0.1801  0.4486 -0.8854
  606MOL0     H81781   5.059   1.766   6.265  0.5632 -3.1433  0.5749
  606MOL0     H81782   5.150   1.810   6.560 -1.3700 -1.0340  1.1787
  606MOL0     H81783   5.009   1.882   6.494  3.0306  3.1615 -0.9834
  606MOL0     H81784   4.913   1.654   6.471 -0.4677 -0.9197  3.4958
  606MOL0     H81785   4.996   1.661   6.625 -0.3138  0.9955  0.4827
  606MOL0     H81786   5.102   1.528   6.373  0.2974 -2.4031 -0.3936
  606MOL0     H81787   5.195   1.532   6.529 -0.3674 -0.3121  0.3361
  606MOL0     H81788   4.919   1.405   6.507 -0.0642  0.9960  0.8768
  606MOL0     H81789   5.040   1.404   6.638  3.2790 -1.5208  0.0459
  606MOL0     H81790   5.216   1.299   6.478  0.5465 -1.2998 -1.9696
  606MOL0     H81791   5.078   1.248   6.382 -2.5264  0.7039  0.6686
  606MOL0     H81792   4.892   1.954   5.951  1.0495  0.3041 -0.4354
  606MOL0     H81793   4.885   1.945   5.682 -0.8789 -1.6000  0.4654
  606MOL0     H81794   5.342   1.739   5.304  0.4678 -1.1114 -2.1755
  606MOL0     H81795   5.327   1.709   5.051  0.7061  1.3191 -0.4570
  606MOL0     H81796   5.166   1.192   3.508 -1.6806 -0.2879  3.0687
  606MOL0     H81797   5.112   0.975   3.472 -0.2576  1.0484 -0.3335
  606MOL0     H81798   5.288   0.501   3.249 -1.4886  1.9569 -2.5798
  606MOL0     H81799   5.106   0.311   3.199 -3.0151 -1.2953  1.2635
  606MOL0     H81800   4.700   0.293   3.396 -3.5966  3.3265 -1.0724
  606MOL0     H81801   4.702   0.391   3.249 -1.4398 -2.5165 -1.6282
  606MOL0     H81802   4.708   0.089   3.260 -3.0053 -1.1202 -1.9099
  606MOL0     H81803   4.749   0.183   3.117 -0.2786  2.3428 -0.0985
  606MOL0     H81804   4.524   0.278   3.115  1.3338  1.6940  1.5105
  606MOL0     H81805   4.486   0.195   3.276  0.1988  2.6686  0.0373
  606MOL0     H81806   4.568  -0.011   3.110  0.2977  0.1546 -1.0634
  606MOL0     H81807   4.516   0.089   2.981 -2.3389  1.9125 -0.0557
  606MOL0     H81808   4.165  -0.073   3.123  1.4214 -1.2167 -1.9100
  606MOL0     H81809   4.841   0.474   3.473  0.8490 -2.2665  0.4924
  606MOL0     H81810   5.019   0.653   3.530 -0.7689  1.2240 -0.8458
  607MOL0     O81811   9.732   1.444   0.394 -0.3433 -0.6189 -0.0153
  607MOL0     C81812   9.706   1.351   0.467 -0.0828 -0.4039 -1.2404
  607MOL0     O81813   9.698   1.359   0.597  0.0236  0.2274 -0.2925
  607MOL0     C81814   9.753   1.468   0.663 -0.6405 -0.0453  0.5351
  607MOL0     C81815   9.840   1.425   0.766  0.0629 -0.1788  0.2887
  607MOL0     C81816   9.906   1.519   0.846  0.0019  0.4653 -0.0595
  607MOL0     C81817   9.888   1.654   0.831 -0.3064  0.2690 -0.2592
  607MOL0     O81818   9.942   1.740   0.928  0.2897  0.4875 -0.1222
  607MOL0     C81819   9.884   1.868   0.948  0.0270 -0.5009 -0.4488
  607MOL0     C81820   9.874   1.897   1.100 -0.6845  0.6201 -0.3194
  607MOL0     C81821   9.847   2.053   1.118 -0.2693 -0.1605 -0.3163
  607MOL0     C81822   9.883   2.093   1.256  0.3298 -0.6720 -0.4358
  607MOL0     C81823   9.873   2.237   1.290 -0.1774 -0.2805 -0.0696
  607MOL0     C81824   9.899   2.254   1.437  0.0804 -0.4994  0.9162
  607MOL0     C81825   9.915   2.408   1.464 -0.4605 -0.4352  0.0824
  607MOL0     C81826   9.919   2.439   1.612 -0.7076  0.0840 -0.2525
  607MOL0     N81827   9.970   2.580   1.613  0.3016 -0.3222 -0.6744
  607MOL0     C81828   9.891   2.684   1.591 -0.9492  0.4393  0.6165
  607MOL0     C81829   9.975   2.790   1.600 -0.2832  0.7319  0.4973
  607MOL0     C81830   9.933   2.935   1.564  0.1638  0.0400 -0.1616
  607MOL0     C81831  10.035   3.044   1.592  0.0226  0.9132 -0.1063
  607MOL0     C81832  10.028   3.066   1.742 -0.6384  0.0511  0.4181
  607MOL0     C81833  10.102   3.195   1.788 -0.0754 -0.4172 -0.5207
  607MOL0     O81834  10.083   3.215   1.930 -0.6458 -0.3017 -0.2429
  607MOL0     C81835  10.097   3.340   1.985  0.5665  0.3269  0.5787
  607MOL0     C81836  10.095   3.355   2.124 -0.7361  0.5596  0.0947
  607MOL0     C81837  10.105   3.480   2.186  0.4986 -0.0231 -0.6498
  607MOL0     C81838  10.091   3.491   2.342  0.1283  0.5620 -0.3751
  607MOL0     C81839  10.135   3.600   2.111 -0.1149 -0.4900 -0.4094
  607MOL0     C81840  10.180   3.726   2.162 -0.7298  0.1057  0.8300
  607MOL0     O81841  10.253   3.810   2.084  0.3917  0.6898 -0.2542
  607MOL0     C81842  10.335   3.908   2.130 -0.4642  0.8368 -0.4883
  607MOL0     C81843  10.425   3.880   2.228  0.0180  0.0472 -0.3037
  607MOL0     C81844  10.520   3.975   2.272  0.6111  0.2008  0.7145
  607MOL0     C81845  10.528   4.102   2.222  1.0390 -0.3858 -0.8826
  607MOL0     O81846  10.629   4.180   2.280 -0.9885 -0.6903 -0.1253
  607MOL0     C81847  10.667   4.302   2.210  0.0847 -0.7565 -0.4134
  607MOL0     C81848  10.803   4.359   2.239  0.7475  0.8887  0.7414
  607MOL0     C81849  10.819   4.419   2.375  0.3279  0.8252 -0.2917
  607MOL0     C81850  10.930   4.527   2.378 -0.2221 -0.0673  1.1318
  607MOL0     C81851  10.972   4.577   2.516  0.1479  0.3162 -1.1075
  607MOL0     C81852  11.014   4.467   2.626 -0.5708 -0.6705  0.7538
  607MOL0     C81853  11.115   4.528   2.726 -0.1956  0.2185 -0.8304
  607MOL0     C81854  11.132   4.431   2.845  0.6381 -0.1002  0.1375
  607MOL0    Cl81855  11.196   4.528   2.984  0.3629 -0.2377 -0.3255
  607MOL0     C81856  10.442   4.127   2.110 -0.4048  1.1681 -0.1061
  607MOL0     C81857  10.340   4.035   2.069 -0.1756 -0.6296  0.3340
  607MOL0     O81858  10.160   3.743   2.280 -0.0254 -0.2631 -0.3808
  607MOL0     C81859  10.140   3.587   1.968 -0.5613  0.0269  0.0115
  607MOL0     C81860  10.107   3.461   1.908 -0.2496  0.5997  0.8739
  607MOL0     N81861  10.103   2.751   1.623 -0.0696 -0.4384 -0.1112
  607MOL0     N81862  10.097   2.628   1.639 -0.0335  0.5156  0.4681
  607MOL0     C81863   9.814   1.703   0.724 -0.3029  0.3234  0.7018
  607MOL0     C81864   9.749   1.607   0.641  0.4458  0.1418  0.2910
  607MOL0     C81865   9.707   1.216   0.399  0.5811 -0.0901 -0.3537
  607MOL0     C81866   9.609   1.190   0.293 -0.6107 -0.6223  0.2795
  607MOL0     C81867   9.628   1.074   0.223  0.3779 -0.3113 -0.5268
  607MOL0     C81868   9.729   0.975   0.251  0.3759  0.3531 -0.8329
  607MOL0     O81869   9.764   0.862   0.174 -0.1871  0.5222 -0.1582
  607MOL0     C81870   9.722   0.875   0.035 -0.7482  0.0061 -0.0079
  607MOL0     C81871   9.813   0.782  -0.055  0.0739 -0.3169  0.4692
  607MOL0     C81872   9.768   0.635  -0.031  0.0405 -0.0006  0.9588
  607MOL0     C81873   9.833   0.533  -0.118 -0.3858  0.9611  0.2713
  607MOL0     C81874   9.969   0.511  -0.059  0.2727  0.0189 -0.2230
  607MOL0     C81875  10.058   0.472   0.020 -0.1683  0.2295 -0.8687
  607MOL0     C81876   9.807   1.000   0.363  1.0498 -0.0027 -0.1607
  607MOL0     C81877   9.799   1.119   0.438 -0.0381  0.7463  0.3921
  607MOL0     H81878   9.849   1.317   0.780 -2.3719 -0.5330 -0.3521
  607MOL0     H81879   9.962   1.473   0.927 -4.5578 -1.1014  2.5531
  607MOL0     H81880   9.956   1.931   0.894 -0.4458 -1.1037 -1.8191
  607MOL0     H81881   9.782   1.889   0.918  1.0224  3.6954 -1.5900
  607MOL0     H81882   9.805   1.831   1.152  0.3935 -1.1350 -1.0184
  607MOL0     H81883   9.973   1.870   1.139 -0.4903  1.0979 -0.4649
  607MOL0     H81884   9.906   2.122   1.057  1.9815  0.2471  2.0983
  607MOL0     H81885   9.741   2.064   1.093 -0.5835 -2.3152 -0.1875
  607MOL0     H81886   9.814   2.039   1.321  1.2866 -2.2937 -0.7105
  607MOL0     H81887   9.987   2.066   1.280  0.6895  0.5847 -0.4796
  607MOL0     H81888   9.965   2.275   1.246  1.0631 -1.6775  1.1994
  607MOL0     H81889   9.785   2.296   1.262  0.1767  1.3633  2.0332
  607MOL0     H81890   9.822   2.208   1.500  0.9918 -1.6884  1.2064
  607MOL0     H81891   9.995   2.208   1.464  0.4788 -1.2446 -1.5307
  607MOL0     H81892  10.008   2.436   1.415 -0.3871 -2.7895 -1.2697
  607MOL0     H81893   9.828   2.468   1.434  2.2656  3.3588 -0.9057
  607MOL0     H81894   9.983   2.368   1.666 -2.0583 -0.4861  0.6576
  607MOL0     H81895   9.820   2.428   1.658 -0.4422  1.1627  0.6345
  607MOL0     H81896   9.783   2.687   1.578 -1.0942 -1.9193  0.8715
  607MOL0     H81897   9.918   2.942   1.456 -1.6900 -1.0569 -0.0194
  607MOL0     H81898   9.831   2.949   1.602 -0.5449 -0.8075 -1.6765
  607MOL0     H81899  10.001   3.136   1.542  0.5247 -0.2449 -2.7478
  607MOL0     H81900  10.135   3.032   1.549 -1.1469  0.0920 -2.7900
  607MOL0     H81901  10.078   2.985   1.796 -1.6598 -2.2067 -1.8101
  607MOL0     H81902   9.924   3.088   1.768 -0.9261  0.9983 -1.3730
  607MOL0     H81903  10.061   3.275   1.725  2.3855 -0.3852 -2.2364
  607MOL0     H81904  10.211   3.191   1.783  0.2539  1.8860  2.4210
  607MOL0     H81905  10.079   3.260   2.172  2.3500 -0.9230 -1.5132
  607MOL0     H81906  10.005   3.548   2.379 -0.1038 -0.4848  0.7692
  607MOL0     H81907  10.075   3.390   2.382 -0.9803  1.1611  0.7315
  607MOL0     H81908  10.183   3.531   2.385  0.3674 -2.1890  1.9798
  607MOL0     H81909  10.427   3.781   2.272 -0.8068 -0.7395 -1.9733
  607MOL0     H81910  10.588   3.957   2.355  3.3602  1.3181 -1.1520
  607MOL0     H81911  10.653   4.277   2.104  1.2897 -1.7167 -0.3752
  607MOL0     H81912  10.591   4.380   2.222 -1.7050 -2.0217 -2.7589
  607MOL0     H81913  10.883   4.286   2.224 -1.9304 -1.8765 -1.4720
  607MOL0     H81914  10.821   4.442   2.170  0.3365  1.5579  1.4274
  607MOL0     H81915  10.832   4.334   2.442 -0.4327  1.8656  1.2613
  607MOL0     H81916  10.732   4.484   2.393 -0.2809  0.6518 -2.3461
  607MOL0     H81917  11.022   4.488   2.334  0.7748 -0.0560  3.1002
  607MOL0     H81918  10.896   4.622   2.335 -0.4971 -0.6198  0.0968
  607MOL0     H81919  10.893   4.639   2.559 -0.8385 -0.8754 -1.1495
  607MOL0     H81920  11.054   4.647   2.503  0.7218 -0.2110 -0.4228
  607MOL0     H81921  10.933   4.417   2.679 -2.0270 -0.9927 -1.6394
  607MOL0     H81922  11.061   4.393   2.561  0.9720 -0.0020  1.0499
  607MOL0     H81923  11.083   4.626   2.763 -2.2964  0.7590 -3.6542
  607MOL0     H81924  11.211   4.540   2.674 -1.1898  0.1151 -2.8208
  607MOL0     H81925  11.197   4.345   2.828  2.7551  1.1039  1.6802
  607MOL0     H81926  11.032   4.392   2.870 -0.0515  2.5213  1.8577
  607MOL0     H81927  10.438   4.225   2.064 -3.8297  0.2671 -2.0833
  607MOL0     H81928  10.270   4.055   1.989  1.7156  1.3083 -0.9360
  607MOL0     H81929  10.157   3.665   1.895  5.5409 -0.6377  0.2161
  607MOL0     H81930  10.112   3.470   1.800 -0.4145 -0.0312  0.8099
  607MOL0     H81931   9.813   1.810   0.705  4.1020  0.1214 -1.8739
  607MOL0     H81932   9.694   1.647   0.556  2.3886  1.5686 -0.3656
  607MOL0     H81933   9.527   1.255   0.264  2.2342  2.0991 -2.4583
  607MOL0     H81934   9.564   1.064   0.135 -0.5843 -1.1023  0.2329
  607MOL0     H81935   9.614   0.855   0.028 -1.2393  2.5290 -0.7824
  607MOL0     H81936   9.748   0.979   0.011  1.5474 -0.3868  0.5313
  607MOL0     H81937   9.917   0.793  -0.021  0.6525 -1.6360 -0.7645
  607MOL0     H81938   9.800   0.800  -0.162  3.7153  0.4541  0.0108
  607MOL0     H81939   9.659   0.631  -0.027  0.0956 -1.9385  1.9027
  607MOL0     H81940   9.801   0.605   0.070  1.7552  0.0504  0.4495
  607MOL0     H81941   9.821   0.563  -0.223  0.3111  2.0902  0.5050
  607MOL0     H81942   9.791   0.432  -0.118  1.3711  0.1863  1.1627
  607MOL0     H81943  10.120   0.433   0.099 -0.1725 -0.1756 -1.0647
  607MOL0     H81944   9.883   0.931   0.399  2.0806  2.2733  2.4319
  607MOL0     H81945   9.867   1.152   0.516  2.0713  0.5307 -1.2650
  608MOL0     O81946  11.061  10.120   2.774 -0.1960  0.8308  0.5822
  608MOL0     C81947  11.092  10.167   2.665  0.0085 -0.1828  0.1724
  608MOL0     O81948  11.121  10.292   2.629 -0.2551  0.4388  0.6005
  608MOL0     C81949  11.144  10.385   2.722  1.2170  0.6026  0.3007
  608MOL0     C81950  11.209  10.368   2.840  0.4776  0.4110 -0.6999
  608MOL0     C81951  11.237  10.469   2.934 -0.0286 -0.5681  0.2519
  608MOL0     C81952  11.201  10.593   2.907 -0.4439 -0.2318  0.0718
  608MOL0     O81953  11.248  10.697   2.991  0.3974 -0.4217 -0.5728
  608MOL0     C81954  11.282  10.824   2.929 -0.5438  0.0157  0.7526
  608MOL0     C81955  11.348  10.926   3.026 -1.0711  0.2218 -0.5248
  608MOL0     C81956  11.381  10.872   3.169 -0.8700  0.2780 -0.4106
  608MOL0     C81957  11.490  10.966   3.225  0.1270 -0.0843  0.3741
  608MOL0     C81958  11.533  10.932   3.366 -0.4719  0.2423  0.4897
  608MOL0     C81959  11.661  10.992   3.411  0.3461 -0.2336 -0.5287
  608MOL0     C81960  11.676  11.138   3.369  0.1986 -0.9589 -0.0455
  608MOL0     C81961  11.585  11.215   3.457 -0.4953 -1.0771 -1.2457
  608MOL0     N81962  11.617  11.360   3.465  0.1758 -0.9604 -0.7762
  608MOL0     C81963  11.529  11.467   3.447  0.5191 -0.3629 -0.3425
  608MOL0     C81964  11.598  11.579   3.479  0.3004 -0.0755 -0.4496
  608MOL0     C81965  11.521  11.708   3.480  0.5564 -0.9782  0.4645
  608MOL0     C81966  11.629  11.809   3.486 -0.7678 -0.5464  0.0861
  608MOL0     C81967  11.584  11.952   3.479 -1.1546  0.1140  0.4507
  608MOL0     C81968  11.517  11.987   3.350  0.4190  0.3499 -0.4888
  608MOL0     O81969  11.373  11.981   3.368  0.3940 -0.5891  0.4257
  608MOL0     C81970  11.293  12.065   3.309  0.2444 -0.3825 -0.2228
  608MOL0     C81971  11.329  12.158   3.219  0.7570 -0.2702  1.2726
  608MOL0     C81972  11.248  12.255   3.160 -0.3982  0.0583 -0.0781
  608MOL0     C81973  11.298  12.362   3.068  0.2724  0.7931 -0.9527
  608MOL0     C81974  11.111  12.244   3.196 -0.1819 -0.8731  0.3934
  608MOL0     C81975  11.011  12.336   3.145  0.6158 -0.0882  0.2172
  608MOL0     O81976  10.926  12.383   3.246 -0.6002 -0.0875 -0.3524
  608MOL0     C81977  10.879  12.504   3.225 -0.4520 -0.3520 -0.3001
  608MOL0     C81978  10.754  12.513   3.175 -0.6619 -0.4461 -0.1030
  608MOL0     C81979  10.692  12.640   3.180 -0.0808 -0.3526  0.4169
  608MOL0     C81980  10.770  12.752   3.191  0.0969 -0.6237 -0.0680
  608MOL0     O81981  10.720  12.880   3.169  0.3623  0.1249  0.3356
  608MOL0     C81982  10.581  12.913   3.135  1.1051  0.5405 -0.0791
  608MOL0     C81983  10.497  12.901   3.261  0.3307 -0.0174  0.2372
  608MOL0     C81984  10.345  12.910   3.242  0.1608  0.6864  0.4025
  608MOL0     C81985  10.266  13.043   3.246 -0.2710 -0.3299  0.0674
  608MOL0     C81986  10.110  13.028   3.237 -0.5689 -0.1849 -0.2216
  608MOL0     C81987  10.040  13.161   3.258  0.2558 -0.1726 -0.3291
  608MOL0     C81988   9.887  13.156   3.269 -0.4341 -0.2901  0.5949
  608MOL0     C81989   9.832  13.118   3.411  0.2639 -0.0730  0.1043
  608MOL0    Cl81990   9.652  13.114   3.432 -0.7069  0.1967 -0.1308
  608MOL0     C81991  10.905  12.737   3.237  0.4633  0.0519  0.1122
  608MOL0     C81992  10.954  12.611   3.261 -0.2291 -0.1693 -0.6633
  608MOL0     O81993  11.016  12.384   3.037  0.1881 -0.3909  0.3575
  608MOL0     C81994  11.069  12.139   3.271 -0.3738 -0.0688 -0.5633
  608MOL0     C81995  11.162  12.056   3.340  1.0837  0.6359 -0.1030
  608MOL0     N81996  11.716  11.538   3.536 -0.5885  1.1126  0.3201
  608MOL0     N81997  11.732  11.409   3.515 -0.3736 -0.2924  0.7783
  608MOL0     C81998  11.123  10.619   2.790 -0.9095 -0.6299 -0.3657
  608MOL0     C81999  11.097  10.518   2.696 -0.5833  0.5173  0.5608
  608MOL0     C82000  11.100  10.067   2.554  0.5716 -0.1451 -0.0413
  608MOL0     C82001  11.084  10.113   2.421  0.5364  0.8668  0.7975
  608MOL0     C82002  11.084  10.020   2.323  1.0535 -0.2580  0.7107
  608MOL0     C82003  11.114   9.885   2.348 -0.2217  0.6459  0.4375
  608MOL0     O82004  11.113   9.783   2.256 -0.2067  0.5441 -0.2203
  608MOL0     C82005  11.105   9.818   2.119 -0.2032 -0.0751  0.2985
  608MOL0     C82006  11.112   9.694   2.032  0.1107 -0.2419  0.4472
  608MOL0     C82007  11.246   9.630   2.027 -0.8520 -0.4964 -0.8174
  608MOL0     C82008  11.240   9.502   1.948 -0.1558 -0.2442  0.1681
  608MOL0     C82009  11.371   9.434   1.942 -0.0097 -0.2375 -0.0373
  608MOL0     C82010  11.489   9.396   1.925 -0.1466 -0.5113 -0.1276
  608MOL0     C82011  11.154   9.853   2.469  0.5690  0.2201 -0.4168
  608MOL0     C82012  11.144   9.938   2.575 -0.2870 -0.2567  0.6569
  608MOL0     H82013  11.246  10.268   2.860 -1.2619 -0.1220 -0.0093
  608MOL0     H82014  11.280  10.446   3.031  3.8681 -0.5322 -1.2938
  608MOL0     H82015  11.351  10.819   2.845  0.6767 -1.3739  1.7913
  608MOL0     H82016  11.187  10.870   2.899 -2.5119 -1.9989  3.4349
  608MOL0     H82017  11.439  10.963   2.977 -1.2580  3.1039  1.0994
  608MOL0     H82018  11.294  11.020   3.039 -1.5791 -0.2727  1.1124
  608MOL0     H82019  11.296  10.861   3.238 -0.6975 -0.3569 -0.2948
  608MOL0     H82020  11.423  10.773   3.151  1.1458  0.5659  2.0747
  608MOL0     H82021  11.582  10.962   3.165 -2.1160  1.0989 -3.5350
  608MOL0     H82022  11.456  11.069   3.211 -3.1159 -1.0009  0.7566
  608MOL0     H82023  11.454  10.948   3.441  0.2949  3.5870  0.7333
  608MOL0     H82024  11.559  10.826   3.361  0.7654  0.4267  2.1480
  608MOL0     H82025  11.674  10.982   3.519 -2.0125  1.4137  0.0041
  608MOL0     H82026  11.743  10.936   3.366 -0.7796 -0.4946 -2.4013
  608MOL0     H82027  11.780  11.170   3.382 -0.1478 -0.3779  1.4632
  608MOL0     H82028  11.655  11.150   3.262 -0.3516  1.1962  0.2494
  608MOL0     H82029  11.590  11.191   3.564 -1.7416  0.5673 -0.7617
  608MOL0     H82030  11.483  11.195   3.421 -2.1073  2.6285  0.6754
  608MOL0     H82031  11.424  11.463   3.419  0.5313  0.8098 -0.5783
  608MOL0     H82032  11.463  11.718   3.388 -0.2793 -3.4378  0.6383
  608MOL0     H82033  11.452  11.718   3.565 -0.6824 -0.1244 -0.6077
  608MOL0     H82034  11.705  11.793   3.409 -3.8383 -2.5669 -2.7885
  608MOL0     H82035  11.679  11.798   3.583 -0.9254  1.1283  0.3944
  608MOL0     H82036  11.673  12.012   3.498 -0.1760 -1.1350 -0.0919
  608MOL0     H82037  11.518  11.976   3.563  0.2529  2.1245  1.0398
  608MOL0     H82038  11.542  11.914   3.273 -0.3618 -1.1582  0.6500
  608MOL0     H82039  11.543  12.087   3.313  0.7589  0.3080 -0.3621
  608MOL0     H82040  11.432  12.150   3.186  0.5945 -0.0910  0.7251
  608MOL0     H82041  11.270  12.352   2.962  3.2524 -1.3745 -1.6669
  608MOL0     H82042  11.278  12.463   3.104  1.1343 -0.4908  3.7762
  608MOL0     H82043  11.407  12.358   3.065  0.3240 -1.0190  1.1908
  608MOL0     H82044  10.696  12.425   3.152 -2.8809  1.2114 -1.2287
  608MOL0     H82045  10.583  12.641   3.176 -0.1013 -2.0600 -0.4299
  608MOL0     H82046  10.569  13.010   3.088  3.0402 -0.0249 -1.8966
  608MOL0     H82047  10.534  12.844   3.064  0.5893 -0.5008  1.2098
  608MOL0     H82048  10.519  12.801   3.299  1.1470 -0.2207 -0.7073
  608MOL0     H82049  10.529  12.974   3.336  2.0832 -1.2055  0.7124
  608MOL0     H82050  10.292  12.843   3.310 -3.4126  3.0895  0.2701
  608MOL0     H82051  10.324  12.864   3.145  1.6393 -0.0882  0.4340
  608MOL0     H82052  10.296  13.104   3.332  2.9531 -1.4785 -0.1234
  608MOL0     H82053  10.292  13.108   3.161 -3.4846  0.4605 -0.4650
  608MOL0     H82054  10.075  12.953   3.308 -1.3388 -1.8744 -2.2824
  608MOL0     H82055  10.088  12.992   3.136 -1.5123  1.7829 -0.7672
  608MOL0     H82056  10.079  13.214   3.345 -0.9226 -0.7469  0.5820
  608MOL0     H82057  10.048  13.229   3.172 -0.5361 -1.1244 -1.1881
  608MOL0     H82058   9.842  13.089   3.195 -0.5166  2.9033 -2.5129
  608MOL0     H82059   9.865  13.262   3.252  1.2909 -0.1024 -0.7507
  608MOL0     H82060   9.863  13.190   3.487 -1.2966 -0.6616  1.3535
  608MOL0     H82061   9.876  13.021   3.439 -0.0861 -0.5645 -0.9935
  608MOL0     H82062  10.952  12.825   3.281 -0.0949 -1.2794  3.6838
  608MOL0     H82063  11.049  12.599   3.313 -1.4173 -0.7702  1.4868
  608MOL0     H82064  10.963  12.118   3.286 -0.3964  1.0362  1.0264
  608MOL0     H82065  11.120  11.971   3.393  2.8712 -0.1047  0.1710
  608MOL0     H82066  11.085  10.718   2.767 -2.2969 -0.0055  3.7019
  608MOL0     H82067  11.051  10.525   2.598 -0.9162  1.2130  0.7597
  608MOL0     H82068  11.063  10.213   2.384 -0.9757  0.3432  0.1723
  608MOL0     H82069  11.052  10.035   2.220 -1.0151 -2.5405  0.9138
  608MOL0     H82070  11.017   9.878   2.093  1.7466  3.4213  1.1409
  608MOL0     H82071  11.188   9.878   2.083 -0.1662 -0.3823 -0.1429
  608MOL0     H82072  11.086   9.730   1.932 -0.8874  4.0862  2.0704
  608MOL0     H82073  11.032   9.624   2.058 -0.7726  0.4647 -0.2678
  608MOL0     H82074  11.285   9.595   2.123  0.2018 -0.1661 -1.1192
  608MOL0     H82075  11.311   9.698   1.971 -3.1366  3.2456  0.7223
  608MOL0     H82076  11.179   9.516   1.858 -0.8032  0.0785  0.6541
  608MOL0     H82077  11.178   9.428   1.999  2.7398 -2.7653  0.3217
  608MOL0     H82078  11.591   9.371   1.903  0.0629  0.0235  0.2073
  608MOL0     H82079  11.208   9.761   2.493 -0.3855  0.6745  4.7011
  608MOL0     H82080  11.189   9.895   2.663  0.3820 -0.8571  0.0336
  609MOL0     O82081   1.228   2.180   5.131 -0.3059 -0.7156  0.4737
  609MOL0     C82082   1.321   2.247   5.183  0.8664  0.7346  0.3273
  609MOL0     O82083   1.383   2.360   5.124  0.5795  0.0783 -0.0457
  609MOL0     C82084   1.343   2.406   4.995  0.2324 -0.3275  0.3132
  609MOL0     C82085   1.369   2.533   4.970  0.7966  0.8422  0.9121
  609MOL0     C82086   1.335   2.598   4.853  0.6744  0.0717  0.5742
  609MOL0     C82087   1.276   2.528   4.744 -0.1959 -0.6880  0.9240
  609MOL0     O82088   1.234   2.594   4.630 -0.4877  0.2167 -0.4795
  609MOL0     C82089   1.312   2.556   4.514 -0.3108 -0.1197 -0.7083
  609MOL0     C82090   1.339   2.679   4.420  0.1208  0.7383 -0.5576
  609MOL0     C82091   1.426   2.787   4.483 -0.0757 -0.3639 -1.3907
  609MOL0     C82092   1.437   2.913   4.398 -0.1448  0.5534 -0.5833
  609MOL0     C82093   1.492   3.038   4.471 -1.1202  1.2847  0.1866
  609MOL0     C82094   1.388   3.126   4.531  0.8478 -0.1862  0.3665
  609MOL0     C82095   1.309   3.045   4.642 -0.2015 -0.1954  0.7244
  609MOL0     C82096   1.234   3.137   4.742 -0.9551 -0.5647  0.8033
  609MOL0     N82097   1.110   3.178   4.689  0.3936  0.0961 -1.2134
  609MOL0     C82098   1.077   3.293   4.611  0.1147 -0.0672 -1.1077
  609MOL0     C82099   0.945   3.300   4.613  1.1647  0.7662 -0.7475
  609MOL0     C82100   0.863   3.403   4.546  0.0745 -1.2175  0.5321
  609MOL0     C82101   0.932   3.534   4.524 -0.2172 -0.2059  0.7905
  609MOL0     C82102   0.829   3.638   4.486  0.2156  1.3176  0.0810
  609MOL0     C82103   0.871   3.754   4.390  0.5278 -0.8373  0.1397
  609MOL0     O82104   0.841   3.730   4.249 -1.2566  0.1825  0.1645
  609MOL0     C82105   0.762   3.819   4.179 -0.1134  0.3465 -0.0125
  609MOL0     C82106   0.759   3.815   4.042 -0.1496 -1.0959  0.1020
  609MOL0     C82107   0.701   3.917   3.958 -0.0346  0.6332  0.6108
  609MOL0     C82108   0.714   3.899   3.808  0.5147  0.9804  1.6432
  609MOL0     C82109   0.648   4.033   4.021  0.2362 -0.3650  0.0334
  609MOL0     C82110   0.595   4.156   3.951 -0.3659 -0.0758  0.5437
  609MOL0     O82111   0.557   4.260   4.035  0.9159  0.1396  0.1710
  609MOL0     C82112   0.503   4.379   3.992 -0.4392 -0.6349 -0.0421
  609MOL0     C82113   0.536   4.489   4.082  0.1057  0.4487 -1.3157
  609MOL0     C82114   0.490   4.614   4.052  0.5199  0.8950  0.1701
  609MOL0     C82115   0.399   4.634   3.944 -0.1629  0.0096  0.5647
  609MOL0     O82116   0.356   4.760   3.905 -0.1115 -0.1734  0.0019
  609MOL0     C82117   0.295   4.852   4.005  0.2475 -0.1960  0.4394
  609MOL0     C82118   0.153   4.811   4.051  0.1256 -0.0395 -0.5461
  609MOL0     C82119   0.111   4.911   4.164  0.0986  0.3729  0.0899
  609MOL0     C82120  -0.033   4.897   4.200  0.2545 -1.1960  0.2991
  609MOL0     C82121  -0.048   4.944   4.343  0.3464  0.2027 -0.8384
  609MOL0     C82122  -0.186   5.000   4.352  0.3144  0.4493  0.3679
  609MOL0     C82123  -0.291   4.883   4.341  1.0161  0.5909  1.2142
  609MOL0     C82124  -0.426   4.925   4.384 -0.4976  0.6896  0.0846
  609MOL0    Cl82125  -0.495   5.045   4.282 -0.1849  0.0853  0.2993
  609MOL0     C82126   0.359   4.529   3.855 -0.8988 -0.0917  0.3934
  609MOL0     C82127   0.407   4.404   3.886  0.0981 -0.6172 -0.7115
  609MOL0     O82128   0.581   4.151   3.826 -0.1886  0.3195 -0.2717
  609MOL0     C82129   0.640   4.032   4.157  0.4187  0.1436 -0.0613
  609MOL0     C82130   0.694   3.924   4.231 -0.2961 -0.5906 -0.1761
  609MOL0     N82131   0.898   3.185   4.682  1.0401  0.2745 -0.2898
  609MOL0     N82132   0.994   3.111   4.717  0.9090 -1.5719  0.3694
  609MOL0     C82133   1.246   2.391   4.775 -0.1282  1.2440  0.2325
  609MOL0     C82134   1.280   2.331   4.896  0.9394 -0.6337  0.0968
  609MOL0     C82135   1.389   2.201   5.310  0.0568  1.4129 -1.0693
  609MOL0     C82136   1.474   2.279   5.379  1.1700 -0.0787 -0.6633
  609MOL0     C82137   1.532   2.244   5.503 -0.2027  0.5641  0.6205
  609MOL0     C82138   1.517   2.114   5.549  0.2583 -0.2245  0.3701
  609MOL0     O82139   1.564   2.066   5.667  0.0698 -0.2311  0.3878
  609MOL0     C82140   1.611   2.166   5.761 -0.1178  1.3464 -0.4794
  609MOL0     C82141   1.604   2.098   5.898 -0.1085 -0.1041  0.6261
  609MOL0     C82142   1.466   2.038   5.934 -0.5996  0.8341  0.7350
  609MOL0     C82143   1.356   2.141   5.952 -0.4496  0.6195  0.8997
  609MOL0     C82144   1.388   2.237   6.061  0.1785 -0.5650  0.4001
  609MOL0     C82145   1.413   2.329   6.143  0.8569  0.5897 -0.4124
  609MOL0     C82146   1.434   2.027   5.468  0.9842  0.1636  0.3045
  609MOL0     C82147   1.367   2.070   5.357 -0.0493  0.0952 -0.0438
  609MOL0     H82148   1.412   2.589   5.052  0.3194  0.4613  1.4283
  609MOL0     H82149   1.364   2.701   4.835  0.0886  0.6471  2.6519
  609MOL0     H82150   1.409   2.523   4.552 -1.8304 -1.2056  2.6186
  609MOL0     H82151   1.251   2.483   4.461 -2.4523 -0.8233  2.4568
  609MOL0     H82152   1.387   2.647   4.327  1.1288 -1.0322  0.5148
  609MOL0     H82153   1.238   2.718   4.402 -2.0879 -1.7508  4.4158
  609MOL0     H82154   1.380   2.806   4.581  0.8038 -2.5869 -0.4993
  609MOL0     H82155   1.529   2.752   4.499 -0.3895 -1.3138 -1.3996
  609MOL0     H82156   1.495   2.891   4.308 -1.4469  1.1397 -1.6092
  609MOL0     H82157   1.342   2.949   4.356 -2.0037 -3.0514  0.1483
  609MOL0     H82158   1.570   3.011   4.542  0.1660  0.5128 -1.4639
  609MOL0     H82159   1.543   3.104   4.400 -4.3096  4.0069  0.1577
  609MOL0     H82160   1.434   3.215   4.573 -0.5651  1.7093 -1.8714
  609MOL0     H82161   1.316   3.165   4.459  1.5588  0.6386  0.0920
  609MOL0     H82162   1.240   2.967   4.610  0.6296 -1.6092  2.2440
  609MOL0     H82163   1.378   2.985   4.702  1.3589  1.9118  1.1489
  609MOL0     H82164   1.292   3.227   4.764 -2.0294 -0.2417  2.5626
  609MOL0     H82165   1.222   3.086   4.838  0.7154 -0.1163  1.2796
  609MOL0     H82166   1.145   3.369   4.574  0.8626 -0.0928  0.1227
  609MOL0     H82167   0.837   3.368   4.446  0.4031 -0.2453  0.0840
  609MOL0     H82168   0.772   3.408   4.607  0.6429 -3.7570  1.6685
  609MOL0     H82169   1.004   3.522   4.441 -1.1912  0.9292 -0.2585
  609MOL0     H82170   0.990   3.563   4.612 -1.3180 -1.4779  1.9847
  609MOL0     H82171   0.784   3.681   4.576  2.2236  0.8173  1.3898
  609MOL0     H82172   0.750   3.585   4.432  2.6100 -0.7532 -1.6376
  609MOL0     H82173   0.979   3.773   4.394  0.1065  1.7862  0.5725
  609MOL0     H82174   0.824   3.848   4.421 -0.4153 -0.9743 -0.8127
  609MOL0     H82175   0.812   3.731   3.998  0.0883 -1.1128  0.4160
  609MOL0     H82176   0.744   3.992   3.757  2.7502 -0.1152  0.8172
  609MOL0     H82177   0.792   3.828   3.779  3.1481  3.8952  0.9376
  609MOL0     H82178   0.612   3.874   3.779  1.4896 -2.3311  0.5684
  609MOL0     H82179   0.615   4.477   4.154 -2.4272 -0.6097  1.4970
  609MOL0     H82180   0.509   4.706   4.108  0.9833  1.9023 -1.5523
  609MOL0     H82181   0.364   4.868   4.089  1.1136 -0.1107 -0.2731
  609MOL0     H82182   0.298   4.953   3.964  0.7829 -0.2484  0.3424
  609MOL0     H82183   0.090   4.801   3.962 -0.5031 -3.2351  0.1610
  609MOL0     H82184   0.155   4.710   4.092  1.1278 -0.5633 -1.8135
  609MOL0     H82185   0.142   5.010   4.128 -1.3467  1.1314  0.8593
  609MOL0     H82186   0.171   4.886   4.253  0.5272  0.8802 -0.0492
  609MOL0     H82187  -0.090   4.958   4.129  3.4445 -1.3293 -2.6736
  609MOL0     H82188  -0.064   4.794   4.183 -2.3905 -0.6364  1.3562
  609MOL0     H82189   0.014   5.032   4.361  0.5943 -0.0451 -0.4570
  609MOL0     H82190  -0.028   4.872   4.423 -2.7844  1.3390  1.1322
  609MOL0     H82191  -0.192   5.042   4.452  1.2606  2.6360 -0.4251
  609MOL0     H82192  -0.213   5.077   4.278 -4.9838  0.2934  1.6799
  609MOL0     H82193  -0.256   4.799   4.401 -3.6257 -1.5420  1.3453
  609MOL0     H82194  -0.292   4.832   4.245  3.1462  1.3162  0.7703
  609MOL0     H82195  -0.424   4.951   4.491 -0.6518 -2.2965  0.8857
  609MOL0     H82196  -0.494   4.840   4.389  1.4467 -1.1768 -2.6390
  609MOL0     H82197   0.293   4.536   3.769 -1.9139 -2.8782  0.8497
  609MOL0     H82198   0.366   4.323   3.827 -0.2298 -3.2618  2.8388
  609MOL0     H82199   0.588   4.105   4.218 -1.3383 -2.2614  1.5002
  609MOL0     H82200   0.675   3.944   4.337 -2.8374 -1.7391 -0.3259
  609MOL0     H82201   1.192   2.346   4.692 -1.3901  0.2469  1.5515
  609MOL0     H82202   1.253   2.226   4.908  0.3095 -0.7726 -2.1243
  609MOL0     H82203   1.487   2.380   5.342  2.0116 -0.2027 -0.7249
  609MOL0     H82204   1.585   2.324   5.555 -2.4097  0.8452  2.5838
  609MOL0     H82205   1.718   2.189   5.752  1.4064 -4.4302 -1.8039
  609MOL0     H82206   1.545   2.252   5.752 -0.1829  1.2745 -0.7090
  609MOL0     H82207   1.633   2.165   5.979 -1.5579  0.3543  0.7960
  609MOL0     H82208   1.674   2.014   5.892  0.5185  0.5092 -2.2426
  609MOL0     H82209   1.475   1.979   6.025  0.0542  3.3905  2.4178
  609MOL0     H82210   1.442   1.962   5.859 -0.6604  0.4807  1.1113
  609MOL0     H82211   1.260   2.096   5.977 -1.8174  2.5055 -0.6867
  609MOL0     H82212   1.335   2.196   5.860  0.7919  1.8467  1.3178
  609MOL0     H82213   1.453   2.395   6.217 -2.6586 -0.2891  2.5526
  609MOL0     H82214   1.424   1.923   5.498 -1.2506 -0.2084 -1.4800
  609MOL0     H82215   1.299   2.005   5.304  0.4375  1.5008 -2.5337
  610MOL0     O82216   6.871   3.651  11.418  0.0873 -0.4770 -0.5946
  610MOL0     C82217   6.805   3.630  11.321 -0.4373  0.0724 -0.4099
  610MOL0     O82218   6.851   3.620  11.190  0.4298 -0.3467 -0.6357
  610MOL0     C82219   6.988   3.625  11.167 -0.3857 -0.0844 -0.3984
  610MOL0     C82220   7.033   3.732  11.091  0.4077 -0.0402  0.6731
  610MOL0     C82221   7.167   3.759  11.065 -1.2608 -0.0251 -0.2953
  610MOL0     C82222   7.262   3.669  11.107  0.9518  0.8509 -0.3315
  610MOL0     O82223   7.391   3.701  11.099 -0.7484 -0.2703 -0.1430
  610MOL0     C82224   7.423   3.821  11.170  0.5331 -0.6925  0.0665
  610MOL0     C82225   7.471   3.796  11.319  0.3330 -0.4260  0.3675
  610MOL0     C82226   7.541   3.659  11.345  0.4681 -0.7440  0.1477
  610MOL0     C82227   7.682   3.641  11.289  0.0371 -0.3330  0.5125
  610MOL0     C82228   7.762   3.530  11.359 -0.2171  0.0100  0.2491
  610MOL0     C82229   7.801   3.599  11.497  0.9207 -0.1501 -0.6122
  610MOL0     C82230   7.892   3.512  11.569  0.8034 -0.5487 -0.5160
  610MOL0     C82231   7.889   3.530  11.724 -0.0916  0.5799  0.1717
  610MOL0     N82232   7.989   3.444  11.798 -0.2935  0.0252  0.5198
  610MOL0     C82233   7.975   3.311  11.799  0.7885 -0.0386  0.4378
  610MOL0     C82234   8.070   3.269  11.890  0.6995  0.2032  0.0636
  610MOL0     C82235   8.078   3.130  11.947  0.4989 -0.0188 -0.1690
  610MOL0     C82236   8.206   3.058  11.910 -0.3974  0.2634  0.2324
  610MOL0     C82237   8.316   3.067  12.006 -0.2109 -0.5208  0.0516
  610MOL0     C82238   8.452   3.016  11.971  0.2352 -0.2999  0.8855
  610MOL0     O82239   8.571   3.075  12.033 -0.0260 -0.2363  0.6354
  610MOL0     C82240   8.610   3.200  11.976 -0.5004  0.1544  0.3836
  610MOL0     C82241   8.732   3.252  12.029  0.8749  0.5548 -0.6226
  610MOL0     C82242   8.773   3.375  11.992 -1.3079  0.4835 -0.4415
  610MOL0     C82243   8.900   3.427  12.057  0.5249  0.0417 -0.9434
  610MOL0     C82244   8.706   3.451  11.899 -0.5809 -0.0710 -1.3070
  610MOL0     C82245   8.737   3.593  11.858 -0.3665  0.8837  0.7348
  610MOL0     O82246   8.668   3.640  11.752 -0.0762 -0.3671  0.7395
  610MOL0     C82247   8.708   3.764  11.710  0.1208  0.8817  0.3607
  610MOL0     C82248   8.627   3.865  11.740 -0.1711  1.1174  0.8482
  610MOL0     C82249   8.655   3.993  11.700 -0.0138 -0.3722  0.0687
  610MOL0     C82250   8.774   4.023  11.626  0.3113  0.2734  0.6052
  610MOL0     O82251   8.799   4.149  11.581  0.4390  0.3616  0.3197
  610MOL0     C82252   8.797   4.169  11.432 -0.8971 -0.0754 -0.1863
  610MOL0     C82253   8.707   4.287  11.397 -0.1873  0.7754 -0.3693
  610MOL0     C82254   8.568   4.261  11.441  0.6761  0.6156  0.5858
  610MOL0     C82255   8.474   4.367  11.408  0.4541  0.0174  0.0576
  610MOL0     C82256   8.339   4.328  11.485 -0.3447 -0.0094  0.5400
  610MOL0     C82257   8.225   4.411  11.422  0.3046  0.3134 -0.2455
  610MOL0     C82258   8.224   4.558  11.446  0.3033 -0.1174  0.3263
  610MOL0     C82259   8.180   4.585  11.594 -0.1131  0.3030 -0.4444
  610MOL0    Cl82260   8.152   4.760  11.602  0.5427 -0.1541 -0.4054
  610MOL0     C82261   8.852   3.916  11.588  0.8120 -1.1867 -0.1324
  610MOL0     C82262   8.828   3.788  11.634 -0.5090 -0.2665 -0.8534
  610MOL0     O82263   8.830   3.651  11.909 -0.0235 -0.0632 -0.5949
  610MOL0     C82264   8.588   3.399  11.853  0.0324  0.0147  0.0072
  610MOL0     C82265   8.542   3.276  11.889  0.6923  0.1134  0.1112
  610MOL0     N82266   8.159   3.376  11.911  0.3677 -0.3189  0.6714
  610MOL0     N82267   8.100   3.477  11.856 -0.3575  0.0251 -0.2753
  610MOL0     C82268   7.217   3.554  11.176  0.1544  0.5900  0.2969
  610MOL0     C82269   7.086   3.547  11.213 -1.2088  0.1220 -0.1976
  610MOL0     C82270   6.657   3.601  11.329 -1.1401 -0.6091 -0.1699
  610MOL0     C82271   6.590   3.668  11.432  0.1356 -0.8173  0.4264
  610MOL0     C82272   6.449   3.640  11.446 -0.0179 -1.3763 -0.1402
  610MOL0     C82273   6.376   3.564  11.353 -0.2660 -0.1636  0.1905
  610MOL0     O82274   6.242   3.533  11.353 -0.2294  0.2025  0.7350
  610MOL0     C82275   6.169   3.608  11.451 -0.4521 -0.2255  0.0724
  610MOL0     C82276   6.029   3.578  11.441 -0.3242 -0.3487 -0.1795
  610MOL0     C82277   5.973   3.579  11.295 -0.3652 -0.2977  0.1476
  610MOL0     C82278   5.822   3.581  11.288 -0.0696 -0.3431  0.2514
  610MOL0     C82279   5.775   3.582  11.145  0.5721 -0.9337  0.1817
  610MOL0     C82280   5.762   3.567  11.018  0.1703 -0.4549  0.6139
  610MOL0     C82281   6.450   3.516  11.241  0.9217  0.8753 -0.5127
  610MOL0     C82282   6.588   3.524  11.237  0.1852 -0.0877  0.6030
  610MOL0     H82283   6.971   3.811  11.052  1.0710 -0.2096 -0.8277
  610MOL0     H82284   7.200   3.846  11.008 -0.7833 -0.9882 -1.5465
  610MOL0     H82285   7.500   3.875  11.114  0.8723 -1.0481  0.1811
  610MOL0     H82286   7.337   3.888  11.174 -0.3679 -1.7904 -0.2965
  610MOL0     H82287   7.528   3.884  11.349 -2.8986  1.3798  1.7241
  610MOL0     H82288   7.376   3.799  11.372  1.1321  2.3776  1.8351
  610MOL0     H82289   7.539   3.640  11.453 -0.9520 -1.8956 -0.0499
  610MOL0     H82290   7.485   3.576  11.301 -0.7395  0.2153 -0.1771
  610MOL0     H82291   7.678   3.606  11.186 -3.3331  0.1996  0.3530
  610MOL0     H82292   7.738   3.735  11.289 -1.5902  0.6739  0.1209
  610MOL0     H82293   7.700   3.441  11.365 -0.4504  0.2110  0.9843
  610MOL0     H82294   7.851   3.503  11.302 -0.2657  0.1713  0.0941
  610MOL0     H82295   7.842   3.700  11.483 -0.6475  0.4188 -1.2766
  610MOL0     H82296   7.710   3.610  11.557  0.7526  0.7652 -1.0195
  610MOL0     H82297   7.874   3.405  11.552  0.7815 -0.6646  0.1832
  610MOL0     H82298   7.995   3.529  11.535  0.3201  1.4014 -1.0859
  610MOL0     H82299   7.789   3.506  11.761 -0.4668  1.6117 -0.1364
  610MOL0     H82300   7.909   3.635  11.749  0.3833  0.6715 -0.5476
  610MOL0     H82301   7.905   3.254  11.739  1.6645 -1.3036  0.5906
  610MOL0     H82302   8.053   3.132  12.054 -5.0726 -1.0286 -1.1109
  610MOL0     H82303   7.990   3.084  11.901  1.0861 -0.6469 -0.6876
  610MOL0     H82304   8.233   3.081  11.807 -2.8228  2.5942  0.0271
  610MOL0     H82305   8.181   2.952  11.922  1.3924 -0.5466 -2.3527
  610MOL0     H82306   8.283   3.016  12.097 -1.0345  0.0219  0.0634
  610MOL0     H82307   8.329   3.175  12.016  1.2907 -0.5123 -1.5450
  610MOL0     H82308   8.461   3.026  11.862  1.2601  3.6900  1.1857
  610MOL0     H82309   8.456   2.908  11.988 -3.1067 -0.5607  0.7565
  610MOL0     H82310   8.779   3.190  12.104  0.5342 -1.5458 -2.0595
  610MOL0     H82311   8.971   3.463  11.982  0.8237  3.1280  0.6249
  610MOL0     H82312   8.889   3.513  12.124  0.4296  0.8817 -2.0162
  610MOL0     H82313   8.946   3.347  12.116  0.5660  1.4831  1.1132
  610MOL0     H82314   8.533   3.840  11.789 -0.1367  1.3696  1.0470
  610MOL0     H82315   8.592   4.073  11.738 -1.8564 -0.6816 -2.1321
  610MOL0     H82316   8.899   4.174  11.394 -0.5248 -0.1523  0.7773
  610MOL0     H82317   8.763   4.075  11.386 -0.6776 -1.4205  2.2494
  610MOL0     H82318   8.734   4.371  11.461 -2.6655  0.0661  1.7933
  610MOL0     H82319   8.707   4.307  11.289 -0.6574 -1.2809 -0.8029
  610MOL0     H82320   8.559   4.241  11.548 -1.7453  0.8559  0.4788
  610MOL0     H82321   8.539   4.168  11.390  3.0758 -0.8837  1.7648
  610MOL0     H82322   8.519   4.451  11.461 -0.0954 -1.6505  3.4499
  610MOL0     H82323   8.469   4.367  11.298  2.5516 -1.6802 -0.1000
  610MOL0     H82324   8.343   4.337  11.594 -0.2001 -1.5437  0.6787
  610MOL0     H82325   8.326   4.220  11.470 -1.6832  0.3220 -0.9527
  610MOL0     H82326   8.232   4.384  11.316  0.7165 -1.5874  0.2301
  610MOL0     H82327   8.127   4.369  11.448  1.2619 -3.2305 -1.7233
  610MOL0     H82328   8.152   4.597  11.373  0.1793 -2.9339 -1.2140
  610MOL0     H82329   8.325   4.596  11.428 -0.3338  0.0386 -4.1506
  610MOL0     H82330   8.274   4.561  11.645  0.5942 -0.6206 -2.0636
  610MOL0     H82331   8.089   4.538  11.631 -1.7373  3.5107  0.0259
  610MOL0     H82332   8.947   3.935  11.540  0.9953  0.1457  0.6885
  610MOL0     H82333   8.910   3.719  11.615  0.7921  0.8710  0.4486
  610MOL0     H82334   8.523   3.456  11.787 -0.0095  0.5153  0.4770
  610MOL0     H82335   8.441   3.248  11.863 -0.3971  2.7388  1.1782
  610MOL0     H82336   7.281   3.484  11.230 -0.3048  1.6296  2.2905
  610MOL0     H82337   7.071   3.459  11.275  0.4372 -1.0780 -1.4342
  610MOL0     H82338   6.630   3.719  11.519 -2.9228 -0.5170  1.7598
  610MOL0     H82339   6.398   3.678  11.533  0.7730  2.6998 -1.2371
  610MOL0     H82340   6.196   3.567  11.549 -3.1331 -1.4308  0.4257
  610MOL0     H82341   6.188   3.715  11.439 -0.7239 -0.1994 -0.1294
  610MOL0     H82342   5.989   3.650  11.513  1.9120  0.3941  0.4149
  610MOL0     H82343   6.012   3.482  11.490  1.1179 -0.1037  0.8718
  610MOL0     H82344   6.026   3.507  11.231 -0.9889  0.3893 -1.1676
  610MOL0     H82345   6.008   3.673  11.251  2.1173 -1.2984 -0.2098
  610MOL0     H82346   5.776   3.671  11.331  1.4472 -0.1377  1.5387
  610MOL0     H82347   5.781   3.497  11.345  0.5287  1.3741  3.4570
  610MOL0     H82348   5.759   3.559  10.911  1.9314 -1.8362  0.6176
  610MOL0     H82349   6.397   3.457  11.167 -1.6277 -2.6424  3.6822
  610MOL0     H82350   6.642   3.476  11.156 -0.1517  3.5457 -2.0656
  611MOL0     O82351   4.612   1.421   4.104 -0.4154  0.3986  0.6382
  611MOL0     C82352   4.552   1.326   4.051  0.7172  0.8182 -0.2026
  611MOL0     O82353   4.454   1.337   3.957 -0.1817 -0.8599  0.6460
  611MOL0     C82354   4.415   1.472   3.932  0.3151  0.5175  0.5033
  611MOL0     C82355   4.338   1.539   4.028 -0.5575  0.5507 -0.4414
  611MOL0     C82356   4.296   1.674   4.012  0.6725  0.2583  0.2601
  611MOL0     C82357   4.295   1.732   3.887 -0.1898 -0.2663  0.7122
  611MOL0     O82358   4.243   1.860   3.853 -0.4790  0.1230 -0.0605
  611MOL0     C82359   4.119   1.866   3.771  0.4657  0.4591 -0.5903
  611MOL0     C82360   4.061   2.008   3.743 -0.3115 -0.2354  0.9701
  611MOL0     C82361   4.142   2.087   3.630 -0.4676 -1.2069  0.4806
  611MOL0     C82362   4.093   2.236   3.620 -0.3031 -0.0058  0.7117
  611MOL0     C82363   4.165   2.298   3.496  0.0348 -0.3362 -0.1367
  611MOL0     C82364   4.140   2.451   3.477  0.3236 -0.2153 -0.5641
  611MOL0     C82365   3.998   2.510   3.463 -0.3246  0.2392 -0.0433
  611MOL0     C82366   3.918   2.462   3.348 -0.7076 -0.5601  0.2316
  611MOL0     N82367   4.000   2.475   3.225  0.5682  0.7653  0.3270
  611MOL0     C82368   4.040   2.588   3.178 -0.0969  0.1507  0.5604
  611MOL0     C82369   4.098   2.562   3.057  0.2789  0.9454 -0.3106
  611MOL0     C82370   4.161   2.652   2.963  0.1400 -0.3266 -0.1883
  611MOL0     C82371   4.105   2.657   2.817 -0.0484  0.0459 -0.0852
  611MOL0     C82372   3.951   2.688   2.812 -0.4748 -1.7453  0.0425
  611MOL0     C82373   3.898   2.685   2.666 -0.4835 -0.3081 -0.4052
  611MOL0     O82374   3.976   2.777   2.585 -0.1597  0.5144  1.2307
  611MOL0     C82375   3.961   2.769   2.449  0.0856 -0.5937  0.5980
  611MOL0     C82376   3.860   2.705   2.380 -0.7999 -0.5530  0.1902
  611MOL0     C82377   3.861   2.700   2.243  0.0216  0.3140  0.4795
  611MOL0     C82378   3.744   2.635   2.177  0.1391 -1.1528  0.2482
  611MOL0     C82379   3.971   2.748   2.169 -0.0628 -0.6052  0.3276
  611MOL0     C82380   3.967   2.749   2.023 -1.0088 -1.2546  0.7503
  611MOL0     O82381   3.891   2.850   1.966 -0.4175 -0.4485 -0.0494
  611MOL0     C82382   3.904   2.890   1.839  0.0106 -0.1867  0.4060
  611MOL0     C82383   3.961   2.825   1.730 -0.3841 -0.1554  0.5901
  611MOL0     C82384   3.974   2.888   1.601 -0.0123  0.2027 -0.4347
  611MOL0     C82385   3.926   3.015   1.575 -0.2240 -0.0890 -0.4842
  611MOL0     O82386   3.946   3.093   1.460 -0.5519  0.6857 -0.2573
  611MOL0     C82387   4.021   3.032   1.351  1.3534 -0.1923 -0.5025
  611MOL0     C82388   4.022   3.120   1.227 -0.3076 -0.0627 -0.5877
  611MOL0     C82389   3.886   3.188   1.215  0.0721  1.1488  0.8772
  611MOL0     C82390   3.876   3.263   1.085 -0.0781  0.0856 -0.1114
  611MOL0     C82391   3.742   3.332   1.087 -0.6095  0.7698 -0.3452
  611MOL0     C82392   3.703   3.390   0.954  0.8783  0.4288 -0.3297
  611MOL0     C82393   3.774   3.519   0.919  0.1356 -0.8634 -0.4346
  611MOL0     C82394   3.761   3.547   0.771  0.4236 -0.5647 -0.1889
  611MOL0    Cl82395   3.876   3.678   0.715 -0.1013 -0.1844 -0.3190
  611MOL0     C82396   3.875   3.082   1.686  0.1742  0.1504 -0.4409
  611MOL0     C82397   3.862   3.020   1.810 -0.4137  0.2439  0.0677
  611MOL0     O82398   4.008   2.650   1.970 -0.6106 -0.2910 -1.0815
  611MOL0     C82399   4.079   2.812   2.237 -0.7165  0.1505  0.1264
  611MOL0     C82400   4.067   2.824   2.380 -0.2561 -0.3749  0.8614
  611MOL0     N82401   4.078   2.422   3.029 -0.0177 -0.6973 -0.2993
  611MOL0     N82402   4.012   2.373   3.132 -0.3340 -0.6247  0.8025
  611MOL0     C82403   4.353   1.660   3.783  0.0965  0.4978 -0.2333
  611MOL0     C82404   4.418   1.528   3.804  0.2365 -0.2040  0.7404
  611MOL0     C82405   4.612   1.201   4.080  0.6718  0.0511  0.3772
  611MOL0     C82406   4.595   1.111   3.980  0.1400  1.0546  0.1925
  611MOL0     C82407   4.653   0.983   3.996  0.7176  0.6501  0.2308
  611MOL0     C82408   4.739   0.954   4.105 -0.4373 -0.7215  0.1706
  611MOL0     O82409   4.801   0.833   4.103 -0.4383 -0.0491 -0.3665
  611MOL0     C82410   4.893   0.802   4.208 -0.8542  0.8144 -0.5988
  611MOL0     C82411   4.966   0.675   4.182 -0.1232 -0.0973  0.4841
  611MOL0     C82412   4.872   0.557   4.135  1.0813 -0.8157  0.1870
  611MOL0     C82413   4.947   0.426   4.106 -0.0952  1.1674  0.2297
  611MOL0     C82414   4.847   0.331   4.052 -1.0757 -0.1721  0.3545
  611MOL0     C82415   4.766   0.254   4.016  0.7707  0.1817 -0.0059
  611MOL0     C82416   4.757   1.052   4.204 -0.8316 -0.1111 -0.1796
  611MOL0     C82417   4.695   1.177   4.195 -0.0933 -0.0459 -0.1621
  611MOL0     H82418   4.320   1.491   4.123 -0.9668  3.3943  1.0340
  611MOL0     H82419   4.247   1.736   4.087  1.2410  3.0260 -1.5432
  611MOL0     H82420   4.139   1.826   3.672  1.3367 -3.3459  0.9464
  611MOL0     H82421   4.044   1.808   3.826  1.2498  0.3704  0.4115
  611MOL0     H82422   3.956   2.001   3.713  0.4182 -0.8243 -1.7502
  611MOL0     H82423   4.071   2.056   3.840  0.1205 -0.1529  0.8876
  611MOL0     H82424   4.243   2.096   3.671 -0.7772  2.7640  0.7469
  611MOL0     H82425   4.127   2.032   3.536  0.1510  0.2703 -0.5167
  611MOL0     H82426   3.985   2.238   3.602 -0.5791 -2.7966  1.5200
  611MOL0     H82427   4.100   2.292   3.713 -0.9244 -0.1574  0.8592
  611MOL0     H82428   4.273   2.280   3.505  0.0638 -0.2913 -0.3712
  611MOL0     H82429   4.136   2.248   3.402 -0.7636  0.9746 -0.6190
  611MOL0     H82430   4.168   2.501   3.569 -1.8268  0.4215 -0.1807
  611MOL0     H82431   4.197   2.485   3.390 -2.8428  1.5419 -2.1560
  611MOL0     H82432   3.941   2.483   3.552  0.5725 -1.7839 -0.0276
  611MOL0     H82433   4.012   2.619   3.455 -3.2195  0.6331 -0.8626
  611MOL0     H82434   3.832   2.529   3.334 -0.9671 -1.1524 -1.2764
  611MOL0     H82435   3.870   2.364   3.351 -2.2665  0.1329 -0.6084
  611MOL0     H82436   4.054   2.684   3.227 -0.6148  0.4173  0.2009
  611MOL0     H82437   4.156   2.754   3.002 -2.5418 -1.6226  3.4092
  611MOL0     H82438   4.266   2.621   2.959  0.5067  0.8769 -0.1001
  611MOL0     H82439   4.122   2.561   2.765 -2.0228 -2.0881  2.9047
  611MOL0     H82440   4.165   2.740   2.779 -1.8215  1.8576  0.9003
  611MOL0     H82441   3.927   2.789   2.848 -2.8926 -2.2840  0.1167
  611MOL0     H82442   3.895   2.614   2.869  1.7012 -2.1985  1.7036
  611MOL0     H82443   3.791   2.701   2.660 -0.1791  2.1621 -0.1461
  611MOL0     H82444   3.911   2.583   2.629  0.0150 -0.5645  0.4308
  611MOL0     H82445   3.785   2.648   2.433 -1.2102  2.3853  3.1101
  611MOL0     H82446   3.650   2.648   2.231 -0.9757  1.5368 -2.0875
  611MOL0     H82447   3.719   2.674   2.078 -0.1540 -0.9512  0.3995
  611MOL0     H82448   3.761   2.529   2.156  0.7307 -1.2868  1.3254
  611MOL0     H82449   4.004   2.726   1.740  0.2753 -0.5001 -3.7654
  611MOL0     H82450   4.033   2.841   1.523  0.6262  1.7792 -0.9364
  611MOL0     H82451   4.125   3.016   1.380  1.2968 -1.3161 -0.8838
  611MOL0     H82452   3.983   2.930   1.339  1.3034 -0.5246  1.9828
  611MOL0     H82453   4.106   3.188   1.246 -0.0144 -0.6432  0.2843
  611MOL0     H82454   4.049   3.062   1.138 -1.3991  2.0325 -2.3891
  611MOL0     H82455   3.859   3.255   1.297  1.1833 -0.0777  2.2994
  611MOL0     H82456   3.803   3.117   1.224  2.7370 -2.3921 -0.3201
  611MOL0     H82457   3.962   3.330   1.079  1.5885 -1.7469  1.8758
  611MOL0     H82458   3.874   3.192   1.002 -0.4886  0.5851 -0.5351
  611MOL0     H82459   3.730   3.410   1.162  3.3489  0.8491  0.3882
  611MOL0     H82460   3.673   3.255   1.123  1.0435 -0.2658  0.6845
  611MOL0     H82461   3.710   3.311   0.878 -1.3524  0.6280 -0.8314
  611MOL0     H82462   3.599   3.423   0.947  1.3810  2.4300  0.8465
  611MOL0     H82463   3.881   3.506   0.936  0.0244  0.6970  1.8744
  611MOL0     H82464   3.748   3.605   0.981 -0.6365 -0.5115 -1.2227
  611MOL0     H82465   3.655   3.561   0.749  0.0853 -1.2424  0.9554
  611MOL0     H82466   3.805   3.464   0.715  3.3745  2.0982 -2.1705
  611MOL0     H82467   3.845   3.182   1.657  3.1597  0.2998 -3.7153
  611MOL0     H82468   3.806   3.073   1.887 -0.7357 -4.3606  3.4300
  611MOL0     H82469   4.164   2.843   2.177  0.0049 -1.3866  0.3325
  611MOL0     H82470   4.137   2.880   2.440  0.0241 -1.8868  1.9922
  611MOL0     H82471   4.342   1.690   3.679 -0.3136  0.0189 -0.3329
  611MOL0     H82472   4.467   1.483   3.718  0.6916 -0.5814  1.1913
  611MOL0     H82473   4.548   1.134   3.885 -1.4263 -1.7242  0.1967
  611MOL0     H82474   4.649   0.895   3.932  1.7246  1.9588 -1.7241
  611MOL0     H82475   4.967   0.878   4.235  1.7035 -1.1110 -1.7999
  611MOL0     H82476   4.828   0.798   4.296 -3.1842  1.4948 -2.1949
  611MOL0     H82477   5.008   0.643   4.278  0.1274  3.3695  1.6743
  611MOL0     H82478   5.044   0.694   4.107  0.1436  0.7989  0.9803
  611MOL0     H82479   4.805   0.588   4.055 -1.7365 -0.1115  2.6563
  611MOL0     H82480   4.810   0.536   4.223 -0.5304 -0.1746 -0.7581
  611MOL0     H82481   4.993   0.385   4.195  1.4565  0.7941 -0.7132
  611MOL0     H82482   5.028   0.455   4.039  0.6200  1.9515  1.4004
  611MOL0     H82483   4.681   0.194   3.990  0.3986  0.4558  0.5498
  611MOL0     H82484   4.827   1.036   4.286  0.0883  1.0241 -0.7134
  611MOL0     H82485   4.717   1.250   4.272 -1.3113  1.2584 -0.9841
  612MOL0     O82486   8.880   7.115   7.690  0.3964 -0.8603  0.5739
  612MOL0     C82487   8.887   7.080   7.575 -0.3547  0.2359  0.9713
  612MOL0     O82488   8.794   7.006   7.508  0.2268  0.8377 -0.3451
  612MOL0     C82489   8.669   7.020   7.563  0.1618  0.4727 -0.1940
  612MOL0     C82490   8.628   6.925   7.655  0.2373 -0.1562 -0.6320
  612MOL0     C82491   8.486   6.924   7.695 -0.3613 -0.3480  0.2007
  612MOL0     C82492   8.404   7.028   7.644  0.0082 -0.3229  0.4803
  612MOL0     O82493   8.271   7.036   7.677 -0.2987 -0.2551 -0.1016
  612MOL0     C82494   8.185   6.948   7.595 -0.9793 -0.6431  0.3955
  612MOL0     C82495   8.060   6.933   7.680  0.2657  0.5710 -0.3330
  612MOL0     C82496   7.969   7.058   7.673  1.1768  0.3559  0.3299
  612MOL0     C82497   7.902   7.117   7.806  0.1487 -0.0705 -0.9838
  612MOL0     C82498   7.860   7.264   7.791  0.6929  0.3524  0.2405
  612MOL0     C82499   7.739   7.273   7.693 -0.4255  0.1790  0.6013
  612MOL0     C82500   7.618   7.188   7.742 -0.0410  0.3144  0.0715
  612MOL0     C82501   7.494   7.241   7.670  0.0518  0.0918 -0.0247
  612MOL0     N82502   7.436   7.361   7.718  0.3929  0.2313  0.2326
  612MOL0     C82503   7.356   7.361   7.837  0.9206  0.6184  0.2876
  612MOL0     C82504   7.267   7.463   7.832  0.5325  0.5133 -0.2667
  612MOL0     C82505   7.167   7.494   7.937 -0.1116 -0.6847 -0.6094
  612MOL0     C82506   7.033   7.427   7.911 -0.7758 -0.7590 -0.1492
  612MOL0     C82507   6.946   7.473   7.800  0.3764 -0.2300 -1.4242
  612MOL0     C82508   6.826   7.383   7.784 -0.1959  0.0977  0.1331
  612MOL0     O82509   6.753   7.360   7.904  0.2201  0.3939 -0.1262
  612MOL0     C82510   6.615   7.394   7.897 -0.6826  0.5928 -0.4200
  612MOL0     C82511   6.542   7.317   7.973  0.5316  0.1288 -0.1400
  612MOL0     C82512   6.402   7.342   7.999 -0.2208  0.3416 -0.0176
  612MOL0     C82513   6.334   7.243   8.087  0.1900 -1.0193 -0.1181
  612MOL0     C82514   6.339   7.457   7.940  0.2837 -0.2366 -0.5548
  612MOL0     C82515   6.196   7.494   7.956 -0.8228 -0.5404  0.7556
  612MOL0     O82516   6.152   7.590   7.870 -0.0518 -0.0548 -0.5626
  612MOL0     C82517   6.022   7.646   7.887  0.4265 -0.1740  0.0067
  612MOL0     C82518   6.007   7.785   7.914  0.2075  0.1716  0.1937
  612MOL0     C82519   5.885   7.842   7.910  0.1756  0.2470  0.3783
  612MOL0     C82520   5.770   7.770   7.896  0.6621 -0.4806 -1.0884
  612MOL0     O82521   5.656   7.843   7.887 -0.5682  0.3236 -0.3757
  612MOL0     C82522   5.532   7.786   7.860  1.4627 -0.2941  0.6569
  612MOL0     C82523   5.432   7.898   7.885 -0.0954  0.0003  0.6494
  612MOL0     C82524   5.314   7.874   7.793  1.0922  0.0138 -0.0006
  612MOL0     C82525   5.200   7.972   7.809  0.2931 -0.0319  0.4269
  612MOL0     C82526   5.079   7.947   7.716 -0.5379  0.0090 -0.3616
  612MOL0     C82527   4.958   8.039   7.726  0.3822  0.4175  0.5111
  612MOL0     C82528   4.983   8.174   7.652  1.0518 -0.2145 -0.2480
  612MOL0     C82529   4.853   8.234   7.582 -0.7019  0.0242 -0.7987
  612MOL0    Cl82530   4.728   8.301   7.693  0.2349 -0.2260 -0.0081
  612MOL0     C82531   5.785   7.630   7.853  0.7901 -1.1287 -0.6812
  612MOL0     C82532   5.911   7.569   7.848 -0.2543  0.5812  0.3827
  612MOL0     O82533   6.127   7.437   8.030 -0.2204  0.2150 -1.4160
  612MOL0     C82534   6.420   7.531   7.860 -0.1115 -0.8045 -0.3022
  612MOL0     C82535   6.558   7.509   7.837 -0.1228  0.2327  0.1531
  612MOL0     N82536   7.301   7.525   7.706 -0.2283 -0.1337 -0.5814
  612MOL0     N82537   7.395   7.466   7.643  0.1006  0.3827  0.0836
  612MOL0     C82538   8.458   7.129   7.557 -0.6953  0.1676 -0.1775
  612MOL0     C82539   8.586   7.124   7.513 -0.0061 -0.0590 -0.1443
  612MOL0     C82540   9.008   7.108   7.499  0.6044 -0.0725 -0.9860
  612MOL0     C82541   9.137   7.095   7.569  0.6739  0.4056 -0.0789
  612MOL0     C82542   9.257   7.101   7.502  0.4987  0.3655 -0.0528
  612MOL0     C82543   9.253   7.121   7.359 -0.1030  0.1751  0.0930
  612MOL0     O82544   9.362   7.150   7.283  0.0046 -0.3788 -0.1224
  612MOL0     C82545   9.485   7.181   7.342  0.5007 -0.0557  0.0867
  612MOL0     C82546   9.577   7.054   7.350  0.5123 -0.2360 -0.0100
  612MOL0     C82547   9.735   7.080   7.350  0.4931 -0.6323 -0.0766
  612MOL0     C82548   9.799   6.947   7.384 -0.0293  0.7625 -0.2142
  612MOL0     C82549   9.947   6.969   7.353  0.3961  0.4219  0.2640
  612MOL0     C82550  10.066   6.991   7.342  0.5166 -0.0214  1.1649
  612MOL0     C82551   9.136   7.114   7.293  0.4169 -0.3667 -0.8488
  612MOL0     C82552   9.016   7.119   7.362 -0.0370 -0.3109 -0.4115
  612MOL0     H82553   8.709   6.870   7.702  0.9099  1.3415  0.0361
  612MOL0     H82554   8.461   6.844   7.764  4.6718 -1.8156  0.7511
  612MOL0     H82555   8.164   6.993   7.498 -2.9053 -1.8293  0.2138
  612MOL0     H82556   8.237   6.854   7.575 -0.8152 -0.1284 -1.8438
  612MOL0     H82557   8.025   6.841   7.633  1.9015  0.0542 -0.5930
  612MOL0     H82558   8.086   6.913   7.784  0.8697  0.7333 -0.4534
  612MOL0     H82559   8.011   7.142   7.617  2.2006 -1.3688 -1.5853
  612MOL0     H82560   7.891   7.029   7.602  2.6158  0.5970 -1.4165
  612MOL0     H82561   7.824   7.051   7.844  0.8942  0.2818  1.3147
  612MOL0     H82562   7.973   7.122   7.889 -0.0424  1.8173 -0.9066
  612MOL0     H82563   7.831   7.307   7.887  1.0051  0.2773  0.3689
  612MOL0     H82564   7.943   7.317   7.744  0.3584 -0.0270 -0.8191
  612MOL0     H82565   7.714   7.379   7.689  2.2665  0.9377  1.3141
  612MOL0     H82566   7.770   7.254   7.590  1.9141 -0.4218  1.3472
  612MOL0     H82567   7.637   7.085   7.712 -1.2975 -0.0399  0.4437
  612MOL0     H82568   7.622   7.183   7.852 -1.2362  2.2254  0.2415
  612MOL0     H82569   7.411   7.172   7.686 -1.4111  1.0885 -2.7231
  612MOL0     H82570   7.516   7.240   7.563  1.5261 -3.4873  0.1758
  612MOL0     H82571   7.360   7.291   7.920 -3.5679  1.9446  1.9063
  612MOL0     H82572   7.207   7.456   8.031 -2.1611  1.1670  1.1194
  612MOL0     H82573   7.161   7.602   7.952  2.5854 -0.2542 -1.9349
  612MOL0     H82574   6.975   7.459   7.998 -3.2221  1.0342 -2.3118
  612MOL0     H82575   7.041   7.318   7.914 -2.7726 -0.9766 -0.8142
  612MOL0     H82576   7.014   7.458   7.715  0.3352 -0.1816 -1.4663
  612MOL0     H82577   6.910   7.576   7.794 -0.1110 -0.0618  2.1867
  612MOL0     H82578   6.870   7.286   7.758  1.5125  0.4309  1.5648
  612MOL0     H82579   6.763   7.411   7.699 -1.2142  1.0314  1.1726
  612MOL0     H82580   6.609   7.250   8.025  0.4025  0.6860  0.7739
  612MOL0     H82581   6.280   7.294   8.168  0.0789 -1.9363  0.3958
  612MOL0     H82582   6.260   7.181   8.035 -0.3725 -1.4816  1.1807
  612MOL0     H82583   6.407   7.177   8.134  2.4708  0.4903 -1.3569
  612MOL0     H82584   6.093   7.843   7.945  0.5183  0.1648 -0.6286
  612MOL0     H82585   5.889   7.949   7.925 -0.3563 -0.0025  2.6731
  612MOL0     H82586   5.518   7.743   7.761  3.0415 -1.3645  0.8608
  612MOL0     H82587   5.500   7.709   7.930 -0.3709 -1.6147 -1.5155
  612MOL0     H82588   5.396   7.895   7.988 -2.4338  2.4873  0.0255
  612MOL0     H82589   5.479   7.997   7.880 -1.8137  0.9177  1.6309
  612MOL0     H82590   5.269   7.776   7.809 -2.4522  0.8252 -3.3992
  612MOL0     H82591   5.352   7.871   7.690  0.8882  1.6201 -0.1468
  612MOL0     H82592   5.168   7.967   7.914 -1.3507 -1.1390 -0.1009
  612MOL0     H82593   5.241   8.072   7.796  0.3399  0.1447  1.7838
  612MOL0     H82594   5.043   7.845   7.736  0.7026 -0.8474 -2.2239
  612MOL0     H82595   5.113   7.954   7.612  0.1484  1.6415 -0.0530
  612MOL0     H82596   4.873   7.991   7.677  0.1250  1.2426  0.1371
  612MOL0     H82597   4.931   8.061   7.830  0.9640  3.1950  0.1576
  612MOL0     H82598   5.059   8.154   7.576  1.9785 -2.2589  1.1426
  612MOL0     H82599   5.023   8.250   7.719 -1.2235  0.7224  0.1510
  612MOL0     H82600   4.806   8.153   7.525 -0.1686 -0.2510 -0.8550
  612MOL0     H82601   4.881   8.305   7.504  0.2922  1.3258  0.6901
  612MOL0     H82602   5.703   7.561   7.837 -1.7605  1.7687 -0.9568
  612MOL0     H82603   5.902   7.468   7.811 -0.3966  1.0088 -0.7761
  612MOL0     H82604   6.386   7.619   7.807  4.2693  1.5451  0.3031
  612MOL0     H82605   6.619   7.579   7.781 -0.1418 -0.0159 -0.1794
  612MOL0     H82606   8.390   7.203   7.515  0.1915  1.3113  0.3434
  612MOL0     H82607   8.619   7.203   7.446 -0.9083 -0.4009 -1.0125
  612MOL0     H82608   9.145   7.071   7.674  0.8530 -0.9544 -0.3793
  612MOL0     H82609   9.347   7.081   7.560  1.7021  0.7175 -1.7045
  612MOL0     H82610   9.524   7.263   7.281  2.9926 -1.4153 -0.2939
  612MOL0     H82611   9.460   7.227   7.438 -1.2391  1.3724 -0.9796
  612MOL0     H82612   9.566   6.989   7.262  2.3560  0.3112 -0.7002
  612MOL0     H82613   9.538   6.993   7.432 -0.5361 -1.1920 -1.1644
  612MOL0     H82614   9.769   7.153   7.425 -0.6445  3.6559 -3.3256
  612MOL0     H82615   9.771   7.112   7.251  2.8852 -1.3267  0.4892
  612MOL0     H82616   9.759   6.860   7.330  1.8802 -0.1706 -0.1903
  612MOL0     H82617   9.787   6.934   7.492  0.8988  2.4322  0.1339
  612MOL0     H82618  10.170   7.013   7.339  0.4871  0.0929  0.8930
  612MOL0     H82619   9.114   7.112   7.187  1.6701 -2.1770 -1.1281
  612MOL0     H82620   8.924   7.141   7.309  0.2654  3.8328  0.4260
  613MOL0     O82621   4.881  11.429   6.076 -0.6914 -0.8194 -0.1973
  613MOL0     C82622   4.819  11.535   6.113 -0.4066  1.2305  0.1465
  613MOL0     O82623   4.850  11.661   6.082  0.1168  0.6552 -0.4922
  613MOL0     C82624   4.979  11.672   6.036  1.1985  0.2969 -0.3445
  613MOL0     C82625   5.092  11.674   6.132  0.2399  0.7984  0.3150
  613MOL0     C82626   5.224  11.663   6.086 -0.9841 -0.0770 -0.2449
  613MOL0     C82627   5.250  11.692   5.948 -0.8777  0.2668 -0.7431
  613MOL0     O82628   5.371  11.690   5.883  0.6095  1.6241  0.2306
  613MOL0     C82629   5.484  11.673   5.964 -0.4171  0.2240 -0.1332
  613MOL0     C82630   5.603  11.663   5.880 -0.7613 -0.4646  0.2539
  613MOL0     C82631   5.721  11.609   5.960 -0.2714  1.0720  0.0311
  613MOL0     C82632   5.795  11.694   6.066 -0.7339 -1.3053  1.0944
  613MOL0     C82633   5.886  11.621   6.157 -0.0612  0.5262  0.0448
  613MOL0     C82634   5.983  11.523   6.091 -0.5155  0.3791 -0.0250
  613MOL0     C82635   6.081  11.464   6.189  0.9004 -0.8460 -0.6491
  613MOL0     C82636   6.200  11.415   6.115 -0.3963  0.6270 -0.2820
  613MOL0     N82637   6.158  11.309   6.016  0.3965 -0.2325  0.3805
  613MOL0     C82638   6.129  11.184   6.063 -0.2232 -0.2753  1.0714
  613MOL0     C82639   6.121  11.112   5.947 -0.5706 -0.1000 -0.5368
  613MOL0     C82640   6.086  10.966   5.928  1.0244  0.1325 -0.6638
  613MOL0     C82641   5.991  10.948   5.807 -0.1064 -1.0195  0.3414
  613MOL0     C82642   5.987  10.802   5.760  0.3650  0.2794  0.6359
  613MOL0     C82643   6.103  10.763   5.666 -0.0408  0.4275 -0.5754
  613MOL0     O82644   6.131  10.874   5.577 -0.3646  0.6380 -0.1793
  613MOL0     C82645   6.115  10.847   5.446 -0.8554  0.4826 -0.2604
  613MOL0     C82646   6.220  10.808   5.363  0.8011 -0.9714  0.3194
  613MOL0     C82647   6.208  10.788   5.228 -0.5294 -0.2203  0.5298
  613MOL0     C82648   6.326  10.716   5.158 -0.0097 -0.9843 -0.2936
  613MOL0     C82649   6.087  10.813   5.172  1.2044 -0.3041 -0.2023
  613MOL0     C82650   6.046  10.776   5.035  0.4750 -0.3278  0.6094
  613MOL0     O82651   5.935  10.836   4.987 -0.3908  0.2581 -0.2036
  613MOL0     C82652   5.914  10.849   4.853  0.8061  0.1771 -0.6231
  613MOL0     C82653   6.001  10.933   4.781  0.5463 -0.5569 -0.6445
  613MOL0     C82654   5.972  10.949   4.636  0.3819 -0.1880  0.1335
  613MOL0     C82655   5.877  10.869   4.575  0.2165 -0.4048  1.1477
  613MOL0     O82656   5.828  10.879   4.447 -0.0990 -0.5536  0.0263
  613MOL0     C82657   5.903  10.955   4.355 -0.4464 -0.9167 -0.6819
  613MOL0     C82658   5.839  10.912   4.219 -0.0441  0.5975 -1.1322
  613MOL0     C82659   5.806  11.031   4.116 -0.3282  0.2077  0.1607
  613MOL0     C82660   5.799  10.968   3.978  0.1119  0.1307 -0.3790
  613MOL0     C82661   5.729  11.053   3.879  1.0347 -1.3694 -0.1079
  613MOL0     C82662   5.713  10.977   3.743 -0.7661  0.1965 -0.7135
  613MOL0     C82663   5.627  11.060   3.654 -0.1529 -0.0595 -0.0645
  613MOL0     C82664   5.558  10.990   3.535  0.3599  0.9229 -0.5217
  613MOL0    Cl82665   5.456  11.102   3.427 -0.3013 -0.0637 -0.8109
  613MOL0     C82666   5.798  10.783   4.641 -0.1498  0.8353  0.1650
  613MOL0     C82667   5.814  10.774   4.784 -0.6307  0.6350 -0.0165
  613MOL0     O82668   6.128  10.710   4.965  0.7944  0.6648  0.3864
  613MOL0     C82669   5.976  10.865   5.252  0.4082  0.0706 -0.1575
  613MOL0     C82670   5.994  10.871   5.385  0.1019 -0.9028 -0.2623
  613MOL0     N82671   6.145  11.196   5.845  0.0845 -0.4061 -0.4756
  613MOL0     N82672   6.156  11.319   5.881 -0.0429  0.4641 -0.3552
  613MOL0     C82673   5.142  11.703   5.863 -0.0621  0.4445 -0.9045
  613MOL0     C82674   5.009  11.679   5.896  1.1147  0.1561 -0.3740
  613MOL0     C82675   4.681  11.522   6.157  0.6049 -0.5926  0.0106
  613MOL0     C82676   4.611  11.621   6.241  0.8663  0.2668 -0.3644
  613MOL0     C82677   4.470  11.622   6.258 -0.1873  0.4926  0.5312
  613MOL0     C82678   4.395  11.516   6.194  0.6382  0.6093  0.1179
  613MOL0     O82679   4.263  11.519   6.203  0.3318 -0.9158 -0.5604
  613MOL0     C82680   4.214  11.600   6.095  0.4464 -0.3002 -0.2644
  613MOL0     C82681   4.077  11.642   6.130  1.1098  0.3758 -1.0203
  613MOL0     C82682   4.083  11.739   6.254 -0.2883  0.0672  0.6725
  613MOL0     C82683   3.960  11.835   6.272  0.5876  0.2486  0.3978
  613MOL0     C82684   3.846  11.751   6.312 -0.3814 -0.1948 -0.1603
  613MOL0     C82685   3.746  11.685   6.321  0.3472  0.1350 -0.1714
  613MOL0     C82686   4.462  11.408   6.130  0.6186  1.1658  0.4700
  613MOL0     C82687   4.602  11.416   6.105 -0.0433 -1.0970  0.9179
  613MOL0     H82688   5.088  11.678   6.241  1.1684 -0.4851  0.4221
  613MOL0     H82689   5.304  11.665   6.159 -2.0478 -0.3916  0.9700
  613MOL0     H82690   5.504  11.763   6.022 -2.8552  1.7668 -1.4748
  613MOL0     H82691   5.478  11.585   6.029 -0.8180 -0.4863 -1.1017
  613MOL0     H82692   5.595  11.600   5.790  0.2328  0.4812 -0.5330
  613MOL0     H82693   5.629  11.766   5.853  3.2540 -1.4470 -0.3682
  613MOL0     H82694   5.688  11.515   6.005  0.6303  0.6986 -0.0705
  613MOL0     H82695   5.797  11.581   5.887 -0.1480 -0.7336  0.8289
  613MOL0     H82696   5.853  11.773   6.016 -0.1532 -1.2131  1.8947
  613MOL0     H82697   5.724  11.765   6.109  0.8740  1.2866 -0.2768
  613MOL0     H82698   5.944  11.696   6.213  1.6950  1.3146 -2.6361
  613MOL0     H82699   5.816  11.563   6.218  0.4564  2.0564  2.2200
  613MOL0     H82700   5.920  11.437   6.067 -1.2316  0.9676 -0.3056
  613MOL0     H82701   6.031  11.570   6.005 -1.9385 -0.6033 -1.3997
  613MOL0     H82702   6.127  11.548   6.242  0.4426 -2.5869  2.8363
  613MOL0     H82703   6.030  11.404   6.265  1.5655  0.3276  0.7900
  613MOL0     H82704   6.280  11.379   6.180  2.4121  3.9714 -1.5161
  613MOL0     H82705   6.256  11.496   6.067  0.9605  2.6094  4.1868
  613MOL0     H82706   6.133  11.153   6.167 -3.1488 -1.6870  0.8553
  613MOL0     H82707   6.178  10.914   5.901  1.1650 -1.0215  1.7484
  613MOL0     H82708   6.052  10.924   6.023 -0.1632 -1.5162 -1.7396
  613MOL0     H82709   6.010  11.023   5.729 -2.0933  3.2422  3.5196
  613MOL0     H82710   5.896  10.984   5.847 -0.9612 -1.3483 -1.2882
  613MOL0     H82711   5.890  10.783   5.714  0.6414 -1.1823  0.6080
  613MOL0     H82712   5.984  10.732   5.844 -0.5841 -0.4750 -0.0141
  613MOL0     H82713   6.075  10.670   5.616 -1.1008 -0.7104  1.9571
  613MOL0     H82714   6.185  10.728   5.731  1.8177 -1.4922 -3.7089
  613MOL0     H82715   6.313  10.799   5.419  2.0326  0.0187 -1.4756
  613MOL0     H82716   6.362  10.780   5.077 -0.6068  1.2990  1.1393
  613MOL0     H82717   6.412  10.708   5.225  1.7057  5.0972 -1.1200
  613MOL0     H82718   6.296  10.614   5.131  1.2547 -1.5203  0.2266
  613MOL0     H82719   6.084  10.998   4.809 -0.2808  2.1872 -3.9401
  613MOL0     H82720   6.029  11.022   4.579  0.2540  0.2905  0.6243
  613MOL0     H82721   5.888  11.063   4.365 -0.9980 -0.9431 -1.1233
  613MOL0     H82722   6.006  10.922   4.341  0.0965  0.9386 -1.4296
  613MOL0     H82723   5.898  10.826   4.187  0.0956 -1.2106  3.3270
  613MOL0     H82724   5.743  10.861   4.229  0.5153 -0.9617 -3.1148
  613MOL0     H82725   5.876  11.115   4.110 -1.5037  1.1147 -1.8906
  613MOL0     H82726   5.707  11.071   4.143  0.8439  4.0240 -0.5822
  613MOL0     H82727   5.899  10.945   3.940 -1.5482 -0.8564 -4.7122
  613MOL0     H82728   5.748  10.871   3.978 -2.7444  1.5208 -0.9520
  613MOL0     H82729   5.790  11.144   3.872  1.1419 -1.5497 -2.6930
  613MOL0     H82730   5.634  11.076   3.928  1.4266 -0.0955  0.0932
  613MOL0     H82731   5.815  10.959   3.708 -1.5555 -5.6815 -1.0019
  613MOL0     H82732   5.671  10.878   3.763  2.1682 -1.2813 -1.2349
  613MOL0     H82733   5.692  11.134   3.607 -0.2468  0.7052  0.9651
  613MOL0     H82734   5.545  11.106   3.711  0.7879 -0.3731  1.6297
  613MOL0     H82735   5.487  10.921   3.580  2.0091 -0.6300 -0.1816
  613MOL0     H82736   5.622  10.924   3.476 -1.4062 -1.7383  0.3793
  613MOL0     H82737   5.741  10.707   4.588  1.6454 -2.7592  2.9640
  613MOL0     H82738   5.754  10.708   4.846 -1.1452  0.8522 -0.2745
  613MOL0     H82739   5.877  10.866   5.207 -0.5303 -2.3658  1.6722
  613MOL0     H82740   5.921  10.901   5.460  0.1497 -0.4814 -0.3786
  613MOL0     H82741   5.161  11.705   5.756 -0.4876 -3.5258 -1.2189
  613MOL0     H82742   4.923  11.676   5.829  0.6565 -3.5832  0.1526
  613MOL0     H82743   4.668  11.695   6.296  1.9192 -1.5376  1.1415
  613MOL0     H82744   4.427  11.705   6.314  1.8995 -0.4149  3.7478
  613MOL0     H82745   4.279  11.683   6.064 -2.4513  3.2464  2.2274
  613MOL0     H82746   4.206  11.550   5.998 -2.4215  0.9701 -0.7959
  613MOL0     H82747   4.017  11.557   6.165  3.5908 -1.0681 -0.0060
  613MOL0     H82748   4.014  11.685   6.051 -3.7956  1.1560  2.7825
  613MOL0     H82749   4.175  11.798   6.250 -0.7064  0.6599 -0.7545
  613MOL0     H82750   4.087  11.680   6.346 -0.0932 -0.0516  0.5877
  613MOL0     H82751   3.933  11.902   6.189 -1.3070  0.1508  0.8840
  613MOL0     H82752   3.980  11.902   6.356 -0.1942  1.8638 -0.6393
  613MOL0     H82753   3.655  11.629   6.317  1.9007 -2.4677 -1.3773
  613MOL0     H82754   4.406  11.320   6.103  3.7986 -1.1432  0.7769
  613MOL0     H82755   4.654  11.334   6.056  2.4368  0.6835  0.3844
  614MOL0     O82756  10.527   6.681   0.495 -0.2001 -0.3022  0.3268
  614MOL0     C82757  10.515   6.759   0.403 -0.3494  0.8997  0.1371
  614MOL0     O82758  10.608   6.771   0.312  0.2428 -0.2136 -0.1405
  614MOL0     C82759  10.737   6.724   0.334  0.5776 -0.6650 -0.0693
  614MOL0     C82760  10.820   6.663   0.236  0.4729  0.1795 -1.2199
  614MOL0     C82761  10.952   6.625   0.253  0.0997  0.6510  0.2098
  614MOL0     C82762  11.007   6.638   0.382  0.7100 -0.1822  0.8447
  614MOL0     O82763  11.126   6.581   0.412 -0.3453  0.2251 -0.2722
  614MOL0     C82764  11.233   6.581   0.318  0.2991 -0.1620 -0.6599
  614MOL0     C82765  11.366   6.539   0.383 -0.5340 -0.6390 -0.7064
  614MOL0     C82766  11.375   6.391   0.433  0.8578  0.2163 -1.1281
  614MOL0     C82767  11.434   6.299   0.330  0.0057 -0.4182 -1.1043
  614MOL0     C82768  11.425   6.152   0.376 -0.1011  0.6945  0.2354
  614MOL0     C82769  11.524   6.066   0.302  0.2102  0.0623  0.0279
  614MOL0     C82770  11.504   5.919   0.334 -0.0505 -0.4505 -0.5415
  614MOL0     C82771  11.508   5.837   0.202  0.1217  0.4916  0.3890
  614MOL0     N82772  11.630   5.853   0.113 -0.0010  0.2606  0.6788
  614MOL0     C82773  11.762   5.830   0.154  0.0768  0.0450  0.8175
  614MOL0     C82774  11.847   5.846   0.048 -0.6891  0.1229 -0.3508
  614MOL0     C82775  12.001   5.841   0.039  0.3145  0.4425 -0.0350
  614MOL0     C82776  12.069   5.898   0.166 -0.5804 -0.1343  0.4794
  614MOL0     C82777  12.034   6.047   0.188 -0.1528  0.2996  0.5152
  614MOL0     C82778  12.079   6.137   0.073  0.3768 -0.8809  0.2960
  614MOL0     O82779  12.034   6.273   0.109 -1.1775  0.5802  0.1385
  614MOL0     C82780  11.917   6.322   0.064 -0.0222  0.2826 -0.3536
  614MOL0     C82781  11.890   6.449   0.102 -0.0118 -0.2864 -0.1304
  614MOL0     C82782  11.777   6.520   0.070 -0.8087 -0.0081  0.3284
  614MOL0     C82783  11.766   6.658   0.135 -0.1187 -0.1145 -0.4796
  614MOL0     C82784  11.671   6.456  -0.013 -0.0964  0.2666 -0.0991
  614MOL0     C82785  11.542   6.525  -0.043  0.5475 -0.4339  0.1596
  614MOL0     O82786  11.436   6.446  -0.076 -0.5239 -0.2061  0.0104
  614MOL0     C82787  11.304   6.488  -0.077  1.2980 -0.9257  0.0116
  614MOL0     C82788  11.200   6.404  -0.031 -0.2110  0.2062 -1.0783
  614MOL0     C82789  11.064   6.425  -0.039 -0.5367  0.4942 -0.2325
  614MOL0     C82790  11.026   6.548  -0.090 -0.3484  0.3064  0.4144
  614MOL0     O82791  10.889   6.576  -0.091  0.3868  0.3450 -0.5088
  614MOL0     C82792  10.806   6.503  -0.181  0.8488  1.3430  0.2505
  614MOL0     C82793  10.673   6.569  -0.180  0.0173 -0.2180 -0.0152
  614MOL0     C82794  10.600   6.548  -0.052  0.3776  0.2096 -0.2416
  614MOL0     C82795  10.525   6.674  -0.004  0.0045  0.4880 -0.8369
  614MOL0     C82796  10.403   6.692  -0.101 -0.1511 -0.6382  0.4128
  614MOL0     C82797  10.290   6.776  -0.039 -0.1142 -0.1410  0.3861
  614MOL0     C82798  10.181   6.791  -0.134 -1.0956 -0.6683  0.4074
  614MOL0     C82799  10.062   6.841  -0.055 -0.0427  0.0813  0.0808
  614MOL0    Cl82800   9.977   6.713   0.035 -0.2735  0.3101  0.0688
  614MOL0     C82801  11.124   6.644  -0.120 -0.1864 -0.7015  0.9346
  614MOL0     C82802  11.258   6.613  -0.117 -0.6490 -0.7465  0.3042
  614MOL0     O82803  11.538   6.644  -0.029 -0.0695  0.3362  0.1816
  614MOL0     C82804  11.704   6.329  -0.065 -0.7458  0.3737 -0.3491
  614MOL0     C82805  11.814   6.266  -0.026 -0.8521 -0.5064 -0.1858
  614MOL0     N82806  11.761   5.866  -0.065 -0.0063  0.0747  0.9806
  614MOL0     N82807  11.639   5.880  -0.018  0.3734  1.1947  0.2794
  614MOL0     C82808  10.929   6.700   0.479  0.4659 -1.2096  0.3565
  614MOL0     C82809  10.799   6.750   0.457  0.3808  0.1440  0.1793
  614MOL0     C82810  10.382   6.815   0.363  0.0403 -0.6140 -0.3184
  614MOL0     C82811  10.370   6.912   0.269 -0.6678  0.8977 -0.1622
  614MOL0     C82812  10.244   6.979   0.254  0.3615  0.8760 -0.3869
  614MOL0     C82813  10.137   6.949   0.327  0.7042 -0.3172 -0.6655
  614MOL0     O82814  10.039   7.037   0.307 -0.0472  0.2794  0.7593
  614MOL0     C82815   9.913   7.000   0.373  0.1563  0.7739 -0.0004
  614MOL0     C82816   9.801   7.096   0.339  0.5606 -0.2182 -0.5739
  614MOL0     C82817   9.666   7.059   0.404 -0.5662  0.0549 -0.4632
  614MOL0     C82818   9.542   7.136   0.357 -0.6501  0.0356  0.0956
  614MOL0     C82819   9.436   7.108   0.452 -0.6094 -0.1243 -0.8967
  614MOL0     C82820   9.363   7.050   0.534  0.3685 -0.6069 -0.1634
  614MOL0     C82821  10.146   6.848   0.422  0.2889  0.6715 -1.3323
  614MOL0     C82822  10.268   6.779   0.432  0.0651 -0.0497  0.7353
  614MOL0     H82823  10.766   6.656   0.142 -1.1695 -0.3854 -0.2688
  614MOL0     H82824  10.994   6.570   0.169  2.6243 -0.0498  1.8386
  614MOL0     H82825  11.207   6.507   0.241 -3.9655  1.1479 -0.7676
  614MOL0     H82826  11.245   6.685   0.288  0.9250  0.4998  1.6528
  614MOL0     H82827  11.446   6.568   0.314  2.3559  0.3777  2.7285
  614MOL0     H82828  11.384   6.592   0.477 -1.6419  2.0427 -1.8988
  614MOL0     H82829  11.441   6.381   0.520 -1.6141  0.0332  0.8429
  614MOL0     H82830  11.278   6.350   0.462  1.7833 -2.1676 -1.1749
  614MOL0     H82831  11.372   6.308   0.241  1.2350  0.3238 -1.9211
  614MOL0     H82832  11.531   6.342   0.303  0.6542 -0.9849  0.2414
  614MOL0     H82833  11.421   6.126   0.482  1.4519 -3.4678 -0.5344
  614MOL0     H82834  11.331   6.117   0.333  0.7040  0.9052 -1.8294
  614MOL0     H82835  11.506   6.080   0.195 -1.0241  1.8407  0.4166
  614MOL0     H82836  11.625   6.103   0.322  0.0980 -1.1842  3.6129
  614MOL0     H82837  11.572   5.876   0.408 -0.9041  1.9514  1.8117
  614MOL0     H82838  11.398   5.906   0.358 -0.5477  1.0568 -1.7152
  614MOL0     H82839  11.424   5.845   0.133  0.8782 -1.0441 -0.7788
  614MOL0     H82840  11.499   5.732   0.230 -0.1613  0.4427  0.1180
  614MOL0     H82841  11.782   5.812   0.259 -1.9064  2.9359  1.8217
  614MOL0     H82842  12.021   5.733   0.045  0.7767  0.5005 -0.5046
  614MOL0     H82843  12.036   5.872  -0.060  0.9445  1.0528  0.3721
  614MOL0     H82844  12.174   5.869   0.167 -0.6923 -0.5875 -0.1093
  614MOL0     H82845  12.019   5.847   0.249 -0.7695  0.9971  1.0747
  614MOL0     H82846  12.084   6.079   0.280 -0.1974 -0.1819  0.7110
  614MOL0     H82847  11.924   6.049   0.191 -0.3542 -3.3227  0.0539
  614MOL0     H82848  12.035   6.098  -0.020  1.2543  4.2591 -2.6492
  614MOL0     H82849  12.188   6.144   0.068  0.3348  1.2747  1.1026
  614MOL0     H82850  11.959   6.506   0.163  0.1814  0.8174 -1.3333
  614MOL0     H82851  11.834   6.727   0.084 -0.0238 -1.0539 -1.6903
  614MOL0     H82852  11.667   6.705   0.138 -0.5867 -1.0909 -0.3566
  614MOL0     H82853  11.797   6.649   0.239 -2.1543 -3.1559  0.0067
  614MOL0     H82854  11.229   6.304   0.000 -1.2518 -0.4161 -2.0003
  614MOL0     H82855  10.994   6.349  -0.006  0.6749  0.6508  3.0158
  614MOL0     H82856  10.846   6.490  -0.282 -1.4728 -2.1906 -0.3855
  614MOL0     H82857  10.790   6.399  -0.150  0.9575  1.3473  0.3231
  614MOL0     H82858  10.691   6.671  -0.215  0.3153 -0.5672 -0.9118
  614MOL0     H82859  10.610   6.523  -0.257  0.7468 -0.8373 -0.2608
  614MOL0     H82860  10.668   6.506   0.023 -0.8088 -0.5509  0.4374
  614MOL0     H82861  10.530   6.466  -0.067  1.5210 -0.9795  0.6759
  614MOL0     H82862  10.481   6.648   0.093  3.8751 -1.1945  0.6752
  614MOL0     H82863  10.584   6.765   0.014 -2.6601  1.8129  2.2254
  614MOL0     H82864  10.364   6.596  -0.134 -0.5834 -1.1780  2.3210
  614MOL0     H82865  10.438   6.740  -0.192 -4.4408 -0.3897 -1.3229
  614MOL0     H82866  10.250   6.742   0.058 -1.8835 -1.8612 -0.8636
  614MOL0     H82867  10.334   6.875  -0.026 -1.3968  1.3448 -4.5939
  614MOL0     H82868  10.156   6.700  -0.189  1.9993 -0.8237 -0.9980
  614MOL0     H82869  10.212   6.868  -0.206  0.8113 -2.4353 -0.7974
  614MOL0     H82870  10.007   6.884  -0.140  0.9932 -0.2238 -0.7655
  614MOL0     H82871  10.084   6.925   0.012 -0.2298 -1.1091  1.6700
  614MOL0     H82872  11.108   6.749  -0.141  2.2656 -0.3746  0.4154
  614MOL0     H82873  11.328   6.689  -0.150  0.5333 -0.9257  2.2015
  614MOL0     H82874  11.628   6.291  -0.132 -0.9859  0.5424 -0.1729
  614MOL0     H82875  11.842   6.172  -0.074  2.3554  1.4322 -2.5309
  614MOL0     H82876  10.968   6.708   0.580 -1.3336  0.7709  0.9748
  614MOL0     H82877  10.745   6.799   0.538  2.0697  0.7741  0.9751
  614MOL0     H82878  10.453   6.962   0.220 -2.2164  4.2915  0.3763
  614MOL0     H82879  10.230   7.050   0.172  1.3802  0.6196 -0.7951
  614MOL0     H82880   9.892   6.901   0.329  0.6321  0.7288 -0.1288
  614MOL0     H82881   9.922   6.984   0.480  1.6136  1.1245 -0.0438
  614MOL0     H82882   9.783   7.097   0.231  0.4221 -0.3032 -0.5508
  614MOL0     H82883   9.830   7.198   0.365 -1.9878  0.1167  1.2398
  614MOL0     H82884   9.672   7.082   0.510 -0.2112 -0.4751 -0.3672
  614MOL0     H82885   9.641   6.953   0.397  1.3949 -0.7241  2.5166
  614MOL0     H82886   9.521   7.112   0.252 -0.4775  1.7024 -0.3489
  614MOL0     H82887   9.561   7.244   0.350 -1.9357  0.2998  0.3953
  614MOL0     H82888   9.305   6.998   0.608 -0.5345 -1.1222 -1.2040
  614MOL0     H82889  10.065   6.820   0.489  1.6268 -0.8658 -0.2757
  614MOL0     H82890  10.271   6.699   0.505  2.0110 -0.1373  0.6006
  615MOL0     O82891   1.549   7.111   4.582 -0.6264 -0.2163  1.1048
  615MOL0     C82892   1.456   7.034   4.568  0.6147  0.7626  0.7988
  615MOL0     O82893   1.335   7.054   4.494  0.2886 -0.3870  1.2364
  615MOL0     C82894   1.320   7.176   4.441  0.2353 -0.1653  0.5446
  615MOL0     C82895   1.189   7.228   4.453 -0.3110 -0.0586  0.5199
  615MOL0     C82896   1.158   7.351   4.409  0.3825  0.3085  1.4288
  615MOL0     C82897   1.253   7.438   4.347  0.0454 -0.5499 -0.5285
  615MOL0     O82898   1.224   7.567   4.300 -0.1686 -0.3842  0.4012
  615MOL0     C82899   1.316   7.656   4.239 -0.1264  0.8970 -0.1141
  615MOL0     C82900   1.280   7.805   4.253  0.0314 -0.6076  0.1731
  615MOL0     C82901   1.246   7.858   4.398  0.4467  0.3744  0.6226
  615MOL0     C82902   1.368   7.907   4.468  0.6213 -0.7363 -0.7630
  615MOL0     C82903   1.348   7.959   4.617  0.2464 -0.5264  1.0847
  615MOL0     C82904   1.493   7.964   4.663 -0.8736  0.0130 -0.2123
  615MOL0     C82905   1.506   8.062   4.776 -0.0201  1.0114  0.6321
  615MOL0     C82906   1.645   8.048   4.842 -0.2568 -0.3327 -0.2542
  615MOL0     N82907   1.668   8.184   4.901  0.0631  0.3387  0.4112
  615MOL0     C82908   1.645   8.221   5.029  1.1073 -0.4202  0.1591
  615MOL0     C82909   1.657   8.356   5.026  0.8788  0.6663 -0.3646
  615MOL0     C82910   1.640   8.427   5.157  0.2731 -0.0147 -0.6628
  615MOL0     C82911   1.500   8.491   5.159  0.0259 -0.3483  0.5898
  615MOL0     C82912   1.387   8.384   5.177  0.2541 -0.4073  0.6504
  615MOL0     C82913   1.268   8.435   5.265 -1.1742 -1.4903 -0.4011
  615MOL0     O82914   1.154   8.353   5.249 -0.3604 -0.7107 -0.0105
  615MOL0     C82915   1.031   8.391   5.296  0.1409 -0.0174 -0.9941
  615MOL0     C82916   0.928   8.305   5.265 -0.0312 -0.1334  0.0772
  615MOL0     C82917   0.793   8.336   5.302 -0.4590  0.0645  0.3732
  615MOL0     C82918   0.680   8.267   5.231  0.0039  0.3258 -0.2515
  615MOL0     C82919   0.769   8.452   5.369 -0.6422 -0.2175  0.0733
  615MOL0     C82920   0.643   8.490   5.430 -0.1730  0.3032  0.2594
  615MOL0     O82921   0.605   8.619   5.408  0.0984 -0.0617  0.3898
  615MOL0     C82922   0.479   8.668   5.426  0.7047 -0.5868 -0.7409
  615MOL0     C82923   0.432   8.760   5.321 -0.6178  0.8092 -0.8642
  615MOL0     C82924   0.310   8.822   5.337 -0.8850  0.3430 -0.4999
  615MOL0     C82925   0.223   8.798   5.445 -0.1959 -0.4479  0.5303
  615MOL0     O82926   0.107   8.865   5.456 -0.3790  0.7259 -0.6580
  615MOL0     C82927   0.005   8.822   5.549 -0.4920 -0.5452 -0.4040
  615MOL0     C82928  -0.112   8.917   5.523 -0.2669 -0.1745 -0.3819
  615MOL0     C82929  -0.172   8.906   5.383 -0.2938 -0.4631  0.0863
  615MOL0     C82930  -0.233   8.767   5.345  0.2967 -0.3581  0.6018
  615MOL0     C82931  -0.379   8.773   5.395  0.2281  0.5704 -0.0087
  615MOL0     C82932  -0.452   8.658   5.316  0.4811  0.0247  0.1288
  615MOL0     C82933  -0.606   8.665   5.343  0.4497  1.1654  0.5542
  615MOL0     C82934  -0.677   8.527   5.326 -0.3351  0.2940 -0.1494
  615MOL0    Cl82935  -0.857   8.543   5.335  0.5634  0.3140 -0.5093
  615MOL0     C82936   0.265   8.703   5.536  0.0574  0.7230  0.1318
  615MOL0     C82937   0.389   8.637   5.526 -0.0497  0.0601 -0.4944
  615MOL0     O82938   0.568   8.408   5.473 -0.9429  0.0976 -0.2777
  615MOL0     C82939   0.879   8.529   5.416 -0.6211 -0.3554  0.0855
  615MOL0     C82940   1.004   8.505   5.376  0.0565 -0.1855  0.0599
  615MOL0     N82941   1.702   8.403   4.901 -0.0677  0.2941 -0.3825
  615MOL0     N82942   1.709   8.302   4.833  0.4145  0.1677  0.6554
  615MOL0     C82943   1.380   7.373   4.324  1.0329 -0.7922  0.2378
  615MOL0     C82944   1.413   7.247   4.365 -0.1573  1.1414 -0.1082
  615MOL0     C82945   1.473   6.906   4.633 -0.2587  0.3188  0.7191
  615MOL0     C82946   1.364   6.838   4.688 -0.3886 -0.5276 -0.1014
  615MOL0     C82947   1.374   6.705   4.730  0.2070  0.3154  0.4430
  615MOL0     C82948   1.501   6.639   4.738 -1.0501  0.2872 -1.0544
  615MOL0     O82949   1.529   6.514   4.778  0.2322  0.5362 -0.2903
  615MOL0     C82950   1.419   6.433   4.817 -0.6176  0.0352  0.1251
  615MOL0     C82951   1.479   6.300   4.861 -0.7486  0.2212 -0.7728
  615MOL0     C82952   1.368   6.194   4.902  0.3536  0.9430  0.3226
  615MOL0     C82953   1.420   6.049   4.911 -0.4604  0.8187 -0.6070
  615MOL0     C82954   1.548   6.043   4.997  0.6451 -0.5367  0.1639
  615MOL0     C82955   1.640   6.053   5.070 -1.6995  1.3935 -0.2482
  615MOL0     C82956   1.606   6.715   4.708 -0.0315  0.3737  0.0799
  615MOL0     C82957   1.594   6.845   4.650  0.1803 -0.2265  1.0345
  615MOL0     H82958   1.122   7.157   4.499 -0.3146 -0.9726 -0.8173
  615MOL0     H82959   1.067   7.405   4.435  1.9620  2.4736  2.8108
  615MOL0     H82960   1.408   7.664   4.297  0.1130  0.4774 -0.4270
  615MOL0     H82961   1.332   7.636   4.133  2.8583  1.1272  0.2129
  615MOL0     H82962   1.373   7.851   4.216 -1.2641  3.7638  1.6529
  615MOL0     H82963   1.196   7.822   4.186  0.3723  0.8185  0.0690
  615MOL0     H82964   1.177   7.943   4.390  0.9304  0.7114 -0.2017
  615MOL0     H82965   1.195   7.779   4.453  0.8878  0.0505  0.5757
  615MOL0     H82966   1.445   7.829   4.472  1.1514 -0.3623 -2.5406
  615MOL0     H82967   1.412   7.993   4.417  2.7759 -0.5458  1.2695
  615MOL0     H82968   1.309   8.061   4.607  0.4372 -0.6099 -1.2014
  615MOL0     H82969   1.273   7.893   4.662 -0.0877 -0.6785  0.3377
  615MOL0     H82970   1.531   7.867   4.697  5.1740  1.5472 -1.3484
  615MOL0     H82971   1.553   8.002   4.580  0.5676 -2.8578 -0.5849
  615MOL0     H82972   1.491   8.164   4.739  1.1581  0.7414 -0.6756
  615MOL0     H82973   1.429   8.036   4.849  1.0378 -1.0651  1.1105
  615MOL0     H82974   1.728   8.029   4.774  0.7294  0.4669  0.6784
  615MOL0     H82975   1.633   7.968   4.915 -2.0431 -1.6922 -1.9554
  615MOL0     H82976   1.623   8.152   5.109 -0.1837  2.7060  2.7277
  615MOL0     H82977   1.663   8.357   5.238  3.3078 -0.1881 -1.5589
  615MOL0     H82978   1.700   8.517   5.171 -2.8883  2.3210 -1.0027
  615MOL0     H82979   1.480   8.556   5.073  0.2195 -0.3834  0.5173
  615MOL0     H82980   1.506   8.552   5.249 -3.5268 -0.8800  1.3120
  615MOL0     H82981   1.424   8.294   5.228 -3.1955 -1.6848  1.1584
  615MOL0     H82982   1.352   8.363   5.076 -1.5379 -0.0076  1.1467
  615MOL0     H82983   1.259   8.539   5.230  3.0506 -1.5338 -2.2058
  615MOL0     H82984   1.296   8.448   5.370  1.6283 -0.2696 -1.2040
  615MOL0     H82985   0.954   8.217   5.208  1.9665 -1.1903  2.4146
  615MOL0     H82986   0.630   8.340   5.166 -1.2777 -0.9092 -0.6950
  615MOL0     H82987   0.723   8.177   5.188 -1.5746 -1.8728  2.4766
  615MOL0     H82988   0.611   8.234   5.310  0.8476  0.9313  0.7659
  615MOL0     H82989   0.514   8.777   5.252  1.0119  0.3460  0.8917
  615MOL0     H82990   0.289   8.906   5.271  2.4010  1.4772 -0.2418
  615MOL0     H82991  -0.014   8.719   5.518 -3.5873  0.0435 -0.7588
  615MOL0     H82992   0.032   8.825   5.655 -1.0671 -1.8079 -0.2062
  615MOL0     H82993  -0.188   8.879   5.593  1.8631 -0.4753  1.9018
  615MOL0     H82994  -0.078   9.019   5.547 -0.0996 -0.3145 -0.0210
  615MOL0     H82995  -0.083   8.928   5.323  1.0006  0.0757  2.1192
  615MOL0     H82996  -0.246   8.984   5.362  1.7135  2.1576  2.1257
  615MOL0     H82997  -0.221   8.761   5.237 -0.7135 -0.6380  0.4905
  615MOL0     H82998  -0.178   8.683   5.387  2.5017  0.9714  0.5489
  615MOL0     H82999  -0.427   8.865   5.361  0.4646  0.7177  0.0531
  615MOL0     H83000  -0.382   8.747   5.501  1.8710 -2.9432 -0.6766
  615MOL0     H83001  -0.428   8.665   5.209 -0.6713  2.0030 -0.0616
  615MOL0     H83002  -0.422   8.562   5.357 -1.7668  0.1418  2.2673
  615MOL0     H83003  -0.639   8.732   5.263  1.7877  0.0299 -1.0139
  615MOL0     H83004  -0.643   8.715   5.433 -3.2412  0.3734 -0.3626
  615MOL0     H83005  -0.652   8.465   5.412  1.0178 -0.0466 -0.7607
  615MOL0     H83006  -0.644   8.486   5.230  4.4804 -0.3255  1.5192
  615MOL0     H83007   0.198   8.671   5.615  3.3104 -2.6529  1.8164
  615MOL0     H83008   0.411   8.559   5.598  1.5893  0.0847 -0.9283
  615MOL0     H83009   0.872   8.615   5.482 -1.4709 -0.8862  0.7092
  615MOL0     H83010   1.080   8.559   5.431  0.3586 -2.7458  2.3697
  615MOL0     H83011   1.455   7.426   4.267 -1.1032  2.1938 -0.0661
  615MOL0     H83012   1.504   7.203   4.327 -0.5107  2.8103 -3.1787
  615MOL0     H83013   1.273   6.896   4.671  1.1999  2.6404  1.3879
  615MOL0     H83014   1.280   6.655   4.749 -0.4205  1.5129  0.5928
  615MOL0     H83015   1.363   6.479   4.898  0.4484 -0.3665  1.1118
  615MOL0     H83016   1.355   6.427   4.728 -0.1363  0.0487 -0.2288
  615MOL0     H83017   1.547   6.314   4.945 -4.2855  1.1889  2.1803
  615MOL0     H83018   1.534   6.255   4.778  2.0041  0.5311  0.7684
  615MOL0     H83019   1.293   6.192   4.823  1.1919  0.7801 -0.4840
  615MOL0     H83020   1.324   6.225   4.997  0.7304 -0.5964  1.0231
  615MOL0     H83021   1.446   6.006   4.814  2.1652  0.6317  0.1087
  615MOL0     H83022   1.337   5.982   4.935  1.9420 -3.0434 -2.1110
  615MOL0     H83023   1.733   6.057   5.123 -2.8109  3.3052  1.7309
  615MOL0     H83024   1.707   6.682   4.729 -0.9640 -1.3041  2.4261
  615MOL0     H83025   1.672   6.909   4.608 -1.7256  2.8195  1.7958
  616MOL0     O83026   2.916   6.424  11.118  0.2358 -0.1525 -0.1705
  616MOL0     C83027   2.856   6.477  11.214 -0.9056 -1.0287  0.3696
  616MOL0     O83028   2.796   6.607  11.202  0.1919  0.7790  0.5850
  616MOL0     C83029   2.824   6.669  11.085 -0.8077 -0.4784  0.1207
  616MOL0     C83030   2.922   6.759  11.077  0.1887 -0.0646 -0.7411
  616MOL0     C83031   2.942   6.819  10.956  0.7332  1.3227  0.2085
  616MOL0     C83032   2.856   6.786  10.851 -0.4888 -0.7816 -0.0283
  616MOL0     O83033   2.874   6.839  10.729  0.3940 -0.0701  0.3279
  616MOL0     C83034   3.001   6.828  10.657 -0.0215 -0.6436  0.3167
  616MOL0     C83035   2.960   6.883  10.525 -0.9268 -0.3498 -0.7480
  616MOL0     C83036   3.065   6.903  10.417  0.1021  0.0225 -0.9391
  616MOL0     C83037   3.021   6.975  10.286 -0.0488 -0.2691  0.2780
  616MOL0     C83038   3.132   6.980  10.183 -0.3050 -0.2360 -0.7689
  616MOL0     C83039   3.085   7.036  10.048  0.4956 -0.5848  0.0067
  616MOL0     C83040   3.192   7.037   9.940 -1.0614  0.5886 -0.3317
  616MOL0     C83041   3.248   6.895   9.905 -0.4512 -0.6472 -0.6514
  616MOL0     N83042   3.338   6.894   9.784  0.9810 -0.1027  0.2029
  616MOL0     C83043   3.340   6.803   9.675 -1.1615  0.0528  0.5557
  616MOL0     C83044   3.449   6.826   9.603 -0.8928 -0.4480 -0.4194
  616MOL0     C83045   3.502   6.733   9.499 -0.5772  0.3033 -0.1245
  616MOL0     C83046   3.459   6.756   9.352  0.5789  0.0884 -0.2853
  616MOL0     C83047   3.469   6.906   9.299  0.2648 -0.5179  0.0248
  616MOL0     C83048   3.577   6.913   9.197  0.0948 -0.5018 -0.0173
  616MOL0     O83049   3.527   7.007   9.110 -0.0171  0.5032  0.5530
  616MOL0     C83050   3.602   7.053   9.000 -0.2569  0.1327 -0.6227
  616MOL0     C83051   3.545   7.134   8.917  0.9929 -0.1507  0.0907
  616MOL0     C83052   3.606   7.185   8.804  0.3412  0.1346 -0.7498
  616MOL0     C83053   3.533   7.282   8.716  0.0278  0.7921 -0.2656
  616MOL0     C83054   3.736   7.152   8.779  0.7010 -0.0341  0.1135
  616MOL0     C83055   3.820   7.211   8.660  0.3960  0.1453 -0.5171
  616MOL0     O83056   3.940   7.257   8.697  0.6294  0.7462  0.5472
  616MOL0     C83057   4.008   7.356   8.625  0.2106  0.4593 -0.3917
  616MOL0     C83058   4.142   7.385   8.656  0.8208  0.0422 -0.1042
  616MOL0     C83059   4.213   7.481   8.581 -0.0884  0.2579  0.3979
  616MOL0     C83060   4.165   7.538   8.458  0.2553  0.8550 -0.2683
  616MOL0     O83061   4.232   7.633   8.382 -0.3335 -0.2575  0.7157
  616MOL0     C83062   4.372   7.642   8.392 -0.1245  0.8566 -0.2015
  616MOL0     C83063   4.438   7.719   8.282  0.1422 -0.0877  0.2925
  616MOL0     C83064   4.465   7.652   8.140 -0.6256 -0.6062 -0.0880
  616MOL0     C83065   4.336   7.585   8.075 -0.0290 -0.2277 -1.0967
  616MOL0     C83066   4.223   7.692   8.052  0.1308  0.4829 -0.4041
  616MOL0     C83067   4.119   7.636   7.961 -0.4148  1.3750  0.7317
  616MOL0     C83068   4.009   7.730   7.917  0.2130  0.7645  0.7973
  616MOL0     C83069   3.965   7.692   7.779 -0.7345 -0.7159 -0.8202
  616MOL0    Cl83070   3.847   7.557   7.797  0.2754  0.0887  0.1166
  616MOL0     C83071   4.027   7.524   8.438  0.4348 -0.0713 -0.1611
  616MOL0     C83072   3.949   7.437   8.521 -0.6359  0.1281 -0.1297
  616MOL0     O83073   3.779   7.202   8.546  0.4698 -0.9756  0.2076
  616MOL0     C83074   3.801   7.072   8.868  0.9531  0.2870 -0.4117
  616MOL0     C83075   3.736   7.007   8.971  0.1511  0.0670 -0.8477
  616MOL0     N83076   3.514   6.935   9.653  0.4242  0.2475 -0.3998
  616MOL0     N83077   3.458   6.966   9.766  0.7672 -0.8568  0.0679
  616MOL0     C83078   2.741   6.713  10.874 -0.6930 -0.0034 -0.2850
  616MOL0     C83079   2.729   6.640  10.987 -0.2244 -0.9306  0.2987
  616MOL0     C83080   2.849   6.415  11.344 -0.1918  0.0180  0.4446
  616MOL0     C83081   2.767   6.463  11.450 -0.0354  0.7581  0.9482
  616MOL0     C83082   2.780   6.413  11.574 -0.0348 -0.5868  0.4810
  616MOL0     C83083   2.850   6.299  11.613  0.2691  0.3967  0.0978
  616MOL0     O83084   2.829   6.260  11.743 -0.0549 -0.2118  0.1769
  616MOL0     C83085   2.876   6.129  11.792 -0.3724  0.2055 -1.0520
  616MOL0     C83086   2.847   6.118  11.944  0.5145  0.3946 -0.4793
  616MOL0     C83087   2.690   6.144  11.973  0.0503 -0.4042  1.0362
  616MOL0     C83088   2.672   6.134  12.127 -0.1088  0.9348  0.4084
  616MOL0     C83089   2.597   6.013  12.170 -0.2477  0.4116  0.1052
  616MOL0     C83090   2.529   5.912  12.195  0.2391 -0.1942  0.7637
  616MOL0     C83091   2.930   6.244  11.512 -0.8541 -1.2788 -0.3084
  616MOL0     C83092   2.931   6.304  11.375  0.0791 -0.6356 -0.4369
  616MOL0     H83093   3.003   6.775  11.147  0.4537 -1.3320 -0.7374
  616MOL0     H83094   3.027   6.883  10.935  0.6551  0.2263 -4.5889
  616MOL0     H83095   3.071   6.896  10.707  0.1357  0.9248 -1.9099
  616MOL0     H83096   3.053   6.732  10.647 -0.1350 -0.9089  2.0199
  616MOL0     H83097   2.889   6.809  10.486 -0.9149 -1.6430  1.5571
  616MOL0     H83098   2.910   6.980  10.536  4.4071  2.7661 -0.5238
  616MOL0     H83099   3.143   6.961  10.467  1.0225 -2.5274  0.8197
  616MOL0     H83100   3.101   6.808  10.376  1.5182  1.5811 -3.6235
  616MOL0     H83101   2.932   6.920  10.255 -2.1309  2.1508  1.5182
  616MOL0     H83102   2.992   7.079  10.306  0.8845 -0.4263  2.7630
  616MOL0     H83103   3.218   7.039  10.217  0.7991 -1.6638 -1.0017
  616MOL0     H83104   3.165   6.876  10.189 -2.7128 -0.9928  1.7244
  616MOL0     H83105   2.999   6.973  10.023 -0.3023 -1.3798  4.0822
  616MOL0     H83106   3.042   7.136  10.065 -3.2678 -1.7623 -1.5020
  616MOL0     H83107   3.134   7.088   9.861 -2.5032  2.1760  1.6520
  616MOL0     H83108   3.282   7.095   9.962  0.4312 -1.2300 -1.3022
  616MOL0     H83109   3.166   6.824   9.891  0.1814 -0.9824 -2.9915
  616MOL0     H83110   3.322   6.873   9.983 -0.2793  6.4225  1.9410
  616MOL0     H83111   3.271   6.721   9.660 -1.1311 -0.3306  2.2504
  616MOL0     H83112   3.611   6.724   9.508 -0.2477  2.3562 -1.3762
  616MOL0     H83113   3.477   6.631   9.531  0.4551  0.1235  0.1435
  616MOL0     H83114   3.354   6.728   9.348  0.4308  0.7127 -2.5118
  616MOL0     H83115   3.522   6.685   9.297  0.1950 -2.0539  1.8534
  616MOL0     H83116   3.476   6.970   9.388 -3.2844  0.0463  0.0450
  616MOL0     H83117   3.366   6.922   9.265  0.5322 -0.7484 -0.9328
  616MOL0     H83118   3.601   6.814   9.157 -1.2679 -1.3152  1.1028
  616MOL0     H83119   3.669   6.952   9.242 -0.2288  1.0683 -0.6436
  616MOL0     H83120   3.450   7.173   8.950  0.8080  0.5210 -1.1629
  616MOL0     H83121   3.600   7.359   8.678 -2.4222  1.8634 -2.7477
  616MOL0     H83122   3.474   7.234   8.637 -0.7035 -1.4297  1.5030
  616MOL0     H83123   3.467   7.341   8.781  0.9090  0.7609  0.6852
  616MOL0     H83124   4.192   7.340   8.741 -0.2902  2.7206  2.0915
  616MOL0     H83125   4.314   7.493   8.617  0.1160  0.8001 -0.3302
  616MOL0     H83126   4.397   7.691   8.486  0.3443  2.1313 -0.9586
  616MOL0     H83127   4.412   7.541   8.386 -0.0410  0.8354  0.6228
  616MOL0     H83128   4.390   7.817   8.276  1.0323  0.5723  2.6873
  616MOL0     H83129   4.536   7.756   8.315  0.5092  2.7578 -3.3247
  616MOL0     H83130   4.541   7.574   8.151 -1.5050 -1.9539 -2.7059
  616MOL0     H83131   4.506   7.719   8.064 -2.0194  0.2454 -0.1336
  616MOL0     H83132   4.366   7.528   7.986  0.7352 -4.9638  1.8745
  616MOL0     H83133   4.293   7.505   8.135 -2.6084 -0.2721 -2.8372
  616MOL0     H83134   4.271   7.780   8.007  3.3809 -1.0891 -0.2756
  616MOL0     H83135   4.169   7.719   8.144  1.5958 -1.0304  0.9692
  616MOL0     H83136   4.159   7.592   7.869 -3.8016 -0.8864  0.1493
  616MOL0     H83137   4.080   7.546   8.008  0.9963 -1.6590 -3.3459
  616MOL0     H83138   4.048   7.832   7.913  2.0361  0.0674 -2.3691
  616MOL0     H83139   3.915   7.722   7.972 -2.4901 -0.7788 -3.5612
  616MOL0     H83140   4.051   7.664   7.716 -0.4017  1.8135 -1.6245
  616MOL0     H83141   3.921   7.774   7.722 -2.0226 -0.8894 -0.0998
  616MOL0     H83142   3.978   7.572   8.354 -2.4604 -3.2486 -0.4898
  616MOL0     H83143   3.842   7.425   8.505 -0.6815 -0.5839  0.6682
  616MOL0     H83144   3.909   7.058   8.858  1.5741  3.8315  0.0942
  616MOL0     H83145   3.788   6.938   9.037  1.4743  0.3882 -1.5059
  616MOL0     H83146   2.672   6.701  10.791 -0.5214  0.4292 -0.4946
  616MOL0     H83147   2.655   6.562  11.000  2.1021 -3.1816  0.8052
  616MOL0     H83148   2.696   6.540  11.422  1.2054  0.8738 -2.3092
  616MOL0     H83149   2.713   6.448  11.652  0.9231 -1.4456  1.7294
  616MOL0     H83150   2.828   6.048  11.737 -0.1710 -0.8678  0.3162
  616MOL0     H83151   2.984   6.141  11.782 -0.5900  2.7922 -1.0645
  616MOL0     H83152   2.917   6.183  11.997 -0.7985  0.5294  1.1555
  616MOL0     H83153   2.873   6.019  11.982  1.9604  0.5901 -0.8587
  616MOL0     H83154   2.627   6.077  11.914  3.0899 -0.3809 -2.6481
  616MOL0     H83155   2.671   6.245  11.934  1.7528 -0.0736  0.9879
  616MOL0     H83156   2.611   6.218  12.162 -1.7275 -0.4421  1.0587
  616MOL0     H83157   2.768   6.131  12.179  1.9186 -1.5132 -3.0014
  616MOL0     H83158   2.479   5.818  12.209  0.4575 -0.1146  2.2600
  616MOL0     H83159   2.999   6.162  11.532  0.6503  0.1983  0.8547
  616MOL0     H83160   2.988   6.258  11.295  0.2788 -0.8634 -0.1632
  617MOL0     O83161   9.463  10.132   6.439 -0.1103 -0.3017 -0.3590
  617MOL0     C83162   9.524  10.059   6.510 -0.2558 -0.3179 -1.0074
  617MOL0     O83163   9.481   9.925   6.544  0.0514 -0.4920 -0.3011
  617MOL0     C83164   9.347   9.901   6.553 -0.0096 -0.6569 -0.3556
  617MOL0     C83165   9.241   9.998   6.562  0.2990  0.0065  0.3756
  617MOL0     C83166   9.106   9.953   6.574 -0.4328 -0.2458  0.6088
  617MOL0     C83167   9.076   9.814   6.575 -0.4109  0.3016 -0.3334
  617MOL0     O83168   8.947   9.753   6.603 -0.7425 -0.2787  0.3117
  617MOL0     C83169   8.839   9.845   6.621  0.4956  1.2526  0.1504
  617MOL0     C83170   8.698   9.774   6.612 -0.4620  0.1296 -0.1474
  617MOL0     C83171   8.581   9.856   6.660  0.2339 -0.3020  1.5525
  617MOL0     C83172   8.529   9.971   6.564  0.1345 -0.1750  0.5717
  617MOL0     C83173   8.399  10.013   6.612  0.4079 -0.5822  0.5945
  617MOL0     C83174   8.336  10.143   6.550 -0.4766 -0.6846  0.7415
  617MOL0     C83175   8.312  10.119   6.394  0.8086 -0.2997  0.3725
  617MOL0     C83176   8.255  10.233   6.317  0.3948  0.4047  0.8553
  617MOL0     N83177   8.111  10.250   6.352 -0.0881  0.3715  0.0282
  617MOL0     C83178   7.994  10.206   6.285 -0.2853 -0.5886  0.3307
  617MOL0     C83179   7.885  10.258   6.363 -0.8752 -0.4802  0.2044
  617MOL0     C83180   7.741  10.234   6.352 -0.4128 -0.0871 -0.2895
  617MOL0     C83181   7.679  10.298   6.221  0.4041  0.6837 -0.3690
  617MOL0     C83182   7.527  10.259   6.217 -0.7608  0.7918  0.1856
  617MOL0     C83183   7.450  10.313   6.096 -0.2805  0.0456  0.4176
  617MOL0     O83184   7.482  10.239   5.978 -0.3058  0.7166 -0.1158
  617MOL0     C83185   7.406  10.255   5.867  0.2299 -0.2171  0.9573
  617MOL0     C83186   7.424  10.168   5.762  0.1910  0.2147 -0.5658
  617MOL0     C83187   7.350  10.174   5.644 -0.0558  0.6013  0.4816
  617MOL0     C83188   7.370  10.050   5.560  0.3058 -0.5924 -0.2899
  617MOL0     C83189   7.245  10.270   5.632  0.1646  0.9609 -0.1401
  617MOL0     C83190   7.162  10.279   5.513  0.3107 -0.9114 -0.0299
  617MOL0     O83191   7.221  10.244   5.394 -0.0805  0.1691  0.0671
  617MOL0     C83192   7.141  10.233   5.287  0.0811 -0.1642 -0.5857
  617MOL0     C83193   7.162  10.319   5.180  1.0679  0.4210 -0.9180
  617MOL0     C83194   7.067  10.307   5.075  0.1248 -0.3468  0.0081
  617MOL0     C83195   6.953  10.228   5.080 -0.2998 -0.4534 -0.3784
  617MOL0     O83196   6.846  10.235   4.981 -0.1183  0.8393  0.1982
  617MOL0     C83197   6.713  10.225   5.046 -0.7194 -0.6059 -0.2986
  617MOL0     C83198   6.613  10.318   4.971  0.3401  0.3089  0.3768
  617MOL0     C83199   6.475  10.300   5.022  0.2729  0.9996 -0.0116
  617MOL0     C83200   6.359  10.323   4.920  0.9694  0.4732  0.3006
  617MOL0     C83201   6.224  10.288   5.001 -1.2775 -0.0798  0.1865
  617MOL0     C83202   6.107  10.333   4.914 -0.8276 -0.3027  0.0562
  617MOL0     C83203   5.971  10.303   4.978 -1.9912 -0.8308 -0.2266
  617MOL0     C83204   5.860  10.402   4.930  0.0302  0.5814 -0.2174
  617MOL0    Cl83205   5.822  10.387   4.763  0.0738  0.1739 -0.1136
  617MOL0     C83206   6.946  10.133   5.182  1.1553 -0.0224  0.1685
  617MOL0     C83207   7.044  10.132   5.281  0.2909  0.6484  0.2873
  617MOL0     O83208   7.041  10.310   5.533 -0.5325 -0.3048  0.2978
  617MOL0     C83209   7.235  10.369   5.732  0.5570  0.2602  0.3530
  617MOL0     C83210   7.324  10.363   5.840  0.0016 -0.8472  0.5462
  617MOL0     N83211   7.943  10.350   6.456  0.6023 -0.4916 -0.5235
  617MOL0     N83212   8.076  10.349   6.446  0.4551 -0.2994  0.5226
  617MOL0     C83213   9.183   9.723   6.574  0.8125  0.0868  0.0305
  617MOL0     C83214   9.316   9.766   6.557 -0.0138  0.6353  0.7925
  617MOL0     C83215   9.649  10.110   6.575 -1.0058  0.4226  0.2752
  617MOL0     C83216   9.730  10.033   6.669  0.4896  0.2232 -0.7306
  617MOL0     C83217   9.838  10.083   6.737 -0.3924 -0.2296  1.2775
  617MOL0     C83218   9.884  10.210   6.707  0.0578 -0.5800 -0.1178
  617MOL0     O83219   9.993  10.269   6.769  0.3510 -0.0453  0.0002
  617MOL0     C83220  10.001  10.411   6.785 -0.8200  0.3735 -0.0476
  617MOL0     C83221  10.073  10.431   6.924 -0.4971  0.4085 -1.1951
  617MOL0     C83222  10.223  10.376   6.925  0.4546 -0.1670  0.5831
  617MOL0     C83223  10.247  10.272   7.032  0.3289  0.6024  0.9983
  617MOL0     C83224  10.228  10.145   6.959  0.7036  0.1393 -0.9809
  617MOL0     C83225  10.215  10.035   6.901  0.6311 -0.7032 -0.4197
  617MOL0     C83226   9.824  10.279   6.614  0.6544  0.1851  1.0139
  617MOL0     C83227   9.711  10.235   6.544  0.2746 -0.1803 -0.2477
  617MOL0     H83228   9.264  10.104   6.559 -1.6826  0.4411 -1.8156
  617MOL0     H83229   9.035  10.032   6.595  0.0995  0.1150  1.1152
  617MOL0     H83230   8.844   9.876   6.726  1.1357 -3.4990  1.8149
  617MOL0     H83231   8.854   9.931   6.556  2.7931  2.0136  1.5725
  617MOL0     H83232   8.679   9.749   6.507 -0.2146  1.2714 -0.4811
  617MOL0     H83233   8.703   9.681   6.669  2.1938 -0.1736 -0.7585
  617MOL0     H83234   8.505   9.780   6.677 -0.3171  0.4943  2.8384
  617MOL0     H83235   8.595   9.902   6.758 -1.3209 -1.3910  2.3293
  617MOL0     H83236   8.597  10.056   6.567 -3.5481  3.0541  4.2419
  617MOL0     H83237   8.514   9.925   6.466  1.7158  1.3143 -0.4336
  617MOL0     H83238   8.326   9.933   6.597 -1.2311  0.8512  0.7063
  617MOL0     H83239   8.407  10.034   6.719  2.8422  0.3746  0.2872
  617MOL0     H83240   8.244  10.160   6.607 -0.1930 -2.3490  1.7507
  617MOL0     H83241   8.399  10.232   6.559 -0.1916 -0.1392 -3.9411
  617MOL0     H83242   8.400  10.082   6.339  0.7209 -2.0988  1.3479
  617MOL0     H83243   8.248  10.030   6.393  1.4086 -0.7449 -1.2994
  617MOL0     H83244   8.261  10.210   6.210  1.3912 -1.1449  1.2136
  617MOL0     H83245   8.306  10.329   6.323  1.6391  0.2669 -3.6448
  617MOL0     H83246   7.981  10.139   6.201 -3.7314 -0.8625  0.9308
  617MOL0     H83247   7.727  10.126   6.336 -2.3373  0.0043  0.4664
  617MOL0     H83248   7.700  10.271   6.447  1.6936  1.0450  0.2288
  617MOL0     H83249   7.721  10.250   6.132 -0.1292 -1.4099  0.4411
  617MOL0     H83250   7.694  10.405   6.208 -1.4461  0.7616 -2.6416
  617MOL0     H83251   7.476  10.304   6.303 -1.5949 -1.8958  1.1787
  617MOL0     H83252   7.525  10.150   6.221 -1.8861  0.8032  0.4413
  617MOL0     H83253   7.490  10.414   6.093  1.3209 -0.5772 -1.8647
  617MOL0     H83254   7.341  10.314   6.102 -0.4082 -2.1064 -0.4012
  617MOL0     H83255   7.488  10.083   5.784 -0.8399 -0.3914  0.1831
  617MOL0     H83256   7.402   9.976   5.633  0.9555  2.0515  2.3115
  617MOL0     H83257   7.278  10.030   5.504  0.2243  1.9614 -1.2289
  617MOL0     H83258   7.450  10.060   5.486  1.8622  2.2906  1.6093
  617MOL0     H83259   7.251  10.380   5.173  2.0886 -0.7998  0.6475
  617MOL0     H83260   7.084  10.357   4.981  2.3148 -0.1947  0.4273
  617MOL0     H83261   6.675  10.123   5.037 -4.7168  0.5868  1.0842
  617MOL0     H83262   6.712  10.264   5.148  2.0128  3.2558 -1.5086
  617MOL0     H83263   6.655  10.419   4.977  2.2596 -0.4940  1.0776
  617MOL0     H83264   6.608  10.298   4.864 -1.8425  1.6961  0.1528
  617MOL0     H83265   6.465  10.356   5.116  1.9562 -1.1693  1.5876
  617MOL0     H83266   6.467  10.194   5.051  0.5676 -0.0853 -3.4004
  617MOL0     H83267   6.361  10.426   4.881  1.6460  0.3882  0.1139
  617MOL0     H83268   6.374  10.248   4.843  1.6589  2.3320 -1.4689
  617MOL0     H83269   6.229  10.343   5.096 -1.2099  1.2873 -0.5865
  617MOL0     H83270   6.226  10.179   5.007 -5.2888 -0.5079 -2.4231
  617MOL0     H83271   6.119  10.438   4.886  1.5205 -1.0412 -2.1112
  617MOL0     H83272   6.120  10.275   4.822  0.1074  1.5500 -1.0306
  617MOL0     H83273   5.972  10.308   5.087 -1.2482 -3.5945 -0.0410
  617MOL0     H83274   5.953  10.197   4.958 -1.1355 -0.9189 -0.5694
  617MOL0     H83275   5.906  10.498   4.954 -0.3912  0.5914  0.6138
  617MOL0     H83276   5.770  10.383   4.990 -0.3211 -1.5546 -1.3303
  617MOL0     H83277   6.869  10.056   5.187 -1.0142  2.0659  1.2894
  617MOL0     H83278   7.034  10.063   5.365  0.1208 -0.2095 -0.4264
  617MOL0     H83279   7.154  10.441   5.732 -2.0092 -2.4086  0.2889
  617MOL0     H83280   7.321  10.435   5.920  0.5965  1.7225 -1.6152
  617MOL0     H83281   9.154   9.622   6.600  0.7210  0.7468  2.6939
  617MOL0     H83282   9.384   9.683   6.547  1.5488  1.7885  1.4267
  617MOL0     H83283   9.678   9.939   6.685 -0.8258  0.4705 -3.1100
  617MOL0     H83284   9.886  10.024   6.814  0.4832 -1.1271  0.0865
  617MOL0     H83285  10.050  10.472   6.708  2.1726 -0.6765  0.9225
  617MOL0     H83286   9.901  10.455   6.798 -0.2016  1.7807  0.1565
  617MOL0     H83287  10.005  10.389   6.999 -0.6963  2.0982 -0.3893
  617MOL0     H83288  10.078  10.539   6.942 -1.5804  1.0902 -4.3297
  617MOL0     H83289  10.285  10.460   6.957 -1.1537 -0.2642  4.5786
  617MOL0     H83290  10.249  10.351   6.822 -1.5974  2.5978 -0.7411
  617MOL0     H83291  10.189  10.290   7.123 -1.1331 -1.2999  0.5062
  617MOL0     H83292  10.352  10.263   7.065  1.0713 -1.7748 -1.6446
  617MOL0     H83293  10.208   9.945   6.844  1.3756 -2.0860  1.5411
  617MOL0     H83294   9.855  10.379   6.583  1.2268  0.3313  2.0042
  617MOL0     H83295   9.666  10.305   6.474  1.9228 -0.2106 -1.3694
  618MOL0     O83296   3.257   0.158  11.336 -0.0007  0.3486 -0.2995
  618MOL0     C83297   3.293   0.086  11.430  0.8512  0.4024  0.4741
  618MOL0     O83298   3.410   0.099  11.502  0.0682 -0.1564 -0.0403
  618MOL0     C83299   3.518   0.172  11.464  0.2399  0.0032  0.8626
  618MOL0     C83300   3.554   0.187  11.333 -0.4701  0.0919 -0.9111
  618MOL0     C83301   3.666   0.269  11.303  0.1279 -0.1422  0.4937
  618MOL0     C83302   3.737   0.341  11.406  0.6277 -1.0428  0.1883
  618MOL0     O83303   3.844   0.420  11.382  0.7787  0.0085  0.3649
  618MOL0     C83304   3.833   0.500  11.258 -0.2906  0.9129 -0.6661
  618MOL0     C83305   3.968   0.567  11.244 -0.6622  0.0256  0.2798
  618MOL0     C83306   4.086   0.486  11.165  0.2804  0.2328 -0.2573
  618MOL0     C83307   4.103   0.355  11.227  0.0093  0.7226 -0.1822
  618MOL0     C83308   4.208   0.283  11.146  0.3235  0.5182 -0.6284
  618MOL0     C83309   4.207   0.134  11.183  0.1314 -0.0939  0.7340
  618MOL0     C83310   4.239   0.116  11.329 -0.7996  0.0804 -0.1769
  618MOL0     C83311   4.248  -0.030  11.381  0.1546  0.5890 -0.2704
  618MOL0     N83312   4.116  -0.084  11.382 -0.4543  0.9395  0.2395
  618MOL0     C83313   4.048  -0.103  11.500 -0.3913 -0.3326 -0.1840
  618MOL0     C83314   3.942  -0.185  11.466 -0.0441 -0.7563 -0.1111
  618MOL0     C83315   3.844  -0.220  11.567 -0.6841  0.0404  0.2080
  618MOL0     C83316   3.713  -0.140  11.560  1.0957 -0.7414 -0.4116
  618MOL0     C83317   3.661  -0.080  11.694  0.8062 -0.6265  1.1837
  618MOL0     C83318   3.627  -0.184  11.802 -0.1334 -0.2878  0.6092
  618MOL0     O83319   3.493  -0.234  11.776 -0.2844  1.1323 -0.3199
  618MOL0     C83320   3.462  -0.347  11.853  0.0318 -0.2653  0.0303
  618MOL0     C83321   3.368  -0.431  11.801  0.2693  0.0780 -0.0754
  618MOL0     C83322   3.313  -0.537  11.879 -0.7361 -0.2754 -0.5561
  618MOL0     C83323   3.218  -0.637  11.808 -0.2208  0.3119  0.1863
  618MOL0     C83324   3.347  -0.552  12.012 -0.0140 -0.7273 -0.4368
  618MOL0     C83325   3.282  -0.649  12.108 -0.3214  0.3419  0.1720
  618MOL0     O83326   3.353  -0.691  12.217 -0.0095  0.6958 -0.2701
  618MOL0     C83327   3.302  -0.809  12.273 -0.3353  0.3370  0.5257
  618MOL0     C83328   3.209  -0.804  12.365  0.9088  0.0410 -0.0456
  618MOL0     C83329   3.155  -0.927  12.428 -0.2112 -0.5057 -0.2693
  618MOL0     C83330   3.202  -1.049  12.396  0.6339  0.0184  0.7913
  618MOL0     O83331   3.129  -1.150  12.450  1.2528 -0.1328  0.5565
  618MOL0     C83332   3.144  -1.274  12.378  0.7293 -0.2897  0.5481
  618MOL0     C83333   3.007  -1.347  12.404 -0.2834  0.0251 -0.0773
  618MOL0     C83334   3.009  -1.486  12.360  0.1752  0.1642  0.1728
  618MOL0     C83335   3.049  -1.587  12.485  0.2745 -0.0306 -0.4736
  618MOL0     C83336   3.031  -1.736  12.466 -0.6274 -0.2730 -0.1253
  618MOL0     C83337   3.150  -1.792  12.390 -0.5044  0.7738  0.6691
  618MOL0     C83338   3.292  -1.760  12.446 -0.9875 -0.0056  0.8027
  618MOL0     C83339   3.404  -1.834  12.372 -0.0879  0.0102 -0.1551
  618MOL0    Cl83340   3.563  -1.811  12.450 -0.0151  0.3305  0.0835
  618MOL0     C83341   3.310  -1.057  12.316 -0.6373  0.3382 -0.1856
  618MOL0     C83342   3.357  -0.940  12.256 -0.3101  0.1912  0.0290
  618MOL0     O83343   3.163  -0.671  12.086 -0.6020  0.0720  0.4436
  618MOL0     C83344   3.434  -0.460  12.064  0.0113 -0.4724 -0.6677
  618MOL0     C83345   3.487  -0.358  11.985 -0.4287  0.7974 -0.4635
  618MOL0     N83346   3.965  -0.224  11.339  0.7568  0.2750  0.2069
  618MOL0     N83347   4.070  -0.173  11.291 -0.4127  0.7888 -0.0618
  618MOL0     C83348   3.688   0.331  11.541  0.1448  0.1460 -0.3044
  618MOL0     C83349   3.574   0.246  11.564 -0.2209  0.8677  1.3388
  618MOL0     C83350   3.204  -0.025  11.471  0.8741 -1.8609  1.2265
  618MOL0     C83351   3.235  -0.107  11.575 -0.5098 -1.0849 -0.3216
  618MOL0     C83352   3.145  -0.208  11.614 -0.4853  0.6256  0.1177
  618MOL0     C83353   3.023  -0.236  11.558 -0.8436 -0.0167  0.1713
  618MOL0     O83354   2.929  -0.323  11.604  0.6725  0.1777  0.6264
  618MOL0     C83355   2.943  -0.356  11.742  0.2194 -0.1286  0.3203
  618MOL0     C83356   2.803  -0.393  11.797  0.2365  0.8342  0.9686
  618MOL0     C83357   2.816  -0.479  11.926 -0.1707  0.0435  0.6754
  618MOL0     C83358   2.921  -0.426  12.037  0.1242 -0.3658 -0.2509
  618MOL0     C83359   2.855  -0.326  12.128 -0.3661  0.3254 -0.2551
  618MOL0     C83360   2.808  -0.247  12.205 -0.3547  0.7739 -0.2784
  618MOL0     C83361   2.991  -0.156  11.458 -0.9160  0.1112 -0.1828
  618MOL0     C83362   3.078  -0.046  11.416  0.4237  0.7031 -0.1282
  618MOL0     H83363   3.495   0.138  11.256  0.9110 -0.6680 -1.5179
  618MOL0     H83364   3.675   0.275  11.195  2.2197 -1.3164  0.5612
  618MOL0     H83365   3.816   0.448  11.164  3.5248  0.2038 -1.1206
  618MOL0     H83366   3.761   0.580  11.277 -2.2169 -0.5176 -1.5893
  618MOL0     H83367   3.943   0.649  11.176 -1.6713  1.7210  2.5843
  618MOL0     H83368   3.997   0.627  11.330  0.7085  2.9908 -2.0830
  618MOL0     H83369   4.062   0.475  11.059  0.6159 -2.5958 -0.1156
  618MOL0     H83370   4.183   0.537  11.169  0.0442  0.5907  1.8592
  618MOL0     H83371   4.131   0.375  11.331 -0.1041  0.6354 -0.1338
  618MOL0     H83372   4.010   0.297  11.222  1.1109 -1.0458 -1.0849
  618MOL0     H83373   4.184   0.298  11.040 -1.1762 -2.1401 -0.7487
  618MOL0     H83374   4.306   0.321  11.177  0.6190 -1.3308  0.8896
  618MOL0     H83375   4.108   0.097  11.156  1.0581 -2.5028  0.4157
  618MOL0     H83376   4.271   0.072  11.120 -0.9172  1.5585 -2.1361
  618MOL0     H83377   4.342   0.153  11.339 -1.7437  2.3941  2.1077
  618MOL0     H83378   4.167   0.173  11.389 -2.2564 -1.2973 -0.5424
  618MOL0     H83379   4.282  -0.026  11.485  1.0991  0.9373 -0.5814
  618MOL0     H83380   4.323  -0.086  11.324  2.0311  3.1750 -0.5608
  618MOL0     H83381   4.063  -0.051  11.594 -2.3208  1.7963 -0.9504
  618MOL0     H83382   3.822  -0.327  11.570 -2.8094  0.1550 -3.8753
  618MOL0     H83383   3.900  -0.195  11.657  2.1584  0.1371 -1.4540
  618MOL0     H83384   3.630  -0.188  11.508 -1.1549  1.3693  1.0254
  618MOL0     H83385   3.737  -0.057  11.493  0.8354  1.5824  2.1937
  618MOL0     H83386   3.570  -0.024  11.671  1.8859  1.2567  1.2605
  618MOL0     H83387   3.729  -0.003  11.731 -1.3201  2.3416 -0.6891
  618MOL0     H83388   3.637  -0.135  11.899 -2.3850 -1.2740  1.3977
  618MOL0     H83389   3.703  -0.262  11.795  1.9899  1.7095 -0.3774
  618MOL0     H83390   3.346  -0.419  11.696  0.8654  0.9155 -0.1191
  618MOL0     H83391   3.119  -0.633  11.856 -0.9201  1.4400 -1.2784
  618MOL0     H83392   3.213  -0.618  11.701  1.8703  1.0752  0.1790
  618MOL0     H83393   3.256  -0.740  11.811  2.5534  1.2427 -0.2187
  618MOL0     H83394   3.148  -0.716  12.385  1.8371  1.1738 -1.9707
  618MOL0     H83395   3.071  -0.913  12.495 -0.5690 -3.2797 -0.0062
  618MOL0     H83396   3.158  -1.269  12.270  3.8599 -1.7168  0.7820
  618MOL0     H83397   3.226  -1.337  12.412  2.0892 -0.3996 -2.5655
  618MOL0     H83398   2.973  -1.322  12.505 -1.7536 -0.6928 -0.3735
  618MOL0     H83399   2.931  -1.288  12.351  0.3720  2.2363  1.3148
  618MOL0     H83400   3.063  -1.491  12.266 -3.4272 -0.7422 -2.0568
  618MOL0     H83401   2.906  -1.516  12.337 -0.0816  0.8494  0.3851
  618MOL0     H83402   3.145  -1.555  12.525  0.6847 -2.4147  0.5825
  618MOL0     H83403   2.983  -1.563  12.569  2.1788  1.6834  0.6323
  618MOL0     H83404   2.938  -1.754  12.413 -1.2752  0.8447  0.5878
  618MOL0     H83405   3.031  -1.788  12.562  0.8393  0.5918  0.3808
  618MOL0     H83406   3.137  -1.900  12.378 -0.2768  0.7898  0.2836
  618MOL0     H83407   3.159  -1.752  12.289  0.3226  1.9324  1.1669
  618MOL0     H83408   3.297  -1.785  12.552  0.3411  0.6214  0.9095
  618MOL0     H83409   3.320  -1.655  12.457 -0.8064  0.0209  0.1397
  618MOL0     H83410   3.410  -1.803  12.267  1.8255 -2.6047 -0.9171
  618MOL0     H83411   3.375  -1.939  12.385  1.0828 -0.3178 -0.1615
  618MOL0     H83412   3.354  -1.154  12.291 -1.8569  0.0426 -1.3309
  618MOL0     H83413   3.438  -0.941  12.184 -1.2659 -0.7863 -1.0890
  618MOL0     H83414   3.448  -0.449  12.171 -3.5244  2.9828 -0.3117
  618MOL0     H83415   3.548  -0.287  12.039  0.0252 -0.0604  0.1686
  618MOL0     H83416   3.725   0.402  11.615  1.4559  1.2315 -1.9248
  618MOL0     H83417   3.529   0.228  11.661 -1.3032 -1.2196  0.5004
  618MOL0     H83418   3.329  -0.092  11.626 -0.5239 -0.6429 -0.4230
  618MOL0     H83419   3.158  -0.265  11.706 -2.5841  0.6780  0.4925
  618MOL0     H83420   3.010  -0.441  11.752 -1.4011 -1.4104  0.7515
  618MOL0     H83421   2.980  -0.273  11.803  2.7776 -0.7108 -0.3492
  618MOL0     H83422   2.752  -0.456  11.723 -2.5648 -2.7975  5.4863
  618MOL0     H83423   2.740  -0.307  11.820  0.2333  0.8570  0.8771
  618MOL0     H83424   2.837  -0.582  11.897  0.4668  0.5859 -0.8999
  618MOL0     H83425   2.719  -0.474  11.977 -0.6675  1.0483 -0.3317
  618MOL0     H83426   3.019  -0.392  12.001  1.3247  0.1212  3.0845
  618MOL0     H83427   2.945  -0.510  12.103 -0.2515 -0.6816 -0.5214
  618MOL0     H83428   2.776  -0.175  12.278  0.3892  2.0857 -1.1839
  618MOL0     H83429   2.892  -0.178  11.420 -2.8815 -0.9740  4.8851
  618MOL0     H83430   3.050   0.027  11.341 -2.4196  0.3081  0.3966
  619MOL0     O83431   7.389   0.349   0.856  0.2499 -0.0006  0.3235
  619MOL0     C83432   7.386   0.267   0.950  1.0390 -0.3814 -0.7199
  619MOL0     O83433   7.453   0.281   1.064 -0.0491 -0.6294  0.3207
  619MOL0     C83434   7.554   0.374   1.052 -0.5283  0.1323 -0.3320
  619MOL0     C83435   7.529   0.510   1.069  0.4563 -0.5717 -0.5843
  619MOL0     C83436   7.630   0.606   1.069 -0.6275 -0.1672 -0.1415
  619MOL0     C83437   7.766   0.567   1.057 -0.5296 -0.3581 -0.7373
  619MOL0     O83438   7.876   0.648   1.062 -0.1708  0.6551  0.8204
  619MOL0     C83439   7.858   0.782   1.109 -0.7545  0.3345  0.0355
  619MOL0     C83440   7.975   0.878   1.080 -0.0612  0.0571 -0.4786
  619MOL0     C83441   8.060   0.858   0.954  0.1735  0.2714 -0.6721
  619MOL0     C83442   8.171   0.963   0.923 -0.4768  0.8836  0.4120
  619MOL0     C83443   8.239   0.953   0.780  1.2650 -0.0039 -0.5936
  619MOL0     C83444   8.133   0.983   0.668  0.3217 -0.8970 -0.0334
  619MOL0     C83445   8.082   1.125   0.681  0.0273 -0.4412  0.1845
  619MOL0     C83446   7.972   1.157   0.579 -0.0293 -0.0472 -1.3068
  619MOL0     N83447   7.962   1.308   0.560  0.3956 -0.8323 -0.3654
  619MOL0     C83448   7.886   1.364   0.450 -0.1066 -0.1704  0.0119
  619MOL0     C83449   7.921   1.493   0.458  0.1863  0.0119 -0.2100
  619MOL0     C83450   7.885   1.603   0.361 -0.0374  1.1365  0.2577
  619MOL0     C83451   7.879   1.744   0.417 -0.2014 -0.0850 -0.4433
  619MOL0     C83452   7.821   1.836   0.312 -1.2693  0.1222 -0.1761
  619MOL0     C83453   7.785   1.969   0.372 -0.0144  0.0771  1.0930
  619MOL0     O83454   7.675   1.955   0.456 -0.2664 -0.4811 -0.1125
  619MOL0     C83455   7.582   2.046   0.484 -0.3047 -0.0618  0.7139
  619MOL0     C83456   7.474   2.004   0.563 -0.8093 -0.2786 -1.1373
  619MOL0     C83457   7.377   2.089   0.608  0.4028 -0.5987 -0.0861
  619MOL0     C83458   7.272   2.028   0.689  0.4177 -0.3652  0.2925
  619MOL0     C83459   7.377   2.226   0.572  0.6055 -0.0381  0.8781
  619MOL0     C83460   7.278   2.316   0.632  0.5674 -0.0541  0.1305
  619MOL0     O83461   7.139   2.279   0.632 -0.5169  0.1375  0.0774
  619MOL0     C83462   7.056   2.348   0.717  0.0253  0.1096 -0.5745
  619MOL0     C83463   7.014   2.488   0.692 -0.4700 -0.1675  0.4312
  619MOL0     C83464   6.917   2.549   0.773 -0.2075 -0.0983  0.0239
  619MOL0     C83465   6.858   2.479   0.873  0.6435  0.2607 -0.8591
  619MOL0     O83466   6.753   2.521   0.951 -0.1779  0.1806 -0.5782
  619MOL0     C83467   6.682   2.637   0.901  0.1735 -0.4870  0.7685
  619MOL0     C83468   6.542   2.635   0.965 -0.2131  0.6691  1.0076
  619MOL0     C83469   6.449   2.536   0.894 -0.6748 -0.0734 -0.1712
  619MOL0     C83470   6.406   2.427   0.996 -0.1138 -0.0122  0.1449
  619MOL0     C83471   6.315   2.320   0.939  0.0884  0.2865  0.5908
  619MOL0     C83472   6.380   2.230   0.834 -0.0781  0.5848  0.9633
  619MOL0     C83473   6.492   2.141   0.887  0.0849 -0.5382 -0.2449
  619MOL0     C83474   6.434   2.001   0.927  1.0677 -0.4926  0.3939
  619MOL0    Cl83475   6.587   1.904   0.962 -0.6602 -0.1770  0.3565
  619MOL0     C83476   6.906   2.349   0.898  0.1304  0.3311  0.5319
  619MOL0     C83477   7.000   2.279   0.825 -0.7666 -0.6424 -0.9661
  619MOL0     O83478   7.323   2.412   0.689  0.0841 -0.2790  0.7873
  619MOL0     C83479   7.482   2.261   0.489  0.1414  0.0192  0.4107
  619MOL0     C83480   7.581   2.179   0.441 -0.8109 -0.3585  0.2886
  619MOL0     N83481   8.003   1.516   0.567  0.2220  0.4532  0.0270
  619MOL0     N83482   8.028   1.407   0.631 -0.7809 -0.6664  0.7222
  619MOL0     C83483   7.789   0.431   1.043  0.1400  0.4242  0.6407
  619MOL0     C83484   7.682   0.333   1.035 -0.1368 -0.3578 -0.2981
  619MOL0     C83485   7.276   0.166   0.954 -0.0399  0.9468 -0.3585
  619MOL0     C83486   7.199   0.144   0.839  0.3021  0.4918  0.5285
  619MOL0     C83487   7.088   0.049   0.835 -0.5000 -0.1923 -1.3259
  619MOL0     C83488   7.069  -0.030   0.947  0.7616  0.8797 -0.2955
  619MOL0     O83489   6.974  -0.131   0.928 -0.0365  0.1725 -0.3961
  619MOL0     C83490   6.984  -0.238   1.013  0.0920  1.0972 -0.3662
  619MOL0     C83491   6.912  -0.229   1.144  0.1591 -0.4398 -0.2144
  619MOL0     C83492   6.763  -0.184   1.132  0.6117 -0.4295  0.1419
  619MOL0     C83493   6.676  -0.203   1.252  0.3112  0.1702 -0.7549
  619MOL0     C83494   6.642  -0.343   1.271 -0.2976 -0.0297  0.9948
  619MOL0     C83495   6.608  -0.454   1.294 -0.5166 -0.4170  0.5605
  619MOL0     C83496   7.155  -0.014   1.060  0.3945 -0.6784  0.2546
  619MOL0     C83497   7.261   0.079   1.061 -0.3108  0.0446 -1.0886
  619MOL0     H83498   7.425   0.543   1.073  0.5304 -0.2707 -1.0943
  619MOL0     H83499   7.595   0.708   1.064  1.3196  0.5160 -0.7234
  619MOL0     H83500   7.763   0.828   1.080 -0.5472  1.0266  0.4362
  619MOL0     H83501   7.856   0.757   1.216  3.1759  3.4292  1.0993
  619MOL0     H83502   7.932   0.978   1.079 -0.2726  0.0210  1.4387
  619MOL0     H83503   8.039   0.872   1.169  1.8624  1.9240 -1.6144
  619MOL0     H83504   8.105   0.759   0.967 -2.1362 -0.9437 -1.1809
  619MOL0     H83505   7.991   0.859   0.869 -0.0781  0.4969 -0.4676
  619MOL0     H83506   8.128   1.064   0.932 -3.5084 -0.3330  0.7223
  619MOL0     H83507   8.248   0.948   1.000 -0.5931 -2.2162  0.0545
  619MOL0     H83508   8.323   1.023   0.773  2.7281 -1.4089  1.8167
  619MOL0     H83509   8.280   0.855   0.758  3.3767  0.5699  0.5651
  619MOL0     H83510   8.181   0.961   0.572 -2.0679  0.2398 -1.5887
  619MOL0     H83511   8.042   0.923   0.679 -0.8826  0.7436 -0.8152
  619MOL0     H83512   8.040   1.143   0.780 -0.3371  0.6309 -0.1506
  619MOL0     H83513   8.167   1.191   0.661 -0.0979 -0.7849 -1.6518
  619MOL0     H83514   7.872   1.121   0.606  0.2298  1.5709  2.4383
  619MOL0     H83515   8.012   1.116   0.486 -1.4851  1.5592 -2.6969
  619MOL0     H83516   7.817   1.317   0.380 -1.0391  0.3815  0.5483
  619MOL0     H83517   7.965   1.608   0.286 -0.8514  2.3557 -0.5698
  619MOL0     H83518   7.786   1.577   0.323  1.5284 -1.1806 -2.6866
  619MOL0     H83519   7.979   1.766   0.457  0.1028  1.0803 -1.7934
  619MOL0     H83520   7.812   1.740   0.504  0.9275 -2.7111  0.4048
  619MOL0     H83521   7.730   1.788   0.277 -1.9930 -0.6447  2.5207
  619MOL0     H83522   7.888   1.847   0.226 -0.4107 -3.2797 -0.0810
  619MOL0     H83523   7.759   2.037   0.289  1.5082 -1.9812 -1.1974
  619MOL0     H83524   7.866   2.011   0.432  0.3086 -0.9045  1.3565
  619MOL0     H83525   7.474   1.902   0.601 -2.1688  0.7132  1.8015
  619MOL0     H83526   7.181   2.019   0.628  1.4241 -3.1847 -0.9508
  619MOL0     H83527   7.299   1.937   0.743  0.3439 -0.1577  0.6779
  619MOL0     H83528   7.243   2.101   0.765 -3.4772  0.6850 -1.8703
  619MOL0     H83529   7.060   2.543   0.610  0.1684 -1.8453 -0.3875
  619MOL0     H83530   6.896   2.653   0.748  0.1839 -0.3945 -1.6633
  619MOL0     H83531   6.741   2.718   0.944 -0.4181 -0.9816  2.5961
  619MOL0     H83532   6.662   2.650   0.794  1.5062 -0.7167  0.4822
  619MOL0     H83533   6.541   2.613   1.073 -1.2109  0.4306  0.9612
  619MOL0     H83534   6.507   2.736   0.944 -1.4710  0.1491  0.5326
  619MOL0     H83535   6.500   2.495   0.806  3.0554  3.1091  0.2128
  619MOL0     H83536   6.363   2.592   0.854  0.7190  3.1934  1.0467
  619MOL0     H83537   6.492   2.370   1.033  1.0274  0.5697 -1.5467
  619MOL0     H83538   6.349   2.479   1.074 -1.1786  1.7862 -1.7420
  619MOL0     H83539   6.225   2.370   0.904  0.2897 -1.0335 -2.1080
  619MOL0     H83540   6.295   2.259   1.028 -0.2442 -0.5757 -0.0629
  619MOL0     H83541   6.306   2.158   0.796 -2.2522  2.3267  1.6925
  619MOL0     H83542   6.415   2.294   0.753 -0.3223 -0.8060 -0.2885
  619MOL0     H83543   6.547   2.190   0.968  0.5709  2.2095 -2.1160
  619MOL0     H83544   6.559   2.115   0.805 -1.7885 -2.2496 -1.3095
  619MOL0     H83545   6.371   1.950   0.853  0.1743  0.0476  0.7745
  619MOL0     H83546   6.379   2.007   1.021 -0.7918 -2.5631 -0.4727
  619MOL0     H83547   6.865   2.292   0.980  1.1804 -2.4303 -0.7510
  619MOL0     H83548   7.044   2.184   0.854  2.2731 -0.9870 -5.5736
  619MOL0     H83549   7.469   2.358   0.441 -3.6755 -1.6161 -2.4336
  619MOL0     H83550   7.636   2.226   0.360  1.1240  0.1365  1.8085
  619MOL0     H83551   7.890   0.391   1.036 -0.2775 -0.6695  0.6812
  619MOL0     H83552   7.711   0.230   1.052 -0.4202 -0.3079  0.5379
  619MOL0     H83553   7.223   0.205   0.753 -0.3348 -0.5991 -0.4522
  619MOL0     H83554   7.019   0.039   0.752  2.6471 -2.7506 -3.9558
  619MOL0     H83555   6.932  -0.317   0.957 -0.7407  1.6834 -0.4419
  619MOL0     H83556   7.087  -0.272   1.022 -0.8080 -2.0523 -0.6878
  619MOL0     H83557   6.950  -0.144   1.202 -3.9908  2.0536 -0.7899
  619MOL0     H83558   6.914  -0.326   1.195  0.1766 -0.2432  0.1593
  619MOL0     H83559   6.709  -0.238   1.053  1.9504 -0.9401 -0.4504
  619MOL0     H83560   6.749  -0.079   1.103 -0.4121 -1.3597 -3.2252
  619MOL0     H83561   6.583  -0.151   1.230  0.5716  0.4484 -1.2016
  619MOL0     H83562   6.708  -0.159   1.347 -0.6606 -1.3182  0.3052
  619MOL0     H83563   6.560  -0.551   1.290  0.1829 -0.7684  0.6158
  619MOL0     H83564   7.164  -0.083   1.143  1.2557  0.5006  1.1912
  619MOL0     H83565   7.317   0.073   1.154 -3.9531  0.8054  1.3355
  620MOL0     O83566   8.835   0.917   3.148 -0.4034 -0.1889 -0.0803
  620MOL0     C83567   8.742   0.993   3.127 -0.2942  0.5158 -0.6062
  620MOL0     O83568   8.746   1.126   3.148  0.0162 -0.4758  0.0357
  620MOL0     C83569   8.830   1.192   3.227 -0.1176 -0.2056 -0.6241
  620MOL0     C83570   8.849   1.330   3.203  0.2088  0.7608  0.1842
  620MOL0     C83571   8.931   1.410   3.279 -0.2726  0.3364 -0.1771
  620MOL0     C83572   9.000   1.361   3.389 -0.9211 -0.6228 -0.4781
  620MOL0     O83573   9.076   1.458   3.451 -1.0695 -0.3093 -0.5649
  620MOL0     C83574   9.185   1.421   3.537 -0.0776  0.0035  0.1115
  620MOL0     C83575   9.195   1.518   3.652 -0.1261 -0.3063  0.3094
  620MOL0     C83576   9.265   1.651   3.610  0.5121  0.3699  0.7924
  620MOL0     C83577   9.267   1.737   3.735  0.7917 -0.3183 -0.5748
  620MOL0     C83578   9.357   1.859   3.704 -0.7727  0.0279  0.1994
  620MOL0     C83579   9.342   1.970   3.819  0.5660  0.1956 -0.1911
  620MOL0     C83580   9.462   2.071   3.805 -0.0337 -0.0419 -0.5670
  620MOL0     C83581   9.443   2.208   3.875 -0.5999  0.0449 -0.2895
  620MOL0     N83582   9.404   2.200   4.016  0.6670 -0.4585  0.2610
  620MOL0     C83583   9.489   2.194   4.127 -0.8120  0.1561  0.1408
  620MOL0     C83584   9.405   2.163   4.235 -0.7659 -0.1235 -0.2522
  620MOL0     C83585   9.459   2.128   4.373 -0.8409  0.4750 -1.0477
  620MOL0     C83586   9.452   2.255   4.469  0.2551  0.2791  0.3887
  620MOL0     C83587   9.309   2.280   4.514 -0.5634  0.2563 -0.0669
  620MOL0     C83588   9.292   2.392   4.611  0.8705 -0.2817 -0.4157
  620MOL0     O83589   9.367   2.353   4.725  0.4925 -0.4116  0.5680
  620MOL0     C83590   9.406   2.461   4.801  0.5074 -0.7062 -0.4201
  620MOL0     C83591   9.309   2.559   4.851  0.0291  0.3894  0.1946
  620MOL0     C83592   9.363   2.670   4.917 -0.0237 -0.1598  0.4390
  620MOL0     C83593   9.254   2.766   4.958  0.1002 -0.1801 -0.8449
  620MOL0     C83594   9.507   2.690   4.939  0.5253 -0.1112  0.0321
  620MOL0     C83595   9.571   2.796   5.012 -0.8067  0.5497  1.0102
  620MOL0     O83596   9.500   2.842   5.122 -0.4455  0.0801 -0.3185
  620MOL0     C83597   9.555   2.939   5.188 -1.0298  0.8638 -0.5660
  620MOL0     C83598   9.658   2.895   5.266 -0.4912  0.2861  0.2835
  620MOL0     C83599   9.720   2.979   5.359 -0.6643 -0.0438 -0.3347
  620MOL0     C83600   9.686   3.121   5.366  1.0517  0.3094 -0.6650
  620MOL0     O83601   9.743   3.219   5.452  0.8938 -0.5929  0.1480
  620MOL0     C83602   9.865   3.195   5.520 -0.7673  0.1055 -0.6054
  620MOL0     C83603   9.988   3.208   5.430  0.3057  0.6226 -0.3848
  620MOL0     C83604  10.014   3.349   5.401 -0.0899 -0.2236  0.6545
  620MOL0     C83605  10.152   3.371   5.332 -0.0479 -0.8446  0.0992
  620MOL0     C83606  10.136   3.506   5.259  1.0888 -0.2899  0.6261
  620MOL0     C83607  10.125   3.634   5.340  0.3919 -0.9670 -0.2377
  620MOL0     C83608  10.097   3.753   5.250  0.5001 -0.2654  0.4478
  620MOL0     C83609  10.085   3.880   5.343  0.4784 -0.3393  0.5011
  620MOL0    Cl83610   9.953   3.888   5.466 -0.0322 -0.2138  0.3684
  620MOL0     C83611   9.567   3.160   5.294 -1.0954 -0.4437 -0.5463
  620MOL0     C83612   9.504   3.071   5.199  0.3413 -0.1243 -0.3876
  620MOL0     O83613   9.678   2.832   4.962 -0.7582 -0.9595  0.0411
  620MOL0     C83614   9.583   2.587   4.890 -0.3001 -0.1761  0.0962
  620MOL0     C83615   9.542   2.481   4.822 -0.1030  0.5251  0.4225
  620MOL0     N83616   9.275   2.154   4.185  0.0891 -0.0385 -0.1839
  620MOL0     N83617   9.272   2.180   4.063  0.2477  1.0386  0.5146
  620MOL0     C83618   9.002   1.216   3.411  1.3198 -0.3779 -0.9241
  620MOL0     C83619   8.916   1.134   3.328 -1.1914 -0.3145  0.0480
  620MOL0     C83620   8.625   0.937   3.051  0.2429  0.2237 -0.3366
  620MOL0     C83621   8.626   0.805   3.018 -0.8532  0.4094  0.4029
  620MOL0     C83622   8.526   0.739   2.956 -0.4699 -0.1369 -0.2241
  620MOL0     C83623   8.416   0.813   2.907 -0.1439  0.8129 -0.6719
  620MOL0     O83624   8.302   0.766   2.840  0.3878 -0.5659  0.5291
  620MOL0     C83625   8.290   0.626   2.823  0.5079 -0.4885 -0.4513
  620MOL0     C83626   8.156   0.583   2.774  0.7356 -0.1657 -0.4322
  620MOL0     C83627   8.056   0.536   2.882  0.6856 -0.3561  0.3307
  620MOL0     C83628   7.993   0.641   2.973  0.0310 -0.2771 -0.0465
  620MOL0     C83629   7.904   0.701   2.878 -0.9021  0.3585 -0.7470
  620MOL0     C83630   7.848   0.770   2.797  0.7427 -0.1555  0.7634
  620MOL0     C83631   8.415   0.946   2.947  0.7359  0.2933 -0.2384
  620MOL0     C83632   8.512   1.009   3.029  0.0198 -0.2420  0.3399
  620MOL0     H83633   8.789   1.375   3.125  0.2998 -0.4633 -0.6076
  620MOL0     H83634   8.933   1.517   3.260  1.1867  0.0784 -1.6211
  620MOL0     H83635   9.187   1.319   3.577  1.0694 -0.6010 -1.4177
  620MOL0     H83636   9.270   1.433   3.470  0.6004  0.4894  1.0277
  620MOL0     H83637   9.094   1.543   3.688 -1.7171  0.2515 -3.9029
  620MOL0     H83638   9.251   1.474   3.735  3.1578  2.9083  0.0172
  620MOL0     H83639   9.366   1.626   3.576  0.9460 -0.2590  2.4339
  620MOL0     H83640   9.203   1.701   3.536  2.6848  0.0287 -1.3799
  620MOL0     H83641   9.169   1.768   3.771  2.0170 -0.2084  3.0450
  620MOL0     H83642   9.319   1.681   3.813  2.4810  1.7178 -0.1297
  620MOL0     H83643   9.459   1.828   3.681 -1.7029 -2.1110 -1.5178
  620MOL0     H83644   9.339   1.900   3.604  0.2591  0.4305  0.1705
  620MOL0     H83645   9.247   2.021   3.811 -0.3955 -1.5344 -0.3407
  620MOL0     H83646   9.350   1.920   3.917  2.2873 -2.1237 -1.3922
  620MOL0     H83647   9.548   2.024   3.854  1.0328  2.9945  0.7524
  620MOL0     H83648   9.494   2.076   3.700  1.0655 -2.1690 -0.3874
  620MOL0     H83649   9.366   2.265   3.822  0.4276  0.4344 -1.3941
  620MOL0     H83650   9.538   2.260   3.863 -1.4641  1.5167 -0.9906
  620MOL0     H83651   9.596   2.190   4.140 -0.3170  3.7112 -1.6964
  620MOL0     H83652   9.412   2.038   4.412 -0.2516  1.5523  2.4380
  620MOL0     H83653   9.565   2.102   4.365 -0.9500  0.4102 -2.5628
  620MOL0     H83654   9.489   2.342   4.413  0.7774 -1.2070 -1.6779
  620MOL0     H83655   9.512   2.242   4.559 -0.0024  0.8525  0.6511
  620MOL0     H83656   9.269   2.195   4.570  1.8966  1.0020  3.1062
  620MOL0     H83657   9.240   2.305   4.432  1.7013  3.6526 -1.1324
  620MOL0     H83658   9.185   2.396   4.634  0.5729  0.7681 -1.8124
  620MOL0     H83659   9.329   2.487   4.570  1.0150 -0.2813 -0.2858
  620MOL0     H83660   9.204   2.536   4.835 -0.2191  0.3495  1.7843
  620MOL0     H83661   9.161   2.711   4.974  0.3872 -0.2371  0.8481
  620MOL0     H83662   9.272   2.817   5.053 -0.9966 -0.7704 -0.3100
  620MOL0     H83663   9.220   2.836   4.881 -0.1509  0.7610  0.1014
  620MOL0     H83664   9.697   2.794   5.259  2.7533  1.4095  0.6190
  620MOL0     H83665   9.801   2.942   5.420 -0.9966  1.9675  1.4221
  620MOL0     H83666   9.863   3.266   5.603  0.3293 -0.6994  0.1324
  620MOL0     H83667   9.869   3.095   5.564  1.2559  0.5338  0.3220
  620MOL0     H83668  10.068   3.179   5.498 -1.2976  2.5950  2.5984
  620MOL0     H83669   9.976   3.150   5.339 -4.0436  0.0930  0.3126
  620MOL0     H83670  10.003   3.409   5.491 -0.0467 -2.1204  1.9857
  620MOL0     H83671   9.935   3.384   5.335  2.1098  1.9079 -1.0540
  620MOL0     H83672  10.232   3.385   5.406  0.6021 -2.7226 -0.2101
  620MOL0     H83673  10.173   3.293   5.259  2.4824  0.3192 -0.5483
  620MOL0     H83674  10.047   3.499   5.196  1.2959  1.0022  0.1582
  620MOL0     H83675  10.224   3.516   5.195  1.0366 -0.9588  0.4403
  620MOL0     H83676  10.044   3.621   5.413 -2.2526 -2.5709 -3.2077
  620MOL0     H83677  10.219   3.651   5.393  0.2351  0.0857 -0.2831
  620MOL0     H83678  10.011   3.736   5.184 -0.7875  0.5189  1.8575
  620MOL0     H83679  10.186   3.763   5.186  1.2875 -3.8355  0.8004
  620MOL0     H83680  10.075   3.966   5.275  0.2705 -0.8879 -0.1684
  620MOL0     H83681  10.175   3.899   5.403  0.1331  0.9089  0.6608
  620MOL0     H83682   9.545   3.266   5.290 -1.6929 -0.5853 -1.2586
  620MOL0     H83683   9.418   3.110   5.146 -1.3862 -0.8000  1.7501
  620MOL0     H83684   9.687   2.582   4.920  0.0267 -1.9579 -1.1774
  620MOL0     H83685   9.617   2.407   4.796  1.8572  2.8995 -1.1582
  620MOL0     H83686   9.065   1.155   3.476 -3.2380 -3.5230  1.0474
  620MOL0     H83687   8.927   1.027   3.341  1.5872  0.2219  3.4145
  620MOL0     H83688   8.716   0.748   3.033 -0.1692  1.7885  1.8430
  620MOL0     H83689   8.535   0.635   2.926 -3.7681 -0.5229 -0.3122
  620MOL0     H83690   8.375   0.588   2.766  3.3002  1.3457  2.2036
  620MOL0     H83691   8.296   0.580   2.922  3.3278 -1.8390 -1.1633
  620MOL0     H83692   8.168   0.514   2.689  1.8171 -0.0089 -0.4183
  620MOL0     H83693   8.104   0.671   2.734  0.3270 -0.1367  0.1526
  620MOL0     H83694   8.113   0.468   2.946 -0.2489 -0.6225  0.9015
  620MOL0     H83695   7.982   0.466   2.842  2.1812 -0.8497 -1.7085
  620MOL0     H83696   8.076   0.708   2.996  0.3190  1.1306 -4.2765
  620MOL0     H83697   7.940   0.606   3.062 -1.3688 -0.3728 -0.8926
  620MOL0     H83698   7.785   0.823   2.727  0.5449  3.1936  3.2081
  620MOL0     H83699   8.334   1.012   2.915  1.6958  2.6219  1.7861
  620MOL0     H83700   8.507   1.115   3.053 -0.5533 -0.4074  0.9936
  621MOL0     O83701   5.097   5.594   2.268 -0.6848  0.1902  0.1839
  621MOL0     C83702   5.198   5.661   2.233  0.1286 -0.5826  0.0859
  621MOL0     O83703   5.239   5.691   2.104  0.0884 -0.1595 -0.5405
  621MOL0     C83704   5.142   5.686   2.013 -0.4070 -0.7621  0.6764
  621MOL0     C83705   5.085   5.801   1.961 -0.3304 -0.4979 -0.2060
  621MOL0     C83706   4.990   5.799   1.860 -0.2511  0.2283 -0.5574
  621MOL0     C83707   4.942   5.679   1.815 -0.2524  0.5759  0.8391
  621MOL0     O83708   4.848   5.675   1.718  0.0798 -0.3660 -0.4021
  621MOL0     C83709   4.735   5.596   1.764 -0.0994  0.6943 -0.1548
  621MOL0     C83710   4.611   5.628   1.681 -0.8562  0.3850  0.4627
  621MOL0     C83711   4.495   5.677   1.765 -0.0544  0.1888  0.0443
  621MOL0     C83712   4.382   5.731   1.679  0.3506  0.5025  1.5368
  621MOL0     C83713   4.245   5.748   1.754 -0.1992 -0.0968 -0.7638
  621MOL0     C83714   4.233   5.865   1.855  0.6786 -1.3517 -0.4634
  621MOL0     C83715   4.370   5.916   1.916  0.3867  0.4064  1.1239
  621MOL0     C83716   4.369   6.051   1.994  0.6676 -0.1163 -0.3125
  621MOL0     N83717   4.510   6.082   2.022 -0.0975  0.6620  0.6352
  621MOL0     C83718   4.590   6.019   2.122 -0.1383 -0.1653 -0.0003
  621MOL0     C83719   4.719   6.054   2.083 -0.8195 -0.5532  0.4166
  621MOL0     C83720   4.853   6.023   2.146 -0.8349  0.1400  0.4823
  621MOL0     C83721   4.854   6.064   2.288  0.1399  0.1103  0.4215
  621MOL0     C83722   4.987   6.032   2.344  0.8189  0.5125 -0.3720
  621MOL0     C83723   5.009   6.111   2.472 -0.0808 -1.1393 -0.7038
  621MOL0     O83724   5.128   6.073   2.535  0.3198  0.0814 -0.1894
  621MOL0     C83725   5.254   6.129   2.508  0.2953  0.2120 -1.2594
  621MOL0     C83726   5.274   6.215   2.400  0.3185 -0.8570 -0.1316
  621MOL0     C83727   5.402   6.267   2.376  0.1611  1.1857 -0.5009
  621MOL0     C83728   5.421   6.362   2.262  0.3939  0.2102  0.9619
  621MOL0     C83729   5.511   6.217   2.451  1.1601 -0.4763 -0.6254
  621MOL0     C83730   5.651   6.261   2.432  0.3978 -0.0061  0.1676
  621MOL0     O83731   5.727   6.264   2.549 -0.4592  0.0480 -0.3299
  621MOL0     C83732   5.851   6.316   2.549  0.1805  0.9394  0.2441
  621MOL0     C83733   5.859   6.446   2.605  0.4370  0.1768  0.2163
  621MOL0     C83734   5.984   6.502   2.629 -0.4653  0.4312  0.4917
  621MOL0     C83735   6.100   6.426   2.610 -0.4219  0.3275 -0.0608
  621MOL0     O83736   6.212   6.492   2.650  0.2203  0.1651  0.1845
  621MOL0     C83737   6.337   6.426   2.642 -0.6884  0.4657  0.6527
  621MOL0     C83738   6.448   6.531   2.658  0.8424 -0.8290 -0.1199
  621MOL0     C83739   6.587   6.499   2.662 -0.7823 -0.8910  0.5928
  621MOL0     C83740   6.676   6.634   2.654  0.1632 -0.3006  0.1904
  621MOL0     C83741   6.822   6.593   2.648 -0.2873  0.5916  0.8063
  621MOL0     C83742   6.863   6.554   2.505 -0.8096 -0.6501  1.0665
  621MOL0     C83743   7.015   6.507   2.491  0.0702  0.2228  0.0386
  621MOL0     C83744   7.037   6.449   2.352  0.2674 -0.5816  0.0962
  621MOL0    Cl83745   7.181   6.329   2.356 -0.0495 -0.2682 -0.0185
  621MOL0     C83746   6.087   6.289   2.558 -0.7212 -0.4031 -0.3242
  621MOL0     C83747   5.960   6.242   2.535  0.5825 -0.0510  0.3181
  621MOL0     O83748   5.696   6.263   2.317 -0.5155  0.0658 -0.8223
  621MOL0     C83749   5.489   6.145   2.565  0.4956  1.1914 -0.3971
  621MOL0     C83750   5.358   6.101   2.599 -0.0440 -0.5156  0.6476
  621MOL0     N83751   4.706   6.131   1.968  0.3062  0.4202 -0.4074
  621MOL0     N83752   4.585   6.139   1.936 -0.0976 -0.5004 -0.1983
  621MOL0     C83753   5.007   5.551   1.855  0.0799 -0.8662 -0.1101
  621MOL0     C83754   5.113   5.561   1.949 -0.1280 -0.2408  0.0323
  621MOL0     C83755   5.291   5.695   2.329 -0.1914 -0.2097 -0.4588
  621MOL0     C83756   5.402   5.781   2.304 -0.0975  0.1332  0.1159
  621MOL0     C83757   5.495   5.823   2.396  0.1462 -0.7315  0.4477
  621MOL0     C83758   5.489   5.765   2.526  0.2457  0.2802 -1.0393
  621MOL0     O83759   5.583   5.787   2.626 -0.1249  0.1851 -0.9922
  621MOL0     C83760   5.715   5.807   2.585 -0.5375 -0.3593 -0.0930
  621MOL0     C83761   5.815   5.826   2.692 -0.5014 -0.4382  1.3338
  621MOL0     C83762   5.957   5.854   2.626  1.5584  0.4072 -0.2257
  621MOL0     C83763   6.077   5.851   2.729  0.1243  0.5495 -0.1883
  621MOL0     C83764   6.046   5.923   2.856 -0.6955  0.4358  0.4991
  621MOL0     C83765   6.052   5.994   2.956  0.1974 -0.4126  0.3472
  621MOL0     C83766   5.392   5.675   2.553 -0.0365  0.0593 -0.6147
  621MOL0     C83767   5.285   5.646   2.464  0.6390  0.3496 -0.7653
  621MOL0     H83768   5.105   5.900   2.001  1.4071 -0.4128 -1.1526
  621MOL0     H83769   4.938   5.889   1.830 -1.5553 -0.0566  0.7470
  621MOL0     H83770   4.765   5.492   1.748  1.5215  1.2265 -0.7145
  621MOL0     H83771   4.717   5.612   1.870  0.1292 -0.3832  0.0603
  621MOL0     H83772   4.634   5.700   1.603  1.8320 -1.8819 -1.0427
  621MOL0     H83773   4.583   5.530   1.641  3.3923 -1.0673  0.4844
  621MOL0     H83774   4.447   5.593   1.818 -2.1934  0.8403 -0.7519
  621MOL0     H83775   4.534   5.748   1.839 -3.2678  3.3437 -1.0426
  621MOL0     H83776   4.403   5.832   1.641 -1.2760  1.4117  2.9167
  621MOL0     H83777   4.362   5.664   1.596  3.0516  1.6673 -0.1784
  621MOL0     H83778   4.155   5.757   1.693  0.1935 -0.4357 -1.4020
  621MOL0     H83779   4.238   5.658   1.816  0.2973  1.2894  1.3937
  621MOL0     H83780   4.185   5.951   1.807  0.5553  0.6277  2.8838
  621MOL0     H83781   4.161   5.845   1.935 -1.1787 -1.8469 -2.2089
  621MOL0     H83782   4.411   5.840   1.984  1.0479 -0.7370 -0.4704
  621MOL0     H83783   4.437   5.932   1.830 -0.3761  2.3660  0.8578
  621MOL0     H83784   4.306   6.031   2.081 -1.5348 -1.8488 -2.1351
  621MOL0     H83785   4.315   6.130   1.940 -0.0405 -0.1803  0.2791
  621MOL0     H83786   4.548   5.959   2.202 -0.1909  0.8018  0.7100
  621MOL0     H83787   4.872   5.916   2.130  0.8438  0.7667 -2.6906
  621MOL0     H83788   4.923   6.085   2.088 -0.6708 -2.2866 -2.1525
  621MOL0     H83789   4.777   6.012   2.346 -0.7616  1.8728  0.8817
  621MOL0     H83790   4.833   6.171   2.294  0.6189  0.3700 -1.7450
  621MOL0     H83791   5.066   6.067   2.277  0.9033  1.4617  0.1893
  621MOL0     H83792   4.999   5.925   2.358 -0.1220  0.7097  2.6839
  621MOL0     H83793   4.931   6.088   2.544  2.8634  0.7798  3.4912
  621MOL0     H83794   5.000   6.219   2.458 -0.1241 -0.3723  3.8279
  621MOL0     H83795   5.191   6.238   2.334  1.6492  2.2113 -0.9016
  621MOL0     H83796   5.488   6.329   2.182  0.2850  1.8647  0.1412
  621MOL0     H83797   5.324   6.387   2.218  0.1401  0.9896  1.9453
  621MOL0     H83798   5.459   6.456   2.304 -0.4933  2.7604 -3.3121
  621MOL0     H83799   5.767   6.502   2.616 -0.3806 -1.3394  1.5203
  621MOL0     H83800   5.978   6.603   2.667 -1.8217  0.6896 -0.3307
  621MOL0     H83801   6.354   6.341   2.709  2.9073  0.8305  0.4148
  621MOL0     H83802   6.360   6.385   2.544  0.4883  0.5256  0.8890
  621MOL0     H83803   6.422   6.607   2.585 -2.9230 -0.4365  1.3843
  621MOL0     H83804   6.421   6.583   2.751 -3.1367 -0.0629 -1.5113
  621MOL0     H83805   6.615   6.433   2.580  0.7185  2.0557 -1.4476
  621MOL0     H83806   6.602   6.446   2.757 -1.1608  1.1694  1.8636
  621MOL0     H83807   6.638   6.681   2.563 -0.5065  0.1942  0.7053
  621MOL0     H83808   6.655   6.705   2.735  0.9871  0.2764 -0.0917
  621MOL0     H83809   6.844   6.507   2.711  1.7731  1.0481  0.7986
  621MOL0     H83810   6.888   6.670   2.690 -0.8113  1.0423  0.8148
  621MOL0     H83811   6.804   6.468   2.473 -0.4235 -0.5591  0.0729
  621MOL0     H83812   6.849   6.640   2.439 -1.5623 -2.9698 -2.0540
  621MOL0     H83813   7.031   6.426   2.563  1.7444  1.5527  1.2141
  621MOL0     H83814   7.094   6.579   2.511 -0.5877  0.8565  0.3727
  621MOL0     H83815   7.049   6.529   2.278  1.0951 -0.4842  0.3180
  621MOL0     H83816   6.952   6.391   2.317  0.2807 -1.1219  0.9321
  621MOL0     H83817   6.175   6.229   2.539 -0.9911 -0.7516 -0.4733
  621MOL0     H83818   5.939   6.149   2.484 -1.9798  1.7768 -2.2823
  621MOL0     H83819   5.571   6.112   2.628  0.5892 -2.8027 -2.3357
  621MOL0     H83820   5.354   6.029   2.680  4.6440 -0.4223  1.2043
  621MOL0     H83821   4.984   5.457   1.806 -1.9150  0.4405 -1.8063
  621MOL0     H83822   5.169   5.475   1.985  0.5552  1.3136  3.0660
  621MOL0     H83823   5.408   5.834   2.209 -1.0158  0.7217  0.3768
  621MOL0     H83824   5.563   5.905   2.374 -1.2360  1.1191  2.6429
  621MOL0     H83825   5.735   5.716   2.528 -0.8828 -2.1767  2.4761
  621MOL0     H83826   5.726   5.896   2.522  0.4513  1.4291  2.4160
  621MOL0     H83827   5.812   5.739   2.758 -0.8807 -5.7536 -4.6570
  621MOL0     H83828   5.785   5.912   2.753  0.1241  0.1072  0.8857
  621MOL0     H83829   5.949   5.958   2.595 -2.0791  0.6486  0.9712
  621MOL0     H83830   5.976   5.786   2.543 -0.1242 -1.1760  0.6039
  621MOL0     H83831   6.162   5.887   2.671 -0.7885 -0.1361 -2.0457
  621MOL0     H83832   6.085   5.745   2.758 -2.8912  0.3490  0.2322
  621MOL0     H83833   6.080   6.073   3.024  0.6920 -1.0986  0.9626
  621MOL0     H83834   5.400   5.631   2.652  0.1201 -1.0437 -1.1009
  621MOL0     H83835   5.213   5.577   2.506  0.4446  0.6404 -0.6202
  622MOL0     O83836  10.095   9.343   6.990 -0.5375  0.0597  0.0163
  622MOL0     C83837  10.207   9.303   7.012  0.2410 -0.6827  0.8860
  622MOL0     O83838  10.307   9.293   6.916  0.2097 -0.3693  0.1300
  622MOL0     C83839  10.291   9.377   6.807 -0.3253  0.6017  0.2633
  622MOL0     C83840  10.280   9.315   6.679 -0.0590  0.7384 -0.7813
  622MOL0     C83841  10.283   9.389   6.563  0.2009  0.0817 -0.5262
  622MOL0     C83842  10.293   9.524   6.561  0.1777 -0.2409  0.5107
  622MOL0     O83843  10.304   9.602   6.448 -0.2297 -0.2910 -0.7959
  622MOL0     C83844  10.399   9.558   6.348 -0.6158  0.1371  0.2201
  622MOL0     C83845  10.416   9.669   6.241  1.3089  0.1181 -0.5006
  622MOL0     C83846  10.286   9.698   6.171 -0.1165 -0.9020  0.7568
  622MOL0     C83847  10.245   9.592   6.069 -0.2003 -0.1486  0.2239
  622MOL0     C83848  10.105   9.628   6.023 -0.2148 -0.6215  0.0721
  622MOL0     C83849  10.037   9.515   5.948 -0.0875 -0.2650 -0.4213
  622MOL0     C83850   9.905   9.566   5.892  0.2939  0.2012  0.1990
  622MOL0     C83851   9.916   9.637   5.751  0.4411  0.1172  1.0372
  622MOL0     N83852   9.795   9.727   5.749  0.0499  0.1440 -0.5260
  622MOL0     C83853   9.782   9.851   5.806  0.2242  0.5570 -0.2234
  622MOL0     C83854   9.665   9.896   5.760 -0.7719  0.9478  0.5244
  622MOL0     C83855   9.617  10.028   5.802  0.6378  0.6316 -0.3460
  622MOL0     C83856   9.478  10.039   5.878 -0.6558 -0.4473 -0.0500
  622MOL0     C83857   9.369   9.961   5.811  0.7192  0.2795  0.1103
  622MOL0     C83858   9.230   9.980   5.874  0.0063  0.1740 -0.5032
  622MOL0     O83859   9.241   9.954   6.017 -0.5649 -0.3128  0.0088
  622MOL0     C83860   9.143   9.997   6.105 -0.2005  0.6421  0.5849
  622MOL0     C83861   9.008   9.972   6.093  0.7389 -0.4644  0.1732
  622MOL0     C83862   8.919  10.029   6.182  0.2514 -0.1866  0.0566
  622MOL0     C83863   8.786   9.959   6.180  0.8509 -1.2064  0.7325
  622MOL0     C83864   8.959  10.127   6.288 -0.5605  0.4211 -0.0885
  622MOL0     C83865   8.865  10.207   6.379 -0.1270  0.6040 -0.2112
  622MOL0     O83866   8.928  10.256   6.487 -0.1695  0.4331 -0.0935
  622MOL0     C83867   8.859  10.324   6.586 -0.9131 -0.3433  0.1156
  622MOL0     C83868   8.944  10.397   6.677 -0.0497  0.2670  1.2568
  622MOL0     C83869   8.880  10.483   6.772  0.1103 -0.1027 -0.5874
  622MOL0     C83870   8.739  10.484   6.777 -0.0696  0.2140  0.2146
  622MOL0     O83871   8.690  10.574   6.872 -0.9750 -0.3149  0.3422
  622MOL0     C83872   8.566  10.547   6.930 -0.1885  0.2168 -0.3684
  622MOL0     C83873   8.551  10.669   7.038  0.7427  0.1404  0.6621
  622MOL0     C83874   8.422  10.653   7.126  0.1738  0.2502 -0.9155
  622MOL0     C83875   8.403  10.787   7.202  0.8396  0.3371 -0.3165
  622MOL0     C83876   8.256  10.800   7.256  0.4828  1.1624 -0.4193
  622MOL0     C83877   8.151  10.819   7.152  1.1123  0.0130  0.6655
  622MOL0     C83878   8.166  10.945   7.070 -0.2916  1.4449  0.2020
  622MOL0     C83879   8.039  11.001   7.001  0.5189 -0.3552 -0.0651
  622MOL0    Cl83880   7.923  11.077   7.130  0.3762 -0.1925  0.3590
  622MOL0     C83881   8.669  10.400   6.705 -0.3911 -1.1398  0.1231
  622MOL0     C83882   8.729  10.316   6.616 -0.8699 -0.2249  0.5280
  622MOL0     O83883   8.744  10.207   6.352  0.5456 -0.3293 -0.4308
  622MOL0     C83884   9.102  10.141   6.294  0.3271 -0.4235 -0.5592
  622MOL0     C83885   9.190  10.080   6.212  0.5777 -0.0447  0.4745
  622MOL0     N83886   9.608   9.804   5.679 -1.3877 -1.6840 -0.0687
  622MOL0     N83887   9.683   9.697   5.673  0.1683  0.5647 -0.7996
  622MOL0     C83888  10.293   9.589   6.687  0.5904 -0.0224 -0.6168
  622MOL0     C83889  10.291   9.512   6.809  0.2306  0.2440 -0.4947
  622MOL0     C83890  10.231   9.230   7.140  0.1676  0.5902  0.0380
  622MOL0     C83891  10.129   9.169   7.212  0.3913 -0.2096 -0.2226
  622MOL0     C83892  10.162   9.113   7.335  0.3326  0.2398  0.5944
  622MOL0     C83893  10.293   9.097   7.381  0.1665  0.6584  0.5878
  622MOL0     O83894  10.307   9.035   7.496 -0.1658 -0.2794 -0.3552
  622MOL0     C83895  10.435   9.027   7.548  0.1748 -0.1674 -0.0077
  622MOL0     C83896  10.428   8.961   7.682  0.1332  0.2933  0.2553
  622MOL0     C83897  10.567   8.942   7.749  0.5417 -0.4245  0.7431
  622MOL0     C83898  10.548   8.873   7.889 -0.3861 -0.1152  0.8725
  622MOL0     C83899  10.594   8.968   7.985 -0.7384 -0.4178  0.0954
  622MOL0     C83900  10.641   9.033   8.071 -1.2717 -0.5453 -0.5853
  622MOL0     C83901  10.397   9.155   7.307 -0.3148  0.5776  0.4773
  622MOL0     C83902  10.367   9.232   7.192 -0.3337  0.8464  0.1098
  622MOL0     H83903  10.272   9.207   6.683 -2.6628  0.8564 -0.9123
  622MOL0     H83904  10.292   9.345   6.464  4.1216 -2.1591  0.6339
  622MOL0     H83905  10.496   9.549   6.399  0.7610  0.9066 -2.1087
  622MOL0     H83906  10.371   9.460   6.307  2.9701 -0.5065 -1.0750
  622MOL0     H83907  10.454   9.763   6.282 -1.1632  0.4097  1.3488
  622MOL0     H83908  10.476   9.619   6.164  1.3556 -1.6488  0.6501
  622MOL0     H83909  10.206   9.720   6.242 -0.7012 -1.4027  0.2633
  622MOL0     H83910  10.297   9.789   6.111 -1.0757 -1.8366 -0.9078
  622MOL0     H83911  10.314   9.584   5.985  0.7000  0.8011  0.8615
  622MOL0     H83912  10.249   9.498   6.125 -1.2404  0.5581  1.5498
  622MOL0     H83913  10.046   9.647   6.113  0.3493  1.5485  0.0431
  622MOL0     H83914  10.104   9.711   5.951 -0.7140 -0.4601  0.2594
  622MOL0     H83915  10.103   9.473   5.871 -1.2493  1.8039 -2.6934
  622MOL0     H83916  10.012   9.433   6.016 -2.4418 -2.4299 -3.6029
  622MOL0     H83917   9.844   9.477   5.877  1.5725 -0.7306  0.3902
  622MOL0     H83918   9.850   9.620   5.970  3.5478  2.0380  1.4143
  622MOL0     H83919   9.912   9.560   5.673  0.8121  0.6911  0.4493
  622MOL0     H83920  10.002   9.704   5.744  0.9510 -0.4491  1.8101
  622MOL0     H83921   9.845   9.892   5.885  1.3076  2.3174 -1.8906
  622MOL0     H83922   9.694  10.080   5.860  2.1779 -0.5242 -1.2783
  622MOL0     H83923   9.613  10.077   5.704  1.2590 -0.3180 -0.8691
  622MOL0     H83924   9.439  10.141   5.875  0.5861  0.0345 -1.2619
  622MOL0     H83925   9.484  10.010   5.984 -1.9499 -1.7594 -0.3006
  622MOL0     H83926   9.392   9.854   5.811 -3.1338 -0.6898  0.0875
  622MOL0     H83927   9.363   9.979   5.703  0.3866 -3.2614 -0.5903
  622MOL0     H83928   9.164   9.904   5.832  0.3651  1.1708 -3.0837
  622MOL0     H83929   9.188  10.080   5.865 -0.9476 -0.1536  0.2293
  622MOL0     H83930   8.980   9.917   6.004  4.4617  0.0206 -1.4985
  622MOL0     H83931   8.806   9.862   6.133 -0.0035 -0.9997 -0.1035
  622MOL0     H83932   8.750   9.934   6.280 -2.2030 -0.8754 -0.1982
  622MOL0     H83933   8.713  10.019   6.125 -1.2910 -1.5285  3.0518
  622MOL0     H83934   9.051  10.401   6.654 -0.2933  0.3359  0.0405
  622MOL0     H83935   8.923  10.539   6.854 -0.8275 -1.5461  0.9749
  622MOL0     H83936   8.478  10.556   6.865 -1.0684 -0.3573  0.6958
  622MOL0     H83937   8.556  10.446   6.970  3.3557  0.3593  1.2653
  622MOL0     H83938   8.637  10.674   7.105  0.2136  1.5743  1.2764
  622MOL0     H83939   8.542  10.766   6.989 -0.9476  0.8168  2.1984
  622MOL0     H83940   8.426  10.564   7.188 -0.3147  0.6190 -0.3418
  622MOL0     H83941   8.338  10.639   7.057 -0.0085 -0.8458 -0.4802
  622MOL0     H83942   8.475  10.789   7.284  1.3262  0.9434 -0.7412
  622MOL0     H83943   8.424  10.860   7.122 -1.8307  1.0455 -0.4602
  622MOL0     H83944   8.235  10.873   7.334 -1.8833 -0.0837  0.1986
  622MOL0     H83945   8.244  10.709   7.315 -0.6526  2.1987  1.0120
  622MOL0     H83946   8.140  10.732   7.086 -0.7843  1.1954 -0.6653
  622MOL0     H83947   8.057  10.818   7.207  1.0496  1.1514  0.6016
  622MOL0     H83948   8.239  10.927   6.990 -0.1223 -0.6998  0.8017
  622MOL0     H83949   8.210  11.019   7.138  2.3800 -0.3130  0.5194
  622MOL0     H83950   7.981  10.923   6.951 -2.8524  2.3849 -0.8888
  622MOL0     H83951   8.071  11.077   6.929  0.7940 -0.5285 -0.1235
  622MOL0     H83952   8.562  10.404   6.721 -0.5769  0.7747 -1.2988
  622MOL0     H83953   8.654  10.263   6.559 -0.3559  1.4447 -1.8303
  622MOL0     H83954   9.157  10.207   6.360  2.6708 -0.8659 -1.9583
  622MOL0     H83955   9.297  10.099   6.221  0.5715 -0.8039  2.5736
  622MOL0     H83956  10.303   9.695   6.671 -0.3961 -0.0133 -1.2256
  622MOL0     H83957  10.285   9.577   6.896 -3.0463  0.4444 -0.7684
  622MOL0     H83958  10.027   9.170   7.176 -0.4924 -2.5075  1.8843
  622MOL0     H83959  10.076   9.084   7.395 -0.6083  1.4850 -0.0936
  622MOL0     H83960  10.506   8.973   7.484  0.3864  1.0253 -0.8256
  622MOL0     H83961  10.473   9.129   7.564  0.5867 -0.4491  0.8415
  622MOL0     H83962  10.395   8.862   7.650  1.8466 -0.6758  1.3326
  622MOL0     H83963  10.371   9.019   7.755 -2.9619 -2.7424  0.5273
  622MOL0     H83964  10.615   9.040   7.755 -0.5344  0.3810 -2.2531
  622MOL0     H83965  10.630   8.880   7.684 -2.3984 -4.5504  1.3702
  622MOL0     H83966  10.608   8.782   7.893 -1.8436 -1.1740 -0.3169
  622MOL0     H83967  10.444   8.848   7.911 -1.3959  2.2551 -0.7992
  622MOL0     H83968  10.678   9.113   8.131 -2.2714  2.7327 -3.9493
  622MOL0     H83969  10.500   9.149   7.341  0.1163 -3.2001 -0.9974
  622MOL0     H83970  10.451   9.278   7.141 -0.1923  3.8259  2.7396
  623MOL0     O83971   8.682   0.532   3.197 -0.0612  0.4956 -0.5179
  623MOL0     C83972   8.760   0.492   3.114 -0.1224  0.4500  1.0106
  623MOL0     O83973   8.727   0.441   2.988 -0.1472  0.9039  0.4297
  623MOL0     C83974   8.601   0.386   2.964  0.2084  0.0503  0.3017
  623MOL0     C83975   8.497   0.357   3.056  0.5264 -0.1811 -0.2906
  623MOL0     C83976   8.372   0.301   3.023  0.1003  0.0951 -0.3933
  623MOL0     C83977   8.338   0.268   2.897  0.2640 -0.4021  0.1831
  623MOL0     O83978   8.218   0.211   2.874  0.5251 -0.7200  0.6009
  623MOL0     C83979   8.173   0.210   2.737  0.4706  0.7214  0.1114
  623MOL0     C83980   8.036   0.150   2.731 -0.2621  0.6086  1.2525
  623MOL0     C83981   7.978   0.126   2.593  0.0643 -0.5213 -0.2051
  623MOL0     C83982   7.825   0.113   2.586 -1.1024  0.0187 -0.0000
  623MOL0     C83983   7.766   0.120   2.447 -1.2535  0.3578 -0.0023
  623MOL0     C83984   7.615   0.149   2.441  0.1063 -0.4330 -0.0212
  623MOL0     C83985   7.530   0.052   2.533  1.0850 -0.1998  0.0267
  623MOL0     C83986   7.540  -0.087   2.493 -0.6592  0.7428 -0.0108
  623MOL0     N83987   7.423  -0.179   2.526 -0.2445  0.0911  0.2536
  623MOL0     C83988   7.311  -0.195   2.446  0.2980 -0.4855  1.5132
  623MOL0     C83989   7.217  -0.262   2.525 -0.5855  0.7102  0.2103
  623MOL0     C83990   7.086  -0.315   2.492  0.5291  0.6373 -1.0520
  623MOL0     C83991   7.079  -0.459   2.438  0.5287 -1.0496  0.0223
  623MOL0     C83992   6.965  -0.463   2.338 -0.3533  0.6292 -0.6516
  623MOL0     C83993   6.922  -0.607   2.320 -0.1449  0.2099  0.4525
  623MOL0     O83994   6.779  -0.611   2.319 -0.0384  0.3109  0.6202
  623MOL0     C83995   6.713  -0.716   2.377  0.5662  0.3537  0.3457
  623MOL0     C83996   6.774  -0.841   2.382 -0.1076 -0.0408  0.6841
  623MOL0     C83997   6.713  -0.957   2.434 -0.3777 -0.6121 -0.2925
  623MOL0     C83998   6.795  -1.084   2.435 -0.4133  0.3741  0.2904
  623MOL0     C83999   6.575  -0.948   2.475 -0.2146 -0.5017  0.2520
  623MOL0     C84000   6.503  -1.050   2.542 -0.1506  0.0892  0.0814
  623MOL0     O84001   6.383  -1.010   2.595  0.4934 -0.7918  0.4134
  623MOL0     C84002   6.321  -1.091   2.688 -0.0745  1.1236 -0.3039
  623MOL0     C84003   6.183  -1.078   2.691  0.0646  0.5653 -1.1919
  623MOL0     C84004   6.104  -1.153   2.782 -0.4938 -0.0121  0.0387
  623MOL0     C84005   6.167  -1.236   2.877  0.3789  0.3069 -0.0890
  623MOL0     O84006   6.106  -1.312   2.976 -1.0263  0.0874  0.3052
  623MOL0     C84007   5.989  -1.266   3.039 -0.3127  0.2174  0.2947
  623MOL0     C84008   5.870  -1.344   2.990  0.2894 -0.4216 -0.1202
  623MOL0     C84009   5.746  -1.292   3.064 -0.0265 -0.7352 -0.5254
  623MOL0     C84010   5.617  -1.359   3.014 -0.4791 -0.0528  0.0362
  623MOL0     C84011   5.493  -1.343   3.103 -0.7009  0.4493 -1.0642
  623MOL0     C84012   5.357  -1.377   3.040 -0.2916  0.0862  0.2355
  623MOL0     C84013   5.235  -1.372   3.146  0.0170  0.6494  1.0593
  623MOL0     C84014   5.196  -1.227   3.181 -0.9209  0.9125 -0.1266
  623MOL0    Cl84015   5.149  -1.136   3.031 -0.2485 -0.2874 -0.3224
  623MOL0     C84016   6.302  -1.252   2.873 -0.9369 -0.8648 -0.3318
  623MOL0     C84017   6.385  -1.174   2.785  0.2592  0.5074 -0.5461
  623MOL0     O84018   6.549  -1.166   2.543  0.2010  0.0633 -0.4851
  623MOL0     C84019   6.518  -0.823   2.461 -0.1674  0.1032  0.3403
  623MOL0     C84020   6.586  -0.702   2.426 -0.3224  0.7034 -0.3493
  623MOL0     N84021   7.276  -0.277   2.647 -0.4346  0.1673 -0.4940
  623MOL0     N84022   7.400  -0.234   2.641 -0.9202 -0.2822  0.1764
  623MOL0     C84023   8.440   0.299   2.802 -0.2550  0.4963  0.5846
  623MOL0     C84024   8.566   0.355   2.830  0.4075  0.0730  0.7537
  623MOL0     C84025   8.903   0.500   3.141 -0.1497  0.7391  0.9229
  623MOL0     C84026   8.944   0.543   3.273  0.4249 -0.6325  0.3178
  623MOL0     C84027   9.082   0.550   3.305  0.4599  0.2918  1.1092
  623MOL0     C84028   9.183   0.533   3.218  0.8355 -0.1286 -0.5985
  623MOL0     O84029   9.306   0.551   3.272 -0.3992 -0.5148  0.1226
  623MOL0     C84030   9.416   0.528   3.181  0.0556  0.6256  0.0420
  623MOL0     C84031   9.543   0.596   3.227  1.2554  0.2835 -0.6763
  623MOL0     C84032   9.533   0.742   3.191 -0.3913  0.1432 -0.5504
  623MOL0     C84033   9.566   0.770   3.047 -0.7135 -0.3972 -0.3660
  623MOL0     C84034   9.695   0.710   3.011  0.0390  0.8146  0.1869
  623MOL0     C84035   9.797   0.650   3.002 -0.6517  0.4649 -0.3026
  623MOL0     C84036   9.137   0.477   3.097 -0.4005 -0.2844  0.2786
  623MOL0     C84037   9.009   0.462   3.053 -0.6800 -0.0001 -0.1591
  623MOL0     H84038   8.508   0.393   3.158  1.5346 -1.4591  0.0802
  623MOL0     H84039   8.294   0.289   3.098  2.6712 -0.6933  2.3301
  623MOL0     H84040   8.175   0.317   2.715  1.9861  0.5282 -0.8208
  623MOL0     H84041   8.235   0.154   2.666 -0.0396  2.2643 -1.6122
  623MOL0     H84042   8.043   0.055   2.785  1.5044  0.3317  0.6190
  623MOL0     H84043   7.973   0.222   2.785  1.9005  2.1512  1.8581
  623MOL0     H84044   8.008   0.218   2.543 -1.6392 -0.4985 -1.2349
  623MOL0     H84045   8.029   0.032   2.571  2.3755  0.1165  1.9201
  623MOL0     H84046   7.786   0.022   2.633 -0.2603 -0.1420  0.3954
  623MOL0     H84047   7.788   0.202   2.639  2.4981  2.1267 -0.7187
  623MOL0     H84048   7.815   0.199   2.391 -0.6150 -0.7894 -1.0989
  623MOL0     H84049   7.776   0.021   2.402 -2.3062  0.3247 -0.1867
  623MOL0     H84050   7.594   0.241   2.498 -3.4709 -2.0259  1.5996
  623MOL0     H84051   7.578   0.158   2.339  0.5334  2.3377 -0.0122
  623MOL0     H84052   7.555   0.059   2.639  1.0081 -1.4233  0.1427
  623MOL0     H84053   7.426   0.086   2.532  0.9743  0.1092  4.3595
  623MOL0     H84054   7.622  -0.129   2.551  0.0261 -1.7909 -2.6003
  623MOL0     H84055   7.542  -0.085   2.384 -1.5296  1.7093 -0.0310
  623MOL0     H84056   7.309  -0.164   2.342 -0.1361 -0.1416  1.6224
  623MOL0     H84057   7.020  -0.314   2.578 -1.6582 -0.4791 -2.6188
  623MOL0     H84058   7.050  -0.236   2.425 -0.1519  1.3507  0.1225
  623MOL0     H84059   7.064  -0.532   2.517  4.4797 -0.7548  1.2473
  623MOL0     H84060   7.174  -0.478   2.387  0.4623  2.2667 -1.5944
  623MOL0     H84061   6.988  -0.420   2.240  1.9298  1.2351  0.0899
  623MOL0     H84062   6.875  -0.421   2.384 -0.1227  2.6321 -1.8842
  623MOL0     H84063   6.969  -0.672   2.394  1.8764  1.0000 -0.0580
  623MOL0     H84064   6.970  -0.641   2.227 -0.4803  1.2745 -0.1161
  623MOL0     H84065   6.873  -0.850   2.338  0.9561 -1.2959  3.1321
  623MOL0     H84066   6.754  -1.162   2.370  1.6505 -1.5776  1.2131
  623MOL0     H84067   6.896  -1.067   2.395  0.1891 -1.7642  0.7772
  623MOL0     H84068   6.818  -1.117   2.536 -1.0045  2.4855  1.1581
  623MOL0     H84069   6.128  -1.024   2.615 -2.2860 -0.8252 -0.5749
  623MOL0     H84070   6.000  -1.125   2.792  0.0992  2.6667 -0.6103
  623MOL0     H84071   6.004  -1.262   3.147  4.6723  2.8806 -0.1901
  623MOL0     H84072   5.984  -1.160   3.013 -3.1882 -0.6399 -3.4938
  623MOL0     H84073   5.862  -1.343   2.881 -0.2422 -1.8618 -0.1145
  623MOL0     H84074   5.881  -1.450   3.012 -0.7318 -1.2739 -3.2351
  623MOL0     H84075   5.750  -1.183   3.058 -1.0693 -0.6929 -0.6941
  623MOL0     H84076   5.755  -1.321   3.169  0.7240  3.4956  0.7705
  623MOL0     H84077   5.590  -1.308   2.921 -1.2459  1.6968  1.1583
  623MOL0     H84078   5.636  -1.465   2.996 -2.0072  0.1152 -3.2886
  623MOL0     H84079   5.488  -1.246   3.152  0.4712 -0.0583  0.1373
  623MOL0     H84080   5.497  -1.409   3.190 -0.5165  1.1735 -0.5198
  623MOL0     H84081   5.343  -1.308   2.956  2.5509 -0.3016 -0.6671
  623MOL0     H84082   5.352  -1.478   2.998  2.0719 -0.6530  1.5093
  623MOL0     H84083   5.260  -1.430   3.236  0.5451 -3.0573 -1.2498
  623MOL0     H84084   5.148  -1.424   3.105 -1.3911  1.6917  2.6426
  623MOL0     H84085   5.282  -1.188   3.236  0.1878 -0.4391 -0.8302
  623MOL0     H84086   5.113  -1.226   3.253 -0.3563  0.2816  0.5512
  623MOL0     H84087   6.353  -1.321   2.940 -2.8256 -0.1486  2.0243
  623MOL0     H84088   6.490  -1.181   2.809 -0.1846 -1.0812  1.2694
  623MOL0     H84089   6.412  -0.815   2.483  0.0307  1.5436  0.8809
  623MOL0     H84090   6.531  -0.608   2.426  1.0916  1.5658  0.4390
  623MOL0     H84091   8.423   0.262   2.702 -1.1179 -1.4681  1.3958
  623MOL0     H84092   8.643   0.366   2.754  2.1464  0.2652  2.4462
  623MOL0     H84093   8.877   0.564   3.356 -2.5831 -1.8514 -1.6079
  623MOL0     H84094   9.106   0.589   3.403  1.9022 -0.3678  1.0473
  623MOL0     H84095   9.435   0.420   3.185  2.0838  0.9712  1.1990
  623MOL0     H84096   9.389   0.549   3.077 -0.3002  0.0192  0.0069
  623MOL0     H84097   9.633   0.549   3.188  3.4406  2.6999  1.1266
  623MOL0     H84098   9.558   0.577   3.334  0.4551  0.8073 -0.4577
  623MOL0     H84099   9.589   0.812   3.254 -1.2966 -0.1129  0.5711
  623MOL0     H84100   9.433   0.780   3.213 -0.0862  0.5671  0.1164
  623MOL0     H84101   9.563   0.879   3.035 -0.2051 -0.4270 -0.7964
  623MOL0     H84102   9.483   0.732   2.985  1.0526 -2.9420 -1.3415
  623MOL0     H84103   9.884   0.594   2.977 -1.7372 -1.3886 -0.1559
  623MOL0     H84104   9.212   0.439   3.029 -1.7571  0.6701 -1.8392
  623MOL0     H84105   8.999   0.426   2.951 -0.8801  0.0188 -0.1451
  624MOL0     O84106   3.503   4.416   9.525  0.3316 -0.4531  0.6384
  624MOL0     C84107   3.593   4.328   9.521 -0.1889 -0.4790  0.5335
  624MOL0     O84108   3.662   4.279   9.632 -0.0693 -0.2895  0.0799
  624MOL0     C84109   3.698   4.350   9.738 -0.0190 -0.8119  0.3415
  624MOL0     C84110   3.694   4.497   9.745 -0.2503  0.4615 -0.7491
  624MOL0     C84111   3.696   4.562   9.870  0.0674  0.6878  0.4781
  624MOL0     C84112   3.715   4.483   9.984  0.7121  0.1704  0.7004
  624MOL0     O84113   3.746   4.559  10.094  0.8549  0.1323 -1.0253
  624MOL0     C84114   3.647   4.571  10.195  0.5363 -0.2025 -0.8485
  624MOL0     C84115   3.503   4.557  10.154 -1.8417 -0.2740  0.5332
  624MOL0     C84116   3.413   4.603  10.257  0.0649  0.0067  0.8058
  624MOL0     C84117   3.395   4.517  10.379 -1.4752  0.1187 -0.6074
  624MOL0     C84118   3.284   4.549  10.464  1.3963 -0.5202  0.2440
  624MOL0     C84119   3.283   4.677  10.548 -1.4339 -0.5324 -0.6412
  624MOL0     C84120   3.154   4.692  10.627  0.0225 -0.9239 -0.0780
  624MOL0     C84121   3.041   4.715  10.550  0.5593  0.7140  1.5284
  624MOL0     N84122   2.921   4.776  10.618 -0.4950  0.7160 -0.4023
  624MOL0     C84123   2.905   4.912  10.652  0.1681 -0.2748  0.2050
  624MOL0     C84124   2.787   4.921  10.713  0.1797 -0.6846 -0.8346
  624MOL0     C84125   2.736   5.044  10.773  0.7565  0.4400  0.0116
  624MOL0     C84126   2.731   5.157  10.672 -0.0895 -0.5268  0.7954
  624MOL0     C84127   2.690   5.282  10.753  0.3918  0.5397  0.0331
  624MOL0     C84128   2.618   5.388  10.671  0.0389  0.3024 -0.1891
  624MOL0     O84129   2.526   5.330  10.575  0.5085 -0.1081  0.1868
  624MOL0     C84130   2.424   5.401  10.533  0.4430 -1.3876  0.6080
  624MOL0     C84131   2.318   5.330  10.480 -0.8114  0.7928 -0.0860
  624MOL0     C84132   2.197   5.385  10.433 -0.5707  0.0529  0.1579
  624MOL0     C84133   2.096   5.287  10.372  0.0960 -0.0455  0.5369
  624MOL0     C84134   2.189   5.527  10.441 -0.4414 -0.7347 -0.0174
  624MOL0     C84135   2.071   5.620  10.409  0.0953 -0.4200  0.4922
  624MOL0     O84136   2.069   5.748  10.455 -0.4081  0.4468 -0.1655
  624MOL0     C84137   1.984   5.829  10.384  0.0578 -0.1588 -0.0348
  624MOL0     C84138   2.005   5.853  10.249 -0.3386 -0.0266  0.5821
  624MOL0     C84139   1.940   5.958  10.172  0.3567  0.3271  1.3728
  624MOL0     C84140   1.838   6.030  10.244 -0.0622 -0.2130  0.0279
  624MOL0     O84141   1.771   6.114  10.167  0.1129  0.0506 -0.7363
  624MOL0     C84142   1.715   6.226  10.236  0.0518  0.8461  0.1230
  624MOL0     C84143   1.647   6.324  10.131  0.3843 -0.1499  0.2134
  624MOL0     C84144   1.558   6.422  10.213  0.1143  0.2462 -0.2767
  624MOL0     C84145   1.623   6.550  10.251 -0.1688  0.2691 -0.0425
  624MOL0     C84146   1.650   6.648  10.137  0.2354  0.3274 -0.3100
  624MOL0     C84147   1.725   6.755  10.203  0.0441 -0.2394 -0.4315
  624MOL0     C84148   1.743   6.881  10.114  0.2686 -1.5082  0.4282
  624MOL0     C84149   1.851   6.966  10.183  1.4361 -0.0976 -0.5517
  624MOL0    Cl84150   2.005   6.894  10.167 -0.3560 -0.0229 -0.4983
  624MOL0     C84151   1.825   6.001  10.378 -0.1261 -0.3631 -0.5993
  624MOL0     C84152   1.887   5.900  10.448  0.4552 -0.0823 -0.3773
  624MOL0     O84153   1.974   5.569  10.342 -0.8648  0.1704 -0.3921
  624MOL0     C84154   2.307   5.597  10.484 -0.7994  0.0566  0.1089
  624MOL0     C84155   2.415   5.537  10.532 -0.8961  0.1096 -0.4513
  624MOL0     N84156   2.729   4.790  10.711  0.1765 -0.0508 -0.8828
  624MOL0     N84157   2.817   4.707  10.678  0.0455 -0.0967  0.0998
  624MOL0     C84158   3.700   4.350   9.974  0.2792  1.0501 -0.3733
  624MOL0     C84159   3.695   4.278   9.855 -0.7700  0.1638 -0.2794
  624MOL0     C84160   3.618   4.256   9.397  0.3339  0.6591 -0.2094
  624MOL0     C84161   3.740   4.182   9.378 -0.1431 -0.0276  0.4103
  624MOL0     C84162   3.760   4.094   9.272 -1.2387 -0.5450 -0.9569
  624MOL0     C84163   3.665   4.099   9.166  0.6544  0.4866  0.5080
  624MOL0     O84164   3.699   4.034   9.049  0.0727  0.6642  0.3459
  624MOL0     C84165   3.606   4.028   8.941  0.6265  0.5264  0.0410
  624MOL0     C84166   3.684   3.978   8.810 -0.0887  0.5290 -0.2313
  624MOL0     C84167   3.796   4.078   8.763 -0.0275 -0.1574  1.0840
  624MOL0     C84168   3.871   4.033   8.630 -0.1333 -0.2121 -0.7348
  624MOL0     C84169   3.989   4.117   8.610 -1.1032  0.4387  0.3240
  624MOL0     C84170   4.084   4.197   8.596 -0.6388 -1.5065  0.3992
  624MOL0     C84171   3.547   4.173   9.183  0.1138 -0.1631 -0.6348
  624MOL0     C84172   3.528   4.253   9.293 -0.5122  0.2608  0.0445
  624MOL0     H84173   3.677   4.553   9.653 -1.5398  1.1112 -0.1495
  624MOL0     H84174   3.702   4.669   9.882  1.1565  0.7838 -0.7031
  624MOL0     H84175   3.674   4.492  10.266 -1.9101 -1.2286 -0.9525
  624MOL0     H84176   3.672   4.663  10.248  1.6461 -0.3723 -1.0516
  624MOL0     H84177   3.509   4.628  10.070  2.3383 -0.6505  0.3168
  624MOL0     H84178   3.470   4.456  10.127 -0.5136 -0.2613 -1.3352
  624MOL0     H84179   3.421   4.707  10.290 -3.4566 -0.4965  3.9200
  624MOL0     H84180   3.315   4.611  10.208  0.6898  0.7856 -0.3628
  624MOL0     H84181   3.376   4.419  10.334 -0.1434 -0.4212 -0.0379
  624MOL0     H84182   3.483   4.515  10.443 -0.1880  0.9558 -2.2791
  624MOL0     H84183   3.191   4.536  10.408 -0.0362 -2.6323  2.8423
  624MOL0     H84184   3.274   4.458  10.525  1.5069 -0.4819  0.3205
  624MOL0     H84185   3.370   4.672  10.614  0.1514  1.7632 -2.3807
  624MOL0     H84186   3.294   4.761  10.479 -0.0555  0.6713  0.9581
  624MOL0     H84187   3.157   4.598  10.683 -1.5277 -1.9335 -1.6100
  624MOL0     H84188   3.170   4.775  10.697 -0.0533 -0.6154 -0.4230
  624MOL0     H84189   3.012   4.617  10.510  2.0371  0.7091  0.3687
  624MOL0     H84190   3.065   4.783  10.467 -2.0223  3.0557  2.5689
  624MOL0     H84191   2.975   4.991  10.631 -0.4170  0.4729  0.9699
  624MOL0     H84192   2.639   5.016  10.814  2.3337 -2.1385  2.3875
  624MOL0     H84193   2.805   5.072  10.853 -0.3554 -0.1337  1.2007
  624MOL0     H84194   2.660   5.146  10.590  0.5899  3.2194 -0.5003
  624MOL0     H84195   2.833   5.168  10.635 -1.2393  0.1032 -2.4419
  624MOL0     H84196   2.772   5.322  10.813 -1.0219 -0.2434  2.6336
  624MOL0     H84197   2.607   5.255  10.819 -1.0073 -0.0539 -1.8681
  624MOL0     H84198   2.694   5.445  10.616  1.2287 -0.1342  0.9518
  624MOL0     H84199   2.567   5.449  10.746  1.5987 -1.6565  2.6451
  624MOL0     H84200   2.338   5.224  10.468  0.3167  0.7156  2.0619
  624MOL0     H84201   1.993   5.318  10.392  0.3506  3.0693 -2.1555
  624MOL0     H84202   2.105   5.290  10.263 -1.1647 -0.8062  0.3879
  624MOL0     H84203   2.121   5.187  10.409  0.1148 -0.1306  0.2936
  624MOL0     H84204   2.087   5.802  10.200  0.6903  4.5370 -3.1328
  624MOL0     H84205   1.973   5.966  10.069  0.0472 -3.4936  0.8078
  624MOL0     H84206   1.639   6.192  10.308 -2.0777  1.2727 -1.7993
  624MOL0     H84207   1.788   6.282  10.295  0.9214 -0.1745  0.0345
  624MOL0     H84208   1.726   6.380  10.078 -0.2259 -2.2353 -3.2491
  624MOL0     H84209   1.586   6.275  10.055 -3.7467  2.7481  1.3524
  624MOL0     H84210   1.519   6.382  10.307 -2.5212 -1.3402 -1.9080
  624MOL0     H84211   1.468   6.434  10.151 -0.3812 -3.2745 -0.4048
  624MOL0     H84212   1.557   6.604  10.321 -2.0162 -2.5363  0.5532
  624MOL0     H84213   1.707   6.517  10.311  0.8154 -0.0029 -1.5171
  624MOL0     H84214   1.558   6.678  10.088  1.9427  3.3828 -1.9649
  624MOL0     H84215   1.718   6.614  10.058 -2.0575 -0.8121 -1.9144
  624MOL0     H84216   1.679   6.795  10.294  3.1455  1.0828  0.6962
  624MOL0     H84217   1.824   6.712  10.220 -0.8300 -3.3566 -2.4407
  624MOL0     H84218   1.650   6.940  10.112  1.4154  0.5235  2.6533
  624MOL0     H84219   1.768   6.843  10.014  0.6732  2.8701 -1.3506
  624MOL0     H84220   1.830   6.972  10.291  1.6205 -1.3013 -0.4337
  624MOL0     H84221   1.872   7.063  10.137  2.6526 -0.2116 -0.2735
  624MOL0     H84222   1.753   6.059  10.435 -0.7981 -0.7013 -1.1014
  624MOL0     H84223   1.869   5.890  10.555  0.8922  1.9570 -0.0757
  624MOL0     H84224   2.316   5.706  10.487  2.4398  0.0854 -3.2697
  624MOL0     H84225   2.503   5.592  10.567  0.5570 -2.2784 -0.1234
  624MOL0     H84226   3.705   4.290  10.064 -2.2172  0.7101 -0.4123
  624MOL0     H84227   3.688   4.169   9.850  1.9016 -0.0564 -0.6443
  624MOL0     H84228   3.821   4.172   9.449 -0.9095 -3.6008  1.0039
  624MOL0     H84229   3.847   4.039   9.239 -0.9283 -0.9692  0.4793
  624MOL0     H84230   3.531   3.958   8.981  1.3975 -0.8738 -0.8648
  624MOL0     H84231   3.556   4.122   8.917  0.9360  0.5066 -0.7100
  624MOL0     H84232   3.614   3.979   8.727 -2.1322  1.8159  1.4189
  624MOL0     H84233   3.720   3.875   8.820  1.2879  0.7104 -2.6832
  624MOL0     H84234   3.875   4.090   8.838 -0.0330  1.4915  0.8496
  624MOL0     H84235   3.748   4.175   8.749 -1.5629 -0.3501  4.1103
  624MOL0     H84236   3.808   4.036   8.541  0.1926 -1.2927 -1.0197
  624MOL0     H84237   3.897   3.927   8.638  0.7112 -0.0276 -0.9527
  624MOL0     H84238   4.166   4.264   8.580 -0.9777 -1.3790 -0.9272
  624MOL0     H84239   3.472   4.166   9.105 -0.3651 -0.9587 -0.1078
  624MOL0     H84240   3.439   4.315   9.300 -0.1064  0.6936  2.4348
  625MOL0     O84241   8.478   9.676   7.228  0.7066  0.2932 -0.4977
  625MOL0     C84242   8.482   9.753   7.131 -0.5778  0.7379  0.1911
  625MOL0     O84243   8.386   9.778   7.040 -0.8150 -0.3123  0.4862
  625MOL0     C84244   8.261   9.713   7.056  0.1109  0.1308 -0.7854
  625MOL0     C84245   8.197   9.678   6.939  0.1190  0.5614  0.0105
  625MOL0     C84246   8.075   9.606   6.943  0.4489 -0.2488  0.1648
  625MOL0     C84247   8.009   9.577   7.062  0.2481 -0.1054  0.5322
  625MOL0     O84248   7.886   9.519   7.077  0.0621  0.5499 -0.7348
  625MOL0     C84249   7.794   9.533   6.978  0.0327  0.4099  0.0233
  625MOL0     C84250   7.650   9.500   7.031  0.6144  0.0205 -0.4731
  625MOL0     C84251   7.636   9.347   7.078 -0.0208 -0.9743  0.3407
  625MOL0     C84252   7.677   9.309   7.223 -0.3436 -0.8618  0.8366
  625MOL0     C84253   7.604   9.182   7.273  0.1214  0.5716 -0.0968
  625MOL0     C84254   7.638   9.052   7.188 -0.9766  0.1564 -0.4246
  625MOL0     C84255   7.538   8.942   7.178  0.4359  0.8209  0.1533
  625MOL0     C84256   7.423   8.965   7.079  0.7285 -0.1994  0.6600
  625MOL0     N84257   7.473   8.956   6.939 -0.0435  0.8765  1.3150
  625MOL0     C84258   7.382   8.900   6.847  1.2033 -0.6876  0.1485
  625MOL0     C84259   7.453   8.867   6.733  0.2473  0.1424 -0.5504
  625MOL0     C84260   7.411   8.774   6.615  0.7701  0.0002  0.0392
  625MOL0     C84261   7.322   8.847   6.506 -1.1327  0.2991 -0.7433
  625MOL0     C84262   7.404   8.942   6.409 -0.5320  0.4504 -0.9934
  625MOL0     C84263   7.482   8.861   6.304 -0.6825 -0.0558 -0.8334
  625MOL0     O84264   7.555   8.955   6.221 -0.1676  0.0490 -0.0739
  625MOL0     C84265   7.591   8.896   6.104 -0.3090  0.2927  0.2898
  625MOL0     C84266   7.552   8.772   6.060  0.8243 -0.5936  0.7141
  625MOL0     C84267   7.591   8.722   5.935 -0.5180  0.5450 -0.2583
  625MOL0     C84268   7.549   8.589   5.890  0.0609  0.8566 -0.1017
  625MOL0     C84269   7.661   8.813   5.845 -0.2038 -0.5037  0.3444
  625MOL0     C84270   7.722   8.778   5.711  0.1031 -0.0199  0.0504
  625MOL0     O84271   7.752   8.882   5.626 -0.2792  0.1789 -0.4499
  625MOL0     C84272   7.735   8.856   5.492 -0.0588  0.0438  0.7978
  625MOL0     C84273   7.836   8.902   5.404 -0.0278 -0.3111 -1.1514
  625MOL0     C84274   7.823   8.893   5.272 -0.6133  0.4547  0.1451
  625MOL0     C84275   7.709   8.839   5.220  0.3488 -0.4193 -0.0529
  625MOL0     O84276   7.674   8.830   5.088  0.5652  0.1722  0.2031
  625MOL0     C84277   7.765   8.877   4.988 -0.0033  0.4717  0.5088
  625MOL0     C84278   7.686   8.887   4.858 -0.5620  0.6467  0.5333
  625MOL0     C84279   7.593   9.007   4.856 -0.5736 -0.0672  0.4014
  625MOL0     C84280   7.521   9.017   4.720 -0.3018  0.0650  0.4432
  625MOL0     C84281   7.426   8.907   4.679 -0.2861 -0.1586 -0.2019
  625MOL0     C84282   7.416   8.908   4.529 -0.3851  1.2515  0.3068
  625MOL0     C84283   7.342   9.020   4.465  0.9384 -0.4916  0.1711
  625MOL0     C84284   7.275   8.962   4.333 -0.4635 -0.2518  0.0453
  625MOL0    Cl84285   7.267   9.085   4.201 -0.1189  0.1231 -0.1103
  625MOL0     C84286   7.602   8.794   5.304  0.1764 -0.6801  0.1394
  625MOL0     C84287   7.613   8.803   5.439  0.7959 -0.4322  0.0827
  625MOL0     O84288   7.739   8.656   5.682  0.9746  0.2116 -0.0284
  625MOL0     C84289   7.686   8.941   5.883  0.1414  0.0610 -0.0563
  625MOL0     C84290   7.654   8.988   6.013 -0.5106  0.7725 -0.4161
  625MOL0     N84291   7.579   8.907   6.751 -0.1786  0.0356 -0.2166
  625MOL0     N84292   7.587   8.975   6.867 -0.6059  0.1993  0.5985
  625MOL0     C84293   8.073   9.610   7.179 -0.5895 -0.4532 -0.1445
  625MOL0     C84294   8.199   9.668   7.176 -1.2249  0.1881  0.0197
  625MOL0     C84295   8.612   9.821   7.119  0.2101  0.4034  0.3021
  625MOL0     C84296   8.615   9.929   7.035  0.0992 -0.0615  0.7605
  625MOL0     C84297   8.744   9.990   7.011  0.3629 -0.5599 -0.2000
  625MOL0     C84298   8.857   9.950   7.082  1.0812  0.0434  0.2052
  625MOL0     O84299   8.985  10.008   7.081  0.7582  0.4795  0.0750
  625MOL0     C84300   9.046  10.013   6.953 -0.0884 -0.2451  0.4719
  625MOL0     C84301   9.094  10.152   6.918 -0.6609  0.4067  0.2544
  625MOL0     C84302   9.231  10.180   6.975  0.1590 -0.7537 -0.3797
  625MOL0     C84303   9.271  10.323   6.956  0.3876  0.3922 -0.5147
  625MOL0     C84304   9.325  10.342   6.817 -0.1414 -0.4642 -0.0671
  625MOL0     C84305   9.376  10.357   6.706 -0.2979  0.0534 -1.1762
  625MOL0     C84306   8.847   9.841   7.159 -0.7101 -0.1850 -0.3461
  625MOL0     C84307   8.728   9.775   7.182  0.8079 -1.1621 -0.3385
  625MOL0     H84308   8.244   9.693   6.842  0.1250  1.7901  0.1873
  625MOL0     H84309   8.030   9.572   6.850 -1.0462 -3.0335  1.7906
  625MOL0     H84310   7.792   9.642   6.966 -2.0989  0.3495 -0.4843
  625MOL0     H84311   7.817   9.491   6.879  0.4837  1.8112 -0.4919
  625MOL0     H84312   7.633   9.575   7.110  3.2476  0.5493 -0.3159
  625MOL0     H84313   7.572   9.515   6.955  0.1893 -0.1109 -0.0721
  625MOL0     H84314   7.535   9.313   7.053 -1.4439  1.7395  1.9643
  625MOL0     H84315   7.692   9.294   7.001 -0.7549 -2.0773  0.5543
  625MOL0     H84316   7.785   9.295   7.211 -0.5505 -0.1489 -3.3409
  625MOL0     H84317   7.670   9.392   7.294  0.8556 -0.4127  0.4619
  625MOL0     H84318   7.601   9.171   7.382 -0.5303  2.9070  0.1919
  625MOL0     H84319   7.497   9.186   7.247  0.1555 -1.5305 -0.7689
  625MOL0     H84320   7.674   9.081   7.089  0.0551  0.5796  0.0587
  625MOL0     H84321   7.731   9.009   7.225  0.4596  2.3151 -1.3289
  625MOL0     H84322   7.588   8.854   7.136 -0.9187  1.0943 -2.2237
  625MOL0     H84323   7.503   8.918   7.278 -0.2557 -3.0467 -0.8223
  625MOL0     H84324   7.369   9.058   7.097 -0.1038 -0.5190 -0.1339
  625MOL0     H84325   7.350   8.887   7.100 -2.7080  2.4313 -0.6783
  625MOL0     H84326   7.280   8.865   6.861 -0.2946  2.9073 -0.4400
  625MOL0     H84327   7.499   8.729   6.570  2.1583  0.9443  1.7160
  625MOL0     H84328   7.349   8.692   6.654 -1.1125  1.1492 -0.3768
  625MOL0     H84329   7.240   8.900   6.557  0.5651  2.5853 -0.2306
  625MOL0     H84330   7.282   8.767   6.444  1.6827 -2.3680  0.6134
  625MOL0     H84331   7.473   9.008   6.462 -1.1523  0.7310 -0.5223
  625MOL0     H84332   7.336   9.009   6.355 -0.4559  0.0117 -1.6515
  625MOL0     H84333   7.403   8.809   6.250 -1.3391  0.1686 -0.1101
  625MOL0     H84334   7.543   8.782   6.350  0.4621  1.4996  0.4578
  625MOL0     H84335   7.501   8.701   6.125 -0.4863 -1.2160 -0.9330
  625MOL0     H84336   7.481   8.590   5.804 -2.9473 -3.3651  1.8525
  625MOL0     H84337   7.643   8.536   5.871 -0.4385 -0.7369  1.5936
  625MOL0     H84338   7.507   8.520   5.964 -1.3181  0.3573 -1.2935
  625MOL0     H84339   7.930   8.936   5.445  0.6643 -0.6097 -2.4335
  625MOL0     H84340   7.913   8.914   5.215  1.2173 -2.0385  1.8654
  625MOL0     H84341   7.799   8.978   5.009  3.9101 -0.4381 -0.6938
  625MOL0     H84342   7.857   8.818   4.981 -0.1515  0.2290  0.5983
  625MOL0     H84343   7.763   8.897   4.780 -0.7436 -0.2129  0.2366
  625MOL0     H84344   7.629   8.795   4.845  0.2951 -0.3823  3.3189
  625MOL0     H84345   7.646   9.102   4.864  1.3076 -0.9152 -1.0383
  625MOL0     H84346   7.514   9.008   4.931 -0.8968  1.7718  0.0795
  625MOL0     H84347   7.468   9.112   4.731  1.4960  1.0857  0.6648
  625MOL0     H84348   7.598   9.028   4.644  0.3697  2.5071  1.3982
  625MOL0     H84349   7.336   8.904   4.741  0.8381 -0.9282  1.4654
  625MOL0     H84350   7.469   8.811   4.710 -0.8819 -0.6496 -0.8663
  625MOL0     H84351   7.515   8.918   4.483 -0.5589  3.4867  0.2851
  625MOL0     H84352   7.374   8.814   4.494  1.3480  0.5717 -0.0317
  625MOL0     H84353   7.418   9.085   4.422  0.5735 -1.0553 -1.3803
  625MOL0     H84354   7.274   9.076   4.531  2.7413  1.9548  0.0692
  625MOL0     H84355   7.173   8.934   4.361  0.1498 -3.5280 -0.5129
  625MOL0     H84356   7.334   8.876   4.299  0.5861  1.3152 -2.3591
  625MOL0     H84357   7.520   8.748   5.249 -0.3763  0.4210  0.0154
  625MOL0     H84358   7.523   8.778   5.495 -1.6097  1.1117 -2.7938
  625MOL0     H84359   7.742   9.010   5.820 -1.1500 -0.5854 -2.0263
  625MOL0     H84360   7.668   9.085   6.059 -0.5031  0.2287  0.7808
  625MOL0     H84361   8.025   9.593   7.275  0.1775 -0.3962  0.2532
  625MOL0     H84362   8.244   9.686   7.273  0.6242  0.1877 -0.8004
  625MOL0     H84363   8.525   9.948   6.978  0.2899 -2.0572 -0.3083
  625MOL0     H84364   8.748  10.073   6.942 -2.8234 -1.2352 -1.3652
  625MOL0     H84365   9.129   9.943   6.942  0.6347  0.8592 -1.7963
  625MOL0     H84366   8.980   9.972   6.876 -0.6923 -1.1108  1.4392
  625MOL0     H84367   9.028  10.233   6.950 -0.4762  1.1789 -1.2691
  625MOL0     H84368   9.104  10.149   6.810 -3.1216 -0.2171 -0.0108
  625MOL0     H84369   9.313  10.114   6.945  2.8832  1.3135  1.9781
  625MOL0     H84370   9.206  10.161   7.079 -4.0420  1.1886 -0.8516
  625MOL0     H84371   9.348  10.347   7.029 -0.8497  0.1187  0.9305
  625MOL0     H84372   9.187  10.391   6.976  1.6040  1.9151 -0.3633
  625MOL0     H84373   9.423  10.371   6.611  3.1263 -2.4300 -0.0570
  625MOL0     H84374   8.935   9.801   7.208 -1.1151 -0.8562 -0.1646
  625MOL0     H84375   8.730   9.688   7.248 -0.2704 -1.5419 -0.7813
  626MOL0     O84376   6.976   7.550   8.865  0.7724 -0.4353  0.0771
  626MOL0     C84377   7.079   7.559   8.806  0.2799 -0.8848 -0.3859
  626MOL0     O84378   7.179   7.470   8.830 -0.0987 -0.5030  0.3098
  626MOL0     C84379   7.189   7.372   8.919 -0.0867 -0.0804 -1.3805
  626MOL0     C84380   7.093   7.322   9.002 -0.4119 -0.0855 -0.3006
  626MOL0     C84381   7.126   7.217   9.094 -0.1425 -0.1825 -0.7935
  626MOL0     C84382   7.259   7.171   9.104 -0.5822  0.1005  0.1092
  626MOL0     O84383   7.301   7.079   9.194 -0.2933 -0.2296 -0.0040
  626MOL0     C84384   7.201   6.985   9.244 -0.3318 -0.9009 -0.1359
  626MOL0     C84385   7.138   6.900   9.136 -0.3625  0.0256 -0.6137
  626MOL0     C84386   7.222   6.789   9.072  0.0919  0.1213 -0.4608
  626MOL0     C84387   7.232   6.674   9.171  0.0780  0.6077 -0.0765
  626MOL0     C84388   7.308   6.552   9.131 -0.2598 -0.2959  0.1550
  626MOL0     C84389   7.244   6.483   9.011  0.7375 -0.3994 -0.0332
  626MOL0     C84390   7.306   6.340   9.003  0.1507 -1.0158 -0.7829
  626MOL0     C84391   7.305   6.288   8.857 -0.5212  0.4376 -0.6174
  626MOL0     N84392   7.401   6.181   8.827 -0.3248 -0.2149 -0.1034
  626MOL0     C84393   7.535   6.182   8.836  0.4362 -0.0728 -0.2114
  626MOL0     C84394   7.575   6.064   8.795  0.7761  0.3919  0.1139
  626MOL0     C84395   7.712   6.014   8.782  1.2029 -0.5597 -0.3356
  626MOL0     C84396   7.766   6.087   8.662  0.1624 -0.7456  0.7106
  626MOL0     C84397   7.893   6.014   8.617  0.1288  0.6440 -0.3844
  626MOL0     C84398   7.983   6.101   8.528  0.5578 -0.7151 -0.0211
  626MOL0     O84399   8.042   6.209   8.599 -0.5974  0.0572  0.0555
  626MOL0     C84400   8.159   6.258   8.536 -0.0559 -0.2861 -1.0517
  626MOL0     C84401   8.209   6.213   8.412 -0.1239  0.7381  0.4744
  626MOL0     C84402   8.327   6.262   8.350  0.2356  0.6088 -0.9926
  626MOL0     C84403   8.366   6.217   8.213 -0.8463 -0.1018 -0.1381
  626MOL0     C84404   8.396   6.367   8.416 -0.0427  0.3996 -0.6264
  626MOL0     C84405   8.525   6.433   8.381 -0.0052 -0.3895 -0.1465
  626MOL0     O84406   8.557   6.545   8.450 -0.7560  0.0483 -0.4509
  626MOL0     C84407   8.693   6.579   8.458  0.6201 -0.1313 -0.6064
  626MOL0     C84408   8.784   6.489   8.509  0.0483  0.8134 -0.3238
  626MOL0     C84409   8.918   6.535   8.526 -0.0965  0.7946 -0.7556
  626MOL0     C84410   8.950   6.662   8.484 -0.8365 -0.6578 -0.0018
  626MOL0     O84411   9.069   6.713   8.520 -0.9039 -0.4473  0.2409
  626MOL0     C84412   9.082   6.835   8.586 -0.7727 -0.6843  0.1305
  626MOL0     C84413   9.206   6.833   8.678  0.0821 -0.3289 -0.8468
  626MOL0     C84414   9.182   6.924   8.797 -0.2096  0.3248  0.2146
  626MOL0     C84415   9.310   6.945   8.875  1.1196 -0.2656 -0.7000
  626MOL0     C84416   9.324   6.813   8.957  0.2466 -1.0160 -1.2482
  626MOL0     C84417   9.411   6.820   9.084 -0.3542 -0.7738  0.9124
  626MOL0     C84418   9.430   6.674   9.138  0.7288 -0.9114  0.1190
  626MOL0     C84419   9.299   6.612   9.187 -0.1477 -0.2869 -1.1566
  626MOL0    Cl84420   9.325   6.445   9.244  0.2312  0.0497 -0.4418
  626MOL0     C84421   8.855   6.740   8.422 -0.3706  0.4730 -0.6041
  626MOL0     C84422   8.725   6.700   8.403  1.0611 -1.1889 -0.1909
  626MOL0     O84423   8.588   6.378   8.299 -0.7778  0.4266  0.0630
  626MOL0     C84424   8.343   6.407   8.543 -0.4990 -1.1981 -0.3066
  626MOL0     C84425   8.230   6.357   8.602 -0.1379 -0.0136 -0.7841
  626MOL0     N84426   7.465   5.989   8.760 -0.6164  0.6426  1.3099
  626MOL0     N84427   7.360   6.059   8.775  0.3405  0.1119 -0.4495
  626MOL0     C84428   7.350   7.214   9.010 -0.0335 -0.9683 -1.2857
  626MOL0     C84429   7.319   7.318   8.923  0.3205 -0.0811  0.1730
  626MOL0     C84430   7.090   7.664   8.715  0.8424  0.1174  1.1767
  626MOL0     C84431   7.215   7.699   8.658 -0.3051 -0.7336 -0.9350
  626MOL0     C84432   7.232   7.803   8.563 -0.5140  0.3003 -1.0243
  626MOL0     C84433   7.125   7.879   8.529  0.3655  0.5745 -0.4779
  626MOL0     O84434   7.150   7.983   8.444 -0.2604 -0.5981  0.4870
  626MOL0     C84435   7.038   8.052   8.385  0.0800 -0.2964  0.2392
  626MOL0     C84436   7.080   8.162   8.279  0.1906  1.1712  0.0599
  626MOL0     C84437   7.163   8.101   8.166 -0.0078 -0.2205  0.5422
  626MOL0     C84438   7.181   8.201   8.054 -0.5869 -0.4135  0.7533
  626MOL0     C84439   7.272   8.309   8.090  0.1220 -0.2149 -0.1820
  626MOL0     C84440   7.361   8.367   8.140  0.4721 -0.9210  0.2842
  626MOL0     C84441   6.997   7.849   8.592  0.9757 -0.6861  0.4922
  626MOL0     C84442   6.984   7.758   8.687  0.5967  0.3226  0.7133
  626MOL0     H84443   6.987   7.345   9.000 -0.0198  1.9360 -0.0834
  626MOL0     H84444   7.057   7.172   9.164  2.2677 -0.3349  1.6760
  626MOL0     H84445   7.254   6.922   9.316 -2.2603  0.7817  3.0226
  626MOL0     H84446   7.123   7.025   9.309 -0.6487  0.3837 -1.2430
  626MOL0     H84447   7.051   6.863   9.191  1.2905  1.4050  3.3559
  626MOL0     H84448   7.091   6.964   9.061 -0.7542 -1.1251 -1.3897
  626MOL0     H84449   7.168   6.746   8.987 -1.7997 -1.5788  1.4582
  626MOL0     H84450   7.318   6.829   9.038  0.0525  1.3085  0.7401
  626MOL0     H84451   7.274   6.718   9.262 -1.4013  3.6703 -0.7537
  626MOL0     H84452   7.128   6.646   9.193 -0.1741 -1.6225 -3.3743
  626MOL0     H84453   7.406   6.581   9.092  0.5791 -1.3369  1.4351
  626MOL0     H84454   7.303   6.472   9.205 -0.4085 -0.4628 -0.0333
  626MOL0     H84455   7.135   6.474   9.017  0.8005 -1.6587 -0.3981
  626MOL0     H84456   7.270   6.532   8.917 -2.0383 -2.7192 -2.2178
  626MOL0     H84457   7.407   6.355   9.043 -0.3840  2.7641 -0.4959
  626MOL0     H84458   7.254   6.264   9.062  2.3549 -2.2540 -0.3254
  626MOL0     H84459   7.321   6.383   8.806 -1.2358  0.3528 -1.0158
  626MOL0     H84460   7.204   6.258   8.828  0.5303 -0.9169 -3.2173
  626MOL0     H84461   7.612   6.250   8.870  2.8738 -1.0441 -3.2908
  626MOL0     H84462   7.766   6.045   8.873  1.2044 -1.4760 -0.0114
  626MOL0     H84463   7.713   5.906   8.769 -2.2698 -0.6073 -1.1460
  626MOL0     H84464   7.809   6.183   8.690  0.9811  0.0378 -2.7170
  626MOL0     H84465   7.689   6.112   8.588  0.1928 -0.3404  0.8145
  626MOL0     H84466   7.875   5.928   8.552  2.1860 -0.3871  0.3151
  626MOL0     H84467   7.957   5.969   8.694  0.2793  2.1466  0.4151
  626MOL0     H84468   7.927   6.133   8.440  0.7948 -0.7506 -0.1846
  626MOL0     H84469   8.061   6.031   8.496  0.1798 -0.5514 -1.3363
  626MOL0     H84470   8.150   6.144   8.353 -1.4906  4.2020 -2.6058
  626MOL0     H84471   8.281   6.183   8.155 -1.2565 -3.4035  2.1395
  626MOL0     H84472   8.415   6.298   8.157  0.4520 -0.2436  0.7416
  626MOL0     H84473   8.432   6.130   8.208 -0.2307  0.2489  1.1979
  626MOL0     H84474   8.756   6.391   8.545  2.1908  0.3392  0.1877
  626MOL0     H84475   8.995   6.473   8.570  0.1219  2.6038  1.6663
  626MOL0     H84476   9.088   6.917   8.514 -4.3535  0.1479  0.5518
  626MOL0     H84477   8.989   6.847   8.643  0.8650 -1.8142  3.2159
  626MOL0     H84478   9.213   6.731   8.716 -0.6630 -0.5953 -1.3997
  626MOL0     H84479   9.300   6.862   8.629  1.6709  1.1820  2.7601
  626MOL0     H84480   9.101   6.881   8.858 -0.3054  0.2530  0.0387
  626MOL0     H84481   9.142   7.019   8.762  0.5106  0.3055 -0.6819
  626MOL0     H84482   9.396   6.961   8.809  0.9639  1.6224 -0.5240
  626MOL0     H84483   9.304   7.041   8.927 -0.5640 -0.1857 -0.9760
  626MOL0     H84484   9.369   6.742   8.887 -0.1736 -2.3141 -0.2339
  626MOL0     H84485   9.226   6.783   8.995  1.6210 -2.4132  1.4572
  626MOL0     H84486   9.512   6.856   9.062 -1.3315  0.8506 -1.3783
  626MOL0     H84487   9.365   6.884   9.159 -2.1391 -0.2991 -0.5100
  626MOL0     H84488   9.498   6.690   9.222  1.6009 -3.0450 -0.1445
  626MOL0     H84489   9.471   6.607   9.062  3.9346  1.0739 -0.0906
  626MOL0     H84490   9.231   6.613   9.102  1.1961 -0.2532 -2.2552
  626MOL0     H84491   9.251   6.671   9.266 -0.4535  0.1419 -1.6584
  626MOL0     H84492   8.876   6.843   8.398  0.1714  0.1641 -1.4808
  626MOL0     H84493   8.649   6.755   8.348  3.7595  2.7144 -0.3874
  626MOL0     H84494   8.390   6.486   8.601 -2.7480 -0.6565  0.8794
  626MOL0     H84495   8.198   6.392   8.700 -0.1887 -1.9767 -0.0678
  626MOL0     H84496   7.452   7.177   9.019 -0.6401 -2.1553  2.3552
  626MOL0     H84497   7.408   7.348   8.870  3.1233 -2.3792  3.1828
  626MOL0     H84498   7.306   7.651   8.692  0.0417  2.4010  3.5153
  626MOL0     H84499   7.328   7.821   8.516 -1.4865  1.0376 -2.8187
  626MOL0     H84500   6.963   7.981   8.347  0.7147 -1.7034  1.4928
  626MOL0     H84501   6.981   8.095   8.468 -0.8011 -0.5274 -0.2318
  626MOL0     H84502   7.142   8.240   8.325 -0.2196  2.0418 -0.8477
  626MOL0     H84503   6.992   8.216   8.244 -0.2421  0.8711  0.6737
  626MOL0     H84504   7.110   8.014   8.125  2.1263 -3.0182  3.2280
  626MOL0     H84505   7.255   8.053   8.201  1.5015 -1.2347 -4.0174
  626MOL0     H84506   7.085   8.238   8.018 -0.8988 -1.1262  0.8380
  626MOL0     H84507   7.241   8.150   7.979  0.8812 -0.5071  1.9251
  626MOL0     H84508   7.434   8.435   8.180  0.5983 -0.3710 -0.8303
  626MOL0     H84509   6.903   7.899   8.572  2.1393  0.3858 -3.2487
  626MOL0     H84510   6.883   7.738   8.724  0.0225  0.7214 -0.5815
  627MOL0     O84511   3.163   0.848   2.264  0.2914 -0.3405 -0.4486
  627MOL0     C84512   3.216   0.904   2.165 -0.6433 -0.4941  0.0339
  627MOL0     O84513   3.207   0.857   2.041  0.4641  0.7371  0.1202
  627MOL0     C84514   3.193   0.723   2.016 -0.3233 -0.4247  0.2009
  627MOL0     C84515   3.071   0.682   1.951  0.6531 -0.3629  1.4499
  627MOL0     C84516   3.061   0.550   1.914 -0.4762  0.0001 -0.2444
  627MOL0     C84517   3.155   0.449   1.943  0.1167 -0.1339  0.6039
  627MOL0     O84518   3.152   0.327   1.879  0.1584 -1.2841 -0.1133
  627MOL0     C84519   3.270   0.249   1.885  0.2821 -0.1683  0.1446
  627MOL0     C84520   3.257   0.108   1.840 -0.0434 -0.5744  0.5007
  627MOL0     C84521   3.391   0.029   1.837 -0.3097 -0.4687 -0.4724
  627MOL0     C84522   3.512   0.072   1.757 -0.3858 -1.2482  0.7459
  627MOL0     C84523   3.502   0.066   1.605 -0.6005 -0.3519  0.5125
  627MOL0     C84524   3.506  -0.081   1.551 -0.6318 -0.0160  0.8072
  627MOL0     C84525   3.577  -0.079   1.410 -0.8371  0.3015 -0.1982
  627MOL0     C84526   3.731  -0.081   1.432  0.4476  0.0504  0.6371
  627MOL0     N84527   3.785  -0.074   1.295 -0.3432 -0.2249  0.3014
  627MOL0     C84528   3.729  -0.030   1.176  0.0357 -0.2927 -0.1148
  627MOL0     C84529   3.806  -0.058   1.076  0.1936  1.0597 -0.0442
  627MOL0     C84530   3.781  -0.028   0.933  0.5145  0.1859 -0.0020
  627MOL0     C84531   3.898   0.028   0.863 -0.0328 -0.3140  1.0216
  627MOL0     C84532   3.874   0.055   0.715  0.6979 -0.5572  0.3059
  627MOL0     C84533   4.002   0.109   0.651  0.6354 -0.0161 -0.3078
  627MOL0     O84534   3.984   0.165   0.519 -0.0885  0.4949  0.3672
  627MOL0     C84535   4.091   0.217   0.454 -0.5923  0.4402  1.1208
  627MOL0     C84536   4.217   0.246   0.507  0.5640 -0.6695  0.0016
  627MOL0     C84537   4.321   0.302   0.430  0.4168 -0.2794  0.1396
  627MOL0     C84538   4.446   0.333   0.507 -0.1040  0.5302  0.4903
  627MOL0     C84539   4.300   0.337   0.292  0.3033 -0.4640 -1.4907
  627MOL0     C84540   4.395   0.393   0.193  0.1287 -1.0267  0.3063
  627MOL0     O84541   4.338   0.447   0.082  0.2610  0.6510  0.2737
  627MOL0     C84542   4.408   0.510  -0.010  0.3384  0.1865 -0.0814
  627MOL0     C84543   4.517   0.446  -0.066  0.9865 -0.7866  0.3409
  627MOL0     C84544   4.580   0.508  -0.176 -0.1478 -0.6774  0.6240
  627MOL0     C84545   4.552   0.630  -0.224  1.2029  0.5419  0.5698
  627MOL0     O84546   4.630   0.682  -0.323  0.3822 -0.2595 -0.6515
  627MOL0     C84547   4.614   0.812  -0.380  0.4437 -0.3551 -0.4070
  627MOL0     C84548   4.677   0.832  -0.512  0.1277  0.8032 -0.7056
  627MOL0     C84549   4.683   0.972  -0.580 -0.1622  0.7833 -0.8922
  627MOL0     C84550   4.547   1.039  -0.571  0.2459  0.3266  1.0193
  627MOL0     C84551   4.440   0.965  -0.660  0.0322  0.5780 -0.6890
  627MOL0     C84552   4.291   1.016  -0.645 -1.0372  0.9757 -0.1366
  627MOL0     C84553   4.192   0.938  -0.731  0.7477 -0.5001  0.1349
  627MOL0     C84554   4.054   0.944  -0.675  0.1909 -0.4513  0.5357
  627MOL0    Cl84555   3.985   1.104  -0.670  0.0320  0.0366 -0.3950
  627MOL0     C84556   4.444   0.690  -0.173  0.1152 -0.3036 -1.4993
  627MOL0     C84557   4.369   0.635  -0.068  0.1257 -0.2992 -0.4173
  627MOL0     O84558   4.512   0.412   0.221  0.6969 -0.7791  0.2019
  627MOL0     C84559   4.172   0.307   0.245 -0.6025 -0.8145  0.2376
  627MOL0     C84560   4.066   0.250   0.323 -1.0432 -0.0025  0.1641
  627MOL0     N84561   3.905  -0.144   1.132  0.7205 -0.6796 -0.5661
  627MOL0     N84562   3.898  -0.142   1.260  0.2823 -0.2668  1.1122
  627MOL0     C84563   3.268   0.487   2.024 -0.5823 -0.1658 -0.1275
  627MOL0     C84564   3.278   0.627   2.065  0.3825  0.6492  0.0999
  627MOL0     C84565   3.292   1.027   2.175  0.4725  0.7402  0.4427
  627MOL0     C84566   3.311   1.106   2.066 -0.7340 -0.9346 -0.5818
  627MOL0     C84567   3.364   1.236   2.081 -0.0510  0.1298 -0.6949
  627MOL0     C84568   3.416   1.281   2.204 -0.3304  1.0830 -0.2219
  627MOL0     O84569   3.495   1.392   2.209 -0.2242 -0.3234  0.2915
  627MOL0     C84570   3.566   1.436   2.325 -0.1517 -0.1745 -1.4164
  627MOL0     C84571   3.674   1.545   2.306 -0.2615 -0.3118 -0.2159
  627MOL0     C84572   3.622   1.689   2.281  0.1846 -0.6356 -0.3084
  627MOL0     C84573   3.737   1.778   2.260  0.6131 -0.3353 -0.2733
  627MOL0     C84574   3.697   1.920   2.272  0.4455 -0.2779  0.9125
  627MOL0     C84575   3.661   2.035   2.290  0.0581  0.1814 -0.2051
  627MOL0     C84576   3.393   1.191   2.313  0.4787  0.4719  0.2152
  627MOL0     C84577   3.345   1.064   2.300  0.1456 -0.2948 -0.2592
  627MOL0     H84578   2.993   0.755   1.933 -1.5954 -2.7771  0.7127
  627MOL0     H84579   2.971   0.519   1.861 -0.9655 -1.4442  1.3042
  627MOL0     H84580   3.349   0.290   1.821 -0.4420  1.3978  0.2181
  627MOL0     H84581   3.321   0.241   1.982  2.5252 -2.7870 -1.0914
  627MOL0     H84582   3.197   0.051   1.911  0.6221 -0.8908  0.8163
  627MOL0     H84583   3.202   0.120   1.746 -0.2017  2.0304  0.8618
  627MOL0     H84584   3.425   0.023   1.941 -0.7986  3.0669  0.0213
  627MOL0     H84585   3.362  -0.070   1.800 -0.0936  0.1618 -2.4285
  627MOL0     H84586   3.548   0.169   1.792 -2.2711  0.5380 -1.9832
  627MOL0     H84587   3.592   0.002   1.784  1.3154  0.4059  0.1878
  627MOL0     H84588   3.410   0.118   1.577  0.8030  1.8665 -0.3092
  627MOL0     H84589   3.585   0.121   1.558 -0.8380 -1.5410 -1.3875
  627MOL0     H84590   3.572  -0.148   1.608 -2.2384 -2.0577  0.4047
  627MOL0     H84591   3.407  -0.126   1.540 -0.7895  0.9039 -2.7194
  627MOL0     H84592   3.553  -0.167   1.349  2.6358  0.5473 -2.1556
  627MOL0     H84593   3.550   0.012   1.356  0.3836  2.4596  2.5998
  627MOL0     H84594   3.768  -0.163   1.493  0.5279  0.1646  0.7421
  627MOL0     H84595   3.746   0.012   1.489 -2.5019 -0.5112  2.5668
  627MOL0     H84596   3.632   0.014   1.160  1.3575  2.5970 -0.7313
  627MOL0     H84597   3.744  -0.116   0.878  2.7237 -0.8351 -0.0005
  627MOL0     H84598   3.718   0.060   0.937 -3.3002 -2.3165  0.1347
  627MOL0     H84599   3.979  -0.045   0.859  0.9889  0.8463 -0.2779
  627MOL0     H84600   3.925   0.120   0.915  2.0126  0.2487 -0.9057
  627MOL0     H84601   3.787   0.120   0.710 -0.5716 -1.5192  5.1213
  627MOL0     H84602   3.840  -0.024   0.647 -0.7496  1.5677 -1.5645
  627MOL0     H84603   4.068   0.021   0.649  2.8527  1.5558  0.1667
  627MOL0     H84604   4.054   0.181   0.715  3.6358 -0.5708 -1.9048
  627MOL0     H84605   4.232   0.217   0.610 -1.9885 -0.4678  0.5090
  627MOL0     H84606   4.432   0.321   0.615 -2.9367 -0.5428  0.0937
  627MOL0     H84607   4.525   0.267   0.470  1.1155  1.9203  0.5270
  627MOL0     H84608   4.478   0.437   0.491  1.1694 -0.0426 -0.9443
  627MOL0     H84609   4.549   0.351  -0.025  1.9911 -0.5330  0.1628
  627MOL0     H84610   4.662   0.461  -0.229 -0.0724 -2.8389  2.4744
  627MOL0     H84611   4.508   0.842  -0.379  0.9225  1.4467  1.1427
  627MOL0     H84612   4.669   0.879  -0.313  0.5327 -0.5751 -0.2561
  627MOL0     H84613   4.780   0.797  -0.498 -0.3284 -0.9813 -1.5580
  627MOL0     H84614   4.622   0.753  -0.563 -0.6313 -1.6755  3.5330
  627MOL0     H84615   4.717   0.957  -0.683  1.4082 -0.8352 -0.1758
  627MOL0     H84616   4.756   1.035  -0.528 -0.3240 -0.9450  1.6047
  627MOL0     H84617   4.511   1.038  -0.468 -1.4334 -1.9342  0.5117
  627MOL0     H84618   4.553   1.143  -0.605 -1.4803  0.1441  0.0222
  627MOL0     H84619   4.440   0.859  -0.631 -3.0979  0.4501 -0.7682
  627MOL0     H84620   4.469   0.964  -0.765 -0.8272 -0.7317 -0.9488
  627MOL0     H84621   4.256   1.009  -0.541  1.9661  1.1173  0.9913
  627MOL0     H84622   4.297   1.121  -0.676  1.2655  0.8405 -0.3253
  627MOL0     H84623   4.211   0.830  -0.730  0.1486 -0.6127  1.5332
  627MOL0     H84624   4.204   0.960  -0.837 -1.6603 -3.0149 -0.7673
  627MOL0     H84625   4.053   0.896  -0.577 -0.5343  0.8268  1.1747
  627MOL0     H84626   3.994   0.881  -0.742 -0.5795 -1.5563  2.1779
  627MOL0     H84627   4.415   0.789  -0.205  0.1672 -0.4797 -2.1073
  627MOL0     H84628   4.280   0.681  -0.027  0.5644 -1.2353  1.7602
  627MOL0     H84629   4.159   0.331   0.140  0.7200  0.5780  0.3573
  627MOL0     H84630   3.970   0.235   0.275 -0.1137 -0.2738 -1.7099
  627MOL0     H84631   3.354   0.427   2.051 -1.5451 -1.0228  1.1890
  627MOL0     H84632   3.368   0.658   2.116  0.2977  1.8249 -0.4345
  627MOL0     H84633   3.288   1.070   1.966 -0.3681 -2.2317 -0.2088
  627MOL0     H84634   3.371   1.301   1.994  0.5028  1.6074  0.4170
  627MOL0     H84635   3.493   1.478   2.394 -1.5955 -0.0204 -2.9503
  627MOL0     H84636   3.608   1.348   2.375  1.7433  1.4338 -0.0324
  627MOL0     H84637   3.739   1.515   2.223  2.5317  5.4097 -0.5143
  627MOL0     H84638   3.743   1.551   2.391  0.2196  1.6038 -0.7052
  627MOL0     H84639   3.578   1.719   2.377  0.8836  0.8488 -0.4203
  627MOL0     H84640   3.539   1.698   2.210 -2.1893 -0.2325  2.3450
  627MOL0     H84641   3.768   1.774   2.155 -1.9064 -0.5182 -1.0593
  627MOL0     H84642   3.817   1.763   2.334 -1.7001 -4.1746  1.7868
  627MOL0     H84643   3.639   2.138   2.307  3.1961  1.0749 -1.0215
  627MOL0     H84644   3.436   1.234   2.403 -1.4225  1.9050  0.4952
  627MOL0     H84645   3.343   0.995   2.384 -0.0915 -0.6398 -0.5460
  628MOL0     O84646  10.959   1.824   3.118 -0.0683  0.8477 -0.1307
  628MOL0     C84647  11.083   1.828   3.124 -1.1582 -0.2637 -0.2417
  628MOL0     O84648  11.162   1.923   3.180  0.3085 -0.7185 -0.2110
  628MOL0     C84649  11.105   2.024   3.246 -1.1527  0.3900 -0.3499
  628MOL0     C84650  11.059   2.138   3.187 -0.2813  0.3209 -0.3415
  628MOL0     C84651  10.994   2.242   3.262 -0.8752  0.2278 -0.1596
  628MOL0     C84652  10.969   2.221   3.394 -0.3259  0.2467 -0.2116
  628MOL0     O84653  10.901   2.325   3.449  0.5488 -0.1845  0.1028
  628MOL0     C84654  10.842   2.313   3.583 -0.0340  0.1645  0.8640
  628MOL0     C84655  10.706   2.386   3.594 -0.0873 -0.3989  0.4033
  628MOL0     C84656  10.609   2.302   3.512  0.4577  0.2514  0.1993
  628MOL0     C84657  10.463   2.359   3.513  0.4361  0.6792 -0.4033
  628MOL0     C84658  10.361   2.296   3.424 -0.6771  0.1811 -0.1748
  628MOL0     C84659  10.214   2.327   3.461  0.2567  0.2617  0.4353
  628MOL0     C84660  10.188   2.475   3.496 -0.2644 -1.0600 -0.0970
  628MOL0     C84661  10.200   2.564   3.370  0.2850 -0.7098 -0.0237
  628MOL0     N84662  10.185   2.702   3.421 -0.2667 -0.8052  0.7626
  628MOL0     C84663  10.277   2.758   3.507 -0.0843 -0.1704  0.4213
  628MOL0     C84664  10.237   2.888   3.514 -0.8474 -0.9563  0.5854
  628MOL0     C84665  10.292   2.996   3.604 -0.3368 -0.2607 -0.3588
  628MOL0     C84666  10.452   3.011   3.619  0.4926 -0.3979  0.5059
  628MOL0     C84667  10.503   3.068   3.480 -0.0372 -0.9810  0.0822
  628MOL0     C84668  10.500   2.980   3.357 -0.6326  0.3047  0.0312
  628MOL0     O84669  10.531   2.843   3.397  0.4973 -0.0431  0.1736
  628MOL0     C84670  10.556   2.756   3.297 -0.5156 -0.3510  0.4225
  628MOL0     C84671  10.502   2.759   3.179  0.4890  0.6252  0.2677
  628MOL0     C84672  10.528   2.653   3.097  0.3671 -0.2267  0.8618
  628MOL0     C84673  10.441   2.658   2.970  1.1710  0.6248  0.0186
  628MOL0     C84674  10.618   2.551   3.123  0.0037  0.3064 -0.2691
  628MOL0     C84675  10.658   2.441   3.020 -1.4301  0.5379  0.0465
  628MOL0     O84676  10.774   2.462   2.956 -0.2280 -0.1666  0.0840
  628MOL0     C84677  10.845   2.359   2.897  0.4183 -0.1365  0.4978
  628MOL0     C84678  10.834   2.222   2.931  0.7481 -0.0439  0.8826
  628MOL0     C84679  10.914   2.122   2.869 -0.7503 -0.5809 -0.9252
  628MOL0     C84680  11.007   2.160   2.767  0.0690  1.1358 -0.1947
  628MOL0     O84681  11.104   2.075   2.711 -0.7508 -0.4512  0.2523
  628MOL0     C84682  11.114   1.935   2.760  0.2778 -0.4422 -0.3630
  628MOL0     C84683  11.215   1.872   2.663  0.0202 -0.0217  0.6544
  628MOL0     C84684  11.361   1.880   2.707  0.6100  1.2498 -0.3407
  628MOL0     C84685  11.436   1.791   2.610 -0.3254 -0.2097  0.8863
  628MOL0     C84686  11.587   1.771   2.621 -0.3887 -0.1949  0.1542
  628MOL0     C84687  11.634   1.729   2.760 -0.3006 -0.4903  0.7038
  628MOL0     C84688  11.786   1.715   2.767 -0.3626  0.8632  0.4575
  628MOL0     C84689  11.832   1.681   2.915  0.1853 -0.0055  0.4818
  628MOL0    Cl84690  11.787   1.515   2.967 -0.0826 -0.1589 -0.0514
  628MOL0     C84691  11.025   2.296   2.741 -0.3871  0.0646 -0.5566
  628MOL0     C84692  10.947   2.397   2.801  0.0848 -0.2260 -0.6987
  628MOL0     O84693  10.580   2.345   3.004 -0.1343 -0.3883 -0.0754
  628MOL0     C84694  10.691   2.562   3.242 -0.4573 -0.3358  0.2810
  628MOL0     C84695  10.658   2.667   3.326  0.3575 -0.5050 -0.8103
  628MOL0     N84696  10.126   2.905   3.423  0.1422  0.0059 -0.1313
  628MOL0     N84697  10.092   2.792   3.368  0.2424 -0.3239 -0.2697
  628MOL0     C84698  11.015   2.100   3.458 -0.4335 -1.1345  0.2866
  628MOL0     C84699  11.080   2.006   3.385  0.0927 -0.4146 -0.5800
  628MOL0     C84700  11.156   1.706   3.067  0.4697 -0.0729  0.5442
  628MOL0     C84701  11.290   1.714   3.056 -0.8422 -0.1008  0.4807
  628MOL0     C84702  11.355   1.608   2.995  0.2123  0.1388  0.0606
  628MOL0     C84703  11.291   1.498   2.946 -0.4498 -0.4803  0.4825
  628MOL0     O84704  11.373   1.400   2.885  0.3826 -0.7879  0.0634
  628MOL0     C84705  11.323   1.298   2.797 -0.7602 -0.4886 -0.5106
  628MOL0     C84706  11.431   1.273   2.685 -0.1965  1.6474  0.0302
  628MOL0     C84707  11.570   1.230   2.741  0.1885  1.2231  0.1090
  628MOL0     C84708  11.669   1.320   2.676 -0.3812  0.0855  0.0902
  628MOL0     C84709  11.687   1.288   2.534 -0.7029 -0.5813  0.7803
  628MOL0     C84710  11.708   1.281   2.413  0.0627  0.9246 -0.6707
  628MOL0     C84711  11.150   1.484   2.959  1.0219 -0.0719  0.1027
  628MOL0     C84712  11.088   1.594   3.012 -0.0105  0.8838  0.1754
  628MOL0     H84713  11.088   2.143   3.083  2.5900 -1.9097  0.2277
  628MOL0     H84714  10.945   2.324   3.212  0.3601  0.9915 -0.1625
  628MOL0     H84715  10.831   2.208   3.612  1.6485  0.0907  1.3852
  628MOL0     H84716  10.912   2.360   3.653  2.4766 -0.6946 -0.9456
  628MOL0     H84717  10.683   2.373   3.700  1.3212 -1.0283  0.6526
  628MOL0     H84718  10.707   2.491   3.564  1.0931 -0.7333 -0.8379
  628MOL0     H84719  10.651   2.289   3.411 -0.1452  1.8651 -0.2867
  628MOL0     H84720  10.610   2.204   3.561 -0.9092  0.7063  1.1675
  628MOL0     H84721  10.426   2.349   3.615  0.4557  3.4527 -0.0735
  628MOL0     H84722  10.465   2.465   3.487 -1.5213  0.0538 -3.7583
  628MOL0     H84723  10.391   2.325   3.324 -0.6199 -4.8550 -1.8828
  628MOL0     H84724  10.386   2.190   3.428  2.3476  0.7939 -0.8926
  628MOL0     H84725  10.137   2.290   3.393  0.9089 -0.5114  0.1014
  628MOL0     H84726  10.199   2.275   3.556 -2.9623  0.9914  0.4531
  628MOL0     H84727  10.087   2.484   3.537  0.3658 -0.0482  1.3078
  628MOL0     H84728  10.253   2.509   3.577 -0.0511 -4.1045  1.1811
  628MOL0     H84729  10.125   2.533   3.297 -3.4068  0.1107  3.1042
  628MOL0     H84730  10.302   2.541   3.339  1.0555 -0.1987  1.9920
  628MOL0     H84731  10.358   2.706   3.559 -1.2612 -1.8148  0.6929
  628MOL0     H84732  10.256   3.095   3.575  0.2614 -0.2608 -1.1396
  628MOL0     H84733  10.240   2.978   3.698 -0.8076 -0.1658 -0.5981
  628MOL0     H84734  10.486   2.911   3.646 -1.0868 -1.1823 -0.2632
  628MOL0     H84735  10.476   3.075   3.705  0.5957  1.0040 -0.5369
  628MOL0     H84736  10.607   3.102   3.482 -1.0791  2.5445  0.6649
  628MOL0     H84737  10.460   3.166   3.456 -0.1146 -1.7111 -3.3428
  628MOL0     H84738  10.565   3.025   3.281 -1.2042  0.3071 -0.4594
  628MOL0     H84739  10.403   2.976   3.307 -0.3178 -0.0217 -0.5660
  628MOL0     H84740  10.416   2.821   3.154  0.5495  2.5619  4.1392
  628MOL0     H84741  10.333   2.678   2.976  1.0994  0.2690 -0.0728
  628MOL0     H84742  10.483   2.718   2.889  6.3844 -0.0708  1.8406
  628MOL0     H84743  10.437   2.553   2.941  1.1478  0.7534 -0.4480
  628MOL0     H84744  10.762   2.185   3.004  1.2547  2.5314  2.8119
  628MOL0     H84745  10.910   2.021   2.908  0.1075  0.1664  1.2649
  628MOL0     H84746  11.140   1.931   2.866 -0.8970 -1.3079 -0.0862
  628MOL0     H84747  11.017   1.886   2.752  0.3248 -0.8744  1.3564
  628MOL0     H84748  11.200   1.764   2.660  3.3723 -0.5948  1.0129
  628MOL0     H84749  11.195   1.909   2.562 -2.9257 -0.0961  1.1357
  628MOL0     H84750  11.367   1.829   2.803 -2.8626  0.1107 -0.5712
  628MOL0     H84751  11.411   1.977   2.720  1.6704  0.3845  2.9816
  628MOL0     H84752  11.394   1.690   2.603  0.8455 -1.0621  4.1229
  628MOL0     H84753  11.419   1.821   2.506 -0.5972 -2.6335  0.1598
  628MOL0     H84754  11.645   1.859   2.592 -0.4811 -0.7307 -1.7861
  628MOL0     H84755  11.618   1.693   2.550  1.2401  1.0717 -0.6017
  628MOL0     H84756  11.607   1.809   2.830  2.4533 -1.2256  2.8058
  628MOL0     H84757  11.588   1.632   2.781 -1.1917 -1.1422 -3.4320
  628MOL0     H84758  11.833   1.809   2.739 -0.7258  0.8540 -0.2004
  628MOL0     H84759  11.818   1.628   2.709 -3.7423  0.3544 -0.8595
  628MOL0     H84760  11.796   1.759   2.982 -1.3592 -1.5163  1.4829
  628MOL0     H84761  11.942   1.681   2.917  0.2248 -1.3228 -0.2897
  628MOL0     H84762  11.101   2.330   2.672  2.6499 -0.5407  2.2303
  628MOL0     H84763  10.960   2.501   2.775 -4.1395  0.6485 -0.0515
  628MOL0     H84764  10.768   2.488   3.265  0.3695  0.4576  0.1109
  628MOL0     H84765  10.708   2.662   3.422 -0.3845  1.2128 -0.2945
  628MOL0     H84766  10.989   2.098   3.563 -1.3720  2.5389  0.2723
  628MOL0     H84767  11.115   1.919   3.440  1.1160 -0.1483 -0.7803
  628MOL0     H84768  11.354   1.801   3.069 -1.5803  0.2833  1.8132
  628MOL0     H84769  11.463   1.616   2.990  0.7279 -4.5870 -1.4968
  628MOL0     H84770  11.307   1.218   2.871  0.4446 -0.4842 -0.2297
  628MOL0     H84771  11.225   1.302   2.748 -1.9765 -1.1405  1.6919
  628MOL0     H84772  11.445   1.360   2.620 -0.0826  0.7535 -1.1764
  628MOL0     H84773  11.394   1.188   2.627  0.9589  0.2247  1.2582
  628MOL0     H84774  11.582   1.125   2.714 -2.5972  0.3185  1.8739
  628MOL0     H84775  11.583   1.241   2.849  0.2545  1.3448  0.0885
  628MOL0     H84776  11.767   1.312   2.724 -1.2180  1.4578  2.1601
  628MOL0     H84777  11.644   1.426   2.680  0.7254  0.3528  0.1706
  628MOL0     H84778  11.712   1.269   2.307  0.4013 -0.2340 -0.5390
  628MOL0     H84779  11.095   1.399   2.920  0.9453  0.4845 -1.0378
  628MOL0     H84780  10.980   1.595   3.003  0.0751 -2.0228 -3.8287
  629MOL0     O84781   6.937   9.473   5.578  0.0775 -0.1154  0.0746
  629MOL0     C84782   6.866   9.452   5.481 -0.1666 -0.3594  0.5236
  629MOL0     O84783   6.913   9.427   5.349  0.4649 -0.3662  0.1553
  629MOL0     C84784   7.044   9.390   5.340 -0.3324 -0.2877  0.2231
  629MOL0     C84785   7.074   9.271   5.397 -0.0608  0.9933 -0.0714
  629MOL0     C84786   7.205   9.222   5.393 -0.5103  0.1871 -0.5995
  629MOL0     C84787   7.301   9.299   5.330 -0.6518 -0.0196  1.0055
  629MOL0     O84788   7.432   9.245   5.324  0.0225  0.3449 -0.8330
  629MOL0     C84789   7.542   9.325   5.276 -0.0434  0.1932 -0.0042
  629MOL0     C84790   7.663   9.236   5.291  0.0288 -0.5577  0.2351
  629MOL0     C84791   7.788   9.305   5.236  0.3331  0.3719  0.3286
  629MOL0     C84792   7.913   9.218   5.234 -0.9218 -0.1872 -0.8004
  629MOL0     C84793   8.044   9.285   5.189  0.6495  0.1003  0.1363
  629MOL0     C84794   8.098   9.382   5.284  0.3236 -0.0779 -0.2537
  629MOL0     C84795   8.216   9.461   5.226  0.1058 -0.4006 -0.4093
  629MOL0     C84796   8.280   9.571   5.317 -0.3689  0.1591 -0.4412
  629MOL0     N84797   8.181   9.674   5.372  0.9097  0.5127  0.4921
  629MOL0     C84798   8.093   9.745   5.301 -1.1249  0.4557  0.0281
  629MOL0     C84799   8.039   9.834   5.394  0.0252 -0.3507  0.2515
  629MOL0     C84800   7.951   9.959   5.365 -0.2900  0.2852 -0.7260
  629MOL0     C84801   8.041  10.085   5.355  0.1567 -0.3420  0.7152
  629MOL0     C84802   7.991  10.207   5.439  0.5361 -0.1266 -0.1188
  629MOL0     C84803   8.046  10.335   5.381  1.1972  0.3831  0.1306
  629MOL0     O84804   7.961  10.446   5.432 -0.4925 -0.9447  0.8398
  629MOL0     C84805   8.003  10.576   5.396  0.1166  0.2299 -0.3779
  629MOL0     C84806   8.131  10.612   5.361  0.5846 -0.4331  0.3506
  629MOL0     C84807   8.159  10.738   5.310 -0.8500  0.0602  0.8518
  629MOL0     C84808   8.284  10.750   5.226  0.6625 -0.1165 -0.5004
  629MOL0     C84809   8.069  10.841   5.328  0.1974  0.2308  0.3279
  629MOL0     C84810   8.086  10.985   5.288 -0.0792 -0.7037 -0.5170
  629MOL0     O84811   8.188  11.045   5.345 -0.5636  0.6565 -0.4872
  629MOL0     C84812   8.236  11.172   5.293 -0.1221  0.5400 -0.3909
  629MOL0     C84813   8.370  11.190   5.258  0.4371  0.7417 -0.6485
  629MOL0     C84814   8.410  11.313   5.212 -0.0729  0.5008  0.4419
  629MOL0     C84815   8.322  11.421   5.195 -0.8741  0.0606 -0.3021
  629MOL0     O84816   8.354  11.555   5.174 -0.0488  1.0178 -0.2984
  629MOL0     C84817   8.474  11.603   5.227 -0.5536  0.4145  0.5996
  629MOL0     C84818   8.506  11.754   5.197 -0.2840 -0.7961  0.0052
  629MOL0     C84819   8.393  11.851   5.245 -0.7245  0.0013 -0.1232
  629MOL0     C84820   8.381  11.968   5.147  0.1718  0.3315 -0.0418
  629MOL0     C84821   8.318  12.088   5.208 -0.9000  0.0187  0.7035
  629MOL0     C84822   8.386  12.214   5.177  0.3572  0.1206  0.1296
  629MOL0     C84823   8.289  12.330   5.206 -0.2511  0.3673 -0.4591
  629MOL0     C84824   8.350  12.473   5.199 -0.0600 -1.0910 -0.0058
  629MOL0    Cl84825   8.403  12.501   5.040  0.2449 -0.0475  0.0593
  629MOL0     C84826   8.188  11.395   5.218 -0.0620  0.5431 -1.0236
  629MOL0     C84827   8.140  11.273   5.273 -0.1954  0.2226 -0.2253
  629MOL0     O84828   8.002  11.034   5.208 -0.1139 -0.1655  0.1749
  629MOL0     C84829   7.943  10.810   5.377  0.1811  0.3268 -0.6239
  629MOL0     C84830   7.914  10.674   5.403  0.6631  0.2339  0.5992
  629MOL0     N84831   8.101   9.813   5.513  0.5761  0.1250  0.0507
  629MOL0     N84832   8.185   9.716   5.495  0.2347  0.4834 -0.1300
  629MOL0     C84833   7.271   9.421   5.273  0.9194 -0.7948  0.9209
  629MOL0     C84834   7.137   9.469   5.277  0.1469 -0.8856  0.0283
  629MOL0     C84835   6.717   9.457   5.501 -0.1464 -0.4892  0.6769
  629MOL0     C84836   6.657   9.502   5.615 -0.0700  0.1767  0.4092
  629MOL0     C84837   6.517   9.515   5.632  0.9516  0.2796 -0.4487
  629MOL0     C84838   6.429   9.480   5.529  1.1049 -0.5559 -0.0328
  629MOL0     O84839   6.291   9.486   5.531 -0.3804  0.8596 -0.3324
  629MOL0     C84840   6.215   9.524   5.646 -0.3437 -0.5196 -0.1574
  629MOL0     C84841   6.106   9.418   5.653  0.0443 -0.1550  0.4353
  629MOL0     C84842   5.973   9.460   5.731  0.1831 -0.4212  0.1299
  629MOL0     C84843   5.866   9.349   5.730 -0.4186  0.0370 -0.1353
  629MOL0     C84844   5.922   9.240   5.805  0.4411  0.0388 -0.8810
  629MOL0     C84845   5.949   9.134   5.864 -0.7816  0.0728 -0.3960
  629MOL0     C84846   6.487   9.425   5.416  0.6022  0.1173  0.0466
  629MOL0     C84847   6.624   9.408   5.400 -0.2808 -0.3487 -1.0623
  629MOL0     H84848   6.986   9.224   5.439  0.1207  0.1587 -0.5984
  629MOL0     H84849   7.237   9.132   5.444 -2.6118  1.1111  2.6437
  629MOL0     H84850   7.525   9.357   5.173 -1.6185  4.5627  1.3751
  629MOL0     H84851   7.556   9.415   5.338  0.4534  1.2482 -1.5949
  629MOL0     H84852   7.683   9.199   5.392  1.5866 -0.8284 -0.1431
  629MOL0     H84853   7.640   9.146   5.233  1.0269 -0.4200 -0.4119
  629MOL0     H84854   7.775   9.337   5.132 -0.0360 -1.4263 -0.2113
  629MOL0     H84855   7.812   9.391   5.299  0.6030  1.4463 -1.1967
  629MOL0     H84856   7.932   9.190   5.338  1.1309 -0.3294 -1.1681
  629MOL0     H84857   7.897   9.133   5.167 -1.0617 -0.7495 -0.0674
  629MOL0     H84858   8.115   9.209   5.155  0.3650  0.3342 -1.0390
  629MOL0     H84859   8.027   9.338   5.094 -0.4249 -0.7261 -0.1574
  629MOL0     H84860   8.022   9.458   5.303  0.3948  0.3059 -1.4295
  629MOL0     H84861   8.123   9.323   5.373 -1.1905  1.1306  1.0326
  629MOL0     H84862   8.288   9.383   5.199 -1.5062 -2.6927  1.5112
  629MOL0     H84863   8.205   9.513   5.130 -1.1206  1.8603  0.8708
  629MOL0     H84864   8.362   9.627   5.271 -0.6577  0.0853 -1.0504
  629MOL0     H84865   8.318   9.520   5.406  0.7654  1.0089 -0.4200
  629MOL0     H84866   8.079   9.742   5.194  1.3665  0.9097 -0.3661
  629MOL0     H84867   7.892   9.949   5.273 -0.4981  2.4802 -0.8922
  629MOL0     H84868   7.886   9.953   5.453  2.2251  0.7469  1.2521
  629MOL0     H84869   8.057  10.117   5.251  1.8491 -1.1560  0.6868
  629MOL0     H84870   8.143  10.070   5.394  1.2589  2.6099 -0.7037
  629MOL0     H84871   8.008  10.199   5.547 -1.5447  3.3288  0.5790
  629MOL0     H84872   7.882  10.205   5.441  0.5192 -0.3400 -1.0795
  629MOL0     H84873   8.029  10.339   5.273 -0.4694  2.8448  0.3879
  629MOL0     H84874   8.153  10.345   5.403  1.0289  0.8625  0.7701
  629MOL0     H84875   8.215  10.543   5.368  1.3902  0.4405 -0.3329
  629MOL0     H84876   8.322  10.853   5.228  1.4430 -0.3039 -2.6831
  629MOL0     H84877   8.361  10.688   5.271  1.4381  0.0173 -1.6082
  629MOL0     H84878   8.259  10.719   5.124  1.0720 -0.3957 -0.5149
  629MOL0     H84879   8.431  11.102   5.274 -1.1855 -0.4744 -0.8309
  629MOL0     H84880   8.514  11.328   5.183  0.0942 -0.1575  0.6671
  629MOL0     H84881   8.470  11.589   5.336  1.6380 -1.1985  0.5287
  629MOL0     H84882   8.562  11.548   5.193 -1.3656 -0.9169  0.5580
  629MOL0     H84883   8.595  11.787   5.252 -1.6400  0.6929  1.4157
  629MOL0     H84884   8.522  11.759   5.089 -0.2990 -2.4657 -0.0961
  629MOL0     H84885   8.416  11.875   5.350 -1.1465 -1.0223  0.2082
  629MOL0     H84886   8.295  11.803   5.253 -0.4321 -0.5552  0.1697
  629MOL0     H84887   8.482  11.996   5.115 -0.4390  1.8127 -0.7777
  629MOL0     H84888   8.336  11.944   5.050 -0.2029  2.1281 -0.3660
  629MOL0     H84889   8.324  12.073   5.316 -0.9960  1.0725  0.8657
  629MOL0     H84890   8.211  12.097   5.187 -0.5871 -1.7199 -2.1873
  629MOL0     H84891   8.482  12.226   5.227  2.1265  1.3070 -3.2678
  629MOL0     H84892   8.410  12.217   5.070  0.1970  0.2384  0.0967
  629MOL0     H84893   8.259  12.320   5.311 -0.6180 -2.5561 -0.7712
  629MOL0     H84894   8.195  12.320   5.151  1.5762  0.4088 -3.8785
  629MOL0     H84895   8.440  12.492   5.258  1.5959 -0.2743 -2.6323
  629MOL0     H84896   8.276  12.546   5.234  0.5765 -0.2300 -0.4210
  629MOL0     H84897   8.113  11.474   5.209 -1.0343 -0.2879 -0.4778
  629MOL0     H84898   8.037  11.249   5.299  0.4843 -0.8943  1.7056
  629MOL0     H84899   7.869  10.887   5.398 -2.6260 -2.7014  1.7192
  629MOL0     H84900   7.819  10.645   5.448  1.5269 -0.2812  2.1668
  629MOL0     H84901   7.345   9.478   5.219  0.9072 -0.3750  1.3478
  629MOL0     H84902   7.114   9.569   5.242  1.9237 -0.6162 -0.4847
  629MOL0     H84903   6.709   9.535   5.705  2.1921 -4.9177  1.3072
  629MOL0     H84904   6.476   9.561   5.721  0.8052  0.8080 -0.7868
  629MOL0     H84905   6.269   9.528   5.742 -6.3377 -1.1545  3.7843
  629MOL0     H84906   6.161   9.618   5.633  2.1458  1.4232  2.1398
  629MOL0     H84907   6.149   9.328   5.698  1.6342 -0.2813 -1.2394
  629MOL0     H84908   6.080   9.402   5.548 -0.1098  1.1369  0.2545
  629MOL0     H84909   5.935   9.552   5.686  0.1987 -1.6750 -2.6765
  629MOL0     H84910   6.001   9.493   5.832  0.4657 -3.0001  0.9516
  629MOL0     H84911   5.857   9.327   5.623  1.0045  0.3188 -0.3264
  629MOL0     H84912   5.770   9.383   5.770 -1.2866 -0.8871 -1.3575
  629MOL0     H84913   5.992   9.042   5.897 -1.1358  0.2863  0.6843
  629MOL0     H84914   6.404   9.393   5.354 -1.7726  2.6766  1.6672
  629MOL0     H84915   6.669   9.350   5.320  2.6449 -0.3287  0.4250
  630MOL0     O84916   5.271  10.283   6.697  0.1410 -0.0619  0.3006
  630MOL0     C84917   5.177  10.307   6.613 -0.7979 -0.6640 -0.4637
  630MOL0     O84918   5.195  10.371   6.491  0.2588 -0.0056 -0.1661
  630MOL0     C84919   5.320  10.365   6.444  0.1376  0.0412  0.5834
  630MOL0     C84920   5.380  10.486   6.390  0.2955 -0.8780 -0.1116
  630MOL0     C84921   5.510  10.484   6.337  0.7747  0.6115  0.2071
  630MOL0     C84922   5.588  10.371   6.328 -0.1364 -0.5122  0.0722
  630MOL0     O84923   5.724  10.389   6.285  0.5735  0.5546 -0.0305
  630MOL0     C84924   5.793  10.270   6.250  1.3709 -0.4310 -0.0172
  630MOL0     C84925   5.940  10.294   6.214  1.0194 -0.9215 -0.1391
  630MOL0     C84926   5.949  10.369   6.081 -0.1540  0.0200 -0.1702
  630MOL0     C84927   6.089  10.353   6.023  0.4263 -0.6862  0.1591
  630MOL0     C84928   6.101  10.437   5.895 -0.0616  0.3941 -0.2475
  630MOL0     C84929   6.241  10.469   5.853  0.7724 -0.1179  0.1368
  630MOL0     C84930   6.338  10.354   5.863 -0.5827  1.0686 -0.7515
  630MOL0     C84931   6.469  10.393   5.796 -0.8420 -0.2599  0.2204
  630MOL0     N84932   6.587  10.305   5.837 -0.7720 -0.5333  0.3225
  630MOL0     C84933   6.716  10.308   5.787 -0.0735 -1.1707 -1.0110
  630MOL0     C84934   6.790  10.249   5.885  0.2958 -0.1331  0.9279
  630MOL0     C84935   6.937  10.235   5.884  1.0819 -0.5735 -0.4993
  630MOL0     C84936   7.000  10.217   6.021 -0.2648 -0.0026  0.2305
  630MOL0     C84937   6.999  10.337   6.106 -0.1817  0.5714 -0.2759
  630MOL0     C84938   7.015  10.310   6.259  0.5705 -0.4532  1.0682
  630MOL0     O84939   6.976  10.437   6.329 -0.0048  0.0029 -0.3385
  630MOL0     C84940   6.857  10.430   6.388 -0.7014  0.8206 -0.1167
  630MOL0     C84941   6.749  10.455   6.309 -0.1826  0.4916  0.8673
  630MOL0     C84942   6.627  10.471   6.366 -0.5136  1.2054  0.2505
  630MOL0     C84943   6.510  10.499   6.277 -0.2300  0.6748 -0.4907
  630MOL0     C84944   6.604  10.456   6.504  0.3072 -0.0028  0.7539
  630MOL0     C84945   6.458  10.445   6.552 -0.7988 -0.5239 -0.8649
  630MOL0     O84946   6.383  10.333   6.509 -1.0620  0.0768 -0.0572
  630MOL0     C84947   6.256  10.292   6.546  0.0693 -0.9409 -0.2806
  630MOL0     C84948   6.227  10.161   6.570  0.5717 -0.2151  0.4872
  630MOL0     C84949   6.099  10.120   6.600  0.5441 -0.2192 -0.0477
  630MOL0     C84950   6.000  10.220   6.627 -0.1695 -0.6294  0.2902
  630MOL0     O84951   5.876  10.173   6.668  1.1285 -0.4447 -0.0275
  630MOL0     C84952   5.767  10.267   6.687  0.2268 -0.2495 -0.3841
  630MOL0     C84953   5.644  10.194   6.745  1.0183  0.1994 -0.2816
  630MOL0     C84954   5.638  10.159   6.898 -0.9158  0.8200  0.1817
  630MOL0     C84955   5.488  10.170   6.938 -0.4089  0.1266  0.9226
  630MOL0     C84956   5.462  10.156   7.087  0.0157 -0.0221 -0.0017
  630MOL0     C84957   5.317  10.184   7.134  0.4012 -0.4826 -0.0948
  630MOL0     C84958   5.232  10.052   7.129  0.2627 -0.0136 -0.0932
  630MOL0     C84959   5.189  10.005   7.274 -0.1148 -0.4297  0.5666
  630MOL0    Cl84960   5.041  10.099   7.319 -0.6463  0.3486  0.0268
  630MOL0     C84961   6.038  10.358   6.613 -0.1972  0.0005 -0.2360
  630MOL0     C84962   6.161  10.385   6.569  0.2283  0.4122  0.8991
  630MOL0     O84963   6.427  10.518   6.645  0.8076  0.0853 -0.4896
  630MOL0     C84964   6.713  10.450   6.592  0.0716 -0.4507 -0.9233
  630MOL0     C84965   6.846  10.439   6.528  1.0074  0.4505 -0.4064
  630MOL0     N84966   6.704  10.190   5.982  0.2861 -0.6634 -0.3355
  630MOL0     N84967   6.593  10.221   5.944  0.1763 -0.4693  0.6601
  630MOL0     C84968   5.522  10.247   6.373 -0.2515 -0.3097  0.0828
  630MOL0     C84969   5.396  10.247   6.435  0.3200 -0.5960 -1.0799
  630MOL0     C84970   5.041  10.285   6.644 -0.2887 -0.2752  0.2356
  630MOL0     C84971   5.002  10.230   6.771 -0.3242 -0.2848  0.1880
  630MOL0     C84972   4.866  10.194   6.792 -1.3020 -0.2988  0.0314
  630MOL0     C84973   4.767  10.241   6.705  1.0158  0.3646  0.4564
  630MOL0     O84974   4.629  10.223   6.728 -0.1462 -0.5201 -1.0865
  630MOL0     C84975   4.589  10.143   6.845  0.4036  0.2432 -0.4568
  630MOL0     C84976   4.608  10.225   6.973 -0.4520  0.5896 -0.7806
  630MOL0     C84977   4.588  10.138   7.100 -0.7342 -0.2376 -0.7198
  630MOL0     C84978   4.566  10.232   7.220  1.1126 -0.1667 -0.0517
  630MOL0     C84979   4.685  10.294   7.275  0.0672 -0.5609 -0.0068
  630MOL0     C84980   4.792  10.340   7.307 -0.3483 -0.4321 -0.3818
  630MOL0     C84981   4.810  10.307   6.597 -0.1734 -0.5362 -0.7777
  630MOL0     C84982   4.943  10.331   6.561 -1.3054 -0.5197  1.3812
  630MOL0     H84983   5.316  10.573   6.390 -0.9454 -1.7705  0.3186
  630MOL0     H84984   5.557  10.578   6.307 -0.4264  2.3862  3.3514
  630MOL0     H84985   5.788  10.204   6.336  0.3027  0.1060  0.3518
  630MOL0     H84986   5.744  10.217   6.168  0.7638  2.8596 -1.9735
  630MOL0     H84987   5.977  10.363   6.290 -0.5943  0.8475 -0.8818
  630MOL0     H84988   5.993  10.198   6.209 -1.4706 -2.3278 -2.0721
  630MOL0     H84989   5.876  10.331   6.008  0.5532  1.4696 -1.6708
  630MOL0     H84990   5.936  10.474   6.107 -1.0471 -0.6993  2.7105
  630MOL0     H84991   6.167  10.382   6.094  0.0718  0.8214 -0.0394
  630MOL0     H84992   6.092  10.244   6.009 -2.5629 -0.9688  1.0248
  630MOL0     H84993   6.052  10.385   5.812 -1.0382 -0.9468  1.1256
  630MOL0     H84994   6.047  10.530   5.913  2.4492  2.3199 -1.8735
  630MOL0     H84995   6.249  10.499   5.748 -1.9513 -2.3321 -0.8124
  630MOL0     H84996   6.287  10.550   5.909  1.5266  0.5620 -1.3987
  630MOL0     H84997   6.355  10.332   5.969  0.8537 -2.8059 -1.6206
  630MOL0     H84998   6.301  10.260   5.821 -1.2445  1.7240 -1.6761
  630MOL0     H84999   6.488  10.497   5.825 -1.6351  0.7886 -2.7018
  630MOL0     H85000   6.457  10.383   5.688  0.9264 -2.1222  0.1464
  630MOL0     H85001   6.766  10.356   5.703  2.4197 -0.3763  0.7911
  630MOL0     H85002   6.966  10.150   5.821 -0.8504  0.3069 -2.7597
  630MOL0     H85003   6.978  10.326   5.840  0.8643  1.1283  2.5695
  630MOL0     H85004   7.106  10.193   6.009  0.2012  1.6632  0.7455
  630MOL0     H85005   6.944  10.131   6.058  0.6690 -0.9091 -0.3789
  630MOL0     H85006   6.897  10.373   6.093 -0.7242 -1.6577 -3.2245
  630MOL0     H85007   7.065  10.413   6.062 -0.3313  2.0004  1.7942
  630MOL0     H85008   7.121  10.284   6.272  0.7212 -1.1381 -1.1395
  630MOL0     H85009   6.956  10.223   6.291  0.1726 -0.5325  0.1655
  630MOL0     H85010   6.753  10.476   6.203 -3.5987 -1.2268  0.2572
  630MOL0     H85011   6.541  10.579   6.209  1.2539  1.1775  0.6925
  630MOL0     H85012   6.489  10.412   6.215  0.3003  0.6471 -0.6346
  630MOL0     H85013   6.415  10.528   6.323 -0.4293  1.4051 -1.3319
  630MOL0     H85014   6.299  10.081   6.555  2.1001  1.4749 -1.9945
  630MOL0     H85015   6.067  10.016   6.607 -4.5922  1.1531  1.0260
  630MOL0     H85016   5.796  10.340   6.763  0.7599 -2.4815  1.7040
  630MOL0     H85017   5.736  10.321   6.597 -5.3151 -1.6623  0.3129
  630MOL0     H85018   5.560  10.265   6.739  1.2797  0.4908 -0.5430
  630MOL0     H85019   5.617  10.103   6.691 -1.3474  1.1412 -0.8143
  630MOL0     H85020   5.697  10.225   6.962 -2.9224  1.0303  1.9085
  630MOL0     H85021   5.686  10.062   6.914  0.3752  1.1317 -1.4557
  630MOL0     H85022   5.453  10.267   6.903 -1.6817  0.4182  2.8016
  630MOL0     H85023   5.446  10.088   6.879  4.1768 -0.6401 -1.7403
  630MOL0     H85024   5.526  10.234   7.130  1.4822 -1.6900  0.9450
  630MOL0     H85025   5.495  10.054   7.106  0.9248  0.0496 -1.0348
  630MOL0     H85026   5.316  10.223   7.236  0.4897  1.2288 -0.7195
  630MOL0     H85027   5.266  10.266   7.083 -1.8434 -0.8760  1.3790
  630MOL0     H85028   5.283   9.966   7.083  0.4122 -0.7544  1.4033
  630MOL0     H85029   5.143  10.060   7.066 -0.5192 -1.0960  0.8348
  630MOL0     H85030   5.276  10.023   7.338  2.7797 -1.7721 -2.6676
  630MOL0     H85031   5.164   9.899   7.284 -0.8845 -0.0742  3.5249
  630MOL0     H85032   5.971  10.439   6.640  1.0807  0.3592  2.1491
  630MOL0     H85033   6.164  10.489   6.537  1.7914  0.0107 -0.4010
  630MOL0     H85034   6.679  10.438   6.695 -1.9045 -3.3229 -1.7718
  630MOL0     H85035   6.933  10.449   6.592  1.3227  0.0660 -0.7723
  630MOL0     H85036   5.578  10.155   6.383  2.1994  0.6120 -3.2459
  630MOL0     H85037   5.367  10.163   6.497  3.7976 -0.5088  0.9398
  630MOL0     H85038   5.080  10.194   6.837  0.4367  3.3099  1.4806
  630MOL0     H85039   4.844  10.134   6.880 -5.0006  1.1012  0.2643
  630MOL0     H85040   4.484  10.120   6.827  0.7873  1.0648 -4.9476
  630MOL0     H85041   4.639  10.046   6.841 -1.0575 -0.6822  1.5866
  630MOL0     H85042   4.530  10.302   6.977  0.8069  1.8634  0.7600
  630MOL0     H85043   4.706  10.274   6.983  0.9988 -2.3224  0.7199
  630MOL0     H85044   4.672  10.071   7.117 -0.0242  0.4536 -1.4112
  630MOL0     H85045   4.496  10.079   7.091 -1.0066 -0.2078  1.3793
  630MOL0     H85046   4.505  10.176   7.292  1.2345  0.7379  0.7823
  630MOL0     H85047   4.500  10.316   7.197  0.2767 -0.3758  1.4242
  630MOL0     H85048   4.895  10.369   7.314  0.0924 -2.3610  3.1724
  630MOL0     H85049   4.731  10.346   6.534 -0.6135 -2.1460 -1.2586
  630MOL0     H85050   4.964  10.381   6.467 -1.3714 -2.0499  0.5247
  631MOL0     O85051   9.715   7.545   1.474  0.1166 -0.4932  1.0857
  631MOL0     C85052   9.805   7.595   1.408  0.4888 -0.1170 -0.2270
  631MOL0     O85053   9.792   7.662   1.294 -0.1856 -0.1313 -0.5712
  631MOL0     C85054   9.669   7.639   1.237  0.4112  0.4053 -0.3890
  631MOL0     C85055   9.634   7.524   1.159  0.8635 -0.1551 -0.2253
  631MOL0     C85056   9.505   7.513   1.113 -0.2670 -0.9916  0.0528
  631MOL0     C85057   9.416   7.619   1.137  0.1016  0.2512  0.4476
  631MOL0     O85058   9.289   7.579   1.116 -0.1081  0.4190  0.4212
  631MOL0     C85059   9.177   7.655   1.163 -1.4253  0.0066  0.4623
  631MOL0     C85060   9.056   7.567   1.134  0.1681  0.2280 -0.7209
  631MOL0     C85061   8.945   7.576   1.240  0.1278 -0.4196 -0.3205
  631MOL0     C85062   8.843   7.469   1.195 -0.1074 -0.5645 -0.0415
  631MOL0     C85063   8.728   7.476   1.301 -0.3544  0.5059 -0.4173
  631MOL0     C85064   8.738   7.393   1.427 -1.1169  0.1028 -0.4261
  631MOL0     C85065   8.605   7.393   1.515 -0.2182  0.8485  1.0169
  631MOL0     C85066   8.625   7.450   1.652  0.1985 -0.2449  0.8608
  631MOL0     N85067   8.742   7.388   1.715  0.5012  0.6863  0.9210
  631MOL0     C85068   8.719   7.272   1.784  0.4590  0.7406 -0.1441
  631MOL0     C85069   8.846   7.231   1.822  0.2924 -0.4177 -0.8118
  631MOL0     C85070   8.892   7.110   1.898 -0.1851 -0.9368  0.1159
  631MOL0     C85071   8.982   7.008   1.822 -0.3151  0.7626 -0.4163
  631MOL0     C85072   9.119   7.077   1.789 -0.3600  0.5803 -0.6055
  631MOL0     C85073   9.218   6.981   1.727 -0.0632  0.3660 -0.2828
  631MOL0     O85074   9.345   7.034   1.756  0.8654  0.0242 -0.0397
  631MOL0     C85075   9.457   6.961   1.737 -0.5185  0.9452  0.0787
  631MOL0     C85076   9.479   6.901   1.611  0.2704 -0.5587  0.2082
  631MOL0     C85077   9.609   6.846   1.578  0.2581  1.0280 -0.8580
  631MOL0     C85078   9.619   6.775   1.453 -0.1328  0.1348 -0.2720
  631MOL0     C85079   9.714   6.841   1.681  0.5375  0.1570  0.2795
  631MOL0     C85080   9.849   6.776   1.654  0.0062 -0.4173  1.4415
  631MOL0     O85081   9.905   6.727   1.768 -0.8185  0.2217  0.4127
  631MOL0     C85082  10.034   6.667   1.781  0.5230  0.5797  0.2959
  631MOL0     C85083  10.053   6.618   1.909  0.0471  0.0346 -0.3144
  631MOL0     C85084  10.170   6.567   1.956 -0.2510  0.0613 -0.4407
  631MOL0     C85085  10.272   6.555   1.870 -0.1765 -0.8727  0.7839
  631MOL0     O85086  10.390   6.486   1.902  0.1642  0.0185  0.1332
  631MOL0     C85087  10.446   6.487   2.034  0.8809 -0.7637  0.2978
  631MOL0     C85088  10.578   6.415   2.019 -0.4772  0.4734  0.1582
  631MOL0     C85089  10.638   6.419   2.161 -0.0730  0.9020  0.5169
  631MOL0     C85090  10.776   6.339   2.154 -0.1613 -0.6875  0.0657
  631MOL0     C85091  10.830   6.314   2.292 -0.7924 -0.2445 -0.8174
  631MOL0     C85092  10.944   6.217   2.282 -0.0792 -0.3170 -0.6351
  631MOL0     C85093  11.011   6.176   2.417  0.8899 -1.3200 -0.2773
  631MOL0     C85094  11.085   6.295   2.490 -0.1957  0.7161 -0.7827
  631MOL0    Cl85095  11.223   6.367   2.391  0.2843  0.4428  0.1148
  631MOL0     C85096  10.253   6.597   1.730  0.5194  0.4319 -0.1462
  631MOL0     C85097  10.134   6.653   1.684 -0.2851 -0.7446  0.3589
  631MOL0     O85098   9.903   6.770   1.544  0.1463 -0.5261 -0.4921
  631MOL0     C85099   9.678   6.889   1.810 -0.1655  0.4779  0.3610
  631MOL0     C85100   9.557   6.952   1.834  0.4906  0.4803  0.5865
  631MOL0     N85101   8.932   7.336   1.780 -0.0995  0.1956 -0.0447
  631MOL0     N85102   8.869   7.427   1.715 -0.0660  0.8134 -0.1481
  631MOL0     C85103   9.446   7.737   1.205  0.0163 -0.8509 -0.3300
  631MOL0     C85104   9.577   7.744   1.250 -0.2914  0.3798  0.5658
  631MOL0     C85105   9.941   7.552   1.432 -0.0942  0.1178  0.5935
  631MOL0     C85106  10.056   7.635   1.380 -0.5262  0.3396 -0.7546
  631MOL0     C85107  10.186   7.597   1.412 -0.3000  0.1227 -0.0507
  631MOL0     C85108  10.213   7.491   1.495 -0.3819  0.0024 -0.0614
  631MOL0     O85109  10.343   7.442   1.522 -0.0522  0.8126  0.1491
  631MOL0     C85110  10.448   7.538   1.500 -0.4826 -0.0884  0.0903
  631MOL0     C85111  10.575   7.499   1.575  0.0356 -0.0960 -0.1893
  631MOL0     C85112  10.562   7.498   1.726  0.3442  0.4964  0.3210
  631MOL0     C85113  10.475   7.610   1.791 -0.0897 -0.7711  0.0771
  631MOL0     C85114  10.492   7.752   1.738 -1.1089 -0.0136 -0.4023
  631MOL0     C85115  10.508   7.867   1.707  0.7461 -0.7069  0.0000
  631MOL0     C85116  10.110   7.404   1.541 -0.4511 -0.4918  0.4213
  631MOL0     C85117   9.976   7.437   1.501  0.7509  0.3673 -0.1101
  631MOL0     H85118   9.696   7.435   1.156  0.7327 -0.2383 -0.4660
  631MOL0     H85119   9.466   7.420   1.072 -1.7587 -1.6596  2.7324
  631MOL0     H85120   9.189   7.680   1.269 -0.4232  1.0335  0.1284
  631MOL0     H85121   9.167   7.753   1.114  2.2486  0.3621  0.1680
  631MOL0     H85122   9.017   7.607   1.040 -2.0377 -1.8904 -0.8069
  631MOL0     H85123   9.081   7.461   1.122 -1.3906 -0.0008 -2.4392
  631MOL0     H85124   8.975   7.559   1.344  1.4185 -1.0554 -0.7800
  631MOL0     H85125   8.901   7.676   1.242  1.2638  0.0971  1.4431
  631MOL0     H85126   8.801   7.498   1.098 -1.1140  0.2705  0.6236
  631MOL0     H85127   8.876   7.366   1.185  1.5416 -0.0895  0.2636
  631MOL0     H85128   8.721   7.582   1.326  0.6833  0.1233  1.7258
  631MOL0     H85129   8.640   7.444   1.244 -0.9963 -0.4532  1.0515
  631MOL0     H85130   8.762   7.293   1.390  3.2675 -0.0027  1.9462
  631MOL0     H85131   8.826   7.431   1.481 -1.7640  2.2989 -0.8164
  631MOL0     H85132   8.519   7.440   1.466 -1.4358 -3.2685 -1.2386
  631MOL0     H85133   8.572   7.289   1.519  0.3832  0.5281 -1.2808
  631MOL0     H85134   8.532   7.434   1.707 -1.2203 -0.9308 -1.5745
  631MOL0     H85135   8.645   7.557   1.647 -1.9065  0.1741  0.4919
  631MOL0     H85136   8.633   7.213   1.814  1.1138  1.9015  4.8665
  631MOL0     H85137   8.930   7.136   1.997 -1.2789 -0.4622  0.4246
  631MOL0     H85138   8.798   7.056   1.912 -2.0281  2.3445  1.2880
  631MOL0     H85139   8.936   6.983   1.725  0.1742  2.8955 -1.2659
  631MOL0     H85140   8.993   6.925   1.891 -0.4452  1.3829  0.3661
  631MOL0     H85141   9.162   7.092   1.889 -0.4173  0.0508 -0.4983
  631MOL0     H85142   9.104   7.162   1.721  0.2706  1.8942  0.8333
  631MOL0     H85143   9.191   6.972   1.621 -3.2124 -0.6100  0.4866
  631MOL0     H85144   9.215   6.885   1.779 -1.5401  0.4470 -0.1873
  631MOL0     H85145   9.401   6.903   1.536 -1.0041 -0.7075  1.4777
  631MOL0     H85146   9.718   6.775   1.406 -1.0115 -0.8708 -2.2286
  631MOL0     H85147   9.593   6.673   1.485  1.7833 -0.9170 -1.8373
  631MOL0     H85148   9.538   6.804   1.385  0.6137  1.0738 -0.7824
  631MOL0     H85149   9.961   6.624   1.967 -2.2348 -0.4877 -3.5799
  631MOL0     H85150  10.173   6.541   2.061  0.3779  0.5519 -0.3312
  631MOL0     H85151  10.444   6.582   2.088 -0.4138  1.9272 -4.0505
  631MOL0     H85152  10.385   6.413   2.088  1.1872 -3.9560 -3.3188
  631MOL0     H85153  10.579   6.309   1.995  1.5450 -0.9525  5.2105
  631MOL0     H85154  10.632   6.473   1.944  0.5408 -0.7865 -0.1099
  631MOL0     H85155  10.568   6.377   2.233  0.2691  2.4503  1.7950
  631MOL0     H85156  10.660   6.519   2.199  0.1976 -0.4292  4.2853
  631MOL0     H85157  10.752   6.244   2.104  3.0139 -2.2201  1.1819
  631MOL0     H85158  10.850   6.393   2.094 -1.9290 -0.5647 -2.1582
  631MOL0     H85159  10.751   6.272   2.355 -1.8789 -0.1546 -2.1061
  631MOL0     H85160  10.864   6.406   2.342  1.0661  0.4119 -3.1259
  631MOL0     H85161  10.900   6.126   2.242 -1.5442 -0.2068  0.6629
  631MOL0     H85162  11.032   6.234   2.219  1.4268 -3.5220  0.3673
  631MOL0     H85163  11.080   6.093   2.396  0.9118 -1.2805 -0.3686
  631MOL0     H85164  10.929   6.134   2.476  1.3366  0.8953  2.0997
  631MOL0     H85165  11.116   6.256   2.587  0.4228 -0.3796 -1.4032
  631MOL0     H85166  11.011   6.372   2.515 -0.3577  0.7597 -1.3776
  631MOL0     H85167  10.337   6.594   1.662  2.0479 -0.7194  1.6898
  631MOL0     H85168  10.118   6.704   1.590  0.1275  1.3058  1.3400
  631MOL0     H85169   9.756   6.889   1.886  0.1189 -1.0878  0.0982
  631MOL0     H85170   9.540   6.999   1.931  1.1204  2.7707 -0.3577
  631MOL0     H85171   9.370   7.813   1.221 -1.0233 -2.1235  1.1142
  631MOL0     H85172   9.614   7.831   1.303 -1.8514  2.0054 -0.8436
  631MOL0     H85173  10.038   7.731   1.331  1.0395  1.4911  0.7660
  631MOL0     H85174  10.273   7.650   1.372 -1.3402  0.3192 -2.1832
  631MOL0     H85175  10.475   7.548   1.394  0.1446  3.6624  0.4826
  631MOL0     H85176  10.417   7.639   1.529  3.4631  1.4157 -0.3348
  631MOL0     H85177  10.653   7.571   1.551  0.0352  0.2326  0.7399
  631MOL0     H85178  10.595   7.400   1.533 -1.9124 -0.6132 -0.0113
  631MOL0     H85179  10.664   7.497   1.768 -0.5671 -1.0620  2.6881
  631MOL0     H85180  10.517   7.406   1.764 -1.3138  1.1546  0.0188
  631MOL0     H85181  10.505   7.597   1.896  2.0061 -0.9523 -0.4958
  631MOL0     H85182  10.369   7.584   1.789 -0.7701  1.4257  2.8029
  631MOL0     H85183  10.519   7.973   1.700  0.4615 -0.6661  0.1690
  631MOL0     H85184  10.124   7.307   1.587  3.4324  0.1938  1.0407
  631MOL0     H85185   9.896   7.369   1.531 -0.0717  1.6414  0.7174
  632MOL0     O85186  11.043   9.421   7.737  0.5161 -0.2486  0.4842
  632MOL0     C85187  11.040   9.529   7.683 -0.3533  0.1680  0.2737
  632MOL0     O85188  11.043   9.649   7.756 -0.1468  0.1195  0.5524
  632MOL0     C85189  11.060   9.641   7.891 -0.1347 -0.4250 -1.3243
  632MOL0     C85190  10.963   9.677   7.988  0.3662 -0.0020 -0.1171
  632MOL0     C85191  10.998   9.672   8.129  0.5265  1.0745  0.5643
  632MOL0     C85192  11.128   9.667   8.172  0.0117 -0.6449 -0.6484
  632MOL0     O85193  11.149   9.685   8.305  0.3173 -0.3032  0.0900
  632MOL0     C85194  11.278   9.718   8.339 -0.4971  0.5886 -0.8602
  632MOL0     C85195  11.298   9.794   8.480  0.4061  1.3010 -0.7302
  632MOL0     C85196  11.243   9.711   8.602  0.1473 -0.0075 -0.3645
  632MOL0     C85197  11.275   9.784   8.732  0.8370  0.7973 -0.7923
  632MOL0     C85198  11.195   9.720   8.849 -0.3321 -0.0891  0.3644
  632MOL0     C85199  11.204   9.790   8.998  0.0611 -0.3639  1.4256
  632MOL0     C85200  11.111   9.724   9.096  0.2612  0.0856  0.1736
  632MOL0     C85201  11.152   9.586   9.135 -0.5701  0.1102  0.3139
  632MOL0     N85202  11.293   9.571   9.178 -0.3097 -0.2034 -0.0577
  632MOL0     C85203  11.381   9.505   9.107 -0.2949 -0.2242  0.3212
  632MOL0     C85204  11.498   9.524   9.171  0.0037  0.7032  0.5579
  632MOL0     C85205  11.630   9.454   9.140 -0.1640  0.8653 -0.1016
  632MOL0     C85206  11.616   9.301   9.148  0.6517 -0.4956 -0.1320
  632MOL0     C85207  11.752   9.226   9.156 -0.8197 -0.5323 -0.6270
  632MOL0     C85208  11.855   9.261   9.272  0.5153  0.6921  1.1111
  632MOL0     O85209  11.974   9.181   9.237  0.8942  0.4221  0.2946
  632MOL0     C85210  12.092   9.210   9.301 -0.4768  0.8973  0.3211
  632MOL0     C85211  12.199   9.136   9.268 -0.7398  0.8405  0.2243
  632MOL0     C85212  12.326   9.156   9.329 -0.9415  0.4869  0.3144
  632MOL0     C85213  12.443   9.061   9.301  0.2140 -0.7229  0.2341
  632MOL0     C85214  12.346   9.270   9.415  0.2847 -0.0607  0.2801
  632MOL0     C85215  12.470   9.303   9.485 -0.3048 -0.2857 -0.4934
  632MOL0     O85216  12.553   9.204   9.515  0.3671  0.2127 -0.0041
  632MOL0     C85217  12.683   9.230   9.542  0.3804  0.1063 -0.7513
  632MOL0     C85218  12.715   9.264   9.679 -0.3281  0.2149  0.2010
  632MOL0     C85219  12.845   9.299   9.710 -0.4940  0.1513 -0.2728
  632MOL0     C85220  12.941   9.289   9.602  1.0124  0.1939 -0.1342
  632MOL0     O85221  13.073   9.315   9.639 -0.3715 -0.0549  0.0937
  632MOL0     C85222  13.172   9.356   9.542 -0.3161  0.0534  0.0599
  632MOL0     C85223  13.288   9.423   9.618 -0.5906  0.1600  0.2221
  632MOL0     C85224  13.325   9.366   9.758  0.0563  1.0868 -0.6815
  632MOL0     C85225  13.356   9.210   9.771 -0.2692  0.2631  0.7455
  632MOL0     C85226  13.448   9.150   9.666  0.6851  0.7752  0.6007
  632MOL0     C85227  13.461   8.995   9.679 -0.3731  0.7998  0.5707
  632MOL0     C85228  13.590   8.952   9.604 -0.1207  0.0478 -0.5089
  632MOL0     C85229  13.620   8.807   9.616 -0.5488  0.8944  0.1486
  632MOL0    Cl85230  13.784   8.792   9.588  0.1770  0.3754  0.0446
  632MOL0     C85231  12.906   9.246   9.474  0.0003  0.8957 -0.1778
  632MOL0     C85232  12.769   9.217   9.438 -0.0798  0.1739 -0.1151
  632MOL0     O85233  12.494   9.426   9.500  0.4893 -0.0647  0.0774
  632MOL0     C85234  12.231   9.343   9.441 -0.7163 -0.3609 -0.5892
  632MOL0     C85235  12.108   9.318   9.386  0.5613 -0.1650 -0.3871
  632MOL0     N85236  11.485   9.611   9.273 -0.0781  0.2204 -0.5235
  632MOL0     N85237  11.356   9.624   9.291  0.5596 -0.4144 -0.2836
  632MOL0     C85238  11.222   9.626   8.075 -0.0550  0.9452  0.0152
  632MOL0     C85239  11.192   9.616   7.939  0.5669  1.0049 -0.6074
  632MOL0     C85240  11.044   9.521   7.530  0.2039  0.0003 -0.0117
  632MOL0     C85241  10.993   9.630   7.447  0.1288  0.3144 -0.6194
  632MOL0     C85242  10.999   9.612   7.308  0.3743  0.1753 -0.6383
  632MOL0     C85243  11.047   9.499   7.245  1.0682  1.5314  0.1717
  632MOL0     O85244  11.006   9.494   7.118 -0.0414  0.1403  0.0670
  632MOL0     C85245  11.050   9.391   7.035 -0.3780  0.2273  0.1759
  632MOL0     C85246  11.056   9.445   6.883 -0.0876 -0.4962  0.3150
  632MOL0     C85247  11.171   9.546   6.852 -0.9759 -0.5315 -0.0375
  632MOL0     C85248  11.137   9.631   6.733 -1.6213 -0.7553 -0.0739
  632MOL0     C85249  11.256   9.713   6.691  0.4615  0.9974 -0.4224
  632MOL0     C85250  11.354   9.763   6.641  0.0479  0.6678  1.6638
  632MOL0     C85251  11.105   9.400   7.330 -0.4560  0.3787 -0.0217
  632MOL0     C85252  11.100   9.411   7.469 -0.8433 -0.0826  0.4947
  632MOL0     H85253  10.861   9.708   7.965  0.5834  0.9584  0.1655
  632MOL0     H85254  10.917   9.690   8.199 -0.5392  0.5162 -0.5116
  632MOL0     H85255  11.342   9.630   8.334 -0.4504  0.6983 -3.8818
  632MOL0     H85256  11.303   9.791   8.261 -4.0592  1.6024 -1.2194
  632MOL0     H85257  11.395   9.832   8.513 -0.0849  0.5372  1.7629
  632MOL0     H85258  11.244   9.889   8.474 -2.7020 -0.1119  2.0343
  632MOL0     H85259  11.140   9.678   8.592 -0.4879  2.0863 -1.1291
  632MOL0     H85260  11.294   9.614   8.593  0.4348  0.2769 -2.2238
  632MOL0     H85261  11.378   9.770   8.767  1.0981  0.8475 -1.5172
  632MOL0     H85262  11.260   9.892   8.725  0.8182  0.7462 -1.5903
  632MOL0     H85263  11.089   9.710   8.824 -0.1227 -1.1687 -0.1320
  632MOL0     H85264  11.236   9.620   8.861 -0.4127 -0.2710 -0.7085
  632MOL0     H85265  11.304   9.787   9.042  1.5314 -1.2584 -1.6814
  632MOL0     H85266  11.168   9.893   8.992 -1.0566 -0.7955 -1.7284
  632MOL0     H85267  11.110   9.791   9.183  0.6922 -0.6366  0.7459
  632MOL0     H85268  11.006   9.716   9.065 -0.0650 -2.8572  1.6701
  632MOL0     H85269  11.132   9.527   9.045 -2.2983  2.5769 -1.0378
  632MOL0     H85270  11.090   9.558   9.221  0.5429 -2.5243  0.3403
  632MOL0     H85271  11.373   9.455   9.011 -0.4912  2.9733 -1.4524
  632MOL0     H85272  11.666   9.486   9.042  0.8083 -1.0512 -0.4327
  632MOL0     H85273  11.710   9.484   9.209  1.6776  0.1337 -1.8244
  632MOL0     H85274  11.560   9.268   9.060  0.4836 -0.4535 -0.0390
  632MOL0     H85275  11.553   9.261   9.228 -2.1264  0.6510 -1.6154
  632MOL0     H85276  11.810   9.243   9.065  1.3782 -1.4914  0.5133
  632MOL0     H85277  11.729   9.120   9.152 -1.9887 -0.3557  0.5806
  632MOL0     H85278  11.829   9.226   9.372 -1.0294 -0.7147  0.2653
  632MOL0     H85279  11.886   9.366   9.263  0.4454  0.8899  2.8208
  632MOL0     H85280  12.189   9.056   9.194  2.5061  1.6892 -1.2945
  632MOL0     H85281  12.416   8.983   9.228 -0.8388 -0.8747  0.7607
  632MOL0     H85282  12.525   9.124   9.265 -0.6476  0.1925 -0.1912
  632MOL0     H85283  12.471   9.009   9.393 -0.5488 -1.5985 -0.0076
  632MOL0     H85284  12.639   9.298   9.749 -2.6244 -0.9326 -1.5955
  632MOL0     H85285  12.881   9.311   9.812  2.0985  1.5515 -1.2543
  632MOL0     H85286  13.207   9.271   9.483 -1.0030 -3.1559  3.8477
  632MOL0     H85287  13.130   9.432   9.474  0.6129  0.7608  0.2576
  632MOL0     H85288  13.380   9.417   9.560 -1.2107 -0.0202 -0.7609
  632MOL0     H85289  13.269   9.530   9.629  0.2771  0.1190  2.7535
  632MOL0     H85290  13.249   9.385   9.834 -1.3916 -1.6062 -1.2984
  632MOL0     H85291  13.414   9.420   9.790 -0.7267  2.3742 -0.6329
  632MOL0     H85292  13.396   9.195   9.871 -0.7070 -1.8138  0.6617
  632MOL0     H85293  13.259   9.159   9.771 -0.2497  0.1326 -1.1806
  632MOL0     H85294  13.546   9.198   9.674  0.8624  0.3666  0.9788
  632MOL0     H85295  13.417   9.174   9.564  0.1677 -2.2634 -0.0521
  632MOL0     H85296  13.487   8.962   9.779  2.3940 -1.4275 -0.7436
  632MOL0     H85297  13.370   8.944   9.646  0.4354 -0.8830  0.8408
  632MOL0     H85298  13.678   8.997   9.652  0.1081  0.3397 -1.1922
  632MOL0     H85299  13.583   8.980   9.499 -0.0289 -1.1382 -0.8529
  632MOL0     H85300  13.573   8.753   9.533 -0.8385  0.9230  0.2893
  632MOL0     H85301  13.583   8.770   9.712 -1.2672 -1.8270 -1.0655
  632MOL0     H85302  12.981   9.239   9.396  1.3657  1.4459  1.0137
  632MOL0     H85303  12.730   9.173   9.346 -0.3524 -1.3683  0.7064
  632MOL0     H85304  12.237   9.434   9.501 -0.2092 -0.0026 -1.1810
  632MOL0     H85305  12.026   9.388   9.402  1.1387  1.4470 -3.5551
  632MOL0     H85306  11.323   9.604   8.109 -0.0538  2.4374  1.1000
  632MOL0     H85307  11.265   9.582   7.866  0.6410  2.2928 -1.1609
  632MOL0     H85308  10.956   9.722   7.491  1.1399  0.9287 -1.0268
  632MOL0     H85309  10.954   9.685   7.241  1.8051  0.1471 -1.6654
  632MOL0     H85310  11.141   9.337   7.062 -0.5807 -0.9629 -1.4040
  632MOL0     H85311  10.972   9.315   7.031  1.6577 -1.9453 -0.8430
  632MOL0     H85312  10.969   9.507   6.859  1.0990  1.2926  0.3897
  632MOL0     H85313  11.062   9.362   6.812  0.5752 -1.2842  1.2673
  632MOL0     H85314  11.262   9.485   6.851 -1.0801 -0.7747  1.5926
  632MOL0     H85315  11.192   9.620   6.930  0.7164  1.4233 -2.2173
  632MOL0     H85316  11.051   9.697   6.748 -0.2894  1.5056 -1.7163
  632MOL0     H85317  11.130   9.567   6.644  0.2470 -2.0038  0.6288
  632MOL0     H85318  11.434   9.815   6.592 -0.3482 -1.2134 -1.2294
  632MOL0     H85319  11.133   9.302   7.292 -0.2323  0.2748  0.4022
  632MOL0     H85320  11.136   9.333   7.536 -0.1315 -3.1207 -3.1130
  633MOL0     O85321   5.430   1.428   4.348 -0.2336  0.9154  0.3001
  633MOL0     C85322   5.491   1.402   4.450 -0.7696 -0.6248  0.1835
  633MOL0     O85323   5.623   1.386   4.463  0.3442 -0.6460  0.0633
  633MOL0     C85324   5.708   1.411   4.353 -0.1106 -0.1960  0.1239
  633MOL0     C85325   5.819   1.329   4.316  0.1728  0.1076 -0.0396
  633MOL0     C85326   5.908   1.364   4.212 -0.1474  0.9131  0.0622
  633MOL0     C85327   5.888   1.488   4.146  0.0503  0.1112  0.3802
  633MOL0     O85328   5.962   1.541   4.046  0.9487 -0.2234  0.1767
  633MOL0     C85329   6.028   1.447   3.967 -1.0665  0.1032  0.3906
  633MOL0     C85330   6.040   1.519   3.830 -0.4564  1.1564  0.1670
  633MOL0     C85331   6.139   1.631   3.830 -0.6293 -0.3258 -0.1161
  633MOL0     C85332   6.093   1.745   3.743  0.3212 -0.3831  0.2218
  633MOL0     C85333   6.197   1.850   3.713  0.1745  0.1181 -0.2927
  633MOL0     C85334   6.122   1.954   3.629 -0.6347  0.5517 -0.7050
  633MOL0     C85335   6.083   1.920   3.486 -0.0401  0.4857 -0.4548
  633MOL0     C85336   6.063   2.056   3.408  0.0502  0.7695 -0.3463
  633MOL0     N85337   6.007   2.023   3.275  0.2893  0.0745  0.1216
  633MOL0     C85338   5.875   2.001   3.237 -0.3626  0.0423 -0.5124
  633MOL0     C85339   5.880   1.988   3.102  0.2423  0.0171  0.7182
  633MOL0     C85340   5.765   1.956   3.013  0.6242 -0.2029 -0.8385
  633MOL0     C85341   5.823   1.902   2.879 -0.4057 -0.9910 -0.3813
  633MOL0     C85342   5.878   1.761   2.905 -0.4215  0.2460 -0.4691
  633MOL0     C85343   5.861   1.668   2.777  0.5312  0.0877 -0.4914
  633MOL0     O85344   5.849   1.531   2.819 -0.6613 -0.5962 -0.7144
  633MOL0     C85345   5.957   1.479   2.887 -0.2447  0.1503  0.6071
  633MOL0     C85346   5.930   1.359   2.958 -0.1098 -0.3588  0.6811
  633MOL0     C85347   6.021   1.279   3.011  1.0722  0.1884 -0.2172
  633MOL0     C85348   5.960   1.155   3.082  0.3643  0.8080 -0.1403
  633MOL0     C85349   6.153   1.321   3.011  0.2930 -1.0851 -0.1094
  633MOL0     C85350   6.259   1.251   3.080  0.0920 -0.5720  0.5054
  633MOL0     O85351   6.376   1.322   3.106  0.2054 -0.3687  0.3679
  633MOL0     C85352   6.467   1.274   3.197  0.0741 -0.2744  0.0108
  633MOL0     C85353   6.437   1.188   3.304  0.1050 -0.1218  0.2761
  633MOL0     C85354   6.524   1.183   3.414  0.0087 -0.6050  0.7964
  633MOL0     C85355   6.653   1.245   3.406  0.7135 -1.6347 -0.2163
  633MOL0     O85356   6.741   1.248   3.514  0.0804 -0.0513 -0.2753
  633MOL0     C85357   6.876   1.234   3.485  0.8646  0.2941 -0.1371
  633MOL0     C85358   6.939   1.125   3.570 -0.5276 -0.6832  0.7165
  633MOL0     C85359   6.905   0.980   3.535 -0.0186  0.4284  0.2089
  633MOL0     C85360   6.987   0.874   3.604  0.9700 -0.1884  0.6850
  633MOL0     C85361   6.944   0.846   3.750 -0.7360 -0.5563  0.6369
  633MOL0     C85362   7.008   0.699   3.798  0.2237 -0.5715  0.6535
  633MOL0     C85363   7.010   0.710   3.954  0.7845 -0.3510 -0.1267
  633MOL0     C85364   7.083   0.588   4.015  0.7760  0.1255 -0.4033
  633MOL0    Cl85365   6.978   0.448   3.997 -0.2893 -0.1686 -0.3418
  633MOL0     C85366   6.681   1.333   3.300  0.2062 -0.2584 -0.2114
  633MOL0     C85367   6.586   1.345   3.198 -0.4667  0.3324 -0.2327
  633MOL0     O85368   6.246   1.132   3.099 -0.0165  0.8295  0.1080
  633MOL0     C85369   6.187   1.451   2.953 -0.4129 -0.0688 -0.0896
  633MOL0     C85370   6.092   1.522   2.886  0.2493  0.5163 -0.0960
  633MOL0     N85371   6.010   1.998   3.062  0.4013 -0.0556 -0.1718
  633MOL0     N85372   6.076   2.032   3.158  0.1923  0.5166 -0.4315
  633MOL0     C85373   5.792   1.574   4.196  0.4067 -0.4270  0.2079
  633MOL0     C85374   5.694   1.536   4.285 -0.5607 -0.2641  0.3453
  633MOL0     C85375   5.422   1.419   4.582  0.6736 -0.2544  0.9751
  633MOL0     C85376   5.274   1.421   4.583 -0.0416  0.8455  0.1219
  633MOL0     C85377   5.199   1.431   4.703  0.3603  0.0814  0.5914
  633MOL0     C85378   5.256   1.415   4.827  0.6302 -0.2283 -1.1650
  633MOL0     O85379   5.196   1.418   4.953  0.2173  0.1475 -0.1268
  633MOL0     C85380   5.062   1.440   4.957 -0.7818  0.4506 -0.4175
  633MOL0     C85381   5.026   1.425   5.112 -0.1726  0.1935 -0.0741
  633MOL0     C85382   4.869   1.452   5.122 -0.3678 -0.1348 -0.0420
  633MOL0     C85383   4.820   1.478   5.264 -0.4766 -0.8769  0.3381
  633MOL0     C85384   4.696   1.549   5.278  0.4334  0.7901  0.3275
  633MOL0     C85385   4.583   1.578   5.267 -0.0833 -0.8483 -0.9219
  633MOL0     C85386   5.393   1.400   4.824  0.7063  0.2699  0.2862
  633MOL0     C85387   5.474   1.407   4.710 -0.3977  0.4250  0.0754
  633MOL0     H85388   5.828   1.243   4.383  1.5517  0.3790  0.1429
  633MOL0     H85389   5.998   1.307   4.191  0.8598  2.2085  0.6530
  633MOL0     H85390   6.131   1.433   4.004 -1.0197 -0.8789 -0.0948
  633MOL0     H85391   5.974   1.353   3.954  0.9734 -0.7677 -3.0496
  633MOL0     H85392   6.064   1.444   3.754  0.6989  1.1142  0.5437
  633MOL0     H85393   5.937   1.545   3.805 -0.8451 -0.7753 -0.4006
  633MOL0     H85394   6.135   1.677   3.929  2.1691 -0.5572  0.1717
  633MOL0     H85395   6.243   1.600   3.819 -0.4860 -0.1256  0.6314
  633MOL0     H85396   6.063   1.698   3.648  2.0275 -1.5713  0.2220
  633MOL0     H85397   6.011   1.800   3.790  0.1956 -0.4397  0.0727
  633MOL0     H85398   6.239   1.901   3.800 -1.6328 -1.1807  1.4471
  633MOL0     H85399   6.270   1.804   3.647 -0.5793 -2.1522  0.3604
  633MOL0     H85400   6.034   1.982   3.686 -0.1092  1.5502 -0.3524
  633MOL0     H85401   6.185   2.044   3.626 -1.0322  0.8058 -1.8485
  633MOL0     H85402   6.169   1.863   3.450  1.5689  1.8710  1.0191
  633MOL0     H85403   5.998   1.851   3.486  1.2577 -1.2139 -1.6777
  633MOL0     H85404   6.159   2.101   3.384 -0.4078  1.0392 -1.7887
  633MOL0     H85405   5.993   2.119   3.463 -0.8121  1.1178 -1.7881
  633MOL0     H85406   5.786   1.984   3.297 -0.6340 -0.3398 -1.0136
  633MOL0     H85407   5.697   1.880   3.054  0.0727 -0.5652 -2.3595
  633MOL0     H85408   5.690   2.031   2.987 -1.9077 -2.4395 -0.5233
  633MOL0     H85409   5.906   1.961   2.838  0.8554 -0.8009  2.2585
  633MOL0     H85410   5.746   1.901   2.801 -2.5388  0.5309  1.5632
  633MOL0     H85411   5.820   1.715   2.985  1.4044 -0.5589  0.4503
  633MOL0     H85412   5.984   1.776   2.926 -0.3339 -0.3457 -0.4528
  633MOL0     H85413   5.924   1.704   2.695 -1.2143  0.9595 -1.4856
  633MOL0     H85414   5.760   1.682   2.740  0.2121 -0.7893  0.0213
  633MOL0     H85415   5.829   1.319   2.955 -1.0354  1.8506 -1.5299
  633MOL0     H85416   5.972   1.166   3.190  3.4364 -0.5133 -0.2393
  633MOL0     H85417   5.856   1.135   3.054  0.0325  1.2581  0.7466
  633MOL0     H85418   6.017   1.066   3.054 -0.1644  0.2840  0.4130
  633MOL0     H85419   6.339   1.144   3.317 -1.2926  2.8685  0.6437
  633MOL0     H85420   6.503   1.125   3.503 -0.0274  0.1193  1.2685
  633MOL0     H85421   6.883   1.214   3.378 -0.1901 -0.3734 -0.0988
  633MOL0     H85422   6.909   1.338   3.494  1.9556 -0.0906  0.4297
  633MOL0     H85423   7.045   1.151   3.560 -1.2094  2.8466  1.5890
  633MOL0     H85424   6.913   1.147   3.674 -3.1339  2.4286 -0.4316
  633MOL0     H85425   6.917   0.977   3.427 -0.9961  0.5451  0.0885
  633MOL0     H85426   6.797   0.966   3.547 -0.1270  2.0704  1.6430
  633MOL0     H85427   6.967   0.780   3.553 -1.7803  0.2155  0.8320
  633MOL0     H85428   7.094   0.895   3.607  1.9708 -4.3684 -0.3739
  633MOL0     H85429   6.836   0.853   3.763 -1.0627  1.4434 -2.2929
  633MOL0     H85430   6.982   0.928   3.813 -1.5309  1.7305 -1.7170
  633MOL0     H85431   6.941   0.618   3.768  0.8226 -2.6770  4.3036
  633MOL0     H85432   7.106   0.677   3.756 -0.2475 -1.2261 -0.1193
  633MOL0     H85433   6.907   0.708   3.992  0.8446  3.0792  0.5857
  633MOL0     H85434   7.053   0.803   3.992  1.4993 -1.8375  3.0650
  633MOL0     H85435   7.100   0.611   4.120 -0.6112  2.6367 -0.6589
  633MOL0     H85436   7.183   0.562   3.979  1.2961 -3.7293  3.0487
  633MOL0     H85437   6.778   1.381   3.296 -0.1806  0.5420 -0.2174
  633MOL0     H85438   6.593   1.436   3.140 -1.3879  0.4040 -0.2597
  633MOL0     H85439   6.291   1.481   2.950  0.4097 -2.6985 -1.4850
  633MOL0     H85440   6.116   1.623   2.853  3.3187  0.2877  1.1562
  633MOL0     H85441   5.782   1.672   4.151 -1.1454 -0.9653 -0.6923
  633MOL0     H85442   5.622   1.611   4.314  2.0026  2.7673 -0.5500
  633MOL0     H85443   5.237   1.401   4.482  2.3408 -2.6168 -0.2432
  633MOL0     H85444   5.093   1.441   4.686  0.1471 -1.5921  0.8309
  633MOL0     H85445   5.039   1.545   4.933 -1.2221 -0.1057 -2.5749
  633MOL0     H85446   5.007   1.372   4.892  0.9522 -0.3400 -1.1140
  633MOL0     H85447   5.081   1.503   5.166  2.8711 -2.6296  1.2879
  633MOL0     H85448   5.050   1.326   5.152  2.6936 -0.3020 -2.6319
  633MOL0     H85449   4.812   1.379   5.064  3.1823 -0.6694 -3.2703
  633MOL0     H85450   4.854   1.541   5.061  3.1864  0.2988 -0.4694
  633MOL0     H85451   4.893   1.536   5.322 -1.5511  1.1268 -0.2344
  633MOL0     H85452   4.808   1.385   5.320  0.6758 -2.3202 -1.6634
  633MOL0     H85453   4.494   1.636   5.250  0.2631  0.7186  1.9620
  633MOL0     H85454   5.444   1.383   4.919  1.9051  0.6173 -0.2732
  633MOL0     H85455   5.583   1.410   4.706 -0.4374  1.7162 -2.2949
  634MOL0     O85456   6.242   3.761   6.550 -0.5784 -0.7093 -0.1603
  634MOL0     C85457   6.343   3.717   6.495 -0.1669  0.2721  0.2868
  634MOL0     O85458   6.407   3.596   6.516 -0.6937  0.5651  0.1044
  634MOL0     C85459   6.344   3.492   6.585 -0.3281  0.4802  0.0135
  634MOL0     C85460   6.203   3.472   6.607 -1.7322 -0.6616 -0.5445
  634MOL0     C85461   6.150   3.364   6.669  1.0785  0.0488  0.1364
  634MOL0     C85462   6.241   3.263   6.697 -2.0823  0.1565 -0.1587
  634MOL0     O85463   6.196   3.139   6.743  0.2644  0.0187  0.0346
  634MOL0     C85464   6.103   3.146   6.860 -0.1288  0.0546 -0.3825
  634MOL0     C85465   6.092   2.996   6.910 -0.0904 -0.2932 -0.1418
  634MOL0     C85466   5.958   2.981   6.985  0.4975  0.1532  0.4998
  634MOL0     C85467   5.967   2.856   7.075 -0.8417  0.0785  0.4046
  634MOL0     C85468   5.817   2.811   7.120 -0.1677 -0.2426 -0.0122
  634MOL0     C85469   5.835   2.675   7.199  0.5112  0.0636 -0.1304
  634MOL0     C85470   5.705   2.609   7.245 -0.0380 -0.1094  0.0967
  634MOL0     C85471   5.687   2.470   7.207  0.1099  0.3120 -0.1530
  634MOL0     N85472   5.594   2.397   7.294  0.0152 -0.0255  0.1433
  634MOL0     C85473   5.616   2.283   7.377  0.2286 -0.5903  0.7051
  634MOL0     C85474   5.496   2.255   7.438  0.1297 -0.6455  0.0765
  634MOL0     C85475   5.460   2.140   7.530 -0.5565  0.4919  0.0385
  634MOL0     C85476   5.528   2.167   7.669 -1.1565  0.4085  0.7728
  634MOL0     C85477   5.510   2.045   7.765  0.4338  1.0748 -1.0231
  634MOL0     C85478   5.365   2.036   7.834 -0.0011  0.7266  0.4344
  634MOL0     O85479   5.266   1.990   7.751  0.4671 -0.8169  0.4917
  634MOL0     C85480   5.145   1.969   7.812 -0.5498  0.0467  0.2414
  634MOL0     C85481   5.058   1.895   7.738  0.3644  0.0843  0.4836
  634MOL0     C85482   4.916   1.878   7.760  0.3900 -0.6796 -0.1677
  634MOL0     C85483   4.838   1.797   7.664  0.4451 -1.0621 -0.1427
  634MOL0     C85484   4.869   1.929   7.887 -0.2272  0.3955  0.2473
  634MOL0     C85485   4.729   1.893   7.927  0.4754 -0.2140  0.6087
  634MOL0     O85486   4.717   1.855   8.050  0.1317 -0.4415 -0.2963
  634MOL0     C85487   4.591   1.844   8.115 -0.8377  0.0723 -0.0334
  634MOL0     C85488   4.472   1.900   8.068  0.1962  0.6508  0.1328
  634MOL0     C85489   4.352   1.868   8.128  0.3771 -0.3335 -0.8552
  634MOL0     C85490   4.345   1.792   8.245 -0.5167 -0.5303 -0.8441
  634MOL0     O85491   4.223   1.750   8.311 -0.3700 -0.4003  0.2624
  634MOL0     C85492   4.101   1.790   8.252  0.7900  0.6873 -0.3230
  634MOL0     C85493   3.987   1.779   8.351 -0.4329  0.2905  0.0652
  634MOL0     C85494   3.856   1.709   8.304 -0.3118  0.2275 -0.1293
  634MOL0     C85495   3.891   1.567   8.244  0.1392  0.0056  1.0328
  634MOL0     C85496   3.766   1.474   8.259  0.3761  0.2468 -0.4659
  634MOL0     C85497   3.660   1.502   8.155 -0.1141 -0.0991  0.2346
  634MOL0     C85498   3.583   1.380   8.105 -0.5252  0.3059  0.3843
  634MOL0     C85499   3.670   1.295   8.011  0.6248  0.2197 -0.0541
  634MOL0    Cl85500   3.659   1.376   7.848  0.6893 -0.6728  0.0018
  634MOL0     C85501   4.470   1.738   8.297  0.2989  1.1268  0.7791
  634MOL0     C85502   4.587   1.762   8.225  0.3190 -0.6261 -0.6263
  634MOL0     O85503   4.643   1.914   7.841  0.0470 -0.2709  0.0395
  634MOL0     C85504   4.961   1.995   7.968  0.3539  0.3847 -0.4158
  634MOL0     C85505   5.099   2.012   7.936 -0.2798  0.6202 -0.5044
  634MOL0     N85506   5.406   2.354   7.396  0.6539 -0.0806 -0.3344
  634MOL0     N85507   5.467   2.435   7.316  0.6399 -0.2800 -0.3126
  634MOL0     C85508   6.376   3.276   6.672 -0.9001  0.2272  0.0679
  634MOL0     C85509   6.437   3.395   6.628  0.2091 -0.1357 -1.1626
  634MOL0     C85510   6.436   3.800   6.416  0.4523 -0.5919 -0.3963
  634MOL0     C85511   6.427   3.935   6.444 -0.4867 -0.2324 -0.3976
  634MOL0     C85512   6.519   4.013   6.379 -0.4797  0.6291 -0.4633
  634MOL0     C85513   6.616   3.967   6.288 -0.0857  0.7061 -0.3597
  634MOL0     O85514   6.709   4.046   6.230 -1.0801  0.0427  0.1708
  634MOL0     C85515   6.724   4.183   6.259  0.3425 -0.6619  0.0113
  634MOL0     C85516   6.792   4.209   6.391 -0.0289 -0.7205 -0.5804
  634MOL0     C85517   6.941   4.175   6.400  0.3709 -0.3929 -0.6682
  634MOL0     C85518   7.023   4.280   6.300 -0.6829 -0.2833 -0.6821
  634MOL0     C85519   7.016   4.420   6.348 -0.6357 -0.4449  0.1905
  634MOL0     C85520   7.027   4.534   6.376  1.2003 -0.2359 -0.3741
  634MOL0     C85521   6.619   3.826   6.252 -0.4536 -0.2024  0.4184
  634MOL0     C85522   6.523   3.748   6.318 -0.1567 -0.0869  0.8739
  634MOL0     H85523   6.136   3.547   6.566  0.4539 -0.0206 -3.2934
  634MOL0     H85524   6.047   3.349   6.699 -0.2715  2.7015 -2.5678
  634MOL0     H85525   6.128   3.215   6.941 -1.0627 -0.7899  0.6650
  634MOL0     H85526   6.001   3.176   6.832 -1.1920  0.7796  3.5317
  634MOL0     H85527   6.106   2.931   6.823 -1.5350 -0.5053 -0.2300
  634MOL0     H85528   6.169   2.985   6.987  1.4326  1.7153 -1.2723
  634MOL0     H85529   5.937   3.066   7.050 -2.5693  0.3536 -0.5827
  634MOL0     H85530   5.873   2.977   6.916  2.2210  0.3831 -1.7660
  634MOL0     H85531   6.032   2.784   7.024  0.4916  1.5624 -0.0875
  634MOL0     H85532   6.017   2.884   7.169 -1.4997 -1.0767  1.1232
  634MOL0     H85533   5.784   2.889   7.189  1.9372  1.3092 -0.6565
  634MOL0     H85534   5.748   2.806   7.036 -1.3178  3.1233  0.5776
  634MOL0     H85535   5.892   2.609   7.132  1.3305 -1.2652  1.8053
  634MOL0     H85536   5.899   2.679   7.287 -1.6296  0.7955  1.4748
  634MOL0     H85537   5.708   2.600   7.354 -0.3985 -0.3068  0.0905
  634MOL0     H85538   5.623   2.680   7.231  0.3276  0.9108  2.6288
  634MOL0     H85539   5.783   2.417   7.206 -0.5511 -1.0015 -2.0768
  634MOL0     H85540   5.653   2.467   7.103  0.8427 -2.2423 -0.4010
  634MOL0     H85541   5.700   2.215   7.387 -1.6024 -2.9644  0.9002
  634MOL0     H85542   5.351   2.127   7.539 -0.8464  1.8399 -1.1816
  634MOL0     H85543   5.500   2.048   7.486  1.7575  1.5261 -0.1307
  634MOL0     H85544   5.492   2.261   7.711 -2.3951 -0.0039  0.6800
  634MOL0     H85545   5.633   2.181   7.642 -1.7231  1.9113 -0.8096
  634MOL0     H85546   5.587   2.066   7.840  0.1814  0.1118 -0.4755
  634MOL0     H85547   5.524   1.947   7.720 -1.3740  0.9945 -1.4896
  634MOL0     H85548   5.342   2.133   7.878 -0.3419  0.1412  1.5730
  634MOL0     H85549   5.387   1.955   7.903  0.0045  1.7215  1.6262
  634MOL0     H85550   5.102   1.865   7.643  1.0731  0.6470  0.6281
  634MOL0     H85551   4.885   1.788   7.566  0.5841 -2.8264  0.0563
  634MOL0     H85552   4.822   1.698   7.707 -1.4871 -0.5882  0.2919
  634MOL0     H85553   4.736   1.831   7.647  0.1132 -0.6475  2.2665
  634MOL0     H85554   4.466   1.966   7.982  0.4280 -2.0693 -2.1084
  634MOL0     H85555   4.261   1.891   8.074 -2.0734 -0.6879  2.7974
  634MOL0     H85556   4.105   1.898   8.235 -0.7876  0.8225  0.0386
  634MOL0     H85557   4.071   1.740   8.159  1.4474 -0.5972  0.1335
  634MOL0     H85558   4.022   1.728   8.440 -0.7657  2.8042  1.7425
  634MOL0     H85559   3.967   1.876   8.397 -2.9718 -0.5373  0.9110
  634MOL0     H85560   3.801   1.759   8.224 -1.1590 -4.5767 -2.9665
  634MOL0     H85561   3.794   1.708   8.395  0.3583 -1.8233  0.3624
  634MOL0     H85562   3.919   1.576   8.139  2.0868 -0.4943  1.4690
  634MOL0     H85563   3.972   1.515   8.296  0.0128 -0.4769  0.7507
  634MOL0     H85564   3.732   1.501   8.360  0.2056 -0.4813 -0.3259
  634MOL0     H85565   3.801   1.371   8.254 -3.5645 -1.4565  1.9747
  634MOL0     H85566   3.603   1.586   8.195  1.8825  0.4608  2.0954
  634MOL0     H85567   3.707   1.539   8.063  1.7261  1.7510  1.8501
  634MOL0     H85568   3.488   1.415   8.064 -1.6570 -1.2243  1.5952
  634MOL0     H85569   3.569   1.312   8.189  1.8125 -0.2820  0.3763
  634MOL0     H85570   3.639   1.191   7.994  1.2611 -0.2380  1.4244
  634MOL0     H85571   3.773   1.279   8.044 -0.4460 -5.0284  1.6674
  634MOL0     H85572   4.464   1.662   8.374  2.9023 -1.3715 -1.2533
  634MOL0     H85573   4.681   1.711   8.245  0.8091  0.3161 -0.4687
  634MOL0     H85574   4.935   2.043   8.062  2.2505  0.3290  0.1646
  634MOL0     H85575   5.160   2.066   8.008 -1.5478  0.6160  0.6149
  634MOL0     H85576   6.452   3.202   6.696 -2.1909 -0.9686  0.6210
  634MOL0     H85577   6.542   3.414   6.609  0.7524 -0.2752  1.4131
  634MOL0     H85578   6.354   3.961   6.519  0.1870  0.2526  0.1027
  634MOL0     H85579   6.506   4.118   6.405 -0.5068 -0.2002  3.6573
  634MOL0     H85580   6.773   4.225   6.171 -0.7692 -0.1618 -0.3979
  634MOL0     H85581   6.628   4.235   6.265 -0.4740 -1.7379 -2.5804
  634MOL0     H85582   6.737   4.151   6.466 -3.4542  2.1721 -0.5655
  634MOL0     H85583   6.771   4.309   6.432  0.4022 -1.2177  0.9133
  634MOL0     H85584   6.966   4.076   6.362 -0.7204 -0.1768 -2.0321
  634MOL0     H85585   6.969   4.188   6.505 -2.1086 -0.9652  0.1446
  634MOL0     H85586   6.993   4.278   6.195  1.2360  2.3113 -1.3674
  634MOL0     H85587   7.125   4.241   6.294 -0.3986  0.3140  0.0311
  634MOL0     H85588   7.019   4.636   6.410 -1.9778 -0.6766  0.6057
  634MOL0     H85589   6.698   3.793   6.185 -1.8287 -2.8643 -0.0447
  634MOL0     H85590   6.537   3.644   6.290  2.2543  0.6859 -1.1238
  635MOL0     O85591   6.230   4.268   8.077 -0.9143  0.6341 -0.7892
  635MOL0     C85592   6.134   4.241   8.148 -0.9035 -0.3453  0.6542
  635MOL0     O85593   6.081   4.332   8.235  0.9575 -0.5291  0.0339
  635MOL0     C85594   6.132   4.457   8.243 -0.4795 -0.3727  0.7793
  635MOL0     C85595   6.207   4.512   8.347 -0.7782  0.3046 -0.6246
  635MOL0     C85596   6.249   4.653   8.345 -0.0021  0.5107 -0.0755
  635MOL0     C85597   6.223   4.737   8.239 -0.5364 -0.6852  0.2446
  635MOL0     O85598   6.272   4.867   8.250 -0.4820 -1.0902 -0.2977
  635MOL0     C85599   6.278   4.962   8.141 -0.4614  0.5685 -0.5566
  635MOL0     C85600   6.267   5.104   8.187  0.0476 -0.2256  0.2518
  635MOL0     C85601   6.363   5.145   8.295 -0.8235 -1.0036  0.0149
  635MOL0     C85602   6.499   5.190   8.230  0.7761  0.1208  0.2428
  635MOL0     C85603   6.590   5.266   8.334 -0.6751 -0.1515  0.2106
  635MOL0     C85604   6.704   5.180   8.395  0.5596 -0.2562  0.2081
  635MOL0     C85605   6.775   5.244   8.512  0.3797 -0.4630 -1.0566
  635MOL0     C85606   6.881   5.136   8.542  0.6508 -1.0101 -0.6507
  635MOL0     N85607   6.966   5.170   8.663 -0.4231  0.0698 -0.3575
  635MOL0     C85608   6.941   5.148   8.795  0.6924 -0.8255 -0.2363
  635MOL0     C85609   7.042   5.211   8.853  0.5171  0.0931 -0.4038
  635MOL0     C85610   7.075   5.213   9.004  0.2757 -0.0909  0.2084
  635MOL0     C85611   7.186   5.113   9.043 -0.4512  0.3986 -0.4406
  635MOL0     C85612   7.246   5.149   9.187  0.6266  0.2692 -0.5253
  635MOL0     C85613   7.348   5.252   9.182  0.3059  0.5925 -0.6373
  635MOL0     O85614   7.411   5.279   9.317 -0.7927 -0.2941  0.9686
  635MOL0     C85615   7.501   5.387   9.316  0.6150 -0.0823  0.2302
  635MOL0     C85616   7.546   5.466   9.205  0.2509  0.5135  0.4555
  635MOL0     C85617   7.633   5.575   9.221  0.3087 -0.8098 -0.2701
  635MOL0     C85618   7.678   5.653   9.101  1.0232  0.3000  0.1723
  635MOL0     C85619   7.688   5.602   9.352 -0.1180  0.0494 -0.1336
  635MOL0     C85620   7.778   5.711   9.392 -1.0508  0.7002  0.8131
  635MOL0     O85621   7.864   5.693   9.484 -0.3262  0.0270 -0.2807
  635MOL0     C85622   7.958   5.784   9.495 -0.0177  0.0070  0.5552
  635MOL0     C85623   8.075   5.777   9.422 -1.0319  0.0119  0.1110
  635MOL0     C85624   8.180   5.870   9.448  0.2773  0.8769  0.4216
  635MOL0     C85625   8.160   5.965   9.545 -0.7067  1.0933 -0.2941
  635MOL0     O85626   8.256   6.060   9.559  0.2696 -0.2131  0.0155
  635MOL0     C85627   8.215   6.204   9.557 -0.3334 -0.1890 -0.3696
  635MOL0     C85628   8.308   6.290   9.470 -0.3817  0.0607 -0.2281
  635MOL0     C85629   8.448   6.330   9.532  0.8570  0.7466  0.1739
  635MOL0     C85630   8.506   6.213   9.622  0.1496 -0.8643  0.1013
  635MOL0     C85631   8.655   6.233   9.637  0.5105  0.7914 -0.1483
  635MOL0     C85632   8.740   6.142   9.542 -0.3918  0.0039 -0.0471
  635MOL0     C85633   8.882   6.199   9.534 -0.1966 -0.3487  0.2788
  635MOL0     C85634   8.962   6.165   9.418 -0.3913  0.4738 -0.2210
  635MOL0    Cl85635   9.113   6.272   9.392  0.6301 -0.1015 -0.1639
  635MOL0     C85636   8.043   5.965   9.614 -1.3358 -0.0613 -0.4447
  635MOL0     C85637   7.944   5.878   9.586 -0.2234 -0.0107 -0.4919
  635MOL0     O85638   7.764   5.811   9.315  0.7082  0.2717 -0.1101
  635MOL0     C85639   7.640   5.529   9.459  0.7296  0.1703  0.7009
  635MOL0     C85640   7.547   5.430   9.445  0.0000 -0.5048  1.0537
  635MOL0     N85641   7.130   5.267   8.758  0.2795 -0.3463  0.0373
  635MOL0     N85642   7.085   5.238   8.646 -0.1564  0.7045  0.0944
  635MOL0     C85643   6.157   4.681   8.126  0.4491 -0.1357  0.2091
  635MOL0     C85644   6.117   4.544   8.123  1.0078 -0.3277  0.6101
  635MOL0     C85645   6.076   4.110   8.139 -0.7105  0.1154  0.6667
  635MOL0     C85646   5.989   4.054   8.231 -0.2867 -0.5457  0.3388
  635MOL0     C85647   5.946   3.922   8.216  0.4918 -0.6721  0.3114
  635MOL0     C85648   5.975   3.843   8.101  0.1041 -0.3275  1.4036
  635MOL0     O85649   5.910   3.719   8.095  0.3383 -0.4490  0.6280
  635MOL0     C85650   5.943   3.639   7.985  0.6021 -0.2363 -0.3958
  635MOL0     C85651   5.863   3.512   8.000 -0.2130  0.2700  1.2731
  635MOL0     C85652   5.835   3.441   7.865  0.7274 -0.4811  0.5877
  635MOL0     C85653   5.718   3.354   7.884  0.4585  0.1773  0.0544
  635MOL0     C85654   5.599   3.434   7.871 -0.6334 -0.3586 -0.7995
  635MOL0     C85655   5.500   3.500   7.867  0.0621  0.9542  0.0308
  635MOL0     C85656   6.060   3.898   8.010  0.3671  0.9223  0.6615
  635MOL0     C85657   6.115   4.030   8.026  1.9857  0.4992  0.0808
  635MOL0     H85658   6.225   4.449   8.433 -3.2743 -1.5295 -1.3392
  635MOL0     H85659   6.312   4.676   8.430  3.2060 -1.0472 -1.8673
  635MOL0     H85660   6.366   4.944   8.078  0.4219 -1.5454  1.1371
  635MOL0     H85661   6.191   4.939   8.079 -0.0588 -1.8252 -0.3533
  635MOL0     H85662   6.262   5.171   8.101 -0.4679 -0.0236  0.4370
  635MOL0     H85663   6.172   5.107   8.240  0.5963 -0.8920  1.3018
  635MOL0     H85664   6.324   5.228   8.355  1.4927 -0.7832  1.3466
  635MOL0     H85665   6.382   5.062   8.362 -0.8821  0.3249  1.7575
  635MOL0     H85666   6.544   5.102   8.183 -0.4540 -0.1496 -0.4704
  635MOL0     H85667   6.475   5.257   8.147 -1.8215  0.9904  1.5788
  635MOL0     H85668   6.623   5.357   8.284 -0.5595 -0.9711 -1.2403
  635MOL0     H85669   6.533   5.294   8.423 -0.5216 -1.2535  0.6765
  635MOL0     H85670   6.657   5.086   8.429 -1.4319  0.6151  0.0316
  635MOL0     H85671   6.774   5.162   8.313 -1.7301 -3.6604 -1.2172
  635MOL0     H85672   6.805   5.344   8.479  0.2945  0.0367  0.3182
  635MOL0     H85673   6.708   5.248   8.599  2.5409  0.8882  0.6545
  635MOL0     H85674   6.946   5.124   8.455 -1.7345 -2.8163 -2.3066
  635MOL0     H85675   6.825   5.043   8.553 -0.7739 -0.4662 -2.7851
  635MOL0     H85676   6.858   5.096   8.840 -0.6786  0.7442 -0.8644
  635MOL0     H85677   7.107   5.313   9.033  0.1814  0.1837 -0.6313
  635MOL0     H85678   7.000   5.168   9.070  0.0374 -1.6752 -1.0798
  635MOL0     H85679   7.257   5.110   8.961 -1.3383 -1.4138 -1.2031
  635MOL0     H85680   7.151   5.009   9.047 -2.7152  1.0808 -1.0821
  635MOL0     H85681   7.288   5.060   9.235  1.1837 -1.1473 -3.4115
  635MOL0     H85682   7.159   5.187   9.241 -0.0116  0.8423 -1.9221
  635MOL0     H85683   7.312   5.347   9.141  1.7783  2.3192  1.7576
  635MOL0     H85684   7.426   5.226   9.110  0.9547  1.1604 -0.1571
  635MOL0     H85685   7.509   5.449   9.104 -0.4367  1.1761  0.5875
  635MOL0     H85686   7.787   5.649   9.102  1.0297 -0.5999 -1.2063
  635MOL0     H85687   7.648   5.605   9.008  2.0258 -0.5114  0.2598
  635MOL0     H85688   7.645   5.757   9.092 -2.6061 -0.7645 -0.4552
  635MOL0     H85689   8.097   5.682   9.373 -2.2436 -1.0245  1.5021
  635MOL0     H85690   8.268   5.861   9.384  2.2849  3.8994  2.4747
  635MOL0     H85691   8.116   6.215   9.512 -0.4835  0.0016  0.0097
  635MOL0     H85692   8.223   6.252   9.655 -0.8140 -2.4659  0.8541
  635MOL0     H85693   8.328   6.234   9.378 -1.9734 -0.6065 -0.2019
  635MOL0     H85694   8.257   6.382   9.441 -0.5674  0.2904  0.7804
  635MOL0     H85695   8.441   6.423   9.589  0.4482 -0.1878  1.7005
  635MOL0     H85696   8.522   6.339   9.451  1.5215 -2.4195  0.2884
  635MOL0     H85697   8.454   6.222   9.717  1.0660  2.4046  0.3901
  635MOL0     H85698   8.474   6.115   9.585 -3.6449 -0.0174  0.7339
  635MOL0     H85699   8.699   6.217   9.735 -1.8194  2.3214  1.2464
  635MOL0     H85700   8.671   6.338   9.610 -2.0315  0.9239 -1.4476
  635MOL0     H85701   8.747   6.040   9.580 -0.3397 -0.0442 -0.1854
  635MOL0     H85702   8.689   6.149   9.446 -1.9543 -0.5789  0.7089
  635MOL0     H85703   8.937   6.162   9.621 -0.9135 -1.3242  0.3372
  635MOL0     H85704   8.889   6.308   9.544  1.8948 -0.5963  2.5568
  635MOL0     H85705   8.892   6.175   9.334 -3.6403 -1.0963  2.0710
  635MOL0     H85706   8.999   6.062   9.430 -0.6873  0.2208 -1.4058
  635MOL0     H85707   8.044   6.043   9.689 -0.5443  0.6316 -1.1480
  635MOL0     H85708   7.861   5.882   9.656  1.3373  5.2344  1.5289
  635MOL0     H85709   7.674   5.548   9.560 -1.2912  1.2260  1.2256
  635MOL0     H85710   7.504   5.368   9.523  0.6657 -1.7597  0.4505
  635MOL0     H85711   6.155   4.728   8.028  0.8973 -1.5972 -0.5370
  635MOL0     H85712   6.076   4.500   8.033 -0.7538 -2.3830  2.3053
  635MOL0     H85713   5.963   4.110   8.321  0.6498  0.8972 -0.2537
  635MOL0     H85714   5.869   3.889   8.285 -0.8773  0.4472 -0.6289
  635MOL0     H85715   5.901   3.681   7.893  1.0508 -3.1610 -2.0658
  635MOL0     H85716   6.051   3.619   7.985  1.4967  3.1789  3.4250
  635MOL0     H85717   5.765   3.540   8.040 -3.0342 -3.4280 -2.1401
  635MOL0     H85718   5.916   3.439   8.062  1.6613  1.0691  0.6784
  635MOL0     H85719   5.924   3.382   7.841 -0.3126 -1.8876  0.0576
  635MOL0     H85720   5.811   3.511   7.784 -0.7315 -0.9592  0.5869
  635MOL0     H85721   5.729   3.309   7.984  0.7803 -1.6386 -0.7537
  635MOL0     H85722   5.695   3.270   7.818 -0.7128  0.4165  0.1332
  635MOL0     H85723   5.405   3.549   7.856 -1.0297 -1.1169 -0.2908
  635MOL0     H85724   6.074   3.847   7.915 -0.3047  1.6250  0.1717
  635MOL0     H85725   6.180   4.067   7.948  0.9678  0.8056 -0.6451
  636MOL0     O85726  10.768   4.319   5.533  0.6707  0.5577 -0.4480
  636MOL0     C85727  10.766   4.216   5.608 -0.1315  0.2713 -1.0922
  636MOL0     O85728  10.672   4.111   5.609 -0.0098 -0.5937 -0.0583
  636MOL0     C85729  10.573   4.117   5.518  0.1974  0.2212  0.1633
  636MOL0     C85730  10.496   4.231   5.496  0.3320  0.5118  0.6377
  636MOL0     C85731  10.400   4.215   5.389  0.3801  0.1822  0.1932
  636MOL0     C85732  10.384   4.092   5.315  0.9610 -0.4697  0.3812
  636MOL0     O85733  10.304   4.074   5.198  1.2636 -0.2139  0.5643
  636MOL0     C85734  10.228   4.188   5.154 -0.7665  1.0816 -0.2034
  636MOL0     C85735  10.312   4.297   5.094  0.2138 -0.6914  0.2384
  636MOL0     C85736  10.225   4.410   5.038  0.8369 -0.0695 -0.2740
  636MOL0     C85737  10.285   4.543   5.081  0.5534  0.1331  0.2858
  636MOL0     C85738  10.210   4.658   5.021  0.0924  0.2825 -1.1464
  636MOL0     C85739  10.295   4.781   5.039 -0.2273  0.7379 -0.5524
  636MOL0     C85740  10.222   4.898   4.979  0.0406 -0.5403 -0.6434
  636MOL0     C85741  10.311   5.027   4.977 -1.1343 -0.1501  0.2383
  636MOL0     N85742  10.439   5.015   4.904  0.2603  0.3317 -0.1064
  636MOL0     C85743  10.440   4.995   4.769  0.2766 -0.0632  1.1082
  636MOL0     C85744  10.565   4.993   4.733 -1.6481  0.7794 -1.1458
  636MOL0     C85745  10.626   4.987   4.600  0.5331 -0.8338  0.3640
  636MOL0     C85746  10.558   4.885   4.501 -0.8050 -0.3219 -0.0662
  636MOL0     C85747  10.629   4.885   4.363 -0.3273  0.5744  0.7115
  636MOL0     C85748  10.605   4.758   4.269  0.4884 -0.4602 -0.6100
  636MOL0     O85749  10.738   4.706   4.229 -0.0116 -1.0499  0.0693
  636MOL0     C85750  10.718   4.597   4.145  0.5404  0.1208  0.9141
  636MOL0     C85751  10.619   4.494   4.144 -0.7815  0.4037 -0.2423
  636MOL0     C85752  10.619   4.389   4.048  0.3595 -0.1365 -0.0234
  636MOL0     C85753  10.505   4.289   4.047 -0.0419 -0.1667  0.1196
  636MOL0     C85754  10.734   4.379   3.959 -0.1771 -0.2510  0.1500
  636MOL0     C85755  10.734   4.287   3.841 -0.2701 -0.9741 -0.7014
  636MOL0     O85756  10.643   4.178   3.838 -0.6469 -0.6599 -0.6327
  636MOL0     C85757  10.601   4.141   3.710  0.0792  0.4541 -0.8976
  636MOL0     C85758  10.570   4.224   3.601 -0.8067  0.6719 -0.8612
  636MOL0     C85759  10.534   4.180   3.479  1.6285  0.3453 -0.3134
  636MOL0     C85760  10.500   4.043   3.456  0.1779  1.1686 -0.1687
  636MOL0     O85761  10.435   3.998   3.335  0.0914  0.4866 -0.8059
  636MOL0     C85762  10.348   4.092   3.266  0.4400 -0.8595 -0.1568
  636MOL0     C85763  10.261   4.023   3.157  0.8119 -0.7791 -0.2971
  636MOL0     C85764  10.182   3.918   3.223 -0.6119 -0.2086  1.4288
  636MOL0     C85765  10.211   3.779   3.159  0.1369  0.2412 -0.2627
  636MOL0     C85766  10.107   3.671   3.206  0.6482 -0.6037 -0.0886
  636MOL0     C85767   9.975   3.673   3.143 -0.0631  0.3787  0.8267
  636MOL0     C85768   9.880   3.566   3.211 -0.1202 -0.0794  0.1634
  636MOL0     C85769   9.759   3.521   3.133  0.0119  0.5581 -0.0073
  636MOL0    Cl85770   9.633   3.651   3.120  0.5037  0.0181  0.1690
  636MOL0     C85771  10.560   3.960   3.550 -0.3488 -0.0695  0.1773
  636MOL0     C85772  10.600   4.010   3.673  0.0720  0.9468  0.7588
  636MOL0     O85773  10.821   4.305   3.747 -0.1593 -1.0733 -0.2884
  636MOL0     C85774  10.835   4.477   3.972 -0.1335  0.1029  0.0909
  636MOL0     C85775  10.822   4.584   4.060 -0.4372  0.2528 -0.6265
  636MOL0     N85776  10.650   5.011   4.843  0.6362 -0.5543 -0.4274
  636MOL0     N85777  10.571   5.023   4.944 -0.0861  0.0743  0.2335
  636MOL0     C85778  10.467   3.994   5.345  0.2557  0.4339 -0.0076
  636MOL0     C85779  10.564   3.996   5.441  1.3543 -1.0456 -0.2346
  636MOL0     C85780  10.861   4.215   5.716  0.3374  0.3828  0.7178
  636MOL0     C85781  10.919   4.330   5.760  1.0933 -1.1689 -0.0828
  636MOL0     C85782  11.018   4.319   5.866  0.2561  0.2743 -0.5344
  636MOL0     C85783  11.046   4.200   5.929 -0.3699  0.3270 -0.4857
  636MOL0     O85784  11.138   4.200   6.033 -0.7125 -0.2753 -0.3814
  636MOL0     C85785  11.162   4.089   6.116  0.6946 -0.7900 -0.7517
  636MOL0     C85786  11.052   4.091   6.224  0.1414 -0.0392 -0.3030
  636MOL0     C85787  11.072   3.990   6.333  0.4582  0.0771 -1.3702
  636MOL0     C85788  10.952   3.991   6.429 -0.2450  0.1195  0.5925
  636MOL0     C85789  10.972   3.920   6.559 -0.8058 -0.3393 -0.3802
  636MOL0     C85790  11.004   3.888   6.672  0.4785  0.6573 -0.6498
  636MOL0     C85791  10.976   4.085   5.888 -0.0036 -0.0135 -0.0623
  636MOL0     C85792  10.888   4.099   5.782 -0.8800  0.2106  0.2119
  636MOL0     H85793  10.503   4.320   5.558  2.1318  1.8509 -1.3299
  636MOL0     H85794  10.316   4.284   5.390  0.4048  0.3211  3.3225
  636MOL0     H85795  10.157   4.146   5.083  1.2048 -0.0219 -1.6063
  636MOL0     H85796  10.176   4.218   5.245  1.7175  2.4531  0.8597
  636MOL0     H85797  10.384   4.336   5.166 -1.1199 -1.4799  2.0916
  636MOL0     H85798  10.364   4.252   5.009 -1.8089  0.2333 -1.5906
  636MOL0     H85799  10.240   4.397   4.931  0.8849  0.1499 -0.2938
  636MOL0     H85800  10.118   4.404   5.062  0.8668  2.1473  0.6843
  636MOL0     H85801  10.284   4.547   5.190 -0.9505  1.7158  0.2511
  636MOL0     H85802  10.391   4.536   5.053  0.8662  1.8094  0.9699
  636MOL0     H85803  10.209   4.636   4.914 -0.2939  2.1591 -1.5653
  636MOL0     H85804  10.106   4.667   5.054 -0.5899 -1.5787 -2.6431
  636MOL0     H85805  10.304   4.797   5.147 -1.3340  0.5765 -0.4261
  636MOL0     H85806  10.393   4.770   4.992  0.0970 -1.6475  0.5367
  636MOL0     H85807  10.171   4.864   4.889 -2.1136 -0.8261  0.5983
  636MOL0     H85808  10.145   4.922   5.053 -1.2282 -2.7111 -1.1815
  636MOL0     H85809  10.332   5.042   5.083 -2.8316 -0.9070  0.7187
  636MOL0     H85810  10.246   5.106   4.938 -0.0382  2.2354  2.9211
  636MOL0     H85811  10.361   5.002   4.695  1.6239  1.2736 -0.2887
  636MOL0     H85812  10.618   5.088   4.559  2.1861 -0.9077 -0.2505
  636MOL0     H85813  10.733   4.965   4.611  0.8901  0.4454 -0.4152
  636MOL0     H85814  10.454   4.907   4.476 -0.3202  1.1282 -0.9428
  636MOL0     H85815  10.533   4.789   4.546 -0.5414 -0.5700 -0.4400
  636MOL0     H85816  10.735   4.881   4.388 -0.8221  0.6080  3.1090
  636MOL0     H85817  10.613   4.972   4.299  2.1978  2.2906  2.2416
  636MOL0     H85818  10.547   4.768   4.177  1.6518 -3.2005 -1.7546
  636MOL0     H85819  10.561   4.686   4.339  0.8785  0.9213  1.1408
  636MOL0     H85820  10.540   4.497   4.219  1.5325 -2.1868  2.5373
  636MOL0     H85821  10.431   4.305   4.126  0.9243 -0.6365  1.1448
  636MOL0     H85822  10.452   4.292   3.951  0.2047 -1.7838 -0.0841
  636MOL0     H85823  10.542   4.189   4.068 -1.6862 -1.0512 -0.9882
  636MOL0     H85824  10.582   4.331   3.617  4.2978  0.2322  0.0380
  636MOL0     H85825  10.513   4.251   3.400 -0.4096  1.8892  1.4900
  636MOL0     H85826  10.286   4.137   3.344 -0.5786 -1.4693 -0.5891
  636MOL0     H85827  10.400   4.177   3.220  0.8352  0.5983  2.7703
  636MOL0     H85828  10.196   4.093   3.105 -0.7819 -0.3510  2.1084
  636MOL0     H85829  10.318   3.978   3.076  0.9836 -1.5527  0.2405
  636MOL0     H85830  10.074   3.933   3.213 -0.5600 -1.0003 -1.2438
  636MOL0     H85831  10.205   3.904   3.329  5.1254  0.4612  0.6122
  636MOL0     H85832  10.220   3.787   3.050 -1.9167 -4.1993 -0.9698
  636MOL0     H85833  10.310   3.762   3.204 -0.1678  1.6262  1.0331
  636MOL0     H85834  10.094   3.703   3.310  3.5318 -1.3824  0.5728
  636MOL0     H85835  10.150   3.571   3.206  1.3021 -0.3607  1.6447
  636MOL0     H85836   9.926   3.770   3.153 -0.8572 -0.1436  2.3368
  636MOL0     H85837   9.992   3.646   3.038 -2.7661 -2.1725  0.8874
  636MOL0     H85838   9.830   3.613   3.296 -0.8224  1.7285 -1.1743
  636MOL0     H85839   9.949   3.486   3.238  0.5021 -0.0999 -1.4194
  636MOL0     H85840   9.714   3.434   3.182  2.6465 -0.2088  1.2497
  636MOL0     H85841   9.782   3.491   3.031 -0.6602  2.1442 -0.6728
  636MOL0     H85842  10.546   3.854   3.530 -0.2670 -0.0398 -0.0407
  636MOL0     H85843  10.622   3.924   3.735  1.5082  0.3986 -0.4419
  636MOL0     H85844  10.920   4.489   3.906 -0.0601  1.9098  0.4597
  636MOL0     H85845  10.903   4.654   4.077 -0.6161  0.2275  0.3408
  636MOL0     H85846  10.462   3.909   5.276  2.1577  2.7906 -3.3148
  636MOL0     H85847  10.624   3.911   5.472  1.2060 -0.5864  1.3800
  636MOL0     H85848  10.897   4.427   5.717  6.4639  0.1199 -0.5759
  636MOL0     H85849  11.069   4.401   5.915 -1.2162 -1.8820  5.5196
  636MOL0     H85850  11.159   3.995   6.060  0.3527 -1.8233  0.9570
  636MOL0     H85851  11.260   4.107   6.160 -0.6712 -0.4820  2.4220
  636MOL0     H85852  10.956   4.072   6.174 -0.1373 -1.3534  0.6784
  636MOL0     H85853  11.057   4.193   6.265 -1.0048 -0.8164  1.9506
  636MOL0     H85854  11.159   4.019   6.391 -1.6965 -0.4606  2.4304
  636MOL0     H85855  11.097   3.893   6.290  1.5389  0.1319 -0.8826
  636MOL0     H85856  10.868   3.942   6.379 -1.3646  2.3297  0.1663
  636MOL0     H85857  10.917   4.092   6.455 -2.3593 -0.9133  2.1806
  636MOL0     H85858  11.033   3.866   6.773 -3.6648 -2.3321  0.1592
  636MOL0     H85859  10.987   3.982   5.918 -3.3050 -1.1609 -2.1806
  636MOL0     H85860  10.843   4.007   5.747 -2.1206  1.4106 -1.5109
  637MOL0     O85861   9.235   6.376   3.360 -0.3283 -0.2974 -0.1299
  637MOL0     C85862   9.217   6.281   3.294  0.3955  0.6691 -0.5113
  637MOL0     O85863   9.108   6.207   3.306 -0.5450 -0.3696  0.6816
  637MOL0     C85864   9.013   6.212   3.406 -0.2627  0.0481 -0.1301
  637MOL0     C85865   8.917   6.310   3.390 -0.3699 -0.5676  0.6598
  637MOL0     C85866   8.808   6.298   3.479 -0.3035 -0.5598  1.1409
  637MOL0     C85867   8.796   6.201   3.576  0.0655  0.0224  0.5407
  637MOL0     O85868   8.685   6.206   3.654  1.0147  0.4149  0.5896
  637MOL0     C85869   8.621   6.092   3.700 -1.3839 -0.3717 -0.0826
  637MOL0     C85870   8.567   6.107   3.831  0.4309  0.1172  0.0585
  637MOL0     C85871   8.454   5.999   3.858 -0.2395 -0.8265 -0.8752
  637MOL0     C85872   8.318   6.018   3.795  0.6722  0.1351 -0.4285
  637MOL0     C85873   8.214   5.935   3.860  0.2990  0.3805 -0.0470
  637MOL0     C85874   8.183   5.983   4.003 -0.6216 -0.9221  0.3496
  637MOL0     C85875   8.068   5.905   4.063  0.2321  0.3594  0.4001
  637MOL0     C85876   8.018   5.972   4.197 -0.2369 -0.6003 -0.4593
  637MOL0     N85877   8.130   5.953   4.293  0.0849  0.7375  1.4814
  637MOL0     C85878   8.155   5.840   4.363  0.2778 -0.0513 -0.7463
  637MOL0     C85879   8.248   5.866   4.455 -0.3096 -0.2237  0.0904
  637MOL0     C85880   8.296   5.777   4.560  0.6114  0.0768 -0.5476
  637MOL0     C85881   8.432   5.719   4.516  0.2546  0.2613 -0.7465
  637MOL0     C85882   8.438   5.644   4.384  0.2779  0.7735  0.7057
  637MOL0     C85883   8.572   5.573   4.388 -1.2671  0.9626 -0.7512
  637MOL0     O85884   8.622   5.516   4.265  0.6612 -0.1650  0.0952
  637MOL0     C85885   8.730   5.435   4.266 -0.4983  0.1610  0.6006
  637MOL0     C85886   8.820   5.417   4.370 -0.2642 -0.2061  0.0111
  637MOL0     C85887   8.926   5.332   4.358  0.4824  0.1709  0.5373
  637MOL0     C85888   9.017   5.331   4.477  0.5772  0.2644  0.4734
  637MOL0     C85889   8.948   5.265   4.233 -0.5954  0.0429 -0.2009
  637MOL0     C85890   9.067   5.177   4.209 -1.8659 -0.9701 -0.2874
  637MOL0     O85891   9.093   5.146   4.081  0.1837  0.0690  0.0517
  637MOL0     C85892   9.179   5.054   4.032 -0.4688 -0.3171 -0.7068
  637MOL0     C85893   9.259   5.098   3.921  0.4017 -1.1050 -0.9246
  637MOL0     C85894   9.331   5.008   3.840 -1.0440 -0.3820  0.3688
  637MOL0     C85895   9.360   4.882   3.888 -0.5224  0.3392 -0.7330
  637MOL0     O85896   9.438   4.787   3.824 -1.5559  0.0082  0.0963
  637MOL0     C85897   9.477   4.817   3.688  0.0787 -0.3642 -0.0902
  637MOL0     C85898   9.510   4.702   3.588 -0.0237  0.2948  1.3452
  637MOL0     C85899   9.553   4.763   3.445  1.0042  0.2485  0.6228
  637MOL0     C85900   9.534   4.656   3.337  0.0034 -0.4495  0.2350
  637MOL0     C85901   9.572   4.714   3.203  1.0726 -0.1093  0.2310
  637MOL0     C85902   9.560   4.601   3.099  0.3088  0.9760 -0.7574
  637MOL0     C85903   9.603   4.643   2.956  0.7334  0.3778  0.2329
  637MOL0     C85904   9.480   4.662   2.876  0.2154 -0.4249  0.5225
  637MOL0    Cl85905   9.420   4.830   2.904  0.4237  0.2016 -0.1414
  637MOL0     C85906   9.302   4.838   4.007 -0.2267 -0.1116  0.5699
  637MOL0     C85907   9.203   4.917   4.073 -0.4426 -0.0876  0.2841
  637MOL0     O85908   9.131   5.131   4.299 -0.0102 -0.9230  0.6868
  637MOL0     C85909   8.861   5.286   4.124 -0.9707 -0.0279 -0.0916
  637MOL0     C85910   8.752   5.368   4.143 -0.3095 -0.3344 -0.1031
  637MOL0     N85911   8.280   5.997   4.444  0.5413 -0.0297  0.1099
  637MOL0     N85912   8.215   6.045   4.345  0.0494  0.5995  0.5437
  637MOL0     C85913   8.900   6.103   3.590 -0.3181  0.3588  0.3452
  637MOL0     C85914   9.016   6.102   3.504  0.2396 -0.5700  0.2989
  637MOL0     C85915   9.325   6.236   3.207  0.4140  0.4980  0.3153
  637MOL0     C85916   9.363   6.098   3.190 -0.3056 -0.4107  0.4624
  637MOL0     C85917   9.473   6.065   3.112 -0.0515  0.3741  0.6635
  637MOL0     C85918   9.556   6.156   3.052 -0.9727  0.2812 -1.4967
  637MOL0     O85919   9.669   6.110   2.986 -0.0027  0.6451 -1.2759
  637MOL0     C85920   9.764   6.201   2.939 -0.3561 -0.3694 -1.1122
  637MOL0     C85921   9.900   6.129   2.940 -0.7831 -0.9405 -0.2663
  637MOL0     C85922   9.912   6.036   2.815 -0.3460  0.1060 -0.7314
  637MOL0     C85923  10.027   5.944   2.832  0.2523  0.5046  0.1642
  637MOL0     C85924  10.021   5.839   2.720 -0.4067 -0.0300 -0.3400
  637MOL0     C85925  10.029   5.757   2.631 -0.2866  0.5548  0.2318
  637MOL0     C85926   9.518   6.290   3.069 -0.0972 -0.3613 -0.5321
  637MOL0     C85927   9.410   6.327   3.147  0.5327 -0.2856 -0.9482
  637MOL0     H85928   8.921   6.385   3.311  1.4472  0.4361  1.6480
  637MOL0     H85929   8.725   6.366   3.493  0.1732 -0.6923  7.6950
  637MOL0     H85930   8.530   6.064   3.645 -1.9301 -0.8388  1.0141
  637MOL0     H85931   8.695   6.012   3.695  2.0771  2.5952  0.2954
  637MOL0     H85932   8.646   6.113   3.907  0.2907  2.0957  0.1064
  637MOL0     H85933   8.515   6.203   3.826  0.2347 -0.0615 -3.5440
  637MOL0     H85934   8.484   5.901   3.818 -0.3095 -0.1071 -2.8195
  637MOL0     H85935   8.444   5.977   3.964 -2.0639 -0.8976 -1.0390
  637MOL0     H85936   8.282   6.121   3.801 -1.5624 -0.6284  0.2418
  637MOL0     H85937   8.312   5.986   3.691  2.5593  1.3761 -0.9828
  637MOL0     H85938   8.124   5.947   3.798 -0.9766 -1.6068  1.3060
  637MOL0     H85939   8.258   5.835   3.858 -0.8887 -0.1702 -2.4532
  637MOL0     H85940   8.266   5.971   4.074 -2.1087 -2.8014  1.8986
  637MOL0     H85941   8.140   6.084   4.001 -2.6654 -1.6557  2.4118
  637MOL0     H85942   7.983   5.909   3.994 -0.0287  1.6004  0.7748
  637MOL0     H85943   8.092   5.800   4.082 -0.2066  0.3787  1.0992
  637MOL0     H85944   7.922   5.930   4.228  0.1391 -1.4701 -0.4351
  637MOL0     H85945   8.015   6.080   4.183 -3.0318  0.0164  3.3619
  637MOL0     H85946   8.098   5.747   4.358 -0.9424  0.4608  1.9165
  637MOL0     H85947   8.311   5.825   4.657  2.4507 -0.6757 -0.4113
  637MOL0     H85948   8.225   5.699   4.586  1.4167 -0.0193  1.5318
  637MOL0     H85949   8.468   5.653   4.596  0.0689  1.3843  0.2835
  637MOL0     H85950   8.494   5.807   4.499 -2.9385  2.3922 -2.3786
  637MOL0     H85951   8.438   5.716   4.301  0.2378  0.5951  0.5490
  637MOL0     H85952   8.351   5.579   4.375  0.8712  0.0811 -0.2897
  637MOL0     H85953   8.565   5.493   4.461 -1.2994  0.5712 -1.1812
  637MOL0     H85954   8.650   5.641   4.426  0.4473 -1.1858 -0.2308
  637MOL0     H85955   8.792   5.476   4.457 -0.3822  0.3120 -0.3731
  637MOL0     H85956   9.121   5.314   4.448  0.7749  3.2042 -0.9176
  637MOL0     H85957   9.025   5.426   4.530  3.9214  0.7091 -0.5440
  637MOL0     H85958   8.972   5.254   4.540 -1.0686 -0.8935 -1.9272
  637MOL0     H85959   9.235   5.201   3.896  0.1058 -1.3051 -1.5139
  637MOL0     H85960   9.380   5.057   3.757  1.3892 -0.3904  1.7046
  637MOL0     H85961   9.402   4.865   3.625  3.3244  0.2771 -3.8514
  637MOL0     H85962   9.562   4.884   3.695 -1.4586  1.8453 -1.3302
  637MOL0     H85963   9.595   4.645   3.625  1.5454  1.1549 -0.7330
  637MOL0     H85964   9.422   4.640   3.568 -1.6180  2.6166  0.6991
  637MOL0     H85965   9.649   4.815   3.443 -0.4815  3.2351 -0.6323
  637MOL0     H85966   9.482   4.845   3.427 -2.4439 -2.1738  2.0019
  637MOL0     H85967   9.594   4.567   3.359  0.6372  0.4493  2.3540
  637MOL0     H85968   9.432   4.618   3.344 -0.7940  1.7200  1.1524
  637MOL0     H85969   9.678   4.744   3.201  1.0351  0.0148  0.0899
  637MOL0     H85970   9.504   4.795   3.176 -0.4515 -1.9820 -1.8490
  637MOL0     H85971   9.622   4.522   3.144 -0.0494 -0.6121 -2.9128
  637MOL0     H85972   9.458   4.563   3.108 -0.2007  2.3990 -0.1531
  637MOL0     H85973   9.670   4.571   2.909  1.1810  1.3628 -0.6683
  637MOL0     H85974   9.653   4.740   2.963  1.1818  0.0529  2.1924
  637MOL0     H85975   9.403   4.592   2.909 -2.3945  1.9189 -0.1668
  637MOL0     H85976   9.499   4.652   2.769 -0.2561 -3.4995  0.6342
  637MOL0     H85977   9.329   4.744   4.054 -0.4217  0.4971  1.9428
  637MOL0     H85978   9.151   4.900   4.167 -1.9254  1.2558 -0.2432
  637MOL0     H85979   8.880   5.242   4.026 -3.3475  1.3739 -1.2928
  637MOL0     H85980   8.676   5.380   4.067 -1.6817  0.2182  1.2916
  637MOL0     H85981   8.883   6.019   3.657 -1.0447 -1.6093 -2.1303
  637MOL0     H85982   9.084   6.017   3.505  3.5049  1.8411  2.4633
  637MOL0     H85983   9.308   6.026   3.250 -2.0765  0.4464 -0.0598
  637MOL0     H85984   9.489   5.959   3.097 -1.4281  0.1899  0.3624
  637MOL0     H85985   9.726   6.244   2.846 -1.7355 -1.1290 -0.9338
  637MOL0     H85986   9.779   6.272   3.020 -0.1327 -1.7746  0.1209
  637MOL0     H85987   9.908   6.065   3.029 -1.3953  0.1719  0.6127
  637MOL0     H85988   9.985   6.198   2.934  0.9409 -2.8478  0.7461
  637MOL0     H85989   9.937   6.099   2.728  2.1791 -1.4711 -1.2646
  637MOL0     H85990   9.819   5.981   2.798 -0.9978 -0.0391  2.6473
  637MOL0     H85991  10.014   5.884   2.923  1.8062 -1.3025 -0.7115
  637MOL0     H85992  10.119   6.003   2.836  1.2334 -1.0154  2.2512
  637MOL0     H85993  10.012   5.695   2.545  0.3322  2.6662 -1.5190
  637MOL0     H85994   9.570   6.371   3.018 -1.7087  0.5227 -0.8542
  637MOL0     H85995   9.391   6.432   3.169  2.0235 -0.5525  2.2437
  638MOL0     O85996   4.598   3.922   7.245 -0.1332  0.0291 -0.0879
  638MOL0     C85997   4.646   4.031   7.225 -0.3687  0.6039 -0.1871
  638MOL0     O85998   4.709   4.107   7.320  0.5055 -0.1082  0.0370
  638MOL0     C85999   4.682   4.089   7.457 -0.2245  0.0352  0.7721
  638MOL0     C86000   4.556   4.128   7.515  0.0768  0.4945 -0.1488
  638MOL0     C86001   4.530   4.109   7.646 -1.1830  1.3588  0.1694
  638MOL0     C86002   4.624   4.040   7.732  0.5278  1.3202 -0.7660
  638MOL0     O86003   4.588   3.990   7.860  0.3453 -0.3984 -0.4173
  638MOL0     C86004   4.519   4.076   7.961 -0.0516  0.7447 -0.2561
  638MOL0     C86005   4.440   3.977   8.057  0.2252  0.2010 -1.3237
  638MOL0     C86006   4.331   4.053   8.152  0.1365  1.2643  0.1351
  638MOL0     C86007   4.296   3.976   8.284 -0.3644  0.0796 -0.0452
  638MOL0     C86008   4.228   3.842   8.253  0.3226 -0.3042  0.1591
  638MOL0     C86009   4.078   3.842   8.278 -0.8391 -0.6788  0.3451
  638MOL0     C86010   4.014   3.717   8.225 -0.3585 -0.1575  0.5394
  638MOL0     C86011   3.869   3.687   8.261  0.0434 -0.0305  0.2707
  638MOL0     N86012   3.783   3.793   8.207  0.5488 -0.1260  0.1486
  638MOL0     C86013   3.762   3.820   8.078  0.8185 -0.2454  0.4381
  638MOL0     C86014   3.656   3.912   8.080 -0.5787 -0.0955  0.2475
  638MOL0     C86015   3.573   3.958   7.959 -0.1167  0.3209  0.3513
  638MOL0     C86016   3.666   3.998   7.842 -0.0539 -0.7174 -0.3623
  638MOL0     C86017   3.588   3.992   7.715 -0.6705  0.5728 -0.7396
  638MOL0     C86018   3.666   4.044   7.588 -0.3694  0.1345 -1.0701
  638MOL0     O86019   3.765   3.962   7.529 -0.1602 -0.5988 -0.0621
  638MOL0     C86020   3.797   3.988   7.395  1.5864  0.1568  0.2104
  638MOL0     C86021   3.930   3.983   7.365 -0.9866 -0.3725  0.4047
  638MOL0     C86022   3.983   4.004   7.230 -0.7235  0.9221 -0.3804
  638MOL0     C86023   4.127   3.962   7.208  0.5083  0.1566  0.1355
  638MOL0     C86024   3.898   4.034   7.123 -0.2757  0.4009 -1.2487
  638MOL0     C86025   3.938   4.054   6.976 -0.2745 -0.4403  0.3154
  638MOL0     O86026   4.057   4.100   6.948 -0.2715 -0.9387 -0.2431
  638MOL0     C86027   4.100   4.097   6.823 -0.6201  0.0886 -0.3073
  638MOL0     C86028   4.197   4.003   6.794  0.2329  0.0028  0.6159
  638MOL0     C86029   4.227   3.994   6.649  0.2755  0.5804 -0.4316
  638MOL0     C86030   4.179   4.090   6.553 -0.5081  0.6833 -0.6875
  638MOL0     O86031   4.222   4.080   6.426  0.4441 -0.5134  0.4784
  638MOL0     C86032   4.118   4.056   6.332 -0.3539 -0.1458 -1.1480
  638MOL0     C86033   4.130   4.145   6.213 -0.3832  0.0232 -0.5178
  638MOL0     C86034   4.254   4.108   6.128 -1.2060 -0.1596  1.1318
  638MOL0     C86035   4.264   4.203   6.009  0.5397 -0.1513  0.6454
  638MOL0     C86036   4.401   4.207   5.935 -0.3922  0.2466 -0.0199
  638MOL0     C86037   4.388   4.316   5.836  0.9685 -0.3162  0.2496
  638MOL0     C86038   4.521   4.335   5.770  0.1909 -0.0424  0.6499
  638MOL0     C86039   4.525   4.403   5.641  0.5461 -0.0461 -1.2662
  638MOL0    Cl86040   4.480   4.323   5.484 -0.0624 -0.1616  0.2538
  638MOL0     C86041   4.098   4.195   6.599  0.4465  0.2728 -0.5620
  638MOL0     C86042   4.061   4.195   6.736 -0.4702 -0.1018 -0.2236
  638MOL0     O86043   3.851   4.024   6.892  0.3563  0.0673  0.5547
  638MOL0     C86044   3.767   4.046   7.158  0.4900  0.6007 -0.3582
  638MOL0     C86045   3.708   4.019   7.287 -0.7692 -0.0343  0.0314
  638MOL0     N86046   3.626   3.944   8.210 -0.4438 -0.1775 -0.9536
  638MOL0     N86047   3.704   3.868   8.288 -0.1856 -0.5031  0.3840
  638MOL0     C86048   4.740   3.997   7.676 -0.8225  0.2230  0.3327
  638MOL0     C86049   4.768   4.021   7.542  0.6817 -0.1688 -0.5343
  638MOL0     C86050   4.642   4.093   7.097 -0.2120  0.0725 -0.5268
  638MOL0     C86051   4.720   4.207   7.067  0.4553 -0.6600 -0.3774
  638MOL0     C86052   4.720   4.254   6.933  0.8019 -0.1255 -0.6877
  638MOL0     C86053   4.637   4.209   6.835  0.2855 -0.4689 -0.4765
  638MOL0     O86054   4.640   4.264   6.711 -0.1907 -0.0487  0.0186
  638MOL0     C86055   4.516   4.316   6.665  0.9565  0.5139  1.2179
  638MOL0     C86056   4.496   4.285   6.514 -0.3816 -0.2471 -0.7241
  638MOL0     C86057   4.587   4.379   6.423  1.3995 -0.3068  0.8255
  638MOL0     C86058   4.587   4.317   6.279  0.8483  0.2935 -1.1881
  638MOL0     C86059   4.684   4.381   6.196  0.5253 -0.9385 -0.2936
  638MOL0     C86060   4.783   4.441   6.153  0.8034  0.1943  1.3621
  638MOL0     C86061   4.553   4.101   6.869  0.4131 -1.9358 -0.2843
  638MOL0     C86062   4.563   4.045   6.990 -0.9410 -0.1167  0.3455
  638MOL0     H86063   4.483   4.177   7.450  0.0907  0.4643 -0.1871
  638MOL0     H86064   4.433   4.130   7.692 -0.1200  1.4165  2.5558
  638MOL0     H86065   4.597   4.134   8.011  0.0944  0.3912 -0.0652
  638MOL0     H86066   4.448   4.136   7.903  1.0180 -0.8857 -3.5561
  638MOL0     H86067   4.380   3.907   7.997  0.4276 -1.4506  0.3054
  638MOL0     H86068   4.503   3.916   8.123 -2.8380 -1.8022 -0.0017
  638MOL0     H86069   4.383   4.145   8.178 -0.1597  1.1298  1.2827
  638MOL0     H86070   4.238   4.067   8.096 -0.9843 -1.3163  1.1538
  638MOL0     H86071   4.386   3.967   8.345 -1.3297 -3.3038  1.1207
  638MOL0     H86072   4.237   4.036   8.354 -0.6613 -0.2742  0.0135
  638MOL0     H86073   4.247   3.821   8.147  0.7421  0.4429  0.0774
  638MOL0     H86074   4.272   3.765   8.317  0.4599 -0.6083 -0.2950
  638MOL0     H86075   4.070   3.845   8.387 -1.4865 -2.6908  0.3951
  638MOL0     H86076   4.038   3.929   8.226  0.9495  0.8068  1.3233
  638MOL0     H86077   4.032   3.703   8.118 -2.1225  1.5217 -0.0242
  638MOL0     H86078   4.068   3.636   8.276 -0.7635  0.3953  1.8692
  638MOL0     H86079   3.871   3.698   8.370 -0.9923  1.3224  0.1818
  638MOL0     H86080   3.840   3.585   8.235 -0.8500  0.2278  0.2126
  638MOL0     H86081   3.793   3.777   7.984  0.3594 -0.0097  0.1719
  638MOL0     H86082   3.519   3.871   7.920 -0.0257  0.2372  0.4115
  638MOL0     H86083   3.498   4.035   7.980 -3.6411 -2.4729 -0.9666
  638MOL0     H86084   3.749   3.926   7.832  3.0094  2.0920  2.2450
  638MOL0     H86085   3.719   4.091   7.866 -2.9833  1.1681 -0.7583
  638MOL0     H86086   3.492   4.045   7.725  0.5602  2.8544 -0.4189
  638MOL0     H86087   3.557   3.888   7.697 -0.6577  0.2574  0.8389
  638MOL0     H86088   3.701   4.143   7.619 -4.1387  1.3854 -0.2551
  638MOL0     H86089   3.579   4.062   7.524 -1.6591  0.8699  0.7998
  638MOL0     H86090   3.998   3.958   7.446 -2.6755 -0.5372  1.8195
  638MOL0     H86091   4.186   3.963   7.300 -3.0863 -0.3741  2.6325
  638MOL0     H86092   4.117   3.861   7.167  0.7355 -0.4758  1.6070
  638MOL0     H86093   4.178   4.033   7.141 -0.1491  2.0308  1.5153
  638MOL0     H86094   4.216   3.910   6.846  0.2657 -1.8970 -2.5848
  638MOL0     H86095   4.275   3.904   6.611 -1.3715 -0.9766  0.9975
  638MOL0     H86096   4.109   3.951   6.303 -0.6375 -0.6745  0.7230
  638MOL0     H86097   4.025   4.097   6.372  1.8925  3.0979  1.2758
  638MOL0     H86098   4.033   4.153   6.163 -0.5923  1.1073  0.0448
  638MOL0     H86099   4.141   4.245   6.254 -1.9919 -1.4837  4.2885
  638MOL0     H86100   4.244   4.004   6.097 -0.2017 -0.9499  3.2819
  638MOL0     H86101   4.346   4.127   6.183  0.7071 -0.6838 -1.6581
  638MOL0     H86102   4.180   4.187   5.941 -0.5262  1.6729  1.4535
  638MOL0     H86103   4.233   4.302   6.045  1.8923  0.3290  0.5681
  638MOL0     H86104   4.429   4.120   5.876  0.7420  0.1429  0.6492
  638MOL0     H86105   4.467   4.224   6.021 -0.8803 -1.4923  0.7518
  638MOL0     H86106   4.308   4.308   5.763  2.2214  0.1372 -1.2218
  638MOL0     H86107   4.368   4.409   5.891  1.3912 -0.0068 -0.1056
  638MOL0     H86108   4.555   4.232   5.756  4.6463  1.0606  1.8289
  638MOL0     H86109   4.588   4.384   5.841  0.9197  0.8705 -0.6313
  638MOL0     H86110   4.632   4.426   5.632  1.3058 -1.6553  2.2836
  638MOL0     H86111   4.467   4.496   5.648  0.4812 -0.1230 -0.7535
  638MOL0     H86112   4.065   4.278   6.538 -0.8369 -1.9745 -3.1675
  638MOL0     H86113   3.999   4.269   6.784  1.3906  0.5652  1.2913
  638MOL0     H86114   3.699   4.068   7.076  1.3247 -0.0206 -1.2266
  638MOL0     H86115   3.600   4.018   7.303 -0.4879  0.6915  2.5717
  638MOL0     H86116   4.813   3.943   7.735 -3.2329 -2.7090  0.8365
  638MOL0     H86117   4.862   3.997   7.494  1.6449  3.1621 -0.5671
  638MOL0     H86118   4.787   4.250   7.142  3.8677  0.1046 -3.5568
  638MOL0     H86119   4.793   4.330   6.905  1.4867 -0.7641 -0.6425
  638MOL0     H86120   4.432   4.257   6.703  1.6083 -1.2780  0.0515
  638MOL0     H86121   4.512   4.422   6.692 -0.7952  0.5340  0.9918
  638MOL0     H86122   4.390   4.306   6.496 -0.1595  3.8275  1.5682
  638MOL0     H86123   4.498   4.178   6.493 -1.8943 -0.5379  0.4337
  638MOL0     H86124   4.690   4.381   6.459  1.0361 -1.6599  2.0070
  638MOL0     H86125   4.530   4.473   6.432 -0.6910 -1.5877  1.7637
  638MOL0     H86126   4.485   4.315   6.240  0.9583 -2.2430 -1.5533
  638MOL0     H86127   4.624   4.214   6.279  0.7041  0.1965  1.0294
  638MOL0     H86128   4.875   4.478   6.114  0.3955 -0.4325 -0.2763
  638MOL0     H86129   4.477   4.070   6.798 -0.1652  0.6784 -0.9275
  638MOL0     H86130   4.499   3.959   7.005 -2.6931 -0.0877 -5.1028
  639MOL0     O86131  11.425   7.037   9.484  0.3746  0.3990 -0.1059
  639MOL0     C86132  11.348   6.961   9.552  0.1447 -0.4200  1.2130
  639MOL0     O86133  11.277   6.865   9.499  0.9988  0.2829  0.4286
  639MOL0     C86134  11.289   6.826   9.363 -0.2281 -0.0352  0.7886
  639MOL0     C86135  11.406   6.821   9.285 -0.9198  0.0740  0.2788
  639MOL0     C86136  11.406   6.765   9.156  1.0548  0.0697 -0.4185
  639MOL0     C86137  11.290   6.709   9.103 -0.1828 -1.1840  0.3383
  639MOL0     O86138  11.292   6.633   8.984 -0.0761  0.1950  0.0414
  639MOL0     C86139  11.413   6.645   8.898  0.7092  0.0369  0.6322
  639MOL0     C86140  11.360   6.596   8.753  0.0485  0.8682  0.5571
  639MOL0     C86141  11.487   6.624   8.652 -0.4453 -0.7366 -0.0425
  639MOL0     C86142  11.444   6.588   8.513 -0.6149 -0.6283 -0.0335
  639MOL0     C86143  11.402   6.448   8.491 -0.0456 -0.6564  0.4299
  639MOL0     C86144  11.380   6.399   8.339 -0.5745  0.6306  0.3090
  639MOL0     C86145  11.336   6.246   8.323 -0.1272 -0.8866  0.0889
  639MOL0     C86146  11.355   6.189   8.179 -0.1765  0.0430  0.0446
  639MOL0     N86147  11.295   6.047   8.170 -0.3839 -0.1327 -0.1831
  639MOL0     C86148  11.306   5.967   8.060  0.0444  0.2310  0.2821
  639MOL0     C86149  11.239   5.853   8.094 -0.0690  0.6412 -0.4053
  639MOL0     C86150  11.215   5.727   8.005  0.7986  1.0200 -0.0718
  639MOL0     C86151  11.246   5.595   8.076  0.0821 -0.3821  0.0354
  639MOL0     C86152  11.172   5.479   8.017  0.0589 -0.1286 -0.4369
  639MOL0     C86153  11.198   5.450   7.868  0.1658  0.1590 -0.6735
  639MOL0     O86154  11.342   5.448   7.847 -0.3815 -0.5345 -0.1276
  639MOL0     C86155  11.385   5.334   7.780 -0.4332  0.2648 -0.6053
  639MOL0     C86156  11.335   5.204   7.802 -1.4629 -0.1281  0.1970
  639MOL0     C86157  11.409   5.088   7.753 -0.4108 -0.3129  0.1578
  639MOL0     C86158  11.344   4.955   7.775 -0.3607  0.1271 -0.3971
  639MOL0     C86159  11.534   5.108   7.681  0.0618  0.1347  0.1861
  639MOL0     C86160  11.607   4.989   7.615  0.7079  0.0865 -0.2510
  639MOL0     O86161  11.730   5.017   7.574  0.1925  0.3688  0.3999
  639MOL0     C86162  11.778   4.918   7.490 -0.5585  0.2023 -0.4174
  639MOL0     C86163  11.866   4.810   7.520  0.3499 -0.3947 -0.4272
  639MOL0     C86164  11.906   4.718   7.419 -0.4905 -0.0708  0.0090
  639MOL0     C86165  11.867   4.740   7.288 -0.0340  0.7750 -0.0322
  639MOL0     O86166  11.904   4.646   7.198  0.8201  0.3060 -0.0787
  639MOL0     C86167  11.970   4.720   7.095 -0.2435  0.1784 -0.2561
  639MOL0     C86168  12.002   4.623   6.981 -0.3727 -0.5958 -0.2483
  639MOL0     C86169  12.060   4.697   6.863 -0.2498 -0.1679  0.3237
  639MOL0     C86170  12.089   4.606   6.746  0.0333 -0.9386  0.6952
  639MOL0     C86171  12.077   4.695   6.621 -0.3863 -0.0827  0.1430
  639MOL0     C86172  12.125   4.621   6.496  0.1330  0.4117 -0.1905
  639MOL0     C86173  12.145   4.706   6.382  0.3623  0.1168  0.1745
  639MOL0     C86174  12.018   4.726   6.315  0.9092  0.6315 -0.6427
  639MOL0    Cl86175  12.017   4.645   6.159  0.1200 -0.1982 -0.4339
  639MOL0     C86176  11.784   4.853   7.262  0.2704 -0.4918  0.7120
  639MOL0     C86177  11.749   4.947   7.355 -0.4991  0.6231 -0.8866
  639MOL0     O86178  11.541   4.890   7.579  0.3912  0.3633 -1.2567
  639MOL0     C86179  11.589   5.239   7.676 -0.0771 -0.6975  0.1088
  639MOL0     C86180  11.517   5.353   7.722 -0.6841  0.5019  0.0635
  639MOL0     N86181  11.206   5.863   8.227 -0.1754  0.5941  0.2258
  639MOL0     N86182  11.241   5.977   8.274  0.0319 -0.2108 -0.0840
  639MOL0     C86183  11.171   6.722   9.174 -0.8217 -0.0265  0.1920
  639MOL0     C86184  11.176   6.778   9.301  0.6382  0.5764 -0.1467
  639MOL0     C86185  11.363   6.954   9.698  0.5160 -0.0527  0.8925
  639MOL0     C86186  11.332   6.832   9.763 -0.5000 -0.1109 -0.6309
  639MOL0     C86187  11.375   6.815   9.896  1.2254 -0.1416 -0.4344
  639MOL0     C86188  11.438   6.908   9.970 -0.0532 -0.2955 -0.0763
  639MOL0     O86189  11.499   6.899  10.095  0.2484  0.2678  0.3060
  639MOL0     C86190  11.493   6.772  10.167  0.1624 -0.6493 -0.1533
  639MOL0     C86191  11.588   6.670  10.114 -0.2821 -0.1592  0.2159
  639MOL0     C86192  11.530   6.527  10.135  0.8727  0.7373 -0.6779
  639MOL0     C86193  11.525   6.472  10.282  1.0298  1.1803  0.5387
  639MOL0     C86194  11.563   6.330  10.299  0.8188  0.3010 -0.2570
  639MOL0     C86195  11.598   6.220  10.318 -0.0645  0.9275  0.8671
  639MOL0     C86196  11.460   7.037   9.910  0.1428 -0.4807  0.0787
  639MOL0     C86197  11.412   7.061   9.773 -0.2738  0.1609  0.5774
  639MOL0     H86198  11.507   6.846   9.318 -1.9608  1.4114  2.7429
  639MOL0     H86199  11.504   6.757   9.110  1.1602  0.1978 -0.2171
  639MOL0     H86200  11.446   6.749   8.903 -0.2884  0.4414 -0.5879
  639MOL0     H86201  11.499   6.582   8.923  0.6792 -2.2970 -3.9738
  639MOL0     H86202  11.324   6.493   8.741  0.6095  0.9144 -2.4510
  639MOL0     H86203  11.282   6.668   8.726 -0.6443  0.6048  1.7887
  639MOL0     H86204  11.523   6.727   8.661 -3.5031  0.3121  1.7631
  639MOL0     H86205  11.574   6.561   8.673  0.9737  1.0209 -0.4021
  639MOL0     H86206  11.362   6.657   8.488  0.3384  0.2878 -0.7430
  639MOL0     H86207  11.529   6.611   8.448 -0.5324  3.4503  1.1866
  639MOL0     H86208  11.473   6.381   8.540 -0.5243 -2.5636 -1.3380
  639MOL0     H86209  11.307   6.426   8.541  0.4664 -2.5353  0.6745
  639MOL0     H86210  11.304   6.461   8.290 -0.9881  0.8231  1.1679
  639MOL0     H86211  11.475   6.408   8.287  0.2902 -0.0767  1.7012
  639MOL0     H86212  11.383   6.187   8.402  1.6813  1.5750  0.9923
  639MOL0     H86213  11.228   6.234   8.330 -0.4260  0.4571 -1.5352
  639MOL0     H86214  11.452   6.200   8.131 -0.9794  0.1058 -1.6381
  639MOL0     H86215  11.284   6.253   8.125  1.8817  0.6515 -2.0776
  639MOL0     H86216  11.350   5.998   7.966 -0.5980  1.2410  0.2989
  639MOL0     H86217  11.109   5.722   7.980  0.7982 -0.6222  0.1679
  639MOL0     H86218  11.253   5.727   7.902 -3.1241  3.2592 -1.7480
  639MOL0     H86219  11.230   5.607   8.184 -0.5223  1.1442 -0.1980
  639MOL0     H86220  11.350   5.561   8.068 -0.2597 -1.0852 -2.1710
  639MOL0     H86221  11.064   5.490   8.029 -0.1867 -0.9190 -1.6641
  639MOL0     H86222  11.200   5.389   8.074  2.4281  0.4085 -0.6647
  639MOL0     H86223  11.149   5.532   7.813 -2.1738 -0.0780  0.9238
  639MOL0     H86224  11.139   5.360   7.849 -1.7978  1.6209 -1.9228
  639MOL0     H86225  11.245   5.188   7.861 -0.1953  2.8422  3.2297
  639MOL0     H86226  11.270   4.938   7.697  0.1446  0.2811 -0.9157
  639MOL0     H86227  11.411   4.868   7.777 -0.1851  0.0519 -3.9053
  639MOL0     H86228  11.305   4.953   7.877  2.4089 -0.2747  0.7464
  639MOL0     H86229  11.887   4.785   7.623  1.2640 -1.3506 -0.8226
  639MOL0     H86230  11.962   4.628   7.441  0.3248 -0.8956 -4.4220
  639MOL0     H86231  11.912   4.806   7.062 -2.4430 -1.4837 -0.9310
  639MOL0     H86232  12.066   4.754   7.134 -0.3681  0.0109  0.2035
  639MOL0     H86233  12.078   4.554   7.020 -0.1112 -0.0848  0.1642
  639MOL0     H86234  11.915   4.571   6.942  0.5421 -0.0421 -3.2967
  639MOL0     H86235  12.151   4.740   6.905 -0.1249 -0.4806  0.3797
  639MOL0     H86236  11.986   4.771   6.832 -0.2472 -0.0619  0.5631
  639MOL0     H86237  12.189   4.563   6.754  0.2368 -0.5065  0.5204
  639MOL0     H86238  12.023   4.521   6.726  0.8252 -1.2795 -0.5659
  639MOL0     H86239  12.144   4.780   6.630  0.1395 -0.6581  2.2442
  639MOL0     H86240  11.975   4.730   6.601 -1.0303 -1.8342  0.1943
  639MOL0     H86241  12.224   4.586   6.529  0.2017 -0.1136 -0.9259
  639MOL0     H86242  12.072   4.530   6.467  0.2656  0.6444 -1.1733
  639MOL0     H86243  12.224   4.672   6.313  0.4602  1.8757 -0.6251
  639MOL0     H86244  12.179   4.806   6.408 -0.8766  0.5551  0.1462
  639MOL0     H86245  12.000   4.834   6.306 -0.1511  0.5531  0.2740
  639MOL0     H86246  11.933   4.701   6.378  0.5839  2.8716 -0.1037
  639MOL0     H86247  11.746   4.869   7.162  1.9306  4.0263  0.5879
  639MOL0     H86248  11.696   5.039   7.336  0.2307  1.6932  1.7937
  639MOL0     H86249  11.678   5.272   7.623  0.0494 -0.6550  0.3460
  639MOL0     H86250  11.564   5.451   7.725  0.9184 -0.2234 -0.2406
  639MOL0     H86251  11.084   6.671   9.134 -1.1010 -1.4194  2.4195
  639MOL0     H86252  11.080   6.786   9.351  0.9694  4.0559  0.2085
  639MOL0     H86253  11.278   6.752   9.713  0.1162 -2.3097  1.9590
  639MOL0     H86254  11.362   6.712   9.929 -3.2742  0.5547  0.6348
  639MOL0     H86255  11.534   6.790  10.267  2.9892 -0.2987 -1.2653
  639MOL0     H86256  11.392   6.735  10.187  0.0719 -0.0725  0.4767
  639MOL0     H86257  11.687   6.686  10.158 -0.4380  1.0368  0.1702
  639MOL0     H86258  11.598   6.685  10.006 -1.2261  2.0303  0.3941
  639MOL0     H86259  11.577   6.463  10.061  0.9744 -0.7360  0.6020
  639MOL0     H86260  11.424   6.519  10.107  0.8708  0.2332 -0.5407
  639MOL0     H86261  11.421   6.478  10.316  0.2806 -0.9165 -1.1837
  639MOL0     H86262  11.579   6.543  10.345  2.3375  0.5523  0.1554
  639MOL0     H86263  11.620   6.116  10.327  0.6399  1.0508  0.6733
  639MOL0     H86264  11.515   7.118   9.956  1.2126  0.6751 -2.9780
  639MOL0     H86265  11.434   7.155   9.722 -2.5226 -1.4692 -3.8625
  640MOL0     O86266  10.087   3.746   8.691 -1.0689 -0.0703 -0.0432
  640MOL0     C86267  10.082   3.806   8.579  0.5840  0.7934 -0.9828
  640MOL0     O86268   9.974   3.803   8.496  0.4252 -0.1920 -0.8154
  640MOL0     C86269   9.864   3.741   8.551 -0.7998 -0.9571  0.5448
  640MOL0     C86270   9.866   3.603   8.569  0.1343  0.0042 -0.1637
  640MOL0     C86271   9.763   3.553   8.633 -0.7096  0.4500 -0.0084
  640MOL0     C86272   9.640   3.615   8.647 -0.0752  0.1902  0.4738
  640MOL0     O86273   9.538   3.543   8.707  0.3270  0.4082  0.1584
  640MOL0     C86274   9.405   3.573   8.709  0.1191 -0.0623  0.6063
  640MOL0     C86275   9.312   3.459   8.736  0.3575  0.2463 -0.5603
  640MOL0     C86276   9.347   3.336   8.662 -0.3187  0.4278  0.0474
  640MOL0     C86277   9.289   3.201   8.711  0.3528 -0.5630  1.2073
  640MOL0     C86278   9.323   3.085   8.609  0.1329  0.2893 -1.0484
  640MOL0     C86279   9.261   2.948   8.646 -0.0067  0.0110 -0.1925
  640MOL0     C86280   9.111   2.922   8.617  0.6525 -1.0431 -0.1529
  640MOL0     C86281   9.088   2.876   8.476  1.3772 -0.1671  1.1769
  640MOL0     N86282   8.943   2.911   8.429  0.5107 -0.0570 -0.1426
  640MOL0     C86283   8.844   2.823   8.403  0.9732  0.0409 -0.2334
  640MOL0     C86284   8.731   2.889   8.368 -0.5868 -1.2665  0.1198
  640MOL0     C86285   8.602   2.846   8.315 -0.4580  0.0972  0.2585
  640MOL0     C86286   8.513   2.840   8.437 -0.2529  0.6283 -1.6299
  640MOL0     C86287   8.391   2.751   8.410 -0.4461 -0.1842  0.0819
  640MOL0     C86288   8.282   2.763   8.516  0.4649  0.0583  0.9274
  640MOL0     O86289   8.337   2.726   8.641 -0.1261  0.0418  0.3993
  640MOL0     C86290   8.257   2.673   8.744  0.8802 -0.1015  0.0893
  640MOL0     C86291   8.331   2.641   8.863 -0.4773  1.0524  0.7494
  640MOL0     C86292   8.260   2.579   8.971  0.7258 -0.0767  0.3242
  640MOL0     C86293   8.342   2.527   9.076  0.5773  0.2641  0.1707
  640MOL0     C86294   8.116   2.565   8.968 -0.2528 -0.1003 -0.4624
  640MOL0     C86295   8.031   2.531   9.086 -0.3568 -0.4524  0.9882
  640MOL0     O86296   7.895   2.533   9.069  0.0528  0.4841  0.7462
  640MOL0     C86297   7.798   2.516   9.166 -0.1055 -0.6298  0.6107
  640MOL0     C86298   7.670   2.498   9.118  0.6442  0.2426 -0.6858
  640MOL0     C86299   7.564   2.480   9.205  0.2919 -0.2955  0.8034
  640MOL0     C86300   7.578   2.487   9.346  0.8183  0.2385  0.0361
  640MOL0     O86301   7.474   2.475   9.437  0.3014 -0.0086 -0.9495
  640MOL0     C86302   7.363   2.550   9.394 -0.5388 -0.5756 -0.5886
  640MOL0     C86303   7.272   2.589   9.513 -0.7055 -0.1342 -0.5789
  640MOL0     C86304   7.165   2.477   9.538 -0.0990 -0.4829 -0.4238
  640MOL0     C86305   7.108   2.499   9.678  0.2498  0.1197  0.8666
  640MOL0     C86306   6.991   2.603   9.679 -0.2980  0.5311 -0.5428
  640MOL0     C86307   6.937   2.628   9.823  0.0036  0.1042 -0.9363
  640MOL0     C86308   6.853   2.752   9.833 -0.0578 -0.3004 -0.2684
  640MOL0     C86309   6.705   2.716   9.799  0.6901 -0.4591  0.1408
  640MOL0    Cl86310   6.603   2.854   9.793  0.2699  0.2555 -0.0584
  640MOL0     C86311   7.700   2.525   9.390 -0.1595 -0.2664 -0.2158
  640MOL0     C86312   7.812   2.535   9.305  0.1548 -0.6329 -0.6571
  640MOL0     O86313   8.091   2.501   9.186 -0.1821 -0.4215  0.5540
  640MOL0     C86314   8.053   2.622   8.864 -0.5736  0.1943  0.7337
  640MOL0     C86315   8.116   2.659   8.748 -1.6618  0.0054  0.0293
  640MOL0     N86316   8.763   3.026   8.384 -0.2147  0.1134 -0.2501
  640MOL0     N86317   8.882   3.038   8.428 -0.2766  0.1836  0.1692
  640MOL0     C86318   9.635   3.756   8.614  0.0090 -0.1117  0.5324
  640MOL0     C86319   9.749   3.822   8.572  0.6908  0.1193  0.7524
  640MOL0     C86320  10.193   3.876   8.527  0.6023 -0.2534 -0.5437
  640MOL0     C86321  10.185   3.933   8.398  0.8083  0.3500 -0.2423
  640MOL0     C86322  10.295   3.993   8.336 -1.0373 -0.5074 -0.5874
  640MOL0     C86323  10.411   4.019   8.414  0.4707  0.3754  1.3625
  640MOL0     O86324  10.522   4.087   8.371  0.0148 -0.1392 -0.4241
  640MOL0     C86325  10.521   4.137   8.235  1.0777 -1.1691  0.5534
  640MOL0     C86326  10.652   4.214   8.206  0.5754  0.6616 -0.1898
  640MOL0     C86327  10.758   4.107   8.182 -0.0558  0.2782  0.3355
  640MOL0     C86328  10.900   4.153   8.201  0.5082 -0.9463  0.9302
  640MOL0     C86329  11.001   4.044   8.191  0.1430  0.3794 -0.0635
  640MOL0     C86330  11.083   3.960   8.187 -0.1608  1.1149  0.7094
  640MOL0     C86331  10.416   3.978   8.545  0.2737 -0.1135  0.4352
  640MOL0     C86332  10.305   3.904   8.605 -1.0471  0.4871  0.4331
  640MOL0     H86333   9.955   3.543   8.552  1.6987  2.5420 -1.7971
  640MOL0     H86334   9.761   3.450   8.667 -0.1709  0.1366 -0.8969
  640MOL0     H86335   9.384   3.652   8.782 -0.0844 -1.2938  1.9473
  640MOL0     H86336   9.391   3.600   8.604  0.4146 -1.6288  0.1385
  640MOL0     H86337   9.319   3.423   8.839  2.0764 -2.1665 -1.4244
  640MOL0     H86338   9.208   3.488   8.718 -0.0292 -0.5376  0.3328
  640MOL0     H86339   9.310   3.352   8.560 -1.1643 -1.2632  0.0448
  640MOL0     H86340   9.455   3.336   8.643 -0.6026  0.0084 -1.7947
  640MOL0     H86341   9.320   3.184   8.815 -1.5722  1.6109  2.2345
  640MOL0     H86342   9.184   3.232   8.702  1.0920  1.4801 -4.2043
  640MOL0     H86343   9.288   3.104   8.507 -0.8461  0.1488 -0.7483
  640MOL0     H86344   9.431   3.076   8.591 -0.0497 -2.2535 -1.2761
  640MOL0     H86345   9.325   2.867   8.609 -0.3892  0.7177 -2.5642
  640MOL0     H86346   9.268   2.943   8.755 -2.5261 -0.5629  0.0031
  640MOL0     H86347   9.071   2.842   8.680 -2.1023 -1.3685 -2.1063
  640MOL0     H86348   9.058   3.016   8.635  2.6497  0.0687  0.2786
  640MOL0     H86349   9.106   2.768   8.474  2.6002  0.0234  0.7839
  640MOL0     H86350   9.155   2.926   8.406 -3.4586  1.1705 -3.1200
  640MOL0     H86351   8.863   2.716   8.405  0.9816 -0.0364 -2.2247
  640MOL0     H86352   8.569   2.912   8.234 -0.4443  0.8355  0.8494
  640MOL0     H86353   8.607   2.746   8.270 -3.5134 -0.5486  1.1405
  640MOL0     H86354   8.480   2.936   8.475  2.0571  2.0333 -2.9322
  640MOL0     H86355   8.556   2.790   8.524 -0.3451  0.2332 -1.8045
  640MOL0     H86356   8.417   2.645   8.400  3.1099  0.5981 -0.6052
  640MOL0     H86357   8.352   2.781   8.313  1.0374  0.2755 -0.4120
  640MOL0     H86358   8.202   2.696   8.482 -0.4342 -0.6330  4.0383
  640MOL0     H86359   8.249   2.867   8.512  2.5125  0.7916  1.7796
  640MOL0     H86360   8.438   2.653   8.862 -0.3916  0.3308  0.1963
  640MOL0     H86361   8.447   2.546   9.054  0.9588 -1.5470  0.3420
  640MOL0     H86362   8.313   2.572   9.172 -3.4616 -0.3798 -0.5451
  640MOL0     H86363   8.332   2.419   9.085  1.6081  0.2947  2.3828
  640MOL0     H86364   7.648   2.488   9.012  1.4024  0.8375 -0.9060
  640MOL0     H86365   7.469   2.449   9.162  1.0405 -0.8049 -0.5309
  640MOL0     H86366   7.389   2.641   9.338  1.1124 -1.7897 -1.8723
  640MOL0     H86367   7.300   2.489   9.328 -0.7290 -1.5350  0.4537
  640MOL0     H86368   7.336   2.611   9.599 -1.8360 -0.8309  0.4877
  640MOL0     H86369   7.216   2.677   9.480 -0.8525  1.3095  3.0892
  640MOL0     H86370   7.204   2.376   9.523 -1.7035 -1.2678  0.4629
  640MOL0     H86371   7.087   2.483   9.462  1.6574 -1.4799 -2.4191
  640MOL0     H86372   7.079   2.402   9.719 -3.2127 -0.5750 -2.7102
  640MOL0     H86373   7.196   2.536   9.733  2.1562  0.4122 -2.1556
  640MOL0     H86374   6.912   2.567   9.613  0.3343  2.1863 -2.3108
  640MOL0     H86375   7.026   2.701   9.643 -0.7600 -0.1796 -3.1150
  640MOL0     H86376   6.893   2.536   9.862  2.2263 -0.1194  1.3479
  640MOL0     H86377   7.031   2.639   9.879 -0.1705 -0.5439 -0.5094
  640MOL0     H86378   6.903   2.831   9.777 -0.5490  1.7256  1.9747
  640MOL0     H86379   6.838   2.786   9.936 -1.3506  0.3874 -0.6609
  640MOL0     H86380   6.668   2.649   9.878  0.2708 -0.6545 -0.2147
  640MOL0     H86381   6.702   2.668   9.701  4.0559  0.6099 -0.5930
  640MOL0     H86382   7.721   2.538   9.495  2.9883 -4.9934  0.0486
  640MOL0     H86383   7.912   2.565   9.333 -1.3678  1.5274  3.1722
  640MOL0     H86384   7.945   2.622   8.856 -0.4383 -1.3977 -2.2893
  640MOL0     H86385   8.068   2.690   8.656  0.5157  6.3471  0.5301
  640MOL0     H86386   9.539   3.803   8.637 -0.4380  0.5927 -2.3354
  640MOL0     H86387   9.755   3.930   8.566  4.3480  0.0405  0.5733
  640MOL0     H86388  10.096   3.920   8.337 -1.4982  1.6983  2.6208
  640MOL0     H86389  10.295   4.033   8.236  4.2647  0.8669 -0.3533
  640MOL0     H86390  10.491   4.063   8.161  3.0306  0.6719 -2.2989
  640MOL0     H86391  10.437   4.206   8.238  0.3837 -2.0032  0.7176
  640MOL0     H86392  10.656   4.274   8.298  0.5286  1.7109 -0.8620
  640MOL0     H86393  10.645   4.275   8.116  3.3930  1.9326  0.3556
  640MOL0     H86394  10.742   4.078   8.078 -0.2190  1.0089  0.1517
  640MOL0     H86395  10.746   4.024   8.253 -2.4984 -0.7672 -1.1620
  640MOL0     H86396  10.910   4.197   8.300 -1.8553  2.1232 -0.0352
  640MOL0     H86397  10.918   4.220   8.115 -4.6139  0.6973  0.8235
  640MOL0     H86398  11.141   3.876   8.156 -2.5753 -0.1151 -0.7942
  640MOL0     H86399  10.504   4.006   8.602  0.1468  1.9778 -0.3039
  640MOL0     H86400  10.317   3.843   8.694  4.6054  2.0399  1.1625
  641MOL0     O86401   0.476   9.931  10.825  0.1175  0.3271 -0.1491
  641MOL0     C86402   0.577   9.867  10.845 -0.4003  0.3258  0.1374
  641MOL0     O86403   0.704   9.905  10.815  0.1158  0.3201  0.3244
  641MOL0     C86404   0.744  10.036  10.804 -0.3432 -0.0986  1.3540
  641MOL0     C86405   0.709  10.140  10.889 -0.6325  0.4796  0.2831
  641MOL0     C86406   0.774  10.274  10.874 -0.5681  0.6450  0.5646
  641MOL0     C86407   0.882  10.287  10.788 -0.5781  0.9121 -0.4709
  641MOL0     O86408   0.942  10.407  10.791 -0.0684 -0.9046 -0.4153
  641MOL0     C86409   1.018  10.447  10.675 -0.0039 -0.1907 -0.4959
  641MOL0     C86410   1.051  10.593  10.702 -0.4719  0.3220  0.7070
  641MOL0     C86411   1.158  10.639  10.600 -0.1778 -0.4445  0.1302
  641MOL0     C86412   1.203  10.792  10.622  0.3415 -0.3435 -0.1995
  641MOL0     C86413   1.341  10.811  10.559 -0.2904 -0.2155  0.3409
  641MOL0     C86414   1.337  10.803  10.403  0.8294  0.2332 -0.3667
  641MOL0     C86415   1.474  10.807  10.330 -0.5114  0.6043  0.1478
  641MOL0     C86416   1.446  10.755  10.192  0.0897  0.9951 -0.5529
  641MOL0     N86417   1.568  10.720  10.105 -0.5482  0.4887  0.4773
  641MOL0     C86418   1.680  10.664  10.161 -0.0315  0.3748 -0.2329
  641MOL0     C86419   1.772  10.681  10.068 -0.1607  1.2741  0.0909
  641MOL0     C86420   1.919  10.640  10.081  0.0929  0.0917 -0.0593
  641MOL0     C86421   2.020  10.748  10.118  0.0697 -0.5258 -0.0346
  641MOL0     C86422   2.030  10.760  10.268 -0.2605  0.6494 -0.1009
  641MOL0     C86423   2.088  10.892  10.307 -0.2981 -0.0003 -0.4491
  641MOL0     O86424   2.225  10.900  10.260  0.7355 -0.1059  0.0723
  641MOL0     C86425   2.318  10.827  10.327  0.1861 -0.3452 -0.3926
  641MOL0     C86426   2.396  10.753  10.250 -0.1892  0.9965 -0.0042
  641MOL0     C86427   2.489  10.663  10.305  0.6773 -0.1668 -0.1716
  641MOL0     C86428   2.558  10.575  10.206  0.5157 -0.4825 -0.2334
  641MOL0     C86429   2.520  10.670  10.440 -0.1968  0.4102  0.2606
  641MOL0     C86430   2.618  10.589  10.523  0.7107  0.5055  0.0567
  641MOL0     O86431   2.577  10.560  10.650 -0.0733 -0.6070 -0.2500
  641MOL0     C86432   2.654  10.481  10.730  0.2874 -0.6734 -0.4663
  641MOL0     C86433   2.578  10.401  10.813  0.6778  0.2392 -0.7617
  641MOL0     C86434   2.639  10.319  10.910  0.7555  0.1599 -0.4132
  641MOL0     C86435   2.786  10.311  10.906  0.0883  0.5113 -0.0474
  641MOL0     O86436   2.844  10.222  10.994  0.4059 -0.1461  0.7385
  641MOL0     C86437   2.775  10.153  11.103 -0.3879 -0.1269  0.4255
  641MOL0     C86438   2.880  10.058  11.158  0.0389 -0.1623 -0.4193
  641MOL0     C86439   2.995  10.138  11.216  0.6009  0.1138  0.1803
  641MOL0     C86440   3.115  10.070  11.296  0.1199 -0.9320 -0.6103
  641MOL0     C86441   3.068   9.963  11.404  0.4386 -0.0296  1.0598
  641MOL0     C86442   2.957  10.015  11.500  0.4204  0.8839  0.8040
  641MOL0     C86443   2.979   9.957  11.643 -0.1609  0.3966  0.8588
  641MOL0     C86444   2.875  10.025  11.732  0.1707 -0.5298 -0.4984
  641MOL0    Cl86445   2.886   9.947  11.888  0.2727  0.1431  0.6620
  641MOL0     C86446   2.861  10.376  10.809 -0.1731  0.6014  0.7322
  641MOL0     C86447   2.796  10.468  10.729  0.0062  0.0397  0.4004
  641MOL0     O86448   2.708  10.543  10.464  1.2658 -0.8461  0.4170
  641MOL0     C86449   2.449  10.759  10.523 -0.0526 -0.2486  0.1923
  641MOL0     C86450   2.343  10.833  10.471 -0.5290  0.1099  0.2323
  641MOL0     N86451   1.720  10.739   9.958  0.1517  0.0638 -0.0721
  641MOL0     N86452   1.599  10.766   9.980  0.7129  0.5711  0.1507
  641MOL0     C86453   0.917  10.183  10.706  0.1832  0.9199  0.0431
  641MOL0     C86454   0.846  10.063  10.711 -0.5211  1.1324  0.2006
  641MOL0     C86455   0.563   9.733  10.912  0.9162  1.2286 -0.0679
  641MOL0     C86456   0.668   9.632  10.909 -0.9132 -0.1473 -0.1600
  641MOL0     C86457   0.646   9.505  10.962 -0.9400 -0.5516  0.2973
  641MOL0     C86458   0.533   9.462  11.021  0.4153 -0.7976 -0.3989
  641MOL0     O86459   0.512   9.341  11.080 -0.7528 -0.9950  0.9419
  641MOL0     C86460   0.623   9.250  11.099 -0.7454 -0.7064  0.2665
  641MOL0     C86461   0.610   9.153  10.984  0.4245 -0.4780 -0.0497
  641MOL0     C86462   0.475   9.083  10.966  0.0075  0.5600 -0.3653
  641MOL0     C86463   0.469   8.953  11.058 -0.1834 -0.5360  1.3524
  641MOL0     C86464   0.536   8.949  11.193 -0.6710 -1.1784  1.6332
  641MOL0     C86465   0.603   8.967  11.287 -0.0343 -1.1756 -0.0092
  641MOL0     C86466   0.423   9.549  11.018 -0.0509  0.3928 -0.4062
  641MOL0     C86467   0.437   9.683  10.967 -0.1102 -0.3004 -0.3915
  641MOL0     H86468   0.647  10.107  10.972 -1.0077 -2.5315 -1.0782
  641MOL0     H86469   0.733  10.349  10.941  0.5187  1.0725  0.7641
  641MOL0     H86470   1.104  10.384  10.650 -0.6669 -0.2856 -2.7768
  641MOL0     H86471   0.950  10.446  10.589 -2.4014 -2.2184  1.2571
  641MOL0     H86472   0.964  10.654  10.675 -1.4088 -1.5085 -0.7389
  641MOL0     H86473   1.081  10.602  10.806  4.7373 -0.4951 -0.4401
  641MOL0     H86474   1.248  10.577  10.609  0.7616  1.1453  3.3120
  641MOL0     H86475   1.110  10.628  10.502 -0.2447 -0.0662  0.1193
  641MOL0     H86476   1.128  10.850  10.568  0.6044 -0.9385 -1.2439
  641MOL0     H86477   1.201  10.816  10.728 -0.9549 -3.7078  0.6669
  641MOL0     H86478   1.392  10.905  10.579 -1.6346  1.1726 -2.2465
  641MOL0     H86479   1.403  10.734  10.607 -1.1216 -0.7383  0.6133
  641MOL0     H86480   1.289  10.707  10.380  1.4992 -0.0114 -0.7735
  641MOL0     H86481   1.262  10.878  10.375 -2.3249 -2.2073  0.8877
  641MOL0     H86482   1.511  10.910  10.322 -0.2814  0.6669  1.6519
  641MOL0     H86483   1.556  10.760  10.385 -1.1307  0.4435  0.9585
  641MOL0     H86484   1.393  10.831  10.135 -1.4274 -0.0480 -0.5770
  641MOL0     H86485   1.385  10.664  10.194 -0.2697  1.2462  1.5879
  641MOL0     H86486   1.694  10.621  10.260 -1.9475 -2.2750 -1.0025
  641MOL0     H86487   1.917  10.552  10.145 -1.1277 -1.4347 -2.0775
  641MOL0     H86488   1.959  10.600   9.988 -0.1579 -0.3893  0.0402
  641MOL0     H86489   1.998  10.842  10.067  3.2414 -0.3569 -1.3456
  641MOL0     H86490   2.120  10.721  10.082 -0.5405 -1.0505 -1.4515
  641MOL0     H86491   2.095  10.676  10.296 -2.2175 -0.3790  1.6813
  641MOL0     H86492   1.933  10.751  10.318  0.6973  0.5496  1.8377
  641MOL0     H86493   2.081  10.911  10.414 -1.8125 -0.3775 -0.4482
  641MOL0     H86494   2.016  10.963  10.265 -1.1339  1.3801  3.0076
  641MOL0     H86495   2.376  10.759  10.143  1.5226 -0.6135 -0.4793
  641MOL0     H86496   2.660  10.616  10.201  0.1362  0.5185  0.0743
  641MOL0     H86497   2.555  10.478  10.255 -0.1467  1.4877  4.1234
  641MOL0     H86498   2.523  10.583  10.103 -1.2170 -0.0390  0.3596
  641MOL0     H86499   2.473  10.424  10.804  0.3124 -0.7965  0.5886
  641MOL0     H86500   2.586  10.272  10.992  2.6126 -1.4307 -0.0529
  641MOL0     H86501   2.744  10.228  11.176  2.6730  0.7049  1.0010
  641MOL0     H86502   2.692  10.089  11.072  1.4617 -1.3316 -2.5339
  641MOL0     H86503   2.838   9.998  11.239  1.8426 -1.9043 -0.6875
  641MOL0     H86504   2.915   9.989  11.081 -0.5571  1.7547 -2.5069
  641MOL0     H86505   2.949  10.204  11.290 -1.6705 -1.0999 -0.0413
  641MOL0     H86506   3.031  10.217  11.150 -1.8028  2.5996  1.6352
  641MOL0     H86507   3.182  10.012  11.231  0.3283 -0.7188 -0.5845
  641MOL0     H86508   3.171  10.149  11.345  1.5548 -1.6496 -1.0268
  641MOL0     H86509   3.157   9.930  11.458  2.1747  0.7637 -1.1324
  641MOL0     H86510   3.034   9.879  11.342 -0.7011  1.1869 -0.0153
  641MOL0     H86511   2.956  10.125  11.501 -3.6975  0.9918  2.1942
  641MOL0     H86512   2.862   9.978  11.462  1.2088 -0.3844 -0.0032
  641MOL0     H86513   3.084   9.969  11.674  0.4874 -2.4533  0.1586
  641MOL0     H86514   2.957   9.850  11.634 -2.8824  1.0924 -3.7871
  641MOL0     H86515   2.775  10.013  11.690  0.0827 -0.3381 -0.3442
  641MOL0     H86516   2.901  10.130  11.749  0.4898 -0.1561 -2.9222
  641MOL0     H86517   2.966  10.347  10.807  0.0231  1.1869  1.5158
  641MOL0     H86518   2.851  10.527  10.657  0.7107  0.9123  1.6186
  641MOL0     H86519   2.457  10.761  10.631 -3.4929  1.2858  0.5322
  641MOL0     H86520   2.287  10.889  10.545  4.1716  1.9159  2.9080
  641MOL0     H86521   1.009  10.188  10.649  0.7950 -1.8886  0.6169
  641MOL0     H86522   0.879   9.977  10.653 -0.3515 -0.0013  1.9001
  641MOL0     H86523   0.760   9.640  10.852 -1.8327  1.8482 -1.4903
  641MOL0     H86524   0.720   9.429  10.941 -1.6003 -1.2190  0.3406
  641MOL0     H86525   0.723   9.294  11.099 -1.5198  1.1873  1.3818
  641MOL0     H86526   0.611   9.212  11.201  0.1996 -1.7745  0.0049
  641MOL0     H86527   0.685   9.076  11.005  0.8451 -0.0003  0.2099
  641MOL0     H86528   0.635   9.220  10.901  2.9704  1.2080  1.9505
  641MOL0     H86529   0.461   9.055  10.861 -1.2303 -0.2328 -0.0191
  641MOL0     H86530   0.399   9.159  10.986  0.5622  1.7321 -2.4878
  641MOL0     H86531   0.532   8.889  10.995  2.5610  2.5833  0.6652
  641MOL0     H86532   0.366   8.918  11.069 -0.7510  0.7789  0.4150
  641MOL0     H86533   0.665   8.985  11.373 -1.6503 -2.4661  1.5047
  641MOL0     H86534   0.331   9.520  11.067  0.3693  0.9547  0.7483
  641MOL0     H86535   0.348   9.744  10.979  0.5605  0.5598  0.3641
  642MOL0     O86536  11.251   1.529   9.855  0.0312 -0.7499 -0.2981
  642MOL0     C86537  11.331   1.547   9.945 -0.5664 -0.4991  0.3258
  642MOL0     O86538  11.307   1.592  10.079  0.4406 -0.5566 -0.5387
  642MOL0     C86539  11.185   1.582  10.148 -1.0494 -0.1711  0.2398
  642MOL0     C86540  11.091   1.682  10.142  0.2664  0.8475 -0.0603
  642MOL0     C86541  10.965   1.670  10.206 -0.6183 -0.6016  0.7639
  642MOL0     C86542  10.931   1.545  10.267 -0.2875  0.7558  0.1545
  642MOL0     O86543  10.812   1.521  10.333  0.3314 -0.1040  0.0286
  642MOL0     C86544  10.710   1.618  10.357  0.9205 -0.2322  0.2904
  642MOL0     C86545  10.587   1.574  10.442  0.0909 -0.9711 -0.2860
  642MOL0     C86546  10.478   1.680  10.408 -0.0094  0.2078  0.4640
  642MOL0     C86547  10.352   1.653  10.490  0.0745 -1.0357 -0.1713
  642MOL0     C86548  10.224   1.709  10.431  0.0302 -0.7588 -0.2793
  642MOL0     C86549  10.109   1.683  10.532 -0.8684  0.2605  0.3475
  642MOL0     C86550   9.974   1.701  10.450 -0.2038  0.3096 -0.2806
  642MOL0     C86551   9.847   1.693  10.540  0.4748 -0.5769  0.4022
  642MOL0     N86552   9.855   1.721  10.685  0.1828  0.8877  0.2641
  642MOL0     C86553   9.892   1.838  10.745  0.5027 -0.4579 -0.0517
  642MOL0     C86554   9.881   1.812  10.877 -0.1443 -0.5431 -0.3652
  642MOL0     C86555   9.916   1.900  10.997 -0.0736 -0.0615 -0.4425
  642MOL0     C86556   9.879   1.845  11.131 -0.2941 -0.2911  0.2620
  642MOL0     C86557   9.929   1.928  11.252  0.7771 -1.5328  0.1997
  642MOL0     C86558  10.039   1.852  11.328  0.1108 -0.1125  0.5881
  642MOL0     O86559  10.065   1.915  11.450  0.4821  0.4724 -0.3879
  642MOL0     C86560  10.165   1.865  11.526 -0.1528  0.1725 -0.8068
  642MOL0     C86561  10.228   1.749  11.504  0.7831 -0.2706 -0.1004
  642MOL0     C86562  10.336   1.704  11.579  0.0976 -0.4305 -0.1980
  642MOL0     C86563  10.397   1.576  11.526 -0.4016  0.0636  0.2539
  642MOL0     C86564  10.376   1.773  11.695  0.8290  0.1233 -0.1364
  642MOL0     C86565  10.501   1.742  11.776  1.1764 -0.3808  0.1496
  642MOL0     O86566  10.527   1.834  11.880 -0.7276 -0.6171 -0.3800
  642MOL0     C86567  10.635   1.815  11.956 -0.6924 -0.6735 -0.5836
  642MOL0     C86568  10.763   1.849  11.914 -0.2047  0.4771 -0.0940
  642MOL0     C86569  10.871   1.826  11.998  0.0930  0.0480 -0.1279
  642MOL0     C86570  10.852   1.762  12.121  0.5879  0.4529 -0.1289
  642MOL0     O86571  10.973   1.740  12.182  0.6403 -0.8084 -0.1735
  642MOL0     C86572  10.975   1.626  12.265 -0.6597  0.0526 -0.3403
  642MOL0     C86573  11.104   1.629  12.342  0.2333 -0.2239  0.5759
  642MOL0     C86574  11.117   1.494  12.417 -0.3943  0.2815 -0.2632
  642MOL0     C86575  11.163   1.376  12.329  0.5217  0.3457 -0.2106
  642MOL0     C86576  11.201   1.249  12.407 -0.1709  0.2076  0.4108
  642MOL0     C86577  11.079   1.161  12.448  0.2405  0.0741 -0.3375
  642MOL0     C86578  11.112   1.036  12.524 -0.0642 -0.3607  0.5215
  642MOL0     C86579  10.971   0.994  12.574 -0.3572 -0.7305 -0.5610
  642MOL0    Cl86580  10.950   1.060  12.736  0.0952 -0.2289 -0.4896
  642MOL0     C86581  10.724   1.713  12.158 -0.4817  0.5827  0.0768
  642MOL0     C86582  10.616   1.741  12.074  0.3711  0.4566 -0.4610
  642MOL0     O86583  10.562   1.640  11.759  0.3132 -0.4735  0.4494
  642MOL0     C86584  10.302   1.893  11.730  0.2732 -0.4845 -0.1591
  642MOL0     C86585  10.204   1.941  11.646  0.0207  0.9958  0.0651
  642MOL0     N86586   9.825   1.685  10.893 -0.0020  0.3542  0.0757
  642MOL0     N86587   9.810   1.638  10.781  0.5710  0.9154 -0.5373
  642MOL0     C86588  11.033   1.443  10.271  0.5733 -0.1392  0.0358
  642MOL0     C86589  11.156   1.464  10.215  0.5695  0.2526  0.0896
  642MOL0     C86590  11.480   1.541   9.910 -0.1816  0.1420 -0.2736
  642MOL0     C86591  11.524   1.490   9.785  0.0878 -0.4886  0.0790
  642MOL0     C86592  11.662   1.476   9.770  0.3481 -0.3878  0.2433
  642MOL0     C86593  11.758   1.512   9.862 -0.5579 -0.0178  0.4681
  642MOL0     O86594  11.885   1.479   9.853 -0.1908 -0.1852 -0.1899
  642MOL0     C86595  11.971   1.527   9.742  0.6215  0.2063  0.9564
  642MOL0     C86596  12.060   1.637   9.800  0.6410 -0.5907  0.1684
  642MOL0     C86597  12.144   1.592   9.926  0.1022  0.9267  0.0578
  642MOL0     C86598  12.173   1.710  10.020  0.3988  0.9566 -0.3195
  642MOL0     C86599  12.258   1.805   9.948 -0.7049 -0.0513 -0.3864
  642MOL0     C86600  12.344   1.871   9.889  0.7713 -0.0297 -0.5413
  642MOL0     C86601  11.716   1.564   9.985  0.7756  0.0265  0.0558
  642MOL0     C86602  11.574   1.573  10.010 -0.5059 -0.2272 -1.4375
  642MOL0     H86603  11.124   1.777  10.103 -0.3579  2.1087  2.2931
  642MOL0     H86604  10.897   1.753  10.190  0.6210 -0.1510 -3.5606
  642MOL0     H86605  10.753   1.708  10.400  0.1432 -0.0468  0.6974
  642MOL0     H86606  10.662   1.655  10.266  0.7393  0.2600  0.5847
  642MOL0     H86607  10.556   1.480  10.397 -1.1335 -0.6165 -0.2363
  642MOL0     H86608  10.607   1.572  10.550 -0.9249  2.7166  0.1050
  642MOL0     H86609  10.510   1.782  10.433 -1.5836  0.9972 -0.6123
  642MOL0     H86610  10.456   1.664  10.302 -0.8013 -0.3333  0.7030
  642MOL0     H86611  10.352   1.544  10.496  0.9806 -1.1331 -1.5646
  642MOL0     H86612  10.357   1.698  10.590 -3.9651 -2.7607  1.0164
  642MOL0     H86613  10.223   1.817  10.412  2.4431 -0.5408  0.5503
  642MOL0     H86614  10.216   1.645  10.342 -0.5639 -1.9077  0.5774
  642MOL0     H86615  10.106   1.579  10.567  1.4651 -0.1859 -0.5988
  642MOL0     H86616  10.118   1.753  10.615 -0.5494  2.3764 -1.3898
  642MOL0     H86617   9.982   1.799  10.403  2.9863  0.2739 -0.0483
  642MOL0     H86618   9.956   1.627  10.371 -1.3125  0.1733  0.0858
  642MOL0     H86619   9.796   1.596  10.531  0.6729 -0.6077 -0.5174
  642MOL0     H86620   9.766   1.757  10.504 -0.6617 -1.3461  1.4793
  642MOL0     H86621   9.903   1.933  10.693 -0.8196  0.0276  0.4962
  642MOL0     H86622  10.024   1.919  10.995 -0.3113  1.4306 -1.3022
  642MOL0     H86623   9.869   1.997  10.976 -1.8502 -0.6688  0.5473
  642MOL0     H86624   9.916   1.742  11.137 -2.0943 -0.9013  2.0784
  642MOL0     H86625   9.770   1.831  11.132 -0.1899 -1.4890 -1.1338
  642MOL0     H86626   9.853   1.922  11.330  1.8117 -2.0859  1.1957
  642MOL0     H86627   9.969   2.028  11.236  0.1562 -1.6348 -2.3447
  642MOL0     H86628  10.120   1.867  11.256 -0.5988  0.7140 -0.0593
  642MOL0     H86629  10.014   1.747  11.343 -3.2535  0.3999 -0.6599
  642MOL0     H86630  10.193   1.688  11.422 -0.8283  0.3149  0.1141
  642MOL0     H86631  10.370   1.488  11.585 -0.4457 -1.8678 -2.4604
  642MOL0     H86632  10.372   1.542  11.425  0.5026 -1.4851  0.5191
  642MOL0     H86633  10.506   1.573  11.527 -0.3882  0.5281  0.4254
  642MOL0     H86634  10.768   1.898  11.818  2.5672  1.0684  0.2518
  642MOL0     H86635  10.974   1.857  11.985  0.6677 -0.7114  2.1415
  642MOL0     H86636  10.897   1.637  12.341  0.9423  0.8976  1.2350
  642MOL0     H86637  10.973   1.538  12.200  0.2940  0.0112 -0.3175
  642MOL0     H86638  11.184   1.638  12.267  0.2734  3.1125  0.9054
  642MOL0     H86639  11.110   1.706  12.418 -2.4215 -0.5776  1.2448
  642MOL0     H86640  11.033   1.477  12.485 -1.7541  0.6241 -1.8020
  642MOL0     H86641  11.206   1.511  12.480  3.0692 -1.9774 -4.0703
  642MOL0     H86642  11.090   1.352  12.251  2.9430 -0.8467 -2.2888
  642MOL0     H86643  11.254   1.414  12.282  1.8930  2.9658  4.0781
  642MOL0     H86644  11.271   1.275  12.488  0.0807  0.4470  0.1203
  642MOL0     H86645  11.272   1.183  12.356 -0.1177  0.0204  0.7217
  642MOL0     H86646  11.024   1.231  12.513  0.9958 -0.4171  0.8696
  642MOL0     H86647  11.024   1.138  12.357 -0.0973 -0.4798  0.0003
  642MOL0     H86648  11.178   1.048  12.610 -1.3534  3.5762  1.1649
  642MOL0     H86649  11.148   0.962  12.453 -0.5453 -0.8832  0.8055
  642MOL0     H86650  10.951   0.886  12.574 -5.1736 -0.0584  0.1046
  642MOL0     H86651  10.893   1.033  12.508 -1.4237  0.3277  1.2526
  642MOL0     H86652  10.710   1.640  12.237  1.7265 -0.0236 -0.0320
  642MOL0     H86653  10.514   1.728  12.106  0.5373  2.6891  1.2489
  642MOL0     H86654  10.327   1.957  11.814  1.5647 -1.5883  0.3478
  642MOL0     H86655  10.152   2.033  11.669 -0.2647  0.2680  2.6621
  642MOL0     H86656  11.013   1.343  10.309  2.0932 -1.0794 -1.4777
  642MOL0     H86657  11.212   1.372  10.201 -2.0009 -1.6429  1.4352
  642MOL0     H86658  11.446   1.456   9.718  0.5943 -1.7390  0.0955
  642MOL0     H86659  11.697   1.416   9.687 -2.4496 -1.6393 -0.1668
  642MOL0     H86660  12.031   1.441   9.712 -0.1545 -0.5404  1.4863
  642MOL0     H86661  11.912   1.558   9.655 -0.3398 -1.6585  0.8894
  642MOL0     H86662  11.989   1.712   9.837  2.0031 -1.1750  4.4072
  642MOL0     H86663  12.119   1.693   9.726 -1.2900 -0.3533 -1.2704
  642MOL0     H86664  12.231   1.545   9.879  1.0212  2.1720  0.4649
  642MOL0     H86665  12.093   1.516   9.985  1.3970  3.0208  4.2272
  642MOL0     H86666  12.222   1.673  10.110 -1.8159  1.5378  1.2147
  642MOL0     H86667  12.077   1.749  10.056  0.2885  1.6872 -1.3559
  642MOL0     H86668  12.421   1.940   9.859  1.1843  1.0104  2.4940
  642MOL0     H86669  11.781   1.606  10.061 -0.6472  0.5593  1.0228
  642MOL0     H86670  11.552   1.603  10.112  2.2303 -0.7387 -0.6144
  643MOL0     O86671   6.517   0.242   2.473  0.0577 -0.6555  0.2519
  643MOL0     C86672   6.639   0.264   2.444  0.4866  0.6048 -0.7702
  643MOL0     O86673   6.751   0.183   2.480  0.3945 -0.8580 -0.3984
  643MOL0     C86674   6.718   0.078   2.560 -0.0746 -0.1205 -0.1167
  643MOL0     C86675   6.694   0.072   2.693  0.2606 -0.1640  0.0685
  643MOL0     C86676   6.665  -0.047   2.759 -0.6742 -0.3430  0.4316
  643MOL0     C86677   6.659  -0.165   2.689 -0.3714 -0.8639  1.1115
  643MOL0     O86678   6.630  -0.278   2.755  0.3305 -0.2561 -0.4118
  643MOL0     C86679   6.489  -0.311   2.776 -0.3581  0.5773 -1.4204
  643MOL0     C86680   6.433  -0.389   2.654 -0.4305 -0.5716  0.1140
  643MOL0     C86681   6.296  -0.455   2.675  0.3920 -0.7642 -0.6798
  643MOL0     C86682   6.294  -0.599   2.628  0.2453  0.3491  0.2464
  643MOL0     C86683   6.156  -0.660   2.605  0.6385  0.4117  0.3079
  643MOL0     C86684   6.079  -0.681   2.738  0.0094  0.5793  0.8910
  643MOL0     C86685   5.940  -0.738   2.710 -0.1099  1.1065 -0.3558
  643MOL0     C86686   5.870  -0.781   2.833  0.6385  0.9996  0.0308
  643MOL0     N86687   5.762  -0.890   2.821  0.0699 -1.0825  0.4950
  643MOL0     C86688   5.639  -0.867   2.875 -0.4234  1.4224  0.3136
  643MOL0     C86689   5.569  -0.979   2.834 -0.3315 -0.2726  1.2443
  643MOL0     C86690   5.425  -1.011   2.872 -0.8043  0.2265  0.5875
  643MOL0     C86691   5.311  -1.013   2.765  0.1933  0.6788  0.5122
  643MOL0     C86692   5.356  -0.909   2.664 -0.3709 -0.5049  0.6010
  643MOL0     C86693   5.250  -0.881   2.559 -0.2297  1.0139 -0.7990
  643MOL0     O86694   5.282  -0.783   2.461 -0.5519  0.3218  0.1742
  643MOL0     C86695   5.336  -0.843   2.349 -0.1162  0.5392  0.2369
  643MOL0     C86696   5.262  -0.855   2.225 -0.3729  0.1563  0.4402
  643MOL0     C86697   5.306  -0.928   2.112  0.2486 -0.0186 -1.2397
  643MOL0     C86698   5.219  -0.938   1.998  1.0848 -0.3654  0.8584
  643MOL0     C86699   5.428  -0.995   2.128  0.1915  0.3380  0.9776
  643MOL0     C86700   5.481  -1.093   2.027 -0.7786 -0.2262 -0.1968
  643MOL0     O86701   5.389  -1.167   1.977 -0.0447 -0.4099  0.0300
  643MOL0     C86702   5.418  -1.206   1.847 -0.1178 -1.0859  0.1611
  643MOL0     C86703   5.514  -1.146   1.760 -0.6898  0.2992 -0.0975
  643MOL0     C86704   5.531  -1.202   1.630 -0.2282 -0.4657 -0.4535
  643MOL0     C86705   5.460  -1.316   1.588  0.7251  0.3978  0.2542
  643MOL0     O86706   5.498  -1.385   1.480  0.1935  0.1010  0.1413
  643MOL0     C86707   5.410  -1.486   1.427  0.0685  0.4971 -0.8587
  643MOL0     C86708   5.438  -1.516   1.277 -0.8679  0.2444  0.5851
  643MOL0     C86709   5.576  -1.576   1.260  0.2594 -0.0935 -0.1842
  643MOL0     C86710   5.597  -1.621   1.121  0.1910 -0.0620  1.5400
  643MOL0     C86711   5.734  -1.687   1.097  0.3043  0.3970 -0.8842
  643MOL0     C86712   5.781  -1.688   0.950 -0.0585 -0.0079  0.1116
  643MOL0     C86713   5.931  -1.731   0.930  0.1030  0.1930 -0.4448
  643MOL0     C86714   5.986  -1.728   0.781 -0.3712  0.2180 -0.6090
  643MOL0    Cl86715   6.143  -1.813   0.771 -0.1635  0.1732  0.0837
  643MOL0     C86716   5.358  -1.366   1.675  0.2171  0.5068 -0.8292
  643MOL0     C86717   5.336  -1.307   1.803 -0.3206  0.8323  0.4113
  643MOL0     O86718   5.601  -1.109   2.014  0.8199 -0.4292 -0.3204
  643MOL0     C86719   5.511  -0.972   2.238 -0.3728 -0.2000 -0.3750
  643MOL0     C86720   5.471  -0.887   2.340 -0.0987 -0.0222 -0.4651
  643MOL0     N86721   5.660  -1.058   2.760  0.5215  0.7150  0.2410
  643MOL0     N86722   5.768  -1.002   2.746 -0.0355  0.2592 -0.4106
  643MOL0     C86723   6.673  -0.163   2.548  0.2334 -0.4267  0.0114
  643MOL0     C86724   6.706  -0.043   2.486 -0.3170  0.0718 -0.2547
  643MOL0     C86725   6.666   0.390   2.359  0.5309 -0.4188 -0.7773
  643MOL0     C86726   6.781   0.387   2.277  0.8577 -0.3521  0.6182
  643MOL0     C86727   6.805   0.504   2.206  0.6632  0.5565  0.5190
  643MOL0     C86728   6.707   0.601   2.192  0.2067 -0.5214  0.2718
  643MOL0     O86729   6.717   0.697   2.095 -0.0231 -0.0353 -0.2141
  643MOL0     C86730   6.606   0.742   2.017  0.9399  0.7637  0.2566
  643MOL0     C86731   6.654   0.782   1.882  0.3405 -0.0535  0.6252
  643MOL0     C86732   6.735   0.670   1.822 -0.3714 -0.1633 -0.2173
  643MOL0     C86733   6.821   0.732   1.705 -0.6360  0.5200  0.2951
  643MOL0     C86734   6.933   0.802   1.759 -0.1467 -0.4021 -0.1582
  643MOL0     C86735   7.027   0.872   1.799  0.6851  0.6470 -0.1050
  643MOL0     C86736   6.606   0.609   2.281  0.3440  0.0448 -0.3642
  643MOL0     C86737   6.581   0.499   2.362  0.1710 -0.2240  0.7745
  643MOL0     H86738   6.707   0.169   2.739 -2.5435  0.2878  0.0581
  643MOL0     H86739   6.646  -0.033   2.865 -0.5910 -2.4483  0.7588
  643MOL0     H86740   6.485  -0.372   2.866 -1.9272  2.1287 -0.3653
  643MOL0     H86741   6.431  -0.222   2.800 -0.0546  0.6732 -1.0281
  643MOL0     H86742   6.433  -0.323   2.567 -0.4193  1.1745  1.3955
  643MOL0     H86743   6.504  -0.468   2.627  2.4821  2.5757 -2.2770
  643MOL0     H86744   6.277  -0.455   2.783  2.6206  0.4765 -0.2117
  643MOL0     H86745   6.223  -0.389   2.630 -0.7939 -1.5241  0.0647
  643MOL0     H86746   6.337  -0.600   2.527  2.3918 -2.1544  1.0726
  643MOL0     H86747   6.365  -0.662   2.682  0.3082 -0.2951 -0.5650
  643MOL0     H86748   6.090  -0.621   2.527 -0.1732  0.1669  0.8601
  643MOL0     H86749   6.179  -0.758   2.563  0.2065  1.0114 -1.4054
  643MOL0     H86750   6.139  -0.750   2.798  0.7088  0.8057  0.4555
  643MOL0     H86751   6.070  -0.582   2.784  3.0562  0.5624  1.6747
  643MOL0     H86752   5.894  -0.659   2.649 -2.4506  0.8651  0.9559
  643MOL0     H86753   5.955  -0.836   2.665 -1.0032 -0.2870  2.1961
  643MOL0     H86754   5.808  -0.698   2.869 -0.4822 -1.5920  4.8937
  643MOL0     H86755   5.940  -0.795   2.916  2.2248  1.7086 -1.1307
  643MOL0     H86756   5.615  -0.797   2.955 -0.0582  2.9935 -0.9025
  643MOL0     H86757   5.430  -1.109   2.920 -2.1425 -1.0450 -1.6674
  643MOL0     H86758   5.390  -0.929   2.934 -1.7607  0.6377 -0.4587
  643MOL0     H86759   5.206  -0.999   2.794 -0.4222 -0.6101 -0.9707
  643MOL0     H86760   5.320  -1.103   2.705  4.1844  0.4144  1.2532
  643MOL0     H86761   5.440  -0.940   2.601  0.4362 -0.1357  1.4811
  643MOL0     H86762   5.383  -0.822   2.724 -4.7265 -0.6294  3.1464
  643MOL0     H86763   5.153  -0.861   2.605 -1.0999  1.8833 -2.9063
  643MOL0     H86764   5.235  -0.979   2.514  0.2079 -0.5716  2.2043
  643MOL0     H86765   5.167  -0.803   2.230 -0.7570 -0.6408  2.3488
  643MOL0     H86766   5.182  -0.836   1.980  0.7820 -0.6726 -0.3137
  643MOL0     H86767   5.268  -0.976   1.908  3.4762 -1.2726  2.4358
  643MOL0     H86768   5.133  -1.002   2.019  0.4976  0.3117  0.5619
  643MOL0     H86769   5.566  -1.054   1.786  0.3183  0.0998 -1.3442
  643MOL0     H86770   5.587  -1.151   1.552  0.4628  0.7361  0.7722
  643MOL0     H86771   5.435  -1.574   1.487  1.5687  1.3152 -0.2497
  643MOL0     H86772   5.303  -1.471   1.444  0.5192  0.1206  3.5781
  643MOL0     H86773   5.357  -1.572   1.230 -0.2489  1.0382 -1.5350
  643MOL0     H86774   5.440  -1.416   1.233  1.5131 -0.6490 -1.5886
  643MOL0     H86775   5.589  -1.663   1.326 -2.7299  0.1700  0.8797
  643MOL0     H86776   5.663  -1.514   1.286  2.7422 -3.1519 -0.5558
  643MOL0     H86777   5.521  -1.695   1.091  0.2349 -0.5294  2.5438
  643MOL0     H86778   5.601  -1.532   1.057  3.2111  0.4407  2.2588
  643MOL0     H86779   5.728  -1.789   1.138 -0.1231  0.8108  0.0984
  643MOL0     H86780   5.805  -1.629   1.157 -3.5263 -0.3140  5.1665
  643MOL0     H86781   5.713  -1.753   0.892 -1.7677  0.6340  1.3121
  643MOL0     H86782   5.769  -1.590   0.904 -2.1940  0.2964  1.1867
  643MOL0     H86783   5.934  -1.834   0.966  1.0402  0.0940 -0.7840
  643MOL0     H86784   5.997  -1.669   0.992 -1.1892 -1.2061  2.5139
  643MOL0     H86785   6.011  -1.624   0.756 -1.1379  0.4625 -0.3860
  643MOL0     H86786   5.905  -1.773   0.722 -3.2896 -2.6733  4.7877
  643MOL0     H86787   5.290  -1.447   1.649 -2.3752  2.5736 -0.8476
  643MOL0     H86788   5.257  -1.350   1.864 -0.3506 -1.8892 -1.3657
  643MOL0     H86789   5.609  -1.015   2.253  1.1990  2.3776 -2.3184
  643MOL0     H86790   5.531  -0.860   2.426 -2.4065  0.3071  1.1448
  643MOL0     H86791   6.656  -0.256   2.495 -2.2996  0.3753 -0.7090
  643MOL0     H86792   6.716  -0.050   2.378 -2.3305 -2.9786 -0.3544
  643MOL0     H86793   6.859   0.311   2.276  0.8230 -0.4021 -0.8766
  643MOL0     H86794   6.894   0.506   2.144  1.1610  2.2447  1.2242
  643MOL0     H86795   6.535   0.660   2.003  1.6236  0.4160 -1.2779
  643MOL0     H86796   6.557   0.825   2.070 -1.4354  1.7313 -3.0856
  643MOL0     H86797   6.714   0.873   1.897 -1.1774  0.7319  2.3309
  643MOL0     H86798   6.574   0.815   1.814 -0.4002 -0.7619  1.1363
  643MOL0     H86799   6.670   0.587   1.792  4.2985 -4.2086 -0.5094
  643MOL0     H86800   6.809   0.622   1.886  0.0086  0.7340  0.0232
  643MOL0     H86801   6.760   0.793   1.637 -0.7848 -0.2771 -0.2994
  643MOL0     H86802   6.862   0.644   1.656  0.3193  2.5408 -2.7938
  643MOL0     H86803   7.119   0.926   1.813  0.2830  0.7883  2.4857
  643MOL0     H86804   6.540   0.694   2.294 -0.7091 -0.8221  0.0891
  643MOL0     H86805   6.502   0.502   2.436 -1.6864  0.2382 -1.1273
  644MOL0     O86806   5.522   8.616   0.937  0.3660  0.1373 -0.5705
  644MOL0     C86807   5.487   8.635   1.052  0.0547 -0.5900 -0.1964
  644MOL0     O86808   5.510   8.563   1.165 -0.2734  0.2379 -0.1803
  644MOL0     C86809   5.589   8.449   1.164  0.3056  0.0330  0.6820
  644MOL0     C86810   5.552   8.337   1.249  0.7734  0.7943 -0.1203
  644MOL0     C86811   5.633   8.223   1.253 -0.5175  0.1459 -0.6613
  644MOL0     C86812   5.749   8.210   1.177 -0.1255 -1.4071 -0.0437
  644MOL0     O86813   5.822   8.096   1.182  0.5952 -0.2186  0.2206
  644MOL0     C86814   5.938   8.075   1.105  0.4619 -0.7672  0.8302
  644MOL0     C86815   5.974   7.927   1.095  0.6967  1.0169  0.3192
  644MOL0     C86816   5.993   7.862   1.231  0.0267  0.6137  0.0544
  644MOL0     C86817   6.054   7.724   1.218  0.1633  0.2967  0.5600
  644MOL0     C86818   6.054   7.651   1.347 -0.1972  0.7509  0.2044
  644MOL0     C86819   6.140   7.723   1.458  0.1734  0.3486  0.1244
  644MOL0     C86820   6.169   7.615   1.568  0.9232 -0.0440 -0.1881
  644MOL0     C86821   6.049   7.599   1.673 -0.7248 -0.8818  0.0560
  644MOL0     N86822   5.983   7.726   1.701 -0.3814  0.7558 -0.3417
  644MOL0     C86823   6.036   7.842   1.742 -0.5964  0.0797 -0.6955
  644MOL0     C86824   5.936   7.928   1.751  0.3075  0.5584 -0.5234
  644MOL0     C86825   5.961   8.077   1.754  0.7865  0.4218  0.5680
  644MOL0     C86826   5.845   8.154   1.822  0.9649  0.1485 -0.7326
  644MOL0     C86827   5.809   8.092   1.960 -0.2793 -0.4927 -0.3502
  644MOL0     C86828   5.660   8.117   1.976  0.5838 -0.5949 -0.5858
  644MOL0     O86829   5.609   8.239   1.930 -0.6949 -0.4223 -0.1319
  644MOL0     C86830   5.544   8.321   2.021  0.3139 -0.1965  0.1318
  644MOL0     C86831   5.587   8.367   2.142 -0.3454 -0.3363  0.6707
  644MOL0     C86832   5.514   8.463   2.207  0.5457 -0.1856  1.0289
  644MOL0     C86833   5.556   8.475   2.348  0.1077 -0.3550 -0.2091
  644MOL0     C86834   5.396   8.525   2.152 -0.5057 -0.0549  0.0785
  644MOL0     C86835   5.311   8.630   2.226 -1.0785 -0.0861 -0.1149
  644MOL0     O86836   5.182   8.655   2.184  0.1111  0.0675 -0.2146
  644MOL0     C86837   5.101   8.729   2.267 -0.4350 -0.5204 -0.2638
  644MOL0     C86838   4.974   8.667   2.314 -0.6430 -0.8970 -0.7538
  644MOL0     C86839   4.874   8.734   2.392  0.1833  0.4145 -0.3385
  644MOL0     C86840   4.890   8.874   2.421  0.4565  0.3095 -0.6368
  644MOL0     O86841   4.789   8.935   2.493  0.3063 -0.1246  0.0106
  644MOL0     C86842   4.749   9.066   2.456  0.0266 -0.5471 -0.4442
  644MOL0     C86843   4.598   9.079   2.491  0.4273  0.9924  1.1264
  644MOL0     C86844   4.581   9.085   2.646 -0.3455  0.1558  0.9940
  644MOL0     C86845   4.439   9.162   2.673 -0.0453 -0.2863 -0.0472
  644MOL0     C86846   4.418   9.207   2.811 -0.2103 -0.1769 -0.7772
  644MOL0     C86847   4.477   9.346   2.828 -0.8316 -0.2493 -0.7054
  644MOL0     C86848   4.481   9.384   2.976 -0.3653 -0.2489 -0.3740
  644MOL0     C86849   4.541   9.528   2.997  0.9360 -0.0144 -0.2611
  644MOL0    Cl86850   4.708   9.523   2.916  0.1060  0.1133  0.5503
  644MOL0     C86851   5.002   8.938   2.357 -0.0261 -0.1263 -0.5176
  644MOL0     C86852   5.110   8.870   2.289 -0.1800 -0.2369  0.0503
  644MOL0     O86853   5.366   8.670   2.333 -0.1468 -0.0780  0.3304
  644MOL0     C86854   5.355   8.487   2.021  0.1023 -0.8792 -0.2044
  644MOL0     C86855   5.432   8.387   1.966  0.3414 -0.0554  0.4408
  644MOL0     N86856   5.824   7.867   1.700  0.7202 -0.3650 -0.1232
  644MOL0     N86857   5.856   7.746   1.669  0.1538  0.1710  0.9685
  644MOL0     C86858   5.780   8.313   1.093  0.4573 -0.7232 -0.6262
  644MOL0     C86859   5.706   8.435   1.093 -0.1956 -0.6912  0.1154
  644MOL0     C86860   5.393   8.755   1.071  1.0124 -0.4229 -0.1477
  644MOL0     C86861   5.387   8.851   0.969 -0.1825  0.1875 -0.1370
  644MOL0     C86862   5.290   8.951   0.986  0.7830  0.3530 -0.2140
  644MOL0     C86863   5.203   8.960   1.098  0.0174  0.4457  0.4689
  644MOL0     O86864   5.099   9.051   1.123 -0.0965  0.0534  0.2179
  644MOL0     C86865   5.081   9.143   1.018  0.4790  0.0859  0.6940
  644MOL0     C86866   4.963   9.239   1.050 -0.7231  0.1404  0.8325
  644MOL0     C86867   4.913   9.292   0.913 -0.5487 -0.0678 -0.1868
  644MOL0     C86868   4.790   9.379   0.915 -0.3503 -0.4962 -0.3059
  644MOL0     C86869   4.774   9.449   0.785 -0.4058 -0.0763  0.9619
  644MOL0     C86870   4.776   9.512   0.677  0.1440  0.4054  0.0712
  644MOL0     C86871   5.216   8.870   1.197  0.2163  0.4835  0.0614
  644MOL0     C86872   5.311   8.763   1.186 -0.2058 -0.3716 -0.1889
  644MOL0     H86873   5.457   8.342   1.301 -0.9138 -2.3291 -2.5234
  644MOL0     H86874   5.601   8.146   1.322  1.8898 -0.7563 -0.4375
  644MOL0     H86875   5.906   8.106   1.005 -1.7694 -1.6467  1.1952
  644MOL0     H86876   6.023   8.126   1.151  0.2700 -0.7833  1.2106
  644MOL0     H86877   5.907   7.873   1.028  1.8910  0.6766 -0.6443
  644MOL0     H86878   6.073   7.925   1.048 -0.7662  1.1157 -2.9954
  644MOL0     H86879   6.066   7.916   1.291 -1.1995  0.5731  1.6433
  644MOL0     H86880   5.898   7.861   1.284  0.6808 -0.1011  1.2436
  644MOL0     H86881   5.995   7.672   1.143 -0.0622 -0.0670  0.9829
  644MOL0     H86882   6.156   7.736   1.180  0.4766 -0.9736  0.9278
  644MOL0     H86883   5.953   7.639   1.389  1.3191 -2.2353  3.4687
  644MOL0     H86884   6.084   7.547   1.340 -3.8901 -0.5143  0.7025
  644MOL0     H86885   6.237   7.755   1.418  1.7671 -0.4658  3.0154
  644MOL0     H86886   6.095   7.814   1.498 -0.3603 -1.2473  3.5460
  644MOL0     H86887   6.197   7.514   1.538 -0.5547 -0.7104  0.5831
  644MOL0     H86888   6.253   7.654   1.627 -0.6818  2.1587  0.7902
  644MOL0     H86889   6.094   7.560   1.764  2.1111  0.0110 -0.8498
  644MOL0     H86890   5.972   7.530   1.636 -1.3229  1.3963 -3.5883
  644MOL0     H86891   6.140   7.870   1.758 -0.1807 -0.4682 -2.3055
  644MOL0     H86892   6.052   8.103   1.808  0.8356  1.4686  0.0021
  644MOL0     H86893   5.976   8.116   1.653  0.6715 -2.5082 -0.6933
  644MOL0     H86894   5.762   8.155   1.751  1.5605 -0.5630 -1.4665
  644MOL0     H86895   5.866   8.260   1.837 -0.8671  0.5179 -0.5227
  644MOL0     H86896   5.864   8.147   2.037  1.2622 -0.2449 -1.5834
  644MOL0     H86897   5.827   7.985   1.964  1.9826 -0.1460 -0.4709
  644MOL0     H86898   5.630   8.106   2.081 -0.4393 -2.2080 -1.0213
  644MOL0     H86899   5.608   8.041   1.917  1.0400  0.5211 -2.5126
  644MOL0     H86900   5.680   8.326   2.180  0.3894 -0.1958 -0.8647
  644MOL0     H86901   5.632   8.409   2.391 -1.9022  0.4109  5.4320
  644MOL0     H86902   5.599   8.576   2.346 -0.2147 -0.1657 -3.7356
  644MOL0     H86903   5.476   8.463   2.422 -0.6851  0.2831 -0.9336
  644MOL0     H86904   4.939   8.566   2.293  1.8178 -1.9875  0.0215
  644MOL0     H86905   4.778   8.690   2.416 -2.3039  4.6520 -1.4945
  644MOL0     H86906   4.823   9.136   2.495  1.4795 -2.4690  0.4082
  644MOL0     H86907   4.759   9.075   2.347  2.9414 -0.6076 -0.2486
  644MOL0     H86908   4.558   9.163   2.433  0.9679  0.5397  0.0827
  644MOL0     H86909   4.552   8.989   2.450  2.2443  1.3227 -1.9666
  644MOL0     H86910   4.661   9.142   2.693  0.6762  0.8744 -1.4582
  644MOL0     H86911   4.581   8.984   2.688  1.7549  0.6290  2.2638
  644MOL0     H86912   4.437   9.248   2.605 -0.5731 -1.4660 -1.5869
  644MOL0     H86913   4.351   9.105   2.641 -2.2320  2.3840  0.8466
  644MOL0     H86914   4.470   9.152   2.889  1.1335  2.7846  0.5987
  644MOL0     H86915   4.309   9.210   2.821 -0.3899  0.9611 -2.6174
  644MOL0     H86916   4.577   9.354   2.785  0.3158  0.7799  1.9730
  644MOL0     H86917   4.425   9.433   2.787 -0.6128  0.8607  1.2431
  644MOL0     H86918   4.538   9.311   3.033 -0.0528  1.7582  2.0715
  644MOL0     H86919   4.383   9.377   3.024 -1.1952  0.5505 -1.8828
  644MOL0     H86920   4.554   9.564   3.100  0.0628 -0.6757  0.0841
  644MOL0     H86921   4.466   9.592   2.949 -0.4735  0.4984  2.4388
  644MOL0     H86922   5.018   9.041   2.385  1.8334 -0.8600  1.4240
  644MOL0     H86923   5.181   8.930   2.233 -0.9551  0.8775  0.2244
  644MOL0     H86924   5.264   8.525   1.975  0.1943 -0.0297  0.2911
  644MOL0     H86925   5.399   8.356   1.867 -2.3378  2.3428  0.4709
  644MOL0     H86926   5.862   8.310   1.022  1.2305 -1.0419  0.2557
  644MOL0     H86927   5.738   8.520   1.034 -1.9795  0.2583  0.4463
  644MOL0     H86928   5.459   8.845   0.888  1.0685  0.9651  0.8692
  644MOL0     H86929   5.300   9.032   0.915  0.5537  0.3893 -0.2048
  644MOL0     H86930   5.175   9.192   0.990  0.6831  1.4608  3.4869
  644MOL0     H86931   5.056   9.088   0.927  0.0631  3.4553 -1.3808
  644MOL0     H86932   4.976   9.321   1.121 -3.4868  1.8049 -0.4366
  644MOL0     H86933   4.880   9.173   1.078 -0.8163  0.0990  0.4563
  644MOL0     H86934   4.894   9.212   0.841  0.2765  0.6228 -1.1964
  644MOL0     H86935   4.995   9.349   0.870  1.8387 -1.9668  1.5477
  644MOL0     H86936   4.791   9.456   0.994  3.5424  0.4331 -1.0863
  644MOL0     H86937   4.704   9.312   0.928 -2.0001  1.6167  0.3490
  644MOL0     H86938   4.788   9.578   0.593  1.5219  0.8615  0.5977
  644MOL0     H86939   5.158   8.875   1.289  2.5745  0.5381  1.6198
  644MOL0     H86940   5.322   8.691   1.266  2.5247 -2.0462 -1.9139
  645MOL0     O86941  11.123   4.015   9.180 -0.0370  0.1224  0.1126
  645MOL0     C86942  11.107   3.898   9.144  0.4212  0.3695 -0.3548
  645MOL0     O86943  10.981   3.834   9.155 -0.4326 -0.3915  1.1666
  645MOL0     C86944  10.876   3.888   9.210  1.2849 -0.0451  0.2908
  645MOL0     C86945  10.864   3.967   9.330  0.2045 -0.9667  0.5000
  645MOL0     C86946  10.743   4.004   9.388  0.5073  0.3650  0.1568
  645MOL0     C86947  10.627   3.958   9.326  0.1773  0.3021 -0.2715
  645MOL0     O86948  10.500   3.980   9.373  0.1733  1.4062 -0.4648
  645MOL0     C86949  10.427   4.086   9.306  0.4457 -0.5246  0.7871
  645MOL0     C86950  10.479   4.214   9.372  0.8710 -0.9886  0.8534
  645MOL0     C86951  10.461   4.217   9.522  0.3258 -0.8594  0.2363
  645MOL0     C86952  10.447   4.362   9.566  0.4326 -0.2945  0.1358
  645MOL0     C86953  10.472   4.398   9.712  0.5362 -0.5428 -1.3942
  645MOL0     C86954  10.399   4.531   9.758 -0.3470 -0.1055  0.2204
  645MOL0     C86955  10.477   4.650   9.710 -0.4020  0.6046 -0.0096
  645MOL0     C86956  10.431   4.774   9.782 -0.7292  0.4326 -0.1276
  645MOL0     N86957  10.433   4.771   9.927 -0.2054  0.6255 -0.3665
  645MOL0     C86958  10.544   4.771  10.009 -0.7482  0.4570 -0.1478
  645MOL0     C86959  10.495   4.789  10.133 -0.6287 -0.0635  0.1164
  645MOL0     C86960  10.577   4.834  10.252 -0.1426 -0.1433 -0.3505
  645MOL0     C86961  10.530   4.972  10.290 -0.2330 -0.3303  0.1174
  645MOL0     C86962  10.619   5.000  10.414 -0.0367  0.2954  0.5445
  645MOL0     C86963  10.585   5.133  10.474  0.3186  1.0376  0.3110
  645MOL0     O86964  10.451   5.123  10.534  0.0730  0.9339 -0.1883
  645MOL0     C86965  10.411   5.222  10.619 -0.0039 -0.5358 -0.0884
  645MOL0     C86966  10.390   5.181  10.756  1.3239 -0.1983  0.5006
  645MOL0     C86967  10.356   5.282  10.852 -0.1779 -0.1870 -1.2042
  645MOL0     C86968  10.345   5.234  10.994  0.0897 -0.7626 -0.0126
  645MOL0     C86969  10.328   5.420  10.814 -1.0710  0.8160  0.5480
  645MOL0     C86970  10.272   5.513  10.903 -0.7733  0.1106  0.4463
  645MOL0     O86971  10.218   5.627  10.836  0.2954  0.3392  1.0890
  645MOL0     C86972  10.190   5.748  10.891  0.0812 -0.6055  0.0943
  645MOL0     C86973  10.255   5.795  11.010  0.6515  0.0174  0.9418
  645MOL0     C86974  10.217   5.921  11.052 -1.0540 -0.4472  0.5102
  645MOL0     C86975  10.104   5.986  11.004 -0.4389 -0.2110  0.2532
  645MOL0     O86976  10.055   6.082  11.084  0.1507  0.1537  0.0785
  645MOL0     C86977   9.945   6.150  11.034  0.2947 -1.2576  0.2136
  645MOL0     C86978   9.905   6.259  11.133 -0.4875 -0.8928 -0.4612
  645MOL0     C86979   9.795   6.344  11.082  0.6950  0.5040 -0.3376
  645MOL0     C86980   9.701   6.386  11.200 -0.1412  0.6352  0.6257
  645MOL0     C86981   9.586   6.479  11.146  0.5988 -0.6060 -0.9035
  645MOL0     C86982   9.481   6.498  11.254  0.9403 -0.8772 -0.5218
  645MOL0     C86983   9.391   6.615  11.208  0.6317 -0.2002  0.5374
  645MOL0     C86984   9.278   6.642  11.305 -1.4712 -0.2610 -0.1546
  645MOL0    Cl86985   9.142   6.543  11.288  0.7960  0.4529 -0.6013
  645MOL0     C86986  10.051   5.944  10.876 -1.2125  0.1895  0.0686
  645MOL0     C86987  10.100   5.828  10.816 -0.6538  0.1208 -0.2314
  645MOL0     O86988  10.293   5.502  11.024  0.4076 -0.0784 -0.4524
  645MOL0     C86989  10.352   5.450  10.681  0.0714  0.8257  1.0868
  645MOL0     C86990  10.398   5.353  10.589  0.9512 -1.0002  0.6852
  645MOL0     N86991  10.358   4.794  10.128  0.2190  0.3988 -0.0079
  645MOL0     N86992  10.319   4.798   9.999  0.6560 -0.0303  0.1011
  645MOL0     C86993  10.641   3.868   9.221 -0.2975  0.3329  0.1654
  645MOL0     C86994  10.761   3.843   9.154 -0.2123  0.8111 -0.5242
  645MOL0     C86995  11.221   3.822   9.082 -0.3446 -0.4842  0.8105
  645MOL0     C86996  11.215   3.682   9.042  0.3560 -0.4948 -0.3013
  645MOL0     C86997  11.325   3.614   8.993 -0.6512  0.4781  0.3337
  645MOL0     C86998  11.443   3.689   8.965 -0.5033  0.4919 -0.2763
  645MOL0     O86999  11.551   3.642   8.889 -0.3359  0.5110 -0.4132
  645MOL0     C87000  11.616   3.518   8.929  0.6290 -0.1397 -0.2891
  645MOL0     C87001  11.748   3.511   8.857  0.8820 -0.4321  0.7941
  645MOL0     C87002  11.827   3.394   8.899  0.6002 -0.0789  0.2626
  645MOL0     C87003  11.957   3.358   8.829  1.1971 -0.3253  0.3266
  645MOL0     C87004  12.005   3.231   8.873  0.2091 -0.5333  1.2763
  645MOL0     C87005  12.049   3.123   8.901  0.7895  0.4164 -0.7275
  645MOL0     C87006  11.447   3.829   8.992 -0.2264 -0.6005  0.4513
  645MOL0     C87007  11.341   3.885   9.051  0.9838 -0.6494  0.0112
  645MOL0     H87008  10.951   4.019   9.369  0.9297  1.7994 -4.0731
  645MOL0     H87009  10.745   4.054   9.484 -0.5503  0.2659  0.2388
  645MOL0     H87010  10.453   4.085   9.200  4.7627 -0.8741  1.6616
  645MOL0     H87011  10.320   4.082   9.331 -0.1856  0.0308 -1.5567
  645MOL0     H87012  10.587   4.224   9.354  1.0144 -0.6231  1.8514
  645MOL0     H87013  10.431   4.302   9.328  0.2983 -1.9186 -0.4550
  645MOL0     H87014  10.379   4.168   9.575  0.1355 -0.5688  0.2133
  645MOL0     H87015  10.547   4.169   9.569 -1.3718 -3.7774  0.5979
  645MOL0     H87016  10.509   4.429   9.506 -1.5832 -1.8025 -4.0745
  645MOL0     H87017  10.346   4.386   9.530  0.3170  1.8681  1.7369
  645MOL0     H87018  10.430   4.312   9.764  0.7589  0.7794  1.1543
  645MOL0     H87019  10.577   4.408   9.740  0.4567  0.3625 -1.3711
  645MOL0     H87020  10.306   4.537   9.700  0.8262  2.4435 -1.6011
  645MOL0     H87021  10.374   4.530   9.865  2.2925  2.9406  1.0232
  645MOL0     H87022  10.584   4.638   9.727  0.0077  1.4347 -1.7435
  645MOL0     H87023  10.456   4.658   9.603 -3.2952 -0.6593  0.3556
  645MOL0     H87024  10.328   4.785   9.745 -0.4337 -0.4638 -1.2656
  645MOL0     H87025  10.488   4.854   9.733  2.1477 -1.6789 -0.4820
  645MOL0     H87026  10.647   4.748   9.984 -0.6635  0.3608  0.2807
  645MOL0     H87027  10.561   4.775  10.342  5.0674  0.3583  1.1762
  645MOL0     H87028  10.685   4.835  10.236 -0.3821 -0.0243 -2.2423
  645MOL0     H87029  10.428   4.962  10.328 -0.4848 -1.7213 -0.8444
  645MOL0     H87030  10.552   5.040  10.207  2.9370 -2.7380 -1.2150
  645MOL0     H87031  10.726   5.002  10.391 -0.3938  0.2523 -1.3052
  645MOL0     H87032  10.593   4.923  10.486 -2.4738 -1.1375 -1.6711
  645MOL0     H87033  10.606   5.199  10.389  5.2335  0.2843  0.6253
  645MOL0     H87034  10.662   5.169  10.543 -0.7724  5.2383 -0.3830
  645MOL0     H87035  10.402   5.076  10.782  3.2344 -0.0431  0.3491
  645MOL0     H87036  10.324   5.126  10.995 -0.5326 -0.6616 -0.8228
  645MOL0     H87037  10.441   5.257  11.040  0.1907 -0.3826 -0.4085
  645MOL0     H87038  10.260   5.277  11.048 -0.8389 -0.7725 -1.4086
  645MOL0     H87039  10.327   5.744  11.074  0.2562 -1.9487 -0.1004
  645MOL0     H87040  10.258   5.938  11.151 -2.0611  0.1670  0.8411
  645MOL0     H87041   9.969   6.210  10.946  0.9387 -0.1371  1.1145
  645MOL0     H87042   9.856   6.088  11.022 -1.0601  0.4142  1.1557
  645MOL0     H87043   9.883   6.211  11.229  1.1953 -3.3255 -1.1838
  645MOL0     H87044   9.989   6.327  11.150 -0.1536 -1.9724  2.9664
  645MOL0     H87045   9.735   6.290  11.008 -2.3607 -1.2870  3.0731
  645MOL0     H87046   9.844   6.434  11.044 -2.1048  3.0701  1.6745
  645MOL0     H87047   9.647   6.300  11.241 -3.0381  2.0796  0.0620
  645MOL0     H87048   9.754   6.443  11.277  1.9455 -0.6631  0.2257
  645MOL0     H87049   9.527   6.448  11.059 -0.7230  0.2561 -0.3433
  645MOL0     H87050   9.639   6.572  11.125  0.2645  0.4995  2.5729
  645MOL0     H87051   9.412   6.415  11.271 -0.2406  0.1351 -0.2370
  645MOL0     H87052   9.524   6.520  11.352  3.7484 -0.9399 -1.6580
  645MOL0     H87053   9.340   6.599  11.113 -2.4022  3.6614  1.2423
  645MOL0     H87054   9.456   6.703  11.198  2.3449 -1.3610  0.9543
  645MOL0     H87055   9.255   6.747  11.286  3.4040  0.7211 -2.2104
  645MOL0     H87056   9.317   6.639  11.407  1.9626  0.2300 -1.3080
  645MOL0     H87057   9.966   5.994  10.831 -2.0841 -1.2126  0.1129
  645MOL0     H87058  10.039   5.778  10.741 -3.0849  0.1886  1.5562
  645MOL0     H87059  10.339   5.552  10.647  1.5948  0.1378 -1.8242
  645MOL0     H87060  10.415   5.382  10.486  1.2496 -0.2578  0.9404
  645MOL0     H87061  10.546   3.820   9.199  0.2006 -0.7911  0.3504
  645MOL0     H87062  10.744   3.790   9.060 -0.6205  3.2169 -1.8793
  645MOL0     H87063  11.122   3.628   9.057 -1.4082  2.6304  1.0582
  645MOL0     H87064  11.308   3.508   8.977 -2.7020  0.9234 -0.7096
  645MOL0     H87065  11.640   3.491   9.032 -1.6310 -2.8546 -0.3538
  645MOL0     H87066  11.551   3.436   8.899 -0.0094 -0.5860  2.1027
  645MOL0     H87067  11.805   3.604   8.865  1.3755 -0.2922 -2.8121
  645MOL0     H87068  11.734   3.495   8.750 -2.3010  0.5847  0.9536
  645MOL0     H87069  11.753   3.315   8.882 -3.2266  2.8178  1.8056
  645MOL0     H87070  11.845   3.400   9.006  2.1042  2.4015 -0.0511
  645MOL0     H87071  12.027   3.442   8.839  1.3642 -0.3836 -0.2833
  645MOL0     H87072  11.936   3.362   8.721 -1.5570  0.2204  0.8189
  645MOL0     H87073  12.112   3.038   8.916  2.3864  1.7933  1.0004
  645MOL0     H87074  11.521   3.896   8.949 -0.0246 -0.6842  0.6667
  645MOL0     H87075  11.332   3.993   9.055 -0.8995 -0.3956 -4.8648
  646MOL0     O87076   1.877   1.845  10.764 -0.3860  0.1519  1.1475
  646MOL0     C87077   1.971   1.917  10.791 -0.6714 -0.3068  0.2657
  646MOL0     O87078   2.036   1.921  10.908 -0.0419 -0.4689 -0.4376
  646MOL0     C87079   1.977   1.828  11.004 -0.5887 -0.4010  0.7554
  646MOL0     C87080   1.967   1.688  11.000 -0.8307  0.1760  0.5795
  646MOL0     C87081   1.895   1.608  11.087 -0.1260 -0.4326 -0.3611
  646MOL0     C87082   1.829   1.663  11.190 -0.0733 -0.1273  0.4293
  646MOL0     O87083   1.793   1.571  11.280 -1.2286 -0.5889 -0.0039
  646MOL0     C87084   1.762   1.623  11.413 -0.7276  0.1882 -0.7211
  646MOL0     C87085   1.744   1.495  11.500 -0.3097  0.7907  0.7875
  646MOL0     C87086   1.717   1.532  11.643  0.2427  0.2983  0.7720
  646MOL0     C87087   1.843   1.522  11.725 -1.4322  0.2847 -0.6636
  646MOL0     C87088   1.826   1.554  11.871 -0.0701  0.3887  0.1908
  646MOL0     C87089   1.808   1.700  11.891  0.4027  0.0125  1.2135
  646MOL0     C87090   1.751   1.750  12.021 -0.2177 -0.3359 -1.0203
  646MOL0     C87091   1.776   1.898  12.024  0.3313 -1.0453 -0.3679
  646MOL0     N87092   1.712   1.949  12.147 -0.0595  0.3798  0.0424
  646MOL0     C87093   1.763   1.946  12.277 -0.9278 -0.3642 -0.1795
  646MOL0     C87094   1.697   2.039  12.352  0.9235 -0.0952  0.2007
  646MOL0     C87095   1.735   2.076  12.492  0.0389 -0.3370 -0.4810
  646MOL0     C87096   1.672   1.976  12.586  0.1096  0.4434  0.3771
  646MOL0     C87097   1.518   1.972  12.593  0.0629 -0.3020 -0.4246
  646MOL0     C87098   1.458   1.864  12.692  0.1335  0.5390 -0.8399
  646MOL0     O87099   1.496   1.899  12.828 -0.0280 -0.1107  0.0192
  646MOL0     C87100   1.496   1.812  12.936 -0.0207  0.2939  0.6780
  646MOL0     C87101   1.434   1.689  12.923  0.4405  0.0974 -0.5871
  646MOL0     C87102   1.419   1.603  13.037 -0.1171  0.3035  0.0305
  646MOL0     C87103   1.360   1.468  13.016  0.0127  0.4176 -0.3442
  646MOL0     C87104   1.476   1.650  13.156 -0.1175 -0.4665 -0.6722
  646MOL0     C87105   1.483   1.562  13.273  0.1198 -0.0195 -0.3105
  646MOL0     O87106   1.609   1.550  13.330 -0.3454  0.4097 -0.3307
  646MOL0     C87107   1.627   1.478  13.457 -0.5172 -0.3106  0.8608
  646MOL0     C87108   1.578   1.523  13.574 -0.1311 -0.0859  0.2007
  646MOL0     C87109   1.588   1.433  13.682 -0.7001 -0.2596  0.1690
  646MOL0     C87110   1.665   1.311  13.679  0.2878  0.1348 -0.7776
  646MOL0     O87111   1.657   1.212  13.782 -0.2755 -0.0891  0.7576
  646MOL0     C87112   1.751   1.101  13.776 -0.1371 -0.4294 -0.2715
  646MOL0     C87113   1.744   1.027  13.910  0.0994  0.3402  0.8153
  646MOL0     C87114   1.612   0.952  13.937  1.1376  0.0169  0.0918
  646MOL0     C87115   1.621   0.891  14.079  0.9990 -0.1953 -0.0445
  646MOL0     C87116   1.497   0.808  14.097 -0.7349  0.0888 -0.4722
  646MOL0     C87117   1.494   0.702  14.215  0.7322 -0.2753  0.2209
  646MOL0     C87118   1.497   0.788  14.348 -0.7660  0.4682 -0.2328
  646MOL0     C87119   1.529   0.709  14.472 -0.1898 -0.8010  0.5199
  646MOL0    Cl87120   1.682   0.613  14.461 -0.4292  0.0424  0.3159
  646MOL0     C87121   1.735   1.288  13.561  0.3625  0.1160  0.4475
  646MOL0     C87122   1.722   1.371  13.449  0.0933  0.4207  0.2155
  646MOL0     O87123   1.387   1.504  13.320  0.4056 -0.0163 -0.2226
  646MOL0     C87124   1.527   1.781  13.170 -0.4334  0.3636 -0.1058
  646MOL0     C87125   1.534   1.863  13.057 -1.0221 -0.0935 -1.0232
  646MOL0     N87126   1.603   2.099  12.271 -0.6353  0.0341 -0.1365
  646MOL0     N87127   1.618   2.039  12.154 -0.4229  0.6877 -0.4137
  646MOL0     C87128   1.838   1.803  11.210 -0.2771 -0.6853  0.5139
  646MOL0     C87129   1.916   1.882  11.120  0.1265 -0.9378  1.0528
  646MOL0     C87130   2.027   2.005  10.682 -0.0787  0.1987 -0.5747
  646MOL0     C87131   2.044   1.962  10.553  0.2650  0.8579  0.2317
  646MOL0     C87132   2.099   2.040  10.455 -0.2834  0.3213  0.3252
  646MOL0     C87133   2.147   2.177  10.490 -0.5059 -0.4768  0.4748
  646MOL0     O87134   2.181   2.278  10.402 -0.6475 -0.7748 -1.0490
  646MOL0     C87135   2.201   2.240  10.269 -0.6651 -0.2231  0.6160
  646MOL0     C87136   2.069   2.217  10.199 -0.4958 -0.1973 -0.0624
  646MOL0     C87137   2.083   2.115  10.083 -0.4324  0.2424  0.5242
  646MOL0     C87138   2.178   2.164   9.961 -0.7615  0.0489 -1.4369
  646MOL0     C87139   2.315   2.159   9.988 -0.8123  0.4132  0.4919
  646MOL0     C87140   2.431   2.149  10.021 -0.2363 -0.1344 -0.3315
  646MOL0     C87141   2.142   2.212  10.620  1.9579  0.4487  0.1670
  646MOL0     C87142   2.079   2.129  10.716  0.1687  0.4180 -0.3463
  646MOL0     H87143   2.024   1.629  10.928 -2.2322 -2.1670  1.2727
  646MOL0     H87144   1.883   1.501  11.075 -3.0221 -0.4181  1.3809
  646MOL0     H87145   1.844   1.675  11.463  0.2080 -1.5313 -0.3846
  646MOL0     H87146   1.666   1.676  11.414 -0.4573  0.7466  1.6681
  646MOL0     H87147   1.657   1.434  11.475 -0.6191  1.1838  0.8990
  646MOL0     H87148   1.836   1.437  11.489 -0.0545  1.5467 -1.4549
  646MOL0     H87149   1.678   1.634  11.648  0.9908  0.5445  2.5423
  646MOL0     H87150   1.641   1.466  11.686  1.0759 -0.7722  0.6604
  646MOL0     H87151   1.881   1.419  11.725 -2.7211 -0.2265  0.1217
  646MOL0     H87152   1.928   1.572  11.679  1.3931 -2.0735  1.5618
  646MOL0     H87153   1.744   1.494  11.912  0.6975  1.6665  3.9927
  646MOL0     H87154   1.916   1.516  11.920  0.1664 -1.4685 -1.5736
  646MOL0     H87155   1.911   1.737  11.882  0.4874 -0.2719  0.9919
  646MOL0     H87156   1.753   1.743  11.807  0.8125  0.4441  1.1592
  646MOL0     H87157   1.643   1.733  12.031  0.4111 -4.0591  0.9552
  646MOL0     H87158   1.807   1.697  12.098 -0.2389 -0.0920 -0.8398
  646MOL0     H87159   1.725   1.950  11.941  0.2823  1.2217  0.9836
  646MOL0     H87160   1.880   1.930  12.021  0.2843 -0.5109  1.8681
  646MOL0     H87161   1.837   1.880  12.320 -0.6867 -0.8155 -1.2378
  646MOL0     H87162   1.843   2.065  12.506  0.0505 -1.1141 -1.0956
  646MOL0     H87163   1.707   2.180  12.509 -1.1168 -0.7906  0.5953
  646MOL0     H87164   1.700   2.000  12.688  0.4390 -0.5027  0.5219
  646MOL0     H87165   1.705   1.873  12.569 -0.2891  0.6998 -2.4550
  646MOL0     H87166   1.476   1.940  12.498 -1.3235 -2.2027  0.7537
  646MOL0     H87167   1.475   2.066  12.630  1.1791 -0.5633  1.7360
  646MOL0     H87168   1.504   1.772  12.656 -0.6015 -0.2552  0.1710
  646MOL0     H87169   1.349   1.864  12.677 -0.3691  3.4455  1.7288
  646MOL0     H87170   1.391   1.664  12.826  0.4026 -3.5610  0.2187
  646MOL0     H87171   1.418   1.394  13.071 -0.9845 -0.4744 -0.4521
  646MOL0     H87172   1.253   1.476  13.040  0.1680 -2.0721  1.5786
  646MOL0     H87173   1.371   1.443  12.910  1.4582 -2.0184  0.3187
  646MOL0     H87174   1.523   1.614  13.595 -1.9947 -1.7402  3.2397
  646MOL0     H87175   1.548   1.466  13.778  1.1421 -1.2109  1.3405
  646MOL0     H87176   1.723   1.038  13.691 -1.4474  0.5772 -0.6129
  646MOL0     H87177   1.856   1.129  13.766  0.1780 -0.8522  1.4581
  646MOL0     H87178   1.822   0.951  13.904 -1.4578 -1.7721  4.0393
  646MOL0     H87179   1.776   1.096  13.988 -1.5257  1.7349  0.3077
  646MOL0     H87180   1.593   0.880  13.857  0.7127  1.6318 -1.3327
  646MOL0     H87181   1.528   1.022  13.941  0.4478 -0.8266  1.1959
  646MOL0     H87182   1.713   0.833  14.092 -0.5175 -2.9301 -0.7210
  646MOL0     H87183   1.617   0.968  14.156 -2.1470 -0.7339  0.4520
  646MOL0     H87184   1.499   0.753  14.003 -1.6469 -1.4995  0.3888
  646MOL0     H87185   1.404   0.866  14.102 -1.0996 -0.4062 -1.3233
  646MOL0     H87186   1.405   0.640  14.200  0.1782  1.0544 -2.7142
  646MOL0     H87187   1.588   0.648  14.202 -0.2681 -2.0187 -0.1298
  646MOL0     H87188   1.404   0.843  14.363 -0.3312  0.9910  0.6755
  646MOL0     H87189   1.575   0.863  14.333 -1.5836  1.4771  0.4073
  646MOL0     H87190   1.445   0.645  14.499 -1.5355 -1.9558 -5.1623
  646MOL0     H87191   1.539   0.783  14.552  1.6496 -1.5193  1.0159
  646MOL0     H87192   1.796   1.201  13.544  2.0933  1.6458 -1.7032
  646MOL0     H87193   1.773   1.336  13.360  3.1481  1.1213  1.5716
  646MOL0     H87194   1.563   1.812  13.267 -0.6253 -1.1162  0.4546
  646MOL0     H87195   1.565   1.967  13.061  3.7986 -1.1716 -2.6903
  646MOL0     H87196   1.801   1.851  11.300  0.3859  1.5405 -0.3373
  646MOL0     H87197   1.938   1.985  11.147 -2.3575 -0.6605  2.3392
  646MOL0     H87198   2.011   1.866  10.515 -1.7154  1.5794  0.0125
  646MOL0     H87199   2.113   1.989  10.361  0.3035  1.4884 -0.2467
  646MOL0     H87200   2.251   2.318  10.211  0.3482 -0.0165  1.7362
  646MOL0     H87201   2.265   2.151  10.266 -0.9544 -0.4150 -0.2840
  646MOL0     H87202   2.036   2.310  10.153 -3.7668 -1.2006 -0.0204
  646MOL0     H87203   1.991   2.196  10.273 -1.2422 -0.5770 -0.9407
  646MOL0     H87204   1.982   2.097  10.045 -1.9500  0.6302  4.0806
  646MOL0     H87205   2.123   2.020  10.119  1.7132  2.9109  6.3882
  646MOL0     H87206   2.148   2.267   9.940 -1.4125  0.7568  2.1587
  646MOL0     H87207   2.156   2.105   9.871 -0.3261 -0.2953 -1.3207
  646MOL0     H87208   2.529   2.124  10.055 -1.5797 -1.0254  3.3393
  646MOL0     H87209   2.172   2.314  10.643 -2.1599  1.4507  2.0918
  646MOL0     H87210   2.069   2.177  10.813 -3.1810 -0.7555  0.0072
  647MOL0     O87211   8.411   6.319   0.285  0.5469  0.6383 -0.0563
  647MOL0     C87212   8.477   6.383   0.205 -0.1938 -0.0949  0.3506
  647MOL0     O87213   8.442   6.507   0.160  0.1376 -0.6464  0.0228
  647MOL0     C87214   8.316   6.550   0.183  0.1923 -0.6460  0.0664
  647MOL0     C87215   8.205   6.479   0.139 -0.3948 -0.4663 -0.8907
  647MOL0     C87216   8.078   6.513   0.179 -0.2069 -0.1837 -0.3814
  647MOL0     C87217   8.062   6.616   0.277 -0.1292 -0.4483 -0.3953
  647MOL0     O87218   7.931   6.641   0.308 -0.5366 -0.5843 -0.1681
  647MOL0     C87219   7.912   6.719   0.429 -0.5775 -0.1726  0.1375
  647MOL0     C87220   7.841   6.851   0.378 -0.0275 -0.2771 -0.6579
  647MOL0     C87221   7.709   6.824   0.301  0.3650  0.7965 -0.3611
  647MOL0     C87222   7.645   6.952   0.243 -0.0077  0.0369  1.1107
  647MOL0     C87223   7.508   6.924   0.182 -0.4990 -1.1008  0.0391
  647MOL0     C87224   7.457   7.046   0.106  1.0931  0.7310  1.0226
  647MOL0     C87225   7.455   7.179   0.186  0.3075  0.2706  0.9802
  647MOL0     C87226   7.390   7.158   0.319 -0.2208 -0.0362 -0.1418
  647MOL0     N87227   7.388   7.285   0.387  0.9846 -1.0901 -0.0071
  647MOL0     C87228   7.318   7.400   0.371 -0.0820 -0.6948 -0.0618
  647MOL0     C87229   7.333   7.471   0.483 -0.1556 -0.2507 -0.5281
  647MOL0     C87230   7.299   7.609   0.520  0.5306  0.5852  0.2605
  647MOL0     C87231   7.155   7.628   0.556  0.2612  0.0133 -0.1647
  647MOL0     C87232   7.115   7.544   0.677  0.1159 -0.1372 -0.0736
  647MOL0     C87233   6.970   7.573   0.725  0.9060 -0.5906 -0.8916
  647MOL0     O87234   6.955   7.706   0.763 -0.3133 -0.5494  0.4196
  647MOL0     C87235   6.841   7.752   0.815  0.2204 -0.1796  0.4105
  647MOL0     C87236   6.721   7.681   0.836 -0.0914  0.1819 -0.8580
  647MOL0     C87237   6.602   7.745   0.887 -0.2200 -0.1049 -0.1801
  647MOL0     C87238   6.477   7.662   0.898  0.2167 -0.0740 -0.1385
  647MOL0     C87239   6.606   7.878   0.915 -0.2572 -0.7980 -0.4486
  647MOL0     C87240   6.487   7.951   0.961 -0.6914 -0.0675  0.6845
  647MOL0     O87241   6.478   8.078   0.919  0.1692  1.1415 -0.2493
  647MOL0     C87242   6.356   8.133   0.893  0.7118  0.3808 -0.2087
  647MOL0     C87243   6.243   8.070   0.830  0.7186 -0.4304  0.7542
  647MOL0     C87244   6.131   8.145   0.797 -0.8269  0.3725  0.5706
  647MOL0     C87245   6.119   8.283   0.820  0.4684 -0.1856  0.8250
  647MOL0     O87246   6.009   8.334   0.774  0.9105  1.1637  0.1919
  647MOL0     C87247   6.003   8.479   0.782  0.6275 -0.1629  0.3538
  647MOL0     C87248   5.867   8.495   0.717  0.5054 -0.1343 -0.7842
  647MOL0     C87249   5.814   8.637   0.752  0.8147 -0.5214  0.1950
  647MOL0     C87250   5.695   8.679   0.658 -0.1105  0.7465  0.4763
  647MOL0     C87251   5.683   8.838   0.658  0.4370 -1.0050 -0.0011
  647MOL0     C87252   5.565   8.875   0.568  0.2832  0.2474  1.0115
  647MOL0     C87253   5.535   9.030   0.542  0.1177 -0.7768  0.1091
  647MOL0     C87254   5.505   9.107   0.663 -0.5091 -0.6261  0.0164
  647MOL0    Cl87255   5.661   9.167   0.707 -0.2193  0.0274 -0.6851
  647MOL0     C87256   6.226   8.343   0.888  0.1654  0.1546 -0.0735
  647MOL0     C87257   6.343   8.269   0.916  0.2946 -0.0556 -0.4150
  647MOL0     O87258   6.408   7.896   1.036  0.4707 -0.0886  0.3137
  647MOL0     C87259   6.725   7.953   0.897  0.5125 -0.0682 -0.0971
  647MOL0     C87260   6.841   7.890   0.851  0.5109 -0.4777 -0.5100
  647MOL0     N87261   7.418   7.393   0.573  1.1506  0.3967 -0.7701
  647MOL0     N87262   7.443   7.288   0.503 -0.5124 -0.0421  0.3660
  647MOL0     C87263   8.181   6.691   0.317  0.4819  0.0683 -0.2727
  647MOL0     C87264   8.303   6.650   0.274 -0.7273 -0.1947 -0.3097
  647MOL0     C87265   8.599   6.321   0.135 -0.4507  0.2063  1.1519
  647MOL0     C87266   8.616   6.182   0.123 -0.8375  0.2304  0.4720
  647MOL0     C87267   8.720   6.128   0.050 -0.1589 -0.2367  0.8750
  647MOL0     C87268   8.807   6.213  -0.025 -0.2247 -0.0481 -0.6007
  647MOL0     O87269   8.903   6.156  -0.110 -0.0254  0.5304  0.3365
  647MOL0     C87270   8.933   6.011  -0.102  0.5521  0.2815 -0.4193
  647MOL0     C87271   9.029   5.988  -0.220 -0.8023  0.0934 -0.1455
  647MOL0     C87272   8.960   5.956  -0.351 -0.9430 -0.1786 -0.2677
  647MOL0     C87273   9.063   5.978  -0.463 -0.8006  0.6007  0.0995
  647MOL0     C87274   9.003   5.946  -0.593  0.2546 -0.3188 -0.0646
  647MOL0     C87275   8.961   5.896  -0.689  0.2544  0.2535 -0.7283
  647MOL0     C87276   8.795   6.347  -0.008  0.6484 -0.4798 -0.2058
  647MOL0     C87277   8.694   6.407   0.067  0.5059 -0.3839  0.3071
  647MOL0     H87278   8.208   6.389   0.078 -2.5385  0.3133 -2.2936
  647MOL0     H87279   7.988   6.468   0.137  0.2235 -2.8822  1.3399
  647MOL0     H87280   7.835   6.675   0.493  1.1321 -2.3095  0.8394
  647MOL0     H87281   8.002   6.730   0.489  0.2631 -1.3910 -0.8550
  647MOL0     H87282   7.829   6.916   0.465 -0.6181 -1.1679 -0.0499
  647MOL0     H87283   7.910   6.910   0.317 -0.1505  0.8038  0.2319
  647MOL0     H87284   7.711   6.743   0.228  2.0956 -1.3338  1.8595
  647MOL0     H87285   7.637   6.785   0.374 -1.8301 -0.5829 -3.0590
  647MOL0     H87286   7.648   7.042   0.306  3.2514  1.4807 -0.8714
  647MOL0     H87287   7.706   6.983   0.158 -0.9508 -0.6890  0.1568
  647MOL0     H87288   7.519   6.849   0.103  0.6489 -1.1647  0.2476
  647MOL0     H87289   7.437   6.889   0.258  0.1826  0.5549  1.5044
  647MOL0     H87290   7.507   7.056   0.009  0.8503 -0.8550  0.7126
  647MOL0     H87291   7.361   7.009   0.069  1.7873 -0.9811  0.8289
  647MOL0     H87292   7.557   7.213   0.207  0.0118  2.9031 -1.3099
  647MOL0     H87293   7.404   7.258   0.130  4.9185  3.2500  0.5372
  647MOL0     H87294   7.453   7.086   0.371 -0.2698 -0.8594 -1.1888
  647MOL0     H87295   7.289   7.115   0.314 -0.1481 -0.6368  2.3885
  647MOL0     H87296   7.258   7.441   0.290  0.2562 -0.1945 -0.0592
  647MOL0     H87297   7.360   7.631   0.608 -0.0313 -1.9783  1.3666
  647MOL0     H87298   7.319   7.682   0.441 -0.3420  0.7222  0.1488
  647MOL0     H87299   7.103   7.587   0.469  1.7986 -2.1467 -0.1267
  647MOL0     H87300   7.147   7.734   0.581  0.5074  0.1900 -0.8288
  647MOL0     H87301   7.189   7.558   0.756  0.0709 -0.5135  0.0345
  647MOL0     H87302   7.105   7.439   0.650 -1.5944 -0.4729  1.6414
  647MOL0     H87303   6.932   7.507   0.803  0.9550  0.1852 -0.1942
  647MOL0     H87304   6.907   7.544   0.641 -0.3370  0.9479 -0.5452
  647MOL0     H87305   6.718   7.573   0.822  2.7765 -0.1982  0.6019
  647MOL0     H87306   6.485   7.563   0.850 -1.5891 -0.8494  1.0648
  647MOL0     H87307   6.451   7.648   1.003  4.0604  0.5111  1.0574
  647MOL0     H87308   6.402   7.722   0.847  1.8551  1.9221 -0.3432
  647MOL0     H87309   6.233   7.967   0.797  1.3475  0.2544 -1.8091
  647MOL0     H87310   6.045   8.103   0.745 -0.7071  1.0223 -0.1759
  647MOL0     H87311   5.988   8.502   0.888 -0.9305  1.7006 -0.2287
  647MOL0     H87312   6.089   8.532   0.740 -0.4331  2.3727  1.1958
  647MOL0     H87313   5.865   8.486   0.608  0.1810 -2.8953 -0.6046
  647MOL0     H87314   5.787   8.429   0.749  0.7977 -0.5616 -0.9248
  647MOL0     H87315   5.893   8.707   0.720 -0.5456  1.2849  0.6302
  647MOL0     H87316   5.779   8.657   0.853 -0.6828  2.0529 -0.7277
  647MOL0     H87317   5.710   8.653   0.553  0.4215  0.3259  0.6564
  647MOL0     H87318   5.603   8.632   0.694 -1.8211  3.9088  0.5981
  647MOL0     H87319   5.772   8.893   0.625  0.3617  0.1846  1.5928
  647MOL0     H87320   5.675   8.864   0.764 -1.0499 -0.7691 -0.1463
  647MOL0     H87321   5.590   8.831   0.471  0.7951 -1.4186  1.8791
  647MOL0     H87322   5.474   8.829   0.609  1.5966 -1.7506  1.7837
  647MOL0     H87323   5.445   9.043   0.482 -1.6391 -0.9201  2.5466
  647MOL0     H87324   5.608   9.072   0.473 -2.2775 -0.3116 -2.3169
  647MOL0     H87325   5.472   9.050   0.751  0.3716  1.6700  1.9186
  647MOL0     H87326   5.438   9.191   0.643  3.7191  2.7327 -1.2642
  647MOL0     H87327   6.228   8.446   0.923  0.8281  0.0740  0.1470
  647MOL0     H87328   6.421   8.326   0.964  0.5309 -1.1404  0.5074
  647MOL0     H87329   6.725   8.057   0.929  2.9843 -0.3300  0.9688
  647MOL0     H87330   6.930   7.949   0.833  0.3372  1.4761  3.8178
  647MOL0     H87331   8.176   6.768   0.393 -3.8500  2.1721 -2.3133
  647MOL0     H87332   8.395   6.691   0.315  0.1089 -0.8444 -1.4723
  647MOL0     H87333   8.550   6.113   0.175  2.2446 -3.8855 -0.5377
  647MOL0     H87334   8.726   6.020   0.060  1.2705 -0.2536  0.0238
  647MOL0     H87335   8.970   5.994  -0.001 -3.1451  1.1431  1.2394
  647MOL0     H87336   8.847   5.945  -0.105  1.0998 -0.4204 -1.1958
  647MOL0     H87337   9.106   5.912  -0.204 -3.4593 -2.9613 -0.8258
  647MOL0     H87338   9.077   6.084  -0.241 -0.2318 -0.4208 -1.3284
  647MOL0     H87339   8.866   6.006  -0.376 -0.5229  1.0212  0.4795
  647MOL0     H87340   8.932   5.850  -0.347 -0.8674 -0.1627  0.7229
  647MOL0     H87341   9.153   5.921  -0.438 -1.0052 -0.4045 -1.3113
  647MOL0     H87342   9.088   6.084  -0.476 -1.5567  0.7049 -0.6040
  647MOL0     H87343   8.922   5.843  -0.773 -0.4885 -0.2373 -0.0856
  647MOL0     H87344   8.869   6.403  -0.064  0.3594 -1.7061 -1.8919
  647MOL0     H87345   8.691   6.515   0.073  0.0073 -0.2612 -1.5938
  648MOL0     O87346   1.514   4.677   8.894  0.3101 -0.7533  0.5311
  648MOL0     C87347   1.591   4.595   8.946  0.7791  0.0463  0.4392
  648MOL0     O87348   1.724   4.614   8.956  0.4189  0.0630 -0.4126
  648MOL0     C87349   1.784   4.725   8.894  0.8467 -0.3559 -0.4765
  648MOL0     C87350   1.753   4.770   8.771 -0.5348 -0.5176  0.6031
  648MOL0     C87351   1.802   4.889   8.717  0.1705 -1.7959 -0.4830
  648MOL0     C87352   1.918   4.944   8.785  0.5078 -0.4210 -0.0305
  648MOL0     O87353   1.989   5.053   8.737  0.4234 -0.7531 -0.2732
  648MOL0     C87354   1.967   5.103   8.601  0.6565 -0.0564 -0.7768
  648MOL0     C87355   2.068   5.205   8.552 -0.2099  0.9633 -0.0661
  648MOL0     C87356   1.982   5.324   8.509  0.3365 -0.1873  0.5901
  648MOL0     C87357   2.076   5.431   8.444 -0.2018 -0.9747 -0.1819
  648MOL0     C87358   1.992   5.534   8.359  0.0301  0.1317 -0.2488
  648MOL0     C87359   1.943   5.646   8.463 -0.1249 -0.3628  0.6266
  648MOL0     C87360   1.939   5.784   8.388 -0.9784  0.2772  0.2112
  648MOL0     C87361   2.090   5.829   8.358  0.0709 -0.9810 -0.2785
  648MOL0     N87362   2.088   5.982   8.375 -0.1520 -0.4021  0.0618
  648MOL0     C87363   2.064   6.060   8.494 -0.3512  0.7459 -0.4691
  648MOL0     C87364   2.088   6.190   8.458  0.2817  0.4361 -0.2287
  648MOL0     C87365   2.085   6.319   8.536  0.2600 -0.2442 -0.0707
  648MOL0     C87366   2.194   6.342   8.642  0.9209 -0.0184  0.8871
  648MOL0     C87367   2.196   6.476   8.710 -0.0921 -0.4078 -0.6191
  648MOL0     C87368   2.302   6.471   8.826  0.1813  0.5628  0.5953
  648MOL0     O87369   2.292   6.588   8.912  0.3476  1.1060  0.6305
  648MOL0     C87370   2.291   6.713   8.847 -0.2594  0.6580  0.2759
  648MOL0     C87371   2.407   6.755   8.788 -0.0716 -0.1111 -0.6167
  648MOL0     C87372   2.415   6.878   8.725 -0.3692  0.3112 -0.2030
  648MOL0     C87373   2.527   6.906   8.638 -0.1678  0.6960  0.3317
  648MOL0     C87374   2.310   6.968   8.741 -0.3413 -0.0123 -0.8151
  648MOL0     C87375   2.314   7.111   8.707 -0.9404  0.3713  0.4382
  648MOL0     O87376   2.432   7.170   8.744  0.3375 -0.9316  0.1271
  648MOL0     C87377   2.450   7.299   8.721 -0.1461 -0.6250  0.8584
  648MOL0     C87378   2.474   7.345   8.597 -0.2074  0.2382  0.5422
  648MOL0     C87379   2.502   7.481   8.569  0.7858 -0.4804  0.6890
  648MOL0     C87380   2.496   7.580   8.673 -0.3385 -0.7666  0.3591
  648MOL0     O87381   2.533   7.720   8.666 -0.4906  0.1887 -0.7469
  648MOL0     C87382   2.579   7.762   8.536  0.9449 -0.7811 -0.1534
  648MOL0     C87383   2.592   7.918   8.542  0.1433  0.0478 -0.7328
  648MOL0     C87384   2.602   7.984   8.403  0.4127  0.0679 -0.5158
  648MOL0     C87385   2.753   8.021   8.377  0.1718 -0.0826  0.0875
  648MOL0     C87386   2.786   8.164   8.420  0.4162  1.0819 -0.3593
  648MOL0     C87387   2.753   8.277   8.324  0.4986 -0.9399 -0.6405
  648MOL0     C87388   2.838   8.404   8.369  0.9470 -0.7908 -0.1054
  648MOL0     C87389   2.826   8.521   8.272 -0.0115  0.0673  0.2463
  648MOL0    Cl87390   2.661   8.540   8.220 -0.0870  0.8014 -0.0973
  648MOL0     C87391   2.468   7.529   8.799  0.1716 -0.4593  0.1796
  648MOL0     C87392   2.437   7.389   8.824  0.8281  0.0557 -0.3451
  648MOL0     O87393   2.216   7.170   8.653 -0.4445 -0.2736  0.6444
  648MOL0     C87394   2.184   6.926   8.802 -0.3627  0.0297  0.1481
  648MOL0     C87395   2.176   6.789   8.844  0.1994  0.6011 -0.1956
  648MOL0     N87396   2.124   6.190   8.325 -0.6336  0.0501  0.0533
  648MOL0     N87397   2.115   6.072   8.277 -0.8156 -0.0279 -0.3472
  648MOL0     C87398   1.956   4.892   8.897 -0.9926 -0.0679  0.1796
  648MOL0     C87399   1.896   4.780   8.954 -0.0003 -0.1996 -0.1014
  648MOL0     C87400   1.533   4.462   8.987  1.4275 -0.1198  0.0392
  648MOL0     C87401   1.399   4.427   8.954 -0.5162 -0.4565  0.5474
  648MOL0     C87402   1.352   4.305   8.992 -0.0399  0.6381  0.7813
  648MOL0     C87403   1.427   4.198   9.043  0.6177  0.0513 -0.2789
  648MOL0     O87404   1.383   4.072   9.085  0.7391  0.0569  0.1872
  648MOL0     C87405   1.247   4.066   9.077 -0.9894 -0.1442 -0.2070
  648MOL0     C87406   1.208   3.933   9.138 -0.5061  0.1823  0.3538
  648MOL0     C87407   1.247   3.910   9.288 -1.2157 -0.3415 -0.0831
  648MOL0     C87408   1.191   3.781   9.352 -0.1241  0.0681 -0.0099
  648MOL0     C87409   1.214   3.761   9.494  0.2927  0.6648 -0.6041
  648MOL0     C87410   1.213   3.758   9.612 -1.3850 -0.0995  0.6796
  648MOL0     C87411   1.561   4.231   9.071 -0.5436  0.4137  0.0426
  648MOL0     C87412   1.607   4.363   9.048  0.1271  0.3342 -0.0575
  648MOL0     H87413   1.678   4.720   8.710 -0.4118  0.5087 -0.4341
  648MOL0     H87414   1.757   4.926   8.626  3.6517  0.0716 -1.6228
  648MOL0     H87415   1.961   5.014   8.537 -0.4315 -2.7154  2.7033
  648MOL0     H87416   1.870   5.154   8.594  1.5916  1.7606 -0.8637
  648MOL0     H87417   2.152   5.220   8.621  1.0591 -1.3115 -1.0035
  648MOL0     H87418   2.110   5.168   8.458  0.1138 -0.1609  0.4973
  648MOL0     H87419   1.915   5.278   8.436 -0.1482 -1.1448  1.6028
  648MOL0     H87420   1.945   5.368   8.601  1.5332 -1.2272  1.6195
  648MOL0     H87421   2.135   5.495   8.510 -3.1181  0.3122  1.3920
  648MOL0     H87422   2.147   5.376   8.382 -2.9746 -2.7765 -1.9786
  648MOL0     H87423   2.043   5.573   8.271  2.1894 -0.1881  0.7976
  648MOL0     H87424   1.899   5.487   8.324  0.5916  0.6140 -2.5341
  648MOL0     H87425   1.845   5.633   8.511  0.6148  1.9557  3.0300
  648MOL0     H87426   2.020   5.663   8.540  2.5869  2.3900 -2.3848
  648MOL0     H87427   1.887   5.750   8.298 -0.0930  3.9878 -1.9088
  648MOL0     H87428   1.876   5.852   8.447 -0.6115  1.9262 -1.2056
  648MOL0     H87429   2.111   5.806   8.253  2.2973 -0.5384  0.0275
  648MOL0     H87430   2.162   5.784   8.427 -2.6702 -5.3290  0.1098
  648MOL0     H87431   2.024   6.011   8.582 -1.0519  0.2314 -1.0578
  648MOL0     H87432   2.104   6.401   8.467  2.7062 -1.0705 -0.4896
  648MOL0     H87433   1.982   6.326   8.572  0.3762  3.7544 -0.0728
  648MOL0     H87434   2.287   6.333   8.584  0.9365  0.9421  0.7344
  648MOL0     H87435   2.186   6.265   8.719 -1.7826  1.3125  2.0697
  648MOL0     H87436   2.101   6.496   8.761  0.9758 -1.6553  2.0435
  648MOL0     H87437   2.231   6.549   8.636 -0.2911 -0.7902 -1.0944
  648MOL0     H87438   2.399   6.459   8.778 -0.7085  0.2165 -1.2085
  648MOL0     H87439   2.279   6.383   8.888 -0.4262  0.2562 -0.0568
  648MOL0     H87440   2.483   6.680   8.770  0.5439  0.7298 -1.6171
  648MOL0     H87441   2.589   6.820   8.612  2.6244  2.1182  1.7927
  648MOL0     H87442   2.490   6.953   8.547  2.3889  0.3818 -0.9412
  648MOL0     H87443   2.583   6.985   8.689  2.5857  0.8201 -2.6207
  648MOL0     H87444   2.468   7.276   8.513 -0.3289  0.3273  0.4779
  648MOL0     H87445   2.526   7.512   8.468 -0.9803 -1.3911 -0.0556
  648MOL0     H87446   2.669   7.709   8.506  0.9430  0.8135 -3.2856
  648MOL0     H87447   2.502   7.734   8.463  0.4579  3.8461 -1.7892
  648MOL0     H87448   2.505   7.962   8.591  0.8638 -0.8226  1.4698
  648MOL0     H87449   2.680   7.942   8.603  2.1451  1.9854 -4.0636
  648MOL0     H87450   2.536   8.071   8.404  0.3412  0.0194 -0.9272
  648MOL0     H87451   2.563   7.921   8.323 -0.0188 -1.8651  1.1557
  648MOL0     H87452   2.823   7.952   8.427  0.8551 -1.4470 -2.5348
  648MOL0     H87453   2.762   8.016   8.268 -1.0511 -2.0557  0.0335
  648MOL0     H87454   2.895   8.163   8.422  0.5829 -3.8945  1.3740
  648MOL0     H87455   2.745   8.186   8.520 -2.7613  0.5794 -1.4248
  648MOL0     H87456   2.780   8.243   8.223 -0.8604 -1.4885 -0.8395
  648MOL0     H87457   2.645   8.293   8.328  0.8751  2.1064 -0.1813
  648MOL0     H87458   2.945   8.383   8.379  1.8236  1.0186 -3.9071
  648MOL0     H87459   2.801   8.449   8.462  1.8474  0.8257 -0.4957
  648MOL0     H87460   2.886   8.479   8.191 -1.0492  0.2365 -0.6264
  648MOL0     H87461   2.865   8.618   8.307  0.8462 -0.1818 -0.0080
  648MOL0     H87462   2.445   7.600   8.878 -1.7159 -0.7547 -0.0627
  648MOL0     H87463   2.417   7.364   8.928  0.8284  0.2935 -0.2881
  648MOL0     H87464   2.093   6.983   8.818 -1.1391 -0.4807 -2.0703
  648MOL0     H87465   2.076   6.763   8.877  0.5917  0.6759  1.1027
  648MOL0     H87466   2.049   4.924   8.943  0.7282 -1.8805 -1.7883
  648MOL0     H87467   1.927   4.729   9.045  0.6336 -0.1856 -0.3050
  648MOL0     H87468   1.336   4.490   8.893  0.6819  1.0464  0.8030
  648MOL0     H87469   1.250   4.305   8.955 -0.2399 -1.1565  1.2335
  648MOL0     H87470   1.207   4.151   9.133 -3.3391 -2.2043  1.4832
  648MOL0     H87471   1.214   4.066   8.973  2.3054  1.7657 -1.3949
  648MOL0     H87472   1.249   3.850   9.081 -0.5248 -0.7991  1.7189
  648MOL0     H87473   1.102   3.929   9.111  0.3018 -0.2343 -3.2465
  648MOL0     H87474   1.216   3.989   9.358  0.4159 -1.1389  1.6331
  648MOL0     H87475   1.356   3.913   9.293 -1.1172  2.0897 -1.7648
  648MOL0     H87476   1.258   3.705   9.310  0.7293  1.2751 -0.9014
  648MOL0     H87477   1.088   3.763   9.322 -0.5866  1.0430  0.9202
  648MOL0     H87478   1.219   3.776   9.718 -1.7343  0.4901  0.6037
  648MOL0     H87479   1.626   4.155   9.113  1.9032  3.3827  2.0761
  648MOL0     H87480   1.712   4.384   9.060 -0.2017  0.8040  2.4632
  649MOL0     O87481   6.512   7.357   4.118 -0.1423 -0.5181  0.0087
  649MOL0     C87482   6.562   7.264   4.183  0.4779  0.4704 -0.6041
  649MOL0     O87483   6.537   7.128   4.166  0.0906 -0.6155 -0.1115
  649MOL0     C87484   6.486   7.087   4.049  0.7978 -0.1011  0.6279
  649MOL0     C87485   6.569   7.097   3.937  0.0400  0.7092  0.7460
  649MOL0     C87486   6.526   7.063   3.809 -0.1671 -0.1742  0.1629
  649MOL0     C87487   6.396   7.026   3.783 -0.6709 -0.5095 -0.6893
  649MOL0     O87488   6.333   7.022   3.666 -0.0340  0.2818  0.1815
  649MOL0     C87489   6.390   6.965   3.553  0.2521  0.1737  0.3547
  649MOL0     C87490   6.282   6.968   3.437  0.0269  0.2191  0.4888
  649MOL0     C87491   6.152   6.885   3.453  0.0966  0.4319  0.1199
  649MOL0     C87492   6.045   6.938   3.371  0.1664 -0.3612 -0.5411
  649MOL0     C87493   5.918   6.854   3.377  0.2952 -0.1471  0.0049
  649MOL0     C87494   5.807   6.918   3.291  0.1731 -0.8597 -1.4223
  649MOL0     C87495   5.676   6.850   3.314 -0.3464 -0.4147  0.4329
  649MOL0     C87496   5.670   6.701   3.294 -0.3583  1.0021  1.1893
  649MOL0     N87497   5.531   6.646   3.279 -1.5052  0.6044 -0.2295
  649MOL0     C87498   5.491   6.549   3.185 -0.5897 -0.9901  0.0486
  649MOL0     C87499   5.363   6.520   3.197 -0.1073  0.5317  0.5655
  649MOL0     C87500   5.292   6.416   3.115  1.1311 -0.0712  0.2951
  649MOL0     C87501   5.269   6.297   3.203 -0.0344  0.6742 -0.1454
  649MOL0     C87502   5.183   6.195   3.135 -0.5044 -0.0668 -0.3357
  649MOL0     C87503   5.216   6.057   3.186  0.7888  0.0581  0.9360
  649MOL0     O87504   5.215   5.957   3.074  0.5097 -0.6296  0.0076
  649MOL0     C87505   5.098   5.924   3.014  0.5661  0.5118  0.1100
  649MOL0     C87506   5.119   5.861   2.889 -0.1779  0.7155 -0.3249
  649MOL0     C87507   5.017   5.826   2.797  0.4945 -0.4462 -0.4290
  649MOL0     C87508   5.060   5.750   2.676  0.2349  0.3316  0.0042
  649MOL0     C87509   4.881   5.882   2.823 -0.3381 -0.1679 -0.3420
  649MOL0     C87510   4.760   5.881   2.728 -0.2467  0.4333 -0.7403
  649MOL0     O87511   4.654   5.952   2.769  0.3820 -0.6258 -0.4719
  649MOL0     C87512   4.552   5.987   2.682  0.0962 -0.8369  0.2028
  649MOL0     C87513   4.452   5.891   2.648 -0.1639  0.1777 -0.1224
  649MOL0     C87514   4.345   5.926   2.559  0.2532 -0.4642  1.1405
  649MOL0     C87515   4.323   6.060   2.525 -0.0226 -0.8711 -0.5468
  649MOL0     O87516   4.207   6.105   2.462 -0.4067 -0.6350  0.5946
  649MOL0     C87517   4.207   6.092   2.323  0.7004  0.2562  0.2369
  649MOL0     C87518   4.055   6.127   2.288  0.5128  0.3283 -0.7521
  649MOL0     C87519   4.027   6.115   2.132  0.1134 -0.3243  0.1526
  649MOL0     C87520   3.879   6.100   2.092  0.6534  0.0220  0.0348
  649MOL0     C87521   3.849   6.105   1.940 -0.8446 -0.2879  0.2596
  649MOL0     C87522   3.700   6.105   1.890 -0.6400 -0.8307 -0.1885
  649MOL0     C87523   3.619   6.229   1.954  0.4773  0.0519 -0.1096
  649MOL0     C87524   3.689   6.367   1.912  0.4479  0.4523  0.3511
  649MOL0    Cl87525   3.593   6.518   1.964  0.4495 -0.1466  0.1011
  649MOL0     C87526   4.421   6.154   2.552 -0.8105  0.1649  0.3871
  649MOL0     C87527   4.531   6.114   2.628 -0.1685  0.7238  0.0562
  649MOL0     O87528   4.774   5.829   2.619 -0.0046  0.4309 -0.5838
  649MOL0     C87529   4.870   5.954   2.945 -0.2370 -0.2859  0.1535
  649MOL0     C87530   4.975   5.974   3.033 -0.1163  0.1162 -0.1322
  649MOL0     N87531   5.328   6.600   3.304 -0.0596 -0.0151 -0.5589
  649MOL0     N87532   5.426   6.671   3.351 -0.3585  0.0848  0.0603
  649MOL0     C87533   6.307   7.012   3.896  1.0593 -0.3071  0.1057
  649MOL0     C87534   6.353   7.032   4.028  0.3268 -0.4090  0.7534
  649MOL0     C87535   6.655   7.297   4.279 -0.3181 -0.6049 -0.9011
  649MOL0     C87536   6.724   7.202   4.346  0.6817  0.4730  0.3661
  649MOL0     C87537   6.801   7.231   4.460  0.6677 -0.0409  1.0275
  649MOL0     C87538   6.802   7.362   4.513 -0.0691 -1.2204  0.1320
  649MOL0     O87539   6.862   7.375   4.638 -1.0492  0.5855 -0.3904
  649MOL0     C87540   6.870   7.501   4.708 -0.4838  0.1654 -0.0119
  649MOL0     C87541   6.976   7.601   4.648  0.4620 -0.5771 -0.6311
  649MOL0     C87542   7.108   7.533   4.654 -0.4100 -0.1914  0.5976
  649MOL0     C87543   7.212   7.648   4.611 -0.3383 -0.7868  0.1207
  649MOL0     C87544   7.348   7.598   4.643  0.3291  0.2610 -0.3764
  649MOL0     C87545   7.462   7.586   4.672 -0.2792  0.4807  0.0747
  649MOL0     C87546   6.736   7.462   4.453 -0.0552  0.1501  0.1264
  649MOL0     C87547   6.653   7.432   4.340 -0.3210  0.1080 -0.5609
  649MOL0     H87548   6.671   7.130   3.956  0.2915  0.9242 -0.8329
  649MOL0     H87549   6.589   7.074   3.721 -1.2853 -2.9701 -1.0980
  649MOL0     H87550   6.491   7.003   3.536 -0.7491  2.1813 -1.7172
  649MOL0     H87551   6.399   6.858   3.575 -2.3565  0.0374  1.1028
  649MOL0     H87552   6.254   7.073   3.429  0.2271  0.2543  0.2451
  649MOL0     H87553   6.332   6.957   3.341  0.4462 -0.5343  0.7865
  649MOL0     H87554   6.174   6.779   3.443 -2.7631 -0.2019 -0.0888
  649MOL0     H87555   6.119   6.898   3.556 -0.7174  1.2217 -0.2218
  649MOL0     H87556   6.022   7.043   3.390  6.3673  1.1635  0.9363
  649MOL0     H87557   6.083   6.913   3.271  0.5567 -3.3263  0.2559
  649MOL0     H87558   5.930   6.750   3.345  0.1162 -0.1360 -0.1053
  649MOL0     H87559   5.874   6.861   3.477 -3.5329 -2.0949 -1.3373
  649MOL0     H87560   5.801   7.025   3.315  1.8997 -0.6130 -1.9488
  649MOL0     H87561   5.836   6.908   3.186  4.3103 -0.7973 -0.4551
  649MOL0     H87562   5.654   6.866   3.420  2.9587  1.9574  0.9023
  649MOL0     H87563   5.595   6.907   3.265  1.4718  0.9254 -1.1973
  649MOL0     H87564   5.720   6.641   3.370  1.7463  1.2591  0.0926
  649MOL0     H87565   5.724   6.677   3.202 -0.3867 -0.5414  1.5563
  649MOL0     H87566   5.549   6.504   3.105 -1.3765 -1.4753 -0.2548
  649MOL0     H87567   5.198   6.462   3.083  0.5248 -1.0480  0.6267
  649MOL0     H87568   5.347   6.382   3.027 -2.6511 -1.3663 -1.8011
  649MOL0     H87569   5.223   6.323   3.299  0.5092  0.7654  0.0940
  649MOL0     H87570   5.367   6.251   3.216 -0.5632 -1.3835 -2.6037
  649MOL0     H87571   5.185   6.201   3.026  1.9380 -3.9360 -0.7284
  649MOL0     H87572   5.079   6.216   3.159 -1.1064 -3.7641  1.0032
  649MOL0     H87573   5.155   6.019   3.269  1.4201  0.1776  1.4643
  649MOL0     H87574   5.320   6.056   3.219  0.6903 -0.1677  1.2485
  649MOL0     H87575   5.222   5.833   2.870 -1.2587 -1.8176 -3.1874
  649MOL0     H87576   4.992   5.675   2.635 -0.2210  0.3677  0.6815
  649MOL0     H87577   5.079   5.818   2.593 -0.6748 -0.0463 -0.5262
  649MOL0     H87578   5.133   5.679   2.716 -0.7231  0.2505  1.7216
  649MOL0     H87579   4.466   5.791   2.686 -1.7203  1.1762  3.5742
  649MOL0     H87580   4.269   5.855   2.529  0.9678 -1.3474  1.3683
  649MOL0     H87581   4.270   6.163   2.268  4.8370 -1.9342  1.7172
  649MOL0     H87582   4.241   5.990   2.305  1.2175  0.2840  1.0061
  649MOL0     H87583   3.995   6.056   2.346  1.7168 -0.0261  0.0932
  649MOL0     H87584   4.037   6.228   2.324 -4.1647  0.1775 -1.9700
  649MOL0     H87585   4.083   6.026   2.099 -2.0008 -1.2256 -1.1978
  649MOL0     H87586   4.079   6.198   2.084 -1.1202 -1.8777 -4.3269
  649MOL0     H87587   3.837   6.011   2.139  0.9838 -0.1616 -0.0084
  649MOL0     H87588   3.828   6.186   2.134  0.3315  0.7458 -1.7379
  649MOL0     H87589   3.898   6.019   1.893 -0.9238 -0.7866  1.0615
  649MOL0     H87590   3.885   6.198   1.895 -3.5823  1.0150  0.5147
  649MOL0     H87591   3.696   6.125   1.782  0.3095 -4.4140 -1.0524
  649MOL0     H87592   3.655   6.007   1.908 -2.7422 -0.5082 -3.0015
  649MOL0     H87593   3.612   6.216   2.062  2.1272 -1.6194 -0.1508
  649MOL0     H87594   3.520   6.226   1.908  1.1615  0.2332 -1.6834
  649MOL0     H87595   3.720   6.373   1.808  2.7328  3.5198  1.0563
  649MOL0     H87596   3.776   6.371   1.979 -1.2132  1.9859  2.5482
  649MOL0     H87597   4.421   6.255   2.513 -2.6169 -0.2975 -0.9210
  649MOL0     H87598   4.607   6.190   2.642 -0.0425  0.8103 -0.9952
  649MOL0     H87599   4.774   6.001   2.965 -1.9262 -2.9768 -1.0335
  649MOL0     H87600   4.950   6.025   3.126  1.0643 -1.5018  1.1258
  649MOL0     H87601   6.203   6.984   3.884  0.1558  2.5421  0.6292
  649MOL0     H87602   6.281   7.010   4.106 -1.4411 -2.8975 -1.3929
  649MOL0     H87603   6.724   7.096   4.326  3.3114  0.0839  2.0690
  649MOL0     H87604   6.855   7.151   4.510  1.3957  0.5874  1.2570
  649MOL0     H87605   6.769   7.543   4.704 -0.7932 -0.6364 -2.3595
  649MOL0     H87606   6.908   7.476   4.808 -0.9556  2.1024  0.6820
  649MOL0     H87607   6.981   7.689   4.712 -2.2874 -2.0694  1.8788
  649MOL0     H87608   6.946   7.623   4.545  4.3737  0.7321 -1.6718
  649MOL0     H87609   7.117   7.445   4.588  2.5019  0.5364 -0.1474
  649MOL0     H87610   7.132   7.504   4.756  0.7213 -3.8946 -0.5648
  649MOL0     H87611   7.204   7.737   4.674 -0.1810 -1.5949  1.3158
  649MOL0     H87612   7.215   7.684   4.507 -1.2665 -0.0632  0.3350
  649MOL0     H87613   7.568   7.584   4.685 -0.3296 -1.1283  0.5208
  649MOL0     H87614   6.735   7.566   4.483  1.2709  0.5268 -1.0055
  649MOL0     H87615   6.591   7.514   4.305  0.3426  0.1768 -1.5850
  650MOL0     O87616   0.543  10.528   0.512 -0.1249  0.1998 -0.0622
  650MOL0     C87617   0.617  10.604   0.549 -0.9687 -0.7784 -0.4995
  650MOL0     O87618   0.607  10.740   0.540 -0.1190 -0.3937  0.8145
  650MOL0     C87619   0.497  10.805   0.488  0.4926 -0.5793  0.2180
  650MOL0     C87620   0.380  10.752   0.430  0.0448 -1.0339 -0.7755
  650MOL0     C87621   0.280  10.831   0.379  0.4264  0.1261 -0.1599
  650MOL0     C87622   0.289  10.968   0.381  0.1410 -0.7727  0.6764
  650MOL0     O87623   0.184  11.041   0.319  0.2286 -0.7875  0.3539
  650MOL0     C87624   0.133  11.150   0.400 -0.1682  0.1250 -0.5916
  650MOL0     C87625  -0.005  11.201   0.362 -0.5606 -0.4107 -0.4264
  650MOL0     C87626  -0.018  11.251   0.222  0.3276 -0.2645  0.5928
  650MOL0     C87627   0.112  11.296   0.151 -0.1247  0.3645  0.8570
  650MOL0     C87628   0.096  11.352   0.007 -0.2545  0.5747 -0.1377
  650MOL0     C87629   0.240  11.394  -0.058  0.6786 -0.5502  1.0843
  650MOL0     C87630   0.221  11.432  -0.217 -0.4074 -0.1127 -0.3320
  650MOL0     C87631   0.356  11.457  -0.284  0.4898  0.1910 -0.4102
  650MOL0     N87632   0.434  11.329  -0.279 -0.5825 -0.0958  0.6928
  650MOL0     C87633   0.423  11.221  -0.363 -0.4275  0.6400 -0.2203
  650MOL0     C87634   0.497  11.123  -0.309 -0.2955 -0.2379 -0.8675
  650MOL0     C87635   0.490  10.983  -0.362 -0.4815  0.5663  0.0952
  650MOL0     C87636   0.377  10.898  -0.316 -0.4233 -0.5144  0.2311
  650MOL0     C87637   0.373  10.874  -0.159  0.0776 -0.5966  0.9061
  650MOL0     C87638   0.495  10.808  -0.104  0.0172 -0.0181  0.7023
  650MOL0     O87639   0.500  10.759   0.029 -0.3578 -0.2769 -0.0999
  650MOL0     C87640   0.586  10.826   0.116  0.1220  0.3533 -0.3923
  650MOL0     C87641   0.602  10.959   0.119 -0.1631 -0.4330 -0.2168
  650MOL0     C87642   0.676  11.028   0.217  0.0589  1.0283 -0.1950
  650MOL0     C87643   0.675  11.175   0.210 -0.1781  0.7021 -0.1045
  650MOL0     C87644   0.760  10.941   0.302 -0.2119  0.1871 -0.1949
  650MOL0     C87645   0.859  10.997   0.402  0.3818  0.1820  0.6280
  650MOL0     O87646   0.936  11.104   0.365  0.3256  0.7798  0.2547
  650MOL0     C87647   1.026  11.149   0.465 -0.0335 -0.4015  0.3357
  650MOL0     C87648   0.978  11.243   0.553  0.0574 -0.6292  0.5159
  650MOL0     C87649   1.073  11.299   0.642 -0.5934 -0.2110 -0.3895
  650MOL0     C87650   1.211  11.266   0.628 -0.1467 -0.8849 -0.8949
  650MOL0     O87651   1.315  11.313   0.705  0.2611 -0.6256  0.2888
  650MOL0     C87652   1.283  11.382   0.827  0.5131 -0.6061  0.1906
  650MOL0     C87653   1.327  11.309   0.952  0.5794  0.2764  0.5006
  650MOL0     C87654   1.480  11.307   0.969 -0.2034 -0.7295 -0.5461
  650MOL0     C87655   1.547  11.429   1.044  0.0513 -0.2750 -0.2216
  650MOL0     C87656   1.698  11.409   1.047  0.4623 -0.0852 -0.4439
  650MOL0     C87657   1.785  11.517   1.116 -0.6529  0.0165 -0.3030
  650MOL0     C87658   1.937  11.504   1.082  0.1732  0.4265  0.1450
  650MOL0     C87659   2.031  11.608   1.144  0.8319 -1.7150 -0.0658
  650MOL0    Cl87660   1.976  11.770   1.074 -0.3604  0.2007 -0.1699
  650MOL0     C87661   1.252  11.160   0.550 -0.1585  0.6956  1.2649
  650MOL0     C87662   1.154  11.106   0.460 -0.0322 -0.7573  0.4043
  650MOL0     O87663   0.853  10.954   0.515 -0.4179 -0.2943 -0.1503
  650MOL0     C87664   0.749  10.803   0.284 -0.5852  0.3915 -0.4200
  650MOL0     C87665   0.658  10.744   0.198  0.7805  0.2049 -0.0856
  650MOL0     N87666   0.565  11.169  -0.197  0.1522 -0.4211 -0.5844
  650MOL0     N87667   0.523  11.292  -0.185 -0.6275 -0.1975 -0.5572
  650MOL0     C87668   0.402  11.036   0.436  0.4905  1.3200  0.2999
  650MOL0     C87669   0.496  10.950   0.494 -0.4767  0.7522 -0.3161
  650MOL0     C87670   0.733  10.558   0.638  0.5955  0.2727  0.5054
  650MOL0     C87671   0.844  10.635   0.666  0.7505 -0.7048  0.0203
  650MOL0     C87672   0.942  10.602   0.767 -0.1620 -0.0568  0.7131
  650MOL0     C87673   0.954  10.476   0.822 -0.2926  0.3423 -0.2675
  650MOL0     O87674   1.061  10.447   0.901 -0.1603  0.3215  0.6941
  650MOL0     C87675   1.125  10.328   0.867  0.3058 -0.2256 -0.2181
  650MOL0     C87676   1.273  10.339   0.928 -0.5166 -0.7392  0.1239
  650MOL0     C87677   1.363  10.375   0.812 -0.1494  0.3032  0.3367
  650MOL0     C87678   1.421  10.233   0.759 -0.0313  0.0154  0.4877
  650MOL0     C87679   1.503  10.259   0.637 -0.3646  0.0622  0.0407
  650MOL0     C87680   1.550  10.296   0.528 -0.2081  0.6733 -0.4870
  650MOL0     C87681   0.850  10.386   0.785  0.5319 -0.4903  0.1722
  650MOL0     C87682   0.737  10.425   0.700  0.1723 -0.9822  0.2348
  650MOL0     H87683   0.363  10.645   0.423  0.4218 -1.0810 -0.9767
  650MOL0     H87684   0.193  10.784   0.335 -0.0243  1.7869 -1.1510
  650MOL0     H87685   0.128  11.122   0.506  1.2878  0.0387 -0.5268
  650MOL0     H87686   0.206  11.231   0.410  0.6214 -0.5689 -0.5585
  650MOL0     H87687  -0.081  11.123   0.371 -2.5744  1.4632 -0.6366
  650MOL0     H87688  -0.021  11.275   0.440 -0.2931 -0.5944 -0.1932
  650MOL0     H87689  -0.061  11.168   0.164 -0.9651  0.8191 -0.0572
  650MOL0     H87690  -0.087  11.335   0.210  3.1318  1.9859 -1.1191
  650MOL0     H87691   0.168  11.369   0.210  1.5146  0.4020 -0.6611
  650MOL0     H87692   0.169  11.204   0.138  0.6639  0.4486  3.2246
  650MOL0     H87693   0.046  11.273  -0.049  0.6395 -1.8259  2.2271
  650MOL0     H87694   0.023  11.434   0.018 -1.3007 -0.5913  2.5633
  650MOL0     H87695   0.281  11.478  -0.002 -2.1611  1.8124 -0.1020
  650MOL0     H87696   0.302  11.305  -0.044 -0.6136 -1.7647 -0.5210
  650MOL0     H87697   0.171  11.351  -0.271  0.8586  0.8772 -3.1916
  650MOL0     H87698   0.174  11.530  -0.211  0.6086  0.5014 -1.8306
  650MOL0     H87699   0.406  11.543  -0.239 -0.7183  1.7596 -1.9452
  650MOL0     H87700   0.332  11.475  -0.390 -2.5090  0.7088  0.2603
  650MOL0     H87701   0.350  11.208  -0.443  2.3311  1.7521 -3.1567
  650MOL0     H87702   0.493  10.992  -0.471  0.8663 -1.6621 -0.1213
  650MOL0     H87703   0.585  10.930  -0.351 -1.7385 -1.6842  0.6371
  650MOL0     H87704   0.373  10.801  -0.366  0.8633 -0.5621  0.1908
  650MOL0     H87705   0.282  10.948  -0.339 -0.5013 -0.1396  1.3062
  650MOL0     H87706   0.289  10.805  -0.150  0.3667 -1.6990 -2.8323
  650MOL0     H87707   0.367  10.972  -0.111  0.5743 -1.5399  2.9925
  650MOL0     H87708   0.593  10.854  -0.122  1.5151 -2.6831  1.3636
  650MOL0     H87709   0.506  10.722  -0.171 -1.9157 -0.4187  0.8599
  650MOL0     H87710   0.539  11.019   0.054 -0.9367 -0.4420  0.5184
  650MOL0     H87711   0.764  11.214   0.159  0.2994 -0.7519 -0.4514
  650MOL0     H87712   0.581  11.212   0.169 -0.6576  1.9281  1.9872
  650MOL0     H87713   0.676  11.222   0.308 -2.5101  2.0071 -0.6361
  650MOL0     H87714   0.875  11.274   0.536  0.0015 -1.4014 -0.7226
  650MOL0     H87715   1.039  11.368   0.718  0.2686  0.5015 -0.6350
  650MOL0     H87716   1.338  11.476   0.816  1.1706 -0.8405  1.3531
  650MOL0     H87717   1.183  11.414   0.856  1.4487  0.1317  2.8513
  650MOL0     H87718   1.280  11.367   1.032 -2.3018  0.0898 -0.9178
  650MOL0     H87719   1.294  11.206   0.963  2.0194 -0.3004 -0.2706
  650MOL0     H87720   1.526  11.285   0.872  0.0366  0.3118 -0.6874
  650MOL0     H87721   1.499  11.211   1.019  0.3706 -1.3048 -1.8192
  650MOL0     H87722   1.501  11.518   0.998 -2.3184 -0.9172  0.7723
  650MOL0     H87723   1.513  11.424   1.147  3.2210 -1.9793  0.8680
  650MOL0     H87724   1.724  11.405   0.941 -3.2463  1.1561 -1.5587
  650MOL0     H87725   1.709  11.316   1.104 -0.8170 -0.0851 -0.1608
  650MOL0     H87726   1.743  11.611   1.079  1.0455 -0.3402 -3.5335
  650MOL0     H87727   1.766  11.515   1.224 -0.2144  0.4723 -0.2174
  650MOL0     H87728   1.961  11.507   0.976  2.1825  0.6338  0.5692
  650MOL0     H87729   1.973  11.403   1.104  0.0968 -0.4379 -3.1630
  650MOL0     H87730   2.137  11.593   1.124  0.9435 -0.6691 -0.3142
  650MOL0     H87731   2.013  11.605   1.252 -1.3356 -0.5041 -0.3309
  650MOL0     H87732   1.357  11.136   0.546 -0.5325 -1.7481  3.5068
  650MOL0     H87733   1.179  11.025   0.392 -1.6407 -1.1297  0.2344
  650MOL0     H87734   0.813  10.727   0.328  1.0141  2.0794  0.3234
  650MOL0     H87735   0.656  10.636   0.193  0.7987  0.1861  0.2886
  650MOL0     H87736   0.404  11.144   0.442  0.6052  1.2529  1.9195
  650MOL0     H87737   0.583  10.984   0.549 -0.6916 -0.6272  0.9411
  650MOL0     H87738   0.860  10.728   0.614  1.5955 -0.4161  0.7682
  650MOL0     H87739   1.030  10.664   0.782  3.8471 -3.7653 -3.8082
  650MOL0     H87740   1.068  10.247   0.912 -0.3109  0.1369 -0.3304
  650MOL0     H87741   1.129  10.311   0.759  0.3245  1.5171 -0.5237
  650MOL0     H87742   1.305  10.242   0.966 -0.0530 -0.0586  1.5255
  650MOL0     H87743   1.268  10.414   1.007  0.7824 -2.1517  1.6217
  650MOL0     H87744   1.438  10.443   0.853  0.7815 -1.0190  0.9016
  650MOL0     H87745   1.325  10.446   0.737 -1.6236  0.5756  1.3072
  650MOL0     H87746   1.337  10.172   0.724 -0.7598  1.5319 -0.5201
  650MOL0     H87747   1.467  10.174   0.840  0.8881 -0.9463 -0.6926
  650MOL0     H87748   1.608  10.324   0.442  0.8452  1.0846  0.3292
  650MOL0     H87749   0.847  10.287   0.828  0.3426  0.0892  1.5297
  650MOL0     H87750   0.665  10.346   0.683 -4.1913  2.8291 -0.6775
  651MOL0     O87751   6.155   4.693  10.991 -0.8226  0.6945 -0.0655
  651MOL0     C87752   6.183   4.810  10.963  0.4999  0.2127  0.0502
  651MOL0     O87753   6.143   4.869  10.850  0.2304 -0.4059 -0.2627
  651MOL0     C87754   6.050   4.831  10.748 -0.9737 -0.3758 -1.2978
  651MOL0     C87755   6.029   4.690  10.718  0.5864 -0.1506  0.9870
  651MOL0     C87756   5.941   4.650  10.623 -0.2304 -0.2531  0.8303
  651MOL0     C87757   5.850   4.746  10.570  0.1988  0.0163  0.0324
  651MOL0     O87758   5.743   4.708  10.487 -0.2814 -0.6637 -0.5143
  651MOL0     C87759   5.721   4.578  10.448 -0.8549  0.4246 -0.5626
  651MOL0     C87760   5.618   4.567  10.334 -0.9249  0.0911 -0.5492
  651MOL0     C87761   5.688   4.627  10.213 -0.0435  0.3137 -0.2258
  651MOL0     C87762   5.590   4.703  10.121  0.5664 -0.4044  0.8432
  651MOL0     C87763   5.563   4.851  10.153  0.6114  0.4229  0.0878
  651MOL0     C87764   5.500   4.886  10.293  0.2559  0.8505 -0.4210
  651MOL0     C87765   5.439   5.021  10.307  0.4259 -0.3159 -0.0774
  651MOL0     C87766   5.522   5.143  10.276  0.4444  0.2660 -0.3669
  651MOL0     N87767   5.645   5.152  10.351  0.1347  0.3093 -0.3967
  651MOL0     C87768   5.638   5.184  10.487 -0.1270 -0.6774 -0.3791
  651MOL0     C87769   5.768   5.206  10.519 -0.0741  0.1322 -0.5613
  651MOL0     C87770   5.807   5.236  10.662  0.0093 -1.1596  0.4473
  651MOL0     C87771   5.939   5.326  10.658  0.0658  0.4407  0.2726
  651MOL0     C87772   5.968   5.404  10.779 -0.5186 -0.3744  0.1412
  651MOL0     C87773   5.871   5.522  10.798  0.5512 -0.1517 -0.7169
  651MOL0     O87774   5.892   5.623  10.708 -0.5065 -0.0405 -0.0117
  651MOL0     C87775   5.804   5.710  10.672  0.0732  0.2203  0.2280
  651MOL0     C87776   5.842   5.802  10.577 -0.4460  0.3174  0.7083
  651MOL0     C87777   5.757   5.904  10.531  0.0578 -0.2070  0.2940
  651MOL0     C87778   5.813   6.011  10.436  0.0971  0.2358 -0.4425
  651MOL0     C87779   5.624   5.913  10.581  0.2311 -1.1557  0.6902
  651MOL0     C87780   5.521   6.015  10.528 -0.8644 -0.0169  0.2891
  651MOL0     O87781   5.389   5.976  10.509  1.1036 -0.9915  0.0402
  651MOL0     C87782   5.288   6.067  10.474  0.2133 -0.2575 -0.5681
  651MOL0     C87783   5.289   6.187  10.410 -0.8979  0.3375 -0.3567
  651MOL0     C87784   5.173   6.256  10.391 -0.7914  0.3704  0.1598
  651MOL0     C87785   5.041   6.212  10.422  0.0134 -0.4098 -0.1050
  651MOL0     O87786   4.935   6.301  10.407 -0.3150  0.2874  0.1093
  651MOL0     C87787   4.810   6.234  10.384  0.2315  0.3227  0.7713
  651MOL0     C87788   4.727   6.344  10.315 -0.3611 -0.4206 -0.2859
  651MOL0     C87789   4.750   6.341  10.162 -0.3035  0.1596  0.7133
  651MOL0     C87790   4.625   6.337  10.066  0.2937 -0.5130  0.1680
  651MOL0     C87791   4.596   6.472  10.010  0.0156 -0.2076 -1.8321
  651MOL0     C87792   4.460   6.466   9.946  1.0453  0.4265  0.7952
  651MOL0     C87793   4.395   6.611   9.923 -0.2808 -0.7306  0.0948
  651MOL0     C87794   4.350   6.672  10.055  0.2868  0.7542  0.6529
  651MOL0    Cl87795   4.232   6.795  10.034 -0.0548 -0.2803 -0.5824
  651MOL0     C87796   5.041   6.083  10.479  0.3933 -1.0303  0.1004
  651MOL0     C87797   5.164   6.012  10.505 -0.9786  0.8197  0.1123
  651MOL0     O87798   5.560   6.131  10.525 -0.1196  0.1931  0.5847
  651MOL0     C87799   5.580   5.809  10.665 -1.2681  0.2980  0.2803
  651MOL0     C87800   5.667   5.712  10.716  0.2677  0.4281  0.5201
  651MOL0     N87801   5.847   5.203  10.406 -1.4100 -0.2162 -0.1924
  651MOL0     N87802   5.769   5.180  10.304 -0.1750  0.9277  0.2770
  651MOL0     C87803   5.879   4.882  10.590 -0.0019 -0.0081  0.3135
  651MOL0     C87804   5.984   4.926  10.680 -0.5048  0.2202  0.3896
  651MOL0     C87805   6.269   4.886  11.053  0.0595 -0.1783 -0.1433
  651MOL0     C87806   6.298   5.020  11.031 -0.4192  0.3810  0.8027
  651MOL0     C87807   6.402   5.086  11.105  0.2044 -0.0018  0.1398
  651MOL0     C87808   6.452   5.027  11.223 -0.2639  0.5821 -0.0458
  651MOL0     O87809   6.549   5.094  11.287  0.2770 -0.2293  0.6648
  651MOL0     C87810   6.575   5.104  11.426 -0.3094  0.1969  0.4763
  651MOL0     C87811   6.692   5.188  11.474  0.0649 -0.2173 -0.0855
  651MOL0     C87812   6.832   5.183  11.397 -0.7593 -1.2431 -0.2429
  651MOL0     C87813   6.829   5.271  11.266  0.2102 -0.6533  1.3009
  651MOL0     C87814   6.828   5.415  11.295  0.0898 -0.1301  0.1173
  651MOL0     C87815   6.833   5.528  11.329  0.5726 -0.3987  0.1282
  651MOL0     C87816   6.404   4.896  11.262 -0.7121 -0.8929  0.4407
  651MOL0     C87817   6.322   4.827  11.167  0.0605  0.3820 -0.4154
  651MOL0     H87818   6.073   4.607  10.772 -1.4647 -0.9079  1.5524
  651MOL0     H87819   5.926   4.543  10.626  0.9126 -0.4626 -0.2164
  651MOL0     H87820   5.817   4.537  10.416 -1.2821 -1.5811  0.5791
  651MOL0     H87821   5.684   4.517  10.530 -1.7661 -2.0786 -2.6835
  651MOL0     H87822   5.601   4.460  10.317 -2.8309  0.5470 -1.8491
  651MOL0     H87823   5.523   4.614  10.362  0.5571  2.0962  1.4492
  651MOL0     H87824   5.763   4.703  10.239  2.7384 -1.6061 -2.0764
  651MOL0     H87825   5.743   4.555  10.152  2.5609  2.7734 -1.0301
  651MOL0     H87826   5.631   4.695  10.019 -1.2369 -1.8040  0.1686
  651MOL0     H87827   5.490   4.658  10.117  0.1617  0.5607 -1.4330
  651MOL0     H87828   5.658   4.904  10.141  0.1228  1.6508  1.4159
  651MOL0     H87829   5.488   4.882  10.080 -0.4598 -1.7081  0.2059
  651MOL0     H87830   5.429   4.810  10.324  1.3158 -0.6983 -1.6197
  651MOL0     H87831   5.586   4.888  10.360 -1.0361 -1.2792  1.4047
  651MOL0     H87832   5.363   5.031  10.229  1.3769  2.4969 -0.7670
  651MOL0     H87833   5.398   5.027  10.409 -1.2542  0.6285 -0.7627
  651MOL0     H87834   5.460   5.229  10.305 -0.3977 -0.6907  0.7532
  651MOL0     H87835   5.531   5.157  10.168 -0.9516  1.8145 -0.3349
  651MOL0     H87836   5.551   5.189  10.552  0.7045 -0.7411  0.7693
  651MOL0     H87837   5.722   5.272  10.721  0.1133 -1.6445  0.9026
  651MOL0     H87838   5.821   5.143  10.718 -1.2756 -0.0714  2.6950
  651MOL0     H87839   5.935   5.396  10.574 -3.3821  1.1880  0.9105
  651MOL0     H87840   6.017   5.254  10.634 -0.3974 -0.4698  1.3928
  651MOL0     H87841   6.070   5.442  10.771  0.7987 -4.0108 -2.4616
  651MOL0     H87842   5.958   5.342  10.869 -2.7187 -1.9276 -1.0938
  651MOL0     H87843   5.883   5.560  10.900  1.1596  0.6904 -1.0870
  651MOL0     H87844   5.769   5.483  10.800  0.2583  0.5488  1.9359
  651MOL0     H87845   5.939   5.783  10.531 -1.7499 -1.0228 -1.7261
  651MOL0     H87846   5.745   6.024  10.351  0.6204  2.7737 -0.5560
  651MOL0     H87847   5.821   6.104  10.493 -0.7740  0.3318 -0.4577
  651MOL0     H87848   5.910   5.987  10.393 -0.7293 -2.2562 -1.0426
  651MOL0     H87849   5.383   6.235  10.382 -0.8871 -0.5568 -1.9843
  651MOL0     H87850   5.169   6.351  10.340  0.4361 -0.3117 -1.2798
  651MOL0     H87851   4.813   6.149  10.315 -2.1213  2.8677 -2.7739
  651MOL0     H87852   4.763   6.214  10.481  0.4453  0.6513  0.9461
  651MOL0     H87853   4.622   6.318  10.332  0.3813 -3.5475  0.0016
  651MOL0     H87854   4.747   6.441  10.364  1.5571 -1.8137  1.9168
  651MOL0     H87855   4.800   6.247  10.139  4.5958  1.5281  4.2141
  651MOL0     H87856   4.818   6.422  10.135  0.6488 -0.0024  2.4913
  651MOL0     H87857   4.661   6.272   9.985 -0.6321  1.8880 -2.3551
  651MOL0     H87858   4.538   6.294  10.116 -0.1297  0.3281  0.1636
  651MOL0     H87859   4.676   6.495   9.939 -0.0933  0.7959 -1.6495
  651MOL0     H87860   4.603   6.540  10.095 -0.0980  2.5510 -3.9054
  651MOL0     H87861   4.476   6.404   9.858  1.8317 -1.2234  2.0467
  651MOL0     H87862   4.390   6.401   9.999 -0.8050 -0.6636 -2.6615
  651MOL0     H87863   4.311   6.607   9.853 -3.3461 -1.2807  3.5104
  651MOL0     H87864   4.468   6.681   9.881  0.4751 -2.4666 -1.6159
  651MOL0     H87865   4.430   6.703  10.124  0.1855  0.4541  0.9107
  651MOL0     H87866   4.307   6.591  10.116  3.0091 -1.2455  0.1429
  651MOL0     H87867   4.962   6.029  10.530  1.0494 -0.0485  2.3112
  651MOL0     H87868   5.152   5.914  10.550  1.6761 -0.9150 -2.5442
  651MOL0     H87869   5.474   5.803  10.686 -1.7879 -0.2709 -2.1216
  651MOL0     H87870   5.628   5.636  10.783 -1.2455  0.8941  0.2101
  651MOL0     H87871   5.828   4.959  10.533 -1.4545  0.9335  2.7388
  651MOL0     H87872   6.004   5.032  10.695 -2.0585  0.7829 -1.1673
  651MOL0     H87873   6.255   5.080  10.951  0.4925  0.1546  0.1369
  651MOL0     H87874   6.426   5.191  11.091 -1.5702  0.4741  0.4111
  651MOL0     H87875   6.487   5.140  11.480 -0.5739 -2.2593  1.8839
  651MOL0     H87876   6.594   5.007  11.473 -1.7052  0.5948  1.9671
  651MOL0     H87877   6.708   5.151  11.576 -2.5167 -2.3045 -0.3563
  651MOL0     H87878   6.672   5.295  11.462 -2.4967 -0.6708 -0.2913
  651MOL0     H87879   6.838   5.083  11.353 -0.1485 -1.1749 -0.3156
  651MOL0     H87880   6.914   5.204  11.465  0.3074  0.2121 -1.9042
  651MOL0     H87881   6.738   5.238  11.214  1.4565  1.8223 -2.9461
  651MOL0     H87882   6.912   5.246  11.200  0.0074 -2.7198  1.7700
  651MOL0     H87883   6.862   5.630  11.346  0.5742  0.1478 -2.6177
  651MOL0     H87884   6.461   4.852  11.343 -0.4166  1.4024  1.5486
  651MOL0     H87885   6.298   4.721  11.179  0.9038  0.2119 -0.1611
  652MOL0     O87886   4.910   5.820  11.420 -0.1394 -0.4457  0.3007
  652MOL0     C87887   4.868   5.808  11.301 -0.0998  0.4747  0.3765
  652MOL0     O87888   4.910   5.721  11.212  0.1837  0.2332  0.1351
  652MOL0     C87889   4.981   5.615  11.246 -0.0766 -0.5747 -0.7400
  652MOL0     C87890   4.931   5.492  11.215  0.5987  0.0816  0.8292
  652MOL0     C87891   5.005   5.382  11.241 -0.3000  0.9918 -0.5344
  652MOL0     C87892   5.133   5.389  11.298  0.1069 -0.4876 -0.2792
  652MOL0     O87893   5.210   5.276  11.339  0.1216  0.8656  0.7962
  652MOL0     C87894   5.164   5.143  11.312 -0.1470  0.3971 -0.5237
  652MOL0     C87895   5.258   5.045  11.377  0.5529 -0.4172 -0.8007
  652MOL0     C87896   5.251   5.045  11.536 -0.1001 -0.5132  0.9823
  652MOL0     C87897   5.383   5.085  11.602 -0.6299  0.2916  0.1498
  652MOL0     C87898   5.410   5.241  11.595 -0.4858 -0.7482 -0.2769
  652MOL0     C87899   5.293   5.318  11.683 -1.3055 -0.1935  0.6128
  652MOL0     C87900   5.332   5.465  11.685 -0.4869  0.9409 -0.8685
  652MOL0     C87901   5.214   5.547  11.716 -0.7875  0.0795  0.3605
  652MOL0     N87902   5.161   5.541  11.851  0.1324  0.9677  0.0239
  652MOL0     C87903   5.163   5.645  11.942 -0.1178 -0.6532 -0.5739
  652MOL0     C87904   5.089   5.596  12.040 -0.0382  0.1916 -0.3440
  652MOL0     C87905   5.044   5.684  12.158  0.3874  0.1325 -0.2925
  652MOL0     C87906   5.107   5.624  12.289 -0.2812  0.3237 -1.2390
  652MOL0     C87907   5.263   5.646  12.298 -0.3445 -0.3177  0.1883
  652MOL0     C87908   5.333   5.620  12.434 -0.0429  0.7741  0.2200
  652MOL0     O87909   5.476   5.652  12.420  0.3383 -0.3093  0.0625
  652MOL0     C87910   5.567   5.629  12.524  0.9112  1.0627 -0.0419
  652MOL0     C87911   5.700   5.641  12.501 -0.3472  0.4623 -0.1788
  652MOL0     C87912   5.794   5.604  12.599 -0.8504  0.0302 -0.1019
  652MOL0     C87913   5.945   5.631  12.559 -0.5801 -0.8230 -0.3460
  652MOL0     C87914   5.754   5.545  12.722 -0.3547  0.3630 -0.5249
  652MOL0     C87915   5.839   5.514  12.828  0.9371 -0.7035  0.0833
  652MOL0     O87916   5.952   5.448  12.801  0.6979  0.3196 -0.2967
  652MOL0     C87917   6.023   5.374  12.895 -0.6331  0.0901  0.2426
  652MOL0     C87918   6.151   5.428  12.931 -0.9537 -0.0361  1.0155
  652MOL0     C87919   6.225   5.382  13.041  0.3894  1.4124 -0.3188
  652MOL0     C87920   6.180   5.273  13.116  0.0407  0.5425  0.0761
  652MOL0     O87921   6.257   5.229  13.222 -0.1963 -0.6557 -0.5800
  652MOL0     C87922   6.189   5.130  13.307  0.2452  0.5970 -0.0005
  652MOL0     C87923   6.254   5.129  13.445 -0.2810  0.1451 -0.5903
  652MOL0     C87924   6.205   5.026  13.549 -0.0111 -0.3249  0.7417
  652MOL0     C87925   6.061   5.079  13.588  0.0880 -1.3579 -0.7974
  652MOL0     C87926   5.997   4.983  13.691 -0.0960  0.4850  0.7294
  652MOL0     C87927   5.868   5.030  13.755  0.4244 -0.1089 -0.2770
  652MOL0     C87928   5.774   4.915  13.808  0.1374 -0.3244  0.1430
  652MOL0     C87929   5.626   4.936  13.772  0.5252  0.4152 -0.0968
  652MOL0    Cl87930   5.502   4.842  13.877  0.3973 -0.2138 -0.0241
  652MOL0     C87931   6.065   5.204  13.067 -0.2507 -0.4570 -0.2535
  652MOL0     C87932   5.979   5.259  12.967 -1.0854  0.2758 -0.8951
  652MOL0     O87933   5.801   5.545  12.938  0.0312 -0.3360  0.5090
  652MOL0     C87934   5.623   5.525  12.741 -0.6322 -0.2835 -0.0828
  652MOL0     C87935   5.530   5.568  12.643 -0.1214  0.2361 -0.3127
  652MOL0     N87936   5.042   5.475  12.014  0.3090 -0.5274 -0.1009
  652MOL0     N87937   5.077   5.442  11.892  1.2929  0.7995  0.7536
  652MOL0     C87938   5.196   5.518  11.326  1.1068 -0.3567 -0.6037
  652MOL0     C87939   5.112   5.631  11.300  0.2214 -0.1352 -0.0687
  652MOL0     C87940   4.758   5.892  11.270 -0.2865  0.5028  0.2355
  652MOL0     C87941   4.669   5.937  11.369  0.7897  0.5970 -0.1962
  652MOL0     C87942   4.565   6.014  11.336 -0.0431 -0.4625  0.6523
  652MOL0     C87943   4.529   6.043  11.207 -0.5119  0.5711  0.1931
  652MOL0     O87944   4.427   6.125  11.176 -0.0474  0.3613 -0.2865
  652MOL0     C87945   4.468   6.245  11.112 -0.4884  0.5555  0.0968
  652MOL0     C87946   4.394   6.254  10.980 -0.5587  0.2768  0.1882
  652MOL0     C87947   4.243   6.242  10.989  0.2268 -0.2018 -0.5067
  652MOL0     C87948   4.169   6.369  11.024 -0.1766  0.3728  0.2678
  652MOL0     C87949   4.087   6.420  10.917  0.1506 -0.2716 -0.1881
  652MOL0     C87950   4.000   6.459  10.840 -0.0429  0.5810 -0.8698
  652MOL0     C87951   4.619   5.990  11.103  0.5028  0.9783  0.8986
  652MOL0     C87952   4.728   5.914  11.131 -0.1754 -0.1738 -0.0755
  652MOL0     H87953   4.837   5.498  11.162  1.5876  1.9192 -0.8818
  652MOL0     H87954   4.973   5.280  11.223  2.2910 -0.6112  2.7424
  652MOL0     H87955   5.066   5.132  11.359 -0.4784  0.6578 -1.1401
  652MOL0     H87956   5.163   5.120  11.205  0.0194 -0.8969 -0.2668
  652MOL0     H87957   5.230   4.947  11.337  4.4026 -3.1100  2.3201
  652MOL0     H87958   5.357   5.065  11.334  0.1350  2.5048 -0.5936
  652MOL0     H87959   5.162   5.096  11.575 -2.2577 -2.9077 -0.4403
  652MOL0     H87960   5.246   4.937  11.553 -1.4839 -0.5636  0.4265
  652MOL0     H87961   5.365   5.058  11.707 -1.2405 -0.4606 -0.1374
  652MOL0     H87962   5.468   5.023  11.573  0.0783  1.4402 -0.2945
  652MOL0     H87963   5.505   5.271  11.641 -0.9225  2.6550 -1.2896
  652MOL0     H87964   5.405   5.269  11.489 -3.4335  2.3690  0.4992
  652MOL0     H87965   5.200   5.297  11.629 -0.9462 -2.0300  0.6213
  652MOL0     H87966   5.289   5.265  11.779  1.8687 -3.0405 -0.6232
  652MOL0     H87967   5.406   5.480  11.764  2.2509 -0.7463 -2.9021
  652MOL0     H87968   5.369   5.492  11.585 -2.1339  0.9399 -1.5023
  652MOL0     H87969   5.138   5.534  11.638 -0.3009 -0.2306 -0.0693
  652MOL0     H87970   5.253   5.649  11.710  1.3055 -0.5340  2.1410
  652MOL0     H87971   5.199   5.748  11.934 -0.2860 -0.1672  3.0931
  652MOL0     H87972   5.088   5.781  12.135 -2.3105  1.4309 -0.3487
  652MOL0     H87973   4.937   5.700  12.173  0.8815  2.0852  1.6525
  652MOL0     H87974   5.077   5.520  12.301 -0.4878  0.7057  3.3337
  652MOL0     H87975   5.056   5.662  12.378  1.0193  0.1423 -0.3770
  652MOL0     H87976   5.282   5.745  12.254  1.9880 -0.2736  1.1240
  652MOL0     H87977   5.312   5.578  12.227  1.0375  1.1563 -0.3417
  652MOL0     H87978   5.325   5.513  12.455  0.3460  1.0815  2.2301
  652MOL0     H87979   5.287   5.681  12.513  0.0594  0.1774  0.7424
  652MOL0     H87980   5.726   5.696  12.411 -1.3458  1.8718  0.3589
  652MOL0     H87981   5.997   5.644  12.654 -1.3582 -0.0850 -0.0086
  652MOL0     H87982   5.993   5.544  12.513  0.3048 -0.7327  0.3864
  652MOL0     H87983   5.959   5.717  12.493  1.6903 -0.0266  1.0664
  652MOL0     H87984   6.184   5.518  12.880  0.3773 -1.4202 -0.7076
  652MOL0     H87985   6.309   5.440  13.076  0.3001  2.1740 -1.3187
  652MOL0     H87986   6.083   5.142  13.330  0.6617 -1.0148  3.4716
  652MOL0     H87987   6.201   5.027  13.270 -0.7076 -0.0022  1.3042
  652MOL0     H87988   6.361   5.118  13.427  0.1845  2.6542  0.2469
  652MOL0     H87989   6.248   5.229  13.490  3.1216 -0.7578  2.2917
  652MOL0     H87990   6.267   5.035  13.639 -0.7674  1.6891  1.0927
  652MOL0     H87991   6.195   4.926  13.503  1.6570 -0.6231  0.9553
  652MOL0     H87992   6.064   5.182  13.626 -0.9650 -0.8488 -2.0031
  652MOL0     H87993   6.001   5.091  13.497  1.4707  0.2484 -1.5713
  652MOL0     H87994   6.068   4.967  13.772  0.5290  1.0668  0.3090
  652MOL0     H87995   5.979   4.889  13.638 -0.6852  1.3813 -0.7042
  652MOL0     H87996   5.891   5.103  13.833  1.6305  1.2661 -1.8465
  652MOL0     H87997   5.806   5.084  13.684  0.5011 -0.8584 -0.9325
  652MOL0     H87998   5.780   4.907  13.917  0.7337 -0.5262  0.1004
  652MOL0     H87999   5.806   4.819  13.768 -0.2677 -0.7605  0.8489
  652MOL0     H88000   5.619   4.904  13.667  0.7045 -1.6970  0.4825
  652MOL0     H88001   5.602   5.042  13.767 -0.4569  0.2293  0.3989
  652MOL0     H88002   6.032   5.110  13.110  1.4915 -1.5148 -1.1468
  652MOL0     H88003   5.890   5.207  12.932  0.2372 -0.5903 -3.2069
  652MOL0     H88004   5.581   5.493  12.835 -3.0053  0.8426 -0.6874
  652MOL0     H88005   5.429   5.548  12.678 -0.0089  1.2728  0.6330
  652MOL0     H88006   5.296   5.522  11.370  0.3687 -2.3419  1.4231
  652MOL0     H88007   5.149   5.733  11.305 -0.6658  0.2201 -0.5855
  652MOL0     H88008   4.681   5.912  11.474  1.0416  0.3622 -0.2776
  652MOL0     H88009   4.485   6.056  11.397 -0.4481 -0.7253  0.3048
  652MOL0     H88010   4.428   6.324  11.176  1.0613  0.3308  1.3974
  652MOL0     H88011   4.576   6.256  11.098 -0.1396 -1.2537  0.9767
  652MOL0     H88012   4.430   6.173  10.917 -0.0435  1.0851 -0.5880
  652MOL0     H88013   4.411   6.350  10.930 -1.9359  0.1495 -0.5909
  652MOL0     H88014   4.207   6.172  11.065  2.3949 -0.5408  0.2859
  652MOL0     H88015   4.205   6.213  10.891 -3.8699 -1.1954  1.1455
  652MOL0     H88016   4.238   6.444  11.065 -1.4994  0.1430  3.1806
  652MOL0     H88017   4.111   6.339  11.112  1.4402  0.1151  1.2913
  652MOL0     H88018   3.920   6.480  10.773 -0.2958 -1.3104 -1.2189
  652MOL0     H88019   4.597   6.000  10.997 -0.6682  0.7096  1.1098
  652MOL0     H88020   4.785   5.867  11.052 -0.0946  1.2835 -0.9015
  653MOL0     O88021   5.972  11.128   6.881 -0.0356 -0.0101 -0.6235
  653MOL0     C88022   5.959  11.127   6.759 -0.8477 -0.4992 -0.3294
  653MOL0     O88023   5.842  11.090   6.692 -0.1004  0.0210  0.6019
  653MOL0     C88024   5.730  11.083   6.768  0.0714  0.1367  0.0620
  653MOL0     C88025   5.662  10.962   6.756 -0.5015  0.3212  0.1021
  653MOL0     C88026   5.531  10.947   6.804  0.9455 -1.7610  0.2271
  653MOL0     C88027   5.462  11.056   6.870 -0.4328  0.4365  0.2601
  653MOL0     O88028   5.336  11.022   6.927 -1.3632 -0.0814  0.7968
  653MOL0     C88029   5.293  11.095   7.039  0.2595 -0.2556  0.0742
  653MOL0     C88030   5.186  11.015   7.124 -0.6520  0.3611  0.3478
  653MOL0     C88031   5.047  11.063   7.080 -0.5480 -0.5622 -0.3157
  653MOL0     C88032   5.005  11.196   7.158 -0.4450 -0.6433  0.3767
  653MOL0     C88033   4.867  11.245   7.107  0.6510  0.3856 -0.1147
  653MOL0     C88034   4.851  11.396   7.126  0.0535  0.2688  0.6667
  653MOL0     C88035   4.719  11.447   7.056  1.0482 -0.3217 -0.2029
  653MOL0     C88036   4.596  11.372   7.108 -0.4058  0.3219 -0.2401
  653MOL0     N88037   4.590  11.396   7.254  0.1029 -0.0338 -0.2195
  653MOL0     C88038   4.573  11.514   7.315  1.2038  0.2947  0.0060
  653MOL0     C88039   4.613  11.504   7.439  0.7461  1.2021 -0.4341
  653MOL0     C88040   4.585  11.603   7.543 -0.1404 -0.1964  0.8001
  653MOL0     C88041   4.675  11.583   7.663 -0.3170 -0.0039  0.0178
  653MOL0     C88042   4.643  11.675   7.786 -0.6002  0.1523 -0.5210
  653MOL0     C88043   4.772  11.747   7.841 -0.4517 -0.4862 -1.0974
  653MOL0     O88044   4.733  11.822   7.954  0.8457  0.3204  0.1012
  653MOL0     C88045   4.816  11.914   8.018  0.4556 -0.1851  1.6412
  653MOL0     C88046   4.773  11.961   8.141  0.3584 -0.7190 -0.3975
  653MOL0     C88047   4.851  12.043   8.223  0.9060  0.4790  0.4564
  653MOL0     C88048   4.814  12.064   8.364  0.1577 -0.3562 -1.1197
  653MOL0     C88049   4.968  12.094   8.166 -0.0314 -0.2979  0.2411
  653MOL0     C88050   5.054  12.189   8.244 -0.2221 -0.6581  0.5773
  653MOL0     O88051   5.185  12.211   8.199 -0.5957 -0.3504  0.1174
  653MOL0     C88052   5.268  12.277   8.284 -1.2816 -0.5399  0.5371
  653MOL0     C88053   5.241  12.416   8.308 -0.1772  0.8474  0.1156
  653MOL0     C88054   5.308  12.489   8.398 -0.3087  0.1734 -0.0088
  653MOL0     C88055   5.414  12.423   8.468  0.0893  0.4651  0.4653
  653MOL0     O88056   5.474  12.496   8.564  0.2556 -0.0973  0.8695
  653MOL0     C88057   5.585  12.440   8.631  0.4175 -0.5117  0.6357
  653MOL0     C88058   5.654  12.544   8.725  0.3226 -0.1899 -0.2510
  653MOL0     C88059   5.729  12.644   8.644  0.9298  0.2230 -0.6731
  653MOL0     C88060   5.854  12.592   8.577 -0.6009  0.9548 -0.2919
  653MOL0     C88061   5.977  12.552   8.676 -0.2468 -0.1260  0.0743
  653MOL0     C88062   6.104  12.512   8.604 -0.2934 -0.2090  0.5039
  653MOL0     C88063   6.219  12.476   8.704  0.1428 -0.0572 -0.2763
  653MOL0     C88064   6.222  12.325   8.728  0.0584 -0.4069 -0.2087
  653MOL0    Cl88065   6.283  12.249   8.577 -0.0833 -0.0169 -0.0429
  653MOL0     C88066   5.434  12.278   8.452 -0.0803 -0.6694 -0.3108
  653MOL0     C88067   5.357  12.208   8.353 -0.1353  0.6404  0.3354
  653MOL0     O88068   5.004  12.244   8.342  0.8172 -0.0426  0.3969
  653MOL0     C88069   5.006  12.062   8.037  1.3338 -1.1786 -1.2161
  653MOL0     C88070   4.932  11.966   7.964 -0.5359  0.3440 -0.1484
  653MOL0     N88071   4.637  11.367   7.465  1.5374  0.6272  0.6654
  653MOL0     N88072   4.641  11.308   7.348  1.1347 -0.3489  0.2465
  653MOL0     C88073   5.528  11.185   6.872 -0.0465 -0.2944  0.0289
  653MOL0     C88074   5.660  11.198   6.820  0.2248  0.2078  0.1032
  653MOL0     C88075   6.073  11.144   6.664  0.0597 -0.4476 -0.3489
  653MOL0     C88076   6.056  11.183   6.536  1.1622  0.2671 -0.3015
  653MOL0     C88077   6.157  11.215   6.446 -0.8130 -0.2804  0.0803
  653MOL0     C88078   6.289  11.185   6.495  0.4762 -0.1092  0.0923
  653MOL0     O88079   6.404  11.214   6.418  0.3192  0.2166 -0.1694
  653MOL0     C88080   6.462  11.346   6.436  0.0694 -0.7582 -1.1709
  653MOL0     C88081   6.600  11.350   6.505  0.4170 -0.1001  0.6258
  653MOL0     C88082   6.594  11.312   6.655 -0.1992 -1.1607 -0.9595
  653MOL0     C88083   6.667  11.415   6.749  0.2115 -0.0092  0.8436
  653MOL0     C88084   6.815  11.428   6.734  0.3663 -0.3832  0.1263
  653MOL0     C88085   6.933  11.451   6.722  0.8816 -0.7298  0.6130
  653MOL0     C88086   6.309  11.133   6.627 -0.1417 -0.4636  0.2981
  653MOL0     C88087   6.198  11.118   6.711  0.7800 -0.1202 -0.2230
  653MOL0     H88088   5.717  10.887   6.700  0.5793  1.8703 -0.9944
  653MOL0     H88089   5.481  10.853   6.787 -2.3872 -0.0946 -0.0965
  653MOL0     H88090   5.381  11.107   7.103  0.6113 -2.2952  0.0267
  653MOL0     H88091   5.250  11.193   7.016 -0.2313 -0.2881  0.8155
  653MOL0     H88092   5.197  10.906   7.114 -2.1206  0.1576  0.7738
  653MOL0     H88093   5.205  11.031   7.230 -2.0898 -1.1409  0.8671
  653MOL0     H88094   5.051  11.063   6.970 -0.9078 -3.0631 -0.3832
  653MOL0     H88095   4.978  10.981   7.104  1.5081 -2.5554 -0.9115
  653MOL0     H88096   5.006  11.193   7.267 -1.1265  1.5717  0.4947
  653MOL0     H88097   5.083  11.262   7.119  0.3658 -1.4878  0.5334
  653MOL0     H88098   4.857  11.214   7.002  0.9501 -1.8077  0.4565
  653MOL0     H88099   4.788  11.194   7.163  1.6208 -1.0450 -0.0149
  653MOL0     H88100   4.850  11.424   7.232 -1.1557  0.7988  0.5385
  653MOL0     H88101   4.927  11.453   7.072  0.3976 -0.0853  0.7801
  653MOL0     H88102   4.717  11.556   7.069  3.0441 -0.4967  2.4053
  653MOL0     H88103   4.732  11.421   6.951 -1.0945  0.6393 -0.7442
  653MOL0     H88104   4.615  11.269   7.077  3.1115  1.3928 -2.0840
  653MOL0     H88105   4.507  11.400   7.051 -0.9762 -4.6325 -2.2976
  653MOL0     H88106   4.544  11.607   7.267  0.6033 -1.5178 -3.4512
  653MOL0     H88107   4.591  11.701   7.494 -0.8783  0.4543  1.9680
  653MOL0     H88108   4.482  11.598   7.579 -0.8293 -0.1594 -1.0269
  653MOL0     H88109   4.780  11.592   7.633 -0.7458 -1.8257 -2.2961
  653MOL0     H88110   4.658  11.479   7.690 -5.0792  0.1117 -1.6395
  653MOL0     H88111   4.602  11.603   7.857 -0.6582 -2.5805 -3.1145
  653MOL0     H88112   4.567  11.748   7.757  0.0015  1.0845  0.1998
  653MOL0     H88113   4.806  11.812   7.761 -2.8337  1.3676 -0.7362
  653MOL0     H88114   4.849  11.672   7.861  0.5004  0.4220 -1.2723
  653MOL0     H88115   4.679  11.916   8.171 -0.5598  0.3304 -1.5857
  653MOL0     H88116   4.902  12.040   8.425  0.3265  1.2619 -0.6846
  653MOL0     H88117   4.784  12.169   8.373  0.3003 -0.4692  1.4975
  653MOL0     H88118   4.737  11.991   8.391  0.9966 -1.9835 -2.9171
  653MOL0     H88119   5.150  12.460   8.269  0.7070  2.9043  0.2695
  653MOL0     H88120   5.293  12.596   8.409 -2.3393  0.2677 -2.6606
  653MOL0     H88121   5.553  12.359   8.697  0.8864 -0.4544  0.9369
  653MOL0     H88122   5.659  12.404   8.559  1.9968  2.8421  0.4008
  653MOL0     H88123   5.580  12.601   8.782  0.7175  2.3372 -2.0738
  653MOL0     H88124   5.726  12.497   8.792  1.9070  2.3141 -0.0729
  653MOL0     H88125   5.764  12.707   8.726 -1.0402 -0.0981  0.4794
  653MOL0     H88126   5.662  12.701   8.578  0.4486  0.5835  0.1057
  653MOL0     H88127   5.830  12.498   8.527 -0.4868  1.6563 -1.7004
  653MOL0     H88128   5.886  12.676   8.515  1.6405  1.1810  1.0545
  653MOL0     H88129   5.934  12.476   8.742 -2.2888  0.0557 -0.9677
  653MOL0     H88130   5.992  12.648   8.728 -0.2375 -0.1875  0.1857
  653MOL0     H88131   6.084  12.420   8.547  0.4899 -1.2390  1.8345
  653MOL0     H88132   6.137  12.588   8.532 -1.8946 -0.7947 -0.9219
  653MOL0     H88133   6.231  12.523   8.802  0.2274 -3.5252  1.5027
  653MOL0     H88134   6.310  12.509   8.654  1.0511 -1.3347  0.4882
  653MOL0     H88135   6.123  12.286   8.753 -0.2689  0.5532  0.0450
  653MOL0     H88136   6.287  12.314   8.815 -0.7356 -1.7240  0.2458
  653MOL0     H88137   5.505  12.213   8.500 -3.3702 -4.5966 -0.2305
  653MOL0     H88138   5.370  12.102   8.335  1.5934  0.7361  0.7814
  653MOL0     H88139   5.088  12.124   8.004  2.2185 -0.7335  1.5951
  653MOL0     H88140   4.978  11.939   7.870  0.3719 -1.9651  0.8858
  653MOL0     H88141   5.478  11.264   6.926 -0.6936 -0.3298 -0.5123
  653MOL0     H88142   5.699  11.299   6.813  1.0879 -0.2443 -2.9844
  653MOL0     H88143   5.956  11.193   6.494  1.7774 -0.5298 -2.0219
  653MOL0     H88144   6.146  11.262   6.349 -1.8371  1.2721  0.9121
  653MOL0     H88145   6.461  11.402   6.342  1.7966  2.3239  0.4885
  653MOL0     H88146   6.396  11.406   6.500  0.7578 -1.2006 -0.0209
  653MOL0     H88147   6.630  11.454   6.496 -1.0921  0.4830  1.8350
  653MOL0     H88148   6.674  11.289   6.454 -0.5300  0.1041 -1.0707
  653MOL0     H88149   6.640  11.214   6.672  2.4195 -0.0363 -1.0590
  653MOL0     H88150   6.496  11.316   6.703  1.0568 -1.7262  1.8438
  653MOL0     H88151   6.647  11.399   6.855 -0.7158  0.7446  0.7999
  653MOL0     H88152   6.613  11.506   6.720 -0.9178 -0.9251 -0.0680
  653MOL0     H88153   7.035  11.485   6.720  1.4351 -1.9970 -3.4259
  653MOL0     H88154   6.406  11.109   6.669 -1.3614 -0.3239  3.4815
  653MOL0     H88155   6.217  11.101   6.816  2.6825 -0.9007 -0.6478
  654MOL0     O88156   2.083   3.837   9.616  0.1054 -0.1105 -0.3682
  654MOL0     C88157   2.091   3.953   9.669  0.0597  0.0343 -0.0828
  654MOL0     O88158   2.188   3.994   9.763  0.4111 -0.2500  0.2849
  654MOL0     C88159   2.290   3.906   9.789 -0.0505  0.9003 -0.0192
  654MOL0     C88160   2.368   3.843   9.688 -0.5382  0.6114 -0.2764
  654MOL0     C88161   2.475   3.758   9.731  0.5237  0.7171 -0.5804
  654MOL0     C88162   2.492   3.743   9.870  0.0717  0.4942  0.0955
  654MOL0     O88163   2.605   3.679   9.911 -0.7627 -0.1141 -0.2161
  654MOL0     C88164   2.594   3.578  10.005  0.2312 -0.4614  1.1779
  654MOL0     C88165   2.730   3.562  10.061 -0.1577 -0.1054 -0.6624
  654MOL0     C88166   2.738   3.458  10.175 -0.5299  0.4738  0.2202
  654MOL0     C88167   2.875   3.454  10.248 -0.2667  0.2449  0.0615
  654MOL0     C88168   2.889   3.331  10.337 -0.3364 -0.4961 -0.0502
  654MOL0     C88169   3.033   3.347  10.404 -0.5174  0.2119  0.7626
  654MOL0     C88170   3.067   3.231  10.490  0.1050 -0.9560  0.7742
  654MOL0     C88171   3.192   3.263  10.585 -1.9152 -0.3878  0.5610
  654MOL0     N88172   3.322   3.245  10.513 -0.4887 -0.5860 -1.2281
  654MOL0     C88173   3.367   3.123  10.468 -0.4561  0.4062  0.5269
  654MOL0     C88174   3.423   3.153  10.344 -0.9466  0.1398  1.0038
  654MOL0     C88175   3.479   3.065  10.231 -0.8510 -0.5367  1.0197
  654MOL0     C88176   3.403   3.049  10.093  0.3050  0.8230  1.0650
  654MOL0     C88177   3.254   3.005  10.103  0.7182 -0.3388  0.2936
  654MOL0     C88178   3.233   2.875  10.189  0.1795  0.3270  0.2448
  654MOL0     O88179   3.098   2.864  10.243 -0.0468 -0.2812 -0.0764
  654MOL0     C88180   3.094   2.778  10.344  0.6942 -0.9178 -0.8015
  654MOL0     C88181   3.046   2.645  10.324 -0.0689  0.1155  0.0044
  654MOL0     C88182   3.020   2.567  10.437  0.3008 -0.3801 -0.2744
  654MOL0     C88183   2.978   2.422  10.429  0.0556  0.0756 -0.2380
  654MOL0     C88184   3.049   2.615  10.581 -0.2555  0.4538  0.9125
  654MOL0     C88185   3.026   2.553  10.714  0.0533  1.0084 -0.3366
  654MOL0     O88186   3.049   2.634  10.818 -0.3022  0.7392  0.6667
  654MOL0     C88187   2.996   2.598  10.940  0.2251  0.8820 -0.1984
  654MOL0     C88188   3.061   2.579  11.067 -0.1325  0.6083  0.2341
  654MOL0     C88189   2.989   2.538  11.187  0.3371 -0.6174  0.3902
  654MOL0     C88190   2.846   2.525  11.170 -0.8764  0.4485  0.0088
  654MOL0     O88191   2.755   2.490  11.266  0.5902  0.0440 -1.3236
  654MOL0     C88192   2.799   2.485  11.403 -0.6527 -0.1120  0.8933
  654MOL0     C88193   2.700   2.429  11.501  0.4806  0.1972 -0.2779
  654MOL0     C88194   2.582   2.530  11.524 -0.0828 -0.0383  0.1237
  654MOL0     C88195   2.463   2.469  11.586  0.5016 -0.2259 -1.3362
  654MOL0     C88196   2.383   2.373  11.501 -0.4017  0.4929  0.6698
  654MOL0     C88197   2.274   2.452  11.421 -0.2133 -0.5871  0.5787
  654MOL0     C88198   2.152   2.488  11.510  0.9793 -0.8655  0.1763
  654MOL0     C88199   2.035   2.545  11.437  0.4153  0.4177  0.4313
  654MOL0    Cl88200   1.937   2.651  11.544  0.3655 -0.4831  0.0138
  654MOL0     C88201   2.777   2.540  11.051 -0.7357  0.8014  0.1691
  654MOL0     C88202   2.851   2.583  10.939 -0.5631 -0.5941 -0.1811
  654MOL0     O88203   2.968   2.444  10.719 -0.9205  1.0552  0.0313
  654MOL0     C88204   3.101   2.752  10.594 -0.0978  0.5311  0.3275
  654MOL0     C88205   3.111   2.830  10.479 -1.0662  0.2080  1.2289
  654MOL0     N88206   3.415   3.296  10.336 -0.1621  0.8393 -0.2362
  654MOL0     N88207   3.351   3.344  10.428  0.8523 -0.6790 -0.0885
  654MOL0     C88208   2.423   3.803   9.969  0.3967 -0.8387  0.1172
  654MOL0     C88209   2.316   3.890   9.925  0.7192 -0.7782 -1.0881
  654MOL0     C88210   1.991   4.057   9.632 -0.1890 -0.2219 -0.9194
  654MOL0     C88211   2.003   4.187   9.677  0.3459 -0.4566  0.0722
  654MOL0     C88212   1.900   4.271   9.629 -0.0388  0.1516 -0.2154
  654MOL0     C88213   1.800   4.232   9.546  0.4408  0.4637 -0.2948
  654MOL0     O88214   1.719   4.328   9.507  0.2104 -0.6331  0.3367
  654MOL0     C88215   1.705   4.349   9.368  0.7040  1.3238 -0.8916
  654MOL0     C88216   1.654   4.500   9.357 -0.7295  0.9159 -0.1048
  654MOL0     C88217   1.733   4.599   9.443 -0.0550 -0.1974  0.2106
  654MOL0     C88218   1.662   4.732   9.465 -0.1297  0.5426  0.3122
  654MOL0     C88219   1.674   4.814   9.344 -0.1442  0.4265 -0.0327
  654MOL0     C88220   1.710   4.877   9.248 -0.4779  0.3817 -0.9321
  654MOL0     C88221   1.799   4.101   9.506 -0.0244  0.8892  0.1831
  654MOL0     C88222   1.890   4.008   9.547  1.0636 -0.8290  0.3973
  654MOL0     H88223   2.358   3.865   9.582 -0.8449 -0.6953 -0.5450
  654MOL0     H88224   2.537   3.723   9.650 -2.2397 -0.9396 -2.1566
  654MOL0     H88225   2.521   3.588  10.086 -1.0443 -2.8781  0.4505
  654MOL0     H88226   2.573   3.482   9.958  0.3308  0.5628 -1.0595
  654MOL0     H88227   2.803   3.548   9.982  1.0409 -2.7565  0.7927
  654MOL0     H88228   2.762   3.658  10.104 -0.5521 -0.9327  1.6517
  654MOL0     H88229   2.650   3.472  10.239  0.9615  1.5559  2.1454
  654MOL0     H88230   2.715   3.356  10.144 -1.1865  0.5995  0.2735
  654MOL0     H88231   2.956   3.436  10.177 -1.0434 -4.0349  0.0368
  654MOL0     H88232   2.893   3.550  10.298  1.4417 -0.0753  0.1014
  654MOL0     H88233   2.812   3.319  10.414 -0.2097  1.8173  0.5131
  654MOL0     H88234   2.888   3.245  10.269  0.6578 -1.7582  1.4623
  654MOL0     H88235   3.111   3.359  10.328 -0.2564  0.8137  1.1210
  654MOL0     H88236   3.043   3.443  10.456  1.4376  0.6217 -0.2743
  654MOL0     H88237   2.982   3.215  10.557 -1.1811 -1.4787 -0.9152
  654MOL0     H88238   3.086   3.144  10.426  1.8030 -0.2853  0.2986
  654MOL0     H88239   3.192   3.195  10.671 -1.8369 -0.8651  0.1851
  654MOL0     H88240   3.193   3.363  10.629  2.6316  0.2218 -0.4625
  654MOL0     H88241   3.358   3.024  10.510  1.5754 -0.0024  0.1310
  654MOL0     H88242   3.580   3.099  10.207  0.5796 -4.1562  1.1669
  654MOL0     H88243   3.501   2.962  10.262 -1.5879 -1.9350 -2.5636
  654MOL0     H88244   3.470   2.989  10.030  3.2967  4.0410  0.9013
  654MOL0     H88245   3.407   3.140  10.032 -1.8970 -0.1751 -0.7130
  654MOL0     H88246   3.214   2.989  10.002 -0.0549  1.9255  0.1947
  654MOL0     H88247   3.195   3.089  10.140  1.9698  1.4264 -1.5581
  654MOL0     H88248   3.304   2.868  10.272 -1.6758 -1.2342  1.7934
  654MOL0     H88249   3.258   2.786  10.132  0.3838  0.7287 -0.3002
  654MOL0     H88250   3.014   2.603  10.229  1.5511 -1.8779  0.2681
  654MOL0     H88251   2.954   2.393  10.327  1.4638 -1.2877 -0.2151
  654MOL0     H88252   3.060   2.356  10.459 -0.3750  0.0364  0.8993
  654MOL0     H88253   2.896   2.406  10.500  0.4559 -2.3968 -0.2659
  654MOL0     H88254   3.167   2.600  11.071 -0.2089  0.8980  0.8252
  654MOL0     H88255   3.040   2.521  11.281 -0.7023 -1.4923  0.8227
  654MOL0     H88256   2.883   2.415  11.404 -0.5358 -0.1706 -2.0459
  654MOL0     H88257   2.843   2.577  11.442 -0.9828  0.2229  0.4817
  654MOL0     H88258   2.652   2.338  11.462 -0.1516  1.4773 -2.7605
  654MOL0     H88259   2.752   2.408  11.595 -2.9041  0.4034  1.8017
  654MOL0     H88260   2.549   2.574  11.429 -1.2860  0.7361  0.8751
  654MOL0     H88261   2.612   2.610  11.592 -1.0301 -1.4917  2.3185
  654MOL0     H88262   2.502   2.419  11.675 -0.5153  1.1602 -0.0702
  654MOL0     H88263   2.406   2.543  11.642  0.8117 -1.8286  1.3163
  654MOL0     H88264   2.328   2.305  11.567 -1.7557  2.5109  1.6897
  654MOL0     H88265   2.440   2.310  11.432  0.2075 -0.6100  2.1021
  654MOL0     H88266   2.314   2.549  11.388 -1.2882 -0.7638 -1.4237
  654MOL0     H88267   2.249   2.390  11.334 -0.3807 -1.5708  1.3189
  654MOL0     H88268   2.184   2.569  11.576  2.1418  0.5204 -1.9687
  654MOL0     H88269   2.112   2.408  11.573  2.4827 -0.0915  2.2197
  654MOL0     H88270   1.984   2.458  11.394 -0.2124  1.5864 -1.2768
  654MOL0     H88271   2.052   2.608  11.349 -0.7355 -2.9610 -2.4827
  654MOL0     H88272   2.672   2.516  11.048 -0.1604 -2.4828  1.3568
  654MOL0     H88273   2.790   2.611  10.854 -1.0486  1.7942  0.8648
  654MOL0     H88274   3.114   2.815  10.682 -0.1180  1.6119 -0.4201
  654MOL0     H88275   3.138   2.934  10.491 -2.4741  0.6952  0.2964
  654MOL0     H88276   2.452   3.805  10.073 -1.5529  1.8330  0.7280
  654MOL0     H88277   2.258   3.948   9.996  0.6425 -1.0606 -0.9197
  654MOL0     H88278   2.085   4.230   9.733  1.2940  0.8928 -2.1899
  654MOL0     H88279   1.922   4.376   9.648 -0.2367 -0.1292  1.8650
  654MOL0     H88280   1.804   4.332   9.324  0.4574 -2.2844 -0.3311
  654MOL0     H88281   1.637   4.271   9.334  2.2971 -0.8000  0.4916
  654MOL0     H88282   1.550   4.503   9.393 -0.9589  0.4513 -0.7040
  654MOL0     H88283   1.655   4.526   9.251 -0.4659  1.3527  0.0044
  654MOL0     H88284   1.831   4.615   9.396 -0.7271  0.9257 -0.8990
  654MOL0     H88285   1.751   4.559   9.543  0.7610  0.7955  0.4826
  654MOL0     H88286   1.708   4.791   9.545  1.5341  0.1435 -0.3061
  654MOL0     H88287   1.559   4.715   9.497  0.3876  1.5301  2.7084
  654MOL0     H88288   1.744   4.948   9.175  2.2893  2.3452  2.0026
  654MOL0     H88289   1.706   4.071   9.459  0.2943 -0.4510  0.3563
  654MOL0     H88290   1.866   3.908   9.514  0.0442 -0.7985  1.0203
  655MOL0     O88291   8.303   1.586   5.316  0.3190 -0.4905 -0.8148
  655MOL0     C88292   8.231   1.509   5.260 -0.0730 -0.2795  1.1632
  655MOL0     O88293   8.121   1.443   5.311 -0.1912 -0.5088 -0.2996
  655MOL0     C88294   8.050   1.504   5.414  0.1119  0.3153 -0.3129
  655MOL0     C88295   8.032   1.638   5.440 -0.2639 -0.8249 -0.3456
  655MOL0     C88296   7.944   1.690   5.533 -0.5449  0.4817 -0.1511
  655MOL0     C88297   7.873   1.600   5.605 -0.0367 -0.3184 -0.0018
  655MOL0     O88298   7.781   1.648   5.693  0.5413 -0.1313 -0.1482
  655MOL0     C88299   7.735   1.570   5.798  0.3195  0.2554  0.3492
  655MOL0     C88300   7.623   1.646   5.868 -0.5247  0.1755  0.2090
  655MOL0     C88301   7.588   1.598   6.001 -0.1046 -0.0082  0.3562
  655MOL0     C88302   7.483   1.689   6.055  0.0178 -0.2029 -0.4334
  655MOL0     C88303   7.465   1.706   6.205  1.0466 -0.0272 -0.0940
  655MOL0     C88304   7.422   1.577   6.270 -0.2823  0.4442 -0.6981
  655MOL0     C88305   7.428   1.599   6.416  0.8214  0.1802 -0.1445
  655MOL0     C88306   7.327   1.700   6.471 -0.5062 -0.5086  1.4022
  655MOL0     N88307   7.325   1.683   6.612  0.3037  0.2665  0.0335
  655MOL0     C88308   7.404   1.754   6.705  0.4864 -0.2134  0.3204
  655MOL0     C88309   7.391   1.692   6.821 -0.8565 -0.0002  0.3289
  655MOL0     C88310   7.454   1.728   6.950 -0.1197  0.2466 -0.1478
  655MOL0     C88311   7.603   1.748   6.944 -0.5232 -0.8475 -0.9080
  655MOL0     C88312   7.652   1.709   7.085  0.1069 -0.9139  0.3983
  655MOL0     C88313   7.796   1.749   7.094  0.1992  0.3846 -0.4973
  655MOL0     O88314   7.864   1.654   7.009 -0.2536  0.6428  0.8829
  655MOL0     C88315   8.001   1.637   7.008  0.0865 -0.2494 -0.0200
  655MOL0     C88316   8.065   1.521   6.964  1.0164  0.4903 -0.1074
  655MOL0     C88317   8.203   1.515   6.929  0.0756 -0.2525 -0.4886
  655MOL0     C88318   8.237   1.383   6.877 -0.1318  0.2994  0.4763
  655MOL0     C88319   8.283   1.629   6.961  0.7579  0.5608 -0.8084
  655MOL0     C88320   8.423   1.647   6.919 -1.6074 -0.2411  0.6478
  655MOL0     O88321   8.494   1.754   6.968 -1.1622  0.3574  0.2808
  655MOL0     C88322   8.626   1.765   6.935  0.2023 -0.6071  0.0133
  655MOL0     C88323   8.649   1.849   6.824  0.1264 -0.3496 -0.2597
  655MOL0     C88324   8.781   1.855   6.771  0.2143  0.1315  0.3751
  655MOL0     C88325   8.886   1.775   6.824 -0.1940  0.4777 -0.2119
  655MOL0     O88326   9.017   1.774   6.767  0.5243 -0.1720 -0.7240
  655MOL0     C88327   9.114   1.861   6.816 -0.8496 -0.8222  0.2225
  655MOL0     C88328   9.251   1.842   6.758 -0.8321  0.2139 -0.4085
  655MOL0     C88329   9.341   1.971   6.776 -0.0024  0.6710 -0.3913
  655MOL0     C88330   9.490   1.929   6.793 -1.0560  0.1162 -0.5811
  655MOL0     C88331   9.563   1.905   6.664  0.1444  1.0826  0.6805
  655MOL0     C88332   9.494   1.810   6.566 -0.2100 -0.8389 -0.3425
  655MOL0     C88333   9.589   1.772   6.448  0.0065 -0.6102 -0.5044
  655MOL0     C88334   9.530   1.657   6.371  0.4444  0.6231 -0.1989
  655MOL0    Cl88335   9.382   1.725   6.291 -0.4324 -0.0991 -0.4705
  655MOL0     C88336   8.865   1.701   6.947 -0.1833 -0.7507 -0.3307
  655MOL0     C88337   8.728   1.700   7.002 -0.6975  0.2682  0.8831
  655MOL0     O88338   8.474   1.562   6.846  0.0320  0.1640  0.2249
  655MOL0     C88339   8.214   1.742   7.015 -0.3181  0.5948 -0.4249
  655MOL0     C88340   8.087   1.743   7.043 -0.5679 -0.4574 -0.0663
  655MOL0     N88341   7.291   1.594   6.797  0.3308 -0.5705 -0.0231
  655MOL0     N88342   7.253   1.590   6.678  0.6857 -0.2283  0.3026
  655MOL0     C88343   7.887   1.463   5.603  1.0173 -0.0559  0.0616
  655MOL0     C88344   7.978   1.422   5.505 -0.0515  0.2464  0.8112
  655MOL0     C88345   8.259   1.473   5.123  0.7445 -0.9978 -0.0169
  655MOL0     C88346   8.199   1.367   5.059  0.4041  0.4200  0.1686
  655MOL0     C88347   8.221   1.338   4.924  0.4507 -0.1152 -0.0233
  655MOL0     C88348   8.320   1.403   4.853 -0.0314 -0.9247  0.0779
  655MOL0     O88349   8.357   1.370   4.728  0.0728 -0.4903 -0.1428
  655MOL0     C88350   8.250   1.323   4.636 -0.1026 -0.2339 -0.2990
  655MOL0     C88351   8.252   1.169   4.612  0.4297  0.5971  0.5694
  655MOL0     C88352   8.333   1.118   4.490  0.9601 -0.5197 -0.5702
  655MOL0     C88353   8.267   1.146   4.357  0.2730  0.3758 -0.0261
  655MOL0     C88354   8.147   1.054   4.349 -0.0482  0.1974  0.2128
  655MOL0     C88355   8.045   0.989   4.330 -0.7234  0.3388 -0.5999
  655MOL0     C88356   8.381   1.511   4.920  0.1281  0.1757 -0.0157
  655MOL0     C88357   8.348   1.549   5.051 -0.5176 -0.7461  0.4378
  655MOL0     H88358   8.074   1.716   5.378  2.2572  0.1627  2.3328
  655MOL0     H88359   7.911   1.793   5.532 -0.1946  0.5983 -1.2054
  655MOL0     H88360   7.693   1.474   5.769  2.7011 -0.5126 -0.7907
  655MOL0     H88361   7.823   1.545   5.859 -0.7001  0.5957  2.0401
  655MOL0     H88362   7.652   1.751   5.878 -2.7441  1.3972 -3.8851
  655MOL0     H88363   7.537   1.642   5.802  0.9453 -1.9417 -1.7367
  655MOL0     H88364   7.549   1.496   5.990  2.2169 -0.8966 -0.2540
  655MOL0     H88365   7.681   1.602   6.057  1.3429 -1.0402 -1.8232
  655MOL0     H88366   7.499   1.790   6.016  0.1628  0.3726  1.0725
  655MOL0     H88367   7.380   1.665   6.026 -0.0821  1.5270 -1.6957
  655MOL0     H88368   7.566   1.734   6.237  0.9659  0.5839 -0.3686
  655MOL0     H88369   7.401   1.790   6.233  0.4829 -0.8816  1.2757
  655MOL0     H88370   7.320   1.543   6.253 -0.6761  0.4600  1.3352
  655MOL0     H88371   7.490   1.499   6.235 -0.1084  0.3436 -0.1549
  655MOL0     H88372   7.407   1.506   6.471  4.5420 -0.5067  0.4173
  655MOL0     H88373   7.527   1.624   6.454  0.2558  0.6064  1.0981
  655MOL0     H88374   7.230   1.687   6.422 -0.1520 -1.2184  0.8623
  655MOL0     H88375   7.345   1.801   6.432 -1.1426 -0.0628  2.2374
  655MOL0     H88376   7.475   1.835   6.691  1.9111 -1.1725  1.5642
  655MOL0     H88377   7.401   1.813   6.994  0.4061  1.5620 -1.9207
  655MOL0     H88378   7.427   1.649   7.020  1.1293  0.8802  1.1045
  655MOL0     H88379   7.617   1.856   6.930  0.4307 -0.7045  0.8926
  655MOL0     H88380   7.647   1.692   6.862 -2.5976 -0.5636 -2.3030
  655MOL0     H88381   7.635   1.606   7.118 -0.1613 -0.6818  0.9933
  655MOL0     H88382   7.604   1.770   7.162  0.8520 -0.0932  0.2319
  655MOL0     H88383   7.813   1.736   7.201  1.4663  2.4692 -0.3915
  655MOL0     H88384   7.819   1.849   7.055  0.8469  0.2418 -0.4986
  655MOL0     H88385   7.992   1.442   6.951  1.9938 -0.5367  0.4111
  655MOL0     H88386   8.178   1.303   6.922 -2.7908  1.8031 -0.1411
  655MOL0     H88387   8.225   1.375   6.769 -0.1072 -2.4407  0.6087
  655MOL0     H88388   8.344   1.367   6.895 -0.1432 -0.2632  0.0604
  655MOL0     H88389   8.571   1.892   6.761  0.9547 -2.5071 -2.9540
  655MOL0     H88390   8.804   1.915   6.683  0.0162  0.8121  0.7813
  655MOL0     H88391   9.075   1.963   6.806  0.7443  0.0324  1.9209
  655MOL0     H88392   9.120   1.839   6.923 -1.6876 -2.2752 -0.0085
  655MOL0     H88393   9.294   1.748   6.795 -4.1469 -1.3762 -0.2311
  655MOL0     H88394   9.229   1.834   6.651  2.8564  2.1807 -1.4917
  655MOL0     H88395   9.300   2.027   6.861 -1.4446 -0.2960 -0.4136
  655MOL0     H88396   9.322   2.037   6.691  0.3534 -1.5308 -2.2793
  655MOL0     H88397   9.544   1.990   6.866 -0.8533 -0.7885  0.0428
  655MOL0     H88398   9.486   1.834   6.846 -4.3248  0.3088 -0.2410
  655MOL0     H88399   9.664   1.865   6.682  0.7135  0.9016 -2.4343
  655MOL0     H88400   9.589   1.998   6.613  2.9729  0.6285  1.0940
  655MOL0     H88401   9.476   1.723   6.630  0.3116  0.0148  0.9992
  655MOL0     H88402   9.399   1.851   6.533  0.7348  0.7544 -1.1894
  655MOL0     H88403   9.688   1.740   6.480 -0.5874 -3.1781 -1.0267
  655MOL0     H88404   9.591   1.860   6.383 -0.2200 -1.1239 -1.2187
  655MOL0     H88405   9.500   1.573   6.434 -2.5631  1.6786 -0.1005
  655MOL0     H88406   9.597   1.623   6.291  0.2555  1.5751 -0.7673
  655MOL0     H88407   8.939   1.641   6.999  1.9297  1.4997 -0.5635
  655MOL0     H88408   8.697   1.651   7.094 -0.7092 -2.3408 -0.4088
  655MOL0     H88409   8.279   1.829   7.018  0.6328  0.3419 -5.2740
  655MOL0     H88410   8.040   1.835   7.078 -1.9335 -0.7331 -1.0911
  655MOL0     H88411   7.830   1.383   5.650 -0.1807 -0.1314 -1.4340
  655MOL0     H88412   7.992   1.314   5.496 -0.7361  0.2965 -1.3173
  655MOL0     H88413   8.124   1.309   5.111 -1.1753  2.7011  0.5837
  655MOL0     H88414   8.150   1.269   4.880  0.3154  0.1476 -0.2264
  655MOL0     H88415   8.152   1.358   4.669  0.6876 -1.2581  3.6559
  655MOL0     H88416   8.262   1.373   4.540  0.0613 -1.1836 -0.7872
  655MOL0     H88417   8.152   1.125   4.610 -0.3679  2.3155  0.5850
  655MOL0     H88418   8.306   1.122   4.694 -1.2211 -0.5451  1.0587
  655MOL0     H88419   8.356   1.013   4.503 -3.9480 -1.6562  1.0919
  655MOL0     H88420   8.423   1.180   4.492  1.2347 -0.8703  2.5412
  655MOL0     H88421   8.341   1.131   4.278  0.9623  3.7311 -0.1653
  655MOL0     H88422   8.227   1.247   4.349  2.0985  1.0084 -2.2144
  655MOL0     H88423   7.958   0.927   4.336  1.4681 -2.9126  0.6981
  655MOL0     H88424   8.466   1.559   4.871  1.9030 -2.6370  0.0711
  655MOL0     H88425   8.400   1.640   5.081 -0.9728  1.4406 -4.3300
  656MOL0     O88426  11.391   1.766   5.700 -0.2894 -0.8352 -0.2034
  656MOL0     C88427  11.292   1.825   5.652 -0.0230  1.1571  0.5033
  656MOL0     O88428  11.232   1.941   5.697 -0.2424  0.5191 -0.1135
  656MOL0     C88429  11.290   2.025   5.793  0.3652  0.5174 -0.0156
  656MOL0     C88430  11.374   1.979   5.898 -0.2721  1.0689  0.3851
  656MOL0     C88431  11.403   2.069   6.006 -0.0784  0.5164 -0.0933
  656MOL0     C88432  11.357   2.193   6.008 -0.4778  0.2606 -0.9028
  656MOL0     O88433  11.392   2.266   6.120 -0.0568  0.0972 -0.2810
  656MOL0     C88434  11.410   2.406   6.094 -0.6669 -0.1507  0.3513
  656MOL0     C88435  11.508   2.465   6.188 -0.3810 -0.4711 -0.7535
  656MOL0     C88436  11.470   2.459   6.330  0.2731 -0.4288 -0.2657
  656MOL0     C88437  11.560   2.553   6.415 -0.0736 -0.3757 -0.9828
  656MOL0     C88438  11.518   2.560   6.562 -0.3038 -0.3173 -1.1013
  656MOL0     C88439  11.607   2.657   6.645 -0.0739 -0.1404  0.1586
  656MOL0     C88440  11.566   2.663   6.799  0.6429 -0.5217 -0.4230
  656MOL0     C88441  11.589   2.793   6.870 -0.3443 -0.1818  0.2496
  656MOL0     N88442  11.722   2.847   6.833  0.5261 -0.4447  0.2858
  656MOL0     C88443  11.826   2.850   6.919 -0.2039 -0.1891 -0.4132
  656MOL0     C88444  11.928   2.926   6.868 -0.1714 -0.4838  1.0298
  656MOL0     C88445  12.064   2.961   6.931  0.0316  0.3596 -0.6174
  656MOL0     C88446  12.171   2.863   6.886  0.3633  0.4000 -0.0182
  656MOL0     C88447  12.309   2.863   6.965  0.3321 -0.8550 -1.0375
  656MOL0     C88448  12.402   2.978   6.934 -0.2317  0.6162 -0.0947
  656MOL0     O88449  12.444   2.980   6.799 -0.4893 -0.2507 -0.6244
  656MOL0     C88450  12.567   3.028   6.778 -0.2958 -0.3179  0.5959
  656MOL0     C88451  12.617   3.137   6.849  0.2163 -0.7397  0.0908
  656MOL0     C88452  12.739   3.201   6.824  0.3063 -0.1137  0.2623
  656MOL0     C88453  12.767   3.318   6.919 -0.3308 -0.3554  0.9233
  656MOL0     C88454  12.819   3.135   6.727 -0.4053  0.9637  0.0104
  656MOL0     C88455  12.957   3.168   6.707 -0.1489  0.0044 -1.2436
  656MOL0     O88456  13.027   3.205   6.824 -0.1187 -0.4544  0.2523
  656MOL0     C88457  13.156   3.251   6.800  0.5405  0.2627  0.3062
  656MOL0     C88458  13.253   3.169   6.847 -0.6751 -0.2736  0.0452
  656MOL0     C88459  13.387   3.201   6.824 -0.2258 -0.1684  0.6375
  656MOL0     C88460  13.421   3.312   6.746  0.3993  0.1461  0.4843
  656MOL0     O88461  13.545   3.337   6.693  0.0298 -0.6156  0.0892
  656MOL0     C88462  13.654   3.246   6.695 -0.0346 -0.1792  0.8602
  656MOL0     C88463  13.641   3.135   6.605  0.1374  0.9231  0.2759
  656MOL0     C88464  13.646   3.174   6.458 -1.0504 -0.8437  0.2911
  656MOL0     C88465  13.515   3.213   6.405 -0.1608 -0.3449  0.1563
  656MOL0     C88466  13.514   3.229   6.250  0.8150 -0.9997 -0.4144
  656MOL0     C88467  13.380   3.297   6.198 -0.0729  1.2032 -0.7289
  656MOL0     C88468  13.406   3.374   6.074 -0.1479  0.6917 -0.1671
  656MOL0     C88469  13.405   3.289   5.952 -0.0079  0.2297  0.1261
  656MOL0    Cl88470  13.259   3.180   5.948 -0.3503 -0.7669 -0.2163
  656MOL0     C88471  13.321   3.393   6.695  0.4135 -0.3226  0.3522
  656MOL0     C88472  13.187   3.366   6.730 -0.6963 -0.5096 -0.4356
  656MOL0     O88473  13.005   3.159   6.603 -0.1636 -0.1893  0.3377
  656MOL0     C88474  12.770   3.024   6.644 -0.1637  0.3266 -0.2104
  656MOL0     C88475  12.645   2.974   6.668  0.6962  0.3167 -0.6894
  656MOL0     N88476  11.874   2.974   6.749 -0.0506  0.2751 -0.8713
  656MOL0     N88477  11.750   2.930   6.727 -0.9482 -0.3570  0.7800
  656MOL0     C88478  11.296   2.238   5.893 -0.4549 -0.6183 -0.5292
  656MOL0     C88479  11.261   2.157   5.792 -0.4281  0.4781 -0.5869
  656MOL0     C88480  11.238   1.768   5.524  0.3732 -0.5485 -0.5922
  656MOL0     C88481  11.313   1.686   5.443  0.0787  0.9070 -0.1486
  656MOL0     C88482  11.274   1.630   5.320  0.4434 -0.3606 -0.5336
  656MOL0     C88483  11.145   1.659   5.272  0.4258 -1.1003  0.1303
  656MOL0     O88484  11.098   1.612   5.152  0.6357 -0.7182 -0.4361
  656MOL0     C88485  11.041   1.705   5.059  0.3823 -0.1359 -0.2597
  656MOL0     C88486  10.895   1.661   5.026 -0.3086  0.2034 -0.2229
  656MOL0     C88487  10.883   1.545   4.926 -0.5387 -0.3233  0.4775
  656MOL0     C88488  10.765   1.555   4.826  0.5444  0.1151  0.5005
  656MOL0     C88489  10.771   1.439   4.736  0.1329 -0.4913 -0.4816
  656MOL0     C88490  10.742   1.342   4.665  0.5420 -0.0982 -0.2326
  656MOL0     C88491  11.067   1.739   5.352 -0.1597  0.8171 -0.8667
  656MOL0     C88492  11.108   1.796   5.472  0.0865  0.7034  0.2938
  656MOL0     H88493  11.403   1.877   5.920  2.9281  2.2091  2.1311
  656MOL0     H88494  11.434   2.031   6.103 -2.9412 -1.9638  0.0002
  656MOL0     H88495  11.457   2.417   5.996  1.8072  0.1722  1.5085
  656MOL0     H88496  11.318   2.465   6.102  0.4250  1.5369  0.9477
  656MOL0     H88497  11.605   2.421   6.164  0.7305  0.3635  1.8681
  656MOL0     H88498  11.521   2.573   6.170  2.2140 -0.4859  0.6256
  656MOL0     H88499  11.366   2.486   6.351  0.7653 -0.2341  2.1912
  656MOL0     H88500  11.482   2.360   6.376 -2.6388  0.2043  2.1399
  656MOL0     H88501  11.669   2.549   6.417  0.0171  0.1862 -2.6820
  656MOL0     H88502  11.538   2.653   6.376 -1.1602  0.0833  0.7243
  656MOL0     H88503  11.413   2.588   6.575 -0.2197 -1.0721  1.9326
  656MOL0     H88504  11.532   2.464   6.611  2.2000  0.7276  0.4686
  656MOL0     H88505  11.708   2.617   6.637  0.9288  1.5256  3.0497
  656MOL0     H88506  11.601   2.751   6.591  3.5556  1.4099  2.0908
  656MOL0     H88507  11.465   2.625   6.818  0.4219  0.4774  0.4608
  656MOL0     H88508  11.642   2.592   6.834  1.5772 -0.2083 -1.7532
  656MOL0     H88509  11.576   2.769   6.976 -2.6055 -0.2468  0.0006
  656MOL0     H88510  11.508   2.862   6.843  1.1405  2.5206  2.2447
  656MOL0     H88511  11.831   2.797   7.014 -0.4834  1.3541  0.5053
  656MOL0     H88512  12.098   3.058   6.895  2.8459  0.0482  0.9281
  656MOL0     H88513  12.057   2.969   7.040  0.8217 -1.0332 -0.4453
  656MOL0     H88514  12.189   2.867   6.778  1.2159 -1.3863  0.0198
  656MOL0     H88515  12.136   2.761   6.901  0.7053  0.4832  1.4658
  656MOL0     H88516  12.365   2.781   6.918  0.1069  0.2230 -3.3377
  656MOL0     H88517  12.287   2.840   7.070  0.8015 -3.5202 -1.4359
  656MOL0     H88518  12.490   2.966   6.999 -0.0406  0.3242 -0.4058
  656MOL0     H88519  12.361   3.073   6.969 -0.8275  0.2871  0.1049
  656MOL0     H88520  12.548   3.185   6.917 -0.0278 -0.9685  0.0075
  656MOL0     H88521  12.851   3.287   6.982  1.8599 -0.6222 -1.9604
  656MOL0     H88522  12.807   3.404   6.866  1.6886 -0.9454  1.3949
  656MOL0     H88523  12.678   3.351   6.973 -0.6973  0.0623  0.0773
  656MOL0     H88524  13.231   3.082   6.908  0.0027 -0.2781  0.2978
  656MOL0     H88525  13.454   3.123   6.861 -0.3944 -0.7161 -0.1973
  656MOL0     H88526  13.745   3.306   6.686 -1.4956  1.8044 -2.6784
  656MOL0     H88527  13.661   3.194   6.791 -0.6617 -0.4761  0.7469
  656MOL0     H88528  13.725   3.067   6.623 -0.7855  0.2768  2.4231
  656MOL0     H88529  13.552   3.073   6.613  0.8880 -0.0765  1.0476
  656MOL0     H88530  13.701   3.106   6.392  0.5161  1.0692 -0.5153
  656MOL0     H88531  13.708   3.264   6.452 -0.4101 -1.3566 -1.3491
  656MOL0     H88532  13.435   3.140   6.422 -0.3856 -0.4292 -1.1235
  656MOL0     H88533  13.498   3.314   6.444  2.8006  0.7382 -1.1004
  656MOL0     H88534  13.538   3.139   6.193  1.4886 -0.0223 -1.7274
  656MOL0     H88535  13.600   3.290   6.223 -0.5055  0.7503 -0.8753
  656MOL0     H88536  13.302   3.220   6.187  2.9285 -2.0918 -0.9300
  656MOL0     H88537  13.345   3.364   6.277 -4.2450 -3.0185  1.5033
  656MOL0     H88538  13.491   3.443   6.080  0.2586  0.1359  0.5856
  656MOL0     H88539  13.323   3.446   6.067 -0.6332  0.3286  1.4028
  656MOL0     H88540  13.487   3.217   5.947  0.0160  0.3283 -1.8376
  656MOL0     H88541  13.402   3.341   5.856  1.3326 -1.3243 -0.8307
  656MOL0     H88542  13.330   3.488   6.642 -0.7420 -0.8010 -0.7506
  656MOL0     H88543  13.102   3.429   6.706  0.5471  0.9246 -1.2641
  656MOL0     H88544  12.829   2.975   6.567 -1.2808 -2.6913  0.7155
  656MOL0     H88545  12.607   2.892   6.608 -0.0049 -0.1286  0.3232
  656MOL0     H88546  11.266   2.342   5.904  1.0174 -0.3551  1.4612
  656MOL0     H88547  11.198   2.200   5.714 -1.1419 -1.9425 -1.4193
  656MOL0     H88548  11.410   1.661   5.484 -0.9257  0.3396  2.0382
  656MOL0     H88549  11.336   1.566   5.258 -0.3547 -0.9536 -0.7263
  656MOL0     H88550  11.033   1.801   5.111 -0.2518  0.3151 -1.1624
  656MOL0     H88551  11.113   1.720   4.978  1.3944  1.8592  0.9313
  656MOL0     H88552  10.841   1.742   4.976 -1.9231 -0.7082 -0.0321
  656MOL0     H88553  10.840   1.645   5.119 -1.1308  0.5383 -0.6403
  656MOL0     H88554  10.883   1.441   4.961  1.0083 -0.7573 -0.6810
  656MOL0     H88555  10.970   1.554   4.860  0.5573  1.0982  2.0340
  656MOL0     H88556  10.768   1.639   4.757 -0.5373 -0.9697 -0.9436
  656MOL0     H88557  10.671   1.561   4.883  1.4276  0.6248  1.9629
  656MOL0     H88558  10.703   1.258   4.613 -1.2600  0.8841 -0.5651
  656MOL0     H88559  10.968   1.769   5.320 -1.1593  0.6832  1.8392
  656MOL0     H88560  11.038   1.862   5.521  0.5190  1.0316  0.4686
  657MOL0     O88561   9.467   2.430   0.197 -0.9039 -0.3203 -0.4112
  657MOL0     C88562   9.344   2.404   0.202 -0.2208  0.7730  0.2386
  657MOL0     O88563   9.245   2.494   0.234 -0.3427  0.3739 -0.9394
  657MOL0     C88564   9.267   2.623   0.203 -0.9488 -0.0555 -0.2234
  657MOL0     C88565   9.183   2.676   0.109  0.0557 -0.2299 -0.6290
  657MOL0     C88566   9.189   2.808   0.065  0.1086  0.5738  0.1520
  657MOL0     C88567   9.289   2.889   0.115  0.1599 -0.0827 -0.6482
  657MOL0     O88568   9.285   3.019   0.059 -0.6074  0.5472 -0.5288
  657MOL0     C88569   9.412   3.089   0.071 -0.1288 -0.0898 -1.1350
  657MOL0     C88570   9.417   3.183  -0.047  0.3416 -0.0846  0.2205
  657MOL0     C88571   9.378   3.115  -0.178  0.3018  0.5086  0.2757
  657MOL0     C88572   9.441   3.169  -0.296 -0.2429  0.7491 -0.2334
  657MOL0     C88573   9.430   3.069  -0.417  0.6100  0.9703 -0.3374
  657MOL0     C88574   9.495   3.109  -0.553  0.5979 -0.6726 -0.3166
  657MOL0     C88575   9.506   2.997  -0.655  0.5450  0.3013  0.2370
  657MOL0     C88576   9.508   3.053  -0.794 -0.0192  0.1700 -0.3152
  657MOL0     N88577   9.487   2.969  -0.900 -0.2714  0.6643  0.0428
  657MOL0     C88578   9.359   2.921  -0.933 -0.3604 -0.5138  0.7897
  657MOL0     C88579   9.386   2.862  -1.062 -0.1368 -0.2279  0.6718
  657MOL0     C88580   9.297   2.762  -1.143  0.8833 -1.5043 -1.1702
  657MOL0     C88581   9.154   2.836  -1.136 -0.8300 -0.8089  1.0325
  657MOL0     C88582   9.048   2.765  -1.223  0.3046  0.1824 -1.0207
  657MOL0     C88583   8.912   2.845  -1.228 -0.2909 -0.1766 -0.2313
  657MOL0     O88584   8.860   2.867  -1.096 -0.4982 -0.9037  0.6366
  657MOL0     C88585   8.799   2.768  -1.019 -0.3873 -0.3754  0.2583
  657MOL0     C88586   8.773   2.641  -1.077 -0.5682 -0.3796  0.6315
  657MOL0     C88587   8.681   2.559  -1.020 -0.3986 -0.5175  0.2379
  657MOL0     C88588   8.625   2.447  -1.091 -0.2268 -0.2802  0.6007
  657MOL0     C88589   8.629   2.586  -0.894 -0.5220 -0.7780 -0.6803
  657MOL0     C88590   8.538   2.497  -0.819 -0.1865 -0.9776 -0.1738
  657MOL0     O88591   8.420   2.537  -0.763  0.6307 -0.0358  0.1189
  657MOL0     C88592   8.347   2.615  -0.840 -0.1417  0.1862  0.3378
  657MOL0     C88593   8.307   2.602  -0.965  0.0088 -0.1885  0.4082
  657MOL0     C88594   8.233   2.700  -1.039  0.6780 -0.5255 -0.5714
  657MOL0     C88595   8.213   2.829  -0.987 -0.4380 -0.2879  0.6896
  657MOL0     O88596   8.159   2.932  -1.059 -0.3270 -0.1870  0.9206
  657MOL0     C88597   8.138   2.911  -1.199  0.1566  0.3198 -0.4995
  657MOL0     C88598   8.095   3.041  -1.267  0.1700 -0.3457 -0.5943
  657MOL0     C88599   7.945   3.065  -1.242  0.2193  0.2320 -0.5834
  657MOL0     C88600   7.905   3.214  -1.239  0.4006  0.3107 -0.6702
  657MOL0     C88601   7.967   3.297  -1.126 -0.4911 -1.0519 -0.4446
  657MOL0     C88602   7.949   3.254  -0.985 -1.3164  0.4158 -0.5633
  657MOL0     C88603   8.044   3.313  -0.886  0.9761 -0.2791  0.6172
  657MOL0     C88604   7.994   3.284  -0.744  0.5061 -0.7111 -0.2248
  657MOL0    Cl88605   7.997   3.106  -0.716  0.1613 -0.2810  0.3716
  657MOL0     C88606   8.244   2.842  -0.856  0.5843 -0.0214 -0.0816
  657MOL0     C88607   8.308   2.739  -0.781  0.4518  0.5308 -0.3310
  657MOL0     O88608   8.584   2.382  -0.816  0.1943 -0.7571 -0.0567
  657MOL0     C88609   8.671   2.705  -0.823  0.3085  0.6021  0.3707
  657MOL0     C88610   8.760   2.792  -0.890 -0.7229 -0.0135  0.4322
  657MOL0     N88611   9.523   2.879  -1.091  0.4501 -0.4324 -0.0693
  657MOL0     N88612   9.576   2.952  -1.005  0.6619 -0.7085 -0.3664
  657MOL0     C88613   9.369   2.836   0.226 -0.0162 -0.8606 -0.1634
  657MOL0     C88614   9.362   2.708   0.272 -0.6924 -0.0101  0.8447
  657MOL0     C88615   9.302   2.262   0.178 -0.3188 -0.4006 -0.4149
  657MOL0     C88616   9.400   2.165   0.155 -0.4090  1.3579 -0.0889
  657MOL0     C88617   9.361   2.033   0.142  0.4879 -0.1014  0.0681
  657MOL0     C88618   9.224   2.000   0.151  0.7616 -0.5790 -0.4113
  657MOL0     O88619   9.194   1.866   0.146  0.4584 -0.4913  0.0562
  657MOL0     C88620   9.056   1.824   0.153  0.1905 -0.7808  0.2557
  657MOL0     C88621   9.042   1.670   0.168 -0.2654  0.5558 -0.4669
  657MOL0     C88622   9.132   1.584   0.072 -0.0239  0.9377  0.3919
  657MOL0     C88623   9.055   1.528  -0.050 -0.9112  0.1431 -0.5468
  657MOL0     C88624   8.982   1.625  -0.122  0.0223 -0.6592  0.2185
  657MOL0     C88625   8.920   1.709  -0.179 -1.2539  0.7800 -0.0286
  657MOL0     C88626   9.133   2.103   0.165  0.3380  0.6391  0.3523
  657MOL0     C88627   9.170   2.235   0.173  0.7842 -1.1946 -0.1643
  657MOL0     H88628   9.099   2.626   0.063 -2.5471  2.2873  1.0393
  657MOL0     H88629   9.117   2.847  -0.007 -0.0590 -0.1596 -0.0763
  657MOL0     H88630   9.423   3.145   0.165  1.1626  2.5120 -2.7440
  657MOL0     H88631   9.490   3.013   0.065 -2.4270 -2.9206  1.1889
  657MOL0     H88632   9.336   3.255  -0.035 -1.0392 -1.8075  1.6993
  657MOL0     H88633   9.518   3.226  -0.041  0.8595 -1.2119 -0.1226
  657MOL0     H88634   9.414   3.013  -0.162  1.3777  0.9101  0.5062
  657MOL0     H88635   9.269   3.121  -0.189  0.4763  2.7895 -1.0024
  657MOL0     H88636   9.400   3.268  -0.320  0.4740  0.7350 -1.6619
  657MOL0     H88637   9.548   3.185  -0.282  0.1372 -2.8820  2.4346
  657MOL0     H88638   9.465   2.969  -0.388  0.1240  0.6573 -0.8146
  657MOL0     H88639   9.328   3.037  -0.439  0.4972 -0.4658  1.8619
  657MOL0     H88640   9.432   3.185  -0.601  0.5101 -3.1021 -4.6157
  657MOL0     H88641   9.596   3.140  -0.525  1.4840 -5.4097  2.9615
  657MOL0     H88642   9.592   2.936  -0.624 -0.5705 -0.0730  2.8321
  657MOL0     H88643   9.413   2.940  -0.647  0.6295  0.1162 -0.0612
  657MOL0     H88644   9.599   3.113  -0.797 -1.1148  2.6720  4.5970
  657MOL0     H88645   9.421   3.119  -0.799  1.5952  2.8549  2.8294
  657MOL0     H88646   9.266   2.919  -0.877 -2.0160 -0.0977 -1.7439
  657MOL0     H88647   9.339   2.761  -1.243  2.9328  0.4766 -0.4322
  657MOL0     H88648   9.291   2.659  -1.108 -1.3026 -1.3604 -0.9762
  657MOL0     H88649   9.157   2.941  -1.168 -1.6259 -1.7220 -2.5191
  657MOL0     H88650   9.111   2.847  -1.036 -2.8300  0.6950  0.0985
  657MOL0     H88651   9.031   2.665  -1.184 -2.3616  1.2476  0.8388
  657MOL0     H88652   9.089   2.759  -1.324 -2.7639 -1.8630 -2.2851
  657MOL0     H88653   8.853   2.794  -1.305  1.7014  0.3524 -2.2009
  657MOL0     H88654   8.927   2.944  -1.272 -0.8652 -0.1458 -0.3579
  657MOL0     H88655   8.819   2.607  -1.169  4.0632  0.9794  2.1373
  657MOL0     H88656   8.666   2.441  -1.193  1.2815  0.1687  1.1461
  657MOL0     H88657   8.660   2.355  -1.042 -1.5515 -0.1982  1.7520
  657MOL0     H88658   8.516   2.448  -1.093 -0.3029 -2.6024 -1.4780
  657MOL0     H88659   8.333   2.508  -1.013  2.2781  0.5350  0.0777
  657MOL0     H88660   8.186   2.674  -1.133 -2.4263 -0.1143  0.7316
  657MOL0     H88661   8.233   2.885  -1.248 -1.5514 -4.8061 -1.6953
  657MOL0     H88662   8.069   2.828  -1.215 -0.5328  0.7895  0.0287
  657MOL0     H88663   8.160   3.122  -1.235  1.0295 -1.1437 -0.2716
  657MOL0     H88664   8.101   3.023  -1.374 -3.0055 -3.9766 -0.3911
  657MOL0     H88665   7.902   3.018  -1.153 -0.5305  2.5638  0.3632
  657MOL0     H88666   7.883   3.014  -1.316  0.5489 -3.4591  1.4291
  657MOL0     H88667   7.914   3.255  -1.339 -2.3661  0.9884 -0.7274
  657MOL0     H88668   7.802   3.200  -1.204  0.8678 -1.6400  0.0913
  657MOL0     H88669   7.914   3.391  -1.142  0.1090 -0.8414 -1.2880
  657MOL0     H88670   8.069   3.327  -1.151 -0.5664  0.0705  0.5325
  657MOL0     H88671   7.846   3.267  -0.951 -0.7633 -0.7809  1.7377
  657MOL0     H88672   7.968   3.146  -0.984 -2.6837  0.1499  0.7848
  657MOL0     H88673   8.053   3.418  -0.914  1.1135 -0.2668  0.7051
  657MOL0     H88674   8.138   3.256  -0.894 -1.4811 -4.4820 -1.8760
  657MOL0     H88675   7.898   3.333  -0.724  0.3954 -0.5507 -1.1110
  657MOL0     H88676   8.058   3.337  -0.674 -0.3533  1.2537 -0.8584
  657MOL0     H88677   8.210   2.935  -0.811  0.4098 -0.6449  1.0969
  657MOL0     H88678   8.320   2.756  -0.674 -0.2472 -0.2468 -0.1221
  657MOL0     H88679   8.651   2.728  -0.719  2.9004  0.2122  1.0258
  657MOL0     H88680   8.783   2.882  -0.833  0.9140 -0.0445 -0.1156
  657MOL0     H88681   9.452   2.882   0.278 -1.0472 -1.2617  1.9842
  657MOL0     H88682   9.422   2.675   0.356  2.4034  1.6988 -0.5292
  657MOL0     H88683   9.503   2.198   0.151 -0.6752  2.2647 -4.5289
  657MOL0     H88684   9.432   1.953   0.125  0.9694  0.4529 -0.5666
  657MOL0     H88685   9.015   1.871   0.243  0.5663  0.8885 -0.4029
  657MOL0     H88686   9.003   1.861   0.064 -0.6698  2.3375  1.9298
  657MOL0     H88687   8.937   1.638   0.170  0.0274 -0.7272  3.7132
  657MOL0     H88688   9.070   1.645   0.270 -0.8245  0.6672 -0.2809
  657MOL0     H88689   9.151   1.492   0.127  1.0052 -0.3225 -1.9473
  657MOL0     H88690   9.231   1.628   0.056  0.4634 -0.7383 -1.5277
  657MOL0     H88691   8.987   1.455  -0.004 -0.5742 -0.7213 -1.3942
  657MOL0     H88692   9.113   1.455  -0.108  1.4916 -0.5229  2.4206
  657MOL0     H88693   8.877   1.792  -0.230  0.2801  0.3205 -2.1800
  657MOL0     H88694   9.025   2.088   0.160  0.3928  0.6025 -1.5328
  657MOL0     H88695   9.093   2.311   0.179  2.8380  0.9033  2.5019
  658MOL0     O88696  10.468   7.056   6.863 -0.0173  0.2776  0.2011
  658MOL0     C88697  10.492   7.164   6.806  0.2429 -0.0832 -0.6598
  658MOL0     O88698  10.612   7.205   6.753  0.5419  0.4058 -1.0827
  658MOL0     C88699  10.722   7.127   6.781  0.4273  0.2038 -1.0329
  658MOL0     C88700  10.832   7.171   6.842  0.5899 -0.0766  0.1791
  658MOL0     C88701  10.941   7.077   6.866 -0.2885 -0.6209  0.1660
  658MOL0     C88702  10.929   6.944   6.830  0.1992 -0.0541  0.9742
  658MOL0     O88703  11.031   6.865   6.867  0.4443  0.5166  0.3051
  658MOL0     C88704  11.007   6.793   6.994 -0.3210 -0.4663 -0.7898
  658MOL0     C88705  11.017   6.641   6.998 -0.0183 -0.4858  0.2162
  658MOL0     C88706  10.931   6.566   6.897 -0.6982  0.1833  0.0892
  658MOL0     C88707  10.817   6.489   6.972  0.8153 -0.2829 -0.0290
  658MOL0     C88708  10.747   6.372   6.893  0.7621 -0.8895 -0.7062
  658MOL0     C88709  10.620   6.320   6.955 -0.4174  0.6955 -0.3639
  658MOL0     C88710  10.636   6.283   7.103  0.3082 -0.3296  0.4156
  658MOL0     C88711  10.523   6.191   7.162 -0.6283 -0.5889 -0.2208
  658MOL0     N88712  10.402   6.267   7.160  0.0777  0.4480 -1.2257
  658MOL0     C88713  10.314   6.275   7.055  0.4745  0.6396  0.2199
  658MOL0     C88714  10.206   6.343   7.100 -0.3237 -0.9878 -1.0276
  658MOL0     C88715  10.091   6.387   7.008 -0.2835 -1.0249  0.1087
  658MOL0     C88716   9.958   6.332   7.071 -0.2739  0.2160  0.4671
  658MOL0     C88717   9.843   6.381   6.991  0.4981  0.2120  0.5372
  658MOL0     C88718   9.720   6.288   7.015  0.7324  0.8527  0.1792
  658MOL0     O88719   9.693   6.278   7.155  0.0706 -0.1645  0.3508
  658MOL0     C88720   9.585   6.206   7.187  0.3432 -1.1317  0.4773
  658MOL0     C88721   9.566   6.194   7.322  0.5619  0.7444  0.8137
  658MOL0     C88722   9.445   6.146   7.380  0.1115 -0.4041  1.0371
  658MOL0     C88723   9.427   6.165   7.519  0.7975  0.8767 -0.0080
  658MOL0     C88724   9.338   6.096   7.294  0.3166 -0.4357  0.5496
  658MOL0     C88725   9.199   6.061   7.337  0.3464  0.3171 -0.3156
  658MOL0     O88726   9.155   6.064   7.471  0.9929 -0.4499 -0.1932
  658MOL0     C88727   9.028   6.020   7.509 -0.9040  0.7090 -0.0709
  658MOL0     C88728   8.970   6.095   7.612  0.1753 -0.8261  0.5999
  658MOL0     C88729   8.849   6.048   7.674 -0.0141 -1.0765  0.6172
  658MOL0     C88730   8.780   5.947   7.609  0.3147  0.1445 -0.3957
  658MOL0     O88731   8.663   5.901   7.644  0.7794 -0.0889 -0.0668
  658MOL0     C88732   8.594   5.970   7.754  0.8477  0.6111 -0.7575
  658MOL0     C88733   8.456   5.917   7.774  0.5358 -0.0729  0.9537
  658MOL0     C88734   8.373   5.979   7.880  0.1794  0.1931 -0.0490
  658MOL0     C88735   8.238   5.898   7.912  0.4027 -0.0468  0.3739
  658MOL0     C88736   8.144   5.961   8.022 -0.0097 -0.5254  0.2700
  658MOL0     C88737   8.005   5.890   8.006 -0.7500 -0.0518 -0.5086
  658MOL0     C88738   7.903   5.926   8.112  0.1967  0.3989  0.2299
  658MOL0     C88739   7.805   5.820   8.119  0.2474  0.1968  0.9105
  658MOL0    Cl88740   7.697   5.875   8.254  0.0006  0.4185 -0.2445
  658MOL0     C88741   8.835   5.878   7.499 -0.4507  0.5084 -0.4972
  658MOL0     C88742   8.965   5.907   7.461  1.0341  0.2909  0.7307
  658MOL0     O88743   9.131   6.010   7.244  0.6060 -0.2118 -0.2922
  658MOL0     C88744   9.375   6.093   7.155 -0.0041 -0.1279 -0.2173
  658MOL0     C88745   9.489   6.155   7.104 -0.7583  0.2673  0.0192
  658MOL0     N88746  10.232   6.373   7.234  0.5569  0.1996  0.8733
  658MOL0     N88747  10.359   6.342   7.267 -0.3040 -0.2779 -0.0186
  658MOL0     C88748  10.821   6.901   6.756  0.0363 -0.2252 -0.0609
  658MOL0     C88749  10.717   6.989   6.736 -0.8633 -0.2438  0.8253
  658MOL0     C88750  10.377   7.261   6.795 -0.2745 -0.2036 -0.1473
  658MOL0     C88751  10.251   7.219   6.768 -0.7333  0.1361 -0.5736
  658MOL0     C88752  10.147   7.314   6.772  0.8443 -0.0809 -0.1392
  658MOL0     C88753  10.169   7.447   6.802  0.1961  0.9582  0.3304
  658MOL0     O88754  10.056   7.534   6.805 -0.0997 -0.5242 -0.1462
  658MOL0     C88755  10.055   7.658   6.882  0.3495 -0.6489 -0.1759
  658MOL0     C88756  10.024   7.645   7.036 -0.1527 -0.6970 -0.3273
  658MOL0     C88757   9.893   7.559   7.060 -0.1732  0.2868 -0.3813
  658MOL0     C88758   9.871   7.509   7.205 -0.3122 -1.2765  0.4934
  658MOL0     C88759   9.861   7.615   7.311 -0.4016  0.7294 -0.4514
  658MOL0     C88760   9.847   7.709   7.393 -1.1817  0.7296 -0.4981
  658MOL0     C88761  10.300   7.491   6.815  0.1939  0.2843  0.3594
  658MOL0     C88762  10.404   7.392   6.810  0.9419  0.3815  0.2722
  658MOL0     H88763  10.851   7.273   6.873  0.7517 -1.1056  4.1580
  658MOL0     H88764  11.031   7.127   6.903 -0.7203 -0.3620  0.8899
  658MOL0     H88765  11.085   6.838   7.056  1.9933 -1.6224 -2.6681
  658MOL0     H88766  10.907   6.812   7.032  0.5362 -0.3283  1.5693
  658MOL0     H88767  11.117   6.608   6.967 -0.2020 -2.6995  1.7706
  658MOL0     H88768  10.993   6.613   7.101 -3.2156 -0.0035 -0.2951
  658MOL0     H88769  10.891   6.633   6.821  0.3461  4.9042  3.2678
  658MOL0     H88770  11.000   6.490   6.858  2.0090  2.0479  0.9442
  658MOL0     H88771  10.867   6.437   7.054  0.6377 -3.0429 -1.5354
  658MOL0     H88772  10.737   6.558   7.000  0.2170 -1.6783  1.9785
  658MOL0     H88773  10.726   6.408   6.792  1.0696  1.3420 -0.0473
  658MOL0     H88774  10.813   6.285   6.889  0.0274 -1.3924 -3.4927
  658MOL0     H88775  10.547   6.401   6.957  1.2747  2.2798 -0.4803
  658MOL0     H88776  10.577   6.234   6.902 -0.2042 -0.0950  0.6964
  658MOL0     H88777  10.719   6.212   7.099  0.9290  0.4315 -2.7540
  658MOL0     H88778  10.665   6.365   7.169 -0.5595  0.1329  0.2321
  658MOL0     H88779  10.560   6.156   7.259 -0.0194 -0.0142 -0.2439
  658MOL0     H88780  10.503   6.108   7.094 -1.5163  0.1166 -0.8392
  658MOL0     H88781  10.312   6.229   6.957 -4.9723 -5.8887  2.6080
  658MOL0     H88782  10.099   6.496   7.015  0.4110 -1.0848  0.3792
  658MOL0     H88783  10.106   6.356   6.904  0.9707 -0.6698  0.1667
  658MOL0     H88784   9.943   6.374   7.171 -0.4441  1.7688 -0.1828
  658MOL0     H88785   9.956   6.223   7.062 -3.7450  0.2388 -0.4284
  658MOL0     H88786   9.867   6.377   6.884  3.5115 -0.1001  1.1533
  658MOL0     H88787   9.824   6.487   7.011  1.8181  0.6466 -0.3558
  658MOL0     H88788   9.748   6.189   6.979 -0.5192  0.1979  0.9374
  658MOL0     H88789   9.629   6.327   6.968 -0.5531  2.6758  3.7177
  658MOL0     H88790   9.644   6.230   7.387  1.2687 -2.4940  1.9670
  658MOL0     H88791   9.409   6.065   7.559 -0.1440  1.3940  0.8946
  658MOL0     H88792   9.511   6.213   7.569  2.3677  0.9813 -2.5426
  658MOL0     H88793   9.333   6.215   7.542  0.4301  0.9736 -1.5699
  658MOL0     H88794   9.025   6.171   7.667  0.5235 -1.1060  0.6422
  658MOL0     H88795   8.797   6.098   7.755 -1.7046  1.6251 -1.9291
  658MOL0     H88796   8.658   5.954   7.841  2.2186  2.9233 -1.2731
  658MOL0     H88797   8.584   6.078   7.739  0.6478  0.6345 -0.4660
  658MOL0     H88798   8.396   5.927   7.684  0.3104  1.1602  1.2297
  658MOL0     H88799   8.459   5.808   7.791  0.1555  0.0437  1.8579
  658MOL0     H88800   8.339   6.081   7.860 -2.0024 -0.2845  0.8484
  658MOL0     H88801   8.424   5.988   7.977  0.1850 -0.6461  0.0366
  658MOL0     H88802   8.181   5.898   7.818  1.1418 -1.2763 -0.1046
  658MOL0     H88803   8.240   5.793   7.940 -0.0993 -1.3709 -3.8686
  658MOL0     H88804   8.129   6.066   7.996 -1.8164 -1.3788 -2.5161
  658MOL0     H88805   8.182   5.964   8.125 -0.9461  1.6052  0.6105
  658MOL0     H88806   7.954   5.907   7.911  0.7679 -2.4759 -1.8549
  658MOL0     H88807   8.031   5.784   7.999 -2.1012 -0.4866  0.6182
  658MOL0     H88808   7.844   6.011   8.078 -1.2320 -0.5369  0.2556
  658MOL0     H88809   7.945   5.934   8.213 -0.4013 -1.4458  0.6651
  658MOL0     H88810   7.854   5.727   8.149  0.3346  0.7069  2.4235
  658MOL0     H88811   7.753   5.810   8.024  0.3034  1.4670  0.7285
  658MOL0     H88812   8.797   5.799   7.435  0.6724 -0.7831  0.3507
  658MOL0     H88813   9.005   5.831   7.394 -2.1884 -1.1612  0.2457
  658MOL0     H88814   9.307   6.043   7.088  1.9521 -0.8526 -1.7486
  658MOL0     H88815   9.486   6.166   6.996 -1.8882 -0.0958 -0.0021
  658MOL0     H88816  10.804   6.797   6.730 -1.0447 -0.2089  0.5215
  658MOL0     H88817  10.626   6.951   6.690 -1.0840  2.3542 -1.1747
  658MOL0     H88818  10.229   7.117   6.738 -0.7714 -0.4012  1.1515
  658MOL0     H88819  10.051   7.272   6.747  2.0742 -4.3139  1.3339
  658MOL0     H88820  10.145   7.720   6.873 -2.0003  3.4040  1.5153
  658MOL0     H88821   9.980   7.731   6.849  0.9617  0.2395  0.3554
  658MOL0     H88822  10.024   7.740   7.091 -1.7730  0.8655 -2.8146
  658MOL0     H88823  10.106   7.588   7.081  1.2557  2.1842  1.0191
  658MOL0     H88824   9.901   7.476   6.989 -2.5817  1.1521 -1.7807
  658MOL0     H88825   9.805   7.621   7.042 -0.5388  0.1084  0.6909
  658MOL0     H88826   9.943   7.435   7.240  1.6408  0.4717  0.3709
  658MOL0     H88827   9.780   7.448   7.212 -0.9436 -0.4504 -0.2307
  658MOL0     H88828   9.822   7.784   7.465  2.5976  0.7602  0.9965
  658MOL0     H88829  10.321   7.597   6.822 -0.7590  1.1371 -5.2668
  658MOL0     H88830  10.504   7.430   6.827  1.9948 -1.3231 -1.6958
  659MOL0     O88831   8.311   8.940   1.431 -0.5924 -0.4779 -0.5161
  659MOL0     C88832   8.284   8.954   1.548 -0.6758  0.8607 -0.4735
  659MOL0     O88833   8.278   9.074   1.612 -0.1436 -0.1434  0.1510
  659MOL0     C88834   8.311   9.189   1.551 -0.0199  0.0877  0.2848
  659MOL0     C88835   8.405   9.202   1.445 -1.6346  0.5624 -0.6665
  659MOL0     C88836   8.440   9.316   1.381  0.9097  0.1881 -0.9210
  659MOL0     C88837   8.363   9.429   1.411  0.1101  0.3624 -0.6207
  659MOL0     O88838   8.396   9.544   1.338 -0.4231  0.4682 -0.4445
  659MOL0     C88839   8.373   9.670   1.399  0.1979  0.4005  0.3155
  659MOL0     C88840   8.456   9.774   1.319 -0.2581 -0.2871 -0.0025
  659MOL0     C88841   8.446   9.921   1.384  0.4514  0.3869  0.2630
  659MOL0     C88842   8.518   9.925   1.514 -0.0774  0.0888  0.1836
  659MOL0     C88843   8.597  10.050   1.547 -0.4599  0.1932  0.5286
  659MOL0     C88844   8.627  10.066   1.691  0.0920 -0.7853 -1.0566
  659MOL0     C88845   8.729  10.171   1.741  0.3448  0.9706 -0.1723
  659MOL0     C88846   8.655  10.306   1.767  0.0522 -0.5550 -0.3553
  659MOL0     N88847   8.741  10.429   1.764  0.2716  0.0974  1.1501
  659MOL0     C88848   8.810  10.468   1.653 -0.5204  0.1005  0.8449
  659MOL0     C88849   8.894  10.563   1.692  0.5053  0.1690 -0.3444
  659MOL0     C88850   8.977  10.637   1.603 -0.1830 -0.2692 -0.0612
  659MOL0     C88851   9.117  10.586   1.600  0.0718  0.2512  0.7255
  659MOL0     C88852   9.210  10.698   1.559  0.5883 -0.0912  0.3518
  659MOL0     C88853   9.359  10.661   1.550  0.3902 -0.5721 -1.9844
  659MOL0     O88854   9.375  10.609   1.420 -0.6399 -0.3298 -0.2595
  659MOL0     C88855   9.498  10.595   1.371  0.5611 -0.1298 -0.1466
  659MOL0     C88856   9.615  10.593   1.442 -0.5487 -0.6005 -0.0357
  659MOL0     C88857   9.732  10.569   1.384 -0.7001 -0.5231 -1.0698
  659MOL0     C88858   9.853  10.586   1.471 -0.1920 -0.1469  0.2162
  659MOL0     C88859   9.752  10.532   1.249  0.3843 -1.1412 -0.0629
  659MOL0     C88860   9.880  10.488   1.183 -0.6433  0.5800 -0.2443
  659MOL0     O88861   9.995  10.453   1.255  0.5887  0.1663  0.0352
  659MOL0     C88862  10.116  10.435   1.193 -1.2193 -0.8340  0.2918
  659MOL0     C88863  10.171  10.521   1.089  0.2916 -1.3451 -0.1712
  659MOL0     C88864  10.292  10.502   1.021  0.6154  0.0764 -0.8347
  659MOL0     C88865  10.374  10.402   1.060 -0.0958  1.1615  0.7109
  659MOL0     O88866  10.506  10.386   1.020  0.7285 -0.2948  0.4081
  659MOL0     C88867  10.555  10.450   0.891 -0.5043  0.4401 -0.4573
  659MOL0     C88868  10.685  10.378   0.856  1.3308 -0.5852 -1.0732
  659MOL0     C88869  10.774  10.455   0.760 -0.3400 -0.4703 -0.9245
  659MOL0     C88870  10.894  10.376   0.699  0.2019 -0.7520 -0.6821
  659MOL0     C88871  10.962  10.444   0.575  0.1206 -0.4735  1.0270
  659MOL0     C88872  11.077  10.369   0.513 -1.3176  0.5501 -0.3434
  659MOL0     C88873  11.182  10.466   0.449  0.7732  0.0627  0.2050
  659MOL0     C88874  11.273  10.389   0.361  0.6775 -0.2209  0.2608
  659MOL0    Cl88875  11.399  10.278   0.445  0.3991 -0.3071  0.6420
  659MOL0     C88876  10.326  10.304   1.147  0.1928 -1.0440 -0.0835
  659MOL0     C88877  10.203  10.327   1.221  0.1804 -0.0453 -0.2984
  659MOL0     O88878   9.865  10.471   1.060 -0.0871 -0.2126 -0.3591
  659MOL0     C88879   9.624  10.534   1.181 -0.1934 -0.3323  0.9381
  659MOL0     C88880   9.504  10.568   1.240 -1.6086 -0.9381  0.4618
  659MOL0     N88881   8.864  10.587   1.825 -0.2961  0.6725 -0.3971
  659MOL0     N88882   8.780  10.507   1.870 -1.0277  0.2159 -0.3497
  659MOL0     C88883   8.264   9.421   1.509  0.3008 -0.2401 -0.9380
  659MOL0     C88884   8.237   9.304   1.571 -0.2740  1.3631 -0.8886
  659MOL0     C88885   8.239   8.836   1.630  0.0371 -0.3784  0.8069
  659MOL0     C88886   8.160   8.847   1.751 -0.1933 -0.2048  0.1438
  659MOL0     C88887   8.123   8.736   1.826  0.4027 -0.0821 -1.0924
  659MOL0     C88888   8.168   8.608   1.784  0.0783 -0.1240 -0.3036
  659MOL0     O88889   8.147   8.489   1.848  0.1871  0.0838  0.1105
  659MOL0     C88890   8.090   8.482   1.977 -0.6568  0.0316  0.1545
  659MOL0     C88891   7.944   8.425   1.983  0.0010 -0.1787  0.0303
  659MOL0     C88892   7.928   8.277   1.917 -0.3740  0.5630 -0.4496
  659MOL0     C88893   7.913   8.165   2.028 -1.1296 -0.1862 -0.1341
  659MOL0     C88894   8.041   8.163   2.094  0.0734 -1.0776  0.1340
  659MOL0     C88895   8.142   8.147   2.157 -0.3353  0.1510 -0.5223
  659MOL0     C88896   8.252   8.596   1.667  0.4911 -0.3257  0.7608
  659MOL0     C88897   8.288   8.710   1.600  0.2856 -0.3776 -0.0603
  659MOL0     H88898   8.459   9.111   1.419 -0.6395  0.9447 -0.0155
  659MOL0     H88899   8.526   9.316   1.315  0.3135  0.5424 -1.7135
  659MOL0     H88900   8.265   9.681   1.386  0.0902 -1.2426 -0.4955
  659MOL0     H88901   8.406   9.681   1.503  4.5781  1.5662 -0.9894
  659MOL0     H88902   8.562   9.749   1.315 -0.3738 -1.0011  0.9309
  659MOL0     H88903   8.417   9.763   1.218 -1.2464 -3.2888  0.6029
  659MOL0     H88904   8.492   9.971   1.299 -1.1497 -2.5557 -2.5432
  659MOL0     H88905   8.340   9.949   1.391  0.7695  1.3123  1.8936
  659MOL0     H88906   8.461   9.897   1.603  0.9157  1.4601  1.2884
  659MOL0     H88907   8.596   9.849   1.515 -0.2862 -0.1419  1.6943
  659MOL0     H88908   8.687  10.033   1.487 -2.3500 -3.0555 -1.7475
  659MOL0     H88909   8.544  10.139   1.511 -2.4793 -0.8092  0.8514
  659MOL0     H88910   8.540  10.075   1.756 -0.3714  0.5104 -1.8373
  659MOL0     H88911   8.671   9.968   1.714  1.6695 -0.2264 -1.5673
  659MOL0     H88912   8.788  10.142   1.828 -0.6833  1.1291  0.6047
  659MOL0     H88913   8.806  10.178   1.665 -1.0622 -0.6153 -1.8357
  659MOL0     H88914   8.618  10.300   1.870  0.4414 -2.1222 -0.2737
  659MOL0     H88915   8.575  10.329   1.695  1.0624  4.3235 -0.2422
  659MOL0     H88916   8.813  10.428   1.553  2.3444 -0.2728  0.9921
  659MOL0     H88917   8.943  10.620   1.501  1.4063  1.0523 -0.8659
  659MOL0     H88918   8.975  10.742   1.637 -1.6115  0.0625 -1.0983
  659MOL0     H88919   9.123  10.509   1.522  4.0916  2.6812 -1.6629
  659MOL0     H88920   9.157  10.529   1.685 -1.3542 -2.0593 -0.0641
  659MOL0     H88921   9.210  10.785   1.625  2.4665 -0.5736  1.0737
  659MOL0     H88922   9.164  10.718   1.462  0.0432 -0.8194  0.4518
  659MOL0     H88923   9.388  10.594   1.631 -0.1916 -0.6439 -1.8276
  659MOL0     H88924   9.413  10.754   1.566  0.5779 -0.9000 -0.4929
  659MOL0     H88925   9.601  10.609   1.548  1.7520 -1.1222  0.4030
  659MOL0     H88926   9.885  10.485   1.498  0.7481 -0.6773 -2.5959
  659MOL0     H88927   9.916  10.638   1.399 -0.5630  0.4857  0.3475
  659MOL0     H88928   9.848  10.642   1.564  2.3936  1.7281 -0.6663
  659MOL0     H88929  10.114  10.610   1.067  0.0061 -1.2274  0.9724
  659MOL0     H88930  10.332  10.569   0.945 -0.0654  0.7432 -0.6165
  659MOL0     H88931  10.488  10.435   0.805 -0.8407  0.3656 -0.1869
  659MOL0     H88932  10.567  10.556   0.916  2.0842  0.8303 -2.9098
  659MOL0     H88933  10.746  10.341   0.940  1.4833 -5.2863 -2.9512
  659MOL0     H88934  10.664  10.283   0.806 -1.8756  0.0091 -1.0475
  659MOL0     H88935  10.818  10.545   0.804 -2.8155  0.5376 -0.3113
  659MOL0     H88936  10.713  10.479   0.672 -2.3071 -1.7943  0.0156
  659MOL0     H88937  10.980  10.369   0.767 -1.5154 -1.2395  1.5963
  659MOL0     H88938  10.854  10.276   0.676 -4.4217  0.4353  1.0696
  659MOL0     H88939  11.004  10.542   0.598 -0.8833  0.4801 -0.9631
  659MOL0     H88940  10.891  10.465   0.494  0.7764  2.0787  1.0284
  659MOL0     H88941  11.130  10.313   0.591 -0.7664  1.0387 -0.3642
  659MOL0     H88942  11.047  10.293   0.440  2.3033 -0.6523 -0.8189
  659MOL0     H88943  11.239  10.515   0.529 -1.7287  3.5400  0.1039
  659MOL0     H88944  11.133  10.542   0.389  0.8564 -1.0118 -1.2646
  659MOL0     H88945  11.343  10.452   0.305  1.6590 -1.1946  0.3424
  659MOL0     H88946  11.206  10.331   0.297  0.0834  1.3197 -0.5458
  659MOL0     H88947  10.386  10.215   1.164  2.2029 -0.0030 -1.3227
  659MOL0     H88948  10.180  10.246   1.290 -1.7043  0.0151 -0.7845
  659MOL0     H88949   9.633  10.516   1.075 -0.5707  4.4068 -0.1191
  659MOL0     H88950   9.409  10.576   1.187 -1.3377 -3.9273 -0.6463
  659MOL0     H88951   8.212   9.509   1.546 -1.0601 -1.0794 -0.7960
  659MOL0     H88952   8.153   9.297   1.639  1.9610  0.1887  1.9472
  659MOL0     H88953   8.124   8.945   1.782  0.1238  0.4178 -1.3760
  659MOL0     H88954   8.055   8.763   1.906  0.6513 -0.8489 -0.6144
  659MOL0     H88955   8.154   8.412   2.032  0.1220  1.2190  0.8195
  659MOL0     H88956   8.090   8.577   2.032  2.5380 -0.2071  0.7614
  659MOL0     H88957   7.875   8.491   1.929  0.2804  0.3518  0.3157
  659MOL0     H88958   7.915   8.415   2.088  1.3913  0.0004  0.4519
  659MOL0     H88959   8.017   8.242   1.866 -1.7490 -2.8723 -0.7094
  659MOL0     H88960   7.850   8.260   1.842  2.4793  0.8357 -3.7013
  659MOL0     H88961   7.894   8.067   1.983  1.5810 -1.4056  1.0909
  659MOL0     H88962   7.832   8.187   2.098  0.1374  2.2163  0.6929
  659MOL0     H88963   8.236   8.132   2.206 -0.8635  1.2204  0.8839
  659MOL0     H88964   8.278   8.495   1.636 -2.9061 -1.1432  0.1795
  659MOL0     H88965   8.343   8.703   1.507 -0.8673  0.6313 -0.8448
  660MOL0     O88966   7.487   4.894   2.528  0.0680  0.3563  0.2502
  660MOL0     C88967   7.390   4.957   2.482 -0.0831  0.0064  1.2650
  660MOL0     O88968   7.389   5.034   2.362 -0.1782  0.8196  0.4215
  660MOL0     C88969   7.506   5.060   2.293  0.2153  0.1628  0.1701
  660MOL0     C88970   7.622   5.092   2.354 -0.0066  1.1468 -0.9007
  660MOL0     C88971   7.735   5.121   2.277 -0.4776  0.4909 -0.2528
  660MOL0     C88972   7.735   5.134   2.141  0.8698  0.1620  0.9077
  660MOL0     O88973   7.856   5.135   2.074  0.0154  0.0223 -0.2499
  660MOL0     C88974   7.863   5.187   1.935 -0.5114 -0.2509  0.7502
  660MOL0     C88975   8.006   5.169   1.885 -0.1834 -0.0693  0.5216
  660MOL0     C88976   8.007   5.174   1.732  0.6503  0.5685 -0.5835
  660MOL0     C88977   8.141   5.151   1.683  0.0150  0.0273  0.3484
  660MOL0     C88978   8.144   5.179   1.532  0.0755 -0.2687 -0.0598
  660MOL0     C88979   8.277   5.144   1.472 -0.1119 -0.7545  1.1973
  660MOL0     C88980   8.399   5.216   1.531 -0.8434  0.2818 -0.1294
  660MOL0     C88981   8.522   5.169   1.458  0.6472  0.0603  0.4483
  660MOL0     N88982   8.647   5.231   1.498 -0.1381  0.4165 -0.1999
  660MOL0     C88983   8.749   5.229   1.415  0.1402  1.0680 -0.2852
  660MOL0     C88984   8.847   5.284   1.477 -0.2670  0.2178 -0.3212
  660MOL0     C88985   8.993   5.294   1.442 -0.5507  0.0713 -0.4034
  660MOL0     C88986   9.067   5.209   1.534 -0.5007  0.6351  0.6960
  660MOL0     C88987   9.216   5.236   1.554 -0.1546  0.6835  0.9416
  660MOL0     C88988   9.314   5.190   1.442 -0.2722  0.5572  0.2620
  660MOL0     O88989   9.451   5.196   1.482 -0.1395  0.6514 -0.7633
  660MOL0     C88990   9.510   5.083   1.523  0.7150 -0.0754 -0.4440
  660MOL0     C88991   9.568   4.986   1.446 -0.5273  1.8622 -0.3555
  660MOL0     C88992   9.641   4.872   1.510  0.7175 -0.6479  0.1889
  660MOL0     C88993   9.699   4.782   1.402  0.5523  0.4835  0.1206
  660MOL0     C88994   9.656   4.864   1.647  1.5539  1.0406  1.0824
  660MOL0     C88995   9.751   4.771   1.703  0.5352  0.9286  0.1256
  660MOL0     O88996   9.814   4.812   1.816  0.2656  0.8717 -0.3240
  660MOL0     C88997   9.888   4.718   1.892  0.0005 -0.4314 -0.5579
  660MOL0     C88998   9.891   4.729   2.034 -0.1980  0.4366 -0.5793
  660MOL0     C88999   9.977   4.658   2.112 -0.1015  0.7197  0.2930
  660MOL0     C89000  10.058   4.555   2.055  1.2780 -0.9088 -0.6800
  660MOL0     O89001  10.138   4.468   2.125  0.4543 -0.9423 -0.0539
  660MOL0     C89002  10.232   4.515   2.215  0.2384  0.0318 -0.0621
  660MOL0     C89003  10.337   4.587   2.131 -0.3080  0.4714  0.2734
  660MOL0     C89004  10.431   4.668   2.224 -0.8060  0.1625 -0.4529
  660MOL0     C89005  10.553   4.717   2.150 -0.6966  0.1880  0.3815
  660MOL0     C89006  10.644   4.809   2.235  0.1883 -0.2375  0.0124
  660MOL0     C89007  10.748   4.873   2.140 -0.5807 -0.4338 -0.0029
  660MOL0     C89008  10.839   4.981   2.211  0.5311 -0.4930  0.2472
  660MOL0     C89009  10.961   5.014   2.129  0.9494  0.5489  0.4915
  660MOL0    Cl89010  11.076   4.882   2.148 -0.3550  0.1349 -0.7122
  660MOL0     C89011  10.053   4.542   1.918 -0.2265 -0.7569 -0.4772
  660MOL0     C89012   9.973   4.629   1.840  0.2291  0.0549 -0.9026
  660MOL0     O89013   9.736   4.652   1.664 -0.2438 -0.8273  0.3494
  660MOL0     C89014   9.589   4.955   1.725  0.6087  0.1094  1.0778
  660MOL0     C89015   9.516   5.061   1.667 -0.6168 -0.0367  0.2316
  660MOL0     N89016   8.796   5.333   1.598 -0.6238  0.7770 -0.3467
  660MOL0     N89017   8.680   5.287   1.612 -0.2457 -0.1634 -0.1636
  660MOL0     C89018   7.616   5.109   2.078  0.4632  0.1928  0.7670
  660MOL0     C89019   7.507   5.067   2.149 -0.8940  1.0330  0.1226
  660MOL0     C89020   7.275   4.953   2.561 -0.0308  0.7973  0.5201
  660MOL0     C89021   7.158   4.994   2.504  0.4476 -0.2006 -0.3869
  660MOL0     C89022   7.033   4.975   2.559  0.1466  0.0322 -0.0476
  660MOL0     C89023   7.021   4.917   2.687 -0.3818  0.1233  0.4364
  660MOL0     O89024   6.895   4.910   2.750 -0.4078 -0.0275 -0.3805
  660MOL0     C89025   6.893   4.877   2.890  0.7123 -0.5788 -0.6193
  660MOL0     C89026   6.763   4.920   2.963 -0.3819  0.4873  0.1084
  660MOL0     C89027   6.638   4.898   2.897  0.4695 -0.2656 -0.8564
  660MOL0     C89028   6.527   4.860   2.997 -0.7907  0.5086  0.4276
  660MOL0     C89029   6.508   4.720   3.027 -0.0836  0.6726 -0.5559
  660MOL0     C89030   6.509   4.601   3.058  0.3914  0.7860 -0.2351
  660MOL0     C89031   7.140   4.887   2.747 -0.6184  0.9570 -0.0180
  660MOL0     C89032   7.269   4.898   2.689  1.3049  0.4072 -0.6506
  660MOL0     H89033   7.635   5.068   2.459  0.0205 -1.5511 -1.4639
  660MOL0     H89034   7.831   5.133   2.325 -0.8742 -2.1011  1.4094
  660MOL0     H89035   7.802   5.134   1.862  1.9418  0.6451 -2.1629
  660MOL0     H89036   7.823   5.288   1.922 -3.4977 -1.2018  1.7166
  660MOL0     H89037   8.064   5.257   1.916  0.5107 -0.1766 -0.4384
  660MOL0     H89038   8.057   5.075   1.904  1.1193 -0.0450 -2.4411
  660MOL0     H89039   7.949   5.085   1.708 -0.5633  0.9014  0.9284
  660MOL0     H89040   7.949   5.260   1.698  2.1682  1.6065 -0.6822
  660MOL0     H89041   8.210   5.218   1.735 -2.1444  3.0406 -0.3732
  660MOL0     H89042   8.168   5.049   1.710 -0.3691 -0.1582  0.0346
  660MOL0     H89043   8.069   5.113   1.488 -2.6806  1.7527  1.2759
  660MOL0     H89044   8.117   5.283   1.510 -2.6088 -0.6327  1.1533
  660MOL0     H89045   8.296   5.037   1.490  0.2638 -1.1558 -1.2389
  660MOL0     H89046   8.267   5.147   1.363  2.2249 -0.9535  0.9152
  660MOL0     H89047   8.380   5.323   1.517  0.9239  0.5615 -0.5498
  660MOL0     H89048   8.405   5.191   1.638  2.1719 -1.3186 -0.5907
  660MOL0     H89049   8.521   5.177   1.349 -0.1624 -2.3059  0.2276
  660MOL0     H89050   8.515   5.063   1.484 -0.5954  0.6022  2.6242
  660MOL0     H89051   8.747   5.181   1.318 -1.5766  0.5115 -0.0100
  660MOL0     H89052   9.014   5.264   1.338 -0.5342  1.7731 -0.9176
  660MOL0     H89053   9.024   5.399   1.439  1.1772 -0.3001  1.7265
  660MOL0     H89054   9.065   5.111   1.486 -0.8566  0.4791  1.0241
  660MOL0     H89055   9.030   5.204   1.637 -1.4658  0.6969  0.3612
  660MOL0     H89056   9.243   5.171   1.638  0.3602  0.7959  0.8609
  660MOL0     H89057   9.225   5.345   1.557  1.2093  0.6447 -0.5036
  660MOL0     H89058   9.298   5.266   1.365 -0.3989  2.0700  1.7278
  660MOL0     H89059   9.297   5.089   1.403 -0.2331 -0.0481  1.7414
  660MOL0     H89060   9.558   4.989   1.338 -3.6641  3.3345 -0.1326
  660MOL0     H89061   9.643   4.689   1.415 -2.2349  1.8464 -1.2531
  660MOL0     H89062   9.679   4.805   1.297  0.5513  0.4668  0.1168
  660MOL0     H89063   9.807   4.769   1.413  0.7365  1.3414 -0.5677
  660MOL0     H89064   9.836   4.811   2.080  1.5843  1.9381 -0.9927
  660MOL0     H89065   9.974   4.681   2.218  1.1511  0.6161  0.3674
  660MOL0     H89066  10.185   4.593   2.275 -1.9203 -1.0841 -0.2270
  660MOL0     H89067  10.269   4.428   2.270 -0.1073 -0.8594 -1.2060
  660MOL0     H89068  10.392   4.506   2.083  1.0686  2.5590 -1.9135
  660MOL0     H89069  10.294   4.660   2.061 -0.9126  0.9187  1.0923
  660MOL0     H89070  10.453   4.611   2.314  2.8948  1.1485 -0.5579
  660MOL0     H89071  10.375   4.756   2.257 -1.7759 -1.2881  1.9715
  660MOL0     H89072  10.610   4.633   2.109 -1.9753 -0.2743 -0.4857
  660MOL0     H89073  10.522   4.784   2.069 -1.0777 -1.3727 -0.7970
  660MOL0     H89074  10.704   4.749   2.305 -0.1802 -1.1755 -0.4622
  660MOL0     H89075  10.583   4.888   2.280 -0.0840 -1.1624  1.3352
  660MOL0     H89076  10.815   4.796   2.100 -1.8404 -1.5418 -0.0834
  660MOL0     H89077  10.697   4.919   2.055 -2.7405 -1.2036  0.7895
  660MOL0     H89078  10.871   4.938   2.307  1.2980  0.8644  0.6257
  660MOL0     H89079  10.775   5.068   2.227  2.5220  1.0921 -0.0194
  660MOL0     H89080  10.999   5.111   2.161 -1.8041  1.9707 -0.2662
  660MOL0     H89081  10.930   5.023   2.025 -0.9465 -1.5678  0.7911
  660MOL0     H89082  10.124   4.471   1.878  0.5117 -1.4350  1.8998
  660MOL0     H89083   9.978   4.613   1.733 -2.3091 -1.8953 -0.8210
  660MOL0     H89084   9.600   4.951   1.833 -0.5176 -0.2018  1.1907
  660MOL0     H89085   9.461   5.131   1.728  0.5002  0.6368  0.4767
  660MOL0     H89086   7.593   5.107   1.972 -0.8696  0.0825  1.0330
  660MOL0     H89087   7.411   5.044   2.104 -1.0042  3.3259 -0.9458
  660MOL0     H89088   7.156   5.030   2.401  0.8373 -0.1639 -0.3812
  660MOL0     H89089   6.948   5.016   2.507  1.6581  1.7049 -1.3500
  660MOL0     H89090   6.893   4.768   2.903 -0.6811 -0.4940  0.2937
  660MOL0     H89091   6.972   4.940   2.932 -0.5497  2.1412 -2.0979
  660MOL0     H89092   6.773   5.029   2.972 -0.4222  0.3402  2.2886
  660MOL0     H89093   6.760   4.876   3.063 -0.5590  0.2429 -0.0042
  660MOL0     H89094   6.650   4.815   2.827 -0.3468  0.3775 -1.7814
  660MOL0     H89095   6.593   4.979   2.838  0.7154 -0.1055 -0.8294
  660MOL0     H89096   6.437   4.901   2.950  0.7338  1.5566 -1.7615
  660MOL0     H89097   6.549   4.903   3.095 -1.3639 -1.8600  1.6479
  660MOL0     H89098   6.516   4.500   3.095 -0.2620  0.8635  0.1259
  660MOL0     H89099   7.133   4.850   2.849  0.3873 -1.3536 -0.7046
  660MOL0     H89100   7.355   4.852   2.737 -0.9938 -4.7888 -0.7748
  661MOL0     O89101   7.503   9.823   9.390 -0.8957 -1.2057  0.1137
  661MOL0     C89102   7.573   9.749   9.320  0.0572 -0.0204 -0.3775
  661MOL0     O89103   7.571   9.750   9.182 -0.1300  0.6668  0.3433
  661MOL0     C89104   7.475   9.825   9.110 -0.3269 -0.2885 -0.7696
  661MOL0     C89105   7.456   9.960   9.144  0.4794  0.8502  0.0882
  661MOL0     C89106   7.374  10.042   9.057  0.0419  0.4046 -0.5490
  661MOL0     C89107   7.314   9.985   8.948  0.8858  0.1940 -0.1613
  661MOL0     O89108   7.236  10.062   8.859  0.3009 -0.1910 -0.3093
  661MOL0     C89109   7.220  10.204   8.879 -0.4292  0.3543  0.3607
  661MOL0     C89110   7.129  10.260   8.762  0.6055 -0.1764  0.1084
  661MOL0     C89111   6.977  10.210   8.758  0.0258  0.0564 -0.7130
  661MOL0     C89112   6.899  10.306   8.852 -0.7367  0.1925  0.3943
  661MOL0     C89113   6.752  10.268   8.881 -0.3311  0.2369  0.1669
  661MOL0     C89114   6.674  10.303   8.759 -0.5456 -0.1356 -0.0402
  661MOL0     C89115   6.546  10.240   8.768  0.3532  0.4419  1.1109
  661MOL0     C89116   6.435  10.297   8.682  1.3246  0.3840 -0.1543
  661MOL0     N89117   6.422  10.438   8.712  0.7407 -0.6680 -0.6873
  661MOL0     C89118   6.359  10.488   8.826 -0.3307  0.1263  0.1112
  661MOL0     C89119   6.369  10.625   8.804  1.0241  0.0533  0.7498
  661MOL0     C89120   6.288  10.736   8.882 -0.1239  0.2759 -0.5821
  661MOL0     C89121   6.348  10.768   9.023  0.2273 -0.0325 -0.8782
  661MOL0     C89122   6.496  10.767   9.034 -0.3352 -0.0359 -0.7375
  661MOL0     C89123   6.546  10.625   9.061 -0.3489  0.2054 -0.8162
  661MOL0     O89124   6.681  10.625   9.109  0.7204  0.4885  0.4033
  661MOL0     C89125   6.781  10.635   9.017 -0.4342 -0.9998 -0.2531
  661MOL0     C89126   6.902  10.606   9.079  0.0603  0.2964  0.0827
  661MOL0     C89127   7.021  10.609   9.000 -0.8276  0.7839  0.6954
  661MOL0     C89128   7.152  10.566   9.068 -0.0260  0.1914  0.2747
  661MOL0     C89129   7.023  10.639   8.861  0.0019  0.0491 -1.0668
  661MOL0     C89130   7.138  10.620   8.759 -0.9736 -0.8351 -0.2802
  661MOL0     O89131   7.113  10.628   8.632  0.4514  0.4092  0.6539
  661MOL0     C89132   7.220  10.636   8.553  0.1411  0.6994 -0.7984
  661MOL0     C89133   7.290  10.764   8.541  0.9708 -0.4983  0.1888
  661MOL0     C89134   7.404  10.762   8.454 -0.0809 -0.6858 -0.8656
  661MOL0     C89135   7.451  10.645   8.395  1.9124  0.4242 -0.6957
  661MOL0     O89136   7.563  10.664   8.319  0.1382 -0.2302  0.4034
  661MOL0     C89137   7.637  10.550   8.289 -0.1912 -0.0498  1.2007
  661MOL0     C89138   7.756  10.598   8.191 -0.1235 -0.0623 -0.2868
  661MOL0     C89139   7.821  10.467   8.147 -0.7287 -0.2961 -0.9660
  661MOL0     C89140   7.952  10.474   8.070 -0.0929 -0.1006  0.8997
  661MOL0     C89141   7.942  10.548   7.928 -0.1303  0.1003 -0.2446
  661MOL0     C89142   8.060  10.529   7.830  0.5325 -0.3927 -0.0070
  661MOL0     C89143   8.025  10.618   7.698 -0.8702  0.2111  0.6921
  661MOL0     C89144   8.144  10.693   7.630  0.4899 -0.2822 -0.2360
  661MOL0    Cl89145   8.259  10.564   7.590 -0.4086 -0.0414  0.0720
  661MOL0     C89146   7.383  10.525   8.421  0.2478  1.0382 -1.3279
  661MOL0     C89147   7.258  10.528   8.481  0.0425  0.0398  0.4944
  661MOL0     O89148   7.248  10.597   8.806  0.3214 -0.5847  0.1830
  661MOL0     C89149   6.905  10.688   8.813  0.3076  0.3992  0.0993
  661MOL0     C89150   6.785  10.682   8.886  0.6507  0.1350 -0.1474
  661MOL0     N89151   6.435  10.654   8.683 -0.5873 -0.4794 -1.5706
  661MOL0     N89152   6.470  10.541   8.635 -0.7463 -0.2401  0.3178
  661MOL0     C89153   7.329   9.851   8.916  0.8292 -1.0488  0.5709
  661MOL0     C89154   7.404   9.770   9.000 -0.2535  0.0606  0.3973
  661MOL0     C89155   7.675   9.672   9.391 -0.7496 -0.0406  0.4521
  661MOL0     C89156   7.711   9.713   9.523 -0.0202  0.6870  0.2380
  661MOL0     C89157   7.815   9.648   9.582 -1.3374  1.0506  0.1822
  661MOL0     C89158   7.881   9.538   9.518 -0.3235  0.6759 -0.2896
  661MOL0     O89159   7.968   9.458   9.586  0.2461  0.3547  0.0419
  661MOL0     C89160   7.969   9.321   9.552 -0.8724  0.4168 -0.6706
  661MOL0     C89161   7.851   9.243   9.612 -0.8935 -0.3307 -0.6147
  661MOL0     C89162   7.886   9.093   9.610  0.2923  0.0134 -0.3784
  661MOL0     C89163   7.769   9.032   9.703 -1.0416 -0.5375  0.4350
  661MOL0     C89164   7.769   8.884   9.697 -0.0580 -0.0755  0.3366
  661MOL0     C89165   7.796   8.762   9.688 -0.4767  0.5230  0.0921
  661MOL0     C89166   7.836   9.496   9.391 -0.4025 -0.4324  0.7666
  661MOL0     C89167   7.746   9.565   9.328  0.4607 -1.0981  0.1953
  661MOL0     H89168   7.503  10.008   9.229 -0.9223 -0.4250  1.6632
  661MOL0     H89169   7.375  10.147   9.085  1.3720  0.2362  0.1320
  661MOL0     H89170   7.171  10.211   8.977  1.2342 -2.4671  1.5023
  661MOL0     H89171   7.317  10.254   8.882  0.7496 -1.8510  1.2290
  661MOL0     H89172   7.134  10.369   8.749 -0.9305  0.0954  1.5241
  661MOL0     H89173   7.172  10.227   8.667 -1.7499  1.5606 -1.6902
  661MOL0     H89174   6.949  10.208   8.652  0.3640 -0.3481 -0.7997
  661MOL0     H89175   6.973  10.105   8.788  3.2618  0.2290  0.7704
  661MOL0     H89176   6.956  10.308   8.946 -1.1545  1.8599  0.6495
  661MOL0     H89177   6.898  10.411   8.822 -3.4724  0.7411  2.0304
  661MOL0     H89178   6.731  10.165   8.910 -1.4148  0.7258  1.2183
  661MOL0     H89179   6.720  10.337   8.960 -3.2991 -1.4308  0.5967
  661MOL0     H89180   6.667  10.412   8.749 -1.4736 -0.1878 -0.0427
  661MOL0     H89181   6.733  10.261   8.677 -0.2303 -0.1836  0.2092
  661MOL0     H89182   6.545  10.131   8.768 -2.3111  0.3166 -2.1705
  661MOL0     H89183   6.512  10.262   8.870  0.4756 -0.9081  1.4608
  661MOL0     H89184   6.350  10.239   8.719 -0.3633  3.1856  0.6958
  661MOL0     H89185   6.449  10.272   8.576 -1.1048 -4.2649  0.3721
  661MOL0     H89186   6.295  10.431   8.892 -1.6862  1.2771 -0.1773
  661MOL0     H89187   6.271  10.827   8.824  1.3850  2.6754  2.4474
  661MOL0     H89188   6.192  10.687   8.902 -0.0913 -0.3004 -1.7440
  661MOL0     H89189   6.315  10.686   9.087  1.4045 -0.2738 -0.5546
  661MOL0     H89190   6.312  10.863   9.064  0.3278  0.0671 -1.0183
  661MOL0     H89191   6.530  10.833   9.114  3.3112 -1.9986 -0.4754
  661MOL0     H89192   6.530  10.808   8.938  1.3298 -0.1394 -0.2280
  661MOL0     H89193   6.548  10.547   8.984 -2.2607 -0.5119 -0.2126
  661MOL0     H89194   6.485  10.585   9.143  0.4244  0.2292 -0.2236
  661MOL0     H89195   6.905  10.585   9.185  0.7811 -0.7211 -0.1205
  661MOL0     H89196   7.116  10.496   9.144 -0.6002 -0.6407 -0.7256
  661MOL0     H89197   7.228  10.510   9.011  1.1226  2.0319 -0.0848
  661MOL0     H89198   7.192  10.665   9.091 -0.8974  1.0817 -1.7586
  661MOL0     H89199   7.258  10.855   8.589 -3.8012 -0.5625 -2.2409
  661MOL0     H89200   7.465  10.851   8.447 -0.4483 -0.4821 -1.5470
  661MOL0     H89201   7.684  10.510   8.379  2.4952  1.1347  0.4291
  661MOL0     H89202   7.574  10.474   8.243  0.0834  0.1395  0.4986
  661MOL0     H89203   7.725  10.658   8.105  2.0803  1.0386 -0.4025
  661MOL0     H89204   7.826  10.659   8.249  1.2086  0.6455 -2.5241
  661MOL0     H89205   7.748  10.411   8.088 -1.0089  1.7083 -2.6512
  661MOL0     H89206   7.839  10.407   8.236 -2.1591  1.9988  0.9859
  661MOL0     H89207   8.028  10.517   8.136 -0.6985  1.2267  0.7699
  661MOL0     H89208   7.980  10.374   8.034  4.5160  0.6976  1.6354
  661MOL0     H89209   7.923  10.655   7.939  3.1185  0.6983  0.8243
  661MOL0     H89210   7.853  10.502   7.884 -0.6212  1.3865 -0.6312
  661MOL0     H89211   8.146  10.556   7.893 -0.1566 -1.1994  1.3357
  661MOL0     H89212   8.064  10.426   7.794 -1.2611 -0.5073  0.0315
  661MOL0     H89213   7.961  10.704   7.719 -0.3340  0.9471 -0.6080
  661MOL0     H89214   7.966  10.549   7.636 -2.6188  0.2158  2.2466
  661MOL0     H89215   8.189  10.775   7.686  0.3930 -0.6153  0.3448
  661MOL0     H89216   8.112  10.738   7.536 -0.3526 -3.1863 -1.4757
  661MOL0     H89217   7.417  10.426   8.392  0.1963  0.2810  0.9856
  661MOL0     H89218   7.202  10.435   8.491  2.3785 -1.4530  0.5412
  661MOL0     H89219   6.895  10.713   8.708 -0.5188 -0.5898 -0.0733
  661MOL0     H89220   6.687  10.705   8.843  1.8906  1.5351 -2.4397
  661MOL0     H89221   7.283   9.821   8.822  0.0330 -0.5259  0.7811
  661MOL0     H89222   7.426   9.668   8.972  2.1386  0.1601  1.6970
  661MOL0     H89223   7.659   9.797   9.568 -0.0602  1.2139 -0.7652
  661MOL0     H89224   7.845   9.677   9.682 -0.6767 -0.3072  0.4035
  661MOL0     H89225   7.979   9.303   9.445 -0.5549 -0.7029 -0.4663
  661MOL0     H89226   8.049   9.272   9.609 -2.3687 -0.6648  0.5935
  661MOL0     H89227   7.756   9.272   9.566 -1.4611 -1.2104 -0.0267
  661MOL0     H89228   7.838   9.272   9.717  2.1350  0.1117 -0.2695
  661MOL0     H89229   7.985   9.074   9.654 -0.0775  3.0033  1.9953
  661MOL0     H89230   7.879   9.053   9.508  2.4751 -1.2335 -0.1101
  661MOL0     H89231   7.670   9.076   9.692 -0.7768 -0.5361 -2.8769
  661MOL0     H89232   7.798   9.052   9.807  0.4714 -1.8627  0.3132
  661MOL0     H89233   7.816   8.657   9.698  0.8859  0.4092 -2.8158
  661MOL0     H89234   7.882   9.419   9.331 -1.2570 -0.5004  0.1774
  661MOL0     H89235   7.709   9.540   9.229  2.5783 -1.9720 -0.4196
  662MOL0     O89236   5.569  11.400   9.147  0.3387  1.1057 -0.4052
  662MOL0     C89237   5.556  11.340   9.250 -0.2041  0.8667 -0.2123
  662MOL0     O89238   5.440  11.324   9.317  0.6122  0.0343  0.6339
  662MOL0     C89239   5.338  11.407   9.281 -0.2112  0.0971  0.5361
  662MOL0     C89240   5.343  11.538   9.311 -0.2163  0.4225 -0.4003
  662MOL0     C89241   5.234  11.632   9.298 -0.2983 -0.5013  0.6697
  662MOL0     C89242   5.115  11.576   9.241 -0.0813 -0.3331 -0.6324
  662MOL0     O89243   5.005  11.661   9.235 -0.6132 -0.9338  0.4581
  662MOL0     C89244   4.884  11.613   9.176  0.3427 -0.0657  0.1995
  662MOL0     C89245   4.774  11.722   9.181  0.0051  0.4052 -0.5730
  662MOL0     C89246   4.829  11.852   9.121 -0.1352 -0.0284  0.5639
  662MOL0     C89247   4.794  11.979   9.213 -0.3549 -0.2653  0.2297
  662MOL0     C89248   4.891  11.975   9.336  0.1197  0.5438  1.0187
  662MOL0     C89249   4.874  12.091   9.433  0.4771  0.0572  0.4523
  662MOL0     C89250   4.740  12.120   9.488  0.0382  0.2837 -0.6276
  662MOL0     C89251   4.729  12.129   9.646  0.5270 -0.3951  0.6121
  662MOL0     N89252   4.592  12.103   9.680 -0.4315 -0.1033 -0.4263
  662MOL0     C89253   4.490  12.195   9.673  0.6134 -0.9430 -0.2861
  662MOL0     C89254   4.390  12.156   9.757  1.1222 -0.8986  0.9985
  662MOL0     C89255   4.258  12.228   9.768  0.1942 -0.8314  0.4421
  662MOL0     C89256   4.242  12.323   9.888  0.6994 -0.8799  0.7702
  662MOL0     C89257   4.256  12.243  10.025 -0.4544 -0.4011  0.7408
  662MOL0     C89258   4.156  12.120  10.039 -0.4207  0.3041  0.2304
  662MOL0     O89259   4.025  12.153  10.006 -0.0962  0.6302 -0.3418
  662MOL0     C89260   3.934  12.057   9.974  0.1267  0.4434  0.8159
  662MOL0     C89261   3.844  12.097   9.870 -0.4733 -0.0964 -0.3418
  662MOL0     C89262   3.756  11.996   9.820 -0.8165  0.2216  0.1967
  662MOL0     C89263   3.655  12.060   9.718  0.5476  0.0246 -0.1405
  662MOL0     C89264   3.749  11.867   9.885  0.1622 -1.9309 -0.1087
  662MOL0     C89265   3.657  11.751   9.849  0.1325 -0.1740  0.0516
  662MOL0     O89266   3.669  11.637   9.909 -0.5653 -0.0348  0.0039
  662MOL0     C89267   3.596  11.532   9.863  1.0770 -1.3737 -1.0742
  662MOL0     C89268   3.500  11.487   9.957  1.3261  0.2086 -0.9962
  662MOL0     C89269   3.415  11.374   9.927 -0.2487  0.2352 -0.1055
  662MOL0     C89270   3.429  11.305   9.803 -0.1644 -0.9380  0.3434
  662MOL0     O89271   3.357  11.197   9.770  0.1139 -0.1520  0.1032
  662MOL0     C89272   3.212  11.218   9.764 -0.0463 -0.8322  1.0706
  662MOL0     C89273   3.188  11.315   9.637 -0.6898  0.7239  0.5226
  662MOL0     C89274   3.232  11.238   9.501 -0.6415  0.0818 -0.1615
  662MOL0     C89275   3.195  11.304   9.364  0.3424  0.1204 -0.7394
  662MOL0     C89276   3.050  11.320   9.329  0.5859  0.5924  0.0356
  662MOL0     C89277   2.969  11.194   9.325 -0.6860 -0.7777  0.0919
  662MOL0     C89278   3.006  11.094   9.217  0.5263  0.5880  1.3087
  662MOL0     C89279   2.917  10.965   9.230  0.7564 -0.1110  0.0490
  662MOL0    Cl89280   2.908  10.890   9.068  0.3017 -0.2432 -0.2308
  662MOL0     C89281   3.538  11.351   9.717 -0.0325 -0.0991 -0.0795
  662MOL0     C89282   3.621  11.457   9.748 -0.0538  0.1409  0.2693
  662MOL0     O89283   3.571  11.770   9.763  0.1976 -1.2386  0.1032
  662MOL0     C89284   3.846  11.839   9.996  1.1389  0.5211  0.5427
  662MOL0     C89285   3.938  11.933  10.032 -0.3065  0.9627 -0.5434
  662MOL0     N89286   4.436  12.045   9.812 -0.1725 -0.1074 -0.0862
  662MOL0     N89287   4.557  12.028   9.781  0.2461  1.0083 -0.7611
  662MOL0     C89288   5.113  11.445   9.204 -0.1409  0.2006 -0.1465
  662MOL0     C89289   5.223  11.354   9.224 -0.2203 -0.3462  1.0019
  662MOL0     C89290   5.675  11.284   9.318 -1.0881 -0.4584  0.2239
  662MOL0     C89291   5.673  11.159   9.397 -0.0120 -0.6547  0.5222
  662MOL0     C89292   5.785  11.099   9.456 -0.5939 -0.9412  0.1697
  662MOL0     C89293   5.914  11.152   9.413 -0.6138 -0.1795  0.2933
  662MOL0     O89294   6.039  11.094   9.444  0.0856 -0.3403  0.4988
  662MOL0     C89295   6.048  10.947   9.450  0.1439  0.2094  0.9932
  662MOL0     C89296   6.190  10.909   9.498 -0.1501  0.3865 -0.4967
  662MOL0     C89297   6.298  10.947   9.393  0.7509 -0.3582 -0.7300
  662MOL0     C89298   6.350  11.088   9.438 -0.1345 -0.0594  0.7995
  662MOL0     C89299   6.445  11.136   9.339  0.6858 -0.3282  0.0363
  662MOL0     C89300   6.543  11.169   9.275  0.0272 -0.7429 -0.2088
  662MOL0     C89301   5.916  11.278   9.355  0.7843 -0.8979  0.3242
  662MOL0     C89302   5.799  11.344   9.311  0.2972 -0.2669  0.4707
  662MOL0     H89303   5.427  11.582   9.364 -1.6944  2.2767  0.5432
  662MOL0     H89304   5.247  11.736   9.326 -0.6757  0.3318 -1.9255
  662MOL0     H89305   4.903  11.580   9.073  0.8633  0.5403  0.0976
  662MOL0     H89306   4.841  11.533   9.238 -0.6524  0.1796 -0.1670
  662MOL0     H89307   4.681  11.699   9.127 -0.9981 -1.7909  1.8884
  662MOL0     H89308   4.737  11.731   9.283  1.1841 -2.0116  0.1478
  662MOL0     H89309   4.932  11.855   9.084 -0.4476  1.5321 -0.3074
  662MOL0     H89310   4.789  11.869   9.020  3.2671 -0.3334 -1.0142
  662MOL0     H89311   4.804  12.075   9.162 -1.6118  1.4347  2.9667
  662MOL0     H89312   4.695  11.955   9.253 -0.9608  0.3148 -0.8667
  662MOL0     H89313   4.875  11.886   9.397 -0.2594 -0.0586  0.0578
  662MOL0     H89314   4.995  11.968   9.304 -0.1908 -2.3943  0.4353
  662MOL0     H89315   4.953  12.083   9.509  1.2480  0.1354 -0.3135
  662MOL0     H89316   4.904  12.183   9.382 -0.9703 -0.0928 -0.7046
  662MOL0     H89317   4.701  12.215   9.450  0.2307  0.7845  0.3911
  662MOL0     H89318   4.673  12.040   9.453  3.1561 -2.2364 -1.2818
  662MOL0     H89319   4.746  12.230   9.684 -2.6259  0.4632  0.0254
  662MOL0     H89320   4.793  12.053   9.691 -1.0870 -2.5191 -0.5322
  662MOL0     H89321   4.489  12.288   9.617  2.2823  0.5905  2.0535
  662MOL0     H89322   4.234  12.297   9.687  0.7026 -3.0265 -1.7135
  662MOL0     H89323   4.176  12.156   9.759  1.7127 -2.8536  1.8841
  662MOL0     H89324   4.146  12.374   9.881  0.9264 -0.6817 -4.6648
  662MOL0     H89325   4.324  12.395   9.890  0.2006 -0.2822  0.0125
  662MOL0     H89326   4.236  12.305  10.112  1.1551  1.8141 -0.3577
  662MOL0     H89327   4.361  12.211  10.029 -0.2736 -0.1284 -0.8869
  662MOL0     H89328   4.157  12.089  10.144  0.9208 -1.6204 -0.2907
  662MOL0     H89329   4.184  12.035   9.976  1.6394 -1.0210  2.7269
  662MOL0     H89330   3.834  12.201   9.841 -1.1404  0.8914  3.0052
  662MOL0     H89331   3.648  11.987   9.637  0.5278  0.8119 -0.8655
  662MOL0     H89332   3.552  12.055   9.755  0.0162  0.9378 -1.4073
  662MOL0     H89333   3.680  12.162   9.685  2.7191 -0.5005 -0.2485
  662MOL0     H89334   3.495  11.516  10.061 -1.6991 -4.4248  0.4671
  662MOL0     H89335   3.345  11.331   9.998 -0.7402 -1.1614 -1.3881
  662MOL0     H89336   3.163  11.123   9.743  0.4006 -0.8728  0.1754
  662MOL0     H89337   3.172  11.268   9.853 -1.4062  0.1612 -0.0347
  662MOL0     H89338   3.081  11.332   9.651 -1.5795 -3.4054  0.0658
  662MOL0     H89339   3.240  11.411   9.644  1.7102 -0.4321 -0.0447
  662MOL0     H89340   3.202  11.133   9.503  1.3051 -0.7303 -4.1272
  662MOL0     H89341   3.340  11.230   9.516 -0.4965  0.9225 -0.6842
  662MOL0     H89342   3.234  11.404   9.382 -1.0494  0.5270  0.2147
  662MOL0     H89343   3.250  11.261   9.280  0.3793  1.9722 -1.7031
  662MOL0     H89344   3.041  11.371   9.232 -0.0798  4.7858  2.0466
  662MOL0     H89345   3.012  11.386   9.408 -1.8822 -1.4067  0.6518
  662MOL0     H89346   2.977  11.144   9.422  2.4956  0.0189  0.3479
  662MOL0     H89347   2.863  11.215   9.307 -1.5222 -2.4543  2.5407
  662MOL0     H89348   3.110  11.065   9.229  0.1641 -0.9708  0.8252
  662MOL0     H89349   2.987  11.146   9.123 -2.2143  0.8752  1.9336
  662MOL0     H89350   2.814  10.985   9.262  0.4997 -0.5348 -0.5054
  662MOL0     H89351   2.963  10.893   9.299 -1.5344 -2.1270 -0.4151
  662MOL0     H89352   3.547  11.301   9.621 -3.0572  0.6705 -0.8936
  662MOL0     H89353   3.709  11.485   9.690 -0.5458  1.4017  0.1168
  662MOL0     H89354   3.834  11.743  10.045 -2.1568  0.1086 -0.7883
  662MOL0     H89355   3.992  11.915  10.124 -1.1349 -1.8694 -0.5217
  662MOL0     H89356   5.019  11.400   9.174  0.5547 -2.1942  1.0152
  662MOL0     H89357   5.204  11.249   9.204 -1.8072  0.6643 -4.2528
  662MOL0     H89358   5.579  11.109   9.418 -0.5883 -0.4369 -1.3397
  662MOL0     H89359   5.790  11.008   9.515  0.9004  0.0628  1.6696
  662MOL0     H89360   5.971  10.909   9.517 -1.4488  0.4023 -0.6330
  662MOL0     H89361   6.032  10.907   9.349 -0.3592  2.5465  0.0711
  662MOL0     H89362   6.200  10.803   9.524 -0.4214  0.4166 -0.2671
  662MOL0     H89363   6.214  10.962   9.591 -2.1114  0.7840 -0.1614
  662MOL0     H89364   6.260  10.942   9.290 -0.6194 -0.6314 -0.2398
  662MOL0     H89365   6.384  10.881   9.405  1.3347  0.5580  0.2124
  662MOL0     H89366   6.405  11.064   9.530  1.9368 -2.9839 -1.0357
  662MOL0     H89367   6.275  11.164   9.462  1.1966  1.0629  1.5209
  662MOL0     H89368   6.636  11.197   9.230 -0.2575  0.5583 -0.0087
  662MOL0     H89369   6.015  11.324   9.354  0.4513 -0.1749 -0.1824
  662MOL0     H89370   5.812  11.441   9.265  1.7781 -1.2061 -1.2308
  663MOL0     O89371   3.218   1.796   7.913 -0.7576  0.4143 -0.3002
  663MOL0     C89372   3.278   1.831   8.017 -1.4903 -0.2478 -0.0791
  663MOL0     O89373   3.223   1.870   8.138  0.3582  0.4509  0.8930
  663MOL0     C89374   3.081   1.878   8.145 -0.3755  0.0549 -0.4329
  663MOL0     C89375   2.992   1.771   8.119  0.0305  1.0725  0.2238
  663MOL0     C89376   2.854   1.765   8.145 -0.0838 -0.3654  0.0184
  663MOL0     C89377   2.795   1.873   8.207 -0.1985 -0.2959 -0.9335
  663MOL0     O89378   2.661   1.876   8.236 -0.0566 -0.0665 -0.0889
  663MOL0     C89379   2.630   1.809   8.354 -1.2443 -0.2007  0.1138
  663MOL0     C89380   2.488   1.829   8.395  0.5518  0.2598  0.2101
  663MOL0     C89381   2.457   1.975   8.414  0.0413  0.7949 -0.5544
  663MOL0     C89382   2.320   1.980   8.496  0.1573 -0.1007 -0.4457
  663MOL0     C89383   2.275   2.127   8.523 -0.0903  0.0376 -0.6960
  663MOL0     C89384   2.169   2.138   8.632 -0.0289  0.2346  0.1617
  663MOL0     C89385   2.168   2.273   8.712  0.1583 -0.7611  0.3427
  663MOL0     C89386   2.134   2.400   8.624  0.5134 -0.2763  0.2645
  663MOL0     N89387   2.248   2.442   8.538 -0.1408 -0.2986  0.2514
  663MOL0     C89388   2.375   2.455   8.599  0.4516  0.7089 -0.3991
  663MOL0     C89389   2.446   2.499   8.498 -0.3303 -0.2483 -0.5713
  663MOL0     C89390   2.591   2.528   8.509 -0.2548  1.0295  0.4125
  663MOL0     C89391   2.624   2.677   8.485  0.4331  0.3860  0.7139
  663MOL0     C89392   2.747   2.699   8.396 -0.4460  0.5582  0.5252
  663MOL0     C89393   2.778   2.849   8.380  0.2753  0.5877 -0.8474
  663MOL0     O89394   2.847   2.896   8.492  0.0151 -0.7304 -0.6732
  663MOL0     C89395   2.869   3.034   8.499 -0.5491  0.5716 -0.3628
  663MOL0     C89396   2.932   3.084   8.615  0.3038  0.0444 -0.8796
  663MOL0     C89397   2.955   3.220   8.629 -1.0612  0.9925  0.4078
  663MOL0     C89398   3.036   3.267   8.746  0.5256  0.4178 -0.4343
  663MOL0     C89399   2.922   3.303   8.523 -0.3028  0.9149  0.8438
  663MOL0     C89400   2.903   3.456   8.545 -0.1896 -0.2173 -0.1631
  663MOL0     O89401   2.834   3.517   8.453  0.3234  0.6068  0.5327
  663MOL0     C89402   2.815   3.651   8.446  0.0089 -0.3020  0.5304
  663MOL0     C89403   2.861   3.758   8.523  0.6051 -0.7599 -0.9478
  663MOL0     C89404   2.840   3.891   8.491  0.3953  0.4346  0.0631
  663MOL0     C89405   2.761   3.924   8.383 -0.3022 -0.1467 -0.2613
  663MOL0     O89406   2.745   4.056   8.349 -0.3170 -1.0460 -0.2248
  663MOL0     C89407   2.609   4.109   8.359 -0.4996  1.0381  0.0155
  663MOL0     C89408   2.617   4.250   8.305 -0.5114  0.4830  0.4301
  663MOL0     C89409   2.492   4.333   8.343 -0.0637 -0.0862 -0.4569
  663MOL0     C89410   2.503   4.470   8.274  0.2274  0.2214  0.1763
  663MOL0     C89411   2.374   4.548   8.286  0.2947 -0.2956  0.4922
  663MOL0     C89412   2.384   4.689   8.224 -0.2297  0.5868 -0.6205
  663MOL0     C89413   2.256   4.774   8.247 -0.1397 -0.0164 -0.6696
  663MOL0     C89414   2.139   4.683   8.193  0.8289  0.6388 -0.3614
  663MOL0    Cl89415   1.996   4.770   8.172  0.0659 -0.2787 -0.3958
  663MOL0     C89416   2.698   3.819   8.312  0.2963  0.3161  0.3261
  663MOL0     C89417   2.722   3.681   8.342  0.3244  0.0438 -1.0043
  663MOL0     O89418   2.985   3.508   8.619  0.4855  0.1782  0.4661
  663MOL0     C89419   2.866   3.254   8.401  0.5898  0.1541  0.0496
  663MOL0     C89420   2.852   3.117   8.387  0.0529 -0.4886 -0.0469
  663MOL0     N89421   2.371   2.513   8.375 -0.4397  0.9239 -0.6805
  663MOL0     N89422   2.257   2.475   8.404  0.0609  0.0289 -0.4361
  663MOL0     C89423   2.881   1.983   8.237  0.2159  0.0513 -0.0848
  663MOL0     C89424   3.017   1.989   8.205 -0.2710  0.2396 -0.0334
  663MOL0     C89425   3.429   1.837   8.002  0.0373  0.2035  0.3422
  663MOL0     C89426   3.499   1.939   8.071 -0.0378 -0.1578 -0.3864
  663MOL0     C89427   3.641   1.941   8.062 -0.9034  0.6954  0.0116
  663MOL0     C89428   3.712   1.851   7.972  0.3462 -0.1772 -0.9630
  663MOL0     O89429   3.842   1.879   7.960  0.0435  0.7057  0.3810
  663MOL0     C89430   3.908   1.882   7.832  0.0506 -0.0689  0.6732
  663MOL0     C89431   4.049   1.950   7.850  0.2577  0.2398  0.8354
  663MOL0     C89432   4.123   1.955   7.712  0.9180 -1.0000 -0.2920
  663MOL0     C89433   4.272   1.982   7.719 -0.4681  0.0369 -0.4309
  663MOL0     C89434   4.299   2.128   7.715  0.9088 -0.6124  0.9915
  663MOL0     C89435   4.338   2.245   7.718  0.4186  0.5434 -0.2935
  663MOL0     C89436   3.631   1.773   7.890 -0.0465 -0.1754  0.5282
  663MOL0     C89437   3.499   1.751   7.915 -0.3079  0.3326  0.1381
  663MOL0     H89438   3.031   1.681   8.073 -0.8017 -0.7795  2.9270
  663MOL0     H89439   2.797   1.678   8.113 -1.6016  0.1597  1.2011
  663MOL0     H89440   2.655   1.705   8.331 -1.3658 -0.0075 -0.9352
  663MOL0     H89441   2.694   1.846   8.435  0.5145 -1.7140 -0.4847
  663MOL0     H89442   2.426   1.781   8.318  3.7859 -1.6206 -1.4586
  663MOL0     H89443   2.482   1.770   8.487 -4.5335 -1.7203 -1.0851
  663MOL0     H89444   2.539   2.038   8.450 -0.6084  1.9994 -1.1489
  663MOL0     H89445   2.430   2.021   8.318  0.4119  1.5903 -0.2823
  663MOL0     H89446   2.241   1.925   8.444 -0.5436 -0.3359  0.8495
  663MOL0     H89447   2.326   1.922   8.588 -3.7774 -0.2188 -0.0989
  663MOL0     H89448   2.362   2.178   8.564  0.0947 -0.3345 -0.6179
  663MOL0     H89449   2.238   2.183   8.437  0.2741  0.9061 -0.2991
  663MOL0     H89450   2.075   2.107   8.586  0.7279 -0.2754 -1.0978
  663MOL0     H89451   2.185   2.062   8.709  2.5845  1.1488  0.6201
  663MOL0     H89452   2.093   2.267   8.791  2.0971 -0.7081  2.2802
  663MOL0     H89453   2.259   2.289   8.770 -0.6274  0.7080  1.2409
  663MOL0     H89454   2.105   2.481   8.692 -0.4618  1.1068 -1.7184
  663MOL0     H89455   2.051   2.379   8.556 -0.4002 -2.6632  1.9726
  663MOL0     H89456   2.405   2.448   8.703  1.3576  2.9764 -0.4436
  663MOL0     H89457   2.623   2.494   8.608  1.1953  2.8983  0.6413
  663MOL0     H89458   2.635   2.464   8.431  0.5430 -0.9846  2.3875
  663MOL0     H89459   2.632   2.726   8.582  0.5768  0.9871  0.4068
  663MOL0     H89460   2.540   2.719   8.428  0.0355 -1.6203 -0.2620
  663MOL0     H89461   2.750   2.646   8.300  1.6163 -1.0132  1.3678
  663MOL0     H89462   2.829   2.650   8.450 -0.5137 -1.0023 -0.7016
  663MOL0     H89463   2.682   2.900   8.367  0.5324  1.0653 -0.9031
  663MOL0     H89464   2.846   2.869   8.297  2.7716  0.8136  1.1335
  663MOL0     H89465   2.952   3.021   8.701 -0.9585 -2.2372 -2.1613
  663MOL0     H89466   3.073   3.184   8.807 -0.8613  1.3488  1.8027
  663MOL0     H89467   3.119   3.334   8.722  0.3617  0.4931 -0.7927
  663MOL0     H89468   2.971   3.334   8.803  1.5214  0.8414  0.2442
  663MOL0     H89469   2.925   3.738   8.608  1.3673  0.6469 -1.1538
  663MOL0     H89470   2.899   3.969   8.539  1.4996 -1.2307  1.5787
  663MOL0     H89471   2.536   4.047   8.307  0.1918  0.6361 -0.4924
  663MOL0     H89472   2.577   4.110   8.464  1.4874  0.5517  0.6763
  663MOL0     H89473   2.693   4.302   8.364 -1.3715 -1.1179  3.1354
  663MOL0     H89474   2.634   4.255   8.197  1.6305  0.8294  0.7388
  663MOL0     H89475   2.486   4.342   8.452  0.2459  0.7208 -0.5017
  663MOL0     H89476   2.395   4.287   8.323 -0.6266 -1.3274  4.0080
  663MOL0     H89477   2.590   4.527   8.308 -0.2347  0.4448  1.0143
  663MOL0     H89478   2.522   4.445   8.169  0.2817 -3.5287  0.9375
  663MOL0     H89479   2.362   4.557   8.395  1.5726  1.0206  0.5651
  663MOL0     H89480   2.295   4.486   8.244 -0.0468  0.7045 -0.3725
  663MOL0     H89481   2.474   4.745   8.250  0.4446  0.2828 -2.1950
  663MOL0     H89482   2.397   4.673   8.117 -0.8652 -2.3961 -0.3411
  663MOL0     H89483   2.261   4.868   8.191  3.2333 -0.2315 -0.9187
  663MOL0     H89484   2.245   4.802   8.352  1.0117  0.1972 -0.5966
  663MOL0     H89485   2.114   4.607   8.267  0.8255 -0.1006 -1.1160
  663MOL0     H89486   2.169   4.635   8.100 -0.0088 -0.3818 -0.1124
  663MOL0     H89487   2.625   3.838   8.233 -0.6010 -0.2742  0.9833
  663MOL0     H89488   2.683   3.603   8.278 -1.4154 -0.7908  0.9370
  663MOL0     H89489   2.823   3.308   8.318  1.9506  0.3750 -0.5473
  663MOL0     H89490   2.823   3.090   8.286 -3.8804 -0.3521  0.8903
  663MOL0     H89491   2.839   2.066   8.293  0.5119 -2.0733  3.6471
  663MOL0     H89492   3.087   2.068   8.230 -0.4699 -0.2611  2.3650
  663MOL0     H89493   3.449   2.010   8.136  0.3443 -1.2266  1.1468
  663MOL0     H89494   3.682   2.024   8.119 -1.5054  0.4197  0.8762
  663MOL0     H89495   3.914   1.781   7.789  0.7369 -0.5337  1.8053
  663MOL0     H89496   3.856   1.929   7.748 -1.6271 -2.2077  0.4086
  663MOL0     H89497   4.106   1.910   7.935  1.1808 -0.6631 -0.1804
  663MOL0     H89498   4.034   2.054   7.881 -0.5014  0.8513 -1.3968
  663MOL0     H89499   4.073   2.027   7.646  2.1001 -0.1134 -0.2425
  663MOL0     H89500   4.114   1.851   7.680 -2.0611 -1.0509  0.4190
  663MOL0     H89501   4.328   1.933   7.638  0.5528 -0.4536  0.5529
  663MOL0     H89502   4.310   1.947   7.815  0.7271  3.3000  0.3855
  663MOL0     H89503   4.383   2.342   7.715  1.7959 -0.1023 -1.5294
  663MOL0     H89504   3.688   1.731   7.807  0.9168  0.4007  0.8796
  663MOL0     H89505   3.437   1.673   7.873 -0.0697  0.0829  0.2477
  664MOL0     O89506   5.382   4.204  10.225 -0.0229  0.4142 -0.1330
  664MOL0     C89507   5.489   4.148  10.217 -0.0254  0.3352  0.7678
  664MOL0     O89508   5.522   4.058  10.122 -0.3387  0.0176 -0.3392
  664MOL0     C89509   5.432   4.040  10.019 -0.4257  0.1924  0.0686
  664MOL0     C89510   5.312   3.964  10.043  0.3523 -0.3081 -0.9200
  664MOL0     C89511   5.218   3.941   9.949 -0.0132 -0.0801  0.7171
  664MOL0     C89512   5.236   3.993   9.816 -0.7915  0.3577  0.4518
  664MOL0     O89513   5.151   3.998   9.706 -0.9390  0.4173 -0.5199
  664MOL0     C89514   5.048   3.905   9.717  0.6569  0.2733 -0.5240
  664MOL0     C89515   4.941   3.930   9.606  0.5196 -0.0041 -0.8534
  664MOL0     C89516   4.990   3.870   9.466 -0.2646 -0.5103 -0.2171
  664MOL0     C89517   4.901   3.917   9.344 -0.8858  0.2769 -0.1131
  664MOL0     C89518   4.907   3.804   9.231  1.4701 -0.6324  0.2449
  664MOL0     C89519   4.829   3.856   9.103 -0.2364  0.0827  0.5977
  664MOL0     C89520   4.822   3.741   9.007 -0.9061  0.0368  0.2422
  664MOL0     C89521   4.779   3.792   8.869 -1.0384 -0.4742 -0.2905
  664MOL0     N89522   4.718   3.685   8.789  0.6007 -0.1665  0.1449
  664MOL0     C89523   4.581   3.687   8.771  1.2598  0.1308  0.9443
  664MOL0     C89524   4.555   3.557   8.742  0.4464  0.4240  0.2159
  664MOL0     C89525   4.414   3.502   8.724 -0.1530 -0.2634  0.3248
  664MOL0     C89526   4.332   3.532   8.850  0.2170 -0.6158 -0.9936
  664MOL0     C89527   4.338   3.434   8.966  0.0112  0.9157 -0.1801
  664MOL0     C89528   4.464   3.446   9.059  0.7426  0.9918  0.4911
  664MOL0     O89529   4.447   3.555   9.150  0.0412 -0.5385  1.5079
  664MOL0     C89530   4.533   3.564   9.251  0.0962 -0.6419 -1.4559
  664MOL0     C89531   4.497   3.661   9.344  0.2225  0.0019 -0.4219
  664MOL0     C89532   4.576   3.676   9.460  0.9872 -0.1468  0.0118
  664MOL0     C89533   4.536   3.798   9.543 -0.0382  0.4855  0.4819
  664MOL0     C89534   4.694   3.593   9.490 -0.8695 -0.2698 -1.1759
  664MOL0     C89535   4.757   3.595   9.628  0.0428  0.5308 -0.5640
  664MOL0     O89536   4.892   3.543   9.638  0.2308  0.8651  0.3837
  664MOL0     C89537   4.963   3.535   9.751  0.6504  0.3257 -0.3044
  664MOL0     C89538   4.943   3.627   9.857 -0.6400  0.1871 -0.1608
  664MOL0     C89539   5.011   3.605   9.979  0.8417 -1.8293 -0.1003
  664MOL0     C89540   5.095   3.486   9.997  0.6067  0.6517  0.1614
  664MOL0     O89541   5.160   3.478  10.126  0.4483 -0.1505 -0.1392
  664MOL0     C89542   5.211   3.351  10.161  0.7154 -0.1643  0.2440
  664MOL0     C89543   5.084   3.256  10.197 -0.8968 -0.0588  1.0252
  664MOL0     C89544   5.154   3.123  10.240  0.0960  0.4155 -0.4239
  664MOL0     C89545   5.049   3.029  10.307 -0.4264  0.2199 -0.5541
  664MOL0     C89546   5.121   2.915  10.376  1.0594  0.3150  0.2435
  664MOL0     C89547   5.146   2.796  10.279 -0.1861 -0.1662  0.1942
  664MOL0     C89548   5.239   2.690  10.335  1.8597  0.8790 -0.7679
  664MOL0     C89549   5.172   2.575  10.418 -0.1278  0.4036 -0.3140
  664MOL0    Cl89550   5.048   2.497  10.322 -0.1231  0.1823  0.5330
  664MOL0     C89551   5.104   3.396   9.890 -0.1016 -0.7025 -0.6827
  664MOL0     C89552   5.048   3.423   9.763  0.2397 -0.2021 -0.1699
  664MOL0     O89553   4.680   3.599   9.725  0.4491 -0.1111  0.0155
  664MOL0     C89554   4.727   3.501   9.389  0.3668  0.0965  0.2573
  664MOL0     C89555   4.648   3.480   9.281  0.0895  0.1689  0.3687
  664MOL0     N89556   4.672   3.482   8.749  0.7295 -0.2102  0.2107
  664MOL0     N89557   4.773   3.564   8.758  0.7858  0.0388 -0.2923
  664MOL0     C89558   5.361   4.060   9.792  0.0081  0.0615  0.0650
  664MOL0     C89559   5.452   4.087   9.886 -0.2922  1.2164 -0.5725
  664MOL0     C89560   5.596   4.172  10.313 -0.4080 -0.0265  0.4311
  664MOL0     C89561   5.734   4.158  10.285 -1.1409  0.1527  0.2325
  664MOL0     C89562   5.838   4.180  10.384  0.3840 -0.0707 -0.3894
  664MOL0     C89563   5.791   4.198  10.523 -0.3941 -0.3809 -0.1713
  664MOL0     O89564   5.889   4.188  10.625  0.0455 -0.6921 -0.1820
  664MOL0     C89565   5.848   4.218  10.762  0.2611 -0.4603  0.6205
  664MOL0     C89566   5.971   4.196  10.848  0.2942  0.7782 -0.2417
  664MOL0     C89567   6.042   4.063  10.827 -0.7593  0.2991 -0.1845
  664MOL0     C89568   5.979   3.928  10.881 -0.0894  0.1636 -0.0201
  664MOL0     C89569   5.911   3.955  11.011 -0.4052  0.5285 -0.0892
  664MOL0     C89570   5.860   4.000  11.113 -0.8301  0.3164  0.0576
  664MOL0     C89571   5.654   4.200  10.550 -0.3518  0.3579  0.4583
  664MOL0     C89572   5.562   4.181  10.452 -0.0038 -0.0584  0.0294
  664MOL0     H89573   5.302   3.914  10.139  0.2418 -1.4035 -1.4842
  664MOL0     H89574   5.126   3.890   9.974 -0.5281  0.0805 -0.7175
  664MOL0     H89575   5.094   3.806   9.716  1.4283  0.5051  2.2590
  664MOL0     H89576   4.989   3.913   9.809 -1.9516 -0.8089 -1.9990
  664MOL0     H89577   4.847   3.880   9.628  0.3223  1.3858  1.8915
  664MOL0     H89578   4.919   4.037   9.597 -1.0887 -0.2028  0.3882
  664MOL0     H89579   5.084   3.916   9.436 -1.6246  2.0632 -0.8735
  664MOL0     H89580   4.993   3.761   9.477  1.0276 -0.6496 -1.6277
  664MOL0     H89581   4.796   3.929   9.374 -0.0606  2.2736  2.3021
  664MOL0     H89582   4.930   4.011   9.297 -4.1578  1.4848  0.0694
  664MOL0     H89583   5.014   3.805   9.208  0.9236  3.3570 -3.5953
  664MOL0     H89584   4.878   3.703   9.260 -1.0614 -1.6808 -4.6893
  664MOL0     H89585   4.728   3.891   9.123 -0.2814  0.3193 -0.0168
  664MOL0     H89586   4.870   3.941   9.048 -3.1647  1.2016 -0.0313
  664MOL0     H89587   4.915   3.687   8.990 -1.6343 -0.0792 -5.2634
  664MOL0     H89588   4.739   3.673   9.033 -0.6049 -1.2870 -2.0021
  664MOL0     H89589   4.877   3.816   8.829 -0.8420 -3.2724 -1.7076
  664MOL0     H89590   4.705   3.873   8.876  0.9985  1.3270  3.4037
  664MOL0     H89591   4.504   3.756   8.805 -0.6990 -3.0560  3.6300
  664MOL0     H89592   4.367   3.548   8.636  1.0660 -1.8770 -1.2297
  664MOL0     H89593   4.409   3.396   8.696  0.2813 -0.3315  0.5058
  664MOL0     H89594   4.226   3.536   8.823  0.4587 -0.8339 -2.0310
  664MOL0     H89595   4.363   3.630   8.887  3.0183 -2.0907  0.9713
  664MOL0     H89596   4.326   3.333   8.928  1.3177  0.0236  1.6083
  664MOL0     H89597   4.248   3.453   9.025 -0.3175 -1.3705  0.1569
  664MOL0     H89598   4.553   3.464   8.997  0.0182 -0.0065 -0.8931
  664MOL0     H89599   4.478   3.352   9.114  0.0219 -0.2742 -1.3865
  664MOL0     H89600   4.422   3.736   9.323 -0.6605 -1.0054 -1.0079
  664MOL0     H89601   4.489   3.764   9.636 -0.3355 -0.1663  0.0997
  664MOL0     H89602   4.625   3.854   9.573  0.3116 -0.4384  1.2234
  664MOL0     H89603   4.474   3.868   9.487  0.8465  0.0966 -1.0382
  664MOL0     H89604   4.870   3.705   9.841  2.2817  3.7788  2.1313
  664MOL0     H89605   5.021   3.682  10.055  0.5518 -1.6528 -0.2413
  664MOL0     H89606   5.264   3.302  10.079  2.2223 -1.1005  1.7102
  664MOL0     H89607   5.281   3.359  10.245  0.4842  0.8327  0.3540
  664MOL0     H89608   5.031   3.299  10.282  0.2443  0.2624  1.5971
  664MOL0     H89609   5.020   3.238  10.110  2.5242  0.1459 -1.7891
  664MOL0     H89610   5.233   3.153  10.311  1.2402  1.1069 -1.9205
  664MOL0     H89611   5.211   3.070  10.163  2.1271  1.1910  0.4694
  664MOL0     H89612   5.013   3.092  10.388 -1.6995  1.4544 -2.0070
  664MOL0     H89613   4.960   2.997  10.251 -0.9936  1.4362 -0.3849
  664MOL0     H89614   5.049   2.884  10.453  1.4343  1.0887  0.9289
  664MOL0     H89615   5.208   2.955  10.429  0.1823  2.3926  0.2361
  664MOL0     H89616   5.058   2.746  10.238 -1.8584  2.5453  0.2317
  664MOL0     H89617   5.192   2.850  10.196 -3.5289  1.5285 -0.7152
  664MOL0     H89618   5.309   2.734  10.407  1.4333  0.4089 -0.0582
  664MOL0     H89619   5.300   2.643  10.258 -0.1851 -0.9756 -1.3506
  664MOL0     H89620   5.132   2.610  10.513 -3.1372 -0.1140 -1.2950
  664MOL0     H89621   5.240   2.495  10.448 -2.4819 -1.7319 -0.3790
  664MOL0     H89622   5.157   3.301   9.895  1.1273 -0.1353 -2.0984
  664MOL0     H89623   5.071   3.359   9.678 -0.2032 -1.5474  0.6930
  664MOL0     H89624   4.803   3.425   9.400  0.7875  0.5150  0.2434
  664MOL0     H89625   4.677   3.400   9.214 -0.6715 -0.4987  0.8136
  664MOL0     H89626   5.377   4.107   9.695  1.2871 -0.8101 -0.1735
  664MOL0     H89627   5.536   4.151   9.861 -0.8473  1.8742 -0.8028
  664MOL0     H89628   5.766   4.149  10.181 -1.4749 -1.9265  0.2530
  664MOL0     H89629   5.944   4.162  10.368  1.7003  2.2506  4.2192
  664MOL0     H89630   5.815   4.322  10.772 -0.3896 -0.5194 -0.6933
  664MOL0     H89631   5.773   4.143  10.791 -1.9012  1.8487  1.4260
  664MOL0     H89632   5.939   4.211  10.952 -0.1519  0.1658 -0.2875
  664MOL0     H89633   6.032   4.279  10.810 -1.2904  3.0288  1.7739
  664MOL0     H89634   6.143   4.074  10.870 -0.3739  1.8366 -1.4159
  664MOL0     H89635   6.049   4.049  10.719 -0.7219 -0.9711 -0.0404
  664MOL0     H89636   6.062   3.859  10.900 -0.0784  0.4121  0.9226
  664MOL0     H89637   5.909   3.885  10.810 -1.0929  2.2140 -0.3435
  664MOL0     H89638   5.813   4.025  11.207 -1.3264 -0.6069  0.0663
  664MOL0     H89639   5.603   4.220  10.643 -1.8714 -1.5354  0.1143
  664MOL0     H89640   5.456   4.180  10.476  0.3389 -1.3950  1.6212
  665MOL0     O89641   4.153   7.841   9.277 -0.2478 -0.4750 -0.0877
  665MOL0     C89642   4.249   7.915   9.314 -1.3667  0.2767  0.9017
  665MOL0     O89643   4.315   7.905   9.430  0.7736  0.2749 -0.2975
  665MOL0     C89644   4.253   7.815   9.518  0.4490 -0.7316  0.5677
  665MOL0     C89645   4.285   7.681   9.512 -0.2093  0.1097  0.7787
  665MOL0     C89646   4.267   7.590   9.620  0.5615 -0.1003  0.2810
  665MOL0     C89647   4.208   7.641   9.743 -1.3886  0.1645  0.2375
  665MOL0     O89648   4.193   7.565   9.853 -0.5515 -0.7974 -0.6618
  665MOL0     C89649   4.059   7.580   9.911 -0.1165 -0.7528  0.3167
  665MOL0     C89650   4.024   7.440   9.979 -1.0012 -0.3285 -1.1098
  665MOL0     C89651   3.991   7.340   9.873 -0.1954 -1.1136  1.0403
  665MOL0     C89652   3.971   7.203   9.929 -0.2531  0.9615 -0.5856
  665MOL0     C89653   3.977   7.099   9.823  0.1439 -0.3928  0.0892
  665MOL0     C89654   3.854   7.129   9.727  0.2381  0.1136  0.3275
  665MOL0     C89655   3.851   7.040   9.595  0.4299 -0.1842 -0.5149
  665MOL0     C89656   3.939   7.088   9.481  0.2468 -1.2136  0.1847
  665MOL0     N89657   3.900   7.225   9.435  0.7687 -0.3106  0.3139
  665MOL0     C89658   3.970   7.340   9.450  0.2039 -0.0499  0.5918
  665MOL0     C89659   3.895   7.434   9.387  0.4815  0.3799 -0.5774
  665MOL0     C89660   3.915   7.580   9.369  0.6159 -0.1211  0.1053
  665MOL0     C89661   3.845   7.650   9.487 -0.2240 -0.3654  0.3427
  665MOL0     C89662   3.871   7.795   9.504  0.3034  0.3055  0.9847
  665MOL0     C89663   3.758   7.876   9.454 -0.6678 -0.7867 -0.2158
  665MOL0     O89664   3.763   8.007   9.521  0.0769 -0.2936 -0.7635
  665MOL0     C89665   3.874   8.087   9.507  0.1851  0.4808  0.0073
  665MOL0     C89666   3.925   8.151   9.619 -0.7398 -0.1886 -0.0011
  665MOL0     C89667   4.040   8.233   9.603  0.5004  0.1602 -0.1453
  665MOL0     C89668   4.084   8.308   9.717 -0.3317 -1.0751 -0.2033
  665MOL0     C89669   4.099   8.249   9.475 -0.7208 -0.7595 -0.0915
  665MOL0     C89670   4.212   8.330   9.452  0.3728 -0.6949 -0.3393
  665MOL0     O89671   4.181   8.453   9.404 -0.2921 -0.0354  0.7406
  665MOL0     C89672   4.271   8.556   9.400 -0.3206  0.2177 -0.4941
  665MOL0     C89673   4.372   8.587   9.490 -0.3183  0.2878  0.7397
  665MOL0     C89674   4.469   8.681   9.468 -0.4935 -0.5923 -0.3997
  665MOL0     C89675   4.474   8.747   9.347  1.4507 -0.8258 -0.2727
  665MOL0     O89676   4.564   8.849   9.330 -0.4887  0.3606  0.0924
  665MOL0     C89677   4.538   8.954   9.237 -0.4685  1.0086  0.9749
  665MOL0     C89678   4.652   9.058   9.240  0.2199 -0.3456  0.0897
  665MOL0     C89679   4.641   9.152   9.356 -0.1692 -0.0655 -0.0728
  665MOL0     C89680   4.772   9.236   9.368  0.2783 -0.3670 -0.7045
  665MOL0     C89681   4.886   9.168   9.443 -0.3873 -0.2516  0.3702
  665MOL0     C89682   4.850   9.129   9.591  0.0417 -0.1049  0.6376
  665MOL0     C89683   4.976   9.097   9.672  0.0095 -0.3562  0.5173
  665MOL0     C89684   5.037   8.970   9.609  0.3317 -0.7209 -0.5726
  665MOL0    Cl89685   5.170   8.911   9.714  0.5457 -0.1336  0.1555
  665MOL0     C89686   4.382   8.712   9.247 -0.1121  0.5867 -0.0728
  665MOL0     C89687   4.280   8.622   9.269  0.2485  0.5323  0.0249
  665MOL0     O89688   4.318   8.296   9.505 -0.2690  0.3103 -0.1929
  665MOL0     C89689   4.049   8.177   9.372  0.4132 -0.2332  1.1108
  665MOL0     C89690   3.932   8.107   9.385 -0.2282  0.1418  0.3000
  665MOL0     N89691   3.791   7.366   9.315 -1.0317  0.0196 -0.8110
  665MOL0     N89692   3.790   7.241   9.347 -0.3707 -0.2839 -0.5192
  665MOL0     C89693   4.179   7.774   9.750  0.6000 -0.7786 -0.5735
  665MOL0     C89694   4.207   7.864   9.643  0.5326 -0.6697 -0.6177
  665MOL0     C89695   4.332   7.979   9.205  0.9730 -0.2631 -1.0630
  665MOL0     C89696   4.301   7.963   9.067 -1.1613  0.1662  0.3308
  665MOL0     C89697   4.370   8.029   8.971 -0.9765  0.1262  0.1452
  665MOL0     C89698   4.480   8.117   9.001  0.8103 -0.6286  0.1831
  665MOL0     O89699   4.569   8.175   8.913  0.8698  0.0090 -0.4110
  665MOL0     C89700   4.512   8.188   8.776 -0.4317 -0.2428  0.2926
  665MOL0     C89701   4.608   8.289   8.702 -0.6539  0.0907  0.0416
  665MOL0     C89702   4.754   8.235   8.706  0.3720 -0.0308 -0.2792
  665MOL0     C89703   4.852   8.340   8.648  0.3772  0.1817 -0.5058
  665MOL0     C89704   4.994   8.321   8.689 -0.7309 -0.1253 -0.7544
  665MOL0     C89705   5.113   8.287   8.703  0.4083  0.1112  0.0453
  665MOL0     C89706   4.513   8.120   9.142  0.6953  0.0718  0.3817
  665MOL0     C89707   4.446   8.056   9.237  0.0295 -0.2911  0.1389
  665MOL0     H89708   4.313   7.647   9.412 -2.4874  0.6290 -0.1109
  665MOL0     H89709   4.299   7.487   9.607 -0.1638 -0.2167 -0.7245
  665MOL0     H89710   4.045   7.654   9.990 -1.8338 -1.3580  0.6173
  665MOL0     H89711   3.986   7.595   9.831 -1.8928  1.7734  2.2736
  665MOL0     H89712   4.117   7.409  10.028 -1.2462 -1.3021 -1.2523
  665MOL0     H89713   3.955   7.454  10.063  1.5572  2.9175  0.7397
  665MOL0     H89714   3.905   7.388   9.825  0.5733 -0.3121  0.4356
  665MOL0     H89715   4.071   7.345   9.799  0.5092  0.0710  1.8554
  665MOL0     H89716   4.055   7.186   9.996 -0.4052 -0.8791 -0.8129
  665MOL0     H89717   3.876   7.188   9.981 -0.1105 -1.2194 -0.8489
  665MOL0     H89718   4.069   7.107   9.765  0.2225 -1.2250  0.0866
  665MOL0     H89719   3.978   6.999   9.868  1.7324 -0.6672 -0.5065
  665MOL0     H89720   3.760   7.132   9.783 -0.2656  1.3348 -0.5520
  665MOL0     H89721   3.854   7.229   9.685 -1.1992 -0.5209 -1.2744
  665MOL0     H89722   3.872   6.937   9.627 -0.2732 -0.8382 -2.1052
  665MOL0     H89723   3.751   7.037   9.552  0.5390 -2.5963 -0.7103
  665MOL0     H89724   3.953   7.021   9.395  0.7019 -1.1363  0.1956
  665MOL0     H89725   4.038   7.112   9.520  2.1892 -0.1272 -4.6093
  665MOL0     H89726   4.056   7.354   9.515  1.2704 -3.9024  0.2470
  665MOL0     H89727   4.022   7.603   9.371  0.5385  0.2820  2.0256
  665MOL0     H89728   3.879   7.617   9.273  2.4738 -0.2338 -0.6689
  665MOL0     H89729   3.873   7.604   9.583 -1.1037 -1.9675 -0.1405
  665MOL0     H89730   3.746   7.609   9.468 -0.0410 -0.9316  0.5684
  665MOL0     H89731   3.971   7.822   9.470 -0.3234  0.8905 -0.4519
  665MOL0     H89732   3.881   7.810   9.612  0.1949 -0.9917  1.1900
  665MOL0     H89733   3.664   7.839   9.496 -2.7512  1.4763 -2.5606
  665MOL0     H89734   3.753   7.879   9.344 -2.6114 -4.5199 -0.4051
  665MOL0     H89735   3.875   8.127   9.712 -1.8112  3.5398  0.5705
  665MOL0     H89736   4.054   8.413   9.707 -2.4545 -1.6062  0.2090
  665MOL0     H89737   4.043   8.253   9.802 -1.5408  0.3564  0.1747
  665MOL0     H89738   4.192   8.321   9.723 -0.2229 -1.3833 -1.2367
  665MOL0     H89739   4.374   8.539   9.587  5.4811  2.6308  2.1529
  665MOL0     H89740   4.552   8.706   9.532 -0.1115 -3.8752  0.6099
  665MOL0     H89741   4.547   8.912   9.136 -1.0834  1.3179  0.7860
  665MOL0     H89742   4.440   9.002   9.243 -0.0889  1.6202  2.7702
  665MOL0     H89743   4.750   9.010   9.239 -0.0911 -1.3484 -4.4260
  665MOL0     H89744   4.654   9.119   9.149 -1.7150 -1.2792 -0.6349
  665MOL0     H89745   4.628   9.091   9.446 -0.5662  1.2512  0.7889
  665MOL0     H89746   4.560   9.225   9.348 -1.8152 -1.7904  0.1154
  665MOL0     H89747   4.807   9.265   9.268 -1.1955  1.1808 -0.8188
  665MOL0     H89748   4.742   9.332   9.410  0.3816 -0.0286 -1.3925
  665MOL0     H89749   4.972   9.235   9.441  0.3111 -1.1139  1.0544
  665MOL0     H89750   4.919   9.085   9.381 -2.3528  0.6017 -1.9745
  665MOL0     H89751   4.805   9.212   9.645  0.6973  1.8824 -1.6998
  665MOL0     H89752   4.780   9.046   9.591 -1.9269  1.4820  1.9392
  665MOL0     H89753   4.960   9.079   9.778 -2.4121 -0.6440  0.1528
  665MOL0     H89754   5.044   9.183   9.674  0.5113 -0.7211 -0.2335
  665MOL0     H89755   5.073   8.993   9.508 -3.0376  1.4865 -1.4133
  665MOL0     H89756   4.960   8.895   9.590  1.0893 -1.5830 -0.3043
  665MOL0     H89757   4.387   8.769   9.154 -0.5490 -1.7632 -1.6479
  665MOL0     H89758   4.198   8.600   9.202 -0.1804 -0.6657  0.9115
  665MOL0     H89759   4.088   8.182   9.271  1.0218 -0.7002  1.3208
  665MOL0     H89760   3.884   8.070   9.295  0.7124  1.2773 -0.6974
  665MOL0     H89761   4.144   7.818   9.843 -1.7194 -4.2841  0.4407
  665MOL0     H89762   4.214   7.972   9.650  1.9560 -0.5245 -2.9697
  665MOL0     H89763   4.223   7.898   9.028 -3.6731  1.9559  2.0454
  665MOL0     H89764   4.337   8.035   8.868  0.0006  3.0291 -0.0909
  665MOL0     H89765   4.492   8.092   8.727  4.0111  0.2815 -3.2385
  665MOL0     H89766   4.428   8.256   8.758 -1.3431 -2.0636 -3.0967
  665MOL0     H89767   4.616   8.384   8.757 -3.8202  0.3656  0.2353
  665MOL0     H89768   4.569   8.301   8.601 -3.3215  0.0551  0.9741
  665MOL0     H89769   4.777   8.144   8.649  6.1287  1.3417 -0.7750
  665MOL0     H89770   4.789   8.219   8.808 -0.4534 -0.3099 -0.0330
  665MOL0     H89771   4.813   8.440   8.671 -1.2389 -0.8444  1.5774
  665MOL0     H89772   4.841   8.325   8.540  1.6489  2.6330 -1.0399
  665MOL0     H89773   5.215   8.254   8.710  0.0650 -2.0365 -2.9891
  665MOL0     H89774   4.602   8.176   9.165  1.9500 -1.2797 -0.9489
  665MOL0     H89775   4.486   8.059   9.338 -2.8415 -3.3866  1.5718
  666MOL0     O89776  10.033  11.330   4.823  0.1587  0.2029 -0.8925
  666MOL0     C89777  10.099  11.275   4.740 -0.0499 -0.0933  0.8487
  666MOL0     O89778  10.120  11.140   4.729 -0.3766  0.2642  0.0576
  666MOL0     C89779  10.099  11.064   4.834  0.9919  0.0423 -0.9794
  666MOL0     C89780   9.966  11.024   4.854  0.2254 -0.3028  0.1060
  666MOL0     C89781   9.933  10.959   4.971 -0.9903  0.0712 -0.6377
  666MOL0     C89782  10.032  10.923   5.067 -0.4244 -0.4897  0.0204
  666MOL0     O89783  10.013  10.840   5.172 -0.4948  0.0195 -0.2030
  666MOL0     C89784   9.957  10.705   5.151 -0.4172  0.4168  0.7744
  666MOL0     C89785   9.891  10.648   5.280  0.6416 -0.6911  0.5515
  666MOL0     C89786   9.784  10.737   5.352  0.0838  0.1713 -0.1586
  666MOL0     C89787   9.688  10.651   5.441 -1.1777 -0.6367  0.2102
  666MOL0     C89788   9.595  10.544   5.390  0.9590  0.5216 -0.9756
  666MOL0     C89789   9.479  10.587   5.298 -0.0001 -0.2879 -0.8491
  666MOL0     C89790   9.390  10.711   5.353  0.6055  0.8695  0.1288
  666MOL0     C89791   9.320  10.673   5.484 -0.0449  0.8136 -0.1595
  666MOL0     N89792   9.255  10.771   5.561 -0.4310  0.0236 -0.6050
  666MOL0     C89793   9.127  10.765   5.601 -0.7070  0.0262 -0.5646
  666MOL0     C89794   9.113  10.869   5.684  0.4348 -0.4673 -0.2038
  666MOL0     C89795   8.989  10.903   5.764 -0.9344  0.8660  0.1620
  666MOL0     C89796   8.901  11.007   5.707  0.1963  0.7873 -0.1858
  666MOL0     C89797   8.967  11.124   5.645  0.7300 -0.8952 -0.7547
  666MOL0     C89798   8.879  11.252   5.636 -0.9225  0.4848 -0.2450
  666MOL0     O89799   8.860  11.307   5.774  0.1370 -0.4101 -0.1555
  666MOL0     C89800   8.816  11.438   5.776 -0.2453 -0.7573 -0.7325
  666MOL0     C89801   8.791  11.484   5.904  0.3736  0.5156  0.5667
  666MOL0     C89802   8.737  11.613   5.926  0.1355  0.2968 -0.4496
  666MOL0     C89803   8.733  11.663   6.064 -0.0942  0.3048  0.2604
  666MOL0     C89804   8.715  11.695   5.812 -0.1503  0.5305 -0.6400
  666MOL0     C89805   8.646  11.824   5.821 -0.0898 -0.1628  0.3577
  666MOL0     O89806   8.694  11.922   5.735  0.0654 -0.3972  0.2026
  666MOL0     C89807   8.628  12.038   5.715  0.1894  0.0609 -0.3953
  666MOL0     C89808   8.564  12.112   5.817 -0.3630  0.0117  0.2190
  666MOL0     C89809   8.496  12.227   5.789  0.1297 -0.5479 -0.2070
  666MOL0     C89810   8.483  12.280   5.662  0.5259  1.0409 -0.1279
  666MOL0     O89811   8.408  12.393   5.646 -0.2202  0.1726 -0.4263
  666MOL0     C89812   8.268  12.368   5.641  0.0136  0.0859  1.2995
  666MOL0     C89813   8.188  12.476   5.702 -0.4744  0.1631 -0.3010
  666MOL0     C89814   8.229  12.495   5.852 -0.0470 -0.0076  0.2417
  666MOL0     C89815   8.099  12.514   5.940 -0.0987 -0.0256  0.0292
  666MOL0     C89816   8.139  12.529   6.082  0.4561 -0.7965 -1.5352
  666MOL0     C89817   8.020  12.586   6.171 -0.9134 -0.6192  0.4386
  666MOL0     C89818   8.017  12.745   6.149  0.1668  0.0797 -0.3089
  666MOL0     C89819   8.120  12.824   6.222 -0.0436 -0.8144  0.4640
  666MOL0    Cl89820   8.145  12.785   6.398  0.4870  0.4056 -0.2192
  666MOL0     C89821   8.543  12.204   5.557 -0.8960  0.1964 -0.0779
  666MOL0     C89822   8.621  12.091   5.588  0.0401 -0.7324 -0.6728
  666MOL0     O89823   8.558  11.832   5.911  0.4090  0.5130  0.8309
  666MOL0     C89824   8.748  11.649   5.690  0.7887 -1.3919 -0.2445
  666MOL0     C89825   8.782  11.522   5.667 -0.5556 -0.7861  0.1949
  666MOL0     N89826   9.235  10.924   5.702 -0.1464 -0.6410 -0.3472
  666MOL0     N89827   9.321  10.870   5.620 -0.6794 -0.3838  0.0124
  666MOL0     C89828  10.160  10.971   5.044 -0.5757  0.8291  0.2259
  666MOL0     C89829  10.198  11.044   4.931  0.6251  0.0905  0.4701
  666MOL0     C89830  10.136  11.375   4.633  0.8406  0.1715 -0.7918
  666MOL0     C89831  10.262  11.388   4.576  0.4292 -0.3718 -0.6046
  666MOL0     C89832  10.290  11.474   4.470 -0.3213 -0.0940 -0.5189
  666MOL0     C89833  10.187  11.546   4.407  0.7783  0.0712 -0.5810
  666MOL0     O89834  10.206  11.617   4.295 -0.2873 -0.3658 -0.3869
  666MOL0     C89835  10.307  11.713   4.286  0.3161 -0.4426 -1.0625
  666MOL0     C89836  10.272  11.853   4.350  0.3471  0.0226 -0.4646
  666MOL0     C89837  10.136  11.909   4.299 -0.2283 -0.2621  0.9548
  666MOL0     C89838  10.158  12.025   4.208 -0.3845  0.1035  0.2907
  666MOL0     C89839  10.204  12.147   4.283  0.3123  0.1324  0.0103
  666MOL0     C89840  10.241  12.239   4.339 -0.0382 -0.6810 -1.1533
  666MOL0     C89841  10.059  11.536   4.461 -0.3184 -0.6362  0.4501
  666MOL0     C89842  10.034  11.451   4.561  0.6348 -0.0449 -0.0994
  666MOL0     H89843   9.896  11.039   4.772 -0.1227  1.1441  0.6430
  666MOL0     H89844   9.832  10.943   5.008  0.5420  0.2924  4.4661
  666MOL0     H89845   9.883  10.708   5.070 -0.8828 -0.0230  1.1813
  666MOL0     H89846  10.032  10.630   5.126 -0.7974  0.2194  0.2008
  666MOL0     H89847   9.854  10.548   5.254  1.3044 -0.8418  0.1860
  666MOL0     H89848   9.971  10.614   5.346  0.2879  1.0268  1.9430
  666MOL0     H89849   9.838  10.804   5.420  2.0675 -0.5642 -0.9311
  666MOL0     H89850   9.727  10.793   5.277 -1.1199  1.8632  1.9208
  666MOL0     H89851   9.758  10.605   5.512 -1.9055  2.5531  3.2436
  666MOL0     H89852   9.634  10.717   5.509 -0.6186  0.0051  0.0371
  666MOL0     H89853   9.649  10.461   5.345 -0.0343 -1.6636  1.6074
  666MOL0     H89854   9.542  10.498   5.474  0.0548  0.5512 -1.5077
  666MOL0     H89855   9.523  10.623   5.205 -3.5222 -0.9085 -2.9371
  666MOL0     H89856   9.414  10.504   5.268 -1.2569  0.5239 -0.4708
  666MOL0     H89857   9.451  10.797   5.381  0.2404  0.5633  2.0445
  666MOL0     H89858   9.313  10.735   5.280  1.1710 -0.6028 -1.0069
  666MOL0     H89859   9.383  10.611   5.548  1.4864  0.2288 -2.1186
  666MOL0     H89860   9.248  10.595   5.456 -0.4140  1.7856 -2.1251
  666MOL0     H89861   9.049  10.692   5.581 -2.9085  2.4676 -1.4261
  666MOL0     H89862   8.926  10.816   5.781  1.1754 -1.1329 -1.5353
  666MOL0     H89863   9.036  10.930   5.859  0.0938  0.3813 -0.1923
  666MOL0     H89864   8.842  11.034   5.795 -0.4113  0.6126 -0.5362
  666MOL0     H89865   8.831  10.972   5.631  2.8263  1.6523 -3.2270
  666MOL0     H89866   9.010  11.111   5.546 -2.5351  0.4200 -2.4990
  666MOL0     H89867   9.053  11.148   5.708  1.4547  0.2337 -2.1238
  666MOL0     H89868   8.786  11.235   5.582 -0.5809  1.4989 -1.1762
  666MOL0     H89869   8.929  11.324   5.572 -2.0616 -0.2069 -1.9821
  666MOL0     H89870   8.825  11.431   5.992 -3.4583 -0.6211  1.5455
  666MOL0     H89871   8.807  11.603   6.119  2.2565  0.6192 -2.3509
  666MOL0     H89872   8.768  11.767   6.062  3.3890 -0.7320  0.1894
  666MOL0     H89873   8.630  11.649   6.099  0.4596 -0.2534  1.7769
  666MOL0     H89874   8.588  12.079   5.918 -2.6371  1.0043  1.1582
  666MOL0     H89875   8.459  12.288   5.871 -0.7017 -1.1471 -0.1206
  666MOL0     H89876   8.238  12.343   5.539 -0.6199  0.3667  1.4096
  666MOL0     H89877   8.249  12.268   5.683  1.0210 -0.9921 -0.6623
  666MOL0     H89878   8.193  12.566   5.641 -4.2419 -0.6853 -2.1741
  666MOL0     H89879   8.080  12.457   5.699 -1.1447  2.5908  2.6035
  666MOL0     H89880   8.289  12.585   5.870 -0.6263  0.3298  0.5223
  666MOL0     H89881   8.274  12.404   5.892  0.7949  0.6945  0.9416
  666MOL0     H89882   8.044  12.601   5.904 -1.4651 -0.9281 -0.1407
  666MOL0     H89883   8.027  12.432   5.934  0.3368 -0.4488  0.4242
  666MOL0     H89884   8.224  12.595   6.099 -1.9806  1.8759  1.6076
  666MOL0     H89885   8.169  12.430   6.117  1.1190 -0.4107 -1.0164
  666MOL0     H89886   7.930  12.534   6.138 -1.1872  0.9031 -1.4010
  666MOL0     H89887   8.030  12.562   6.277 -2.2832  0.8141  0.9288
  666MOL0     H89888   7.920  12.786   6.176 -0.8296 -2.4293  0.2163
  666MOL0     H89889   8.038  12.764   6.043  1.2483  0.8378  0.0223
  666MOL0     H89890   8.092  12.929   6.209 -0.7303 -1.0100  0.2943
  666MOL0     H89891   8.211  12.803   6.165  0.1039 -1.1181  0.8023
  666MOL0     H89892   8.529  12.234   5.454 -2.4931 -2.0576 -0.5826
  666MOL0     H89893   8.675  12.047   5.505  3.4991  2.4657 -0.3998
  666MOL0     H89894   8.725  11.707   5.601 -0.9950 -1.7033 -0.0109
  666MOL0     H89895   8.788  11.485   5.565  3.4621  0.6093 -0.2561
  666MOL0     H89896  10.234  10.942   5.119  0.5655  2.4062 -0.2219
  666MOL0     H89897  10.297  11.078   4.902  0.5407 -1.1785 -1.5368
  666MOL0     H89898  10.337  11.315   4.605  2.6341  0.4012 -3.8223
  666MOL0     H89899  10.394  11.485   4.439 -1.4541  1.5991 -4.3176
  666MOL0     H89900  10.395  11.687   4.345  1.1858  1.8706 -1.2285
  666MOL0     H89901  10.335  11.723   4.180  4.0679 -1.8849 -0.3553
  666MOL0     H89902  10.358  11.916   4.327  3.0426 -3.0247  0.6215
  666MOL0     H89903  10.264  11.849   4.459  2.9097 -2.2711 -0.2584
  666MOL0     H89904  10.068  11.942   4.377  3.5620  0.6664  4.1976
  666MOL0     H89905  10.089  11.832   4.236  0.3254 -1.3539  1.8379
  666MOL0     H89906  10.065  12.067   4.169  0.0432  2.0484  1.2681
  666MOL0     H89907  10.240  12.002   4.139 -1.0087 -1.8326  0.1325
  666MOL0     H89908  10.279  12.323   4.393 -1.0739  0.2200 -1.7871
  666MOL0     H89909   9.978  11.588   4.410 -1.3067 -0.7728  1.8288
  666MOL0     H89910   9.929  11.445   4.585  0.5071 -2.0853 -0.9358
  667MOL0     O89911   9.445   8.608  10.604  1.0889 -0.6210  1.0230
  667MOL0     C89912   9.530   8.699  10.605 -0.3803  0.4612 -0.3886
  667MOL0     O89913   9.578   8.766  10.715  0.3943  0.7616  0.0939
  667MOL0     C89914   9.565   8.714  10.841 -1.1780 -0.6086  0.5651
  667MOL0     C89915   9.455   8.640  10.883 -0.1297 -0.7465  0.3117
  667MOL0     C89916   9.451   8.585  11.002 -0.2576  0.6213  0.0354
  667MOL0     C89917   9.539   8.622  11.106  0.0258  1.1547  0.5791
  667MOL0     O89918   9.517   8.584  11.238  0.6134  0.2823  0.2751
  667MOL0     C89919   9.421   8.480  11.267  0.5890  0.5455 -0.2407
  667MOL0     C89920   9.391   8.442  11.417 -0.1531 -0.2485  0.1769
  667MOL0     C89921   9.284   8.512  11.489  0.4501  0.0404 -0.4305
  667MOL0     C89922   9.334   8.653  11.525 -0.1257  0.0321  0.5195
  667MOL0     C89923   9.225   8.729  11.599 -0.1626  0.1974  0.3349
  667MOL0     C89924   9.261   8.863  11.653 -0.5386  0.0644 -0.3504
  667MOL0     C89925   9.159   8.981  11.633 -0.4743 -0.2514 -0.0469
  667MOL0     C89926   9.046   8.965  11.734  0.2497  0.6292 -0.5170
  667MOL0     N89927   8.962   8.842  11.720  0.1178 -0.6509  0.3909
  667MOL0     C89928   8.943   8.751  11.826  0.2033  1.1720  0.2485
  667MOL0     C89929   8.863   8.657  11.769 -0.7494  0.0497 -1.2108
  667MOL0     C89930   8.799   8.533  11.835 -0.4478  1.0180 -0.7225
  667MOL0     C89931   8.722   8.440  11.748 -1.2295 -0.3918  0.9144
  667MOL0     C89932   8.816   8.365  11.643  0.0292  0.1672  0.0486
  667MOL0     C89933   8.726   8.290  11.541  0.8650 -0.1436 -1.1307
  667MOL0     O89934   8.808   8.184  11.491 -0.6384  0.3171 -0.7638
  667MOL0     C89935   8.886   8.216  11.386  0.7386  0.1921 -0.2575
  667MOL0     C89936   8.841   8.271  11.268 -0.0605 -0.4518  0.3799
  667MOL0     C89937   8.925   8.291  11.160  0.4263 -0.3512 -0.1326
  667MOL0     C89938   8.863   8.339  11.031  0.2439 -0.4069  0.1278
  667MOL0     C89939   9.067   8.267  11.166 -0.2955  0.5048 -0.2141
  667MOL0     C89940   9.165   8.292  11.060 -0.5367  0.1745  0.3069
  667MOL0     O89941   9.274   8.208  11.041  0.2701  0.9258  0.1217
  667MOL0     C89942   9.369   8.222  10.951 -0.1764  0.6664 -0.0843
  667MOL0     C89943   9.347   8.260  10.814 -0.2862  0.1682 -0.3056
  667MOL0     C89944   9.455   8.266  10.719 -0.0345 -0.4881  0.0336
  667MOL0     C89945   9.590   8.241  10.766  0.2124  0.2920  0.2763
  667MOL0     O89946   9.690   8.260  10.662 -0.0604  0.8283 -0.9497
  667MOL0     C89947   9.817   8.305  10.694 -0.6971  0.0750  0.0387
  667MOL0     C89948   9.810   8.467  10.709  0.0468  0.6573 -0.4650
  667MOL0     C89949   9.941   8.517  10.755 -0.1747  1.7187  0.4937
  667MOL0     C89950  10.050   8.494  10.653 -0.5232 -0.5270 -0.4016
  667MOL0     C89951  10.157   8.603  10.660 -0.7280  0.2320 -0.6085
  667MOL0     C89952  10.134   8.736  10.590 -0.5588 -0.9223  0.1432
  667MOL0     C89953  10.264   8.815  10.554  0.7594  0.0755 -0.1214
  667MOL0     C89954  10.364   8.817  10.675  0.2896 -0.2923  0.1436
  667MOL0    Cl89955  10.522   8.876  10.631 -0.0941  0.4484 -0.1284
  667MOL0     C89956   9.607   8.220  10.908 -0.4790 -0.6486  0.3155
  667MOL0     C89957   9.500   8.212  10.999  0.2564  1.0076  0.6574
  667MOL0     O89958   9.142   8.391  10.997  0.2886 -0.1148  0.9893
  667MOL0     C89959   9.114   8.218  11.282  0.1874  0.1170 -1.1304
  667MOL0     C89960   9.021   8.181  11.390 -0.0440 -0.4384  0.1534
  667MOL0     N89961   8.812   8.707  11.649  1.0984  0.8664 -0.0035
  667MOL0     N89962   8.870   8.813  11.627  0.3543 -0.3863 -0.1708
  667MOL0     C89963   9.656   8.698  11.071 -0.0834  1.2735  0.6093
  667MOL0     C89964   9.669   8.745  10.938 -0.4747 -0.1426  0.0320
  667MOL0     C89965   9.577   8.743  10.477  0.4507 -0.1958  0.1923
  667MOL0     C89966   9.624   8.873  10.455  0.0713  1.7303  0.1427
  667MOL0     C89967   9.659   8.922  10.326  0.1940  0.0342  0.1173
  667MOL0     C89968   9.638   8.830  10.225 -0.6172  0.5656  0.8903
  667MOL0     O89969   9.678   8.859  10.094 -0.6295  0.6003 -0.3789
  667MOL0     C89970   9.584   8.838   9.988  0.0013 -0.2544 -0.2146
  667MOL0     C89971   9.582   8.951   9.885 -0.2187  0.3691  0.5105
  667MOL0     C89972   9.558   9.094   9.939  0.4480 -0.2130  0.2547
  667MOL0     C89973   9.529   9.206   9.834 -0.1671  0.2850  0.9133
  667MOL0     C89974   9.407   9.171   9.758 -0.7448 -0.9328  1.1507
  667MOL0     C89975   9.310   9.146   9.699 -0.1979  0.5465  0.1236
  667MOL0     C89976   9.588   8.705  10.240 -0.3574  0.1997 -0.2704
  667MOL0     C89977   9.566   8.658  10.368 -0.2571  1.1056 -0.0105
  667MOL0     H89978   9.369   8.630  10.819  0.5019 -2.0402 -0.3673
  667MOL0     H89979   9.373   8.515  11.030  1.1770 -0.3711  1.7816
  667MOL0     H89980   9.325   8.501  11.221 -0.3795 -2.7580 -0.0294
  667MOL0     H89981   9.438   8.386  11.214  0.1506  1.1409 -1.4659
  667MOL0     H89982   9.381   8.333  11.423  1.3544 -0.4731 -0.8539
  667MOL0     H89983   9.485   8.464  11.468  0.0176 -0.0844 -0.2028
  667MOL0     H89984   9.198   8.524  11.423  0.3980 -0.1407 -0.3955
  667MOL0     H89985   9.254   8.452  11.576  1.7223 -1.1727 -0.7834
  667MOL0     H89986   9.420   8.655  11.592 -0.1031  0.1023  0.4887
  667MOL0     H89987   9.360   8.707  11.434 -0.0867 -1.0768 -0.1465
  667MOL0     H89988   9.144   8.756  11.530 -0.6246  2.8579  1.7997
  667MOL0     H89989   9.186   8.663  11.677 -2.0316  2.4822  1.4559
  667MOL0     H89990   9.274   8.847  11.761  2.0754  3.3261 -0.0166
  667MOL0     H89991   9.357   8.905  11.619  0.9014  0.0499  3.2133
  667MOL0     H89992   9.216   9.074  11.644 -0.9944  0.1730 -0.7998
  667MOL0     H89993   9.113   8.978  11.534  0.0622  1.5586 -0.3943
  667MOL0     H89994   8.988   9.057  11.727  1.5651  1.6678  1.3623
  667MOL0     H89995   9.088   8.976  11.835 -0.3926  1.4688 -0.3268
  667MOL0     H89996   8.976   8.739  11.929 -2.6003 -0.9518  1.0457
  667MOL0     H89997   8.871   8.464  11.882  0.6609  1.5921 -1.5209
  667MOL0     H89998   8.724   8.565  11.907 -2.5940 -2.6768 -1.0118
  667MOL0     H89999   8.646   8.493  11.689 -2.1532 -0.2377  2.1862
  667MOL0     H90000   8.666   8.362  11.801 -2.6317  1.2248  1.9460
  667MOL0     H90001   8.887   8.300  11.694  0.5471  2.4915  2.5333
  667MOL0     H90002   8.879   8.438  11.591  1.0532 -1.0460 -0.4616
  667MOL0     H90003   8.688   8.368  11.475 -1.8224  1.0643  1.5766
  667MOL0     H90004   8.643   8.245  11.596  0.9142  2.8463  1.7210
  667MOL0     H90005   8.744   8.318  11.254  0.6079  0.9248  0.1733
  667MOL0     H90006   8.878   8.447  11.032 -2.4154  0.0580 -1.6737
  667MOL0     H90007   8.911   8.286  10.948 -2.6182 -0.2150 -1.7826
  667MOL0     H90008   8.755   8.324  11.021 -0.1320  2.7741 -2.1784
  667MOL0     H90009   9.242   8.267  10.790 -0.0197 -0.3647 -1.7320
  667MOL0     H90010   9.442   8.300  10.617  2.5755 -0.4373 -0.3416
  667MOL0     H90011   9.857   8.268  10.789 -1.2626  0.2519  0.3523
  667MOL0     H90012   9.884   8.271  10.615  1.9164  1.3852  1.5534
  667MOL0     H90013   9.800   8.522  10.614 -2.4981 -0.7096 -1.0886
  667MOL0     H90014   9.735   8.485  10.786  1.0604 -3.4714  1.7709
  667MOL0     H90015   9.970   8.486  10.856  0.0383  4.2364  1.2722
  667MOL0     H90016   9.922   8.625  10.763 -1.0160  1.4963  2.0998
  667MOL0     H90017  10.099   8.399  10.678  0.9304  0.2002 -0.3489
  667MOL0     H90018  10.027   8.479  10.547  0.2414 -4.0954 -0.1886
  667MOL0     H90019  10.246   8.550  10.625 -0.2816 -0.3709  1.3255
  667MOL0     H90020  10.178   8.619  10.766 -0.9157 -2.8463 -0.0259
  667MOL0     H90021  10.081   8.724  10.494 -2.7173  1.6355  0.9034
  667MOL0     H90022  10.061   8.789  10.652  0.8000  1.6111 -0.2893
  667MOL0     H90023  10.234   8.916  10.524  0.9985  0.4882  0.9816
  667MOL0     H90024  10.319   8.774  10.469  3.7232 -0.8287  2.0947
  667MOL0     H90025  10.367   8.713  10.710 -3.7586 -1.1215 -1.3406
  667MOL0     H90026  10.330   8.888  10.751  1.6121  2.5230 -1.7103
  667MOL0     H90027   9.711   8.217  10.940  0.0623  2.7517 -0.7338
  667MOL0     H90028   9.508   8.204  11.107  0.1212 -0.7262  0.5667
  667MOL0     H90029   9.220   8.199  11.295  0.0032  0.1902  0.7816
  667MOL0     H90030   9.058   8.133  11.480  0.3414 -0.7297 -0.1582
  667MOL0     H90031   9.724   8.727  11.150 -0.4052  3.0197  0.2874
  667MOL0     H90032   9.751   8.810  10.913 -0.0674 -0.6432  0.0502
  667MOL0     H90033   9.648   8.928  10.545  2.0173  0.7084  0.3141
  667MOL0     H90034   9.711   9.017  10.315  2.9729 -1.1328  2.0507
  667MOL0     H90035   9.618   8.749   9.934 -1.6022 -0.3839 -1.0882
  667MOL0     H90036   9.486   8.833  10.036 -0.0119 -0.9465 -0.3045
  667MOL0     H90037   9.511   8.923   9.806  2.8546 -0.5956 -2.1229
  667MOL0     H90038   9.681   8.938   9.841 -1.1242 -5.5033 -0.5940
  667MOL0     H90039   9.656   9.121   9.979  0.6056  1.8789 -1.3951
  667MOL0     H90040   9.484   9.089  10.019 -0.6317 -0.2289 -0.7255
  667MOL0     H90041   9.612   9.220   9.763 -2.3576 -1.6101 -2.2593
  667MOL0     H90042   9.520   9.298   9.893  0.3636  3.1311 -2.9708
  667MOL0     H90043   9.209   9.149   9.662  0.2057  2.0734 -0.9705
  667MOL0     H90044   9.573   8.642  10.154 -1.2335  1.7745 -1.3178
  667MOL0     H90045   9.544   8.553  10.381  2.4531  0.0597 -2.8501
  668MOL0     O90046   1.507   6.031   8.758  0.4446  0.7009 -0.0524
  668MOL0     C90047   1.477   5.944   8.678 -0.7823  0.2736 -0.4909
  668MOL0     O90048   1.418   5.815   8.702  0.3023  0.1336  0.1892
  668MOL0     C90049   1.415   5.774   8.837 -0.2622  0.0229 -0.8328
  668MOL0     C90050   1.504   5.814   8.945  0.1218 -0.0749  1.4135
  668MOL0     C90051   1.532   5.739   9.060  0.0807  0.2545 -0.4891
  668MOL0     C90052   1.463   5.624   9.087 -0.4783  0.7684 -0.5386
  668MOL0     O90053   1.477   5.564   9.207  0.3028  0.1451  0.0539
  668MOL0     C90054   1.603   5.503   9.232 -0.0215 -0.8014 -0.0155
  668MOL0     C90055   1.595   5.411   9.361  0.8310  0.0961  0.6090
  668MOL0     C90056   1.529   5.276   9.325 -0.0539 -0.0537 -0.0169
  668MOL0     C90057   1.393   5.278   9.266 -0.4651  1.2216 -0.2530
  668MOL0     C90058   1.336   5.142   9.278 -0.0013  0.3330 -0.0430
  668MOL0     C90059   1.262   5.083   9.166 -0.7831 -0.0152 -0.2398
  668MOL0     C90060   1.366   5.048   9.048  0.2887 -0.1856 -0.1929
  668MOL0     C90061   1.286   5.016   8.917 -0.3791  0.3112  0.2089
  668MOL0     N90062   1.176   4.927   8.947  0.5801  0.3553  0.3356
  668MOL0     C90063   1.183   4.788   8.932  0.0260 -0.0626 -1.5881
  668MOL0     C90064   1.055   4.747   8.947  1.2719  0.6114 -0.1548
  668MOL0     C90065   1.015   4.603   8.926  0.2252  0.3730 -0.5420
  668MOL0     C90066   1.027   4.510   9.058  0.8669  0.6168  0.6495
  668MOL0     C90067   0.968   4.560   9.192 -0.1944  0.3520 -1.3037
  668MOL0     C90068   0.962   4.444   9.301 -0.2174 -1.5989 -0.1046
  668MOL0     O90069   1.090   4.381   9.298 -0.4131 -0.7693 -0.8377
  668MOL0     C90070   1.136   4.313   9.409  0.1236  0.2919 -0.4935
  668MOL0     C90071   1.065   4.265   9.524 -0.2660 -0.4940  0.1303
  668MOL0     C90072   1.130   4.192   9.621  0.2555 -0.2941  0.3977
  668MOL0     C90073   1.043   4.145   9.727  0.1656  0.1195  0.4759
  668MOL0     C90074   1.268   4.169   9.609  0.4384 -0.1907 -0.2365
  668MOL0     C90075   1.353   4.084   9.701 -0.2849  0.3182  0.1959
  668MOL0     O90076   1.485   4.084   9.660  0.5743  0.4301 -0.5141
  668MOL0     C90077   1.569   4.002   9.731 -0.1842  0.5477  0.8908
  668MOL0     C90078   1.606   4.032   9.856 -0.5783  0.9588  0.1670
  668MOL0     C90079   1.696   3.944   9.931  0.1467 -0.3850  0.8004
  668MOL0     C90080   1.743   3.820   9.891  0.1602  0.4556  0.1439
  668MOL0     O90081   1.815   3.745   9.983  0.2037  0.0235 -0.1148
  668MOL0     C90082   1.880   3.627   9.938  0.1785 -0.4605 -0.6016
  668MOL0     C90083   1.922   3.552  10.067  0.2839  0.5646  0.0150
  668MOL0     C90084   2.044   3.629  10.136 -0.2367  0.3309  1.0865
  668MOL0     C90085   2.098   3.550  10.253  0.5973 -0.6112  1.1294
  668MOL0     C90086   2.009   3.552  10.374  0.7841 -0.5950 -0.4377
  668MOL0     C90087   2.044   3.444  10.476 -0.6098 -0.8547 -0.0737
  668MOL0     C90088   1.967   3.310  10.461 -0.4790 -0.5053 -0.3241
  668MOL0     C90089   2.067   3.188  10.473 -0.9265  0.0109 -0.7690
  668MOL0    Cl90090   2.192   3.200  10.606  0.0400 -0.3122 -0.5668
  668MOL0     C90091   1.700   3.786   9.753 -0.6068  0.2195  0.3464
  668MOL0     C90092   1.621   3.879   9.679  0.6873  0.3882  0.3050
  668MOL0     O90093   1.296   4.011   9.783  0.1778  0.0369 -0.0978
  668MOL0     C90094   1.334   4.220   9.495  0.5828  0.1466 -0.0773
  668MOL0     C90095   1.270   4.282   9.395 -0.2036 -0.5301  0.2763
  668MOL0     N90096   0.976   4.855   8.974 -1.2196 -0.0432  0.9525
  668MOL0     N90097   1.047   4.954   8.969 -0.1779 -0.3428 -0.7045
  668MOL0     C90098   1.362   5.576   8.998 -0.5599  0.4172  0.6651
  668MOL0     C90099   1.345   5.653   8.871 -0.5632  0.3015  0.5569
  668MOL0     C90100   1.517   5.960   8.540 -0.6414 -0.7259 -0.3243
  668MOL0     C90101   1.437   5.908   8.433 -0.6984 -0.3663 -0.1146
  668MOL0     C90102   1.484   5.933   8.307 -0.3840 -0.1665  0.2359
  668MOL0     C90103   1.597   6.006   8.278  0.2495  0.4808 -0.5518
  668MOL0     O90104   1.654   6.001   8.151 -0.2198 -0.7984  0.5257
  668MOL0     C90105   1.762   6.088   8.113  0.5068  1.1858 -0.8536
  668MOL0     C90106   1.758   6.124   7.962 -0.1328  0.5363  1.3503
  668MOL0     C90107   1.772   5.984   7.885  0.3374  0.1820  0.3906
  668MOL0     C90108   1.738   5.997   7.734  0.0904 -0.8516  0.9000
  668MOL0     C90109   1.823   6.091   7.670 -0.5877  0.8864  0.5055
  668MOL0     C90110   1.899   6.169   7.610 -0.1846  0.5403  0.3102
  668MOL0     C90111   1.673   6.059   8.386 -0.5133  0.7259 -0.5638
  668MOL0     C90112   1.636   6.031   8.518 -0.8371 -0.3532  0.7217
  668MOL0     H90113   1.574   5.897   8.942 -0.2280  0.1779 -0.5821
  668MOL0     H90114   1.608   5.780   9.125 -2.3569 -2.2735  4.4841
  668MOL0     H90115   1.630   5.449   9.141 -1.8086  1.7591 -2.2282
  668MOL0     H90116   1.679   5.577   9.259  0.1358 -0.2497 -1.8799
  668MOL0     H90117   1.697   5.400   9.399  1.5738  2.4223 -0.4695
  668MOL0     H90118   1.548   5.458   9.448  0.1290  0.5008  0.0272
  668MOL0     H90119   1.600   5.207   9.279 -1.1580 -0.8399 -0.5592
  668MOL0     H90120   1.518   5.232   9.425  0.4345  0.2984  0.1976
  668MOL0     H90121   1.327   5.356   9.305 -0.1820  1.6413 -0.6114
  668MOL0     H90122   1.402   5.288   9.158 -0.2590  2.3466 -0.1345
  668MOL0     H90123   1.409   5.063   9.297  1.5138  1.6396 -0.2096
  668MOL0     H90124   1.288   5.139   9.377  0.1065  1.1559  0.0424
  668MOL0     H90125   1.218   4.987   9.195  0.9497 -1.6455 -2.6392
  668MOL0     H90126   1.191   5.156   9.126  0.2608  0.0241 -2.1362
  668MOL0     H90127   1.435   5.131   9.028  1.6073 -1.2430 -0.1657
  668MOL0     H90128   1.434   4.974   9.090  0.7899  0.5091  0.2530
  668MOL0     H90129   1.348   4.976   8.836 -3.2244 -0.0872 -1.8982
  668MOL0     H90130   1.246   5.110   8.878  0.0951  0.1223 -0.7641
  668MOL0     H90131   1.269   4.726   8.906 -0.1370 -2.1443  2.2128
  668MOL0     H90132   0.906   4.611   8.921 -0.0729  0.8305  3.3213
  668MOL0     H90133   1.058   4.551   8.841  2.5119 -0.4947  1.0532
  668MOL0     H90134   1.136   4.503   9.069  1.1965  0.0577 -2.3355
  668MOL0     H90135   0.993   4.407   9.047 -1.7349  1.3285  1.2919
  668MOL0     H90136   0.869   4.598   9.163 -0.5733 -0.2432 -0.8218
  668MOL0     H90137   1.026   4.644   9.230  0.5500 -1.3769  1.6362
  668MOL0     H90138   0.883   4.373   9.274 -1.8498  0.8158 -2.2815
  668MOL0     H90139   0.933   4.490   9.396  0.9765 -1.3955  0.1736
  668MOL0     H90140   0.964   4.305   9.519  1.0273  3.0559 -0.7676
  668MOL0     H90141   0.960   4.215   9.741 -0.5449 -0.3651 -1.1463
  668MOL0     H90142   1.001   4.046   9.709  2.3709 -1.0517  1.3776
  668MOL0     H90143   1.089   4.138   9.826 -0.3432  0.5574  0.7480
  668MOL0     H90144   1.580   4.118   9.918  2.3215  1.6769  0.5221
  668MOL0     H90145   1.709   3.976  10.034 -4.9517  5.6997  0.1469
  668MOL0     H90146   1.813   3.572   9.872  3.1774 -0.9636 -3.4715
  668MOL0     H90147   1.970   3.656   9.884 -2.1782  2.6324 -3.3104
  668MOL0     H90148   1.834   3.539  10.131 -0.7068 -0.4982 -1.4825
  668MOL0     H90149   1.969   3.456  10.048  1.7831  1.2714 -0.0094
  668MOL0     H90150   2.008   3.723  10.178 -0.6407 -0.1398  1.8071
  668MOL0     H90151   2.128   3.642  10.067 -0.6218  1.2511  0.7845
  668MOL0     H90152   2.103   3.450  10.210  0.1632 -0.4672  0.7383
  668MOL0     H90153   2.196   3.592  10.280 -2.3562  6.5188  3.1252
  668MOL0     H90154   1.902   3.555  10.353  1.1916  2.7315 -2.9172
  668MOL0     H90155   2.029   3.649  10.421  0.2455 -0.0415 -1.3317
  668MOL0     H90156   2.152   3.430  10.484 -0.1369  0.0913 -3.3871
  668MOL0     H90157   2.019   3.494  10.571  1.2781  2.7693 -1.2878
  668MOL0     H90158   1.913   3.301  10.366 -0.0174 -2.4574 -0.4407
  668MOL0     H90159   1.888   3.288  10.532 -1.7386 -2.7244 -2.2533
  668MOL0     H90160   2.109   3.168  10.374 -2.8669 -2.4853 -1.2018
  668MOL0     H90161   2.002   3.101  10.488  1.6059 -2.1878 -1.6970
  668MOL0     H90162   1.734   3.693   9.708  2.4546  0.9914  0.8836
  668MOL0     H90163   1.604   3.849   9.576  4.1263 -2.9927  0.4996
  668MOL0     H90164   1.442   4.227   9.490  0.6521 -1.3833 -3.7627
  668MOL0     H90165   1.324   4.303   9.303  3.0144 -4.6380  0.9044
  668MOL0     H90166   1.294   5.501   9.038  1.4918 -0.0981  3.5576
  668MOL0     H90167   1.276   5.614   8.796 -2.7087 -1.8815  3.4323
  668MOL0     H90168   1.348   5.846   8.434 -1.3720  0.5379 -1.3103
  668MOL0     H90169   1.435   5.894   8.219 -0.6316  1.8919 -0.5941
  668MOL0     H90170   1.763   6.182   8.169  2.9326  1.2401 -0.8829
  668MOL0     H90171   1.859   6.045   8.142  0.1051  0.6322 -0.3022
  668MOL0     H90172   1.841   6.183   7.921 -1.1031  0.3650 -1.0262
  668MOL0     H90173   1.670   6.172   7.920  1.2823 -0.2655 -3.0725
  668MOL0     H90174   1.710   5.905   7.925 -0.0248 -1.1431 -2.5389
  668MOL0     H90175   1.875   5.946   7.887 -0.0273 -1.2644 -2.5253
  668MOL0     H90176   1.634   6.025   7.717 -0.0859 -1.1752  1.4039
  668MOL0     H90177   1.748   5.901   7.683 -1.3342 -0.5783  0.0406
  668MOL0     H90178   1.967   6.239   7.566  0.9850 -0.9023 -0.2852
  668MOL0     H90179   1.771   6.102   8.375 -0.6740  0.8102 -1.8113
  668MOL0     H90180   1.707   6.064   8.593  2.0070  2.1381 -2.7278
  669MOL0     O90181   7.075   2.765   7.693 -0.5596  0.2263 -0.3260
  669MOL0     C90182   7.015   2.807   7.793 -0.2144 -0.1452  0.5231
  669MOL0     O90183   6.974   2.728   7.899  0.2996  0.4223  1.1968
  669MOL0     C90184   7.042   2.611   7.933  0.6176 -0.1841  0.1485
  669MOL0     C90185   7.180   2.606   7.917  0.6438  0.7231  0.5621
  669MOL0     C90186   7.238   2.486   7.955 -0.5114  0.3231 -0.4460
  669MOL0     C90187   7.166   2.376   8.001 -0.3423  0.1042 -1.0056
  669MOL0     O90188   7.225   2.267   8.066  0.5962 -0.2338 -0.8120
  669MOL0     C90189   7.363   2.234   8.065  0.3908 -0.1990 -0.1534
  669MOL0     C90190   7.402   2.171   7.934  0.9101 -0.7711 -0.0674
  669MOL0     C90191   7.552   2.171   7.928 -0.7370  0.1155  0.5188
  669MOL0     C90192   7.594   2.091   7.804 -0.5962 -0.3719 -0.0017
  669MOL0     C90193   7.748   2.074   7.792 -0.0301 -0.3205 -0.3580
  669MOL0     C90194   7.831   2.197   7.795  0.9722 -1.1585  0.4939
  669MOL0     C90195   7.912   2.228   7.665 -0.3481 -0.4279  0.4223
  669MOL0     C90196   8.042   2.313   7.709  0.0309  0.7994  0.9499
  669MOL0     N90197   8.129   2.341   7.603 -0.3663 -1.1179  0.3692
  669MOL0     C90198   8.272   2.330   7.611  0.1888  0.3322 -0.5702
  669MOL0     C90199   8.311   2.367   7.485 -0.6023  0.5817  0.4986
  669MOL0     C90200   8.461   2.375   7.440  0.8292 -0.4862  0.1115
  669MOL0     C90201   8.516   2.517   7.433  0.8566  0.4937 -0.2568
  669MOL0     C90202   8.525   2.575   7.578  0.2178  0.3280 -0.0008
  669MOL0     C90203   8.583   2.713   7.580 -0.4506  0.6967 -0.5538
  669MOL0     O90204   8.519   2.805   7.487  0.4970  0.4017  0.5181
  669MOL0     C90205   8.526   2.933   7.522  1.1502 -0.1278 -0.3443
  669MOL0     C90206   8.404   3.003   7.502  0.3346 -0.5352 -0.3571
  669MOL0     C90207   8.387   3.142   7.529  0.2097  0.2669  0.0905
  669MOL0     C90208   8.255   3.213   7.502  0.5680 -0.6004 -0.5184
  669MOL0     C90209   8.492   3.202   7.601 -0.2515  0.4366  0.8329
  669MOL0     C90210   8.492   3.348   7.634  0.2073 -0.2024  0.3204
  669MOL0     O90211   8.600   3.420   7.598 -0.3179 -0.8472  0.0830
  669MOL0     C90212   8.608   3.553   7.642 -0.7420  0.0092  0.1909
  669MOL0     C90213   8.571   3.653   7.557 -0.1477 -1.4362 -0.1249
  669MOL0     C90214   8.597   3.789   7.587  0.7946 -0.0719  0.0743
  669MOL0     C90215   8.650   3.826   7.709 -0.2766 -0.3035  0.7679
  669MOL0     O90216   8.675   3.957   7.739 -0.2906  0.7865 -0.7750
  669MOL0     C90217   8.633   4.060   7.653 -0.0437  0.1116 -1.1081
  669MOL0     C90218   8.665   4.204   7.705  0.1801 -0.4934  0.0618
  669MOL0     C90219   8.640   4.304   7.582  0.6869  0.4012  1.6169
  669MOL0     C90220   8.654   4.444   7.634 -0.3354  0.7261 -0.4614
  669MOL0     C90221   8.636   4.534   7.517  0.1757  0.4055  0.3070
  669MOL0     C90222   8.623   4.678   7.569  0.0533 -1.0386  0.0705
  669MOL0     C90223   8.623   4.775   7.453 -0.0208  0.6736 -0.0621
  669MOL0     C90224   8.595   4.919   7.489  0.0690 -0.2954 -0.1667
  669MOL0    Cl90225   8.430   4.947   7.576 -0.1286 -0.1066  0.0913
  669MOL0     C90226   8.680   3.726   7.796  0.5130 -0.4058 -0.2482
  669MOL0     C90227   8.666   3.597   7.765  0.5900 -0.0772  0.3058
  669MOL0     O90228   8.390   3.388   7.692 -0.2607  0.3782 -0.0975
  669MOL0     C90229   8.613   3.129   7.624  0.4583 -0.8181  0.2795
  669MOL0     C90230   8.628   2.999   7.583 -0.8446  0.8833  0.6553
  669MOL0     N90231   8.205   2.412   7.419 -0.7730 -0.0215 -1.0634
  669MOL0     N90232   8.100   2.396   7.488 -0.3185  0.5894 -0.1146
  669MOL0     C90233   7.026   2.386   8.016 -0.6233 -0.8092  0.5089
  669MOL0     C90234   6.959   2.505   7.981  0.5651  0.3484 -0.3960
  669MOL0     C90235   6.949   2.940   7.784  0.4715 -0.6524 -0.9473
  669MOL0     C90236   6.833   2.955   7.857  0.6961  0.5919 -0.8022
  669MOL0     C90237   6.759   3.071   7.854  0.8301  0.2712  0.3212
  669MOL0     C90238   6.795   3.171   7.766  0.0771  0.7127 -0.9026
  669MOL0     O90239   6.706   3.274   7.752 -0.8153  0.4134  0.1779
  669MOL0     C90240   6.644   3.273   7.623 -1.6496 -0.5081 -0.0319
  669MOL0     C90241   6.505   3.341   7.641 -0.6471  0.8807 -0.6647
  669MOL0     C90242   6.404   3.251   7.712 -0.1080 -0.5995 -0.2385
  669MOL0     C90243   6.292   3.349   7.762 -0.1586  0.8227  0.1669
  669MOL0     C90244   6.186   3.260   7.814 -0.0410  0.0433 -0.0756
  669MOL0     C90245   6.106   3.168   7.832 -0.5902 -0.4307  0.5951
  669MOL0     C90246   6.906   3.160   7.687  0.9891  0.9278  1.2321
  669MOL0     C90247   6.990   3.045   7.694  0.3668 -0.4907  0.1037
  669MOL0     H90248   7.242   2.685   7.876  0.3036 -0.3446 -2.2249
  669MOL0     H90249   7.345   2.469   7.960 -0.4966  0.0955 -1.2762
  669MOL0     H90250   7.428   2.320   8.086 -1.4241  0.6602  2.4422
  669MOL0     H90251   7.383   2.162   8.145  0.3750  0.1772  0.1948
  669MOL0     H90252   7.358   2.071   7.934 -1.6159  0.2771  0.3809
  669MOL0     H90253   7.351   2.220   7.851  1.1069 -0.6086 -0.0940
  669MOL0     H90254   7.592   2.273   7.931  1.3300 -0.4916 -2.0907
  669MOL0     H90255   7.593   2.116   8.013  2.6973 -0.4303 -1.2972
  669MOL0     H90256   7.545   1.994   7.793 -0.8772 -0.2015 -0.2815
  669MOL0     H90257   7.561   2.155   7.721 -1.0589  1.7701  1.7287
  669MOL0     H90258   7.764   2.029   7.890 -0.0504  1.1788  0.3619
  669MOL0     H90259   7.781   2.007   7.712 -1.9152  0.6097 -2.0206
  669MOL0     H90260   7.766   2.279   7.826 -1.5303 -3.8218  3.0308
  669MOL0     H90261   7.909   2.189   7.872  0.9976 -0.1302  0.5860
  669MOL0     H90262   7.949   2.133   7.625  3.1737  1.0700 -0.2882
  669MOL0     H90263   7.845   2.278   7.594  0.3587 -0.7357 -0.4819
  669MOL0     H90264   8.100   2.237   7.763 -0.6669 -0.3882  0.0454
  669MOL0     H90265   8.030   2.383   7.792 -2.8070  2.9268 -1.0630
  669MOL0     H90266   8.324   2.312   7.704 -1.7692  2.4747  1.0484
  669MOL0     H90267   8.523   2.314   7.507 -2.2873 -2.5351  1.3889
  669MOL0     H90268   8.467   2.336   7.338  1.7882  0.0422 -0.0378
  669MOL0     H90269   8.443   2.573   7.374 -0.2941 -1.1197 -0.4415
  669MOL0     H90270   8.615   2.511   7.387  1.5189 -0.0433  1.1968
  669MOL0     H90271   8.585   2.514   7.646 -0.1963  0.2693  0.3154
  669MOL0     H90272   8.422   2.579   7.616  0.3747 -0.8907  0.5892
  669MOL0     H90273   8.690   2.711   7.554 -0.1810  2.8045  0.1598
  669MOL0     H90274   8.589   2.754   7.681 -1.2055  2.0368 -1.0265
  669MOL0     H90275   8.314   2.956   7.464  0.5628  0.9187 -2.9118
  669MOL0     H90276   8.200   3.157   7.426 -0.5121  0.4768 -0.5658
  669MOL0     H90277   8.190   3.221   7.589  1.4751 -2.3745  0.3718
  669MOL0     H90278   8.271   3.317   7.470 -2.3012 -0.6133 -2.3491
  669MOL0     H90279   8.547   3.631   7.453  1.1064  1.2343 -1.0635
  669MOL0     H90280   8.565   3.871   7.523 -1.0477  0.9030  2.0948
  669MOL0     H90281   8.686   4.047   7.558  4.7118 -2.2800  1.4783
  669MOL0     H90282   8.525   4.052   7.644 -0.3398  0.0037  1.6602
  669MOL0     H90283   8.593   4.232   7.782 -0.1620  0.3900 -0.5515
  669MOL0     H90284   8.767   4.199   7.743  0.3839  0.8720 -0.2474
  669MOL0     H90285   8.542   4.291   7.535  0.0800  3.2965  1.9328
  669MOL0     H90286   8.717   4.275   7.510 -2.4929 -2.6614 -0.9476
  669MOL0     H90287   8.585   4.473   7.713  0.0407 -1.0215  0.5538
  669MOL0     H90288   8.755   4.455   7.674  1.4952 -2.1581 -3.6571
  669MOL0     H90289   8.548   4.510   7.456 -1.5020  1.1193  2.2954
  669MOL0     H90290   8.725   4.525   7.454  0.4022 -0.2456  0.7228
  669MOL0     H90291   8.532   4.677   7.630  0.1689 -1.9160  0.2468
  669MOL0     H90292   8.701   4.707   7.639 -0.5569 -1.0263  0.7564
  669MOL0     H90293   8.547   4.736   7.385  2.1236 -4.9479  0.2028
  669MOL0     H90294   8.719   4.768   7.400 -0.3164  0.4628 -0.5766
  669MOL0     H90295   8.578   4.984   7.403 -1.8400  0.7188  0.8938
  669MOL0     H90296   8.678   4.962   7.546  2.8114 -2.4572 -2.2791
  669MOL0     H90297   8.712   3.758   7.894 -5.1974 -0.6034  2.0695
  669MOL0     H90298   8.693   3.529   7.846  0.1791 -1.6308 -0.8127
  669MOL0     H90299   8.692   3.200   7.649 -0.1753  0.4515 -1.1423
  669MOL0     H90300   8.727   2.952   7.582  0.4266  3.3818  0.9758
  669MOL0     H90301   6.977   2.302   8.065 -2.3823 -0.5194 -0.6353
  669MOL0     H90302   6.851   2.495   7.985  0.7033 -1.7041 -0.8018
  669MOL0     H90303   6.784   2.884   7.923  2.1344 -0.8504 -1.2342
  669MOL0     H90304   6.668   3.077   7.912  1.2196  2.2605  0.7879
  669MOL0     H90305   6.707   3.325   7.551 -2.5751  0.8290  0.0852
  669MOL0     H90306   6.630   3.174   7.577  0.6928 -1.8851  1.9460
  669MOL0     H90307   6.461   3.363   7.544 -1.0449 -2.5977 -1.4136
  669MOL0     H90308   6.511   3.435   7.696  0.1088 -0.0132  0.8835
  669MOL0     H90309   6.456   3.194   7.789  4.9227  0.5714 -2.3624
  669MOL0     H90310   6.367   3.175   7.643 -1.7455  1.6205 -1.9461
  669MOL0     H90311   6.259   3.410   7.678  2.0273  1.2024 -0.4848
  669MOL0     H90312   6.328   3.413   7.843  1.4839  1.0945 -0.7320
  669MOL0     H90313   6.043   3.084   7.849 -1.2221 -0.0542  0.1564
  669MOL0     H90314   6.932   3.244   7.624  0.1866  0.4092  0.1684
  669MOL0     H90315   7.077   3.056   7.630  0.1254  0.7976 -0.0243
  670MOL0     O90316   3.154   4.456   4.680  0.4941  0.5118 -0.6021
  670MOL0     C90317   3.161   4.335   4.725 -1.1101 -0.1743  0.1349
  670MOL0     O90318   3.256   4.283   4.809  0.1060 -0.4378 -0.0479
  670MOL0     C90319   3.364   4.358   4.861 -0.3875  0.6688  0.2942
  670MOL0     C90320   3.430   4.479   4.823  0.6839  0.4650 -0.0967
  670MOL0     C90321   3.549   4.529   4.886 -0.3121  0.4209  0.9301
  670MOL0     C90322   3.607   4.437   4.968  0.7063  0.7501 -0.2789
  670MOL0     O90323   3.719   4.484   5.027 -0.2425  0.7031 -0.1236
  670MOL0     C90324   3.840   4.417   4.970  0.6492  0.1340 -0.4037
  670MOL0     C90325   3.880   4.292   5.057  0.5153 -0.0153  1.1225
  670MOL0     C90326   4.007   4.215   5.028  0.6149  0.0728 -0.3849
  670MOL0     C90327   4.005   4.085   5.103 -0.1450 -0.1948 -1.3635
  670MOL0     C90328   4.071   4.107   5.245 -0.2028  0.2222  0.6017
  670MOL0     C90329   4.048   3.985   5.350 -0.3846 -0.2919 -0.2736
  670MOL0     C90330   4.180   3.984   5.431 -0.3752  0.2771 -0.2866
  670MOL0     C90331   4.160   3.880   5.554  0.7180 -0.3030  0.1270
  670MOL0     N90332   4.036   3.793   5.566  0.4858  0.3788  0.1278
  670MOL0     C90333   4.024   3.667   5.509 -0.9681 -0.4810 -0.0032
  670MOL0     C90334   3.894   3.635   5.526 -0.3022  0.4725  0.6960
  670MOL0     C90335   3.834   3.504   5.499  0.1939 -0.3986 -0.2278
  670MOL0     C90336   3.719   3.507   5.389  0.2113 -0.2666 -0.0910
  670MOL0     C90337   3.630   3.387   5.377 -0.0628  0.1381 -0.0125
  670MOL0     C90338   3.706   3.257   5.344  0.6921 -0.6643  0.5613
  670MOL0     O90339   3.774   3.198   5.456  0.8360 -0.1321 -0.3561
  670MOL0     C90340   3.827   3.071   5.446  0.1813 -0.3243 -0.0017
  670MOL0     C90341   3.836   2.997   5.325 -0.4023 -0.1759 -0.2909
  670MOL0     C90342   3.873   2.864   5.323  0.0184  0.3610 -0.1129
  670MOL0     C90343   3.862   2.789   5.188  0.3605  0.2878  0.5692
  670MOL0     C90344   3.906   2.796   5.443  0.6767 -0.7262 -0.0101
  670MOL0     C90345   3.950   2.659   5.461  0.2388  0.2670  0.1803
  670MOL0     O90346   4.013   2.599   5.351 -0.4591 -0.5259 -0.0344
  670MOL0     C90347   3.997   2.467   5.321  1.1635 -0.0565 -0.2688
  670MOL0     C90348   3.878   2.396   5.343 -0.3285 -0.2582  0.6327
  670MOL0     C90349   3.864   2.260   5.292  0.0990 -0.0960  0.3471
  670MOL0     C90350   3.966   2.198   5.216  0.2438  1.0487 -0.7664
  670MOL0     O90351   3.957   2.064   5.183 -0.6036 -0.3415  0.5501
  670MOL0     C90352   4.014   2.008   5.064  0.4540  0.5313 -0.3389
  670MOL0     C90353   4.153   1.958   5.085  0.0853  0.8836 -0.9346
  670MOL0     C90354   4.190   1.875   4.959 -0.1961 -1.6064 -0.6272
  670MOL0     C90355   4.330   1.822   4.983  0.0250  0.0752  0.8011
  670MOL0     C90356   4.350   1.712   4.879  0.6983  0.6112  0.0487
  670MOL0     C90357   4.495   1.658   4.863 -0.9924  0.4413 -1.0209
  670MOL0     C90358   4.602   1.739   4.784  0.0775  1.0012  0.9496
  670MOL0     C90359   4.755   1.700   4.816  0.5889  0.1839  0.9736
  670MOL0    Cl90360   4.793   1.524   4.793  0.8687  0.2552 -0.3572
  670MOL0     C90361   4.079   2.271   5.196  1.4322  0.1221  0.1682
  670MOL0     C90362   4.103   2.399   5.254  0.0433 -0.0400 -0.1981
  670MOL0     O90363   3.900   2.601   5.554  0.8116 -0.4867 -0.1211
  670MOL0     C90364   3.908   2.880   5.558  0.5218 -0.4217  0.1221
  670MOL0     C90365   3.871   3.018   5.555 -0.2307 -0.4164 -0.1290
  670MOL0     N90366   3.822   3.744   5.571  0.0714  0.6938 -0.0861
  670MOL0     N90367   3.912   3.829   5.603  0.0449 -0.4689 -1.1182
  670MOL0     C90368   3.539   4.323   5.019  0.1421  1.1608 -0.4176
  670MOL0     C90369   3.423   4.275   4.961  0.3518  0.2351  0.4971
  670MOL0     C90370   3.057   4.238   4.675  0.4436  0.5041  0.0039
  670MOL0     C90371   3.048   4.111   4.731 -0.2371 -0.1130 -0.3138
  670MOL0     C90372   2.941   4.021   4.709  0.5573  0.5312  0.7680
  670MOL0     C90373   2.836   4.056   4.616 -0.0154 -0.4182 -0.2588
  670MOL0     O90374   2.745   3.961   4.581  0.6478 -0.0731  0.3115
  670MOL0     C90375   2.681   3.971   4.457  0.0853 -0.5936  0.3829
  670MOL0     C90376   2.766   3.965   4.332  0.6971  1.0529 -0.6112
  670MOL0     C90377   2.680   3.910   4.219 -0.5534  0.1396 -0.1563
  670MOL0     C90378   2.622   4.008   4.114  0.8547  0.2285  0.7610
  670MOL0     C90379   2.734   4.058   4.028  0.3077  0.2518  0.4387
  670MOL0     C90380   2.834   4.087   3.958  0.0836  0.5587 -0.0582
  670MOL0     C90381   2.846   4.184   4.560  0.8008 -0.0365 -0.1478
  670MOL0     C90382   2.954   4.272   4.589 -0.1509  0.3135  0.6949
  670MOL0     H90383   3.380   4.540   4.748 -2.1970 -2.7478 -1.0413
  670MOL0     H90384   3.588   4.627   4.860 -0.9375  0.2968 -0.5851
  670MOL0     H90385   3.832   4.395   4.864  1.1122  2.4714 -0.9777
  670MOL0     H90386   3.916   4.496   4.970 -0.8182  1.6510  1.3547
  670MOL0     H90387   3.876   4.319   5.163  0.6756  0.0224  1.1202
  670MOL0     H90388   3.800   4.218   5.049  1.6737 -1.6482  3.3545
  670MOL0     H90389   4.011   4.194   4.921  2.9360 -1.5879 -0.0611
  670MOL0     H90390   4.100   4.270   5.045  1.4283 -0.7071 -2.0984
  670MOL0     H90391   3.906   4.038   5.106 -0.0147 -0.4487 -0.7583
  670MOL0     H90392   4.060   4.014   5.041  0.0417  0.8464 -2.4157
  670MOL0     H90393   4.176   4.128   5.224 -0.6395  1.2192 -0.7406
  670MOL0     H90394   4.021   4.197   5.283 -3.1251  0.0678 -2.4672
  670MOL0     H90395   3.961   4.004   5.414 -0.6258  0.5068 -0.8276
  670MOL0     H90396   4.030   3.887   5.305  1.2795 -0.3319 -0.9022
  670MOL0     H90397   4.267   3.961   5.369  0.7919 -1.4299  1.8520
  670MOL0     H90398   4.185   4.084   5.476 -0.3164  0.0631  0.1893
  670MOL0     H90399   4.168   3.940   5.645 -0.5209  2.0475 -1.2103
  670MOL0     H90400   4.253   3.823   5.548  2.1212  1.8817  0.0004
  670MOL0     H90401   4.104   3.607   5.467 -0.7400 -0.0681 -0.1674
  670MOL0     H90402   3.914   3.441   5.459  0.7288  0.8463 -1.2111
  670MOL0     H90403   3.789   3.456   5.586 -2.4615  1.3123 -0.5285
  670MOL0     H90404   3.759   3.520   5.288  1.7644  1.5233  0.6896
  670MOL0     H90405   3.652   3.591   5.409 -0.7692 -1.0679  0.0538
  670MOL0     H90406   3.568   3.415   5.291  2.2916 -1.0726 -2.2450
  670MOL0     H90407   3.562   3.364   5.460 -1.3695 -0.2952 -1.1552
  670MOL0     H90408   3.775   3.278   5.262  1.7014  0.2559  1.5998
  670MOL0     H90409   3.634   3.185   5.304  0.9624 -0.1723 -0.8742
  670MOL0     H90410   3.812   3.046   5.231  0.9084  3.9458  1.2932
  670MOL0     H90411   3.818   2.849   5.108 -1.4651 -0.1055  1.2282
  670MOL0     H90412   3.961   2.757   5.154  0.5798  0.8146  0.6885
  670MOL0     H90413   3.787   2.710   5.199 -2.8052  3.1484  1.4397
  670MOL0     H90414   3.793   2.450   5.381 -0.2607  1.4910 -1.4636
  670MOL0     H90415   3.767   2.213   5.302  0.1335 -0.4622 -0.8061
  670MOL0     H90416   3.961   1.923   5.020  1.7946  0.0777 -1.1556
  670MOL0     H90417   4.016   2.081   4.982 -4.2103 -1.4324 -2.5333
  670MOL0     H90418   4.224   2.038   5.108 -0.8310  2.2648 -2.6245
  670MOL0     H90419   4.144   1.898   5.175  1.4174  0.1780 -1.2443
  670MOL0     H90420   4.194   1.936   4.868  1.4111 -1.7507 -0.6779
  670MOL0     H90421   4.121   1.790   4.957  2.9941 -4.4591  0.3536
  670MOL0     H90422   4.402   1.901   4.963 -1.9621  1.7636 -0.0872
  670MOL0     H90423   4.338   1.772   5.080  1.0852 -0.9077  0.2297
  670MOL0     H90424   4.317   1.741   4.779 -4.1707  1.6726  1.6978
  670MOL0     H90425   4.298   1.621   4.911  1.5414  0.5337  1.2920
  670MOL0     H90426   4.529   1.648   4.967 -0.7047 -0.8990 -1.2198
  670MOL0     H90427   4.496   1.558   4.818  1.2658 -0.5366  0.9223
  670MOL0     H90428   4.582   1.844   4.806 -1.9716  0.9428 -0.3360
  670MOL0     H90429   4.592   1.729   4.676  1.4224  0.3807  0.8689
  670MOL0     H90430   4.779   1.722   4.921  0.6180  2.5330  0.5235
  670MOL0     H90431   4.821   1.754   4.749 -1.2909  0.0847 -1.0777
  670MOL0     H90432   4.158   2.228   5.135  0.9250  3.4388 -3.1470
  670MOL0     H90433   4.196   2.450   5.229 -0.9537  1.6438 -0.6158
  670MOL0     H90434   3.928   2.840   5.657 -2.2200 -1.6549  0.2566
  670MOL0     H90435   3.867   3.078   5.645  1.0084 -0.0801 -0.2824
  670MOL0     H90436   3.580   4.269   5.104  1.2868  0.4453 -1.3836
  670MOL0     H90437   3.391   4.173   4.981  0.4025  0.4990  2.0263
  670MOL0     H90438   3.122   4.080   4.804  0.7147 -1.9679 -1.9726
  670MOL0     H90439   2.939   3.927   4.764 -2.4390  1.4874  2.5263
  670MOL0     H90440   2.602   3.896   4.463 -2.6613  2.2430  2.7839
  670MOL0     H90441   2.626   4.065   4.454 -0.5960 -0.8048  3.3803
  670MOL0     H90442   2.854   3.904   4.356  0.8858  1.2185 -0.8669
  670MOL0     H90443   2.798   4.065   4.299 -1.0506  2.0884  0.6477
  670MOL0     H90444   2.601   3.850   4.264  1.7138 -2.3060  0.8713
  670MOL0     H90445   2.744   3.837   4.167 -0.7498 -0.4587  0.4244
  670MOL0     H90446   2.571   4.092   4.164  3.0418  1.5094  0.9666
  670MOL0     H90447   2.547   3.958   4.052  3.4073 -0.8660 -1.6500
  670MOL0     H90448   2.910   4.091   3.882  1.4180  0.8680  1.2310
  670MOL0     H90449   2.771   4.206   4.484  1.4308 -2.7296 -1.6603
  670MOL0     H90450   2.968   4.366   4.535 -0.6169 -0.1223 -0.2110
  671MOL0     O90451   2.413   1.921   7.035  0.2873 -0.8666  0.7718
  671MOL0     C90452   2.456   1.812   7.003 -0.0298 -0.6625  0.3384
  671MOL0     O90453   2.557   1.795   6.918  0.1781  0.0840 -0.2613
  671MOL0     C90454   2.620   1.905   6.865  0.2248  0.1999  0.4166
  671MOL0     C90455   2.562   2.009   6.797 -0.3335  0.2227 -0.8585
  671MOL0     C90456   2.634   2.117   6.737  0.7279 -0.5809 -0.1497
  671MOL0     C90457   2.768   2.116   6.742 -0.9675 -0.0471 -0.1036
  671MOL0     O90458   2.856   2.210   6.696 -0.1443 -0.2769  0.1696
  671MOL0     C90459   2.856   2.256   6.561  0.0518 -0.1631 -0.4043
  671MOL0     C90460   2.839   2.408   6.550 -0.5167  0.5876 -0.3765
  671MOL0     C90461   2.947   2.482   6.625 -0.3808  0.7453 -0.5682
  671MOL0     C90462   3.072   2.510   6.536 -0.0086  0.7315 -0.1397
  671MOL0     C90463   3.179   2.598   6.616  1.1241 -0.2927  0.3300
  671MOL0     C90464   3.307   2.591   6.540 -0.6143  0.1771  0.6437
  671MOL0     C90465   3.411   2.688   6.599 -0.8570  0.0865 -1.3407
  671MOL0     C90466   3.544   2.617   6.590 -0.2339 -0.7495 -0.6288
  671MOL0     N90467   3.655   2.710   6.622 -0.2988  0.3263 -0.3848
  671MOL0     C90468   3.717   2.796   6.532  0.2687  0.6088 -0.7164
  671MOL0     C90469   3.809   2.864   6.611 -1.1030 -0.4612 -0.2469
  671MOL0     C90470   3.902   2.956   6.556 -0.5201 -0.0291 -0.1173
  671MOL0     C90471   4.041   2.892   6.518  0.6209  0.0998 -0.5626
  671MOL0     C90472   4.144   3.007   6.536  0.5709  0.3884 -1.1952
  671MOL0     C90473   4.279   2.965   6.475 -0.5794  0.4823 -1.1061
  671MOL0     O90474   4.259   2.976   6.331 -0.6378 -0.4216 -0.1097
  671MOL0     C90475   4.373   3.026   6.276 -0.7057  0.0241  0.5801
  671MOL0     C90476   4.504   2.974   6.307  0.8523 -0.2195 -0.4769
  671MOL0     C90477   4.624   3.034   6.271 -0.8707 -0.2978  0.2530
  671MOL0     C90478   4.758   2.976   6.326  0.9229 -0.1752 -0.6885
  671MOL0     C90479   4.612   3.144   6.170 -0.1358 -0.3837  0.0223
  671MOL0     C90480   4.721   3.208   6.103 -0.5904 -1.0205 -0.1990
  671MOL0     O90481   4.686   3.337   6.065  0.7662  0.1054  0.1515
  671MOL0     C90482   4.769   3.394   5.980  0.1453  0.4475  0.3991
  671MOL0     C90483   4.740   3.397   5.844  0.3608 -0.3063 -0.1647
  671MOL0     C90484   4.814   3.477   5.755 -0.9326 -0.6222 -0.9031
  671MOL0     C90485   4.929   3.542   5.793  1.1096  0.1223 -0.2470
  671MOL0     O90486   5.010   3.593   5.694 -0.5753  0.0996  0.3880
  671MOL0     C90487   5.078   3.715   5.715  0.8879  0.3519 -0.4519
  671MOL0     C90488   5.224   3.706   5.679 -0.7421 -0.2316  0.2300
  671MOL0     C90489   5.312   3.649   5.783  0.1552  0.9580 -0.9408
  671MOL0     C90490   5.454   3.652   5.736 -0.4002  0.9312  0.5581
  671MOL0     C90491   5.544   3.653   5.874 -0.0551 -0.0044  0.5332
  671MOL0     C90492   5.686   3.619   5.833 -0.4248  0.5291  0.2938
  671MOL0     C90493   5.773   3.733   5.782 -0.0159 -0.0923 -0.5028
  671MOL0     C90494   5.832   3.821   5.895  0.9834 -0.0126  0.2834
  671MOL0    Cl90495   6.006   3.853   5.877 -0.1376 -0.0576  0.1157
  671MOL0     C90496   4.959   3.532   5.929  0.1026  0.2038 -0.2244
  671MOL0     C90497   4.874   3.469   6.024 -0.0469  0.4206  0.2219
  671MOL0     O90498   4.827   3.150   6.067  0.5225 -0.1725 -0.3161
  671MOL0     C90499   4.484   3.173   6.126  0.6854  0.3095  0.1344
  671MOL0     C90500   4.365   3.130   6.188 -0.2050  1.3028  0.0861
  671MOL0     N90501   3.794   2.834   6.747 -0.5033  0.2782  0.0809
  671MOL0     N90502   3.697   2.744   6.749 -1.0928  0.2799  0.2482
  671MOL0     C90503   2.831   2.011   6.818 -0.1502 -0.1251  0.1410
  671MOL0     C90504   2.760   1.909   6.876 -0.6894 -0.6808  0.2818
  671MOL0     C90505   2.411   1.682   7.071 -1.1011 -0.0592 -0.5650
  671MOL0     C90506   2.316   1.674   7.174  0.6174 -0.4013  0.2216
  671MOL0     C90507   2.283   1.549   7.237  0.2341 -0.7582  0.7720
  671MOL0     C90508   2.350   1.435   7.188 -0.0001 -0.0899 -0.0805
  671MOL0     O90509   2.345   1.312   7.246  0.7570 -0.3139 -0.5889
  671MOL0     C90510   2.241   1.287   7.342 -0.2883 -0.0638 -0.2724
  671MOL0     C90511   2.260   1.147   7.397 -0.4792 -0.1634  0.5326
  671MOL0     C90512   2.388   1.118   7.476 -0.1247 -0.1946 -0.0138
  671MOL0     C90513   2.523   1.117   7.395  0.5388  0.3249 -0.5743
  671MOL0     C90514   2.636   1.095   7.488 -0.1203  0.7893 -0.5474
  671MOL0     C90515   2.705   1.065   7.585  0.5139  0.6834  0.8959
  671MOL0     C90516   2.438   1.440   7.076  0.1377 -0.6679  0.6159
  671MOL0     C90517   2.472   1.561   7.022  0.0297 -0.5030 -0.3657
  671MOL0     H90518   2.458   2.034   6.781  0.7680  4.3325 -2.8442
  671MOL0     H90519   2.572   2.197   6.700  0.1597 -1.4995 -1.2461
  671MOL0     H90520   2.956   2.231   6.524  0.7331 -2.4740  2.5878
  671MOL0     H90521   2.781   2.204   6.500 -0.9172 -0.8300  1.2779
  671MOL0     H90522   2.851   2.432   6.444 -2.0239  2.8578 -0.1055
  671MOL0     H90523   2.740   2.447   6.576  0.1224  1.8516  0.2870
  671MOL0     H90524   2.919   2.582   6.659  2.6567  0.9804  1.7519
  671MOL0     H90525   2.975   2.421   6.712 -1.6391  3.1695  1.6927
  671MOL0     H90526   3.120   2.412   6.522 -2.7989 -1.1319  2.0858
  671MOL0     H90527   3.036   2.548   6.440 -1.0930  1.4084  0.5166
  671MOL0     H90528   3.150   2.703   6.604  1.1730 -0.3800 -0.6197
  671MOL0     H90529   3.198   2.569   6.720  3.8793 -0.6049 -0.1950
  671MOL0     H90530   3.335   2.485   6.544 -1.1577  0.0078  0.2318
  671MOL0     H90531   3.297   2.626   6.437  1.8020  0.0924  0.3146
  671MOL0     H90532   3.420   2.785   6.548 -0.2981  0.7316 -0.0669
  671MOL0     H90533   3.386   2.708   6.704 -0.5591 -0.1325 -1.2263
  671MOL0     H90534   3.565   2.575   6.491 -0.5582 -0.1714 -0.9493
  671MOL0     H90535   3.543   2.533   6.660  0.6513 -0.8115 -0.6806
  671MOL0     H90536   3.690   2.810   6.428  0.4192  0.2835 -0.7981
  671MOL0     H90537   3.852   2.986   6.463  0.1189 -1.8517 -1.0967
  671MOL0     H90538   3.901   3.046   6.619  0.4039  0.2193 -0.4435
  671MOL0     H90539   4.043   2.845   6.420  3.3785 -0.0372 -0.5175
  671MOL0     H90540   4.071   2.806   6.578 -1.8361 -0.2616  0.2919
  671MOL0     H90541   4.167   3.031   6.640  2.7626  0.1821 -1.5830
  671MOL0     H90542   4.106   3.096   6.484 -0.5676  0.5144 -0.2034
  671MOL0     H90543   4.305   2.862   6.501 -0.4120  1.0059  1.0085
  671MOL0     H90544   4.350   3.036   6.518 -2.9105  1.7962  0.8100
  671MOL0     H90545   4.513   2.890   6.376  0.5465  1.2697  1.4825
  671MOL0     H90546   4.848   3.025   6.286  3.7282 -3.3552  1.1453
  671MOL0     H90547   4.759   2.991   6.434  1.1079  4.1743 -1.1257
  671MOL0     H90548   4.769   2.869   6.310 -4.5081 -1.5941  2.4462
  671MOL0     H90549   4.648   3.348   5.812 -0.5304  2.4539 -2.2286
  671MOL0     H90550   4.784   3.480   5.650 -1.4858 -0.0910 -0.7376
  671MOL0     H90551   5.045   3.800   5.655  0.6297  4.2100  4.4242
  671MOL0     H90552   5.067   3.742   5.821  1.9395 -0.7933 -0.0342
  671MOL0     H90553   5.230   3.652   5.584 -1.4833  1.9306 -1.1300
  671MOL0     H90554   5.256   3.810   5.663 -1.7070  0.0319 -0.0976
  671MOL0     H90555   5.285   3.548   5.816 -0.3729  1.9836  2.0905
  671MOL0     H90556   5.298   3.695   5.881  0.6024 -0.3411 -0.2450
  671MOL0     H90557   5.472   3.553   5.693  2.5388  0.2518  2.9780
  671MOL0     H90558   5.477   3.728   5.660  0.3738  0.1421 -0.0188
  671MOL0     H90559   5.511   3.581   5.949 -1.0211  2.4375  2.5944
  671MOL0     H90560   5.540   3.754   5.917 -0.7135  0.2120 -0.0061
  671MOL0     H90561   5.729   3.565   5.919  0.2516 -1.7733 -1.3865
  671MOL0     H90562   5.676   3.537   5.762 -1.5625 -1.5258  2.6412
  671MOL0     H90563   5.727   3.790   5.701  0.8495 -0.4368 -1.2568
  671MOL0     H90564   5.864   3.680   5.751  0.7230  1.9931 -2.1736
  671MOL0     H90565   5.830   3.757   5.984  3.3595 -0.1396  0.2980
  671MOL0     H90566   5.763   3.904   5.915 -0.2338 -1.7373  4.1454
  671MOL0     H90567   5.041   3.588   5.973  1.0295 -1.7699  0.6859
  671MOL0     H90568   4.900   3.466   6.129 -0.8582  3.0631  0.5628
  671MOL0     H90569   4.461   3.245   6.049 -1.8547  0.6488  1.1131
  671MOL0     H90570   4.269   3.180   6.175 -1.5370 -0.8771  0.9160
  671MOL0     H90571   2.938   2.026   6.833  0.0722 -2.4299  1.2116
  671MOL0     H90572   2.809   1.828   6.930 -2.1782 -1.8356 -0.0238
  671MOL0     H90573   2.252   1.757   7.204 -2.3925 -2.7375  0.7210
  671MOL0     H90574   2.204   1.551   7.311 -0.2309 -1.9015  0.3401
  671MOL0     H90575   2.245   1.357   7.426  1.3995 -0.4637  0.0207
  671MOL0     H90576   2.144   1.301   7.294  0.0897  2.6924 -0.3484
  671MOL0     H90577   2.252   1.069   7.321 -1.4131 -1.1607  1.6268
  671MOL0     H90578   2.179   1.131   7.469  2.2802 -0.1195  3.9135
  671MOL0     H90579   2.364   1.024   7.528  1.4927  0.8573  2.9143
  671MOL0     H90580   2.407   1.195   7.552 -3.4274  2.0460 -1.2278
  671MOL0     H90581   2.534   1.207   7.334  0.4066  0.6578 -0.1116
  671MOL0     H90582   2.523   1.033   7.325 -0.2071 -0.2591  0.1142
  671MOL0     H90583   2.758   1.024   7.668  0.0329 -2.3616 -0.1509
  671MOL0     H90584   2.492   1.356   7.034  1.2085  0.3309 -0.0500
  671MOL0     H90585   2.553   1.562   6.950 -0.1645  1.8005 -0.6298
  672MOL0     O90586   1.842   6.200   8.770  0.0467  0.0127 -0.3056
  672MOL0     C90587   1.891   6.298   8.829  0.5534 -0.2312  0.0662
  672MOL0     O90588   1.867   6.433   8.803 -0.4483 -0.2527  0.3772
  672MOL0     C90589   1.788   6.472   8.698  0.1925 -0.1937 -0.0843
  672MOL0     C90590   1.816   6.574   8.607 -0.1958  1.1604  0.3151
  672MOL0     C90591   1.723   6.618   8.520 -0.3131  0.3837  0.1780
  672MOL0     C90592   1.589   6.560   8.507 -0.6700  0.1875  0.5977
  672MOL0     O90593   1.500   6.628   8.426 -0.2705  0.6501 -0.2166
  672MOL0     C90594   1.369   6.632   8.477  0.2890  0.1518 -0.2817
  672MOL0     C90595   1.254   6.685   8.385 -1.3549  0.7489  0.4171
  672MOL0     C90596   1.279   6.820   8.311  0.5069 -0.6728 -0.0911
  672MOL0     C90597   1.344   6.929   8.394 -1.0953 -0.4132 -0.7596
  672MOL0     C90598   1.378   7.069   8.342  0.0972  0.0346  0.0943
  672MOL0     C90599   1.248   7.166   8.348  0.2585 -0.4842 -0.0439
  672MOL0     C90600   1.298   7.320   8.322 -0.4515  0.0436  0.7744
  672MOL0     C90601   1.374   7.387   8.440  0.4458 -0.6451  0.7094
  672MOL0     N90602   1.454   7.503   8.385  0.1113 -0.1891  0.3916
  672MOL0     C90603   1.409   7.633   8.384 -0.7392 -0.9147  0.2140
  672MOL0     C90604   1.516   7.696   8.324 -0.0280 -1.0014 -0.0576
  672MOL0     C90605   1.539   7.849   8.306  0.4114  0.2860 -0.0831
  672MOL0     C90606   1.657   7.908   8.381  0.1939  0.4539  0.1074
  672MOL0     C90607   1.624   7.891   8.528  0.1489  0.3761 -0.2970
  672MOL0     C90608   1.727   7.952   8.625  0.4038  0.3318  0.6021
  672MOL0     O90609   1.703   8.094   8.630  0.3393  0.1680  0.0209
  672MOL0     C90610   1.594   8.135   8.702 -0.3831  0.3727  0.0875
  672MOL0     C90611   1.561   8.264   8.686  0.1035 -0.2397  0.7602
  672MOL0     C90612   1.461   8.325   8.754  0.7103 -0.4671  0.1831
  672MOL0     C90613   1.452   8.471   8.738 -0.0626  0.0226  0.3360
  672MOL0     C90614   1.375   8.250   8.835 -0.1366  0.3298 -0.9436
  672MOL0     C90615   1.252   8.307   8.888  0.0192  0.5542 -0.3983
  672MOL0     O90616   1.166   8.211   8.922 -0.2918 -0.0621 -0.0229
  672MOL0     C90617   1.035   8.239   8.953  0.9140  1.2266 -0.3065
  672MOL0     C90618   0.970   8.162   9.058 -1.2225  0.9309  1.2586
  672MOL0     C90619   0.833   8.167   9.084  0.6892 -0.3698  1.0398
  672MOL0     C90620   0.757   8.267   9.025 -1.0208 -0.1116  0.1471
  672MOL0     O90621   0.627   8.282   9.071 -0.0499  0.0898 -0.5351
  672MOL0     C90622   0.535   8.364   8.983 -1.1724  0.4799 -0.0949
  672MOL0     C90623   0.382   8.328   9.007 -0.7527 -0.1591  0.1029
  672MOL0     C90624   0.291   8.395   8.894 -0.6482  0.4330 -0.7339
  672MOL0     C90625   0.158   8.317   8.894 -0.7723 -0.0529  0.3383
  672MOL0     C90626   0.057   8.373   8.793 -0.2950  0.6496 -0.9367
  672MOL0     C90627   0.104   8.348   8.647 -0.7381 -0.2881 -0.3282
  672MOL0     C90628  -0.016   8.366   8.554 -0.5814  0.1537 -0.9003
  672MOL0     C90629   0.023   8.405   8.420  0.2861 -0.2596  0.2057
  672MOL0    Cl90630  -0.130   8.444   8.339 -0.0353 -0.1861 -0.2204
  672MOL0     C90631   0.823   8.356   8.931 -0.4556  0.1596 -0.3483
  672MOL0     C90632   0.955   8.337   8.893  0.0832 -0.4890  0.2282
  672MOL0     O90633   1.246   8.420   8.928 -0.1279 -0.0026  0.3059
  672MOL0     C90634   1.405   8.115   8.853  0.8802 -0.9066  0.3513
  672MOL0     C90635   1.512   8.052   8.778 -0.1160  0.6787  0.1174
  672MOL0     N90636   1.613   7.614   8.280  0.3470  0.3667  0.6303
  672MOL0     N90637   1.579   7.491   8.323  0.4977  0.0162  0.7776
  672MOL0     C90638   1.563   6.453   8.581 -0.2686 -0.9047 -0.1133
  672MOL0     C90639   1.653   6.412   8.680  0.4532  0.4892 -0.1285
  672MOL0     C90640   1.995   6.264   8.921  0.1772  0.2649  0.4699
  672MOL0     C90641   2.025   6.361   9.025  1.3189  0.6075  0.2143
  672MOL0     C90642   2.117   6.323   9.126  0.8185 -0.5950  0.9701
  672MOL0     C90643   2.173   6.195   9.141 -1.1057 -0.2895  0.6466
  672MOL0     O90644   2.254   6.157   9.248  0.5490  0.2150  0.4617
  672MOL0     C90645   2.254   6.252   9.352 -0.0556 -0.4660 -0.2171
  672MOL0     C90646   2.122   6.264   9.436  0.2094 -0.2189 -0.5184
  672MOL0     C90647   2.115   6.386   9.530  0.1434  0.3034  0.1789
  672MOL0     C90648   1.982   6.414   9.609  0.2799 -0.6124  0.0937
  672MOL0     C90649   1.956   6.308   9.715  0.1186  0.0699  0.9986
  672MOL0     C90650   1.950   6.215   9.796 -0.9812  0.3376  0.2838
  672MOL0     C90651   2.154   6.114   9.031  0.0855 -0.0427  0.5773
  672MOL0     C90652   2.066   6.141   8.919  0.6151 -0.5889 -0.6241
  672MOL0     H90653   1.911   6.621   8.629  1.3878 -0.2359 -3.0122
  672MOL0     H90654   1.749   6.712   8.474  1.0394  0.0243  0.1663
  672MOL0     H90655   1.341   6.540   8.528 -0.6964  1.9787  2.6809
  672MOL0     H90656   1.369   6.704   8.559 -1.5832 -1.8029  1.5745
  672MOL0     H90657   1.239   6.618   8.300  0.2784  1.5985 -0.6087
  672MOL0     H90658   1.164   6.684   8.447 -0.3952  2.4290  1.9406
  672MOL0     H90659   1.342   6.808   8.223  0.3670  3.2131 -0.9390
  672MOL0     H90660   1.189   6.867   8.270  0.7324  1.6724  1.8232
  672MOL0     H90661   1.284   6.940   8.485  0.4760 -0.2681  0.3012
  672MOL0     H90662   1.442   6.889   8.422 -1.4090 -0.0480  0.9584
  672MOL0     H90663   1.456   7.129   8.389  0.2904  0.6136 -0.9351
  672MOL0     H90664   1.411   7.055   8.239  2.0927  0.8403  0.5682
  672MOL0     H90665   1.171   7.134   8.277  1.6833  0.0892 -1.9467
  672MOL0     H90666   1.208   7.161   8.449  2.2574  3.0543  1.1002
  672MOL0     H90667   1.365   7.322   8.235 -4.0142  2.0549 -2.2254
  672MOL0     H90668   1.212   7.382   8.293  0.0245  2.4441  3.9880
  672MOL0     H90669   1.448   7.314   8.474  0.5976 -1.1699 -0.6963
  672MOL0     H90670   1.312   7.430   8.519  0.4280  0.9820 -0.1500
  672MOL0     H90671   1.317   7.685   8.408 -2.3063 -1.5689 -3.6920
  672MOL0     H90672   1.559   7.878   8.203  1.1862 -0.7102 -0.2307
  672MOL0     H90673   1.446   7.899   8.335  0.2927 -1.3817  2.7934
  672MOL0     H90674   1.659   8.015   8.355 -1.5088  0.9484  1.7725
  672MOL0     H90675   1.747   7.855   8.349 -0.6183 -2.1700  1.8418
  672MOL0     H90676   1.619   7.784   8.553  0.6757  0.5137  0.4184
  672MOL0     H90677   1.528   7.942   8.538  0.2549  0.5616 -0.2189
  672MOL0     H90678   1.828   7.932   8.588 -0.4338  0.9983 -2.3821
  672MOL0     H90679   1.715   7.906   8.724 -0.7560  0.8752  0.7311
  672MOL0     H90680   1.616   8.326   8.616 -1.8020  0.6873  0.0081
  672MOL0     H90681   1.528   8.518   8.675  0.4877  0.6200  1.4115
  672MOL0     H90682   1.357   8.502   8.693 -0.5064  1.4769  2.1269
  672MOL0     H90683   1.459   8.521   8.835 -4.4623  1.2688  0.2060
  672MOL0     H90684   1.038   8.098   9.115 -0.7917  1.4062  1.2849
  672MOL0     H90685   0.779   8.106   9.155 -0.0018 -3.1215 -1.5950
  672MOL0     H90686   0.553   8.471   9.000 -3.6227  0.6577  2.1145
  672MOL0     H90687   0.560   8.342   8.879  2.2191 -0.1415  0.7371
  672MOL0     H90688   0.380   8.220   8.991 -3.4028 -0.2172  0.3571
  672MOL0     H90689   0.352   8.360   9.107 -2.9464 -2.2847  0.1972
  672MOL0     H90690   0.343   8.389   8.798  1.5233  2.1198  0.2635
  672MOL0     H90691   0.264   8.500   8.904 -3.6933 -0.1938 -1.4553
  672MOL0     H90692   0.176   8.211   8.869 -1.8554 -0.4690  1.2767
  672MOL0     H90693   0.120   8.322   8.996  1.1266 -1.2549  1.1717
  672MOL0     H90694   0.057   8.480   8.814 -1.7063  0.3466  0.8843
  672MOL0     H90695  -0.036   8.319   8.811 -0.0173  0.2256 -0.7479
  672MOL0     H90696   0.189   8.408   8.611 -0.9451 -0.8479 -1.8002
  672MOL0     H90697   0.134   8.245   8.629 -1.0846 -0.3020 -0.8356
  672MOL0     H90698  -0.087   8.437   8.598  0.4410  1.5379 -1.3827
  672MOL0     H90699  -0.061   8.267   8.558 -0.9269  0.3478  1.0833
  672MOL0     H90700   0.078   8.321   8.377  1.2973  0.4384  0.0845
  672MOL0     H90701   0.078   8.499   8.407  0.0716 -0.1267  0.2466
  672MOL0     H90702   0.761   8.435   8.889 -4.0846 -0.7330  2.7649
  672MOL0     H90703   0.993   8.395   8.810  2.0434 -1.3588  0.4836
  672MOL0     H90704   1.329   8.051   8.898  1.5519 -0.8570  1.6081
  672MOL0     H90705   1.524   7.945   8.785  0.2087  0.6888 -0.2978
  672MOL0     H90706   1.470   6.397   8.573 -0.4630 -0.8837  1.6511
  672MOL0     H90707   1.634   6.327   8.744 -1.8183  2.0070  1.3442
  672MOL0     H90708   1.978   6.458   9.037 -0.4052  0.0392 -1.4682
  672MOL0     H90709   2.118   6.404   9.198 -2.8143 -1.5745  2.3174
  672MOL0     H90710   2.325   6.218   9.429 -1.8778 -1.0281  1.2934
  672MOL0     H90711   2.287   6.349   9.314  0.5759 -0.5493  0.0937
  672MOL0     H90712   2.103   6.182   9.506  0.7509  1.3002  1.4930
  672MOL0     H90713   2.038   6.283   9.368  0.6470  3.1461 -0.2522
  672MOL0     H90714   2.140   6.473   9.469  0.0328 -0.6581 -1.2813
  672MOL0     H90715   2.193   6.360   9.603  0.4084  0.9459  0.1312
  672MOL0     H90716   1.898   6.421   9.538  0.7435  0.4275 -0.3617
  672MOL0     H90717   2.006   6.507   9.661 -1.0852 -0.1803  0.0049
  672MOL0     H90718   1.936   6.136   9.866 -2.7551  2.1584  2.1274
  672MOL0     H90719   2.200   6.016   9.034  0.6481  0.2039  0.1623
  672MOL0     H90720   2.050   6.073   8.836 -2.9004 -3.2017  1.8567
  673MOL0     O90721   6.075   6.918   0.581  0.3443 -0.4275 -1.0899
  673MOL0     C90722   5.997   7.001   0.621  0.0040 -0.5424 -0.6892
  673MOL0     O90723   5.942   7.003   0.748 -0.1061 -0.7207 -0.1121
  673MOL0     C90724   5.985   6.915   0.851  0.0918  0.1701  0.3187
  673MOL0     C90725   5.968   6.965   0.982 -0.1441  0.4168 -0.7877
  673MOL0     C90726   6.023   6.897   1.092  0.1456  0.2872 -0.4686
  673MOL0     C90727   6.109   6.796   1.068  1.0927  0.6191 -0.2571
  673MOL0     O90728   6.173   6.737   1.173 -0.2590 -0.3098 -0.1697
  673MOL0     C90729   6.309   6.696   1.138 -0.8804  0.2712 -0.4330
  673MOL0     C90730   6.416   6.738   1.247 -0.1120  0.3953 -0.2225
  673MOL0     C90731   6.564   6.700   1.222  0.9356 -0.0148 -0.4888
  673MOL0     C90732   6.642   6.733   1.350 -0.1373  0.9730 -0.0231
  673MOL0     C90733   6.796   6.747   1.327  0.1324 -0.4414 -0.4146
  673MOL0     C90734   6.858   6.619   1.275 -0.5607  0.4801  0.4918
  673MOL0     C90735   7.008   6.641   1.240 -0.4587 -0.6991  0.4314
  673MOL0     C90736   7.098   6.517   1.212 -0.3538  0.9689 -0.9985
  673MOL0     N90737   7.054   6.451   1.083  0.0336  0.3323  0.3441
  673MOL0     C90738   7.025   6.520   0.959 -0.3262  0.2396  0.0146
  673MOL0     C90739   6.972   6.423   0.882 -0.3882  0.5760  0.7552
  673MOL0     C90740   6.932   6.444   0.736  0.8416 -0.1336 -0.3429
  673MOL0     C90741   6.835   6.340   0.681 -0.2344 -0.1447  0.5015
  673MOL0     C90742   6.820   6.353   0.524  0.2029  0.9069 -0.1507
  673MOL0     C90743   6.733   6.236   0.459 -0.6718  0.2624  0.3747
  673MOL0     O90744   6.728   6.248   0.321  0.1244  0.0639 -0.2499
  673MOL0     C90745   6.608   6.213   0.265 -0.7465  0.6915 -0.4576
  673MOL0     C90746   6.512   6.302   0.223 -0.7672 -0.6243  1.0484
  673MOL0     C90747   6.388   6.272   0.180 -0.6284  0.0795 -0.2635
  673MOL0     C90748   6.294   6.383   0.144 -0.2991  0.6022 -0.3557
  673MOL0     C90749   6.355   6.135   0.158 -0.7173  0.5503 -1.2141
  673MOL0     C90750   6.225   6.079   0.100  0.1982  0.3005  0.0787
  673MOL0     O90751   6.238   5.953   0.047 -0.0364 -0.1758 -1.1868
  673MOL0     C90752   6.135   5.881   0.002  0.2355  0.5221  1.1782
  673MOL0     C90753   6.149   5.745   0.015 -0.3246  1.1936 -0.4543
  673MOL0     C90754   6.037   5.670  -0.018  0.8830 -0.0912 -0.3882
  673MOL0     C90755   5.920   5.720  -0.078  0.0036 -0.1655  0.5061
  673MOL0     O90756   5.813   5.652  -0.112  0.2966  0.5591  0.6891
  673MOL0     C90757   5.775   5.543  -0.036  0.4061  0.0655 -0.3333
  673MOL0     C90758   5.657   5.464  -0.089 -0.6027  0.2060 -0.0584
  673MOL0     C90759   5.688   5.415  -0.225 -1.4512  0.0634 -0.2149
  673MOL0     C90760   5.615   5.287  -0.258 -0.6410 -0.7679  0.0915
  673MOL0     C90761   5.700   5.223  -0.373  0.7235 -0.0823 -0.4953
  673MOL0     C90762   5.644   5.081  -0.396  0.0780  0.2886  0.5362
  673MOL0     C90763   5.702   5.032  -0.527 -0.1680  0.6430  0.6027
  673MOL0     C90764   5.697   4.876  -0.550  1.3622 -0.1849  0.3067
  673MOL0    Cl90765   5.517   4.840  -0.579 -0.3643  0.3082  0.6198
  673MOL0     C90766   5.919   5.858  -0.105  0.7663  0.7960 -0.7426
  673MOL0     C90767   6.025   5.935  -0.061  0.5884 -0.0280  2.1786
  673MOL0     O90768   6.122   6.148   0.099 -0.0019  0.3547 -0.6667
  673MOL0     C90769   6.448   6.039   0.216  0.9009  0.8904  0.3510
  673MOL0     C90770   6.578   6.078   0.261  0.0285 -0.1772 -0.6801
  673MOL0     N90771   6.968   6.307   0.952  0.0407 -0.3899 -0.0591
  673MOL0     N90772   7.018   6.322   1.070 -0.2855 -0.1974 -0.6849
  673MOL0     C90773   6.113   6.733   0.937  0.8097  0.0909 -0.9839
  673MOL0     C90774   6.061   6.791   0.835  0.6571 -0.1053  1.1083
  673MOL0     C90775   5.961   7.115   0.530  1.2837 -0.3840 -0.0783
  673MOL0     C90776   6.012   7.137   0.399  0.3228  0.2830  0.1980
  673MOL0     C90777   5.984   7.252   0.330  0.8554 -0.5978  0.2366
  673MOL0     C90778   5.916   7.357   0.385  0.6847 -0.6804  0.4891
  673MOL0     O90779   5.916   7.473   0.318  0.2453 -0.1445 -0.2918
  673MOL0     C90780   5.864   7.593   0.371 -0.2435  1.3473  0.3088
  673MOL0     C90781   5.883   7.698   0.261  0.4125  1.7337 -0.1092
  673MOL0     C90782   5.755   7.685   0.177 -0.9229  0.5791  0.0642
  673MOL0     C90783   5.759   7.809   0.088  0.7089  0.1208 -0.6140
  673MOL0     C90784   5.625   7.831   0.029 -0.0148 -0.2929 -0.6776
  673MOL0     C90785   5.511   7.837  -0.012  0.4725  0.4848  0.6991
  673MOL0     C90786   5.843   7.329   0.502  0.0672  0.2747 -1.4997
  673MOL0     C90787   5.865   7.211   0.577  0.3836 -0.2199  1.0147
  673MOL0     H90788   5.910   7.053   1.008 -2.7340 -1.4855  0.4305
  673MOL0     H90789   6.011   6.923   1.196 -2.8914 -1.1370 -0.3309
  673MOL0     H90790   6.327   6.592   1.108  0.7895 -0.5980  3.0545
  673MOL0     H90791   6.341   6.757   1.053 -2.7097  0.9478 -0.6894
  673MOL0     H90792   6.414   6.846   1.264 -0.0760  0.4108 -0.3158
  673MOL0     H90793   6.381   6.686   1.336 -2.0770 -0.1502 -1.2612
  673MOL0     H90794   6.570   6.597   1.187  1.1036  0.0869 -0.7662
  673MOL0     H90795   6.596   6.755   1.132 -0.0398  1.7039  0.1605
  673MOL0     H90796   6.614   6.829   1.395  1.3220  1.3257  0.2004
  673MOL0     H90797   6.622   6.654   1.423 -0.2428 -1.3683 -2.4440
  673MOL0     H90798   6.821   6.832   1.263 -2.6021  0.7208 -0.0689
  673MOL0     H90799   6.843   6.766   1.424  0.9278 -0.9011 -0.6986
  673MOL0     H90800   6.846   6.542   1.352  0.6136 -0.7608 -0.5205
  673MOL0     H90801   6.807   6.581   1.186  0.4356  3.4076 -1.4562
  673MOL0     H90802   7.020   6.692   1.144  2.0485 -0.6946  0.6819
  673MOL0     H90803   7.055   6.696   1.321  0.4537  0.9046 -1.1173
  673MOL0     H90804   7.094   6.438   1.288 -0.0765  1.7510 -0.1545
  673MOL0     H90805   7.200   6.556   1.206 -0.0804  0.3940 -0.1975
  673MOL0     H90806   7.036   6.625   0.935  0.7423  0.1750  0.2018
  673MOL0     H90807   6.881   6.540   0.734  1.9311  0.4404 -1.9126
  673MOL0     H90808   7.018   6.454   0.669  1.5502  0.4104  0.6207
  673MOL0     H90809   6.738   6.353   0.730 -1.9862  3.2177 -3.2570
  673MOL0     H90810   6.873   6.240   0.706 -3.9963 -2.5327 -2.2300
  673MOL0     H90811   6.918   6.349   0.475  0.9324  3.1032  1.0176
  673MOL0     H90812   6.774   6.450   0.507  0.5064  0.5488 -3.6479
  673MOL0     H90813   6.632   6.233   0.500 -0.3070  3.4081  1.8404
  673MOL0     H90814   6.773   6.136   0.473 -3.0558 -0.6617  1.0111
  673MOL0     H90815   6.533   6.407   0.241 -0.9903 -0.4152  0.1066
  673MOL0     H90816   6.307   6.408   0.039 -1.1649 -0.1444 -0.6535
  673MOL0     H90817   6.191   6.348   0.156  0.2823 -0.8775  0.7254
  673MOL0     H90818   6.303   6.464   0.217 -1.0606  0.2245  0.1769
  673MOL0     H90819   6.238   5.710   0.065 -0.1279 -1.8250 -2.6171
  673MOL0     H90820   6.042   5.565   0.009  0.9094  0.6970  3.2408
  673MOL0     H90821   5.858   5.476  -0.012 -0.6267 -1.3924 -0.7291
  673MOL0     H90822   5.745   5.583   0.061 -1.4649  2.4639 -1.7552
  673MOL0     H90823   5.629   5.386  -0.017 -3.2314  0.0779 -1.1093
  673MOL0     H90824   5.574   5.535  -0.090 -0.0803  0.8360  0.4622
  673MOL0     H90825   5.794   5.393  -0.232 -1.9344 -2.4211 -0.6018
  673MOL0     H90826   5.659   5.478  -0.310 -2.9495 -1.5630 -0.9736
  673MOL0     H90827   5.623   5.214  -0.177  0.2920  2.0542  2.7541
  673MOL0     H90828   5.508   5.304  -0.274 -0.3888  0.6153 -0.3079
  673MOL0     H90829   5.803   5.228  -0.338 -0.0720  3.2136  1.8110
  673MOL0     H90830   5.689   5.276  -0.468 -1.1342 -2.2780 -1.6167
  673MOL0     H90831   5.670   5.014  -0.313  1.4688 -2.8548 -2.1915
  673MOL0     H90832   5.535   5.081  -0.399  0.0987 -0.3859 -1.1772
  673MOL0     H90833   5.807   5.062  -0.521  0.0607 -0.2151  1.1731
  673MOL0     H90834   5.658   5.077  -0.617  0.2114 -1.2566 -0.5932
  673MOL0     H90835   5.730   4.825  -0.460 -1.3941  1.8948  2.6989
  673MOL0     H90836   5.756   4.849  -0.638  1.4997 -0.9804  0.6414
  673MOL0     H90837   5.840   5.906  -0.160 -0.3505  0.5127  0.5470
  673MOL0     H90838   6.031   6.037  -0.098 -0.4498 -1.2418 -1.7900
  673MOL0     H90839   6.418   5.935   0.225 -0.5857  1.4059  2.0716
  673MOL0     H90840   6.644   6.001   0.300 -0.6363 -1.2858 -1.6748
  673MOL0     H90841   6.161   6.636   0.934 -0.7509 -0.8464  1.1620
  673MOL0     H90842   6.077   6.743   0.739  4.4454  1.1157  0.9488
  673MOL0     H90843   6.072   7.057   0.358 -3.4596 -0.6118 -4.3566
  673MOL0     H90844   6.028   7.279   0.234  0.6365  1.0538  0.5785
  673MOL0     H90845   5.765   7.599   0.417 -0.2208  1.0718  0.3956
  673MOL0     H90846   5.933   7.621   0.452  0.3993  1.9765 -0.4439
  673MOL0     H90847   5.982   7.687   0.215  0.2105 -2.7387  0.1293
  673MOL0     H90848   5.895   7.799   0.302 -1.9145  1.8693  0.3445
  673MOL0     H90849   5.673   7.683   0.248 -2.0424  0.9372 -1.1827
  673MOL0     H90850   5.760   7.588   0.125  0.9279 -0.5080  2.0736
  673MOL0     H90851   5.829   7.789   0.006 -0.0317 -2.0506 -0.7865
  673MOL0     H90852   5.775   7.898   0.149  2.8193 -2.3964  2.8950
  673MOL0     H90853   5.410   7.835  -0.047 -0.1954 -1.3452  2.5303
  673MOL0     H90854   5.779   7.404   0.549  0.0189 -0.3328 -0.5503
  673MOL0     H90855   5.828   7.212   0.679 -1.4925 -1.4425  0.4027
  674MOL0     O90856   3.072   6.386   2.220  0.1819 -0.5398 -0.2158
  674MOL0     C90857   3.117   6.425   2.329  0.0193  0.4818 -0.4165
  674MOL0     O90858   3.095   6.375   2.460 -0.3416  0.4753 -0.4676
  674MOL0     C90859   3.032   6.252   2.484  0.0222 -0.1500 -0.1170
  674MOL0     C90860   3.062   6.137   2.408  0.2297 -0.5934  0.1627
  674MOL0     C90861   2.997   6.019   2.437 -0.0792  0.3143 -0.6341
  674MOL0     C90862   2.909   6.007   2.540 -0.9852  0.6688  0.0773
  674MOL0     O90863   2.861   5.887   2.575  1.0390  0.7530  0.4861
  674MOL0     C90864   2.719   5.890   2.558 -0.4083 -0.0299  0.1670
  674MOL0     C90865   2.669   5.752   2.549 -0.1630  0.3930 -0.7207
  674MOL0     C90866   2.514   5.753   2.529  0.5636  0.1075  0.2274
  674MOL0     C90867   2.462   5.610   2.493 -0.4547 -0.2019  0.4151
  674MOL0     C90868   2.319   5.615   2.441  0.4764 -0.1223  0.1754
  674MOL0     C90869   2.232   5.654   2.563 -0.3531  0.2472  0.2572
  674MOL0     C90870   2.091   5.613   2.528  0.1548 -0.5848 -0.3774
  674MOL0     C90871   2.003   5.652   2.642 -0.3445  0.3585 -0.8692
  674MOL0     N90872   1.861   5.635   2.619 -0.2261 -0.1747  0.0264
  674MOL0     C90873   1.761   5.662   2.710 -0.8034 -0.5498  0.2269
  674MOL0     C90874   1.646   5.622   2.658  0.5966 -0.3485 -0.1927
  674MOL0     C90875   1.509   5.603   2.731 -0.4968 -0.4010 -0.0396
  674MOL0     C90876   1.449   5.749   2.740 -0.2371  0.0609  0.1184
  674MOL0     C90877   1.384   5.803   2.614  0.3012 -0.4919  0.2522
  674MOL0     C90878   1.475   5.861   2.518  0.9314 -0.5694  0.2362
  674MOL0     O90879   1.538   5.979   2.580 -0.9902  0.9183  0.3571
  674MOL0     C90880   1.635   6.042   2.503 -0.0897  0.0401  0.5153
  674MOL0     C90881   1.743   5.975   2.458  0.5221  0.2913  0.0459
  674MOL0     C90882   1.841   6.031   2.382 -0.4359  0.0574 -0.3038
  674MOL0     C90883   1.951   5.938   2.345  0.4997 -0.0445  0.0283
  674MOL0     C90884   1.834   6.167   2.343  1.1915 -0.9577 -0.6572
  674MOL0     C90885   1.937   6.226   2.249 -0.4796 -1.1431  0.3680
  674MOL0     O90886   1.909   6.329   2.166  0.0104 -0.5043  0.4764
  674MOL0     C90887   1.989   6.360   2.061 -0.2772  0.0660  0.1381
  674MOL0     C90888   2.029   6.492   2.049  0.2675  1.0336 -0.7108
  674MOL0     C90889   2.120   6.533   1.956 -0.1537  0.1450  0.4641
  674MOL0     C90890   2.172   6.450   1.859 -0.4283  1.0885 -1.4674
  674MOL0     O90891   2.239   6.500   1.757  0.1901  0.3243  0.1975
  674MOL0     C90892   2.341   6.410   1.692  0.0698 -0.5663 -0.8601
  674MOL0     C90893   2.471   6.474   1.689  0.3665 -0.0224  0.2812
  674MOL0     C90894   2.467   6.592   1.593 -0.0439  1.1184 -0.0850
  674MOL0     C90895   2.609   6.650   1.558  0.3171 -0.4768  0.5847
  674MOL0     C90896   2.624   6.670   1.404  0.8638  0.3631 -0.0800
  674MOL0     C90897   2.765   6.722   1.365 -0.6518 -0.0135  0.0811
  674MOL0     C90898   2.772   6.728   1.212 -0.8603 -0.3694 -0.8293
  674MOL0     C90899   2.898   6.806   1.176 -0.0775 -0.1417  0.3724
  674MOL0    Cl90900   3.042   6.703   1.223 -0.2128 -0.6363 -0.0678
  674MOL0     C90901   2.128   6.314   1.860 -0.5160 -0.7366  0.1807
  674MOL0     C90902   2.043   6.269   1.964  0.5264 -1.1127 -0.1520
  674MOL0     O90903   2.048   6.193   2.288 -0.8009  0.0231  0.1245
  674MOL0     C90904   1.713   6.236   2.375 -0.8106  0.2285  0.3610
  674MOL0     C90905   1.621   6.173   2.460  0.1018  0.1575  0.3439
  674MOL0     N90906   1.673   5.582   2.522  0.2206  0.1885  0.9607
  674MOL0     N90907   1.804   5.590   2.507  0.1663 -0.7039  0.3995
  674MOL0     C90908   2.868   6.121   2.604 -0.1223  0.7018  0.2976
  674MOL0     C90909   2.932   6.250   2.587 -0.2262  0.0469  0.3698
  674MOL0     C90910   3.213   6.540   2.318  0.9508  0.7921  0.0595
  674MOL0     C90911   3.243   6.623   2.419 -0.5143 -0.0967  0.3477
  674MOL0     C90912   3.340   6.721   2.407  1.3988 -0.0823  0.0728
  674MOL0     C90913   3.390   6.765   2.282 -0.1447  0.8591  0.4617
  674MOL0     O90914   3.482   6.862   2.279 -0.3518  0.3240  0.2148
  674MOL0     C90915   3.543   6.894   2.151  0.4466 -1.5378 -0.2477
  674MOL0     C90916   3.630   7.016   2.166 -0.0577  0.2087 -0.3125
  674MOL0     C90917   3.760   6.972   2.233 -0.8148  0.6667  0.0650
  674MOL0     C90918   3.845   7.101   2.267 -0.7301 -0.0422 -0.3330
  674MOL0     C90919   3.975   7.070   2.319 -0.0722  0.9520 -0.8579
  674MOL0     C90920   4.087   7.043   2.371  1.3425 -0.8486  0.4526
  674MOL0     C90921   3.354   6.679   2.170  1.2071 -0.8368 -0.3240
  674MOL0     C90922   3.267   6.575   2.190  0.4860 -0.4183 -0.2906
  674MOL0     H90923   3.137   6.142   2.329  0.7947  0.0748  0.7320
  674MOL0     H90924   3.017   5.926   2.385  1.0203  0.0546  0.2285
  674MOL0     H90925   2.678   5.939   2.647  2.7622  1.9352  0.7211
  674MOL0     H90926   2.708   5.945   2.464  4.2693 -0.1357 -0.6958
  674MOL0     H90927   2.709   5.712   2.456 -0.7373  0.2917 -0.9290
  674MOL0     H90928   2.702   5.687   2.630  1.2511  1.3995 -0.4623
  674MOL0     H90929   2.464   5.788   2.620 -1.6833 -1.7099 -0.2431
  674MOL0     H90930   2.496   5.832   2.455  2.8022  0.3691 -0.1245
  674MOL0     H90931   2.524   5.580   2.409 -1.7862  2.1190 -1.5623
  674MOL0     H90932   2.465   5.535   2.572  0.7320 -1.0613 -0.4191
  674MOL0     H90933   2.312   5.692   2.363 -0.6533  1.3639  1.6582
  674MOL0     H90934   2.291   5.518   2.401 -0.5653 -0.4977  1.7008
  674MOL0     H90935   2.267   5.593   2.646  0.7868 -2.0101 -1.7517
  674MOL0     H90936   2.237   5.761   2.586  0.0384  0.2349  0.2340
  674MOL0     H90937   2.065   5.671   2.438  1.4673  1.9987  0.8049
  674MOL0     H90938   2.091   5.504   2.522 -0.4315 -0.5998 -0.2228
  674MOL0     H90939   2.013   5.756   2.672  0.8058 -0.0257  0.1909
  674MOL0     H90940   2.012   5.576   2.720 -0.9963  1.1041 -0.0524
  674MOL0     H90941   1.759   5.698   2.812 -1.0133  0.5532 -0.1538
  674MOL0     H90942   1.444   5.534   2.675  0.1897  0.0107 -1.3903
  674MOL0     H90943   1.525   5.570   2.834  2.0980  0.3235 -0.1369
  674MOL0     H90944   1.507   5.823   2.796 -0.5080  0.6710 -0.3760
  674MOL0     H90945   1.362   5.732   2.804  1.2444  2.8841  3.1804
  674MOL0     H90946   1.307   5.879   2.629  0.4577 -0.5510  1.3971
  674MOL0     H90947   1.327   5.723   2.565  2.3068 -0.8683 -1.6741
  674MOL0     H90948   1.410   5.890   2.434 -0.4446  0.5255  1.6309
  674MOL0     H90949   1.542   5.780   2.487 -1.8802 -1.8886 -3.1065
  674MOL0     H90950   1.757   5.873   2.492  4.5144  0.8921  0.7199
  674MOL0     H90951   2.024   5.938   2.426  0.6752  0.1163 -0.1286
  674MOL0     H90952   1.907   5.838   2.340  0.6499 -0.1114  0.0245
  674MOL0     H90953   2.005   5.953   2.251 -0.8051  0.4987 -0.6544
  674MOL0     H90954   1.992   6.551   2.133 -1.3851  1.4047 -1.6554
  674MOL0     H90955   2.149   6.638   1.958  0.1846  0.0520  0.6336
  674MOL0     H90956   2.362   6.323   1.755 -2.2032  0.0836  0.9271
  674MOL0     H90957   2.312   6.390   1.589 -2.9207  2.6804 -0.8316
  674MOL0     H90958   2.493   6.510   1.790 -1.5568 -1.3475  1.2574
  674MOL0     H90959   2.548   6.401   1.660  1.0732  1.5823 -2.1521
  674MOL0     H90960   2.394   6.665   1.628 -1.0785  1.1943 -2.2360
  674MOL0     H90961   2.416   6.560   1.501 -0.0423  1.9068 -0.3634
  674MOL0     H90962   2.632   6.746   1.605  3.0392  0.6451 -2.6394
  674MOL0     H90963   2.689   6.582   1.588  1.1716  0.7479  1.1393
  674MOL0     H90964   2.549   6.747   1.384 -2.0420 -1.4373  2.7841
  674MOL0     H90965   2.598   6.580   1.348  0.2958 -1.2762  2.6283
  674MOL0     H90966   2.764   6.829   1.387 -2.0403  0.3088 -1.3573
  674MOL0     H90967   2.851   6.666   1.402 -1.3796 -1.1992  0.0366
  674MOL0     H90968   2.686   6.785   1.175  2.5200  3.7893 -3.2787
  674MOL0     H90969   2.762   6.627   1.171  1.5693 -2.1261  2.4762
  674MOL0     H90970   2.910   6.907   1.218 -0.1600  2.0104 -4.1533
  674MOL0     H90971   2.911   6.828   1.070 -1.0445  3.0166  0.7891
  674MOL0     H90972   2.150   6.251   1.774 -0.0762  2.4978 -2.2437
  674MOL0     H90973   2.008   6.169   1.986  3.4013 -1.7254  2.1644
  674MOL0     H90974   1.696   6.335   2.334 -2.5007 -0.3793 -0.4998
  674MOL0     H90975   1.532   6.227   2.491 -0.0980 -1.4549  2.8412
  674MOL0     H90976   2.786   6.102   2.672  0.2582 -1.5609  0.2226
  674MOL0     H90977   2.911   6.338   2.646 -2.4632 -2.6170  3.9913
  674MOL0     H90978   3.205   6.595   2.516  0.0248  0.6237  0.7748
  674MOL0     H90979   3.372   6.769   2.499 -1.9351 -2.2154  2.6000
  674MOL0     H90980   3.602   6.809   2.116  2.5026 -0.8722  1.3732
  674MOL0     H90981   3.474   6.918   2.069  1.7838 -1.6732 -1.4399
  674MOL0     H90982   3.584   7.090   2.231 -0.0397  1.3879 -1.5975
  674MOL0     H90983   3.643   7.055   2.064  1.8308 -1.5146 -0.8136
  674MOL0     H90984   3.819   6.909   2.166 -2.2816 -2.9238  1.8237
  674MOL0     H90985   3.732   6.917   2.324 -1.0771  0.7515  0.0371
  674MOL0     H90986   3.788   7.160   2.339  0.0101  0.6095 -0.2708
  674MOL0     H90987   3.868   7.158   2.176  0.3398  1.9652  1.1404
  674MOL0     H90988   4.177   7.029   2.427  0.9229  2.0381  2.0700
  674MOL0     H90989   3.378   6.700   2.066  0.0938 -0.9014 -0.6028
  674MOL0     H90990   3.241   6.518   2.101 -2.2112 -2.2434  1.5081
  675MOL0     O90991  10.617   5.915   3.500  0.5960  0.0481  0.6265
  675MOL0     C90992  10.628   5.969   3.607 -0.2752 -0.4926 -0.3949
  675MOL0     O90993  10.690   5.912   3.717 -0.0200 -0.0168 -0.3348
  675MOL0     C90994  10.733   5.781   3.727 -1.0147 -0.3744 -0.0903
  675MOL0     C90995  10.823   5.751   3.837 -0.1918 -0.4624 -0.1025
  675MOL0     C90996  10.860   5.622   3.872 -0.1938  0.3618  0.1641
  675MOL0     C90997  10.818   5.512   3.787  0.9599 -0.6418 -0.8900
  675MOL0     O90998  10.843   5.383   3.799 -0.6936 -0.1636 -0.0136
  675MOL0     C90999  10.886   5.346   3.934 -0.0956 -0.0780  1.3046
  675MOL0     C91000  10.872   5.189   3.939  0.3868 -0.4934 -0.1085
  675MOL0     C91001  10.734   5.131   3.900  0.2820 -0.3913  0.0519
  675MOL0     C91002  10.721   4.982   3.935 -0.4575  0.7885  0.6330
  675MOL0     C91003  10.594   4.919   3.865  0.6886  0.2486 -0.8695
  675MOL0     C91004  10.609   4.770   3.833  0.1301  0.5056  0.0008
  675MOL0     C91005  10.488   4.705   3.758  0.4679 -0.6058 -0.5257
  675MOL0     C91006  10.380   4.652   3.860 -0.2674 -0.9844 -0.4608
  675MOL0     N91007  10.255   4.583   3.822 -0.1259 -0.1978  0.3252
  675MOL0     C91008  10.126   4.627   3.843  0.3558  0.0287  0.5921
  675MOL0     C91009  10.045   4.523   3.847 -0.7532 -0.2324 -0.3376
  675MOL0     C91010   9.912   4.539   3.889 -0.1481 -1.0213  0.0404
  675MOL0     C91011   9.867   4.654   3.988 -0.6284 -0.3853 -0.1675
  675MOL0     C91012   9.725   4.680   3.990  0.3652 -0.0197 -1.3112
  675MOL0     C91013   9.688   4.792   4.084  0.1813 -0.2449  0.2163
  675MOL0     O91014   9.717   4.912   4.014 -0.5682 -0.2169 -0.3094
  675MOL0     C91015   9.729   5.031   4.095  0.4834  0.3839  1.1856
  675MOL0     C91016   9.850   5.105   4.090 -0.7653  0.2444 -1.0315
  675MOL0     C91017   9.867   5.224   4.159  0.4635  0.1992  0.6464
  675MOL0     C91018   9.992   5.315   4.131 -0.1824  0.6059  0.7383
  675MOL0     C91019   9.757   5.254   4.249  0.2790 -0.5489  0.2798
  675MOL0     C91020   9.762   5.371   4.343  0.5595 -0.5161 -0.6827
  675MOL0     O91021   9.817   5.492   4.305  0.1685 -0.0671 -0.1192
  675MOL0     C91022   9.804   5.605   4.367 -0.0046  0.0058 -0.4707
  675MOL0     C91023   9.917   5.688   4.365 -1.1634  0.2889 -0.0340
  675MOL0     C91024   9.907   5.824   4.411  0.5010 -0.3869 -0.7340
  675MOL0     C91025   9.787   5.873   4.458  0.4900  0.7210  0.6738
  675MOL0     O91026   9.753   6.002   4.484 -0.7986 -0.1427  0.0471
  675MOL0     C91027   9.805   6.042   4.610  0.0896  0.1401  0.7030
  675MOL0     C91028   9.777   6.189   4.625 -0.1327 -0.0682  0.3412
  675MOL0     C91029   9.632   6.205   4.623 -0.1793  0.3886  0.1468
  675MOL0     C91030   9.598   6.349   4.647  0.0269 -0.4443  0.2510
  675MOL0     C91031   9.442   6.366   4.668  0.0678  0.0635  0.0824
  675MOL0     C91032   9.408   6.519   4.675 -0.5530  0.4905  0.6975
  675MOL0     C91033   9.263   6.550   4.625 -0.1005 -0.5981 -0.8783
  675MOL0     C91034   9.259   6.708   4.627 -0.3115 -1.0845 -0.1799
  675MOL0    Cl91035   9.325   6.791   4.474  0.0694 -0.2341 -0.4045
  675MOL0     C91036   9.678   5.783   4.469 -0.0092 -0.5340  1.4178
  675MOL0     C91037   9.694   5.648   4.424  0.1627 -0.3890 -0.4986
  675MOL0     O91038   9.705   5.339   4.446 -0.1803  0.3452 -0.0742
  675MOL0     C91039   9.634   5.185   4.239 -0.1676  0.2645 -0.2062
  675MOL0     C91040   9.621   5.072   4.168  0.6209  0.7107 -0.2021
  675MOL0     N91041  10.112   4.411   3.819 -1.5481  0.2863 -1.1162
  675MOL0     N91042  10.241   4.444   3.806  1.0463 -0.2235  0.3976
  675MOL0     C91043  10.742   5.546   3.665 -0.4616  0.4267 -0.2925
  675MOL0     C91044  10.691   5.674   3.646 -0.3007 -0.3279  0.4109
  675MOL0     C91045  10.578   6.111   3.622 -0.1789  0.5815  0.0983
  675MOL0     C91046  10.598   6.176   3.746 -0.2611  0.6056 -0.4779
  675MOL0     C91047  10.547   6.308   3.773 -0.6115 -0.5693 -0.7412
  675MOL0     C91048  10.471   6.378   3.681  0.5774 -0.5444 -0.1188
  675MOL0     O91049  10.407   6.497   3.706 -1.4467 -0.8943 -0.0959
  675MOL0     C91050  10.416   6.564   3.834  0.6568  0.6982 -0.3403
  675MOL0     C91051  10.295   6.532   3.922  0.0770 -0.3067  0.4847
  675MOL0     C91052  10.187   6.638   3.909  0.5717 -0.1416  0.0750
  675MOL0     C91053  10.100   6.660   3.782  0.0092  0.3701  0.0320
  675MOL0     C91054  10.076   6.531   3.728  0.1553  0.2007  0.5015
  675MOL0     C91055  10.038   6.424   3.699  0.6216 -0.3549 -0.6050
  675MOL0     C91056  10.433   6.300   3.566 -0.0379  0.1445 -0.0566
  675MOL0     C91057  10.502   6.185   3.525  0.8198 -0.2982  0.4209
  675MOL0     H91058  10.860   5.830   3.902  0.9267 -1.9320  1.1390
  675MOL0     H91059  10.925   5.608   3.958 -1.0047 -2.5052  0.4330
  675MOL0     H91060  10.987   5.384   3.955 -0.1423  2.0548 -1.7541
  675MOL0     H91061  10.817   5.389   4.006 -1.5720  2.2542 -1.3249
  675MOL0     H91062  10.949   5.142   3.877  1.8857  1.6792 -0.0195
  675MOL0     H91063  10.891   5.156   4.042 -2.6671 -0.4404  0.5641
  675MOL0     H91064  10.659   5.184   3.959 -2.3429  0.6332 -3.8996
  675MOL0     H91065  10.716   5.157   3.796  1.8487  3.6807  0.5854
  675MOL0     H91066  10.800   4.921   3.890 -0.1759 -2.5607  5.0296
  675MOL0     H91067  10.739   4.975   4.042 -2.8261 -0.3722  1.0265
  675MOL0     H91068  10.501   4.930   3.921  1.5282  1.8001  0.2832
  675MOL0     H91069  10.579   4.976   3.773  2.0429  2.5357  0.2618
  675MOL0     H91070  10.698   4.753   3.772  0.4306 -0.6230  0.7247
  675MOL0     H91071  10.615   4.708   3.923 -1.8736  1.7867  1.0863
  675MOL0     H91072  10.464   4.769   3.672  0.1051  0.1446  0.1245
  675MOL0     H91073  10.546   4.620   3.720 -0.0930 -2.1115  1.7825
  675MOL0     H91074  10.349   4.729   3.931  0.8335 -1.8327  0.9802
  675MOL0     H91075  10.440   4.589   3.927 -1.0531  2.0215  3.4581
  675MOL0     H91076  10.096   4.731   3.855 -0.1357 -0.2337  1.7316
  675MOL0     H91077   9.869   4.567   3.792  1.4454  2.2119  0.1421
  675MOL0     H91078   9.865   4.449   3.930  0.1647 -1.3991 -0.4215
  675MOL0     H91079   9.908   4.752   3.960  0.2926 -0.4148  0.9860
  675MOL0     H91080   9.913   4.628   4.084 -2.4160 -1.1434  0.5267
  675MOL0     H91081   9.685   4.586   4.028  2.2047  0.2731  1.7087
  675MOL0     H91082   9.698   4.707   3.887 -0.9585 -0.3974 -1.0813
  675MOL0     H91083   9.748   4.781   4.175  3.4965  1.4712 -1.5759
  675MOL0     H91084   9.580   4.786   4.100  0.4835 -0.3955  2.6175
  675MOL0     H91085   9.927   5.067   4.024 -0.4332 -2.7692  0.9060
  675MOL0     H91086   9.974   5.383   4.047 -3.3839 -1.6443 -0.5992
  675MOL0     H91087  10.009   5.376   4.220 -1.5516  2.0325  0.0553
  675MOL0     H91088  10.079   5.250   4.119 -1.8247 -1.4934 -0.4546
  675MOL0     H91089  10.018   5.658   4.341 -0.7651  1.6557 -0.1817
  675MOL0     H91090   9.983   5.900   4.398 -1.4566  2.0811  1.1616
  675MOL0     H91091   9.764   5.981   4.690 -2.9744  0.8723 -0.1810
  675MOL0     H91092   9.914   6.035   4.603  0.2499  1.5371  1.3609
  675MOL0     H91093   9.827   6.222   4.716  1.8615 -0.2165 -0.6256
  675MOL0     H91094   9.816   6.244   4.538 -2.3166  0.7140 -0.1951
  675MOL0     H91095   9.591   6.130   4.691  0.5524 -2.1448 -2.0138
  675MOL0     H91096   9.590   6.184   4.524  1.0025  1.1050 -0.5438
  675MOL0     H91097   9.650   6.382   4.738  0.8234 -1.8942  0.3501
  675MOL0     H91098   9.633   6.415   4.568 -2.6108  3.3222  1.9095
  675MOL0     H91099   9.406   6.326   4.763 -1.3902  1.7419  0.2962
  675MOL0     H91100   9.393   6.322   4.581 -1.5550 -0.4233  1.2167
  675MOL0     H91101   9.416   6.553   4.779 -1.6349 -0.3934  1.0944
  675MOL0     H91102   9.482   6.568   4.612  0.0518 -2.5986 -1.2029
  675MOL0     H91103   9.184   6.501   4.683 -0.6429 -2.2503 -2.9056
  675MOL0     H91104   9.258   6.524   4.519 -0.0148  2.0742 -1.6055
  675MOL0     H91105   9.330   6.737   4.705 -1.5818 -1.6670  1.2267
  675MOL0     H91106   9.159   6.743   4.654  0.1101 -0.2555  0.3407
  675MOL0     H91107   9.586   5.809   4.520 -0.7213 -2.0869  0.9994
  675MOL0     H91108   9.599   5.598   4.436  0.3103 -0.8833 -1.2880
  675MOL0     H91109   9.556   5.236   4.294  1.7661  1.3536  1.6872
  675MOL0     H91110   9.533   5.009   4.166  0.6954  0.5656  0.5779
  675MOL0     H91111  10.718   5.468   3.593 -1.0614  0.5545 -0.2344
  675MOL0     H91112  10.646   5.692   3.549  2.2601 -2.1136 -1.2417
  675MOL0     H91113  10.646   6.120   3.825  3.9962  1.0777 -2.4273
  675MOL0     H91114  10.554   6.337   3.877 -0.8973 -0.2180 -0.8169
  675MOL0     H91115  10.504   6.544   3.896  0.5069 -0.6111 -0.5232
  675MOL0     H91116  10.427   6.670   3.810 -0.4134  1.0291  0.5547
  675MOL0     H91117  10.326   6.520   4.026  0.6218  1.8782  0.6098
  675MOL0     H91118  10.257   6.435   3.888  2.0690 -0.3554 -1.8748
  675MOL0     H91119  10.226   6.738   3.929 -4.4540  1.9401  1.2345
  675MOL0     H91120  10.116   6.622   3.992 -0.1426 -2.0834 -0.8310
  675MOL0     H91121  10.140   6.717   3.698 -1.8272  0.9900 -0.4644
  675MOL0     H91122  10.008   6.706   3.818  0.0724 -2.1629  4.0657
  675MOL0     H91123   9.992   6.330   3.677 -3.1836  1.5418 -1.5190
  675MOL0     H91124  10.378   6.351   3.487 -1.3010 -1.3964 -0.2292
  675MOL0     H91125  10.478   6.141   3.428  1.6994 -3.9214  1.6858
  676MOL0     O91126   2.471   3.060   1.091  0.2095 -0.3878 -0.3885
  676MOL0     C91127   2.517   3.087   1.199  0.3691 -0.2651 -0.2213
  676MOL0     O91128   2.574   3.209   1.234  0.1873  0.6263  0.0561
  676MOL0     C91129   2.568   3.303   1.133  0.4415 -1.5274  0.7384
  676MOL0     C91130   2.623   3.294   1.009 -0.3779  0.1218 -0.8130
  676MOL0     C91131   2.603   3.386   0.906  0.7112 -0.6133  0.9582
  676MOL0     C91132   2.504   3.488   0.917 -0.6643 -0.6510  0.1278
  676MOL0     O91133   2.509   3.573   0.801  0.6969  0.2136  0.2907
  676MOL0     C91134   2.449   3.700   0.815  0.0813  0.1206 -0.2923
  676MOL0     C91135   2.473   3.776   0.684 -0.1755  0.4550  0.3083
  676MOL0     C91136   2.420   3.919   0.695  0.9225  0.2217  0.4372
  676MOL0     C91137   2.523   4.018   0.763  1.5984  1.4222  0.3100
  676MOL0     C91138   2.469   4.156   0.804 -0.7171 -0.5527 -0.0332
  676MOL0     C91139   2.585   4.256   0.781 -0.4901 -0.4268 -0.2714
  676MOL0     C91140   2.537   4.392   0.834 -0.3560  0.7806  0.4865
  676MOL0     C91141   2.621   4.510   0.795  0.0579  0.3694  0.1799
  676MOL0     N91142   2.752   4.487   0.848  0.0153  0.4418  0.0995
  676MOL0     C91143   2.795   4.449   0.973  0.2760  0.2806 -0.0868
  676MOL0     C91144   2.934   4.449   0.975  0.2897 -1.1012  0.1988
  676MOL0     C91145   3.032   4.403   1.082  0.2665  0.1140  0.2321
  676MOL0     C91146   3.108   4.288   1.026  0.5162  0.3080 -0.7705
  676MOL0     C91147   3.199   4.216   1.130 -0.4870 -1.1354  0.5622
  676MOL0     C91148   3.295   4.113   1.068  0.4114  0.8144 -1.0304
  676MOL0     O91149   3.388   4.073   1.169 -0.6908 -0.3914  0.3858
  676MOL0     C91150   3.340   3.999   1.272  0.5516  0.3004  0.2251
  676MOL0     C91151   3.324   4.064   1.392 -0.4226 -0.7376  1.1161
  676MOL0     C91152   3.275   4.000   1.501  0.0117  0.3064  0.3144
  676MOL0     C91153   3.273   4.074   1.635 -0.0364  0.2540  0.9482
  676MOL0     C91154   3.224   3.862   1.487 -0.4825 -0.7742 -0.7111
  676MOL0     C91155   3.151   3.799   1.594  0.4717 -0.3400 -0.5959
  676MOL0     O91156   3.139   3.662   1.589  0.1706 -0.1450  0.6428
  676MOL0     C91157   3.119   3.588   1.700  0.9837 -0.2761  0.5583
  676MOL0     C91158   3.043   3.473   1.677 -0.5045  0.1856  0.8146
  676MOL0     C91159   3.010   3.390   1.783 -0.8979  0.3578  0.1955
  676MOL0     C91160   3.055   3.414   1.918 -0.1814  0.2708 -0.0243
  676MOL0     O91161   3.034   3.337   2.029 -0.8513 -0.2459 -0.1794
  676MOL0     C91162   2.907   3.271   2.033  0.6647  0.2752  0.2594
  676MOL0     C91163   2.903   3.201   2.167  0.9306  0.8324 -0.6546
  676MOL0     C91164   3.005   3.090   2.187 -0.6024 -0.6552 -0.0691
  676MOL0     C91165   2.958   3.022   2.318 -0.7770  0.8819  0.0055
  676MOL0     C91166   3.044   2.898   2.361  0.8080 -0.3953  0.3698
  676MOL0     C91167   3.022   2.778   2.265  0.0355  0.3203  0.5936
  676MOL0     C91168   3.107   2.649   2.288  0.2314  0.4684  0.2909
  676MOL0     C91169   3.247   2.659   2.216 -0.3708 -0.7339 -0.6527
  676MOL0    Cl91170   3.331   2.504   2.238  0.0079  0.0103  0.2507
  676MOL0     C91171   3.146   3.521   1.924  0.7151 -0.0437  0.3196
  676MOL0     C91172   3.171   3.609   1.828 -0.9722 -0.2950 -0.4544
  676MOL0     O91173   3.098   3.872   1.680 -0.6925  0.1064  0.6235
  676MOL0     C91174   3.243   3.804   1.366  0.7361 -0.2507 -0.0570
  676MOL0     C91175   3.300   3.866   1.260  0.4640  0.5213 -0.4174
  676MOL0     N91176   2.973   4.483   0.847  0.1228  0.8413 -0.7693
  676MOL0     N91177   2.872   4.498   0.779  0.7534  0.4460  0.1210
  676MOL0     C91178   2.441   3.496   1.039  0.5687 -0.4995 -0.9706
  676MOL0     C91179   2.459   3.401   1.139 -0.3626  0.4241 -0.2111
  676MOL0     C91180   2.512   2.984   1.308  0.6096 -0.5624  0.9872
  676MOL0     C91181   2.581   3.010   1.432  0.0128 -0.1180 -0.0537
  676MOL0     C91182   2.579   2.911   1.530 -0.4137 -0.2681  0.7474
  676MOL0     C91183   2.531   2.785   1.504  0.2750  0.7631 -0.9869
  676MOL0     O91184   2.531   2.697   1.608  0.6601  0.3192 -0.6371
  676MOL0     C91185   2.453   2.582   1.598  1.2791 -0.0541 -0.2656
  676MOL0     C91186   2.464   2.488   1.723 -0.0011  0.2240 -0.0156
  676MOL0     C91187   2.591   2.392   1.727  0.1533  0.1992  0.5866
  676MOL0     C91188   2.590   2.307   1.850 -0.6625  0.0234 -0.2719
  676MOL0     C91189   2.475   2.222   1.857  0.0092  0.2152  0.1463
  676MOL0     C91190   2.394   2.135   1.843  0.3121 -0.1162 -0.6340
  676MOL0     C91191   2.470   2.755   1.382  0.0294  0.5782 -0.3334
  676MOL0     C91192   2.451   2.858   1.289 -0.3255  0.4708 -0.1313
  676MOL0     H91193   2.692   3.217   0.976  1.4659  1.2591  0.1616
  676MOL0     H91194   2.652   3.382   0.810 -0.2288  2.8629  0.2107
  676MOL0     H91195   2.344   3.686   0.844  0.5090 -1.0446  0.8012
  676MOL0     H91196   2.510   3.753   0.889 -2.3413  3.4716 -0.4913
  676MOL0     H91197   2.579   3.780   0.657  0.0836  1.7010  1.3739
  676MOL0     H91198   2.421   3.722   0.604  1.9454  0.1441 -0.9253
  676MOL0     H91199   2.397   3.959   0.596 -3.6828  0.2548  1.3071
  676MOL0     H91200   2.325   3.920   0.748  0.9872  1.8489  0.5622
  676MOL0     H91201   2.562   3.975   0.855 -1.3985  0.1016  1.0939
  676MOL0     H91202   2.608   4.021   0.694 -0.2247  2.0081 -2.0550
  676MOL0     H91203   2.385   4.176   0.737 -2.9163  1.2112  3.0106
  676MOL0     H91204   2.427   4.157   0.905 -1.4245  2.8365 -0.2289
  676MOL0     H91205   2.674   4.232   0.841 -3.0419 -0.7351  3.8087
  676MOL0     H91206   2.609   4.261   0.675  1.3173 -1.0714  0.0718
  676MOL0     H91207   2.440   4.400   0.783 -0.2157  0.3894  0.1565
  676MOL0     H91208   2.516   4.384   0.941  0.3207 -2.1139  0.4895
  676MOL0     H91209   2.575   4.605   0.824  0.3387  1.1636 -1.8350
  676MOL0     H91210   2.628   4.518   0.686  1.6646  1.2742  0.3165
  676MOL0     H91211   2.739   4.422   1.063 -0.2367  0.7592 -0.2522
  676MOL0     H91212   3.101   4.479   1.119  1.3795 -0.2838 -0.9758
  676MOL0     H91213   2.961   4.376   1.161 -0.5750 -0.8305 -0.8168
  676MOL0     H91214   3.175   4.327   0.948  3.4170  0.4274  1.6100
  676MOL0     H91215   3.052   4.203   0.986  1.6990 -0.3279 -1.1307
  676MOL0     H91216   3.137   4.167   1.205  1.3103 -2.4808  1.2444
  676MOL0     H91217   3.252   4.296   1.183 -2.3178  0.4877  0.0696
  676MOL0     H91218   3.343   4.151   0.978  1.6565  2.5424  0.2931
  676MOL0     H91219   3.243   4.019   1.047  2.5454 -1.4079  2.5441
  676MOL0     H91220   3.377   4.159   1.399 -1.3677  0.2126 -2.5278
  676MOL0     H91221   3.176   4.124   1.647  0.0163  1.2044 -1.9719
  676MOL0     H91222   3.303   4.018   1.724  1.4930  0.9916  0.9286
  676MOL0     H91223   3.356   4.146   1.627  1.3474 -1.4427 -0.9824
  676MOL0     H91224   2.992   3.449   1.584  1.6378 -2.5744  0.2363
  676MOL0     H91225   2.957   3.296   1.769 -1.8751  1.1037 -1.2925
  676MOL0     H91226   2.822   3.340   2.026 -0.1028 -0.7165 -0.4732
  676MOL0     H91227   2.899   3.194   1.955 -0.9155  0.3423  0.3349
  676MOL0     H91228   2.902   3.266   2.255  0.4925  2.0596 -1.5305
  676MOL0     H91229   2.799   3.168   2.177  1.8651 -2.3099 -0.2501
  676MOL0     H91230   3.110   3.121   2.189 -0.4348 -1.2625  1.4418
  676MOL0     H91231   3.006   3.022   2.101  0.5734 -1.7151  0.7415
  676MOL0     H91232   2.973   3.095   2.398 -1.2876 -1.9287  2.8416
  676MOL0     H91233   2.857   2.980   2.309  1.1116 -4.1408 -1.3168
  676MOL0     H91234   3.015   2.872   2.464 -0.2532  1.3560  0.5458
  676MOL0     H91235   3.150   2.924   2.376  1.1076  0.3529 -2.4765
  676MOL0     H91236   2.919   2.743   2.256  0.9013 -2.4442  0.7014
  676MOL0     H91237   3.057   2.810   2.166  1.7675 -1.8969  0.4046
  676MOL0     H91238   3.055   2.560   2.251  0.2615  0.4512  0.2896
  676MOL0     H91239   3.129   2.641   2.395 -0.9834 -2.9023  0.3988
  676MOL0     H91240   3.314   2.728   2.267 -0.0324 -1.4803 -0.0625
  676MOL0     H91241   3.240   2.684   2.110 -0.8110  1.0511 -0.2358
  676MOL0     H91242   3.200   3.544   2.016  1.7624 -0.1411 -0.2576
  676MOL0     H91243   3.237   3.691   1.854 -2.8941  0.6735  1.6322
  676MOL0     H91244   3.227   3.699   1.347  2.4431 -0.2923 -1.5408
  676MOL0     H91245   3.328   3.812   1.171 -0.0018 -1.8725  0.7981
  676MOL0     H91246   2.373   3.577   1.064  0.9162 -0.9557  1.8510
  676MOL0     H91247   2.401   3.414   1.230 -1.7396 -2.6185 -0.5238
  676MOL0     H91248   2.632   3.105   1.440 -0.5800  0.4828 -2.6780
  676MOL0     H91249   2.620   2.914   1.630  0.4328 -0.6732  0.4198
  676MOL0     H91250   2.348   2.611   1.586  1.0646 -0.6374  0.1362
  676MOL0     H91251   2.492   2.526   1.512  0.9441  1.4375 -1.4266
  676MOL0     H91252   2.368   2.434   1.721  1.1920 -1.9813 -0.8724
  676MOL0     H91253   2.452   2.549   1.813 -0.7930  0.4408 -0.2517
  676MOL0     H91254   2.686   2.445   1.740 -0.0057  0.0346  2.8017
  676MOL0     H91255   2.593   2.333   1.634  1.6125  0.5772  0.3409
  676MOL0     H91256   2.605   2.373   1.936 -2.3483  3.7025 -2.5596
  676MOL0     H91257   2.687   2.258   1.834 -0.5781  0.1827 -0.2482
  676MOL0     H91258   2.322   2.062   1.811  1.9217 -1.7220 -0.7909
  676MOL0     H91259   2.420   2.661   1.361 -4.0009  1.4997  3.5776
  676MOL0     H91260   2.401   2.843   1.194  0.2646 -1.0252 -0.2404
  677MOL0     O91261  10.421  10.852   0.004 -0.6069 -0.2572 -0.6951
  677MOL0     C91262  10.411  10.748   0.071  0.2051 -0.3142  0.4646
  677MOL0     O91263  10.336  10.739   0.186 -0.7290 -0.1334  0.0302
  677MOL0     C91264  10.272  10.847   0.232  0.1886  0.1561 -0.2709
  677MOL0     C91265  10.131  10.847   0.220 -0.0771 -1.1591  0.9924
  677MOL0     C91266  10.054  10.959   0.257  0.5089  0.0684 -0.4477
  677MOL0     C91267  10.115  11.061   0.328 -0.6470 -0.7471 -0.4121
  677MOL0     O91268  10.050  11.172   0.378  0.3735 -0.7988  0.0596
  677MOL0     C91269   9.908  11.198   0.367  0.2194  1.0717 -0.4258
  677MOL0     C91270   9.874  11.303   0.473 -1.0311  0.0228  0.2033
  677MOL0     C91271   9.717  11.310   0.493  0.0401 -0.8419 -0.7741
  677MOL0     C91272   9.672  11.395   0.617 -0.7340 -0.6986  0.5713
  677MOL0     C91273   9.529  11.432   0.630  0.3591 -1.1158 -0.1687
  677MOL0     C91274   9.480  11.491   0.496  0.0940 -0.3072  0.4387
  677MOL0     C91275   9.342  11.556   0.531  0.1692 -0.9976 -1.7888
  677MOL0     C91276   9.266  11.603   0.407 -0.3313  0.5441  0.3916
  677MOL0     N91277   9.217  11.500   0.319 -0.6233 -0.2864  0.9009
  677MOL0     C91278   9.296  11.416   0.249 -0.2166 -0.6696  0.2364
  677MOL0     C91279   9.216  11.313   0.223  0.2737 -0.4862 -0.4410
  677MOL0     C91280   9.241  11.188   0.146 -0.2216  0.5184  0.6667
  677MOL0     C91281   9.265  11.053   0.231  0.3769  0.4577 -0.2769
  677MOL0     C91282   9.397  11.054   0.309  1.1408  0.4017  0.3895
  677MOL0     C91283   9.510  10.978   0.248  0.9464  1.4975 -0.1913
  677MOL0     O91284   9.569  11.042   0.137 -0.3864 -1.0634  0.7928
  677MOL0     C91285   9.659  10.986   0.052  0.2834  0.4284  0.0737
  677MOL0     C91286   9.677  11.043  -0.078 -0.6564  0.0324 -1.1178
  677MOL0     C91287   9.766  10.985  -0.168 -0.2894 -0.5614  0.2196
  677MOL0     C91288   9.774  11.060  -0.303 -0.4517 -0.4270 -0.3370
  677MOL0     C91289   9.830  10.866  -0.137 -0.3280  0.7513  0.9361
  677MOL0     C91290   9.914  10.788  -0.236  0.7392  0.5664  0.0543
  677MOL0     O91291   9.969  10.668  -0.186 -0.1765  0.1368 -0.2092
  677MOL0     C91292  10.052  10.595  -0.262 -0.9306  0.6717  0.3379
  677MOL0     C91293  10.190  10.588  -0.234  0.0522 -0.6292 -0.4739
  677MOL0     C91294  10.274  10.491  -0.299 -0.5876  0.2349  0.1486
  677MOL0     C91295  10.226  10.414  -0.398  0.4909  0.1935  0.5905
  677MOL0     O91296  10.305  10.331  -0.485 -0.1834  0.0194  0.1553
  677MOL0     C91297  10.450  10.333  -0.477  0.1645  0.0094  0.1478
  677MOL0     C91298  10.505  10.237  -0.576 -0.8305 -0.5488  0.0545
  677MOL0     C91299  10.495  10.293  -0.719 -1.0443  0.0942 -0.0302
  677MOL0     C91300  10.568  10.193  -0.812 -0.8820 -0.8498  0.0243
  677MOL0     C91301  10.553  10.226  -0.957  0.0744  0.7265  0.4438
  677MOL0     C91302  10.637  10.342  -1.001 -0.1812 -0.1942  0.2529
  677MOL0     C91303  10.585  10.404  -1.136 -0.7715  0.5382  0.3646
  677MOL0     C91304  10.671  10.527  -1.179 -0.7173 -0.2391  0.1251
  677MOL0    Cl91305  10.821  10.460  -1.248  0.6974  0.3325  0.3784
  677MOL0     C91306  10.092  10.422  -0.429 -0.1881 -0.6348  0.5327
  677MOL0     C91307  10.001  10.513  -0.362  0.2981 -0.0916  0.9902
  677MOL0     O91308   9.933  10.834  -0.348 -0.8005 -0.8184  0.9369
  677MOL0     C91309   9.817  10.819  -0.002 -0.5965  0.1853 -0.1834
  677MOL0     C91310   9.728  10.875   0.085 -0.8579 -0.3230 -0.0425
  677MOL0     N91311   9.085  11.334   0.263 -1.0020  0.0677 -0.0074
  677MOL0     N91312   9.091  11.451   0.325  0.3815 -0.1107  0.9643
  677MOL0     C91313  10.256  11.058   0.345  0.8727  0.3785  0.5180
  677MOL0     C91314  10.339  10.947   0.298  0.3732  1.1125 -1.0786
  677MOL0     C91315  10.459  10.622   0.011 -0.0164  0.1894  0.4139
  677MOL0     C91316  10.555  10.624  -0.090  0.8776 -0.2088  0.3968
  677MOL0     C91317  10.616  10.506  -0.138 -0.2912  0.0392  0.4066
  677MOL0     C91318  10.561  10.385  -0.089 -0.3124  0.6006 -0.3777
  677MOL0     O91319  10.597  10.260  -0.123 -0.6453 -0.2173  0.0980
  677MOL0     C91320  10.712  10.233  -0.203  0.3869 -0.3879 -0.1308
  677MOL0     C91321  10.695  10.105  -0.287 -0.3984  0.0650 -0.6724
  677MOL0     C91322  10.804  10.090  -0.387  1.6074  0.6225  0.1704
  677MOL0     C91323  10.938  10.069  -0.322  0.2147  0.2807  0.7472
  677MOL0     C91324  11.041  10.028  -0.419 -0.4122 -0.2217 -0.9407
  677MOL0     C91325  11.132   9.997  -0.488  0.2016 -1.0573  0.5518
  677MOL0     C91326  10.448  10.381   0.002 -0.7943  0.2034  0.1511
  677MOL0     C91327  10.402  10.501   0.045 -0.0152  0.3183 -0.0990
  677MOL0     H91328  10.074  10.768   0.172 -2.2160  0.9286 -0.1291
  677MOL0     H91329   9.946  10.946   0.245  0.0445  2.1225  0.9737
  677MOL0     H91330   9.883  11.237   0.268 -2.2112  3.2255  0.9152
  677MOL0     H91331   9.857  11.102   0.374  0.8751  0.6923 -0.7502
  677MOL0     H91332   9.925  11.273   0.565 -0.9319 -1.8594 -0.4223
  677MOL0     H91333   9.908  11.394   0.423 -2.6303  1.0821  0.9658
  677MOL0     H91334   9.678  11.347   0.397  0.0334 -0.8357 -0.7689
  677MOL0     H91335   9.666  11.215   0.509  0.7996 -1.2837 -0.9364
  677MOL0     H91336   9.698  11.351   0.714  0.8831 -0.8289  0.1202
  677MOL0     H91337   9.732  11.486   0.607 -0.3112 -0.8290  1.8106
  677MOL0     H91338   9.469  11.345   0.656  0.2045 -1.1264 -0.5533
  677MOL0     H91339   9.518  11.504   0.711  0.5741 -0.2692 -0.8749
  677MOL0     H91340   9.545  11.565   0.447  1.5625  0.2448  3.0572
  677MOL0     H91341   9.463  11.411   0.423 -0.9809 -2.1314  2.5797
  677MOL0     H91342   9.271  11.497   0.590 -0.1459  1.3891  0.4066
  677MOL0     H91343   9.358  11.645   0.593  1.3412 -0.2157 -3.1554
  677MOL0     H91344   9.326  11.680   0.359 -1.0031  0.6634 -0.2711
  677MOL0     H91345   9.170  11.648   0.434 -1.6705  0.7515 -3.9926
  677MOL0     H91346   9.403  11.420   0.232 -0.4978 -1.5159 -2.0262
  677MOL0     H91347   9.156  11.172   0.078  1.7335  2.7640 -2.5696
  677MOL0     H91348   9.326  11.197   0.078  1.0177 -0.3775  2.0288
  677MOL0     H91349   9.261  10.961   0.172  1.9753 -1.2036  1.9989
  677MOL0     H91350   9.184  11.042   0.303  1.1146  1.2899  0.7077
  677MOL0     H91351   9.381  10.998   0.401  0.1552  1.5372  0.9306
  677MOL0     H91352   9.419  11.154   0.348 -2.0482  1.5278 -0.3739
  677MOL0     H91353   9.487  10.876   0.214  2.6898  0.7380  0.8140
  677MOL0     H91354   9.587  10.967   0.324 -0.1097  1.2859  0.8699
  677MOL0     H91355   9.630  11.136  -0.109 -0.0793  0.5708 -0.4078
  677MOL0     H91356   9.728  11.159  -0.294 -0.1025 -0.3722  1.0064
  677MOL0     H91357   9.878  11.092  -0.317 -1.0126  2.6537  1.5224
  677MOL0     H91358   9.735  11.005  -0.389 -1.4509  0.4322 -0.4548
  677MOL0     H91359  10.240  10.651  -0.162  1.6947  1.2412 -3.0588
  677MOL0     H91360  10.378  10.488  -0.267 -0.1410 -0.9714 -1.3236
  677MOL0     H91361  10.486  10.436  -0.490  1.5653 -0.5323 -0.4829
  677MOL0     H91362  10.474  10.291  -0.379 -1.7691  0.3600  0.8123
  677MOL0     H91363  10.609  10.208  -0.556 -0.4218 -2.1095 -3.5432
  677MOL0     H91364  10.446  10.146  -0.568 -2.0524  0.3748  2.5469
  677MOL0     H91365  10.541  10.392  -0.720 -0.6332 -0.0221 -3.1119
  677MOL0     H91366  10.394  10.298  -0.761  0.2025 -0.1836 -3.3939
  677MOL0     H91367  10.675  10.187  -0.791 -0.4798  0.1854 -1.5824
  677MOL0     H91368  10.524  10.096  -0.787 -4.3616  0.1188 -1.6182
  677MOL0     H91369  10.451  10.262  -0.972  0.5795  2.8641  1.8296
  677MOL0     H91370  10.578  10.141  -1.022  1.3619 -0.1164  1.9900
  677MOL0     H91371  10.628  10.407  -0.914 -0.1232  0.6773 -0.3773
  677MOL0     H91372  10.742  10.310  -1.006 -0.3292 -0.7696  0.7907
  677MOL0     H91373  10.480  10.433  -1.128 -0.1548  3.4420 -0.8361
  677MOL0     H91374  10.589  10.323  -1.209 -0.1570  0.5465  0.3835
  677MOL0     H91375  10.681  10.592  -1.092 -3.3007  1.1556 -0.4990
  677MOL0     H91376  10.619  10.589  -1.253  0.7172  0.1200 -0.6070
  677MOL0     H91377  10.057  10.369  -0.517 -0.0132 -0.0994  0.1342
  677MOL0     H91378   9.899  10.493  -0.393  1.0240  0.8335 -2.4076
  677MOL0     H91379   9.858  10.726   0.037 -0.4297  0.8908  1.4056
  677MOL0     H91380   9.731  10.835   0.186  4.5246  2.2050  1.1814
  677MOL0     H91381  10.297  11.148   0.390 -0.7052  0.4069  2.0116
  677MOL0     H91382  10.447  10.955   0.296  0.3806  1.2498 -0.3601
  677MOL0     H91383  10.587  10.720  -0.129  1.0723 -0.7833 -0.8996
  677MOL0     H91384  10.704  10.512  -0.202 -1.3841  2.8703 -0.9830
  677MOL0     H91385  10.734  10.317  -0.269  0.0573  0.6668  1.0645
  677MOL0     H91386  10.796  10.214  -0.136  0.8464 -0.1858 -0.6434
  677MOL0     H91387  10.597  10.101  -0.335  1.5128 -0.7239 -4.9983
  677MOL0     H91388  10.699  10.013  -0.227 -2.6419  0.3242 -0.0323
  677MOL0     H91389  10.809  10.181  -0.446 -0.8491  0.2679 -0.7156
  677MOL0     H91390  10.781  10.010  -0.458 -0.5005 -0.6991  2.1826
  677MOL0     H91391  10.929   9.993  -0.243  0.4729 -0.1671  0.3473
  677MOL0     H91392  10.962  10.162  -0.270 -0.5242  0.1475  1.3485
  677MOL0     H91393  11.204   9.984  -0.566 -1.2495  0.9895 -1.2467
  677MOL0     H91394  10.391  10.291   0.020 -2.6616  1.3413  0.2080
  677MOL0     H91395  10.333  10.517   0.127  2.1911  2.1452  1.5518
  678MOL0     O91396   1.372   1.369   6.694 -0.1671 -0.1956 -0.1004
  678MOL0     C91397   1.489   1.399   6.699 -0.1728 -0.9546  0.3697
  678MOL0     O91398   1.541   1.523   6.733  0.1505  0.3287 -0.4581
  678MOL0     C91399   1.452   1.631   6.740 -1.1465  0.2744 -0.4527
  678MOL0     C91400   1.328   1.651   6.672 -0.3123 -0.1850  0.3127
  678MOL0     C91401   1.266   1.771   6.674 -0.3304 -0.6252  0.7499
  678MOL0     C91402   1.316   1.884   6.741 -1.0210  0.4851  0.1574
  678MOL0     O91403   1.239   1.991   6.756 -0.3219  0.0736  0.8347
  678MOL0     C91404   1.247   2.061   6.876  0.1736  0.1601 -0.1319
  678MOL0     C91405   1.109   2.113   6.931  0.0915 -0.0701  0.3704
  678MOL0     C91406   1.025   2.164   6.808  0.5607  1.7198  0.1020
  678MOL0     C91407   0.963   2.297   6.850 -0.4254 -0.9816  0.1855
  678MOL0     C91408   0.884   2.346   6.732  0.1515 -0.4365 -0.5603
  678MOL0     C91409   0.850   2.492   6.756  0.0646  0.2612  0.4323
  678MOL0     C91410   0.937   2.589   6.665 -0.2897  1.3255  0.6221
  678MOL0     C91411   0.912   2.585   6.506 -0.7368  0.7757  0.0138
  678MOL0     N91412   0.780   2.613   6.462 -0.6352 -0.1341  0.4935
  678MOL0     C91413   0.718   2.735   6.487 -0.4863  1.1518  0.0097
  678MOL0     C91414   0.593   2.722   6.451 -0.1507  0.0416  0.2732
  678MOL0     C91415   0.487   2.827   6.458  0.4160  1.1357  0.1383
  678MOL0     C91416   0.428   2.840   6.310 -0.0393 -0.1453 -0.5818
  678MOL0     C91417   0.338   2.969   6.296  1.0622  0.2253 -0.0722
  678MOL0     C91418   0.263   3.017   6.423  0.3359 -0.1747  1.4506
  678MOL0     O91419   0.160   3.108   6.367  0.6817 -0.0537 -0.4461
  678MOL0     C91420   0.055   3.128   6.455 -0.0927  0.4661  0.1571
  678MOL0     C91421  -0.018   3.026   6.522  0.2752 -0.2402  0.6035
  678MOL0     C91422  -0.098   3.055   6.638 -0.2836  0.1155  0.2980
  678MOL0     C91423  -0.190   2.945   6.706  0.1093  0.1148 -0.4855
  678MOL0     C91424  -0.125   3.193   6.669  0.2257  0.6285  0.4245
  678MOL0     C91425  -0.206   3.241   6.784 -0.0084  0.6656 -0.0652
  678MOL0     O91426  -0.224   3.378   6.796  0.4188 -0.3824 -0.4120
  678MOL0     C91427  -0.255   3.427   6.923  0.4131 -0.5678  0.2207
  678MOL0     C91428  -0.148   3.475   6.999  0.2589 -0.4464 -1.4226
  678MOL0     C91429  -0.167   3.532   7.130  0.0066  0.3330  0.2934
  678MOL0     C91430  -0.298   3.520   7.194 -0.7779  0.0687  0.9739
  678MOL0     O91431  -0.309   3.554   7.323  0.2884 -0.2831  0.1910
  678MOL0     C91432  -0.385   3.681   7.346  0.9663  0.3794  0.5296
  678MOL0     C91433  -0.335   3.739   7.473 -0.2580 -0.0721 -0.0333
  678MOL0     C91434  -0.439   3.832   7.541 -0.4468 -0.1702 -0.7198
  678MOL0     C91435  -0.398   3.874   7.677  0.4888 -0.0140  0.3467
  678MOL0     C91436  -0.262   3.957   7.690 -0.1942  0.0370  0.8603
  678MOL0     C91437  -0.237   3.993   7.830  0.1956  1.0463  0.9108
  678MOL0     C91438  -0.092   4.022   7.856 -0.1562  0.2509 -0.6196
  678MOL0     C91439  -0.060   3.984   8.007 -0.1329  0.2418  0.4212
  678MOL0    Cl91440   0.114   4.004   8.058 -0.4209  0.1163  0.3823
  678MOL0     C91441  -0.407   3.475   7.115  0.1963 -0.0782  0.5074
  678MOL0     C91442  -0.384   3.431   6.979 -0.3553  0.2937 -0.1267
  678MOL0     O91443  -0.250   3.160   6.868  0.5343  0.6189  0.0964
  678MOL0     C91444  -0.058   3.290   6.589  0.4028  0.1895  0.3187
  678MOL0     C91445   0.030   3.260   6.497  0.3366  0.8979  0.6309
  678MOL0     N91446   0.583   2.587   6.397 -1.0405  0.1865 -0.1073
  678MOL0     N91447   0.696   2.531   6.404 -0.5672  0.4885  0.7690
  678MOL0     C91448   1.439   1.867   6.812  0.1004  0.0922  0.6854
  678MOL0     C91449   1.508   1.740   6.811  0.7508 -0.7946  0.0744
  678MOL0     C91450   1.595   1.295   6.678 -0.6727 -0.1267 -0.7211
  678MOL0     C91451   1.558   1.157   6.660  0.7278 -0.0097 -0.1879
  678MOL0     C91452   1.654   1.055   6.642  0.0463 -0.3357 -0.5177
  678MOL0     C91453   1.792   1.083   6.643 -0.2481  0.0970  0.0450
  678MOL0     O91454   1.880   0.977   6.618 -0.2567 -0.4575  0.3819
  678MOL0     C91455   2.008   0.989   6.680 -0.2576  0.0898 -0.1510
  678MOL0     C91456   2.075   0.849   6.691 -0.0976  0.6194  0.7835
  678MOL0     C91457   2.009   0.750   6.787  0.5761 -0.1425  0.0801
  678MOL0     C91458   2.042   0.610   6.755 -0.8314  0.1104 -0.6018
  678MOL0     C91459   1.980   0.522   6.846 -0.4049  0.6855 -1.5726
  678MOL0     C91460   1.935   0.454   6.943 -0.2842 -0.5066  0.9519
  678MOL0     C91461   1.824   1.210   6.685 -0.1286 -0.6626  0.7340
  678MOL0     C91462   1.733   1.316   6.696 -0.7948  0.9867 -0.8697
  678MOL0     H91463   1.287   1.587   6.595  0.1188  3.0924 -2.9176
  678MOL0     H91464   1.173   1.792   6.623  0.0478 -0.1777  0.2306
  678MOL0     H91465   1.297   2.001   6.952 -2.1486 -0.7263  0.7863
  678MOL0     H91466   1.313   2.147   6.861  0.1079 -0.3055 -4.0355
  678MOL0     H91467   1.054   2.031   6.979  1.9724 -0.8709  1.2523
  678MOL0     H91468   1.124   2.190   7.007 -2.4527 -0.4226  1.3400
  678MOL0     H91469   1.091   2.197   6.727  2.4373  1.1102  1.3301
  678MOL0     H91470   0.954   2.089   6.772 -2.2930  4.4229 -0.3592
  678MOL0     H91471   0.893   2.293   6.935 -0.0526 -0.4256  0.5265
  678MOL0     H91472   1.042   2.371   6.867 -1.2400  0.1522 -0.8241
  678MOL0     H91473   0.942   2.327   6.642 -0.2780 -0.3862 -0.8480
  678MOL0     H91474   0.790   2.293   6.718  0.4683 -0.9216 -0.8702
  678MOL0     H91475   0.747   2.496   6.721  0.2513  2.0785 -0.0017
  678MOL0     H91476   0.855   2.524   6.860 -3.3853  1.9396  0.2321
  678MOL0     H91477   0.915   2.692   6.695 -1.4914  0.6605  2.1463
  678MOL0     H91478   1.042   2.574   6.695  0.0911  3.2930  0.4241
  678MOL0     H91479   0.934   2.485   6.467  0.0289  1.8297 -2.4327
  678MOL0     H91480   0.986   2.646   6.452  1.7208 -1.9770  0.0052
  678MOL0     H91481   0.753   2.820   6.544  2.3040 -1.7849  3.1456
  678MOL0     H91482   0.407   2.793   6.523 -3.8147  4.4113 -2.7723
  678MOL0     H91483   0.538   2.922   6.481  0.5073  1.1242 -0.0189
  678MOL0     H91484   0.366   2.752   6.291 -1.3675  1.0980 -2.2809
  678MOL0     H91485   0.512   2.840   6.240  1.4328 -0.6952  1.1125
  678MOL0     H91486   0.265   2.937   6.221  0.7208  0.0741  0.3242
  678MOL0     H91487   0.401   3.054   6.268  1.2541  0.8275  2.0381
  678MOL0     H91488   0.330   3.073   6.489  2.4426 -1.9217  0.8874
  678MOL0     H91489   0.217   2.926   6.464 -0.9562 -1.3842 -2.2444
  678MOL0     H91490  -0.009   2.927   6.480 -0.9254 -1.0004  2.0250
  678MOL0     H91491  -0.298   2.944   6.694 -0.1703 -0.9396  1.6848
  678MOL0     H91492  -0.155   2.855   6.656  0.3053 -0.5179  0.7383
  678MOL0     H91493  -0.162   2.928   6.811  0.8928 -1.2485 -0.8885
  678MOL0     H91494  -0.043   3.465   6.975 -0.8277 -3.7953 -6.2627
  678MOL0     H91495  -0.082   3.567   7.190  2.6099 -3.6032 -0.6925
  678MOL0     H91496  -0.368   3.761   7.273  2.8943 -0.0862  0.4091
  678MOL0     H91497  -0.491   3.662   7.364  1.2517  0.2432  2.1990
  678MOL0     H91498  -0.320   3.648   7.533  1.0556 -0.1643 -0.4741
  678MOL0     H91499  -0.238   3.784   7.452 -0.3880  0.4371  0.4150
  678MOL0     H91500  -0.542   3.794   7.547 -0.8217  0.5219 -2.2088
  678MOL0     H91501  -0.452   3.921   7.478  3.0145 -0.7731 -2.5066
  678MOL0     H91502  -0.483   3.932   7.715 -1.1184 -0.2605 -2.5789
  678MOL0     H91503  -0.390   3.783   7.738  5.0135 -0.7925 -1.0103
  678MOL0     H91504  -0.258   4.050   7.633 -1.6719 -1.8662 -2.7186
  678MOL0     H91505  -0.178   3.898   7.654  0.2857  0.7928  0.7324
  678MOL0     H91506  -0.292   4.084   7.856  0.2224  1.7128 -1.1884
  678MOL0     H91507  -0.268   3.916   7.902  3.2164 -0.1007  1.1325
  678MOL0     H91508  -0.065   4.127   7.839 -1.2450  0.5409 -0.5995
  678MOL0     H91509  -0.023   3.964   7.794 -0.3277  0.2281 -0.7879
  678MOL0     H91510  -0.083   3.877   8.015  0.7609  0.0422  0.4317
  678MOL0     H91511  -0.125   4.045   8.071  1.5120  1.1128  1.3205
  678MOL0     H91512  -0.504   3.448   7.156 -0.1406  1.7308  0.9759
  678MOL0     H91513  -0.472   3.411   6.918 -0.6393  1.9354 -0.3211
  678MOL0     H91514  -0.076   3.395   6.606  0.7652  0.0116  1.9128
  678MOL0     H91515   0.070   3.333   6.427 -0.6822 -0.1112 -1.0873
  678MOL0     H91516   1.494   1.945   6.864  0.9527  2.0111 -2.8336
  678MOL0     H91517   1.609   1.740   6.852 -0.3437 -1.2305  2.9522
  678MOL0     H91518   1.452   1.132   6.661  0.7195  0.0216  0.5684
  678MOL0     H91519   1.619   0.955   6.617  0.1966  0.4255 -4.4658
  678MOL0     H91520   2.077   1.056   6.629 -0.0547 -0.9014 -1.2258
  678MOL0     H91521   1.991   1.029   6.780 -4.7206 -0.3965 -0.5115
  678MOL0     H91522   2.182   0.865   6.702  0.2788  1.8782 -3.2107
  678MOL0     H91523   2.068   0.808   6.590  4.2880  0.2409  0.4603
  678MOL0     H91524   1.905   0.781   6.792  1.0496  1.7605 -0.7964
  678MOL0     H91525   2.052   0.775   6.884  0.8851 -0.7439  0.1020
  678MOL0     H91526   2.150   0.598   6.771 -0.6722  3.0015  1.2082
  678MOL0     H91527   1.999   0.578   6.660 -2.6881  3.6553 -1.0991
  678MOL0     H91528   1.905   0.405   7.033 -0.6572  1.2877  1.8573
  678MOL0     H91529   1.928   1.217   6.716 -0.8146 -1.7970  3.5950
  678MOL0     H91530   1.763   1.413   6.735  1.3102 -1.3071  4.1710
  679MOL0     O91531   0.914   8.243  11.425  0.6607 -0.1811 -0.9085
  679MOL0     C91532   0.835   8.155  11.450  0.3432  0.7400 -0.3815
  679MOL0     O91533   0.717   8.129  11.384  0.3538 -0.1137 -0.2076
  679MOL0     C91534   0.685   8.190  11.268 -1.0378  0.8937  0.5456
  679MOL0     C91535   0.784   8.219  11.163  1.7577  0.4258  0.3151
  679MOL0     C91536   0.742   8.267  11.035 -0.1311  0.3848 -0.0916
  679MOL0     C91537   0.615   8.273  10.996  1.1558  0.0508 -0.7130
  679MOL0     O91538   0.603   8.302  10.861  0.3741  0.2157  1.2387
  679MOL0     C91539   0.468   8.335  10.816 -0.9513  0.5335 -0.0172
  679MOL0     C91540   0.409   8.194  10.769  0.8281  0.1565 -0.1183
  679MOL0     C91541   0.260   8.189  10.738 -0.5452  0.1337 -0.1587
  679MOL0     C91542   0.182   8.217  10.860  1.3157 -0.3538 -0.2000
  679MOL0     C91543   0.034   8.182  10.866 -0.8730  0.9709 -0.4697
  679MOL0     C91544  -0.046   8.264  10.763 -0.0558 -0.6925  0.4015
  679MOL0     C91545  -0.188   8.212  10.754  0.3551  0.7081 -0.7016
  679MOL0     C91546  -0.230   8.209  10.609 -0.3342  0.8776  0.3768
  679MOL0     N91547  -0.355   8.138  10.588 -0.4811  0.7137 -0.2516
  679MOL0     C91548  -0.488   8.177  10.613  0.0723 -0.5679  0.0711
  679MOL0     C91549  -0.564   8.074  10.571  0.6890 -0.0552  0.9872
  679MOL0     C91550  -0.711   8.062  10.576 -0.0354  0.2836 -0.3679
  679MOL0     C91551  -0.743   7.915  10.592  0.1438 -0.2120  0.0759
  679MOL0     C91552  -0.877   7.887  10.662  0.5139  0.3300  0.3261
  679MOL0     C91553  -0.889   7.885  10.821 -0.0014 -0.6817  0.2428
  679MOL0     O91554  -0.833   8.006  10.875 -0.0978 -0.0400 -0.7985
  679MOL0     C91555  -0.875   8.037  11.002  0.3293 -1.3662  0.2975
  679MOL0     C91556  -0.902   8.179  11.031 -0.6139  0.7908  0.2331
  679MOL0     C91557  -0.957   8.220  11.150 -0.2813 -0.2943  0.2965
  679MOL0     C91558  -0.980   8.367  11.176 -0.0403 -0.5824 -0.7866
  679MOL0     C91559  -0.985   8.127  11.248 -0.2376  0.9984 -0.0431
  679MOL0     C91560  -1.061   8.153  11.372  0.6003  0.0697 -0.4670
  679MOL0     O91561  -1.162   8.062  11.395 -0.5051 -0.5355  0.2547
  679MOL0     C91562  -1.237   8.072  11.515 -0.0160 -0.3311  0.0308
  679MOL0     C91563  -1.332   8.180  11.528  0.7402  0.0699  0.0557
  679MOL0     C91564  -1.397   8.201  11.645 -0.4180 -0.0477  0.5143
  679MOL0     C91565  -1.384   8.102  11.748  0.9639 -0.2063 -0.2148
  679MOL0     O91566  -1.450   8.138  11.862  0.0984  0.0929  0.9426
  679MOL0     C91567  -1.376   8.116  11.987 -0.3230  0.1071 -0.3269
  679MOL0     C91568  -1.450   8.195  12.087  0.2406 -0.9831 -0.1851
  679MOL0     C91569  -1.576   8.131  12.132 -0.4560  0.6413 -0.8970
  679MOL0     C91570  -1.642   8.221  12.236 -0.0220  0.7860  1.1305
  679MOL0     C91571  -1.771   8.167  12.287 -0.3039  0.4146 -0.8898
  679MOL0     C91572  -1.861   8.258  12.368 -0.2772  0.7695  0.1259
  679MOL0     C91573  -2.004   8.209  12.375  0.1579 -0.0056 -0.4023
  679MOL0     C91574  -2.089   8.215  12.248 -0.3245 -0.2076 -0.6609
  679MOL0    Cl91575  -2.259   8.184  12.295 -0.0488 -0.0627 -0.7382
  679MOL0     C91576  -1.293   8.001  11.734  0.0158 -0.0180 -0.3618
  679MOL0     C91577  -1.217   7.981  11.618  0.5011  0.0249  0.1405
  679MOL0     O91578  -1.034   8.254  11.440  0.1158 -0.7052  0.6192
  679MOL0     C91579  -0.948   7.992  11.225  0.2779  0.4789 -1.2426
  679MOL0     C91580  -0.899   7.950  11.103 -0.0359  0.7053  0.2103
  679MOL0     N91581  -0.475   7.978  10.520 -0.3587  0.8507  0.3155
  679MOL0     N91582  -0.354   8.013  10.537 -0.2602  0.2777  0.1801
  679MOL0     C91583   0.515   8.240  11.093  0.8567 -0.1168 -0.0979
  679MOL0     C91584   0.547   8.202  11.227 -0.2488 -0.6738  0.1652
  679MOL0     C91585   0.872   8.061  11.555  0.5916 -0.1452 -0.8771
  679MOL0     C91586   0.990   8.079  11.634 -0.4004 -0.2723  0.0605
  679MOL0     C91587   1.032   7.980  11.723  0.5500  0.1680  0.1617
  679MOL0     C91588   0.946   7.873  11.757 -0.8661  0.2424  0.4481
  679MOL0     O91589   0.982   7.764  11.838 -0.1302 -0.0611 -0.2435
  679MOL0     C91590   1.108   7.769  11.914  0.0429  0.9874  0.1356
  679MOL0     C91591   1.104   7.647  12.007  0.0723  0.0767  0.2661
  679MOL0     C91592   1.115   7.690  12.156  1.1217  0.3706 -0.1495
  679MOL0     C91593   1.254   7.728  12.205 -1.1510  0.4575  0.2986
  679MOL0     C91594   1.343   7.617  12.175  0.5398  0.0285  0.9631
  679MOL0     C91595   1.412   7.517  12.152  0.0849  0.1953 -0.5411
  679MOL0     C91596   0.828   7.861  11.688  0.1087 -0.9233 -0.6016
  679MOL0     C91597   0.780   7.945  11.580 -1.0408  0.8278  0.8078
  679MOL0     H91598   0.889   8.227  11.191  2.5537  1.1787 -2.5707
  679MOL0     H91599   0.807   8.305  10.958  0.6321  1.5137  1.0769
  679MOL0     H91600   0.419   8.385  10.900  1.1550  0.9042  1.0593
  679MOL0     H91601   0.481   8.400  10.729  0.1811  0.2871 -0.0501
  679MOL0     H91602   0.456   8.175  10.673  0.0778  2.3607 -1.0037
  679MOL0     H91603   0.424   8.108  10.834  1.1315 -0.5298 -1.0817
  679MOL0     H91604   0.234   8.259  10.658  1.9162  1.8208  0.3924
  679MOL0     H91605   0.227   8.088  10.713  2.7940 -0.9879 -0.5703
  679MOL0     H91606   0.231   8.168  10.945 -0.9580 -1.2085  0.6756
  679MOL0     H91607   0.196   8.324  10.879  1.5399 -0.4413  0.1420
  679MOL0     H91608   0.021   8.074  10.861  2.3760  0.4188  0.8021
  679MOL0     H91609  -0.006   8.200  10.967  0.3397 -2.4434  0.7414
  679MOL0     H91610  -0.053   8.369  10.792  0.4331 -0.0434 -1.6889
  679MOL0     H91611  -0.007   8.256  10.661 -2.1023 -1.9292 -0.3519
  679MOL0     H91612  -0.198   8.109  10.791  2.3347  0.0447 -1.8669
  679MOL0     H91613  -0.252   8.280  10.811  2.9468  5.6706 -3.1045
  679MOL0     H91614  -0.151   8.176  10.541 -0.3793  1.6930 -0.0906
  679MOL0     H91615  -0.239   8.310  10.567  1.1497  0.0219 -2.2830
  679MOL0     H91616  -0.515   8.267  10.669  1.9324  0.9860 -1.3637
  679MOL0     H91617  -0.745   8.115  10.665  1.4356  2.1517 -0.8636
  679MOL0     H91618  -0.750   8.102  10.481  1.9442  1.1207 -0.8620
  679MOL0     H91619  -0.664   7.876  10.657 -1.7032 -2.8331  0.8925
  679MOL0     H91620  -0.743   7.870  10.492 -1.3713 -0.5730  0.2222
  679MOL0     H91621  -0.922   7.795  10.624 -1.9361  1.1978  0.9321
  679MOL0     H91622  -0.948   7.962  10.627 -0.7914  0.3582  2.8090
  679MOL0     H91623  -0.834   7.802  10.867  0.4175 -0.7424 -0.3584
  679MOL0     H91624  -0.996   7.870  10.840 -0.5198  0.6825 -1.4599
  679MOL0     H91625  -0.876   8.260  10.963  1.6073  2.4154  2.8020
  679MOL0     H91626  -0.891   8.406  11.226  1.0126 -0.4563 -2.6601
  679MOL0     H91627  -0.992   8.414  11.078  0.6404  2.6085  0.5388
  679MOL0     H91628  -1.073   8.387  11.229 -0.8324 -2.7525 -1.2525
  679MOL0     H91629  -1.337   8.246  11.442  0.1749  1.5597  1.1872
  679MOL0     H91630  -1.459   8.289  11.653  1.7185  1.6808 -0.8298
  679MOL0     H91631  -1.383   8.012  12.022 -5.4798 -0.3472 -1.9335
  679MOL0     H91632  -1.270   8.143  11.980 -0.2869  0.0664  0.0621
  679MOL0     H91633  -1.380   8.209  12.170  0.3933 -2.7921  0.0283
  679MOL0     H91634  -1.470   8.292  12.040 -0.2423 -1.8974 -1.9612
  679MOL0     H91635  -1.558   8.033  12.177  0.0179 -0.1729 -2.7456
  679MOL0     H91636  -1.642   8.104  12.049  0.7917  1.4763 -2.2009
  679MOL0     H91637  -1.574   8.234  12.321  5.0567 -1.9094 -1.9608
  679MOL0     H91638  -1.669   8.317  12.191 -2.9518 -1.6265 -2.9978
  679MOL0     H91639  -1.766   8.077  12.350 -0.6075  1.2127  0.3124
  679MOL0     H91640  -1.833   8.139  12.202  1.6941 -2.7555 -1.4778
  679MOL0     H91641  -1.818   8.267  12.468  2.2351  0.1932 -0.8492
  679MOL0     H91642  -1.860   8.357  12.321 -1.7528 -0.4066 -2.6684
  679MOL0     H91643  -2.058   8.281  12.438  0.9602 -1.3761  2.0007
  679MOL0     H91644  -2.004   8.108  12.418  0.1288 -0.9310 -2.4898
  679MOL0     H91645  -2.044   8.140  12.183  0.7242  0.5593 -0.8620
  679MOL0     H91646  -2.069   8.316  12.209  2.6739  0.0567  1.1569
  679MOL0     H91647  -1.283   7.926  11.813 -0.3205 -0.0794 -0.3760
  679MOL0     H91648  -1.163   7.892  11.588 -1.5652 -0.8245 -1.3660
  679MOL0     H91649  -0.950   7.919  11.305  0.2454  0.2272 -1.4715
  679MOL0     H91650  -0.885   7.845  11.079 -4.5751  0.3138 -1.8716
  679MOL0     H91651   0.408   8.250  11.074  0.4123 -0.1141  2.1178
  679MOL0     H91652   0.460   8.172  11.284 -0.3377 -0.9862 -0.1373
  679MOL0     H91653   1.060   8.160  11.620 -1.4320  0.4881 -0.8603
  679MOL0     H91654   1.114   8.014  11.786  1.6370  0.4548 -1.3669
  679MOL0     H91655   1.201   7.756  11.858  1.0519  0.1053  1.9294
  679MOL0     H91656   1.124   7.864  11.966  0.0849  1.0993 -0.0814
  679MOL0     H91657   1.171   7.569  11.970 -0.3490 -0.9075  1.4907
  679MOL0     H91658   1.009   7.595  11.994  0.5370 -1.3909  2.2002
  679MOL0     H91659   1.072   7.615  12.224  2.7752  1.9762  2.9004
  679MOL0     H91660   1.049   7.775  12.175 -0.2114 -1.1465  2.7837
  679MOL0     H91661   1.260   7.749  12.312  0.0075  2.2734 -0.0750
  679MOL0     H91662   1.287   7.818  12.152  1.1240 -1.3453 -1.5747
  679MOL0     H91663   1.480   7.441  12.117  4.0716  3.4470 -0.6124
  679MOL0     H91664   0.776   7.774  11.726  1.1242 -0.6117  1.6509
  679MOL0     H91665   0.692   7.928  11.519 -1.4809 -0.4501  1.7615
  680MOL0     O91666   9.151   0.710   9.343 -0.5637 -0.0690  0.4549
  680MOL0     C91667   9.147   0.814   9.396  0.6581 -0.4581  0.0375
  680MOL0     O91668   9.024   0.874   9.433  0.6847  0.7632  0.5879
  680MOL0     C91669   8.910   0.808   9.393 -0.1824 -0.6404 -0.6795
  680MOL0     C91670   8.866   0.809   9.264 -0.2415 -0.7267  0.2841
  680MOL0     C91671   8.764   0.718   9.232 -0.0204 -0.9022  0.2784
  680MOL0     C91672   8.694   0.642   9.330 -0.1023 -0.0267 -0.8493
  680MOL0     O91673   8.598   0.549   9.300  0.6473 -0.6728 -0.8175
  680MOL0     C91674   8.631   0.429   9.226  0.5727  0.6872  0.0676
  680MOL0     C91675   8.510   0.336   9.228  0.1742  0.6984 -0.0887
  680MOL0     C91676   8.491   0.260   9.366  0.4708 -0.1972 -0.7421
  680MOL0     C91677   8.369   0.167   9.371 -0.3965  0.4104 -0.7935
  680MOL0     C91678   8.362   0.082   9.496  0.5600  0.3047 -1.0760
  680MOL0     C91679   8.487  -0.015   9.527 -0.1089 -0.2396 -0.0902
  680MOL0     C91680   8.439  -0.121   9.625 -0.3191 -0.3574  0.6501
  680MOL0     C91681   8.533  -0.240   9.614  0.4271  1.1838 -0.0276
  680MOL0     N91682   8.520  -0.320   9.480 -0.4810 -0.1589 -0.0381
  680MOL0     C91683   8.629  -0.332   9.387  0.5427  0.5182 -0.7406
  680MOL0     C91684   8.572  -0.405   9.289  0.6705 -0.2901  0.2207
  680MOL0     C91685   8.647  -0.438   9.169 -0.1869 -0.1102  0.3420
  680MOL0     C91686   8.667  -0.585   9.168 -0.3057  1.1335 -0.3231
  680MOL0     C91687   8.755  -0.654   9.283 -0.9996  0.2272 -0.7369
  680MOL0     C91688   8.900  -0.672   9.250 -0.8418 -0.6075  0.0737
  680MOL0     O91689   8.965  -0.547   9.290  0.0946 -0.4931 -0.1462
  680MOL0     C91690   9.097  -0.565   9.304  0.2317 -0.3255  0.4386
  680MOL0     C91691   9.180  -0.639   9.214  0.4850  0.4832  0.4528
  680MOL0     C91692   9.319  -0.649   9.235  0.2675 -0.5268  1.1185
  680MOL0     C91693   9.401  -0.699   9.117  0.5414  0.8750 -0.0416
  680MOL0     C91694   9.364  -0.609   9.359  0.8937  0.2503  0.0055
  680MOL0     C91695   9.502  -0.620   9.404 -0.6223  0.9562  0.2052
  680MOL0     O91696   9.579  -0.711   9.325  0.3771 -0.6080  0.8753
  680MOL0     C91697   9.694  -0.766   9.373 -0.3086  0.2738  0.1559
  680MOL0     C91698   9.814  -0.711   9.346 -0.0622  0.7794 -0.5383
  680MOL0     C91699   9.933  -0.755   9.398  0.5506 -0.2289  0.0083
  680MOL0     C91700   9.932  -0.872   9.473  0.7220  0.0564  0.0912
  680MOL0     O91701  10.042  -0.932   9.538  0.6072  0.6102 -0.4664
  680MOL0     C91702  10.167  -0.871   9.529 -1.1516 -0.4490 -0.2349
  680MOL0     C91703  10.275  -0.973   9.585 -0.4648 -0.0036 -0.3026
  680MOL0     C91704  10.389  -0.913   9.667  0.4040  0.1766 -0.3415
  680MOL0     C91705  10.482  -0.845   9.563 -0.4851  0.2692 -0.1265
  680MOL0     C91706  10.596  -0.785   9.647 -0.3028 -0.9203  0.9053
  680MOL0     C91707  10.726  -0.788   9.567  1.0349 -0.1383 -0.3231
  680MOL0     C91708  10.843  -0.717   9.642  0.4980 -0.1654 -0.1991
  680MOL0     C91709  10.866  -0.775   9.790  0.5096  0.5737 -0.3801
  680MOL0    Cl91710  10.909  -0.946   9.760 -0.4129  0.0344 -0.2072
  680MOL0     C91711   9.804  -0.931   9.504  0.4606 -0.0147  0.3047
  680MOL0     C91712   9.687  -0.878   9.457  0.5873 -0.1423  0.5804
  680MOL0     O91713   9.546  -0.571   9.510 -0.0096  0.7575  0.4342
  680MOL0     C91714   9.282  -0.545   9.451 -0.3224 -0.1105  0.6159
  680MOL0     C91715   9.148  -0.525   9.424  0.0013 -0.7371 -0.1159
  680MOL0     N91716   8.440  -0.442   9.319  0.9163  0.4662 -0.7675
  680MOL0     N91717   8.408  -0.389   9.440 -0.8900  0.2446  0.1480
  680MOL0     C91718   8.742   0.646   9.458 -0.1579 -0.9271  0.2893
  680MOL0     C91719   8.852   0.723   9.485  0.6846  0.9018 -0.5277
  680MOL0     C91720   9.267   0.890   9.421 -0.2716 -0.3602 -0.4804
  680MOL0     C91721   9.275   1.012   9.494 -0.0521  0.4771  0.3398
  680MOL0     C91722   9.398   1.074   9.527 -0.1951  0.5993  0.6232
  680MOL0     C91723   9.527   1.026   9.470  0.1866  0.4272 -0.2868
  680MOL0     O91724   9.649   1.079   9.495 -0.3521 -0.9579  0.2542
  680MOL0     C91725   9.658   1.173   9.603  0.7481 -0.4891 -0.6927
  680MOL0     C91726   9.629   1.314   9.553  0.4392  0.4659 -0.3063
  680MOL0     C91727   9.743   1.390   9.499 -0.9934  0.6783  0.0640
  680MOL0     C91728   9.710   1.529   9.446  0.1831 -1.0273  0.3482
  680MOL0     C91729   9.824   1.576   9.364 -0.9275  0.2609 -0.4347
  680MOL0     C91730   9.919   1.613   9.297 -0.0013  0.8358 -0.8070
  680MOL0     C91731   9.511   0.898   9.408  0.5906 -0.2114  1.0532
  680MOL0     C91732   9.392   0.837   9.383  0.3113  0.7543  0.2699
  680MOL0     H91733   8.922   0.866   9.191  0.5277 -1.1595  0.5185
  680MOL0     H91734   8.735   0.686   9.133  1.4831 -2.0127  0.1740
  680MOL0     H91735   8.665   0.441   9.123  3.5990 -1.6976  0.6195
  680MOL0     H91736   8.719   0.379   9.268  1.9960  0.5394 -2.8622
  680MOL0     H91737   8.419   0.389   9.198  0.0359  1.7480  2.0129
  680MOL0     H91738   8.521   0.261   9.149 -0.9492  0.9005 -0.4636
  680MOL0     H91739   8.578   0.195   9.381  2.1274  1.7116 -1.5999
  680MOL0     H91740   8.492   0.327   9.453  2.2796 -2.1997  0.9331
  680MOL0     H91741   8.277   0.225   9.364 -0.7295  0.0020  0.0774
  680MOL0     H91742   8.362   0.093   9.290 -2.6893  0.5907 -0.8235
  680MOL0     H91743   8.355   0.152   9.580  3.9683 -1.9229  1.3415
  680MOL0     H91744   8.276   0.013   9.497  0.3795  0.5222 -0.4100
  680MOL0     H91745   8.519  -0.073   9.440  2.0286  0.3148  0.2568
  680MOL0     H91746   8.574   0.042   9.563  0.2847 -2.3052  2.6352
  680MOL0     H91747   8.458  -0.074   9.723  1.3578 -3.0995  1.7460
  680MOL0     H91748   8.334  -0.148   9.607  0.0525 -1.5085  0.1859
  680MOL0     H91749   8.489  -0.300   9.695 -1.5597  1.9970 -0.4611
  680MOL0     H91750   8.638  -0.212   9.631  1.8668 -2.7971 -1.2599
  680MOL0     H91751   8.728  -0.288   9.389  0.6205  0.3834 -1.4518
  680MOL0     H91752   8.593  -0.415   9.076  1.0274 -2.9131 -1.1579
  680MOL0     H91753   8.747  -0.393   9.164  0.3093 -1.1346  0.9053
  680MOL0     H91754   8.728  -0.604   9.079  2.8309  3.3747  1.1599
  680MOL0     H91755   8.569  -0.633   9.157 -0.1937  0.8615 -0.1529
  680MOL0     H91756   8.718  -0.757   9.278  1.1354 -0.6145 -0.3572
  680MOL0     H91757   8.739  -0.614   9.384 -1.1153  2.4161 -1.5723
  680MOL0     H91758   8.912  -0.693   9.143  2.4842 -0.2315  0.2713
  680MOL0     H91759   8.943  -0.756   9.306 -0.2584 -0.3077  0.0784
  680MOL0     H91760   9.140  -0.668   9.117  2.2718  0.3059 -0.2889
  680MOL0     H91761   9.329  -0.720   9.038 -4.4098 -3.6127  4.7850
  680MOL0     H91762   9.473  -0.619   9.098  0.5882  1.3267  1.7868
  680MOL0     H91763   9.446  -0.799   9.120  1.6380  1.0061 -4.9036
  680MOL0     H91764   9.808  -0.625   9.281 -2.3944  1.4709  0.4903
  680MOL0     H91765  10.021  -0.693   9.383  0.6735 -0.7405 -1.5467
  680MOL0     H91766  10.196  -0.845   9.427  0.6079  0.7157  0.5046
  680MOL0     H91767  10.164  -0.769   9.570 -3.2793 -0.5100 -0.1284
  680MOL0     H91768  10.225  -1.057   9.635 -2.3749  0.5447 -1.1956
  680MOL0     H91769  10.324  -1.024   9.502 -0.9150  1.2603 -1.3752
  680MOL0     H91770  10.443  -0.986   9.727 -0.4446  0.0682  0.3127
  680MOL0     H91771  10.345  -0.845   9.741  2.4355 -0.2309  1.3331
  680MOL0     H91772  10.519  -0.930   9.504 -2.1227 -2.2959  2.3032
  680MOL0     H91773  10.422  -0.767   9.514 -1.5165  2.3522  3.9978
  680MOL0     H91774  10.603  -0.840   9.741  4.3451 -1.1254  0.6532
  680MOL0     H91775  10.563  -0.684   9.673  0.3834 -0.4401 -0.0411
  680MOL0     H91776  10.742  -0.892   9.538  0.8344 -0.5518  0.9659
  680MOL0     H91777  10.718  -0.749   9.465  1.5842 -3.3613 -1.7314
  680MOL0     H91778  10.833  -0.608   9.646 -0.2343 -0.2148  4.0282
  680MOL0     H91779  10.937  -0.732   9.587  0.7775 -0.7412  0.4106
  680MOL0     H91780  10.777  -0.759   9.851 -0.3209  2.3188 -1.9736
  680MOL0     H91781  10.948  -0.718   9.834 -0.0595 -0.2029  1.8310
  680MOL0     H91782   9.787  -1.020   9.563 -0.7428  1.9322  3.0688
  680MOL0     H91783   9.590  -0.918   9.486  0.7580 -0.8617  0.1942
  680MOL0     H91784   9.316  -0.504   9.545  3.6091  0.0205 -0.6718
  680MOL0     H91785   9.093  -0.475   9.503  0.8440 -3.0925  2.1162
  680MOL0     H91786   8.705   0.586   9.540  1.0931 -0.0404  1.5603
  680MOL0     H91787   8.885   0.720   9.589 -2.2380  3.6218  0.6282
  680MOL0     H91788   9.190   1.060   9.542 -0.0506  0.7926  0.0275
  680MOL0     H91789   9.402   1.168   9.582  1.7646  1.8701 -1.5186
  680MOL0     H91790   9.596   1.147   9.689  2.5061 -1.5415  0.3298
  680MOL0     H91791   9.756   1.165   9.651  0.5574 -0.8063 -0.3549
  680MOL0     H91792   9.598   1.369   9.642  0.3094 -0.5653  0.3092
  680MOL0     H91793   9.549   1.303   9.478  1.2141  1.3713 -1.2963
  680MOL0     H91794   9.789   1.337   9.415  1.6744 -2.9290  3.4205
  680MOL0     H91795   9.827   1.395   9.569  0.1864  0.0087 -1.2764
  680MOL0     H91796   9.696   1.595   9.532 -0.9042 -0.8103  0.0216
  680MOL0     H91797   9.626   1.539   9.376  1.1084  3.9672 -0.3559
  680MOL0     H91798   9.997   1.628   9.224  1.1056  1.2188  0.4191
  680MOL0     H91799   9.602   0.853   9.369  0.7752  0.4119  0.7330
  680MOL0     H91800   9.396   0.746   9.322 -1.8719  2.4589 -2.7407
  681MOL0     O91801   0.899   2.802   0.293 -0.1371  0.4541 -0.4519
  681MOL0     C91802   0.885   2.911   0.344 -0.8910 -0.2996 -0.1399
  681MOL0     O91803   0.766   2.964   0.384  0.3749 -0.1981  0.3296
  681MOL0     C91804   0.655   2.910   0.329  0.8458  0.5242  0.6557
  681MOL0     C91805   0.536   2.882   0.412 -0.4543  0.6855  0.1957
  681MOL0     C91806   0.427   2.823   0.356 -0.1166  0.0743  0.2411
  681MOL0     C91807   0.418   2.810   0.219 -0.0729 -0.3544  0.2877
  681MOL0     O91808   0.305   2.773   0.152  0.7686  1.3043 -0.5347
  681MOL0     C91809   0.292   2.629   0.154  0.8048 -0.1775  0.3027
  681MOL0     C91810   0.158   2.598   0.087 -0.5680  0.0124  0.3127
  681MOL0     C91811   0.164   2.452   0.032 -0.1204 -0.4255  0.1988
  681MOL0     C91812   0.030   2.400  -0.015 -0.5206 -0.5319 -0.2336
  681MOL0     C91813   0.042   2.259  -0.078 -0.0430  0.0931  0.0934
  681MOL0     C91814  -0.094   2.207  -0.092  0.1410  0.4173  0.2859
  681MOL0     C91815  -0.069   2.063  -0.139  0.0303 -0.1345  1.0452
  681MOL0     C91816  -0.193   1.984  -0.157  0.7943  0.0396  0.5412
  681MOL0     N91817  -0.212   1.872  -0.065 -0.2259 -0.1190 -0.1253
  681MOL0     C91818  -0.289   1.873   0.045  0.2695  0.0493  0.1449
  681MOL0     C91819  -0.253   1.755   0.104  0.0231  0.1156 -0.8417
  681MOL0     C91820  -0.301   1.698   0.240  0.2109  0.3257 -1.0599
  681MOL0     C91821  -0.444   1.630   0.226 -0.4684  0.1055 -0.4753
  681MOL0     C91822  -0.458   1.538   0.353 -0.2932 -0.9813 -0.3625
  681MOL0     C91823  -0.601   1.506   0.373 -0.1439  0.1646  0.0384
  681MOL0     O91824  -0.612   1.441   0.501  0.4433  0.6323 -0.0098
  681MOL0     C91825  -0.736   1.391   0.544 -0.7991 -0.1950  0.0258
  681MOL0     C91826  -0.724   1.351   0.679  0.2371 -0.2509 -0.3036
  681MOL0     C91827  -0.833   1.288   0.741 -0.1748  0.3546 -0.9201
  681MOL0     C91828  -0.808   1.224   0.876  0.1322 -0.3475  0.6085
  681MOL0     C91829  -0.960   1.280   0.669  1.0778  0.3073  0.5541
  681MOL0     C91830  -1.084   1.195   0.706  0.4471  0.4929 -0.4525
  681MOL0     O91831  -1.202   1.213   0.640  0.3880  0.2381  0.9127
  681MOL0     C91832  -1.318   1.148   0.687 -0.1142 -0.5492  0.0141
  681MOL0     C91833  -1.341   1.034   0.605 -0.0655  0.0810  1.1843
  681MOL0     C91834  -1.455   0.960   0.627  0.0556 -0.1664  0.4125
  681MOL0     C91835  -1.536   0.979   0.737 -0.4936 -1.0487 -0.9451
  681MOL0     O91836  -1.626   0.879   0.765 -0.2630  0.1304 -0.9206
  681MOL0     C91837  -1.666   0.872   0.907  0.9198 -1.0247  0.3700
  681MOL0     C91838  -1.733   0.736   0.929 -0.3623 -0.2390 -0.4511
  681MOL0     C91839  -1.863   0.721   0.843 -0.3317 -0.1143  0.7866
  681MOL0     C91840  -1.943   0.587   0.867  0.2899 -0.5887  0.1366
  681MOL0     C91841  -2.080   0.586   0.798  0.6406 -0.7038  0.3352
  681MOL0     C91842  -2.077   0.521   0.655 -0.3962 -0.5958 -0.2032
  681MOL0     C91843  -2.217   0.514   0.579  0.6568  0.0664  0.1771
  681MOL0     C91844  -2.299   0.409   0.660  0.3855 -0.0437  0.6861
  681MOL0    Cl91845  -2.416   0.470   0.771 -0.1211  0.2835 -0.8028
  681MOL0     C91846  -1.506   1.099   0.825  0.2126  0.0247 -0.6027
  681MOL0     C91847  -1.397   1.178   0.795 -0.5301  0.0035 -0.0984
  681MOL0     O91848  -1.067   1.113   0.799 -0.3732 -0.4487  0.2781
  681MOL0     C91849  -0.973   1.340   0.541  0.5208 -0.2765 -0.1929
  681MOL0     C91850  -0.861   1.398   0.485  0.4629  0.5252  0.9010
  681MOL0     N91851  -0.163   1.682   0.033  0.0233 -0.0255 -0.0438
  681MOL0     N91852  -0.130   1.763  -0.062 -1.0170 -0.0139  0.4453
  681MOL0     C91853   0.521   2.841   0.132  0.6623 -0.3282  0.1217
  681MOL0     C91854   0.641   2.891   0.182 -0.5941 -0.3718  0.1254
  681MOL0     C91855   1.016   2.992   0.364  0.4153  0.4823 -0.7573
  681MOL0     C91856   1.128   2.977   0.284 -0.6283 -0.3650  0.0789
  681MOL0     C91857   1.240   3.056   0.313  0.0846 -0.4602 -0.0040
  681MOL0     C91858   1.242   3.155   0.412  0.1937 -0.0636 -0.8004
  681MOL0     O91859   1.345   3.247   0.418 -0.4393 -0.4455  0.5176
  681MOL0     C91860   1.418   3.286   0.294  0.6954 -0.0672 -0.3435
  681MOL0     C91861   1.526   3.391   0.315  1.4296  0.4343 -0.1372
  681MOL0     C91862   1.467   3.525   0.374 -0.3899 -0.1706 -0.3754
  681MOL0     C91863   1.366   3.600   0.294  0.3617 -0.7027 -0.2011
  681MOL0     C91864   1.229   3.555   0.297 -0.4536  0.5576  0.1479
  681MOL0     C91865   1.113   3.518   0.296  0.0824  0.5368 -0.2473
  681MOL0     C91866   1.126   3.167   0.491 -0.1047  0.9051  0.3765
  681MOL0     C91867   1.014   3.083   0.467 -0.3836 -0.0917  0.2388
  681MOL0     H91868   0.560   2.881   0.518  1.2560 -1.8451 -0.1191
  681MOL0     H91869   0.341   2.799   0.419 -0.2597  0.8603  0.3588
  681MOL0     H91870   0.364   2.586   0.084  1.6145 -2.7484  2.5306
  681MOL0     H91871   0.293   2.584   0.254 -0.8398  1.1800  0.9719
  681MOL0     H91872   0.084   2.602   0.168  0.2341 -0.0180  1.0755
  681MOL0     H91873   0.130   2.668   0.008  0.9662  0.4697  0.1467
  681MOL0     H91874   0.238   2.451  -0.048  0.1389 -0.5183  0.4387
  681MOL0     H91875   0.212   2.391   0.110 -1.8725 -1.6457  0.3888
  681MOL0     H91876  -0.026   2.390   0.078 -0.6327 -1.6239 -0.4029
  681MOL0     H91877  -0.021   2.464  -0.088 -1.5355 -2.0857 -0.9372
  681MOL0     H91878   0.080   2.269  -0.180 -1.8531  2.9020 -0.4239
  681MOL0     H91879   0.114   2.195  -0.026 -0.5176  1.0232  2.0015
  681MOL0     H91880  -0.140   2.218   0.007  2.2243  1.7211  1.1736
  681MOL0     H91881  -0.157   2.270  -0.155 -2.2983  0.4410  2.5294
  681MOL0     H91882  -0.018   2.073  -0.235 -3.7298  2.7135 -0.8994
  681MOL0     H91883  -0.009   2.011  -0.063 -1.0156 -1.1414  1.2110
  681MOL0     H91884  -0.216   1.948  -0.258 -0.4258  1.6730  0.2067
  681MOL0     H91885  -0.273   2.054  -0.130  1.0779 -1.0763  5.0811
  681MOL0     H91886  -0.362   1.946   0.078 -0.4826 -0.9392  0.7096
  681MOL0     H91887  -0.223   1.623   0.252 -1.0382 -0.6056  2.0471
  681MOL0     H91888  -0.309   1.772   0.320 -0.1238 -1.1788  0.3359
  681MOL0     H91889  -0.436   1.581   0.129  2.3221 -2.7062  0.9947
  681MOL0     H91890  -0.521   1.707   0.219  1.0578  2.1132  2.6230
  681MOL0     H91891  -0.437   1.592   0.446 -1.9788  0.7545 -0.9299
  681MOL0     H91892  -0.398   1.447   0.352  0.8436 -0.2985  1.5996
  681MOL0     H91893  -0.636   1.450   0.286 -0.9917 -0.7724  0.9549
  681MOL0     H91894  -0.654   1.602   0.372 -0.2358  0.1122 -0.2336
  681MOL0     H91895  -0.627   1.363   0.726  0.5230  1.2524 -1.2205
  681MOL0     H91896  -0.880   1.282   0.934  1.1677 -1.3719  3.0330
  681MOL0     H91897  -0.826   1.116   0.884 -0.6889 -0.1808  1.1564
  681MOL0     H91898  -0.716   1.238   0.933  0.2046  0.8517  0.2140
  681MOL0     H91899  -1.284   1.013   0.515 -0.3333  1.7287  0.5948
  681MOL0     H91900  -1.466   0.863   0.581  1.9360 -0.7613  1.1300
  681MOL0     H91901  -1.581   0.886   0.974  0.9431 -1.4274  0.4299
  681MOL0     H91902  -1.740   0.951   0.923  1.2002 -0.4662 -0.9127
  681MOL0     H91903  -1.663   0.655   0.906 -0.8397  0.3129 -4.4435
  681MOL0     H91904  -1.766   0.740   1.034  1.0345  0.2629 -0.0116
  681MOL0     H91905  -1.838   0.741   0.739 -1.7784  1.7483  0.7404
  681MOL0     H91906  -1.931   0.803   0.867  1.1827  1.3511  0.2148
  681MOL0     H91907  -1.887   0.499   0.836  1.5451 -0.2979  1.4833
  681MOL0     H91908  -1.975   0.578   0.971 -0.2616 -0.5979 -0.0268
  681MOL0     H91909  -2.121   0.687   0.801  0.2714 -0.8655  1.0051
  681MOL0     H91910  -2.147   0.513   0.845 -1.4109  0.9867  0.1803
  681MOL0     H91911  -2.014   0.587   0.594 -0.2118 -2.7214 -2.4918
  681MOL0     H91912  -2.029   0.423   0.653 -1.8192 -1.6109  4.0859
  681MOL0     H91913  -2.195   0.485   0.475  0.0631  0.6110 -0.1064
  681MOL0     H91914  -2.263   0.612   0.566  0.4679  0.2173  1.7754
  681MOL0     H91915  -2.235   0.330   0.699 -0.2718 -0.0006  1.9051
  681MOL0     H91916  -2.365   0.348   0.597  0.6843 -1.3412  1.5959
  681MOL0     H91917  -1.573   1.107   0.910  0.5762  1.6508 -0.4377
  681MOL0     H91918  -1.377   1.267   0.853  1.0572  2.3695 -3.9108
  681MOL0     H91919  -1.063   1.326   0.482  2.6423 -2.1571 -3.2595
  681MOL0     H91920  -0.873   1.433   0.383 -2.5752 -2.4049  0.0255
  681MOL0     H91921   0.504   2.834   0.025 -0.2910  0.1650  0.2263
  681MOL0     H91922   0.727   2.926   0.126 -1.2111  1.6432  0.3541
  681MOL0     H91923   1.113   2.909   0.201  0.9428  0.1232 -0.6313
  681MOL0     H91924   1.326   3.060   0.247  0.9031 -0.4232  1.0284
  681MOL0     H91925   1.470   3.208   0.238 -0.7231 -2.8655  2.0007
  681MOL0     H91926   1.348   3.324   0.219  2.4089 -0.3620 -2.1862
  681MOL0     H91927   1.571   3.414   0.218  0.9972 -3.5634 -1.4613
  681MOL0     H91928   1.608   3.355   0.378  2.1677 -0.9001 -1.7780
  681MOL0     H91929   1.551   3.589   0.402 -0.2249 -0.2274 -0.7320
  681MOL0     H91930   1.413   3.501   0.466 -0.1995 -1.0126 -0.4749
  681MOL0     H91931   1.394   3.589   0.189 -2.0418 -0.1665 -0.9638
  681MOL0     H91932   1.379   3.707   0.316 -0.3972 -0.8779  1.2222
  681MOL0     H91933   1.011   3.485   0.290 -0.4842  2.1852 -0.3080
  681MOL0     H91934   1.122   3.235   0.575  1.3218 -0.0506  1.2478
  681MOL0     H91935   0.923   3.093   0.526  0.3880  1.6997  1.1740
  682MOL0     O91936   1.480  10.262   5.260  0.9475 -0.3542 -0.2388
  682MOL0     C91937   1.595  10.250   5.283 -0.1318  0.4108 -0.2085
  682MOL0     O91938   1.647  10.245   5.406 -0.6470 -0.0555 -0.3893
  682MOL0     C91939   1.566  10.291   5.507 -0.5896 -0.8973  0.1586
  682MOL0     C91940   1.548  10.204   5.613  0.5279 -0.3704 -1.3152
  682MOL0     C91941   1.469  10.252   5.723 -0.4646  0.2985 -0.0289
  682MOL0     C91942   1.419  10.384   5.730 -0.7447 -0.0273 -0.6702
  682MOL0     O91943   1.335  10.426   5.829  0.9278  0.5501  0.2605
  682MOL0     C91944   1.391  10.429   5.963  0.4489 -0.5675  0.0664
  682MOL0     C91945   1.288  10.479   6.062  0.2924  0.8172  0.1919
  682MOL0     C91946   1.347  10.578   6.162  0.0870 -0.1344  0.3397
  682MOL0     C91947   1.241  10.623   6.254  0.9381 -0.3820 -0.5955
  682MOL0     C91948   1.274  10.738   6.356 -0.3687 -0.8085 -0.8321
  682MOL0     C91949   1.425  10.749   6.384 -0.2597  0.1092 -0.1414
  682MOL0     C91950   1.460  10.865   6.475  0.0355 -0.1826  0.8197
  682MOL0     C91951   1.610  10.872   6.502 -0.1443 -1.0027  0.4318
  682MOL0     N91952   1.668  10.740   6.519 -0.5007  0.6673  1.0955
  682MOL0     C91953   1.661  10.667   6.633  0.9213  0.2170  1.2720
  682MOL0     C91954   1.681  10.543   6.592  0.2126 -0.2999 -0.0591
  682MOL0     C91955   1.710  10.424   6.681  1.4468 -0.0333  0.4786
  682MOL0     C91956   1.581  10.331   6.704  0.3889  0.2040  0.8482
  682MOL0     C91957   1.550  10.251   6.580  0.1903 -0.7348 -0.3724
  682MOL0     C91958   1.474  10.329   6.470  0.7669 -1.2105 -0.4717
  682MOL0     O91959   1.431  10.247   6.363 -0.1320 -0.3622 -0.2334
  682MOL0     C91960   1.511  10.223   6.254  0.0563  0.0217  0.6553
  682MOL0     C91961   1.479  10.126   6.165 -1.1503 -0.3638 -0.5783
  682MOL0     C91962   1.550  10.085   6.060  0.8731  0.4982 -0.6627
  682MOL0     C91963   1.488   9.973   5.978 -0.6811  0.5994  0.7032
  682MOL0     C91964   1.671  10.153   6.032 -0.9924  0.2631  0.5837
  682MOL0     C91965   1.765  10.114   5.917  0.0413 -0.4515  0.3685
  682MOL0     O91966   1.867  10.206   5.912  0.1496  0.3028 -0.5729
  682MOL0     C91967   1.937  10.205   5.797 -0.8805 -0.2171 -0.5238
  682MOL0     C91968   1.958  10.327   5.728  0.7743  0.1242  1.5858
  682MOL0     C91969   2.034  10.325   5.602 -0.0928  0.0442  0.5020
  682MOL0     C91970   2.106  10.216   5.557 -0.2619  0.5414 -0.6524
  682MOL0     O91971   2.179  10.233   5.441 -0.1128 -0.0219  0.3856
  682MOL0     C91972   2.291  10.149   5.429 -0.4234 -0.3914  0.3345
  682MOL0     C91973   2.404  10.246   5.395 -0.1593 -0.4790  0.3999
  682MOL0     C91974   2.454  10.319   5.519  0.2587 -1.1987 -0.1431
  682MOL0     C91975   2.572  10.407   5.480  0.9768  0.6782 -0.3930
  682MOL0     C91976   2.657  10.463   5.599 -0.6527  0.1610  0.4594
  682MOL0     C91977   2.733  10.583   5.561  0.4499 -0.2253 -0.5637
  682MOL0     C91978   2.794  10.571   5.421  0.3967  0.9298  1.1626
  682MOL0     C91979   2.870  10.698   5.396  0.4322 -0.5675  0.4073
  682MOL0    Cl91980   2.949  10.695   5.238 -0.0717  0.1509 -0.3839
  682MOL0     C91981   2.091  10.105   5.638 -0.1715 -0.3114  0.5038
  682MOL0     C91982   2.015  10.091   5.750  0.7749 -0.1272 -0.3123
  682MOL0     O91983   1.733  10.028   5.833  0.5742 -0.8354  0.5032
  682MOL0     C91984   1.725  10.239   6.133 -0.3050 -0.8821  0.7485
  682MOL0     C91985   1.641  10.274   6.233  0.5808  0.1610  1.3144
  682MOL0     N91986   1.738  10.543   6.467  0.8572 -0.2439 -0.1672
  682MOL0     N91987   1.724  10.658   6.419  0.4045 -0.1397  0.2535
  682MOL0     C91988   1.460  10.472   5.635  0.1708  0.4986 -0.3647
  682MOL0     C91989   1.516  10.422   5.512 -0.0911 -0.0589 -0.0811
  682MOL0     C91990   1.684  10.252   5.168 -0.9682 -0.3424 -0.3022
  682MOL0     C91991   1.645  10.262   5.040 -0.2230 -0.4110  0.5458
  682MOL0     C91992   1.738  10.269   4.930  0.1172  0.4705  0.0346
  682MOL0     C91993   1.876  10.268   4.953 -0.4514  0.0062  0.5140
  682MOL0     O91994   1.956  10.294   4.844  0.2494  0.6290  0.3550
  682MOL0     C91995   2.091  10.247   4.848  0.5063 -0.8287  0.5853
  682MOL0     C91996   2.149  10.201   4.711 -0.6794 -0.1306  0.7410
  682MOL0     C91997   2.085  10.062   4.684 -0.0895  0.5376  0.0928
  682MOL0     C91998   2.146   9.946   4.756 -0.6005 -0.8809  0.2696
  682MOL0     C91999   2.288   9.927   4.731 -0.7643 -0.6979  0.8610
  682MOL0     C92000   2.405   9.913   4.699 -0.5053  0.7110 -0.3549
  682MOL0     C92001   1.919  10.257   5.085  0.1895 -0.7727 -0.2516
  682MOL0     C92002   1.823  10.235   5.193 -0.4512 -0.0784 -0.3086
  682MOL0     H92003   1.583  10.102   5.604 -3.7657 -1.9728 -2.0339
  682MOL0     H92004   1.445  10.181   5.801  2.2015 -2.7436 -1.7549
  682MOL0     H92005   1.438  10.339   6.004 -3.8025 -1.6828  3.1948
  682MOL0     H92006   1.478  10.496   5.965  2.9886 -3.6580  0.3046
  682MOL0     H92007   1.207  10.528   6.007  0.7256 -0.7929 -2.0463
  682MOL0     H92008   1.249  10.387   6.108  1.4072 -0.0902 -0.5963
  682MOL0     H92009   1.432  10.532   6.214  2.8164 -2.2268 -5.1179
  682MOL0     H92010   1.380  10.662   6.100 -1.8556 -0.5146 -1.3075
  682MOL0     H92011   1.153  10.640   6.192  1.5794  0.0263 -1.4206
  682MOL0     H92012   1.225  10.538   6.320  2.8929 -1.0431 -0.9230
  682MOL0     H92013   1.249  10.831   6.304  0.9774 -1.0785 -2.0328
  682MOL0     H92014   1.213  10.734   6.446 -1.1154 -0.5265 -1.3200
  682MOL0     H92015   1.461  10.655   6.425 -0.4724 -0.3124 -0.9023
  682MOL0     H92016   1.484  10.770   6.295 -2.1732 -2.1670 -2.0932
  682MOL0     H92017   1.402  10.950   6.439 -2.8830 -2.4377 -0.2488
  682MOL0     H92018   1.412  10.837   6.569 -0.2668 -0.8664  0.4704
  682MOL0     H92019   1.627  10.946   6.580  1.3298 -2.6516  1.7652
  682MOL0     H92020   1.649  10.922   6.412  1.5691 -0.5697  1.3543
  682MOL0     H92021   1.645  10.699   6.735 -0.7011 -1.7428  1.6906
  682MOL0     H92022   1.794  10.371   6.635  2.3013  1.1458  0.6296
  682MOL0     H92023   1.746  10.461   6.778  1.4791  2.7731 -0.5016
  682MOL0     H92024   1.490  10.383   6.732 -0.1430 -0.7548  0.9397
  682MOL0     H92025   1.619  10.264   6.781 -1.3256  0.2016  1.7223
  682MOL0     H92026   1.482  10.174   6.618 -4.0228  2.2496 -1.0258
  682MOL0     H92027   1.643  10.205   6.548  1.9364  0.2591  2.8577
  682MOL0     H92028   1.521  10.422   6.436  0.9184 -0.2807  2.0136
  682MOL0     H92029   1.375  10.361   6.505  0.8987 -0.6050 -0.6446
  682MOL0     H92030   1.378  10.092   6.186 -1.1676 -0.1142 -0.2488
  682MOL0     H92031   1.552   9.887   5.998 -1.6996 -0.9556 -2.1279
  682MOL0     H92032   1.389   9.941   6.012 -0.7182 -0.9852 -0.7674
  682MOL0     H92033   1.497   9.982   5.870  0.8819  2.2316  0.9349
  682MOL0     H92034   1.898  10.414   5.753 -2.2485 -1.1002 -0.7680
  682MOL0     H92035   2.048  10.418   5.548 -0.1084 -0.0109  0.4031
  682MOL0     H92036   2.327  10.093   5.516  4.4405 -1.9282 -2.3088
  682MOL0     H92037   2.265  10.080   5.348 -2.0469  1.9454 -1.2627
  682MOL0     H92038   2.485  10.195   5.343  0.6537  1.6138 -0.5260
  682MOL0     H92039   2.368  10.314   5.317  1.5316 -0.4237 -0.3802
  682MOL0     H92040   2.500  10.254   5.594  2.1972  1.0121  0.6915
  682MOL0     H92041   2.374  10.381   5.562  2.1121 -0.1548  2.0161
  682MOL0     H92042   2.640  10.350   5.414  0.4005 -0.6009  0.0793
  682MOL0     H92043   2.515  10.484   5.427 -4.4996 -0.6286  2.8966
  682MOL0     H92044   2.722  10.383   5.636  0.2627  1.2831  1.3601
  682MOL0     H92045   2.595  10.506   5.678 -2.3454 -2.6558  0.7880
  682MOL0     H92046   2.665  10.669   5.560 -1.8297 -1.9545 -1.2401
  682MOL0     H92047   2.811  10.606   5.634  2.7639  1.7412 -3.3976
  682MOL0     H92048   2.713  10.567   5.348  1.9984  0.3656 -0.6468
  682MOL0     H92049   2.855  10.482   5.404 -1.8664 -0.8330  1.7596
  682MOL0     H92050   2.952  10.698   5.469  1.0469 -1.9957 -0.2491
  682MOL0     H92051   2.816  10.793   5.407  4.4186  1.7761  2.3953
  682MOL0     H92052   2.142  10.011   5.616  0.7799  0.5247 -1.0651
  682MOL0     H92053   2.014   9.994   5.799  2.9449  1.2872  2.8745
  682MOL0     H92054   1.824  10.284   6.137 -1.7360  2.5509  0.4100
  682MOL0     H92055   1.686  10.348   6.299  2.4924  0.1030  0.1450
  682MOL0     H92056   1.408  10.567   5.640 -3.4214 -1.1848 -2.0698
  682MOL0     H92057   1.515  10.494   5.430  2.0812  0.9941  0.7402
  682MOL0     H92058   1.539  10.262   5.018 -0.2622 -0.9739  0.7328
  682MOL0     H92059   1.691  10.286   4.833 -5.0564  0.1433  2.1870
  682MOL0     H92060   2.142  10.340   4.871  0.8799  0.1426 -3.4118
  682MOL0     H92061   2.106  10.171   4.926 -2.3085 -2.1517  0.0035
  682MOL0     H92062   2.257  10.195   4.727 -0.4883 -1.0276 -0.6909
  682MOL0     H92063   2.132  10.274   4.631  1.3665 -2.1562 -1.7249
  682MOL0     H92064   2.088  10.040   4.577 -2.0634 -2.9040  0.5783
  682MOL0     H92065   1.978  10.057   4.707 -0.1813 -0.2941 -0.4722
  682MOL0     H92066   2.090   9.854   4.734 -2.2379  0.5009 -1.6343
  682MOL0     H92067   2.133   9.941   4.865  0.5735 -3.0050  0.3790
  682MOL0     H92068   2.504   9.898   4.662 -0.4222 -2.0770  0.7555
  682MOL0     H92069   2.024  10.257   5.113  0.1253 -1.8195  0.0371
  682MOL0     H92070   1.853  10.232   5.297 -2.5144  0.7827  0.3685
  683MOL0     O92071   6.820  10.089   0.197  0.1688  0.1568 -0.1318
  683MOL0     C92072   6.706  10.093   0.142 -0.2182  0.4029 -0.1063
  683MOL0     O92073   6.669  10.171   0.034  0.7234 -0.0224 -0.7612
  683MOL0     C92074   6.755  10.253  -0.036 -0.3229 -0.8457  0.1603
  683MOL0     C92075   6.705  10.363  -0.110 -0.2976  0.3290  1.0006
  683MOL0     C92076   6.778  10.468  -0.161 -0.1743 -0.5695  0.5266
  683MOL0     C92077   6.915  10.462  -0.153 -0.3718  0.4867  0.6144
  683MOL0     O92078   6.992  10.559  -0.224  0.8229 -0.0404  0.0762
  683MOL0     C92079   7.134  10.555  -0.195  0.0964 -0.4415  0.4847
  683MOL0     C92080   7.181  10.695  -0.247 -0.6876  0.8469 -0.4925
  683MOL0     C92081   7.334  10.707  -0.277  0.5776  0.0873  0.1378
  683MOL0     C92082   7.375  10.827  -0.358 -0.3457  0.5445  0.1072
  683MOL0     C92083   7.517  10.872  -0.334 -0.9558 -0.9179 -0.2869
  683MOL0     C92084   7.566  10.911  -0.191  0.6970 -0.0218  1.3442
  683MOL0     C92085   7.681  11.011  -0.221 -0.2153 -0.9378 -0.3968
  683MOL0     C92086   7.748  11.058  -0.101 -0.7777  0.1132  0.5702
  683MOL0     N92087   7.847  11.157  -0.139 -0.3049 -0.8789  0.0713
  683MOL0     C92088   7.825  11.289  -0.128 -0.6147  0.0395  0.0552
  683MOL0     C92089   7.944  11.344  -0.145  0.3887  0.1689 -0.0843
  683MOL0     C92090   7.980  11.483  -0.133  0.1232 -0.8072  0.3790
  683MOL0     C92091   7.993  11.533   0.004  0.4791  0.4283  0.1339
  683MOL0     C92092   8.045  11.680   0.006 -0.6624  0.2064  0.0521
  683MOL0     C92093   7.978  11.754   0.121 -0.7954 -0.1291 -0.4639
  683MOL0     O92094   8.000  11.891   0.112  0.7704 -0.7343 -0.0721
  683MOL0     C92095   7.958  11.981   0.213  0.0974 -0.8032 -0.4836
  683MOL0     C92096   7.979  12.114   0.192 -0.6993  0.2053  0.5852
  683MOL0     C92097   7.918  12.200   0.279  0.0761  0.0202  0.3535
  683MOL0     C92098   7.944  12.341   0.257 -0.0754  0.0268 -0.0347
  683MOL0     C92099   7.844  12.152   0.390  0.5998  0.7991 -0.1091
  683MOL0     C92100   7.766  12.241   0.484 -0.1639  0.3614  0.6901
  683MOL0     O92101   7.700  12.175   0.580 -0.6600 -0.3329 -0.1335
  683MOL0     C92102   7.638  12.232   0.683  0.1161 -0.3609 -0.6153
  683MOL0     C92103   7.517  12.166   0.721  0.3310  0.2562 -0.8332
  683MOL0     C92104   7.437  12.229   0.814 -0.5642 -0.1843  1.0599
  683MOL0     C92105   7.473  12.341   0.876  0.7406  0.1026 -0.5891
  683MOL0     O92106   7.385  12.387   0.968  0.9993 -0.2808  0.9120
  683MOL0     C92107   7.393  12.523   1.013  0.7214 -0.5511  0.0377
  683MOL0     C92108   7.247  12.579   1.034  0.7264  0.3258  0.3930
  683MOL0     C92109   7.238  12.692   1.131  0.2620  0.4815 -0.8517
  683MOL0     C92110   7.249  12.646   1.273  0.4515  0.3266 -0.0324
  683MOL0     C92111   7.236  12.770   1.362 -0.0985 -0.0179  0.1368
  683MOL0     C92112   7.260  12.722   1.497 -0.2213 -0.1901 -0.7413
  683MOL0     C92113   7.270  12.847   1.595  0.0271  0.1340 -0.4197
  683MOL0     C92114   7.339  12.790   1.726 -0.4396  0.0273  0.2512
  683MOL0    Cl92115   7.228  12.669   1.798 -0.3426 -0.1683 -0.4727
  683MOL0     C92116   7.595  12.406   0.847  0.5653 -0.3161 -0.1197
  683MOL0     C92117   7.679  12.355   0.748 -0.0106 -0.7946  0.3853
  683MOL0     O92118   7.764  12.357   0.469  0.0563 -0.6152  0.5083
  683MOL0     C92119   7.832  12.018   0.413  0.0243  0.1492  0.0209
  683MOL0     C92120   7.890  11.935   0.322 -0.8283  0.0669 -0.0989
  683MOL0     N92121   8.035  11.241  -0.164 -0.2091  0.1681 -0.2458
  683MOL0     N92122   7.978  11.127  -0.157 -0.4706  0.4981 -0.5121
  683MOL0     C92123   6.974  10.360  -0.075  0.4898  0.7188  0.9502
  683MOL0     C92124   6.895  10.250  -0.026  0.0113  0.1845  0.1110
  683MOL0     C92125   6.607   9.987   0.181 -0.8230  0.3142  0.4797
  683MOL0     C92126   6.639   9.877   0.267  0.5350 -0.2441 -0.4883
  683MOL0     C92127   6.545   9.782   0.306 -0.2649 -0.4067 -0.4408
  683MOL0     C92128   6.420   9.780   0.242  0.0581 -0.2285 -0.8690
  683MOL0     O92129   6.320   9.691   0.282 -0.6472  0.4170  0.1465
  683MOL0     C92130   6.357   9.574   0.346  0.2967  0.7950  0.1222
  683MOL0     C92131   6.396   9.472   0.238 -0.3790  0.1932  0.4890
  683MOL0     C92132   6.392   9.332   0.292 -0.7603 -0.7935  0.0803
  683MOL0     C92133   6.432   9.224   0.194 -0.0597 -0.4859 -0.6439
  683MOL0     C92134   6.315   9.159   0.121 -0.2767 -1.2827 -0.3835
  683MOL0     C92135   6.223   9.107   0.053 -0.1513 -0.2021  0.5215
  683MOL0     C92136   6.389   9.877   0.154 -0.4256 -0.3766 -0.7167
  683MOL0     C92137   6.483   9.978   0.123 -0.5101 -0.0145 -1.0598
  683MOL0     H92138   6.598  10.380  -0.121 -0.6801 -1.4266  1.7195
  683MOL0     H92139   6.732  10.543  -0.225  2.1671 -0.2143 -0.8703
  683MOL0     H92140   7.151  10.549  -0.087 -1.5663  0.9750  0.8625
  683MOL0     H92141   7.186  10.473  -0.246  2.2408  1.4325 -0.4907
  683MOL0     H92142   7.132  10.720  -0.341 -1.8584 -1.2150 -0.4972
  683MOL0     H92143   7.161  10.765  -0.165  2.5103  2.0790 -0.6376
  683MOL0     H92144   7.388  10.706  -0.182  2.6412  1.5060 -0.9549
  683MOL0     H92145   7.363  10.617  -0.332  0.5459  0.6443 -0.8157
  683MOL0     H92146   7.361  10.791  -0.460 -0.5536 -0.2275  0.4037
  683MOL0     H92147   7.309  10.907  -0.323 -0.6750  0.4413 -0.2733
  683MOL0     H92148   7.575  10.785  -0.368  0.3117 -0.2768  0.1487
  683MOL0     H92149   7.541  10.958  -0.397 -2.0659  0.4049  1.0244
  683MOL0     H92150   7.481  10.943  -0.131 -0.9570  1.2875 -1.5082
  683MOL0     H92151   7.602  10.816  -0.149  1.4368  0.0159  0.8286
  683MOL0     H92152   7.755  10.989  -0.299 -0.4301 -0.2439 -0.8124
  683MOL0     H92153   7.636  11.100  -0.268 -3.1745 -1.9709  0.2367
  683MOL0     H92154   7.807  10.978  -0.056 -0.6524  0.4809  1.0826
  683MOL0     H92155   7.677  11.094  -0.025 -0.0928  0.1990  1.1889
  683MOL0     H92156   7.732  11.345  -0.117 -2.6307 -3.2401  1.2893
  683MOL0     H92157   8.077  11.488  -0.183 -0.2614 -0.5374 -0.3526
  683MOL0     H92158   7.906  11.551  -0.176 -0.9932 -0.2600  2.9683
  683MOL0     H92159   8.076  11.478   0.050  2.2102  0.4255 -2.7479
  683MOL0     H92160   7.892  11.528   0.046 -0.5232 -0.8224 -2.2484
  683MOL0     H92161   8.010  11.726  -0.087 -3.4134 -0.5031  0.6683
  683MOL0     H92162   8.154  11.673   0.019 -0.4344  1.5948 -0.8802
  683MOL0     H92163   8.035  11.722   0.209  0.7383  0.3382 -1.2475
  683MOL0     H92164   7.871  11.734   0.118 -1.0901  0.7044  1.9643
  683MOL0     H92165   8.042  12.140   0.107 -1.3858  0.4692  0.1468
  683MOL0     H92166   8.009  12.370   0.174 -2.1095  3.4632 -0.6303
  683MOL0     H92167   7.850  12.396   0.240 -0.4020 -1.2970 -3.2697
  683MOL0     H92168   7.978  12.384   0.351  1.2398 -1.0604  0.0136
  683MOL0     H92169   7.498  12.075   0.666  1.5083  0.0654 -0.9382
  683MOL0     H92170   7.348  12.175   0.847 -1.2242 -1.0197 -1.7698
  683MOL0     H92171   7.456  12.513   1.101 -0.8988 -0.6547  1.2168
  683MOL0     H92172   7.446  12.595   0.949  0.0944  0.1914  0.3372
  683MOL0     H92173   7.208  12.618   0.939  0.0790  0.8730  0.8721
  683MOL0     H92174   7.181  12.500   1.070  2.6058 -1.7021 -0.4305
  683MOL0     H92175   7.144  12.739   1.101 -0.1895  0.9445  1.1205
  683MOL0     H92176   7.323  12.755   1.104  0.8071 -1.4979 -4.2756
  683MOL0     H92177   7.173  12.573   1.301  1.9101 -1.1029  0.3310
  683MOL0     H92178   7.343  12.594   1.294 -1.2100 -2.2039  1.7747
  683MOL0     H92179   7.134  12.807   1.346  0.2339  0.4428 -1.0154
  683MOL0     H92180   7.306  12.846   1.325 -0.4346 -1.7546 -4.7499
  683MOL0     H92181   7.180  12.653   1.527  0.3055 -0.5182 -0.0766
  683MOL0     H92182   7.351  12.663   1.509  0.9868  1.6305 -0.7062
  683MOL0     H92183   7.175  12.896   1.616 -0.0423 -0.3080  0.3232
  683MOL0     H92184   7.342  12.915   1.546 -2.9148  1.2376 -3.6128
  683MOL0     H92185   7.349  12.870   1.800  0.8835  0.3636 -0.2660
  683MOL0     H92186   7.442  12.752   1.721 -0.7026 -1.0368  2.0836
  683MOL0     H92187   7.634  12.490   0.903 -3.0340  1.0965  0.4902
  683MOL0     H92188   7.775  12.388   0.710 -1.0305 -0.5580 -2.1556
  683MOL0     H92189   7.790  11.970   0.501 -1.3651  0.9665 -0.1791
  683MOL0     H92190   7.879  11.831   0.350  1.9021  0.2835  2.2677
  683MOL0     H92191   7.081  10.346  -0.061  0.9556 -0.6368 -2.7671
  683MOL0     H92192   6.945  10.167   0.024  1.6348 -1.0274 -3.2018
  683MOL0     H92193   6.735   9.871   0.316 -0.4551 -1.6395  1.3982
  683MOL0     H92194   6.593   9.710   0.372  1.7450 -0.1244 -1.5285
  683MOL0     H92195   6.426   9.596   0.428  0.5085  1.1384 -0.1485
  683MOL0     H92196   6.268   9.540   0.400 -2.3389  5.1807 -0.9569
  683MOL0     H92197   6.500   9.491   0.210  0.2735  0.2521  2.7463
  683MOL0     H92198   6.333   9.489   0.150 -3.0597 -3.2370  1.5076
  683MOL0     H92199   6.287   9.316   0.319 -0.8224  0.1405  0.4294
  683MOL0     H92200   6.449   9.312   0.383 -0.9023  1.0818  0.6134
  683MOL0     H92201   6.482   9.138   0.239 -0.5175 -0.9080 -0.9317
  683MOL0     H92202   6.509   9.261   0.127  1.8499  1.7217  2.4934
  683MOL0     H92203   6.142   9.060   0.002 -2.0627  2.2888  1.0637
  683MOL0     H92204   6.295   9.871   0.100  1.4943 -0.1768 -4.4046
  683MOL0     H92205   6.457  10.049   0.045  0.5210 -0.9466 -2.2885
  684MOL0     O92206   8.214   3.518   7.305 -0.2760 -0.0928  0.1673
  684MOL0     C92207   8.172   3.519   7.189 -0.0107  0.0824 -1.2291
  684MOL0     O92208   8.200   3.419   7.096 -0.1093  0.9996  0.3139
  684MOL0     C92209   8.302   3.332   7.127 -1.1078  0.0718 -0.7125
  684MOL0     C92210   8.440   3.361   7.151 -0.1554 -0.7019 -0.3692
  684MOL0     C92211   8.539   3.257   7.176  0.1570  0.3758  0.4835
  684MOL0     C92212   8.497   3.127   7.170  0.0204  0.1010  0.4089
  684MOL0     O92213   8.565   3.014   7.189  0.3946 -0.3325  0.2351
  684MOL0     C92214   8.708   3.029   7.198 -1.0638  1.3873 -0.4491
  684MOL0     C92215   8.769   2.894   7.241 -0.6434 -0.4610  0.2681
  684MOL0     C92216   8.751   2.782   7.143  0.0924 -0.2392  0.0128
  684MOL0     C92217   8.839   2.820   7.024  0.0022 -0.0990  0.9670
  684MOL0     C92218   8.876   2.689   6.952 -0.1807 -0.5211 -0.7895
  684MOL0     C92219   8.924   2.719   6.816  0.3093  0.3102 -1.1718
  684MOL0     C92220   8.943   2.580   6.752  0.2046  1.1878  0.6735
  684MOL0     C92221   9.036   2.585   6.631 -0.6294 -0.1266 -0.3724
  684MOL0     N92222   8.963   2.598   6.506  0.6221 -0.7711  0.8905
  684MOL0     C92223   8.876   2.695   6.476  0.4884  0.2985 -0.7059
  684MOL0     C92224   8.835   2.670   6.349  0.0582 -0.3118 -0.0932
  684MOL0     C92225   8.746   2.739   6.252 -0.7324  0.0319 -0.3074
  684MOL0     C92226   8.618   2.661   6.237 -0.6736  0.6554  0.0017
  684MOL0     C92227   8.528   2.704   6.343  0.0329  0.7674 -0.9553
  684MOL0     C92228   8.434   2.592   6.388  0.2370 -1.2314 -0.4844
  684MOL0     O92229   8.375   2.629   6.518 -0.0697  1.2359  0.1018
  684MOL0     C92230   8.240   2.597   6.554 -0.3778 -0.3964 -0.6046
  684MOL0     C92231   8.187   2.475   6.505 -0.1137  0.5262 -0.0771
  684MOL0     C92232   8.063   2.430   6.542  0.5776 -0.6592 -1.4248
  684MOL0     C92233   8.026   2.289   6.524 -0.6216 -0.5805 -0.3620
  684MOL0     C92234   7.985   2.511   6.630 -0.0843  0.1990  0.2783
  684MOL0     C92235   7.855   2.466   6.669  0.8196  0.5054 -0.2730
  684MOL0     O92236   7.840   2.356   6.747  0.3854 -0.0446  0.5571
  684MOL0     C92237   7.722   2.336   6.813  0.8752 -0.4758 -0.6411
  684MOL0     C92238   7.651   2.219   6.804  1.0524 -0.5704  0.3782
  684MOL0     C92239   7.512   2.221   6.845 -0.3736  0.3084  0.3699
  684MOL0     C92240   7.462   2.332   6.909  0.2911 -0.0343 -0.5154
  684MOL0     O92241   7.330   2.310   6.938 -0.2194  0.9550 -0.0978
  684MOL0     C92242   7.254   2.402   7.014  0.3511  0.9364 -0.0639
  684MOL0     C92243   7.117   2.340   7.033 -0.1782  0.7819 -1.5051
  684MOL0     C92244   7.111   2.230   7.133 -1.0977 -0.5071 -0.1025
  684MOL0     C92245   6.987   2.146   7.114  0.3748 -0.5131 -0.3863
  684MOL0     C92246   6.850   2.221   7.144 -0.7323  0.2071 -0.0931
  684MOL0     C92247   6.747   2.112   7.151  0.7068 -0.7934  0.1106
  684MOL0     C92248   6.608   2.162   7.196 -0.2498  0.1876 -0.5757
  684MOL0     C92249   6.604   2.219   7.336 -0.7439 -0.4626 -0.9084
  684MOL0    Cl92250   6.651   2.111   7.469  0.5051  0.2558  0.0813
  684MOL0     C92251   7.536   2.441   6.932  0.1082 -0.1928 -0.2145
  684MOL0     C92252   7.666   2.444   6.887 -0.1688 -0.0347  0.4670
  684MOL0     O92253   7.767   2.548   6.638 -0.8224  0.1544  0.1094
  684MOL0     C92254   8.035   2.635   6.664  0.8295  0.0182 -0.1058
  684MOL0     C92255   8.163   2.681   6.629  1.0446  0.2226  0.5627
  684MOL0     N92256   8.894   2.553   6.306  0.0069  0.2176 -0.0940
  684MOL0     N92257   8.959   2.506   6.410 -0.9335  0.3307  0.1166
  684MOL0     C92258   8.367   3.100   7.139 -0.2306 -0.4892 -0.0588
  684MOL0     C92259   8.269   3.194   7.133  0.2512 -0.2687  0.2660
  684MOL0     C92260   8.070   3.620   7.137  1.1503  0.2933 -0.6630
  684MOL0     C92261   7.993   3.710   7.222  0.4577  0.1686 -0.8160
  684MOL0     C92262   7.898   3.797   7.169 -0.1744  0.7692  0.0566
  684MOL0     C92263   7.884   3.797   7.027  0.6172 -1.2246  0.0095
  684MOL0     O92264   7.800   3.892   6.963 -0.2134  0.4556  0.2496
  684MOL0     C92265   7.699   3.945   7.037  1.1624 -0.9252  0.5775
  684MOL0     C92266   7.574   3.972   6.953  0.0601  0.1420 -0.2280
  684MOL0     C92267   7.454   4.020   7.040 -0.1491 -0.1070 -0.2605
  684MOL0     C92268   7.313   4.009   6.985 -0.5619  0.5259 -0.0495
  684MOL0     C92269   7.226   4.096   7.053  0.1939  0.5372 -0.4060
  684MOL0     C92270   7.153   4.161   7.117 -0.4699 -0.0795  0.1008
  684MOL0     C92271   7.944   3.703   6.943  0.2172 -0.5932  0.5333
  684MOL0     C92272   8.047   3.623   6.994  0.2802 -0.3683  0.9275
  684MOL0     H92273   8.473   3.464   7.140 -0.6298 -0.6954 -2.1420
  684MOL0     H92274   8.643   3.289   7.171 -0.6888  3.2777 -1.3921
  684MOL0     H92275   8.755   3.048   7.100 -3.0728  0.4960 -1.6530
  684MOL0     H92276   8.731   3.103   7.275  0.4781  0.6350 -0.1388
  684MOL0     H92277   8.876   2.892   7.261  0.3039  0.2455 -3.8286
  684MOL0     H92278   8.712   2.866   7.330 -0.1150  1.0557  1.1240
  684MOL0     H92279   8.759   2.676   7.169 -0.5328 -0.3426 -0.1795
  684MOL0     H92280   8.647   2.781   7.108 -1.1405  2.1503  3.0691
  684MOL0     H92281   8.789   2.894   6.961 -1.2096 -2.8167 -1.4554
  684MOL0     H92282   8.932   2.862   7.065  1.7544 -3.9899  1.4583
  684MOL0     H92283   8.951   2.643   7.016 -0.6211  3.4685  3.0989
  684MOL0     H92284   8.792   2.619   6.946 -0.0862 -0.7109  0.0145
  684MOL0     H92285   8.843   2.765   6.758 -0.9545  0.2396  0.4705
  684MOL0     H92286   9.010   2.786   6.823  0.9233 -0.6761  2.4442
  684MOL0     H92287   8.981   2.508   6.825 -2.1517 -3.4035 -2.1213
  684MOL0     H92288   8.840   2.547   6.734  0.0389  2.6891 -1.5981
  684MOL0     H92289   9.097   2.495   6.615  0.5941  0.8247 -1.2418
  684MOL0     H92290   9.111   2.662   6.653  1.4066 -2.0417 -0.2236
  684MOL0     H92291   8.849   2.789   6.523 -2.5776 -0.2166 -1.1924
  684MOL0     H92292   8.722   2.841   6.282 -2.0480 -0.7822  1.6142
  684MOL0     H92293   8.788   2.755   6.152 -0.7002  0.0797 -0.2855
  684MOL0     H92294   8.651   2.558   6.252 -2.2097  0.2381  0.6914
  684MOL0     H92295   8.575   2.681   6.138 -0.0278 -0.1538 -0.4574
  684MOL0     H92296   8.467   2.785   6.300 -1.7391 -0.4728 -0.8970
  684MOL0     H92297   8.579   2.738   6.433 -2.2006  0.4713  0.4949
  684MOL0     H92298   8.508   2.512   6.399  0.7312 -0.9855 -1.8236
  684MOL0     H92299   8.364   2.567   6.309 -0.0529 -2.3892  0.1153
  684MOL0     H92300   8.246   2.410   6.440  1.1628  2.4114 -0.9144
  684MOL0     H92301   8.096   2.233   6.586  2.6455  0.7515 -2.5534
  684MOL0     H92302   7.923   2.257   6.540 -0.2338 -0.9553  1.5308
  684MOL0     H92303   8.071   2.260   6.428  0.3246 -1.3490  0.3010
  684MOL0     H92304   7.691   2.147   6.733  0.0203  1.6753 -2.7042
  684MOL0     H92305   7.438   2.144   6.825 -1.5073  1.5318 -0.2408
  684MOL0     H92306   7.297   2.432   7.111 -0.8480 -0.0715  0.8062
  684MOL0     H92307   7.240   2.495   6.958  0.1921  0.9725  0.0360
  684MOL0     H92308   7.050   2.422   7.058  2.6183  2.7911  0.0575
  684MOL0     H92309   7.090   2.305   6.933 -1.7308  0.4087 -0.9790
  684MOL0     H92310   7.106   2.269   7.235 -0.8114 -0.1158 -0.2360
  684MOL0     H92311   7.194   2.160   7.117  2.4741  3.1261  0.8100
  684MOL0     H92312   6.980   2.122   7.007  2.2671  1.9133 -1.1530
  684MOL0     H92313   6.981   2.051   7.167  0.0070 -0.9342 -1.1549
  684MOL0     H92314   6.836   2.291   7.060  0.3376 -1.8893 -2.1374
  684MOL0     H92315   6.857   2.275   7.239  0.8073  4.1075 -2.1470
  684MOL0     H92316   6.737   2.068   7.051  1.4645 -1.2475  0.2284
  684MOL0     H92317   6.768   2.036   7.227 -0.6839 -3.2521 -1.7982
  684MOL0     H92318   6.545   2.072   7.201  1.8097 -1.3600 -1.3527
  684MOL0     H92319   6.571   2.240   7.129  0.5130  1.4586  0.4394
  684MOL0     H92320   6.505   2.262   7.351  1.1717  3.9978  0.8461
  684MOL0     H92321   6.678   2.300   7.340  0.6668 -1.6639 -1.7655
  684MOL0     H92322   7.492   2.521   6.990 -2.6949 -3.7615  3.1364
  684MOL0     H92323   7.728   2.527   6.920  0.2693  0.7469 -2.0838
  684MOL0     H92324   7.979   2.698   6.732  1.5798  0.9075 -0.3012
  684MOL0     H92325   8.198   2.770   6.680 -1.8884  1.0546  1.3121
  684MOL0     H92326   8.346   2.994   7.142  0.3139 -0.5811  0.8570
  684MOL0     H92327   8.169   3.157   7.112  0.4165  0.9436 -3.4014
  684MOL0     H92328   8.026   3.713   7.325  3.5802 -3.8775 -1.4154
  684MOL0     H92329   7.862   3.879   7.229  0.8393  1.6809 -0.5457
  684MOL0     H92330   7.663   3.881   7.119 -2.1032 -2.8878 -2.1289
  684MOL0     H92331   7.729   4.043   7.077  1.9146 -0.3233 -1.3563
  684MOL0     H92332   7.539   3.877   6.913  2.5440 -1.8623  2.0359
  684MOL0     H92333   7.600   4.045   6.875  0.9072 -0.0617 -0.1434
  684MOL0     H92334   7.482   4.123   7.063 -0.5870  0.1383 -0.7895
  684MOL0     H92335   7.461   3.956   7.128  0.7885 -1.5784 -1.3405
  684MOL0     H92336   7.282   3.905   6.986  1.3348 -0.0839 -0.5585
  684MOL0     H92337   7.321   4.054   6.886 -0.2708  0.8302  0.1088
  684MOL0     H92338   7.080   4.225   7.163  1.0029 -0.1758  2.7157
  684MOL0     H92339   7.941   3.697   6.834  2.1631 -2.5366  0.5361
  684MOL0     H92340   8.120   3.566   6.938  2.4158  0.6269  2.5793
  685MOL0     O92341   8.470   6.923   8.413 -0.6833 -0.2354 -0.4794
  685MOL0     C92342   8.401   6.950   8.320  0.2698  0.3578 -0.3123
  685MOL0     O92343   8.430   7.010   8.199  0.4350  0.3429 -0.3373
  685MOL0     C92344   8.550   7.073   8.183  0.5315 -0.5618 -0.9193
  685MOL0     C92345   8.588   7.071   8.044  0.3328 -0.1567  0.5376
  685MOL0     C92346   8.696   7.149   8.004 -0.3785 -0.0244  0.2729
  685MOL0     C92347   8.774   7.220   8.096 -1.0713  0.3544  0.7982
  685MOL0     O92348   8.881   7.305   8.073 -0.5570  0.4101  0.4851
  685MOL0     C92349   8.931   7.321   7.934 -0.8171  0.0020 -0.0967
  685MOL0     C92350   9.040   7.432   7.945  0.4139  0.5766  0.2978
  685MOL0     C92351   8.981   7.569   7.987 -0.4151  1.0987 -0.5212
  685MOL0     C92352   9.069   7.635   8.098  0.2488 -0.2327 -0.5625
  685MOL0     C92353   9.015   7.771   8.151 -0.3866  0.0102 -0.1238
  685MOL0     C92354   8.882   7.752   8.229 -0.8301 -0.9008 -0.5279
  685MOL0     C92355   8.869   7.863   8.335  0.0536 -0.5955  0.4145
  685MOL0     C92356   8.827   7.992   8.252  0.5870  0.4362 -0.1194
  685MOL0     N92357   8.730   8.068   8.334 -0.0809 -0.6212 -0.1577
  685MOL0     C92358   8.601   8.030   8.360  0.1578 -1.3496  0.8996
  685MOL0     C92359   8.563   8.126   8.443  0.5796 -1.1662 -0.9816
  685MOL0     C92360   8.429   8.140   8.522 -0.1340  0.3470  0.2967
  685MOL0     C92361   8.304   8.176   8.430  0.0752  0.4139 -0.8182
  685MOL0     C92362   8.314   8.300   8.349  0.0561 -0.1141  0.4429
  685MOL0     C92363   8.189   8.298   8.257  0.0435 -0.2542 -1.2131
  685MOL0     O92364   8.215   8.370   8.131  0.5110 -0.2228 -0.3389
  685MOL0     C92365   8.120   8.367   8.027  0.6550  0.3484  0.0490
  685MOL0     C92366   8.030   8.260   7.998 -0.0913  0.7066 -1.1286
  685MOL0     C92367   7.954   8.255   7.886  0.1291 -0.0331 -0.7576
  685MOL0     C92368   7.865   8.133   7.867 -1.3250  0.0818 -0.5575
  685MOL0     C92369   7.950   8.367   7.797 -0.1343 -0.2290 -0.2226
  685MOL0     C92370   7.875   8.369   7.666  0.6494  0.0741 -0.6002
  685MOL0     O92371   7.810   8.255   7.623  0.2374 -0.3181  0.5163
  685MOL0     C92372   7.756   8.231   7.495  0.3829  0.4631  0.5107
  685MOL0     C92373   7.706   8.105   7.485 -0.1166 -0.1776  0.4542
  685MOL0     C92374   7.658   8.058   7.361 -0.3618 -0.2001  0.1224
  685MOL0     C92375   7.663   8.138   7.254  0.1856 -0.6451  0.4362
  685MOL0     O92376   7.618   8.080   7.135  0.4237 -0.0439 -0.4060
  685MOL0     C92377   7.539   8.163   7.049 -0.5851  0.0597 -0.3908
  685MOL0     C92378   7.424   8.084   6.987 -0.0463  0.0195  0.0319
  685MOL0     C92379   7.306   8.180   6.960  0.5772 -0.0077  1.1217
  685MOL0     C92380   7.199   8.117   6.868  0.3020  0.2915 -0.1854
  685MOL0     C92381   7.115   8.017   6.947 -0.1877 -1.1874 -0.4803
  685MOL0     C92382   7.002   7.946   6.877  0.3388  0.4160 -0.5137
  685MOL0     C92383   6.909   8.041   6.795 -0.8227 -0.5785  0.8050
  685MOL0     C92384   6.791   7.957   6.746 -0.0617  0.3527  0.1320
  685MOL0    Cl92385   6.820   7.819   6.631  0.0225 -0.5648  0.4172
  685MOL0     C92386   7.709   8.266   7.265  0.1302 -0.9174  0.2357
  685MOL0     C92387   7.751   8.320   7.386 -0.4922 -1.0825 -1.1135
  685MOL0     O92388   7.867   8.481   7.611  1.0565 -0.3505  0.1560
  685MOL0     C92389   8.031   8.482   7.829  0.5133 -0.2034  0.3423
  685MOL0     C92390   8.116   8.482   7.939 -0.5951 -0.2890 -0.4654
  685MOL0     N92391   8.661   8.222   8.459 -0.0686 -0.2488  0.3088
  685MOL0     N92392   8.764   8.188   8.392 -0.8691 -0.5163 -0.2112
  685MOL0     C92393   8.739   7.218   8.235  0.7085 -0.5989  0.3045
  685MOL0     C92394   8.628   7.140   8.273  0.4349  0.3153 -0.6404
  685MOL0     C92395   8.260   6.896   8.354 -0.3307 -0.0977  0.5383
  685MOL0     C92396   8.245   6.778   8.434 -0.0240 -0.5768  0.1315
  685MOL0     C92397   8.118   6.731   8.461  0.0252  0.5691 -0.6433
  685MOL0     C92398   8.004   6.795   8.403  0.1087  0.0357 -0.5149
  685MOL0     O92399   7.872   6.755   8.419  0.5758  0.0549  0.1027
  685MOL0     C92400   7.838   6.655   8.516  0.2285  0.7524 -0.5129
  685MOL0     C92401   7.867   6.518   8.463 -0.5061 -0.4618  0.1717
  685MOL0     C92402   7.781   6.513   8.337  0.4251  0.1691 -0.0027
  685MOL0     C92403   7.753   6.368   8.307 -0.1415  0.8236  0.8194
  685MOL0     C92404   7.871   6.325   8.240 -0.5300 -0.4568 -0.3863
  685MOL0     C92405   7.964   6.273   8.188 -0.8475  0.6344 -0.5266
  685MOL0     C92406   8.026   6.901   8.317  0.1784 -0.4182 -0.3384
  685MOL0     C92407   8.150   6.946   8.289 -0.1541  0.3298 -0.2307
  685MOL0     H92408   8.520   7.030   7.970  3.5547 -1.9985 -1.6346
  685MOL0     H92409   8.715   7.167   7.898  2.6711 -2.5246  0.2539
  685MOL0     H92410   8.985   7.227   7.924  0.4768  0.2897  2.9516
  685MOL0     H92411   8.859   7.349   7.857 -0.7350  3.4275  0.8915
  685MOL0     H92412   9.123   7.410   8.013  2.6090 -1.8858 -2.8274
  685MOL0     H92413   9.083   7.437   7.844  0.1522 -1.7084  0.0206
  685MOL0     H92414   8.976   7.629   7.896  3.9811  2.0670 -0.3523
  685MOL0     H92415   8.879   7.541   8.015  0.8036 -1.6075  1.7701
  685MOL0     H92416   9.083   7.570   8.185  1.0201  0.3722 -0.2210
  685MOL0     H92417   9.172   7.644   8.062  0.8794 -2.1301  0.6375
  685MOL0     H92418   9.090   7.815   8.218 -0.5012  1.2300 -0.7690
  685MOL0     H92419   9.014   7.843   8.068  1.7243  1.1515  0.7429
  685MOL0     H92420   8.795   7.744   8.163  0.4677 -0.3833 -2.4004
  685MOL0     H92421   8.891   7.664   8.292 -1.1831 -1.1292 -0.7955
  685MOL0     H92422   8.793   7.832   8.407 -1.9787  0.8679 -0.9823
  685MOL0     H92423   8.960   7.885   8.391  1.1689 -0.0209 -1.5292
  685MOL0     H92424   8.777   7.976   8.157 -2.3238  1.3871  1.1543
  685MOL0     H92425   8.923   8.042   8.232  1.3877 -1.2225 -0.6706
  685MOL0     H92426   8.546   7.941   8.332  1.9961 -1.7488 -1.8342
  685MOL0     H92427   8.413   8.043   8.571  0.0451  1.7284  3.2885
  685MOL0     H92428   8.451   8.214   8.598  0.0983 -0.8915  1.4698
  685MOL0     H92429   8.214   8.182   8.492  1.0880 -2.2054  1.0662
  685MOL0     H92430   8.296   8.092   8.361  3.0067 -3.6555  3.2204
  685MOL0     H92431   8.399   8.308   8.280  0.8063  0.7320  1.4179
  685MOL0     H92432   8.308   8.391   8.409  0.5343 -0.2732  0.7417
  685MOL0     H92433   8.105   8.350   8.305  0.8840  0.5080 -0.5246
  685MOL0     H92434   8.167   8.194   8.233  2.1035 -1.2500  0.8736
  685MOL0     H92435   8.039   8.169   8.057  3.0489  2.4514  1.3917
  685MOL0     H92436   7.762   8.167   7.852 -1.2960  1.4715  1.8627
  685MOL0     H92437   7.903   8.075   7.783  1.9266  1.6073 -0.2953
  685MOL0     H92438   7.868   8.067   7.954  2.7112  0.3037 -0.3365
  685MOL0     H92439   7.717   8.042   7.572  0.0651  0.1674  0.6858
  685MOL0     H92440   7.610   7.960   7.362  0.7338 -0.7814  2.1257
  685MOL0     H92441   7.489   8.221   7.127 -0.2769 -1.8919  1.3296
  685MOL0     H92442   7.605   8.230   6.993  1.0256  0.5325  1.9273
  685MOL0     H92443   7.466   8.029   6.902 -0.0604 -0.2163  0.1749
  685MOL0     H92444   7.388   8.010   7.060  0.3593  0.5834  0.8173
  685MOL0     H92445   7.354   8.269   6.919 -0.6657 -0.1937 -0.8710
  685MOL0     H92446   7.261   8.219   7.052 -2.2858  0.8837 -0.5337
  685MOL0     H92447   7.133   8.197   6.832 -0.3603  0.0623  0.4960
  685MOL0     H92448   7.242   8.062   6.784 -1.3986 -1.7698  0.2019
  685MOL0     H92449   7.071   8.080   7.025  0.6623 -1.2342  0.0519
  685MOL0     H92450   7.178   7.942   6.996 -0.1286 -0.6483  0.2843
  685MOL0     H92451   7.046   7.870   6.811  0.4945  0.1658 -0.1270
  685MOL0     H92452   6.942   7.899   6.955  3.5283 -0.2590  1.7302
  685MOL0     H92453   6.953   8.088   6.706 -0.6250 -1.4636  0.4204
  685MOL0     H92454   6.882   8.123   6.862 -1.0218  2.4222 -2.6300
  685MOL0     H92455   6.726   8.028   6.693  0.8393  0.6697 -0.5621
  685MOL0     H92456   6.724   7.929   6.828  1.5465 -1.0596  1.0188
  685MOL0     H92457   7.701   8.328   7.176 -0.7765 -2.2076 -0.6121
  685MOL0     H92458   7.794   8.418   7.404  0.8193 -1.8313 -0.0531
  685MOL0     H92459   8.038   8.561   7.755 -0.0055 -1.3977 -1.0255
  685MOL0     H92460   8.171   8.573   7.965 -3.3373  0.8601  1.8228
  685MOL0     H92461   8.783   7.277   8.314  0.5551 -1.2001  0.8466
  685MOL0     H92462   8.598   7.124   8.376 -0.4073  0.6681 -0.8246
  685MOL0     H92463   8.334   6.724   8.467  1.3349  1.6933  0.4166
  685MOL0     H92464   8.118   6.646   8.529  2.6295 -0.6172 -2.0119
  685MOL0     H92465   7.890   6.673   8.611 -1.8750 -0.8678  1.0552
  685MOL0     H92466   7.736   6.670   8.552  0.2486  1.5813 -0.7743
  685MOL0     H92467   7.831   6.455   8.546 -0.0060 -1.7042 -0.5284
  685MOL0     H92468   7.973   6.500   8.446 -0.2300  1.4469 -0.3154
  685MOL0     H92469   7.829   6.559   8.251  0.0735 -0.2718 -0.4403
  685MOL0     H92470   7.681   6.554   8.358 -1.5863 -3.4587 -1.5166
  685MOL0     H92471   7.665   6.360   8.242 -0.9647 -0.9584  2.0661
  685MOL0     H92472   7.751   6.316   8.404  3.3268 -0.6945  0.2330
  685MOL0     H92473   8.044   6.235   8.128 -0.9630  0.7048 -0.7288
  685MOL0     H92474   7.937   6.937   8.266  1.2532 -0.9340 -2.7242
  685MOL0     H92475   8.165   7.032   8.224  1.0582 -0.0116 -0.4135
  686MOL0     O92476   5.195   4.265   3.959 -0.4598 -0.0567  0.1104
  686MOL0     C92477   5.280   4.215   4.029 -0.2239  0.0137 -0.2480
  686MOL0     O92478   5.400   4.159   3.983  0.0284  0.2398 -0.1687
  686MOL0     C92479   5.424   4.150   3.845  1.3820  0.2940 -0.0196
  686MOL0     C92480   5.322   4.085   3.763  0.1833 -0.0431  0.7977
  686MOL0     C92481   5.359   4.046   3.633  0.9106 -0.2835 -0.1486
  686MOL0     C92482   5.485   4.080   3.582  0.9395 -0.7482  0.9250
  686MOL0     O92483   5.499   4.043   3.453  0.0955  0.6089  0.1536
  686MOL0     C92484   5.624   4.068   3.387 -0.4305 -0.3523  0.1293
  686MOL0     C92485   5.609   4.042   3.244  0.2768 -0.5138  0.2993
  686MOL0     C92486   5.743   4.089   3.181 -0.1389 -0.0288 -0.1033
  686MOL0     C92487   5.738   4.073   3.032  0.4142  1.1172  0.4227
  686MOL0     C92488   5.877   4.080   2.962  0.5365 -0.3736 -0.3565
  686MOL0     C92489   5.959   4.208   2.992  1.3107  0.2098 -0.3119
  686MOL0     C92490   6.113   4.195   2.946  1.0996  0.1530 -0.5580
  686MOL0     C92491   6.192   4.106   3.047 -0.4492  0.6200  0.2273
  686MOL0     N92492   6.207   4.195   3.168 -0.4542 -0.0661 -0.1814
  686MOL0     C92493   6.186   4.160   3.299 -0.0435  0.4980 -0.2130
  686MOL0     C92494   6.227   4.265   3.376 -0.4970  0.2628  0.4076
  686MOL0     C92495   6.205   4.277   3.519 -0.2223 -0.7695 -0.2074
  686MOL0     C92496   6.148   4.411   3.565  0.0799  0.4096  0.6930
  686MOL0     C92497   6.011   4.441   3.501 -0.8689 -0.0231 -0.6330
  686MOL0     C92498   5.897   4.332   3.521  0.1059 -0.6021  0.5230
  686MOL0     O92499   5.773   4.395   3.554 -0.5560  1.0385  0.0537
  686MOL0     C92500   5.744   4.454   3.672 -0.2927  0.1805 -0.9481
  686MOL0     C92501   5.626   4.518   3.695  0.1745  0.6761  0.6693
  686MOL0     C92502   5.597   4.596   3.806  0.7843 -0.5453  0.1116
  686MOL0     C92503   5.455   4.653   3.829 -0.2245 -0.0615  0.2218
  686MOL0     C92504   5.697   4.610   3.902  0.3119 -0.2225  0.6314
  686MOL0     C92505   5.692   4.704   4.026 -0.6319  1.5015  0.6050
  686MOL0     O92506   5.775   4.672   4.127 -0.1168 -0.0633  0.2125
  686MOL0     C92507   5.778   4.759   4.237  0.1610 -0.4922  0.0521
  686MOL0     C92508   5.671   4.820   4.294  0.3740 -1.2185 -0.1847
  686MOL0     C92509   5.694   4.915   4.397  0.6798 -0.8414  0.1369
  686MOL0     C92510   5.823   4.944   4.440 -1.0722 -0.6966 -0.9827
  686MOL0     O92511   5.857   5.031   4.547 -0.2891  0.2961 -0.3444
  686MOL0     C92512   5.754   5.056   4.646 -0.9410 -0.0034 -0.5688
  686MOL0     C92513   5.809   5.128   4.768  0.2970 -0.0052 -0.0880
  686MOL0     C92514   5.849   5.028   4.872 -0.4312  0.1813 -0.7821
  686MOL0     C92515   5.830   5.078   5.021  0.5104 -0.8885 -0.2211
  686MOL0     C92516   5.929   5.023   5.128  0.7633  0.0989 -0.4340
  686MOL0     C92517   5.876   5.055   5.263  0.4984  0.0089 -0.3134
  686MOL0     C92518   5.993   5.071   5.356  0.0597 -0.5496  0.7896
  686MOL0     C92519   6.064   4.938   5.377  0.2764  0.0805 -1.6815
  686MOL0    Cl92520   5.957   4.829   5.454 -0.1534 -0.0670  0.1495
  686MOL0     C92521   5.932   4.877   4.378  0.6891  0.1361  0.8710
  686MOL0     C92522   5.907   4.789   4.275 -0.6571  0.2628 -0.2669
  686MOL0     O92523   5.633   4.810   4.020 -1.2222 -0.2474  1.2315
  686MOL0     C92524   5.822   4.549   3.881  0.1643 -0.2157 -0.3033
  686MOL0     C92525   5.848   4.468   3.769  0.2609  0.2688 -0.0508
  686MOL0     N92526   6.294   4.351   3.290 -0.5941 -0.0961  0.1461
  686MOL0     N92527   6.289   4.308   3.171 -0.3309  0.3570 -0.0686
  686MOL0     C92528   5.584   4.141   3.665  0.0185 -0.7614 -0.1245
  686MOL0     C92529   5.547   4.179   3.795 -0.1367 -0.2280 -0.0928
  686MOL0     C92530   5.255   4.217   4.175  0.1108 -0.8176 -0.0578
  686MOL0     C92531   5.128   4.210   4.232 -0.2140 -0.1169 -1.0203
  686MOL0     C92532   5.117   4.207   4.373 -0.5428 -0.6358 -1.1197
  686MOL0     C92533   5.227   4.207   4.457 -0.7708  0.3977  0.5844
  686MOL0     O92534   5.215   4.184   4.596 -0.0700  0.2296  0.2526
  686MOL0     C92535   5.326   4.209   4.678 -0.3820  0.5125 -0.4981
  686MOL0     C92536   5.368   4.356   4.679  1.3901  0.6651 -0.7459
  686MOL0     C92537   5.252   4.449   4.723  0.2641  0.5902 -1.1742
  686MOL0     C92538   5.166   4.391   4.833  0.2178  0.1469 -0.9941
  686MOL0     C92539   5.236   4.359   4.957  0.6518  0.6144  0.1575
  686MOL0     C92540   5.306   4.333   5.048  0.9149 -0.3741 -0.0224
  686MOL0     C92541   5.354   4.226   4.398 -0.0636  0.8926  0.2652
  686MOL0     C92542   5.365   4.223   4.260 -0.7355 -0.5380  0.3809
  686MOL0     H92543   5.231   4.048   3.808  2.0851 -2.6491  2.8794
  686MOL0     H92544   5.297   3.985   3.568 -0.0534  1.1699 -0.6289
  686MOL0     H92545   5.650   4.172   3.410  1.1330 -1.2452  2.9142
  686MOL0     H92546   5.696   4.001   3.434 -2.6856 -2.5077  0.7223
  686MOL0     H92547   5.599   3.934   3.232 -0.6249 -0.2912 -1.1457
  686MOL0     H92548   5.528   4.097   3.196 -0.1333  0.5503  2.0885
  686MOL0     H92549   5.757   4.196   3.196 -1.5859  0.2095 -0.3669
  686MOL0     H92550   5.829   4.046   3.234  1.2325  2.3207 -0.2752
  686MOL0     H92551   5.702   3.972   3.009 -0.1173  1.5663 -0.8596
  686MOL0     H92552   5.671   4.148   2.989 -1.6494 -0.5400  0.5912
  686MOL0     H92553   5.936   3.996   2.999  0.8499  0.4322  1.0627
  686MOL0     H92554   5.867   4.076   2.853  1.6756 -0.3191 -0.4800
  686MOL0     H92555   5.920   4.300   2.945 -0.0404  0.1528  0.6299
  686MOL0     H92556   5.963   4.225   3.100  4.9485  2.1309 -0.6035
  686MOL0     H92557   6.116   4.137   2.853 -1.0155  1.8490 -1.7856
  686MOL0     H92558   6.166   4.289   2.932  2.2275 -0.2528  0.7592
  686MOL0     H92559   6.287   4.089   2.996 -0.0499  1.3335  0.7054
  686MOL0     H92560   6.144   4.010   3.063 -0.3591  0.9258  2.6867
  686MOL0     H92561   6.134   4.073   3.338  1.0963 -2.0244 -3.8037
  686MOL0     H92562   6.138   4.197   3.554 -2.5420  1.2143  0.1271
  686MOL0     H92563   6.304   4.259   3.561  1.1161 -1.8650 -3.4587
  686MOL0     H92564   6.223   4.488   3.541 -1.8286  1.8091 -1.0814
  686MOL0     H92565   6.143   4.420   3.674  1.0642 -0.9534  0.8766
  686MOL0     H92566   6.023   4.469   3.396  0.0201  0.8082 -0.3290
  686MOL0     H92567   5.981   4.530   3.557  2.1522  1.0282 -0.4905
  686MOL0     H92568   5.927   4.253   3.590 -0.2216 -1.0824  0.1224
  686MOL0     H92569   5.880   4.275   3.430 -2.9126  0.6852  0.1481
  686MOL0     H92570   5.552   4.527   3.616  0.4921 -0.7311  0.1741
  686MOL0     H92571   5.398   4.586   3.894 -1.9115  1.4641  0.3835
  686MOL0     H92572   5.455   4.753   3.873 -3.0351 -0.6681  1.8679
  686MOL0     H92573   5.396   4.659   3.737 -5.1850 -0.3974  3.0514
  686MOL0     H92574   5.578   4.806   4.240  1.4063  2.1062 -3.1432
  686MOL0     H92575   5.608   4.961   4.444  1.0914 -2.1300  2.2972
  686MOL0     H92576   5.682   5.125   4.601 -2.6693  0.9910  3.2692
  686MOL0     H92577   5.711   4.960   4.676  0.0635 -0.2977 -0.0039
  686MOL0     H92578   5.897   5.187   4.742  1.9910 -2.5667 -0.5097
  686MOL0     H92579   5.735   5.200   4.804  0.5922 -0.0583  0.6543
  686MOL0     H92580   5.958   5.028   4.858 -0.3874 -0.5882 -0.5332
  686MOL0     H92581   5.813   4.926   4.855  3.5486 -1.6822  0.5021
  686MOL0     H92582   5.843   5.186   5.028  0.3546 -0.5400 -3.5969
  686MOL0     H92583   5.728   5.055   5.053 -0.2299  2.8780  0.5702
  686MOL0     H92584   6.028   5.062   5.106  0.0075  1.8076 -0.9460
  686MOL0     H92585   5.935   4.914   5.124 -0.9667 -0.1101  1.0079
  686MOL0     H92586   5.814   5.145   5.266  2.6037  1.5130  0.8214
  686MOL0     H92587   5.806   4.972   5.277  0.3027 -0.0574 -1.5333
  686MOL0     H92588   5.971   5.107   5.456 -0.0856 -1.6912  1.1904
  686MOL0     H92589   6.052   5.148   5.305  0.7872 -1.0786  0.7987
  686MOL0     H92590   6.143   4.958   5.450 -1.2160 -0.5656  0.2201
  686MOL0     H92591   6.105   4.888   5.289  2.0490 -0.0990 -0.8123
  686MOL0     H92592   6.025   4.909   4.423  0.4159 -0.8787  2.2014
  686MOL0     H92593   5.989   4.725   4.245 -1.7757 -1.8007  0.7649
  686MOL0     H92594   5.898   4.557   3.959  2.7343  0.9351 -2.7421
  686MOL0     H92595   5.943   4.417   3.759 -1.2926 -2.6751 -0.9707
  686MOL0     H92596   5.686   4.153   3.630  1.1399 -3.6301  1.7525
  686MOL0     H92597   5.625   4.221   3.858 -1.1127  2.0002 -0.2673
  686MOL0     H92598   5.041   4.220   4.169 -0.0599  0.0691 -1.2059
  686MOL0     H92599   5.021   4.200   4.424  0.7708 -0.0956  1.6128
  686MOL0     H92600   5.306   4.177   4.780 -2.3682  1.5741 -0.5000
  686MOL0     H92601   5.390   4.130   4.638 -2.5995 -2.2937  1.1076
  686MOL0     H92602   5.404   4.384   4.579 -1.7289  3.3487 -1.2999
  686MOL0     H92603   5.454   4.366   4.746 -1.2871  1.0099  2.9745
  686MOL0     H92604   5.194   4.466   4.632  1.9413 -2.5132 -2.9851
  686MOL0     H92605   5.301   4.537   4.764  0.1303 -0.2931  1.0757
  686MOL0     H92606   5.109   4.303   4.804 -1.7497  1.5731 -1.6269
  686MOL0     H92607   5.087   4.460   4.862  1.6745  1.5678 -0.2024
  686MOL0     H92608   5.365   4.297   5.129  0.2696 -0.1122  0.5705
  686MOL0     H92609   5.450   4.228   4.448  1.0723  1.6630 -1.8123
  686MOL0     H92610   5.458   4.239   4.207 -1.7483  0.0270 -1.3099
  687MOL0     O92611   7.668   5.124   3.661 -0.3362 -0.1743  0.4583
  687MOL0     C92612   7.667   5.234   3.601  1.2110 -0.4851  0.0733
  687MOL0     O92613   7.745   5.262   3.485 -0.3264 -0.1442 -0.1516
  687MOL0     C92614   7.821   5.169   3.422 -0.3165  1.6938  0.3095
  687MOL0     C92615   7.888   5.056   3.488  0.2926 -0.0187 -0.7075
  687MOL0     C92616   7.950   4.956   3.413  0.4009  0.1702 -0.0004
  687MOL0     C92617   7.956   4.961   3.275  0.3083 -0.4378 -0.3273
  687MOL0     O92618   8.002   4.865   3.201 -0.8932 -0.3308  0.3981
  687MOL0     C92619   8.141   4.827   3.222 -1.1352  0.6654 -0.3228
  687MOL0     C92620   8.233   4.923   3.147 -1.7727 -0.3388  0.3370
  687MOL0     C92621   8.272   5.035   3.243  0.8997 -0.0234  0.2323
  687MOL0     C92622   8.392   5.111   3.194 -0.4927 -1.4723 -0.0528
  687MOL0     C92623   8.429   5.224   3.294  0.1248 -0.4035 -0.1967
  687MOL0     C92624   8.495   5.341   3.224 -0.4180 -0.6534 -0.1173
  687MOL0     C92625   8.544   5.438   3.326  0.2313 -0.3932 -0.7984
  687MOL0     C92626   8.656   5.518   3.275  0.4025  0.3324  0.1265
  687MOL0     N92627   8.606   5.608   3.164 -0.4152  0.0988 -1.1283
  687MOL0     C92628   8.490   5.685   3.154 -0.4048 -0.1777 -0.5229
  687MOL0     C92629   8.489   5.756   3.042 -0.0915 -0.4960  0.3636
  687MOL0     C92630   8.381   5.838   2.983  0.0249 -0.8186 -1.3418
  687MOL0     C92631   8.281   5.748   2.891  0.2557 -1.3628  0.4460
  687MOL0     C92632   8.162   5.831   2.852  0.0497 -0.5227 -0.4872
  687MOL0     C92633   8.081   5.774   2.739  1.0060  1.1891  0.5776
  687MOL0     O92634   8.021   5.649   2.772 -0.4576  0.3471 -0.4274
  687MOL0     C92635   7.917   5.637   2.867 -0.2864 -0.7633 -0.4309
  687MOL0     C92636   7.848   5.740   2.924  0.4593 -0.4291  0.6834
  687MOL0     C92637   7.732   5.724   2.996 -0.0346 -0.7003 -0.5629
  687MOL0     C92638   7.665   5.858   3.044 -0.4101  0.4037  0.4009
  687MOL0     C92639   7.687   5.593   3.024  0.1312  0.1824  0.2142
  687MOL0     C92640   7.560   5.566   3.105 -0.2536 -0.7639  0.7172
  687MOL0     O92641   7.522   5.438   3.108  0.0686  0.2888 -0.2512
  687MOL0     C92642   7.430   5.401   3.213  0.6586  0.7732 -0.1049
  687MOL0     C92643   7.306   5.466   3.237  0.9185  0.3851  0.1589
  687MOL0     C92644   7.216   5.420   3.338 -0.0148 -0.2028  0.3635
  687MOL0     C92645   7.248   5.316   3.416 -0.4704  0.6261  0.7636
  687MOL0     O92646   7.154   5.265   3.509 -0.2833 -0.1120  0.3577
  687MOL0     C92647   7.162   5.336   3.626  0.0707 -0.9432 -0.1473
  687MOL0     C92648   7.041   5.297   3.715  0.0052  0.4443  0.0744
  687MOL0     C92649   7.067   5.154   3.754 -1.2533 -0.2533  0.1732
  687MOL0     C92650   6.954   5.102   3.839  0.4180 -0.2091 -0.1203
  687MOL0     C92651   6.972   4.985   3.923 -0.2147  1.1541 -0.8326
  687MOL0     C92652   6.853   4.942   3.992 -1.5371 -0.0108  0.5608
  687MOL0     C92653   6.854   4.789   4.017 -0.3293 -0.6010 -0.0819
  687MOL0     C92654   6.710   4.733   4.034 -0.5021 -0.1257 -0.3335
  687MOL0    Cl92655   6.669   4.795   4.200 -0.2107  0.4089  0.6586
  687MOL0     C92656   7.367   5.244   3.393  0.1008 -0.1745  0.2160
  687MOL0     C92657   7.462   5.289   3.293 -0.1866 -0.6908 -0.3093
  687MOL0     O92658   7.516   5.653   3.180 -0.0537  0.4623 -0.4750
  687MOL0     C92659   7.769   5.485   2.974  0.1384  0.1232 -1.2713
  687MOL0     C92660   7.879   5.504   2.902 -0.5366  0.5776  0.0169
  687MOL0     N92661   8.609   5.713   2.978  0.7570 -0.3129 -0.0258
  687MOL0     N92662   8.675   5.630   3.053  0.2312  0.3258 -0.0504
  687MOL0     C92663   7.912   5.076   3.218 -0.0723 -0.0365  0.5720
  687MOL0     C92664   7.838   5.168   3.286 -0.7004  0.4146  0.6535
  687MOL0     C92665   7.590   5.351   3.645 -0.3866 -0.3928 -0.0546
  687MOL0     C92666   7.594   5.472   3.572 -0.3256 -0.5093 -0.5249
  687MOL0     C92667   7.527   5.581   3.617  0.3206 -0.3611  0.7885
  687MOL0     C92668   7.435   5.574   3.727 -0.1476 -1.2682 -0.0963
  687MOL0     O92669   7.373   5.689   3.758 -0.3597 -0.3965 -0.4466
  687MOL0     C92670   7.252   5.677   3.845  0.6384 -0.7470 -0.3466
  687MOL0     C92671   7.177   5.806   3.842  0.0658  0.2835 -0.6008
  687MOL0     C92672   7.074   5.809   3.967  0.2405  0.4359  0.2090
  687MOL0     C92673   7.001   5.938   3.965 -0.1868 -1.3987  0.5138
  687MOL0     C92674   6.880   5.910   4.037 -0.5676  0.2469 -0.0901
  687MOL0     C92675   6.803   5.875   4.118  0.0989  0.0643 -0.4630
  687MOL0     C92676   7.427   5.458   3.792  0.2695 -0.4270 -0.4656
  687MOL0     C92677   7.508   5.353   3.768 -0.6352 -0.1236 -0.0450
  687MOL0     H92678   7.879   5.035   3.594 -0.0208 -1.2086 -0.9609
  687MOL0     H92679   7.992   4.870   3.463 -1.3662  1.0727  3.3984
  687MOL0     H92680   8.162   4.835   3.329 -1.0600  1.2884 -0.3808
  687MOL0     H92681   8.159   4.725   3.188 -1.5032  0.4346  0.1578
  687MOL0     H92682   8.328   4.874   3.122 -0.4565  1.8734  0.7766
  687MOL0     H92683   8.185   4.956   3.055 -0.7047  0.6869  0.1232
  687MOL0     H92684   8.197   5.115   3.247 -0.8881 -1.5536 -0.8619
  687MOL0     H92685   8.289   4.995   3.343  0.2520  2.4995  1.4482
  687MOL0     H92686   8.481   5.051   3.175  0.5766  0.2823 -0.8316
  687MOL0     H92687   8.369   5.161   3.100  2.7564 -0.0775 -0.2240
  687MOL0     H92688   8.338   5.250   3.349  1.1682  0.4425  1.2065
  687MOL0     H92689   8.496   5.173   3.364  2.4941  0.5454 -1.6630
  687MOL0     H92690   8.578   5.299   3.166 -0.8510  1.2414 -2.2762
  687MOL0     H92691   8.426   5.382   3.149 -0.8525  1.2283  1.2212
  687MOL0     H92692   8.456   5.499   3.349 -0.3491 -1.3184 -0.5469
  687MOL0     H92693   8.581   5.381   3.412  0.9043  1.8435  0.4870
  687MOL0     H92694   8.730   5.446   3.240  3.1596  1.8434  2.4038
  687MOL0     H92695   8.694   5.579   3.358 -0.5223 -0.4181  1.1444
  687MOL0     H92696   8.415   5.684   3.233  0.2191 -2.3501  0.1179
  687MOL0     H92697   8.319   5.884   3.061  0.7698  0.9587 -1.7507
  687MOL0     H92698   8.427   5.920   2.928  1.7946  1.1969  2.7092
  687MOL0     H92699   8.244   5.664   2.951  0.4670 -2.6076 -1.0930
  687MOL0     H92700   8.346   5.712   2.810  1.7161  0.3002  0.8076
  687MOL0     H92701   8.193   5.930   2.818 -1.5655  0.3870  0.5486
  687MOL0     H92702   8.104   5.863   2.939 -1.1717  0.6576 -1.6922
  687MOL0     H92703   8.143   5.765   2.649 -0.7361  1.0539 -0.6513
  687MOL0     H92704   7.992   5.834   2.719 -0.8586 -1.1122  1.4825
  687MOL0     H92705   7.875   5.844   2.909 -1.0089 -0.2057 -0.7384
  687MOL0     H92706   7.700   5.951   2.997  1.8330 -1.8896 -2.9009
  687MOL0     H92707   7.557   5.869   3.026 -0.8520  2.9860  3.6377
  687MOL0     H92708   7.693   5.871   3.149 -0.0238  1.4777  0.1834
  687MOL0     H92709   7.276   5.547   3.171  2.0402 -0.2664 -1.1929
  687MOL0     H92710   7.122   5.472   3.349 -0.5329 -1.5777  3.3938
  687MOL0     H92711   7.251   5.305   3.681 -1.3077 -3.0943  0.9971
  687MOL0     H92712   7.161   5.445   3.613 -1.7705 -0.6725  1.8945
  687MOL0     H92713   7.038   5.364   3.801 -0.2593 -1.0562  1.2800
  687MOL0     H92714   6.948   5.297   3.657 -0.0700  1.5648  0.1722
  687MOL0     H92715   7.159   5.137   3.811  0.5766 -2.5835 -3.1065
  687MOL0     H92716   7.076   5.097   3.660  3.0657  0.9288 -0.3302
  687MOL0     H92717   6.917   5.186   3.899  0.3259  0.8312 -1.5884
  687MOL0     H92718   6.868   5.069   3.779  0.9190 -0.7355 -0.5665
  687MOL0     H92719   7.061   4.993   3.987 -1.2782  2.5563  0.5537
  687MOL0     H92720   7.005   4.906   3.855 -1.6671  1.1851 -1.5978
  687MOL0     H92721   6.846   4.993   4.089 -0.4748  1.5410 -0.1456
  687MOL0     H92722   6.771   4.984   3.933 -0.0012  2.4212  0.0221
  687MOL0     H92723   6.918   4.772   4.104 -2.2802  1.5799  1.9230
  687MOL0     H92724   6.881   4.728   3.930  0.0241 -1.4714  0.6236
  687MOL0     H92725   6.724   4.625   4.044 -1.4268 -0.1407  1.0440
  687MOL0     H92726   6.639   4.743   3.951  2.7527 -1.1010 -3.4897
  687MOL0     H92727   7.390   5.143   3.426 -3.5790 -1.6723 -1.2431
  687MOL0     H92728   7.552   5.234   3.267 -0.3271 -0.0870 -2.1634
  687MOL0     H92729   7.749   5.380   2.992 -1.8462  0.4647 -1.2690
  687MOL0     H92730   7.932   5.418   2.863 -0.2876 -0.2796  2.1287
  687MOL0     H92731   7.932   5.089   3.112 -2.5679 -0.3136  0.0134
  687MOL0     H92732   7.787   5.241   3.225 -0.4168 -1.6940 -2.2990
  687MOL0     H92733   7.655   5.480   3.482  1.6892  3.3866  0.9476
  687MOL0     H92734   7.540   5.672   3.559 -2.1032  1.4692  2.8767
  687MOL0     H92735   7.179   5.598   3.823 -1.2092  1.0119 -0.8321
  687MOL0     H92736   7.279   5.653   3.948  0.7930  2.1550  0.3553
  687MOL0     H92737   7.124   5.820   3.748  1.2203  0.8104 -1.1962
  687MOL0     H92738   7.243   5.892   3.858 -2.2470  1.7273  2.1221
  687MOL0     H92739   7.123   5.786   4.062 -4.1102 -6.2698  1.5362
  687MOL0     H92740   7.001   5.728   3.967  1.0709 -0.3283  0.9016
  687MOL0     H92741   6.983   5.984   3.868  0.1045  0.4208  1.2620
  687MOL0     H92742   7.061   6.001   4.032  2.4168  2.4423 -4.7162
  687MOL0     H92743   6.727   5.841   4.185 -0.1144 -5.7611 -3.1118
  687MOL0     H92744   7.354   5.437   3.870  1.3546 -1.9881  0.1647
  687MOL0     H92745   7.519   5.264   3.829 -0.4738 -0.3552 -0.4112
  688MOL0     O92746  10.234   8.664   1.737 -0.1742  0.1898  0.2811
  688MOL0     C92747  10.191   8.592   1.649  0.2406 -1.2647  0.2478
  688MOL0     O92748  10.260   8.485   1.604 -0.2432 -0.6786 -0.0867
  688MOL0     C92749  10.370   8.438   1.671  1.5387  0.3835 -0.4726
  688MOL0     C92750  10.483   8.517   1.708 -0.3906  0.3180  0.8517
  688MOL0     C92751  10.588   8.453   1.768  0.7450 -0.5172  0.8375
  688MOL0     C92752  10.580   8.323   1.802  0.4281  0.2704  0.5891
  688MOL0     O92753  10.679   8.257   1.877  0.8996 -0.5829  0.5016
  688MOL0     C92754  10.781   8.331   1.934 -0.3961 -0.4241  0.4793
  688MOL0     C92755  10.878   8.239   2.007  0.3348 -0.2924 -0.6760
  688MOL0     C92756  10.919   8.121   1.925  0.1495 -0.2907 -0.3327
  688MOL0     C92757  11.052   8.056   1.978  0.0306 -0.3793 -0.3480
  688MOL0     C92758  11.037   7.984   2.112 -0.2730  0.3753  0.8055
  688MOL0     C92759  11.167   7.945   2.167  0.2966  0.1680  0.6846
  688MOL0     C92760  11.157   7.868   2.302  0.0473  0.2484  0.3285
  688MOL0     C92761  11.297   7.838   2.362  1.1654  0.6616  0.2402
  688MOL0     N92762  11.378   7.765   2.264  0.4687  0.8184  0.0039
  688MOL0     C92763  11.355   7.633   2.223  0.2407  1.0727 -0.0590
  688MOL0     C92764  11.440   7.614   2.122  0.0457 -0.2277  0.1187
  688MOL0     C92765  11.455   7.484   2.044  0.4503  0.5752  1.3268
  688MOL0     C92766  11.583   7.408   2.084 -0.5249  0.0138  0.1232
  688MOL0     C92767  11.551   7.317   2.194  0.7914 -0.0207  0.0672
  688MOL0     C92768  11.691   7.279   2.252 -0.0695  0.6181  0.1534
  688MOL0     O92769  11.769   7.393   2.312  0.3709 -0.4913  0.0548
  688MOL0     C92770  11.706   7.473   2.402  0.4406 -0.7054  0.2396
  688MOL0     C92771  11.633   7.437   2.513 -0.9558  1.3228  0.4503
  688MOL0     C92772  11.576   7.524   2.594 -0.3085 -1.5578  0.3533
  688MOL0     C92773  11.483   7.481   2.696 -0.2339  0.6903  0.2763
  688MOL0     C92774  11.603   7.663   2.580  0.3847 -0.5291  0.5783
  688MOL0     C92775  11.556   7.772   2.659 -0.3185 -0.3851  0.2698
  688MOL0     O92776  11.601   7.903   2.624  0.2354  0.0260 -1.0054
  688MOL0     C92777  11.572   7.986   2.728  0.0497  0.1602  0.4097
  688MOL0     C92778  11.452   8.054   2.738  1.2770  0.4973  0.4185
  688MOL0     C92779  11.422   8.134   2.849  0.7077  0.6643 -1.2969
  688MOL0     C92780  11.521   8.156   2.943 -0.1738  0.6115  0.6124
  688MOL0     O92781  11.514   8.225   3.060  0.4237  0.2459 -0.1009
  688MOL0     C92782  11.387   8.238   3.125  0.7039 -0.2701  0.1428
  688MOL0     C92783  11.420   8.298   3.256 -0.4004  1.1170  0.2834
  688MOL0     C92784  11.297   8.360   3.337 -0.0902  0.0488 -0.3190
  688MOL0     C92785  11.352   8.477   3.426  0.0798 -0.6139  0.3735
  688MOL0     C92786  11.436   8.422   3.545  0.3872 -0.3713  0.4306
  688MOL0     C92787  11.416   8.509   3.668 -0.4964 -0.6206  0.7127
  688MOL0     C92788  11.504   8.458   3.784 -0.0374 -1.0560 -0.1192
  688MOL0     C92789  11.443   8.506   3.911  0.0688  0.3511  0.1258
  688MOL0    Cl92790  11.305   8.410   3.984  0.0771 -0.2418 -0.2536
  688MOL0     C92791  11.637   8.079   2.941  1.0824 -0.4768 -0.5166
  688MOL0     C92792  11.669   8.003   2.834  0.1498 -0.5277  0.3191
  688MOL0     O92793  11.482   7.746   2.752  0.5977  0.6474 -0.4461
  688MOL0     C92794  11.683   7.704   2.469 -0.9498 -0.3799  0.0351
  688MOL0     C92795  11.737   7.609   2.379 -0.3124 -0.5538  0.1806
  688MOL0     N92796  11.516   7.729   2.102  0.0011 -0.5680  0.7310
  688MOL0     N92797  11.474   7.812   2.183 -0.6474  0.5004 -0.1076
  688MOL0     C92798  10.466   8.245   1.771  0.3412 -0.8765  0.1514
  688MOL0     C92799  10.363   8.303   1.701  0.4908 -0.5463  0.0539
  688MOL0     C92800  10.065   8.617   1.587  0.6657  0.5267  0.6955
  688MOL0     C92801  10.038   8.550   1.461 -0.0091  0.6082  0.1172
  688MOL0     C92802   9.925   8.563   1.387  0.1223  0.1478  0.1632
  688MOL0     C92803   9.818   8.635   1.450 -1.9139  0.4895  0.2176
  688MOL0     O92804   9.704   8.628   1.377 -0.4607  0.5862  0.1302
  688MOL0     C92805   9.585   8.695   1.431  0.5104 -0.6276 -0.5957
  688MOL0     C92806   9.457   8.664   1.360 -0.0401  0.3344 -0.2963
  688MOL0     C92807   9.337   8.759   1.392  0.7491 -0.3805  0.2376
  688MOL0     C92808   9.341   8.887   1.306  0.1220 -0.9265 -1.4617
  688MOL0     C92809   9.281   8.871   1.177  0.5834  0.0442 -0.6881
  688MOL0     C92810   9.246   8.867   1.062 -1.1183  0.5131 -0.6160
  688MOL0     C92811   9.833   8.715   1.568 -0.5919 -0.5702 -0.6466
  688MOL0     C92812   9.960   8.696   1.643  0.0921  0.3134 -0.3921
  688MOL0     H92813  10.490   8.624   1.693  1.8668  0.0406 -0.6081
  688MOL0     H92814  10.663   8.523   1.801 -0.1633  0.2730  1.2787
  688MOL0     H92815  10.825   8.397   1.858 -2.5992  2.6792  1.6945
  688MOL0     H92816  10.737   8.404   2.003 -1.1769  0.1872 -0.6253
  688MOL0     H92817  10.965   8.298   2.035  1.5464 -2.5692  0.6412
  688MOL0     H92818  10.822   8.215   2.098  2.0874 -0.3136  0.4386
  688MOL0     H92819  10.847   8.039   1.919  1.8604 -1.7266 -2.3876
  688MOL0     H92820  10.939   8.158   1.824 -1.9482  2.3055  0.0756
  688MOL0     H92821  11.095   7.988   1.904 -1.5358 -1.0184 -0.7167
  688MOL0     H92822  11.127   8.135   1.987  1.9633 -1.9459 -2.0073
  688MOL0     H92823  10.981   8.039   2.188 -0.8134  0.2125  0.5354
  688MOL0     H92824  10.983   7.891   2.090  1.9009 -0.8288  0.2955
  688MOL0     H92825  11.209   7.883   2.088 -3.3079 -0.9092 -0.5767
  688MOL0     H92826  11.228   8.036   2.172  0.6930  0.1515 -2.1915
  688MOL0     H92827  11.104   7.929   2.375  1.6820  1.9815  0.1583
  688MOL0     H92828  11.102   7.777   2.276 -0.6306  1.0463 -1.1859
  688MOL0     H92829  11.278   7.781   2.453 -1.9553 -0.8658 -1.2028
  688MOL0     H92830  11.349   7.933   2.379 -1.0535  1.8666  0.6307
  688MOL0     H92831  11.282   7.568   2.269  0.6379  0.7624  0.1422
  688MOL0     H92832  11.362   7.427   2.047  1.8635 -1.9292  0.4154
  688MOL0     H92833  11.469   7.508   1.938 -0.5262 -4.6140 -0.2463
  688MOL0     H92834  11.661   7.478   2.116  0.5400 -0.3214 -1.6481
  688MOL0     H92835  11.624   7.357   1.997  3.1378 -0.7720  2.0667
  688MOL0     H92836  11.487   7.232   2.169 -2.6783  2.3400  0.0556
  688MOL0     H92837  11.494   7.373   2.270  2.9245  2.3812  0.0336
  688MOL0     H92838  11.740   7.229   2.168 -0.5487 -1.9169  1.2858
  688MOL0     H92839  11.681   7.197   2.324  1.3723  0.3994  0.1231
  688MOL0     H92840  11.628   7.330   2.528  2.3053  0.3534 -3.4758
  688MOL0     H92841  11.457   7.374   2.689  2.5221  0.0037 -0.6248
  688MOL0     H92842  11.533   7.492   2.792 -0.7718  0.3947  0.6009
  688MOL0     H92843  11.390   7.538   2.687 -0.6798 -0.2903 -2.1023
  688MOL0     H92844  11.372   8.034   2.667  1.8845  1.4535 -0.5784
  688MOL0     H92845  11.331   8.190   2.864 -1.2421 -2.6817  0.7265
  688MOL0     H92846  11.318   8.306   3.074  1.3837 -0.1890 -0.6903
  688MOL0     H92847  11.351   8.139   3.153  1.7942 -0.9832 -0.8704
  688MOL0     H92848  11.485   8.231   3.312 -0.9665  0.8567  0.6342
  688MOL0     H92849  11.486   8.381   3.228  0.4319  0.1243 -0.7427
  688MOL0     H92850  11.252   8.278   3.395  1.9560 -0.8667  0.0672
  688MOL0     H92851  11.230   8.401   3.261  0.1125  0.5103 -0.2546
  688MOL0     H92852  11.412   8.550   3.372  0.1570 -0.2641  0.9312
  688MOL0     H92853  11.266   8.531   3.467  0.3878 -0.9724  1.5215
  688MOL0     H92854  11.544   8.423   3.524 -0.1824 -0.1464 -3.0994
  688MOL0     H92855  11.389   8.326   3.563 -1.8487  0.5508 -0.1755
  688MOL0     H92856  11.434   8.614   3.640  0.2673 -1.0039 -0.2781
  688MOL0     H92857  11.315   8.514   3.709 -0.9180 -0.2371 -0.3431
  688MOL0     H92858  11.603   8.501   3.770 -0.3676 -0.0434  0.5010
  688MOL0     H92859  11.512   8.350   3.772 -2.0265 -0.9939 -2.8628
  688MOL0     H92860  11.416   8.612   3.905 -2.4649 -0.2563  0.0582
  688MOL0     H92861  11.525   8.503   3.983 -1.4338  1.8992  2.0126
  688MOL0     H92862  11.712   8.097   3.017  1.9618 -1.9329 -0.9919
  688MOL0     H92863  11.762   7.947   2.825 -2.8466 -6.2821  0.2001
  688MOL0     H92864  11.704   7.809   2.450  1.1396 -0.5475  1.0180
  688MOL0     H92865  11.788   7.638   2.288 -1.1899 -3.7790 -1.4969
  688MOL0     H92866  10.451   8.142   1.800 -2.2873  0.1475  2.9710
  688MOL0     H92867  10.268   8.256   1.674 -0.1620  1.0871 -0.6117
  688MOL0     H92868  10.125   8.505   1.415 -0.6266  0.5558 -1.0350
  688MOL0     H92869   9.905   8.516   1.291  1.3407  1.1682 -0.6243
  688MOL0     H92870   9.570   8.688   1.539 -2.7416 -0.7088 -0.9670
  688MOL0     H92871   9.598   8.801   1.410 -2.9830  0.0553  0.0376
  688MOL0     H92872   9.426   8.561   1.383 -1.0282 -0.1838 -3.3860
  688MOL0     H92873   9.471   8.669   1.252  3.8509  1.1621  0.0939
  688MOL0     H92874   9.341   8.791   1.496 -1.0473 -0.4197  0.3497
  688MOL0     H92875   9.244   8.706   1.371  1.7623 -2.8562  1.6160
  688MOL0     H92876   9.446   8.915   1.290  0.8493 -2.7147 -0.2058
  688MOL0     H92877   9.294   8.970   1.360  0.3894 -2.5803  1.5635
  688MOL0     H92878   9.218   8.843   0.961 -1.3921 -0.9999 -0.2071
  688MOL0     H92879   9.754   8.771   1.616  0.8743  0.1859  1.0090
  688MOL0     H92880   9.977   8.747   1.738 -1.3755  0.5985 -0.2630
  689MOL0     O92881   5.872   0.719   0.908 -0.2205  0.0525 -0.2723
  689MOL0     C92882   5.753   0.725   0.898  0.6787  0.5883 -0.4653
  689MOL0     O92883   5.676   0.652   0.807  0.8114 -0.6999  0.5373
  689MOL0     C92884   5.740   0.567   0.726  0.0855 -0.1453  0.2955
  689MOL0     C92885   5.709   0.435   0.725 -0.4929  0.4201  0.0127
  689MOL0     C92886   5.773   0.341   0.648 -0.5008 -0.4540  0.3998
  689MOL0     C92887   5.868   0.382   0.558 -0.1519 -0.0526 -0.1964
  689MOL0     O92888   5.931   0.283   0.483 -0.0709 -0.4467  0.6426
  689MOL0     C92889   6.016   0.312   0.379 -0.7554 -1.4343 -0.1047
  689MOL0     C92890   6.092   0.188   0.336  0.2205 -0.2532  0.0742
  689MOL0     C92891   6.205   0.214   0.233  0.1982  0.0712  0.3149
  689MOL0     C92892   6.277   0.097   0.174 -0.1718  0.4285 -0.0343
  689MOL0     C92893   6.364   0.130   0.049 -0.6557  0.0337  0.0987
  689MOL0     C92894   6.410   0.010  -0.031 -0.1415 -0.7052  0.2993
  689MOL0     C92895   6.556  -0.025   0.006  0.3169 -0.4747  0.4838
  689MOL0     C92896   6.598  -0.171  -0.038 -0.0448 -0.0992  0.8721
  689MOL0     N92897   6.619  -0.169  -0.190 -0.1914 -0.7618 -0.8823
  689MOL0     C92898   6.551  -0.242  -0.273  0.3794  0.3719  0.8172
  689MOL0     C92899   6.618  -0.222  -0.391  0.5771  0.0488 -0.6651
  689MOL0     C92900   6.568  -0.267  -0.523  0.1693 -0.0772 -0.2588
  689MOL0     C92901   6.450  -0.179  -0.572 -0.0071 -0.7546 -0.0805
  689MOL0     C92902   6.392  -0.211  -0.714  0.3855 -0.1169  0.5322
  689MOL0     C92903   6.404  -0.363  -0.743  0.0183 -0.5498  1.0566
  689MOL0     O92904   6.363  -0.388  -0.884 -0.1638  0.0163 -0.4243
  689MOL0     C92905   6.400  -0.500  -0.944 -0.2503  0.3461 -0.2727
  689MOL0     C92906   6.376  -0.500  -1.083 -0.1212 -0.4160  0.8359
  689MOL0     C92907   6.401  -0.621  -1.153 -0.9588  0.5812 -0.6271
  689MOL0     C92908   6.371  -0.619  -1.304 -0.1425  0.4824  1.0042
  689MOL0     C92909   6.424  -0.738  -1.086 -0.5030  0.5545 -0.4359
  689MOL0     C92910   6.420  -0.882  -1.140 -0.2374 -0.4446 -0.3508
  689MOL0     O92911   6.451  -0.984  -1.053 -0.3062 -0.2126 -0.3451
  689MOL0     C92912   6.390  -1.100  -1.066  0.4529  0.0208 -0.2108
  689MOL0     C92913   6.260  -1.126  -1.136 -0.2763  0.6367 -0.2270
  689MOL0     C92914   6.195  -1.247  -1.116  0.2364 -0.5139  0.1100
  689MOL0     C92915   6.266  -1.358  -1.064 -0.3253  0.1899 -0.0930
  689MOL0     O92916   6.208  -1.485  -1.050  0.5217  0.9050 -0.0966
  689MOL0     C92917   6.293  -1.593  -1.004  0.0612  0.6472  0.1897
  689MOL0     C92918   6.228  -1.743  -1.028 -0.1798  0.1036 -0.4481
  689MOL0     C92919   6.342  -1.844  -1.024 -0.4028 -1.0271 -0.4174
  689MOL0     C92920   6.273  -1.970  -1.082 -1.0025 -0.4211  0.9141
  689MOL0     C92921   6.363  -2.101  -1.100 -0.1672 -0.0934  0.3955
  689MOL0     C92922   6.490  -2.064  -1.175  0.1129 -0.4155  0.0103
  689MOL0     C92923   6.548  -2.171  -1.260  0.2782  0.3085 -0.0522
  689MOL0     C92924   6.457  -2.242  -1.369 -1.1529 -0.3170  0.2501
  689MOL0    Cl92925   6.552  -2.354  -1.469 -0.3512 -0.0087  0.6856
  689MOL0     C92926   6.394  -1.335  -1.012 -0.2219 -0.4446 -0.1408
  689MOL0     C92927   6.449  -1.210  -1.006 -0.4436 -0.2217 -0.0234
  689MOL0     O92928   6.400  -0.907  -1.255  0.6407 -0.3474 -0.2300
  689MOL0     C92929   6.452  -0.742  -0.949  0.3164 -0.7209 -0.4482
  689MOL0     C92930   6.443  -0.621  -0.886 -0.3086  0.9889 -0.4569
  689MOL0     N92931   6.718  -0.129  -0.369 -0.3978 -0.9029 -0.1211
  689MOL0     N92932   6.709  -0.094  -0.251  0.4981 -0.5849 -0.1509
  689MOL0     C92933   5.913   0.520   0.566  0.6095  0.4636 -0.2230
  689MOL0     C92934   5.843   0.611   0.639  0.7067 -0.3733 -0.5545
  689MOL0     C92935   5.676   0.791   1.012 -0.6389 -0.2177  0.1191
  689MOL0     C92936   5.541   0.817   0.992 -1.2965  0.1727 -0.9389
  689MOL0     C92937   5.477   0.876   1.108 -0.1428  0.2620 -0.3271
  689MOL0     C92938   5.541   0.886   1.226  0.3715 -0.2053  0.0410
  689MOL0     O92939   5.457   0.926   1.323 -0.0802 -0.5022  0.3024
  689MOL0     C92940   5.476   0.897   1.462 -0.0188 -0.0535 -1.0097
  689MOL0     C92941   5.346   0.840   1.537 -1.1560  0.1976  0.3807
  689MOL0     C92942   5.380   0.760   1.664 -1.0162  0.3531 -0.7013
  689MOL0     C92943   5.250   0.724   1.745  0.2257 -0.5915 -1.0864
  689MOL0     C92944   5.299   0.682   1.878 -0.4972 -0.2046 -0.5364
  689MOL0     C92945   5.342   0.641   1.987  0.1376 -0.6893  1.1880
  689MOL0     C92946   5.680   0.864   1.243  0.3028  0.4730  0.1224
  689MOL0     C92947   5.743   0.812   1.130 -0.4266 -0.7407 -0.8107
  689MOL0     H92948   5.634   0.394   0.792 -1.5998  0.6181 -1.0670
  689MOL0     H92949   5.732   0.241   0.646 -0.4308 -0.5229 -2.5037
  689MOL0     H92950   5.963   0.347   0.290  2.4498 -2.7915 -2.7372
  689MOL0     H92951   6.086   0.389   0.414 -3.2341  0.4947  0.9766
  689MOL0     H92952   6.128   0.153   0.433  0.0512 -1.5500 -0.3202
  689MOL0     H92953   6.022   0.118   0.290 -2.7650  2.6306 -0.2195
  689MOL0     H92954   6.155   0.262   0.149  1.9606 -1.9861 -2.0594
  689MOL0     H92955   6.275   0.278   0.287  0.0776  2.6127 -2.2639
  689MOL0     H92956   6.341   0.061   0.256  3.6493 -1.0771 -3.3258
  689MOL0     H92957   6.202   0.027   0.138 -2.5271  2.5966  0.4124
  689MOL0     H92958   6.310   0.197  -0.018  1.0947  3.2068  1.6736
  689MOL0     H92959   6.452   0.184   0.086  1.3547 -3.5905  1.1155
  689MOL0     H92960   6.346  -0.076  -0.006  1.4608 -2.0422  0.0007
  689MOL0     H92961   6.404   0.025  -0.139 -1.5106  2.4214  0.7167
  689MOL0     H92962   6.619   0.051  -0.041 -1.0203  0.2869 -0.1355
  689MOL0     H92963   6.569  -0.027   0.114  0.7481  0.7906  0.4658
  689MOL0     H92964   6.522  -0.242  -0.006  0.4400 -0.3782  1.4270
  689MOL0     H92965   6.686  -0.199   0.020 -0.5978 -0.9133  1.3219
  689MOL0     H92966   6.456  -0.293  -0.258 -0.2929  0.3284 -2.6928
  689MOL0     H92967   6.651  -0.269  -0.594 -1.1927 -1.0392 -1.9089
  689MOL0     H92968   6.535  -0.371  -0.514 -0.3075  0.0345 -0.6478
  689MOL0     H92969   6.489  -0.076  -0.580 -0.0748 -0.5735  1.5675
  689MOL0     H92970   6.364  -0.191  -0.505  1.7531 -2.5345  2.0330
  689MOL0     H92971   6.452  -0.159  -0.789 -1.5176  2.6167  0.7783
  689MOL0     H92972   6.289  -0.183  -0.733  1.3668  1.4306 -3.2335
  689MOL0     H92973   6.344  -0.423  -0.675 -0.4522  2.2273  3.2914
  689MOL0     H92974   6.507  -0.395  -0.726 -1.0862 -4.0586  1.8401
  689MOL0     H92975   6.340  -0.419  -1.146 -1.1174 -1.4825 -0.0054
  689MOL0     H92976   6.446  -0.689  -1.340  2.5065  3.5352  0.0674
  689MOL0     H92977   6.264  -0.639  -1.313  0.5620 -3.5646 -0.6344
  689MOL0     H92978   6.399  -0.524  -1.351  2.3806 -0.4883  0.3501
  689MOL0     H92979   6.207  -1.064  -1.208  0.5018  0.9066 -0.5816
  689MOL0     H92980   6.095  -1.260  -1.158  0.0328  1.2609 -0.0271
  689MOL0     H92981   6.389  -1.595  -1.055 -0.7562 -1.8875 -1.4608
  689MOL0     H92982   6.305  -1.580  -0.896 -2.6255 -3.1219  1.1404
  689MOL0     H92983   6.136  -1.752  -0.969  1.4128  1.2645  2.4259
  689MOL0     H92984   6.189  -1.748  -1.130  0.3388 -0.1824 -0.6361
  689MOL0     H92985   6.388  -1.861  -0.926 -1.3330 -2.2882 -0.1712
  689MOL0     H92986   6.414  -1.815  -1.101  0.2058 -4.1452 -1.1726
  689MOL0     H92987   6.193  -2.007  -1.017 -1.1914 -2.0467 -0.1817
  689MOL0     H92988   6.226  -1.951  -1.180 -4.0732 -3.0870  1.6807
  689MOL0     H92989   6.295  -2.170  -1.152  0.5179 -1.2537  0.9870
  689MOL0     H92990   6.390  -2.135  -0.999 -0.3024 -0.9385  0.1514
  689MOL0     H92991   6.452  -1.996  -1.252 -1.6978 -2.4894 -1.0668
  689MOL0     H92992   6.561  -2.013  -1.110 -0.7982 -0.0586  0.7395
  689MOL0     H92993   6.595  -2.247  -1.198 -2.6313 -0.0632  1.8780
  689MOL0     H92994   6.628  -2.118  -1.314  1.2761 -3.5020 -2.7597
  689MOL0     H92995   6.400  -2.175  -1.433 -2.0605 -0.2403  1.1051
  689MOL0     H92996   6.388  -2.301  -1.308 -0.5794 -0.4874  0.7453
  689MOL0     H92997   6.452  -1.411  -0.961 -2.0480 -1.1828  0.9424
  689MOL0     H92998   6.545  -1.192  -0.958 -1.3932 -0.6870  2.1522
  689MOL0     H92999   6.470  -0.829  -0.885 -0.3957 -0.5324  0.0194
  689MOL0     H93000   6.456  -0.630  -0.778  1.9004  3.7576 -0.4020
  689MOL0     H93001   5.993   0.557   0.503  2.0735  0.6506  1.6856
  689MOL0     H93002   5.871   0.716   0.639  0.8013 -0.3475  1.4911
  689MOL0     H93003   5.495   0.804   0.895 -1.4695  2.0630 -1.1463
  689MOL0     H93004   5.373   0.908   1.112 -0.1733  0.0395  1.7799
  689MOL0     H93005   5.561   0.828   1.468 -0.0892 -0.2934 -2.4131
  689MOL0     H93006   5.504   0.992   1.508 -1.9477  0.6013 -1.1400
  689MOL0     H93007   5.303   0.775   1.461 -2.8245  2.5337 -0.8066
  689MOL0     H93008   5.275   0.921   1.556 -0.5143 -0.0719  5.3879
  689MOL0     H93009   5.447   0.824   1.723  0.3890 -2.0850  0.4790
  689MOL0     H93010   5.427   0.668   1.630 -0.9651  0.3805 -0.7048
  689MOL0     H93011   5.185   0.646   1.705 -3.9191  0.8217  2.1869
  689MOL0     H93012   5.181   0.808   1.758 -0.7058 -1.5355  0.4275
  689MOL0     H93013   5.389   0.610   2.078  1.7620  0.4450  0.7775
  689MOL0     H93014   5.726   0.899   1.335 -0.4982 -1.2814  1.2392
  689MOL0     H93015   5.849   0.788   1.131  0.3496  2.0391 -2.8343
  690MOL0     O93016   0.365   1.837   5.516  0.1242  1.0444  0.2229
  690MOL0     C93017   0.269   1.883   5.575  0.5437  0.5445  0.9560
  690MOL0     O93018   0.250   1.891   5.707  0.0144  0.2465  0.3560
  690MOL0     C93019   0.342   1.822   5.784  0.2393 -0.0462  0.3191
  690MOL0     C93020   0.471   1.853   5.770 -0.5609  0.2932 -0.7192
  690MOL0     C93021   0.564   1.792   5.855 -0.2993  0.1499 -0.1591
  690MOL0     C93022   0.534   1.690   5.945  0.5277  0.5742  0.5417
  690MOL0     O93023   0.624   1.613   6.013 -0.2706  0.4413  0.1151
  690MOL0     C93024   0.764   1.638   6.006 -0.5563 -0.5757 -0.0146
  690MOL0     C93025   0.834   1.501   6.022  0.4935  0.2567  0.6502
  690MOL0     C93026   0.986   1.525   6.008 -0.2492 -0.2010 -0.9130
  690MOL0     C93027   1.039   1.495   5.865 -0.9003  0.7417 -0.4726
  690MOL0     C93028   1.194   1.517   5.857 -0.3272  0.7163 -0.5880
  690MOL0     C93029   1.274   1.412   5.928  0.2082  0.6272  0.1180
  690MOL0     C93030   1.423   1.445   5.907 -0.2231  0.4158 -0.4670
  690MOL0     C93031   1.508   1.349   5.990 -0.8632  0.7026  0.3313
  690MOL0     N93032   1.647   1.375   5.949  0.1280 -0.6376  0.4212
  690MOL0     C93033   1.721   1.286   5.882  0.2576  0.6608 -0.0499
  690MOL0     C93034   1.842   1.339   5.872 -0.0475 -0.1018  0.5795
  690MOL0     C93035   1.956   1.268   5.800  0.0138 -0.9454 -0.0790
  690MOL0     C93036   2.016   1.156   5.893  0.4094 -0.3344  0.0430
  690MOL0     C93037   2.130   1.075   5.830  0.8626  0.0994  0.2555
  690MOL0     C93038   2.182   0.966   5.909 -0.2448  0.7311  0.7538
  690MOL0     O93039   2.300   0.915   5.855 -0.2807 -0.2725  0.3067
  690MOL0     C93040   2.295   0.841   5.740  0.0364 -0.2676  0.0228
  690MOL0     C93041   2.188   0.773   5.692  0.1152  0.1821 -0.1882
  690MOL0     C93042   2.196   0.705   5.570  0.7960  0.1127  0.0461
  690MOL0     C93043   2.073   0.630   5.533  0.2371 -0.5430  1.0997
  690MOL0     C93044   2.314   0.687   5.495 -1.2508  0.5598 -0.0588
  690MOL0     C93045   2.335   0.607   5.374 -0.2815 -0.1361 -0.1716
  690MOL0     O93046   2.240   0.509   5.340  0.0843  0.3104  0.3754
  690MOL0     C93047   2.281   0.434   5.231 -0.0341  0.3965  0.1603
  690MOL0     C93048   2.361   0.325   5.255 -0.6069 -0.6597  0.2597
  690MOL0     C93049   2.423   0.250   5.150 -1.2950 -0.3218 -0.6903
  690MOL0     C93050   2.387   0.276   5.015  0.4042 -0.1296  0.4516
  690MOL0     O93051   2.442   0.212   4.907 -0.4450 -0.1241  0.3908
  690MOL0     C93052   2.557   0.116   4.922  0.2693  0.0204 -1.3981
  690MOL0     C93053   2.572   0.032   4.788  0.8626  0.4448  0.3196
  690MOL0     C93054   2.624   0.131   4.686  0.0125  0.2745 -0.3529
  690MOL0     C93055   2.768   0.178   4.723 -0.1317  0.0426 -0.0604
  690MOL0     C93056   2.858   0.210   4.599 -0.2633 -0.3082 -0.4139
  690MOL0     C93057   2.792   0.324   4.507 -0.1206  1.2029  0.5735
  690MOL0     C93058   2.885   0.378   4.403  0.0372  0.4556  0.3180
  690MOL0     C93059   2.805   0.450   4.293  0.3667 -0.7152  1.2541
  690MOL0    Cl93060   2.921   0.525   4.178 -0.2223  0.0062 -0.0156
  690MOL0     C93061   2.298   0.379   4.989  0.1504 -0.8449  0.7209
  690MOL0     C93062   2.257   0.461   5.097 -0.4127  0.2543  1.1679
  690MOL0     O93063   2.431   0.638   5.299  0.1325 -0.3228  0.6047
  690MOL0     C93064   2.422   0.763   5.535 -0.4882 -0.1771  0.6541
  690MOL0     C93065   2.407   0.851   5.652  0.0273  1.2026  0.1142
  690MOL0     N93066   1.837   1.466   5.929 -0.1863 -0.0947 -0.3322
  690MOL0     N93067   1.725   1.488   5.980  0.5850 -0.0704 -0.5269
  690MOL0     C93068   0.395   1.653   5.955 -0.3739 -0.1382  0.1352
  690MOL0     C93069   0.305   1.732   5.886 -0.0402 -0.6169  0.5812
  690MOL0     C93070   0.172   1.950   5.491  0.7827  0.0345 -0.9239
  690MOL0     C93071   0.067   2.021   5.545 -0.6858 -0.0133 -0.8391
  690MOL0     C93072  -0.028   2.086   5.464 -0.3726 -1.1526  0.2583
  690MOL0     C93073  -0.029   2.066   5.322 -0.5301  0.3375  0.0747
  690MOL0     O93074  -0.115   2.111   5.229  0.3904 -0.9688 -0.5116
  690MOL0     C93075  -0.223   2.193   5.268  0.4343 -1.5346  0.2892
  690MOL0     C93076  -0.339   2.116   5.333 -0.6705  0.4405 -0.8816
  690MOL0     C93077  -0.457   2.210   5.370 -0.2891 -0.6141  0.2848
  690MOL0     C93078  -0.588   2.138   5.409 -0.0153  0.0769 -0.2233
  690MOL0     C93079  -0.646   2.048   5.313  0.2573 -0.2497 -0.1693
  690MOL0     C93080  -0.708   1.967   5.248 -1.0750  1.0999 -0.3802
  690MOL0     C93081   0.069   1.979   5.271  0.6114 -0.8467  0.8371
  690MOL0     C93082   0.171   1.938   5.354 -0.3418  0.5117  0.1889
  690MOL0     H93083   0.494   1.937   5.706  1.1102  2.5436  2.5058
  690MOL0     H93084   0.664   1.834   5.847  0.0524 -0.4823  0.6951
  690MOL0     H93085   0.807   1.687   5.918  0.6467  0.6510  1.2123
  690MOL0     H93086   0.803   1.700   6.087  2.0777 -1.1828 -0.7175
  690MOL0     H93087   0.809   1.460   6.120  1.0556  0.3096  0.8225
  690MOL0     H93088   0.802   1.420   5.956  2.6510  0.5984 -0.9357
  690MOL0     H93089   1.027   1.621   6.040  1.8126 -1.2402 -0.2176
  690MOL0     H93090   1.015   1.444   6.076 -1.5974 -0.1085 -0.1897
  690MOL0     H93091   1.024   1.391   5.833  1.0321  1.0330 -2.6264
  690MOL0     H93092   0.993   1.559   5.789 -2.0590 -0.8402 -1.1692
  690MOL0     H93093   1.221   1.496   5.753 -0.5167 -0.1224 -0.4751
  690MOL0     H93094   1.218   1.619   5.890 -1.0150  0.7909 -0.3022
  690MOL0     H93095   1.246   1.419   6.034 -0.2210  0.0340  0.0461
  690MOL0     H93096   1.238   1.316   5.890  0.2704  0.9277 -0.6963
  690MOL0     H93097   1.440   1.440   5.799  0.8661 -0.2047 -0.2830
  690MOL0     H93098   1.440   1.547   5.943 -2.4827  0.4270  0.7324
  690MOL0     H93099   1.480   1.246   5.964 -2.7120  1.7649 -2.3655
  690MOL0     H93100   1.506   1.362   6.099  2.9737 -0.6363  0.7042
  690MOL0     H93101   1.684   1.190   5.847 -4.3908  2.6157 -1.2324
  690MOL0     H93102   1.905   1.221   5.716  0.7453  0.6779 -1.4839
  690MOL0     H93103   2.036   1.341   5.788  0.6246 -0.6143  4.1801
  690MOL0     H93104   1.939   1.088   5.930  1.8639 -2.0551  0.0548
  690MOL0     H93105   2.057   1.193   5.988  1.0115  0.2380 -0.4330
  690MOL0     H93106   2.203   1.151   5.803 -0.3595  0.4732 -2.3263
  690MOL0     H93107   2.092   1.035   5.735 -1.8652  1.1107  0.8499
  690MOL0     H93108   2.095   0.899   5.911 -0.4963  0.7133 -3.0393
  690MOL0     H93109   2.214   1.000   6.008 -0.9059 -0.6930  1.4786
  690MOL0     H93110   2.093   0.770   5.744 -0.5119  1.7870 -1.1574
  690MOL0     H93111   2.037   0.659   5.434  2.1616 -1.4078  0.0747
  690MOL0     H93112   2.104   0.525   5.522 -1.3151 -1.0929  1.7433
  690MOL0     H93113   1.987   0.637   5.599  1.1816  2.3157  2.1701
  690MOL0     H93114   2.375   0.312   5.361  2.0855 -0.1572  0.0308
  690MOL0     H93115   2.493   0.175   5.186 -1.6835 -2.5063 -4.0485
  690MOL0     H93116   2.645   0.173   4.954 -0.8817 -0.1072  2.4704
  690MOL0     H93117   2.533   0.044   5.001 -2.6138  0.4494 -1.7786
  690MOL0     H93118   2.644  -0.050   4.790 -0.4706 -0.7686  2.6060
  690MOL0     H93119   2.477  -0.011   4.755  1.1290 -0.7147  1.0069
  690MOL0     H93120   2.548   0.208   4.667  0.1259  0.0998 -1.6275
  690MOL0     H93121   2.626   0.093   4.583 -0.5168  2.4880 -1.2427
  690MOL0     H93122   2.775   0.248   4.807  2.7102  0.6619 -0.6932
  690MOL0     H93123   2.821   0.086   4.751  1.5800  1.3682  1.3286
  690MOL0     H93124   2.874   0.118   4.542 -0.4078  0.4304 -1.6752
  690MOL0     H93125   2.950   0.249   4.644 -1.5466  1.2558  0.9800
  690MOL0     H93126   2.703   0.287   4.455  0.7316  0.5208 -0.4494
  690MOL0     H93127   2.750   0.407   4.565 -0.6169  0.9793  0.5372
  690MOL0     H93128   2.941   0.293   4.362 -0.6698 -0.0450  0.3608
  690MOL0     H93129   2.964   0.435   4.451  1.9173 -0.3230 -1.6849
  690MOL0     H93130   2.764   0.537   4.346  1.3024 -0.1226  1.0402
  690MOL0     H93131   2.730   0.393   4.239 -0.0671  0.6998  0.2921
  690MOL0     H93132   2.266   0.416   4.893  2.2960  3.1786  1.3422
  690MOL0     H93133   2.190   0.536   5.056 -1.2718 -1.6275 -1.1845
  690MOL0     H93134   2.514   0.763   5.478  1.9953 -0.9973  4.3140
  690MOL0     H93135   2.501   0.902   5.670  2.4636 -1.6852 -3.1707
  690MOL0     H93136   0.362   1.570   6.016  0.0203  0.3348  1.0162
  690MOL0     H93137   0.202   1.698   5.893 -0.7452  1.0070 -1.0188
  690MOL0     H93138   0.054   2.037   5.651  2.6008 -1.8551 -0.0023
  690MOL0     H93139  -0.100   2.151   5.512  0.1032 -1.9179  2.0749
  690MOL0     H93140  -0.182   2.270   5.335  1.6056 -0.5817 -1.4485
  690MOL0     H93141  -0.260   2.255   5.187  0.6700 -0.8686  0.6831
  690MOL0     H93142  -0.292   2.087   5.427  3.1385  3.0209 -1.7546
  690MOL0     H93143  -0.367   2.027   5.276  2.1007 -0.8749 -0.3485
  690MOL0     H93144  -0.479   2.280   5.288  1.2863  0.7132  0.9466
  690MOL0     H93145  -0.431   2.272   5.456 -0.8035  0.0515 -0.0238
  690MOL0     H93146  -0.665   2.206   5.446  0.7998  0.4683  0.8070
  690MOL0     H93147  -0.555   2.074   5.491 -3.7064  0.2169  1.5832
  690MOL0     H93148  -0.764   1.900   5.185  0.7907  0.9207 -1.9540
  690MOL0     H93149   0.060   1.965   5.164 -0.2610 -0.8009  0.8968
  690MOL0     H93150   0.253   1.891   5.300 -1.6244  1.7267 -3.1314
  691MOL0     O93151   1.964   3.003   9.358 -0.8604  1.4053 -1.3224
  691MOL0     C93152   2.035   2.994   9.455  0.1588 -0.1736  0.6525
  691MOL0     O93153   2.168   3.031   9.452  0.3481  0.2577  0.0876
  691MOL0     C93154   2.230   3.014   9.336 -0.3335  0.4017  0.2741
  691MOL0     C93155   2.310   2.904   9.319 -0.2720  0.2504  0.3400
  691MOL0     C93156   2.378   2.885   9.193 -0.0435  0.0956 -0.2176
  691MOL0     C93157   2.358   2.980   9.091 -0.3092 -0.7243 -0.1321
  691MOL0     O93158   2.441   2.959   8.981 -0.8142 -0.0080  0.1707
  691MOL0     C93159   2.368   2.975   8.854 -0.4031 -0.3021 -0.0464
  691MOL0     C93160   2.473   2.981   8.735  0.1745 -0.4915  0.1665
  691MOL0     C93161   2.583   3.087   8.753 -0.9482 -1.6303 -0.3600
  691MOL0     C93162   2.535   3.230   8.779 -0.2540  0.0333  0.4480
  691MOL0     C93163   2.653   3.322   8.759  0.3394 -0.6018  0.0403
  691MOL0     C93164   2.593   3.465   8.753 -0.7284 -0.8078  0.0929
  691MOL0     C93165   2.503   3.515   8.631  0.3210 -0.5509  0.0907
  691MOL0     C93166   2.464   3.665   8.657 -0.4832  0.1661  0.9434
  691MOL0     N93167   2.341   3.675   8.575  0.6010 -0.0380  0.6242
  691MOL0     C93168   2.215   3.624   8.618 -0.2674  0.8555  0.2530
  691MOL0     C93169   2.151   3.617   8.493  0.4859  0.8180  0.1287
  691MOL0     C93170   2.034   3.527   8.487  0.3289  1.1182 -0.8851
  691MOL0     C93171   1.914   3.615   8.438 -0.8655 -0.3207  0.3207
  691MOL0     C93172   1.795   3.522   8.433 -0.2717 -0.2115  0.7918
  691MOL0     C93173   1.652   3.575   8.403  0.0998  0.1880  0.8892
  691MOL0     O93174   1.560   3.475   8.447  0.3020 -0.2853 -0.6415
  691MOL0     C93175   1.426   3.513   8.448  0.5770  0.5303 -0.1204
  691MOL0     C93176   1.382   3.625   8.511  0.0275 -0.3372  0.2558
  691MOL0     C93177   1.259   3.681   8.485  0.3279 -0.4777 -0.6437
  691MOL0     C93178   1.221   3.800   8.568  0.1568  0.5602  0.7365
  691MOL0     C93179   1.172   3.620   8.395 -0.1692  0.3790 -0.7447
  691MOL0     C93180   1.039   3.679   8.347 -0.8917  0.5066 -0.3925
  691MOL0     O93181   0.971   3.609   8.249 -0.0870  0.5296 -0.2585
  691MOL0     C93182   0.829   3.608   8.251  0.2727  0.3179  0.2021
  691MOL0     C93183   0.765   3.584   8.122  0.0232  0.8267 -0.3468
  691MOL0     C93184   0.628   3.582   8.119  1.0091 -0.6260  0.0652
  691MOL0     C93185   0.544   3.604   8.231  0.4679 -0.6717 -0.6176
  691MOL0     O93186   0.401   3.595   8.226  0.5128 -0.0760 -0.1618
  691MOL0     C93187   0.335   3.607   8.098  0.2819  1.8354  0.4105
  691MOL0     C93188   0.314   3.464   8.031  1.1463  0.3878 -0.0891
  691MOL0     C93189   0.264   3.355   8.125 -0.5650  0.4018 -0.6430
  691MOL0     C93190   0.115   3.312   8.093  0.6548 -0.4130 -0.3856
  691MOL0     C93191   0.058   3.235   8.213 -0.2549  0.0177 -0.9254
  691MOL0     C93192  -0.085   3.201   8.186 -1.2177  0.2034 -0.0159
  691MOL0     C93193  -0.141   3.091   8.286  0.5511  0.8566  0.8269
  691MOL0     C93194  -0.108   2.943   8.259 -0.1979 -0.2181 -0.4902
  691MOL0    Cl93195   0.056   2.899   8.321 -0.4496 -0.0244  0.4621
  691MOL0     C93196   0.604   3.638   8.353 -0.0444  1.2223 -0.8039
  691MOL0     C93197   0.743   3.637   8.366  1.0472 -0.5385 -0.4810
  691MOL0     O93198   1.007   3.779   8.394  0.2332  0.0275  0.3936
  691MOL0     C93199   1.214   3.505   8.336 -0.3282  0.2416 -0.0185
  691MOL0     C93200   1.342   3.445   8.364 -0.2108  0.0600 -0.0928
  691MOL0     N93201   2.233   3.666   8.385  0.4062  0.0925 -0.6703
  691MOL0     N93202   2.345   3.701   8.442 -0.5584  0.3302 -0.4216
  691MOL0     C93203   2.274   3.095   9.116 -0.1980 -0.3385  0.5537
  691MOL0     C93204   2.208   3.110   9.241 -0.2099 -0.2632  0.6593
  691MOL0     C93205   1.961   2.961   9.577  0.5917 -0.6548  0.1344
  691MOL0     C93206   2.013   2.998   9.703  0.0280 -0.9195 -0.1172
  691MOL0     C93207   1.933   3.001   9.819 -0.3519 -0.3484  0.6112
  691MOL0     C93208   1.800   2.956   9.810 -0.3080 -0.1738 -1.2592
  691MOL0     O93209   1.715   2.954   9.918 -0.4120  0.0680  0.5681
  691MOL0     C93210   1.716   2.826   9.994 -0.0104  0.2993  0.2292
  691MOL0     C93211   1.592   2.837  10.086  0.1651 -0.4882 -0.8668
  691MOL0     C93212   1.619   2.915  10.212 -0.1883 -0.2264 -0.1349
  691MOL0     C93213   1.754   2.881  10.289  1.1157  0.0577  0.2371
  691MOL0     C93214   1.878   2.950  10.234 -0.3850 -0.0360 -1.0104
  691MOL0     C93215   1.989   3.000  10.196  0.4652  0.2621 -0.4507
  691MOL0     C93216   1.749   2.910   9.683  0.0050 -0.6854 -2.0932
  691MOL0     C93217   1.827   2.920   9.568 -0.2843  0.7614 -0.0722
  691MOL0     H93218   2.306   2.831   9.399 -2.4198  0.1406  0.1984
  691MOL0     H93219   2.430   2.793   9.167 -0.5112 -0.4234  0.6342
  691MOL0     H93220   2.282   2.907   8.847 -2.0479  1.6564  0.1529
  691MOL0     H93221   2.323   3.074   8.841  1.3872  0.5951  0.3454
  691MOL0     H93222   2.524   2.884   8.726  0.7538 -0.0400 -2.1652
  691MOL0     H93223   2.422   2.995   8.639 -0.0730  1.4949  0.5508
  691MOL0     H93224   2.647   3.060   8.838 -1.0646 -0.9882 -0.0603
  691MOL0     H93225   2.655   3.082   8.672  2.6282  2.2644  2.1867
  691MOL0     H93226   2.449   3.247   8.714 -2.2241 -3.1589  1.9608
  691MOL0     H93227   2.505   3.248   8.883 -0.1000 -1.1747  0.7137
  691MOL0     H93228   2.717   3.303   8.845  1.1110  1.3842 -0.0389
  691MOL0     H93229   2.706   3.292   8.669 -1.1823  0.9263 -1.4604
  691MOL0     H93230   2.530   3.477   8.842 -1.7506 -1.5582 -0.5080
  691MOL0     H93231   2.680   3.527   8.778  0.1760 -1.4141 -1.4923
  691MOL0     H93232   2.563   3.513   8.539 -0.0879 -1.2486 -0.1697
  691MOL0     H93233   2.412   3.455   8.622  0.5605 -0.7748 -1.0033
  691MOL0     H93234   2.545   3.732   8.625 -0.7314 -0.5420 -1.4094
  691MOL0     H93235   2.441   3.685   8.762  0.3009  0.8618  0.9930
  691MOL0     H93236   2.176   3.584   8.711  0.5089 -0.2346  0.1267
  691MOL0     H93237   2.050   3.440   8.424 -1.3251  1.3280 -1.6264
  691MOL0     H93238   1.995   3.486   8.581 -2.9277  1.5808 -1.9184
  691MOL0     H93239   1.932   3.670   8.345 -0.5007 -2.2702 -0.8212
  691MOL0     H93240   1.885   3.694   8.508 -0.8315 -1.0021  1.1218
  691MOL0     H93241   1.788   3.496   8.539 -0.9774 -0.8396  0.5975
  691MOL0     H93242   1.814   3.435   8.371 -0.5290 -0.1426  0.6134
  691MOL0     H93243   1.650   3.594   8.296 -0.8253  1.7675  1.1583
  691MOL0     H93244   1.641   3.670   8.458 -1.3847 -1.3090  3.4023
  691MOL0     H93245   1.449   3.674   8.581 -2.7022  2.2072  1.2960
  691MOL0     H93246   1.201   3.886   8.503  0.4737  0.2107  0.1581
  691MOL0     H93247   1.131   3.778   8.625 -2.3837  4.8668 -1.1018
  691MOL0     H93248   1.299   3.831   8.637  0.0397  2.9739 -0.1136
  691MOL0     H93249   0.825   3.551   8.038  2.1409 -1.3914  1.8631
  691MOL0     H93250   0.594   3.549   8.021 -1.0094 -4.1885  1.7933
  691MOL0     H93251   0.233   3.644   8.112 -0.3972  0.4788 -0.6911
  691MOL0     H93252   0.397   3.677   8.041  2.8962 -0.1342  0.6724
  691MOL0     H93253   0.241   3.475   7.951 -3.3794 -4.2964  2.7922
  691MOL0     H93254   0.409   3.434   7.986  1.4359 -1.8071  1.7500
  691MOL0     H93255   0.265   3.396   8.226  1.9624 -0.4165 -0.2499
  691MOL0     H93256   0.338   3.274   8.117 -0.9497  0.1419 -1.9278
  691MOL0     H93257   0.062   3.408   8.092  1.5535  0.2346  2.8513
  691MOL0     H93258   0.096   3.263   7.997 -0.2019 -0.6134 -0.1265
  691MOL0     H93259   0.046   3.298   8.302  2.3624 -3.5868  2.3410
  691MOL0     H93260   0.117   3.143   8.225  1.7547  1.1920 -1.3550
  691MOL0     H93261  -0.150   3.289   8.185  0.7422  1.7000 -0.3596
  691MOL0     H93262  -0.082   3.153   8.088  3.8701 -0.0920  0.0353
  691MOL0     H93263  -0.250   3.088   8.295  0.2420  3.8129 -0.6600
  691MOL0     H93264  -0.121   3.109   8.392 -0.6240 -2.8727  1.8301
  691MOL0     H93265  -0.104   2.919   8.153 -0.4902  1.4822 -0.8995
  691MOL0     H93266  -0.167   2.871   8.317  2.0959 -1.7959  0.0402
  691MOL0     H93267   0.550   3.659   8.445 -0.8718 -1.5833 -0.5659
  691MOL0     H93268   0.786   3.650   8.465 -0.9261 -1.3952  0.5392
  691MOL0     H93269   1.146   3.446   8.276 -1.4259  0.2743  1.1526
  691MOL0     H93270   1.380   3.349   8.331 -1.0827 -0.6334  0.8677
  691MOL0     H93271   2.274   3.174   9.043  0.8951  0.4696  1.3966
  691MOL0     H93272   2.147   3.197   9.265 -0.5588  0.5327 -2.6235
  691MOL0     H93273   2.107   3.052   9.711 -1.4601  1.8360  0.3051
  691MOL0     H93274   1.980   3.041   9.908  0.7167 -0.5428  0.1472
  691MOL0     H93275   1.686   2.746   9.926 -2.4561  3.1238 -2.3068
  691MOL0     H93276   1.813   2.799  10.038 -0.1066 -0.7846 -0.1974
  691MOL0     H93277   1.547   2.738  10.097 -1.8024  0.6214  2.1512
  691MOL0     H93278   1.515   2.896  10.035 -0.5284 -1.4239 -0.9210
  691MOL0     H93279   1.532   2.897  10.275 -2.1495  4.0060 -1.2691
  691MOL0     H93280   1.619   3.023  10.195  3.3177 -0.2343 -0.8936
  691MOL0     H93281   1.766   2.773  10.282 -1.2185 -0.3761  1.7431
  691MOL0     H93282   1.742   2.909  10.394 -4.2050  0.2522 -0.1598
  691MOL0     H93283   2.077   3.048  10.157  1.9813 -2.4577 -0.6519
  691MOL0     H93284   1.648   2.875   9.668 -0.0675 -0.9400 -1.1252
  691MOL0     H93285   1.771   2.897   9.478  0.6329 -0.3754 -0.3751
  692MOL0     O93286   2.035   5.426   5.585 -0.4892 -1.2147 -0.4329
  692MOL0     C93287   1.989   5.470   5.480 -0.5257 -0.7110 -0.0677
  692MOL0     O93288   1.997   5.410   5.351 -0.4399 -0.1623 -0.0747
  692MOL0     C93289   2.046   5.288   5.356 -0.4239 -0.3975  0.3869
  692MOL0     C93290   2.187   5.273   5.372 -0.1787 -0.1199 -0.5320
  692MOL0     C93291   2.239   5.143   5.382 -0.1390 -0.2551 -0.9341
  692MOL0     C93292   2.153   5.043   5.397 -0.1211  0.0047 -0.4964
  692MOL0     O93293   2.213   4.919   5.407  0.4053  0.9702  0.8567
  692MOL0     C93294   2.197   4.834   5.289 -0.3066  0.0335 -0.2602
  692MOL0     C93295   2.288   4.713   5.317  0.8888  0.4066 -0.8767
  692MOL0     C93296   2.302   4.626   5.194  0.1063  0.2973  0.5582
  692MOL0     C93297   2.165   4.548   5.158 -0.6863  0.0733 -0.3086
  692MOL0     C93298   2.176   4.464   5.035 -0.3461  0.3888  0.0286
  692MOL0     C93299   2.040   4.445   4.965  0.1236  0.0035 -0.5594
  692MOL0     C93300   2.062   4.361   4.844 -0.6814 -0.4780  0.9183
  692MOL0     C93301   1.927   4.337   4.771  0.4135  0.2015  0.8683
  692MOL0     N93302   1.938   4.258   4.650  0.8535  0.7054 -0.7085
  692MOL0     C93303   1.936   4.317   4.529 -0.2079  0.3924  0.3125
  692MOL0     C93304   1.927   4.217   4.446  0.7862  0.2796 -0.4101
  692MOL0     C93305   1.908   4.214   4.299 -0.7153  0.3542  0.5241
  692MOL0     C93306   1.785   4.271   4.239  1.0588 -0.6549 -0.2329
  692MOL0     C93307   1.771   4.236   4.098 -0.0418  0.3418  0.7346
  692MOL0     C93308   1.683   4.343   4.014  0.3038 -0.6018 -0.4910
  692MOL0     O93309   1.749   4.475   4.030  0.5158 -0.5064 -0.2719
  692MOL0     C93310   1.684   4.569   3.962  0.0832 -0.5603  1.2450
  692MOL0     C93311   1.730   4.597   3.831  0.4558 -0.9942 -1.2011
  692MOL0     C93312   1.672   4.706   3.759  0.4531 -1.3851 -1.0718
  692MOL0     C93313   1.732   4.727   3.621  0.4374 -0.5406  0.1630
  692MOL0     C93314   1.558   4.787   3.815 -0.3454  1.6624  0.1007
  692MOL0     C93315   1.484   4.898   3.752  0.4042  1.1878  0.6332
  692MOL0     O93316   1.372   4.929   3.813  0.5619 -0.6259 -0.3462
  692MOL0     C93317   1.295   5.033   3.765 -0.1098 -0.2777  0.7010
  692MOL0     C93318   1.173   5.019   3.702  0.6663  0.4415  1.0687
  692MOL0     C93319   1.087   5.124   3.677  0.4166 -0.0203  0.1977
  692MOL0     C93320   1.114   5.243   3.723 -0.8332  0.2704 -1.3564
  692MOL0     O93321   1.038   5.356   3.716  0.0684  0.6657  0.3424
  692MOL0     C93322   0.907   5.354   3.646  1.0534 -0.2795  0.2748
  692MOL0     C93323   0.889   5.489   3.578 -0.4751 -0.3469  0.1931
  692MOL0     C93324   0.748   5.534   3.547  0.5960  0.5176 -0.6227
  692MOL0     C93325   0.733   5.688   3.512 -0.1821 -0.3516 -0.3903
  692MOL0     C93326   0.591   5.726   3.458 -0.3154  0.2706 -0.1069
  692MOL0     C93327   0.598   5.860   3.400 -0.3783 -1.0564  0.5012
  692MOL0     C93328   0.590   5.978   3.504 -0.2380  1.5992 -0.1148
  692MOL0     C93329   0.566   6.097   3.416  0.0146 -0.1944  0.0692
  692MOL0    Cl93330   0.402   6.121   3.350 -0.1232 -0.0389  0.2069
  692MOL0     C93331   1.240   5.272   3.789  0.1106  0.9087  0.5955
  692MOL0     C93332   1.334   5.163   3.798  0.4869 -0.0420  0.0336
  692MOL0     O93333   1.524   4.948   3.645  0.1787 -0.0328 -0.0644
  692MOL0     C93334   1.528   4.746   3.950  0.2458 -1.1591  1.4296
  692MOL0     C93335   1.579   4.645   4.017 -0.0714  1.1125  0.2915
  692MOL0     N93336   1.933   4.095   4.517  0.2127 -0.3195  0.8986
  692MOL0     N93337   1.940   4.121   4.637  0.9938  0.3958 -0.0035
  692MOL0     C93338   2.019   5.056   5.386 -0.4623 -0.3638 -0.6960
  692MOL0     C93339   1.959   5.175   5.373 -0.0793 -0.3407  0.5583
  692MOL0     C93340   1.911   5.603   5.499  0.6362 -0.4038 -0.1225
  692MOL0     C93341   1.842   5.662   5.392 -0.0826 -0.2057  0.3349
  692MOL0     C93342   1.792   5.793   5.400 -0.1213 -0.4758  0.1536
  692MOL0     C93343   1.789   5.861   5.529  0.8285  0.4563 -0.2937
  692MOL0     O93344   1.712   5.982   5.529  0.2463  0.0707 -0.1541
  692MOL0     C93345   1.688   6.043   5.655 -0.3545  0.1700 -0.4316
  692MOL0     C93346   1.591   6.162   5.650  0.5481 -0.2644  0.5462
  692MOL0     C93347   1.647   6.269   5.565 -0.1832  0.1993  0.5326
  692MOL0     C93348   1.577   6.400   5.585  0.8530  0.0406  0.2383
  692MOL0     C93349   1.654   6.506   5.524 -0.9229  0.0587 -0.2527
  692MOL0     C93350   1.732   6.593   5.476 -0.1783 -1.1508 -0.2236
  692MOL0     C93351   1.860   5.807   5.644 -0.2547  0.6125 -0.0647
  692MOL0     C93352   1.918   5.675   5.623 -0.6118 -0.6057 -0.3353
  692MOL0     H93353   2.260   5.353   5.378  1.0168 -1.2975  1.9088
  692MOL0     H93354   2.347   5.139   5.397 -0.2294  3.0836  1.6126
  692MOL0     H93355   2.089   4.818   5.283 -0.3160 -1.7104  2.5677
  692MOL0     H93356   2.234   4.887   5.201  2.5793  1.4140  1.6702
  692MOL0     H93357   2.385   4.735   5.361  0.1204 -0.6149  1.4814
  692MOL0     H93358   2.251   4.655   5.402  1.5812  2.4124  0.8777
  692MOL0     H93359   2.327   4.684   5.105  1.7231 -1.5871 -0.2757
  692MOL0     H93360   2.384   4.557   5.214 -1.7674 -2.3023 -0.2188
  692MOL0     H93361   2.133   4.490   5.246  0.2128  2.0562  1.4284
  692MOL0     H93362   2.087   4.620   5.133  0.1622  0.3399 -2.3606
  692MOL0     H93363   2.248   4.499   4.961 -0.7333  0.3204 -0.3861
  692MOL0     H93364   2.227   4.371   5.062 -2.7594 -1.6515 -1.9492
  692MOL0     H93365   1.975   4.393   5.035  1.5384 -0.3148  0.5718
  692MOL0     H93366   1.999   4.542   4.936  0.7857  0.6621  0.5959
  692MOL0     H93367   2.125   4.414   4.772 -1.7280 -1.8217 -1.0716
  692MOL0     H93368   2.102   4.263   4.872  0.4404  0.3363  2.2820
  692MOL0     H93369   1.885   4.436   4.749 -0.4689 -0.2063  0.6868
  692MOL0     H93370   1.865   4.274   4.835  0.7568 -0.2064  0.8023
  692MOL0     H93371   1.909   4.418   4.501  0.7333  0.3163 -0.9303
  692MOL0     H93372   1.995   4.272   4.266  0.4430 -0.0998  2.5801
  692MOL0     H93373   1.918   4.112   4.260  1.1925  1.2450 -1.4887
  692MOL0     H93374   1.789   4.380   4.254  2.6588 -0.9517  2.0124
  692MOL0     H93375   1.692   4.225   4.274  0.6773 -1.5404 -2.2497
  692MOL0     H93376   1.719   4.141   4.087 -2.2403  1.6536 -1.0190
  692MOL0     H93377   1.868   4.232   4.048 -0.8341  0.7270 -0.9160
  692MOL0     H93378   1.578   4.343   4.043  0.4872 -1.6893  0.2668
  692MOL0     H93379   1.677   4.310   3.910  0.9344  1.6311 -1.2907
  692MOL0     H93380   1.808   4.531   3.795 -0.1896 -2.6209  0.2077
  692MOL0     H93381   1.838   4.701   3.622  0.8187  0.7463 -1.7404
  692MOL0     H93382   1.687   4.658   3.548  0.0817 -1.0710  0.8662
  692MOL0     H93383   1.723   4.830   3.585 -0.5258 -0.4543  0.6091
  692MOL0     H93384   1.150   4.919   3.667  1.5931  0.9154 -1.0438
  692MOL0     H93385   0.991   5.116   3.626  0.6253  0.8381 -0.3556
  692MOL0     H93386   0.902   5.282   3.564  3.3652 -0.3301  0.1136
  692MOL0     H93387   0.830   5.338   3.722  1.1811  0.6222  0.6060
  692MOL0     H93388   0.937   5.559   3.647  4.5883 -2.4059 -0.8581
  692MOL0     H93389   0.943   5.486   3.483  1.1884 -1.2703  1.1276
  692MOL0     H93390   0.689   5.507   3.635  1.6406  0.4134  0.0616
  692MOL0     H93391   0.706   5.467   3.471  0.7027 -3.6811  2.6332
  692MOL0     H93392   0.737   5.734   3.611 -2.5379  1.6464 -1.1196
  692MOL0     H93393   0.812   5.707   3.439  1.7472 -0.1169  1.6401
  692MOL0     H93394   0.508   5.722   3.530 -1.0798  1.7834 -0.8554
  692MOL0     H93395   0.564   5.665   3.371 -1.3206 -0.3370  0.5989
  692MOL0     H93396   0.692   5.877   3.345 -1.6055  2.0455 -0.8959
  692MOL0     H93397   0.515   5.860   3.329 -0.9270 -2.3710  1.1255
  692MOL0     H93398   0.684   5.998   3.557  0.3564 -0.1025 -0.4631
  692MOL0     H93399   0.505   5.970   3.573 -0.7871 -2.8700 -1.0064
  692MOL0     H93400   0.629   6.079   3.328  0.3309  0.1505  0.2208
  692MOL0     H93401   0.598   6.192   3.460  1.0837 -0.6845  0.3797
  692MOL0     H93402   1.270   5.367   3.833  1.3783  0.5647  0.5410
  692MOL0     H93403   1.419   5.171   3.866 -1.3919 -1.2989  2.6860
  692MOL0     H93404   1.438   4.781   4.000 -1.6794 -2.0090 -1.2269
  692MOL0     H93405   1.550   4.614   4.117  0.1262 -2.2654 -0.5899
  692MOL0     H93406   1.954   4.970   5.398  1.5123 -1.8825 -0.4238
  692MOL0     H93407   1.852   5.170   5.354  0.3103 -2.6201 -1.4565
  692MOL0     H93408   1.844   5.619   5.292  2.4866  0.3168  0.0978
  692MOL0     H93409   1.748   5.851   5.319  1.2640  0.3345 -0.0340
  692MOL0     H93410   1.629   5.981   5.723 -2.3606  0.0411 -2.1730
  692MOL0     H93411   1.787   6.060   5.699  0.7004  1.7816 -3.1800
  692MOL0     H93412   1.586   6.215   5.746 -2.5087  0.9447 -0.1917
  692MOL0     H93413   1.496   6.123   5.614  1.1482 -1.7856  0.5055
  692MOL0     H93414   1.638   6.244   5.459 -0.0129  1.0267  0.3181
  692MOL0     H93415   1.753   6.282   5.589 -1.0224  0.3221  4.9894
  692MOL0     H93416   1.555   6.413   5.692 -2.2750  4.2706 -0.6798
  692MOL0     H93417   1.478   6.403   5.540  0.4422  3.0981  1.1254
  692MOL0     H93418   1.798   6.665   5.432 -0.7565 -0.2853  0.3016
  692MOL0     H93419   1.866   5.866   5.735 -3.0808 -1.7526  1.8432
  692MOL0     H93420   1.989   5.652   5.702  1.2872  3.9118 -0.4157
  693MOL0     O93421   7.140   3.184  10.922 -0.7835 -0.6995  0.8593
  693MOL0     C93422   7.224   3.273  10.902  0.4057 -0.3962 -0.0655
  693MOL0     O93423   7.208   3.381  10.824 -0.6884 -0.3186  1.2248
  693MOL0     C93424   7.097   3.404  10.755  0.1031  0.2348 -0.1444
  693MOL0     C93425   7.118   3.463  10.627 -0.5088 -0.1600 -0.0491
  693MOL0     C93426   7.012   3.524  10.556  0.5679 -0.1674 -0.9268
  693MOL0     C93427   6.884   3.508  10.599 -0.0041 -0.2011  0.1800
  693MOL0     O93428   6.779   3.533  10.509 -0.7836  0.7965  0.2178
  693MOL0     C93429   6.794   3.475  10.371  0.0520  0.0153  0.3199
  693MOL0     C93430   6.811   3.329  10.368  0.4863 -0.3556 -0.7042
  693MOL0     C93431   6.710   3.248  10.436 -0.0757  1.4333  0.4248
  693MOL0     C93432   6.725   3.095  10.422  1.0875 -0.6082  0.1756
  693MOL0     C93433   6.603   3.008  10.457  0.8415  0.2724 -0.5058
  693MOL0     C93434   6.580   2.991  10.610 -0.0853 -0.3321  0.6832
  693MOL0     C93435   6.504   2.869  10.655  0.0706 -0.3902  0.6926
  693MOL0     C93436   6.353   2.861  10.607  0.4774  0.0221 -0.1214
  693MOL0     N93437   6.280   2.985  10.633 -0.6847 -0.4532  1.1015
  693MOL0     C93438   6.248   3.026  10.755 -0.0643  0.4598  0.9483
  693MOL0     C93439   6.147   3.110  10.734 -0.5161 -0.4682  0.7700
  693MOL0     C93440   6.062   3.152  10.845  0.1604 -0.1063 -0.1081
  693MOL0     C93441   6.003   3.288  10.821 -0.7604 -0.3438 -0.0438
  693MOL0     C93442   5.904   3.321  10.710 -0.4631  0.1719  0.8767
  693MOL0     C93443   5.773   3.243  10.727  0.2101  0.6534  0.2950
  693MOL0     O93444   5.713   3.251  10.859  0.4631  0.1619 -1.6457
  693MOL0     C93445   5.589   3.185  10.871 -0.4904 -0.1643 -0.1380
  693MOL0     C93446   5.523   3.124  10.765  1.4520  0.0281 -0.4374
  693MOL0     C93447   5.394   3.061  10.784  0.5584  0.4468  0.3008
  693MOL0     C93448   5.330   3.003  10.664  0.5836  0.5308  0.5416
  693MOL0     C93449   5.333   3.072  10.915  0.6134 -0.5321 -0.7090
  693MOL0     C93450   5.201   3.002  10.952  1.8021  0.6063  0.5603
  693MOL0     O93451   5.164   3.013  11.089 -0.1988 -0.4542 -0.8665
  693MOL0     C93452   5.035   2.999  11.133  0.8887 -0.4089  0.3543
  693MOL0     C93453   4.912   3.004  11.063  0.1467  0.6740 -0.0543
  693MOL0     C93454   4.797   2.991  11.135  0.2648  0.7394  0.1634
  693MOL0     C93455   4.795   2.969  11.275 -0.9012 -0.4612 -0.9671
  693MOL0     O93456   4.688   2.953  11.364  0.3911 -0.5601  0.0407
  693MOL0     C93457   4.561   2.956  11.300 -1.5096  0.3355 -0.2564
  693MOL0     C93458   4.466   2.936  11.425  0.7045 -0.1786  0.5003
  693MOL0     C93459   4.449   3.078  11.481  0.4725 -1.4052 -0.3072
  693MOL0     C93460   4.363   3.069  11.613 -0.7642  0.6725 -0.1257
  693MOL0     C93461   4.378   3.196  11.695  0.0721 -0.0392  0.1967
  693MOL0     C93462   4.318   3.181  11.840  0.2724  0.1361  0.2808
  693MOL0     C93463   4.323   3.309  11.935  0.5371 -0.1317 -0.9361
  693MOL0     C93464   4.213   3.404  11.907  0.1898  0.0364  0.9319
  693MOL0    Cl93465   4.194   3.526  12.039 -0.3310  0.2217  0.0384
  693MOL0     C93466   4.920   2.968  11.338  0.5067 -0.5677  0.6586
  693MOL0     C93467   5.034   3.002  11.269 -0.1029  1.4558 -0.6204
  693MOL0     O93468   5.153   2.923  10.867  0.6503 -0.5983 -0.9155
  693MOL0     C93469   5.403   3.141  11.013  1.2291 -0.1221  0.1869
  693MOL0     C93470   5.526   3.198  10.996  0.1149  0.3943  0.5006
  693MOL0     N93471   6.130   3.131  10.598 -0.2390  0.1090  0.3488
  693MOL0     N93472   6.206   3.049  10.541  0.2248 -0.2819  0.4871
  693MOL0     C93473   6.856   3.451  10.721  0.1353 -0.1892 -0.5911
  693MOL0     C93474   6.961   3.403  10.799 -0.4120 -0.2075 -0.3881
  693MOL0     C93475   7.357   3.265  10.969 -0.8414 -0.3563 -0.3562
  693MOL0     C93476   7.448   3.371  10.945 -0.1130  0.2098  0.4147
  693MOL0     C93477   7.570   3.364  11.009 -0.4611  0.1157 -0.7329
  693MOL0     C93478   7.605   3.259  11.094 -0.4388  0.6496 -0.2916
  693MOL0     O93479   7.723   3.260  11.158 -0.0310  0.4588  0.0767
  693MOL0     C93480   7.823   3.178  11.093 -0.9327 -0.3225 -0.4636
  693MOL0     C93481   7.951   3.165  11.182  0.3148  0.0655  0.0358
  693MOL0     C93482   7.932   3.079  11.302  0.4625 -1.2967 -0.0457
  693MOL0     C93483   8.052   3.086  11.397  0.9195  0.6399 -0.4674
  693MOL0     C93484   8.007   3.037  11.526 -0.3512 -0.5598  0.0010
  693MOL0     C93485   7.973   2.984  11.622 -0.1929  0.1617  0.3078
  693MOL0     C93486   7.512   3.162  11.117 -0.3026  0.5842  0.5489
  693MOL0     C93487   7.388   3.163  11.058  0.4112  0.0505  0.3173
  693MOL0     H93488   7.217   3.459  10.582 -0.8493 -2.6960 -0.7690
  693MOL0     H93489   7.042   3.578  10.467  0.2465 -1.7048 -1.9977
  693MOL0     H93490   6.708   3.506  10.310  1.1606  1.4163 -0.5958
  693MOL0     H93491   6.877   3.503  10.306  0.0634 -2.2070 -0.7165
  693MOL0     H93492   6.820   3.293  10.266  0.4549 -1.3880 -0.3517
  693MOL0     H93493   6.912   3.307  10.402  0.0698  0.4482  1.2265
  693MOL0     H93494   6.706   3.278  10.541  0.7361 -0.0612  0.9123
  693MOL0     H93495   6.615   3.257  10.383 -0.6554 -2.2666  0.6116
  693MOL0     H93496   6.749   3.081  10.316  0.6247  4.7202 -0.9325
  693MOL0     H93497   6.813   3.073  10.483  2.1272 -0.3432 -1.1817
  693MOL0     H93498   6.517   3.060  10.414 -2.8421 -1.3236  4.0298
  693MOL0     H93499   6.612   2.910  10.409  3.4159  1.2801 -2.3141
  693MOL0     H93500   6.675   3.000  10.663 -0.5004 -0.2181  1.4150
  693MOL0     H93501   6.523   3.079  10.642  1.1895  0.8457 -0.1720
  693MOL0     H93502   6.569   2.790  10.616  0.9058  0.8487 -0.5108
  693MOL0     H93503   6.502   2.860  10.764  1.1095  0.5720  0.8082
  693MOL0     H93504   6.313   2.778  10.667  0.5235 -0.9939 -1.4207
  693MOL0     H93505   6.345   2.819  10.506  0.7627 -1.2757  0.3641
  693MOL0     H93506   6.277   2.974  10.846 -2.1198 -3.8709 -0.5927
  693MOL0     H93507   5.979   3.084  10.860 -2.3752  2.4132 -1.6554
  693MOL0     H93508   6.126   3.153  10.934 -0.9598 -3.9679  0.8880
  693MOL0     H93509   6.090   3.354  10.820  0.5005 -1.8491 -2.6918
  693MOL0     H93510   5.958   3.325  10.913  0.2596  1.3163 -0.1681
  693MOL0     H93511   5.953   3.319  10.611 -3.0110 -1.0622 -0.4435
  693MOL0     H93512   5.873   3.426  10.720 -1.0358 -0.1112  2.1812
  693MOL0     H93513   5.814   3.143  10.711 -0.6460  0.6059 -1.8915
  693MOL0     H93514   5.702   3.273  10.649  2.3003 -2.1961 -3.0070
  693MOL0     H93515   5.558   3.107  10.664  1.8392 -0.2696 -0.2522
  693MOL0     H93516   5.390   3.005  10.572 -1.9317 -0.7441 -1.2615
  693MOL0     H93517   5.311   2.898  10.688  2.5349 -0.3175 -1.3045
  693MOL0     H93518   5.235   3.054  10.641  0.4202 -0.9849 -2.7255
  693MOL0     H93519   4.908   3.026  10.957 -3.0075  1.5496  0.1602
  693MOL0     H93520   4.704   2.987  11.079  0.7748  0.9608 -0.7279
  693MOL0     H93521   4.537   3.050  11.249 -1.8394 -0.1909 -1.1109
  693MOL0     H93522   4.563   2.878  11.223 -0.2231 -1.0788  1.1541
  693MOL0     H93523   4.372   2.892  11.391  1.3149 -0.6977 -0.5620
  693MOL0     H93524   4.514   2.868  11.497 -0.7213  0.9218  2.5826
  693MOL0     H93525   4.399   3.137  11.404 -0.3929 -2.2388 -0.4147
  693MOL0     H93526   4.550   3.118  11.490 -0.2019  0.4984 -0.7123
  693MOL0     H93527   4.258   3.059  11.584 -0.3592 -2.2680 -0.9158
  693MOL0     H93528   4.395   2.979  11.666 -0.8829  0.9410  0.4066
  693MOL0     H93529   4.341   3.276  11.631  1.6088 -0.6313 -1.4932
  693MOL0     H93530   4.483   3.218  11.717  0.8108 -1.2380 -1.8818
  693MOL0     H93531   4.214   3.156  11.819  1.2638 -1.8600 -3.0376
  693MOL0     H93532   4.364   3.093  11.886  2.3640  2.1049  2.2335
  693MOL0     H93533   4.419   3.359  11.918  0.2385  0.2881 -1.4420
  693MOL0     H93534   4.321   3.271  12.037 -0.6887 -1.3317 -1.3681
  693MOL0     H93535   4.117   3.352  11.899 -0.0161  0.5513 -0.0695
  693MOL0     H93536   4.229   3.456  11.812  0.6514  1.5987  1.8167
  693MOL0     H93537   4.911   2.955  11.445  0.6135 -1.0739  0.6089
  693MOL0     H93538   5.124   3.031  11.323 -0.2026 -1.0718  1.0563
  693MOL0     H93539   5.361   3.133  11.113 -0.4022 -4.6922 -0.5806
  693MOL0     H93540   5.571   3.248  11.082  0.1655 -1.1326  1.4119
  693MOL0     H93541   6.752   3.449  10.752 -0.5057  1.8891 -2.3496
  693MOL0     H93542   6.956   3.349  10.893  1.1183  1.4954  0.7552
  693MOL0     H93543   7.433   3.443  10.866  0.8687 -0.1741 -0.1380
  693MOL0     H93544   7.650   3.437  11.000 -0.8482  0.7998  0.9940
  693MOL0     H93545   7.783   3.091  11.041  0.3027 -1.0153 -0.2955
  693MOL0     H93546   7.857   3.233  11.005  0.4241  0.2801  0.4096
  693MOL0     H93547   7.962   3.266  11.223  0.9933  0.2260 -0.5298
  693MOL0     H93548   8.031   3.136  11.114  0.2051  0.4486 -0.2576
  693MOL0     H93549   7.912   2.978  11.266 -0.6657  0.1023 -3.7536
  693MOL0     H93550   7.845   3.127  11.347  1.5796  0.8978 -0.0924
  693MOL0     H93551   8.097   3.185  11.401 -2.2561  2.1592  1.1299
  693MOL0     H93552   8.129   3.018  11.359 -0.7348 -1.4768 -0.2558
  693MOL0     H93553   7.926   2.953  11.713 -0.0197 -1.9084 -0.2647
  693MOL0     H93554   7.532   3.077  11.181 -0.9350 -0.1935 -0.2563
  693MOL0     H93555   7.320   3.082  11.079 -0.0232  0.1795 -0.5653
  694MOL0     O93556   0.728   7.704  10.304 -0.2325 -0.0128 -0.7582
  694MOL0     C93557   0.694   7.589  10.276  0.4013 -0.4671 -1.4112
  694MOL0     O93558   0.674   7.538  10.154 -0.3906  0.3561  0.6997
  694MOL0     C93559   0.665   7.613  10.038 -0.1420 -0.9003  0.1746
  694MOL0     C93560   0.664   7.759  10.024 -0.3923 -0.1070  0.2558
  694MOL0     C93561   0.652   7.809   9.893  0.0949 -0.1243 -0.1998
  694MOL0     C93562   0.647   7.723   9.778 -0.1829 -1.0054 -0.8474
  694MOL0     O93563   0.630   7.766   9.653 -0.1404 -0.4581 -0.4858
  694MOL0     C93564   0.668   7.904   9.624  0.4844  0.6744 -0.5707
  694MOL0     C93565   0.545   7.994   9.633  0.4355  0.0260 -0.1910
  694MOL0     C93566   0.467   7.987   9.497  0.8404 -0.9251  0.3364
  694MOL0     C93567   0.339   8.066   9.492  0.4089 -0.0819 -0.7248
  694MOL0     C93568   0.288   8.080   9.340 -0.1200  0.6548  0.0635
  694MOL0     C93569   0.168   8.170   9.323  0.3688 -0.9744 -0.1892
  694MOL0     C93570   0.052   8.139   9.425  0.1891 -0.0921 -0.1531
  694MOL0     C93571  -0.070   8.220   9.384 -0.1957  0.2598  0.3525
  694MOL0     N93572  -0.058   8.370   9.376 -0.1450  0.6383 -0.8329
  694MOL0     C93573  -0.119   8.455   9.463 -0.3323  0.0415 -0.0871
  694MOL0     C93574  -0.100   8.573   9.405 -0.5819 -0.4950  0.1166
  694MOL0     C93575  -0.128   8.716   9.447  0.9855 -0.6785 -0.3673
  694MOL0     C93576  -0.270   8.748   9.394 -0.4961 -0.1025 -0.2325
  694MOL0     C93577  -0.280   8.891   9.342  1.0326 -0.1798  0.4269
  694MOL0     C93578  -0.425   8.930   9.331  0.0585 -0.1598 -0.1453
  694MOL0     O93579  -0.492   8.922   9.465 -0.5122 -0.3280 -0.4370
  694MOL0     C93580  -0.480   9.020   9.556 -0.6970  0.4320 -0.3686
  694MOL0     C93581  -0.488   8.977   9.686  0.1272  0.6739 -0.7504
  694MOL0     C93582  -0.488   9.071   9.796  0.1887  1.0423 -1.0131
  694MOL0     C93583  -0.508   9.020   9.940 -0.1132 -0.0704 -0.1122
  694MOL0     C93584  -0.460   9.212   9.760 -0.2675  0.0217 -0.0750
  694MOL0     C93585  -0.469   9.316   9.863 -0.0566 -0.1459 -0.8521
  694MOL0     O93586  -0.489   9.446   9.810 -0.3867  0.3086  0.3391
  694MOL0     C93587  -0.485   9.568   9.885  1.3104 -0.3596  0.1683
  694MOL0     C93588  -0.425   9.677   9.826  0.4038  0.1441 -0.5383
  694MOL0     C93589  -0.406   9.808   9.884 -0.1006  0.5057  0.0038
  694MOL0     C93590  -0.435   9.822  10.024  0.7196 -0.9443  0.6852
  694MOL0     O93591  -0.401   9.929  10.100 -0.3760 -0.1157  0.4357
  694MOL0     C93592  -0.346  10.051  10.050 -1.2567  0.1402 -0.6674
  694MOL0     C93593  -0.433  10.170  10.084  0.6507 -0.9515  0.4291
  694MOL0     C93594  -0.561  10.170   9.997  0.1658 -0.1241  0.1836
  694MOL0     C93595  -0.678  10.106  10.080  0.2250 -0.5203  0.2748
  694MOL0     C93596  -0.801  10.115   9.984 -0.0759  0.5313  1.4814
  694MOL0     C93597  -0.919  10.037  10.042 -0.6265 -0.2185 -0.0265
  694MOL0     C93598  -1.059  10.106  10.048 -0.0176 -0.0863  0.5950
  694MOL0     C93599  -1.130  10.055  10.179  0.1241 -0.9097 -0.1488
  694MOL0    Cl93600  -1.182   9.871  10.165  0.5524  0.2543 -0.0275
  694MOL0     C93601  -0.497   9.712  10.088  0.8014  0.6884  0.1867
  694MOL0     C93602  -0.516   9.588  10.020 -0.6855 -0.6776 -0.8519
  694MOL0     O93603  -0.468   9.291   9.980 -0.3895  0.4569 -0.5062
  694MOL0     C93604  -0.415   9.242   9.635  0.7156 -0.6261  0.1303
  694MOL0     C93605  -0.432   9.151   9.538 -0.9854 -0.4510  0.2923
  694MOL0     N93606  -0.018   8.557   9.294 -1.0894 -0.9090  0.1836
  694MOL0     N93607  -0.005   8.435   9.272 -0.5682  0.2395  0.1255
  694MOL0     C93608   0.641   7.590   9.797 -0.7218  0.1663 -0.5456
  694MOL0     C93609   0.657   7.537   9.923  0.2674 -0.4777  0.6210
  694MOL0     C93610   0.717   7.497  10.386  0.5100  0.4670  0.0554
  694MOL0     C93611   0.746   7.355  10.365  0.6201  1.0916 -0.2856
  694MOL0     C93612   0.762   7.264  10.474 -0.4728  0.3573  0.4307
  694MOL0     C93613   0.768   7.311  10.615 -0.0112  0.6893 -0.2484
  694MOL0     O93614   0.796   7.215  10.717 -0.1624  0.4017 -1.0499
  694MOL0     C93615   0.857   7.271  10.834  0.3324  0.5650 -0.9084
  694MOL0     C93616   0.986   7.342  10.812 -0.9540  0.2170 -0.3712
  694MOL0     C93617   1.097   7.246  10.761 -0.6937  0.0747  0.0331
  694MOL0     C93618   1.222   7.321  10.713 -0.3574  0.4057 -0.6424
  694MOL0     C93619   1.272   7.417  10.810 -0.2302  1.0404 -0.8118
  694MOL0     C93620   1.322   7.497  10.890  0.0085  0.3808  1.1258
  694MOL0     C93621   0.730   7.447  10.628  0.4667 -0.0806 -0.2016
  694MOL0     C93622   0.700   7.532  10.521 -0.1538 -0.2863 -0.6661
  694MOL0     H93623   0.677   7.830  10.106 -0.5837  0.3342 -0.0940
  694MOL0     H93624   0.659   7.917   9.884  0.5449 -0.0254  1.1714
  694MOL0     H93625   0.751   7.936   9.688 -0.4671 -1.6033  2.0237
  694MOL0     H93626   0.713   7.910   9.525  0.0824  1.2457 -0.7215
  694MOL0     H93627   0.489   7.966   9.723  1.2796  0.8132  0.6140
  694MOL0     H93628   0.558   8.101   9.653  0.6670  0.2892 -1.6406
  694MOL0     H93629   0.542   8.016   9.423  1.8510 -1.5235  1.0964
  694MOL0     H93630   0.442   7.887   9.461  1.5417 -1.2568  0.7337
  694MOL0     H93631   0.269   8.001   9.546  0.9272 -0.3854 -0.4025
  694MOL0     H93632   0.337   8.165   9.538  0.7395 -0.2536 -0.3412
  694MOL0     H93633   0.371   8.110   9.276 -0.1406  0.0861 -0.2303
  694MOL0     H93634   0.247   7.985   9.306  0.0278  1.1059 -1.4309
  694MOL0     H93635   0.203   8.274   9.332  0.8036 -1.3152  3.8736
  694MOL0     H93636   0.124   8.165   9.223  0.2405  1.8875 -0.3665
  694MOL0     H93637   0.043   8.031   9.414 -1.1610  0.0016 -0.0398
  694MOL0     H93638   0.104   8.162   9.519  2.9575 -5.0412 -0.1210
  694MOL0     H93639  -0.141   8.182   9.458  1.1100  0.7685  1.9272
  694MOL0     H93640  -0.110   8.192   9.286 -0.1818 -0.1322  0.4593
  694MOL0     H93641  -0.170   8.431   9.555  0.4580  0.8396  0.5838
  694MOL0     H93642  -0.121   8.741   9.553 -0.2855 -1.9830  0.0541
  694MOL0     H93643  -0.061   8.782   9.391  0.8268  0.7071  1.0090
  694MOL0     H93644  -0.339   8.754   9.479 -2.8834 -1.4656 -1.9514
  694MOL0     H93645  -0.296   8.670   9.322  1.5198 -0.3790 -0.7193
  694MOL0     H93646  -0.244   8.901   9.239 -1.1132 -1.2421 -0.4799
  694MOL0     H93647  -0.232   8.964   9.408 -1.0869  0.3208  1.4918
  694MOL0     H93648  -0.480   8.863   9.264  3.3520 -1.9197 -1.2937
  694MOL0     H93649  -0.429   9.031   9.290  1.1606  0.3868  1.0258
  694MOL0     H93650  -0.494   8.871   9.709  1.4926  0.6330 -0.4728
  694MOL0     H93651  -0.416   9.030   9.999  1.4220  1.0459 -2.5325
  694MOL0     H93652  -0.597   9.063   9.987 -0.5651 -2.6159  1.5403
  694MOL0     H93653  -0.530   8.913   9.937 -2.8091  0.4026  0.4700
  694MOL0     H93654  -0.362   9.674   9.738  1.0888  0.4423 -0.0787
  694MOL0     H93655  -0.345   9.876   9.826  0.8460  0.5087  0.9596
  694MOL0     H93656  -0.260  10.065  10.117 -2.5026 -0.1697  1.0742
  694MOL0     H93657  -0.319  10.046   9.944  0.4005 -1.9846 -0.2099
  694MOL0     H93658  -0.457  10.173  10.190 -0.1283 -0.8139  0.2616
  694MOL0     H93659  -0.378  10.261  10.060 -0.4071 -0.9233 -2.3748
  694MOL0     H93660  -0.547  10.106   9.909  0.0583 -0.2900  0.2871
  694MOL0     H93661  -0.591  10.270   9.963  1.0789  0.7282  1.7653
  694MOL0     H93662  -0.651  10.003  10.106 -1.4654 -1.2687 -0.7765
  694MOL0     H93663  -0.691  10.171  10.167 -0.5504  0.5345 -0.5986
  694MOL0     H93664  -0.780  10.058   9.893 -0.0504 -0.4266  2.0806
  694MOL0     H93665  -0.837  10.214   9.955  2.1927  0.9590 -0.1988
  694MOL0     H93666  -0.937   9.945   9.986  0.2026 -1.2594  1.3402
  694MOL0     H93667  -0.888  10.006  10.143  1.2212  2.5342  0.3737
  694MOL0     H93668  -1.117  10.082   9.958 -0.2379  0.4762  0.5832
  694MOL0     H93669  -1.036  10.213  10.040  0.1230 -0.1657 -0.1762
  694MOL0     H93670  -1.221  10.114  10.193  1.2199  0.9126 -0.3548
  694MOL0     H93671  -1.067  10.076  10.266 -2.9058  2.8019  1.4127
  694MOL0     H93672  -0.533   9.714  10.191 -0.5253 -0.9105 -0.2088
  694MOL0     H93673  -0.575   9.528  10.089 -0.5075 -0.1718 -0.2450
  694MOL0     H93674  -0.383   9.340   9.599 -0.1224 -0.4725 -0.2333
  694MOL0     H93675  -0.406   9.184   9.438 -1.1811 -1.2910 -0.0406
  694MOL0     H93676   0.633   7.529   9.708  1.9903 -0.3417 -0.5423
  694MOL0     H93677   0.645   7.429   9.922 -1.0555 -0.3506  0.0437
  694MOL0     H93678   0.758   7.313  10.266 -2.1966  2.4764 -1.3061
  694MOL0     H93679   0.773   7.158  10.454 -0.5455  0.0070  2.1080
  694MOL0     H93680   0.778   7.337  10.870 -0.0132  0.5551 -1.6216
  694MOL0     H93681   0.873   7.200  10.916 -0.8485  1.4836  0.1572
  694MOL0     H93682   1.017   7.385  10.907 -1.4680 -2.7416  1.2857
  694MOL0     H93683   0.980   7.429  10.746  1.6400  1.4638  0.9136
  694MOL0     H93684   1.064   7.186  10.676 -1.5524 -1.0604  1.1449
  694MOL0     H93685   1.132   7.174  10.835  1.3021 -0.3282 -1.2203
  694MOL0     H93686   1.193   7.388  10.632 -1.8318  0.1208 -0.3755
  694MOL0     H93687   1.299   7.252  10.676 -0.4851  0.8444 -1.7559
  694MOL0     H93688   1.351   7.566  10.966 -0.6786 -1.2530  2.9575
  694MOL0     H93689   0.721   7.496  10.724  1.1233  1.0081 -0.6684
  694MOL0     H93690   0.669   7.634  10.542 -0.6002  0.2209 -3.4097
  695MOL0     O93691   9.214   6.624   6.834 -0.3150  0.1478 -0.0390
  695MOL0     C93692   9.197   6.573   6.946  0.2836  0.3114 -0.0355
  695MOL0     O93693   9.289   6.571   7.044 -0.6262 -1.0236 -0.3426
  695MOL0     C93694   9.404   6.659   7.037 -0.5606  0.4694 -0.7370
  695MOL0     C93695   9.521   6.613   7.108 -0.0385  0.2228  0.3876
  695MOL0     C93696   9.631   6.693   7.108 -0.0943  0.0691  0.8177
  695MOL0     C93697   9.642   6.825   7.052  0.6337 -0.0148 -0.7827
  695MOL0     O93698   9.752   6.905   7.038  0.3601 -0.1610 -0.1906
  695MOL0     C93699   9.884   6.841   7.043  0.2908  0.1697 -0.4453
  695MOL0     C93700  10.010   6.929   7.012 -0.2233 -0.2301 -0.5869
  695MOL0     C93701  10.144   6.865   6.983 -0.5688  0.1863  0.1398
  695MOL0     C93702  10.141   6.798   6.846  0.8639 -0.2198  0.0310
  695MOL0     C93703  10.259   6.709   6.833  0.5121 -0.5844 -0.3603
  695MOL0     C93704  10.281   6.673   6.683  0.2461 -0.2870  0.1287
  695MOL0     C93705  10.413   6.595   6.652  0.2522  0.1276  0.0499
  695MOL0     C93706  10.395   6.443   6.677 -0.4857 -0.7189 -0.2811
  695MOL0     N93707  10.296   6.370   6.586 -1.1537  0.1926 -0.4761
  695MOL0     C93708  10.297   6.376   6.448 -0.3948  0.1420  0.5683
  695MOL0     C93709  10.186   6.311   6.416 -0.9640  0.3410  0.8127
  695MOL0     C93710  10.118   6.316   6.281  0.2966  0.1006 -1.0279
  695MOL0     C93711  10.131   6.449   6.214 -0.2304 -0.6347  0.4517
  695MOL0     C93712  10.035   6.549   6.276  0.4582  0.3752 -0.0704
  695MOL0     C93713  10.033   6.682   6.200  0.2758  1.0562  0.4164
  695MOL0     O93714  10.070   6.667   6.063 -0.5825  0.2316  0.4460
  695MOL0     C93715   9.975   6.626   5.970  1.1269  0.0540 -0.6296
  695MOL0     C93716   9.839   6.635   5.990 -0.2246 -0.0488 -0.3558
  695MOL0     C93717   9.753   6.581   5.898  0.0119 -0.5574  0.5981
  695MOL0     C93718   9.610   6.597   5.921  0.0542  0.1630  0.8315
  695MOL0     C93719   9.801   6.531   5.776 -0.2924 -0.3223 -0.1449
  695MOL0     C93720   9.725   6.494   5.653  0.3141  2.5934 -1.3521
  695MOL0     O93721   9.772   6.539   5.541 -0.2993 -0.2764  0.5796
  695MOL0     C93722   9.684   6.527   5.426 -0.5269  0.1239 -0.0966
  695MOL0     C93723   9.543   6.547   5.437  0.2567 -0.7456  1.3455
  695MOL0     C93724   9.455   6.526   5.321  0.5556 -0.6025  0.2087
  695MOL0     C93725   9.516   6.509   5.191 -0.4012  0.6727  0.6662
  695MOL0     O93726   9.451   6.506   5.072 -0.6019  0.0068  0.4036
  695MOL0     C93727   9.311   6.491   5.064 -0.2596  0.6724  0.1433
  695MOL0     C93728   9.242   6.633   5.062 -0.8190  0.4875 -0.8589
  695MOL0     C93729   9.097   6.640   5.119 -0.1430 -0.0311 -0.1549
  695MOL0     C93730   9.083   6.744   5.223 -0.2728  0.6887  0.4459
  695MOL0     C93731   9.058   6.888   5.167  0.2204  0.3084 -0.0620
  695MOL0     C93732   8.985   6.962   5.287 -0.5815 -0.2123  0.8788
  695MOL0     C93733   8.986   7.111   5.270  0.2805  0.0441 -0.1668
  695MOL0     C93734   8.900   7.155   5.159 -0.1338 -0.1274  0.5031
  695MOL0    Cl93735   8.994   7.157   5.007  0.4828  0.2041  0.5356
  695MOL0     C93736   9.662   6.476   5.183  0.1264 -0.4260 -0.7899
  695MOL0     C93737   9.736   6.478   5.304  0.6662 -1.1651 -0.8931
  695MOL0     O93738   9.621   6.423   5.672  0.5926 -0.5499 -0.0448
  695MOL0     C93739   9.935   6.527   5.758  0.2725  0.3757 -0.0100
  695MOL0     C93740  10.025   6.566   5.853  0.8859  0.7203  0.2031
  695MOL0     N93741  10.133   6.259   6.533  1.4089  0.0160 -0.0264
  695MOL0     N93742  10.203   6.291   6.632 -0.5283  0.0452  0.4384
  695MOL0     C93743   9.511   6.871   7.003 -0.9045 -1.0014  0.1241
  695MOL0     C93744   9.406   6.792   7.007 -0.7747 -0.4160  0.8264
  695MOL0     C93745   9.087   6.478   6.961 -0.6069  0.6502 -0.7833
  695MOL0     C93746   8.994   6.466   6.863 -0.6036 -1.0058 -0.1296
  695MOL0     C93747   8.879   6.391   6.887  0.4015  0.1356  0.9383
  695MOL0     C93748   8.859   6.333   7.012  0.6519  0.2071  0.3782
  695MOL0     O93749   8.734   6.272   7.016  0.7370 -0.0811 -0.4623
  695MOL0     C93750   8.693   6.230   7.148 -0.0055  1.0006  0.1636
  695MOL0     C93751   8.572   6.130   7.126 -0.0579 -0.5208  0.3104
  695MOL0     C93752   8.628   6.001   7.054 -0.3843  0.8113  0.5902
  695MOL0     C93753   8.539   5.876   7.076  0.4385 -0.8180 -0.6361
  695MOL0     C93754   8.599   5.774   6.988 -0.2489  0.0788 -0.0273
  695MOL0     C93755   8.649   5.693   6.909  0.1470  0.3056 -0.1294
  695MOL0     C93756   8.954   6.339   7.112  0.1186 -0.3019 -0.9057
  695MOL0     C93757   9.066   6.423   7.098  0.4600 -0.0057 -0.4256
  695MOL0     H93758   9.547   6.512   7.137  3.2085  0.1204 -2.3162
  695MOL0     H93759   9.725   6.652   7.145  0.5586  0.4925 -0.3343
  695MOL0     H93760   9.905   6.787   7.136 -2.3704 -3.2097 -1.6446
  695MOL0     H93761   9.890   6.767   6.963 -0.2261  0.9928 -1.2752
  695MOL0     H93762   9.985   6.984   6.920 -3.5786  2.5602  1.7010
  695MOL0     H93763  10.015   7.010   7.085  1.1285 -1.3223  0.5838
  695MOL0     H93764  10.231   6.931   6.996  0.3778 -1.0436  0.2271
  695MOL0     H93765  10.158   6.785   7.056 -1.4516 -1.7160 -1.6786
  695MOL0     H93766  10.056   6.729   6.839  2.4501 -2.5130  1.9526
  695MOL0     H93767  10.140   6.869   6.763 -1.4178 -2.7952 -2.3738
  695MOL0     H93768  10.345   6.765   6.870 -2.0073  2.5580  1.1920
  695MOL0     H93769  10.252   6.620   6.897 -0.3330 -0.4628 -0.2726
  695MOL0     H93770  10.187   6.632   6.644 -0.4490  2.3785 -1.2686
  695MOL0     H93771  10.292   6.769   6.632 -3.2790  0.8302  1.1308
  695MOL0     H93772  10.427   6.603   6.544  1.4587  2.2067  0.3073
  695MOL0     H93773  10.504   6.636   6.697  2.1271 -2.5283 -1.0728
  695MOL0     H93774  10.357   6.438   6.780 -1.9405 -0.7374 -0.7915
  695MOL0     H93775  10.496   6.401   6.679  0.5294  1.6186  0.1955
  695MOL0     H93776  10.377   6.416   6.386  1.1474  0.8294  2.8634
  695MOL0     H93777  10.151   6.234   6.217  1.0731  1.8290 -2.9443
  695MOL0     H93778  10.010   6.303   6.295  0.3701  0.4966 -0.0089
  695MOL0     H93779  10.096   6.429   6.112 -1.7239  1.6983  0.4355
  695MOL0     H93780  10.234   6.485   6.206 -1.0746  1.7221 -0.8309
  695MOL0     H93781  10.073   6.574   6.376 -1.0944  1.3435  0.3157
  695MOL0     H93782   9.934   6.507   6.285  2.8976 -6.0511  5.9727
  695MOL0     H93783  10.104   6.748   6.250 -2.4156  2.8465  2.1288
  695MOL0     H93784   9.941   6.733   6.229 -0.3758 -0.7237  1.6648
  695MOL0     H93785   9.789   6.679   6.076  1.2765  2.8756 -0.8544
  695MOL0     H93786   9.561   6.642   5.834 -0.0157 -1.0143  0.2382
  695MOL0     H93787   9.552   6.504   5.928 -0.7455  0.2572 -2.5514
  695MOL0     H93788   9.593   6.655   6.012  2.7496 -1.4104  2.4733
  695MOL0     H93789   9.490   6.569   5.529 -0.5357 -0.8096  0.9223
  695MOL0     H93790   9.349   6.547   5.328  0.0383 -2.3795 -1.4755
  695MOL0     H93791   9.283   6.432   4.977 -0.6650 -1.1326  1.4501
  695MOL0     H93792   9.280   6.450   5.161 -0.2397  4.4527  1.9521
  695MOL0     H93793   9.307   6.698   5.122  1.3557 -1.0228 -1.4330
  695MOL0     H93794   9.258   6.682   4.966 -0.1348  2.8352  0.3693
  695MOL0     H93795   9.068   6.543   5.161  0.4513  0.4550  1.4590
  695MOL0     H93796   9.036   6.662   5.031  0.0851 -2.5161 -1.0216
  695MOL0     H93797   9.002   6.711   5.289 -0.0468  0.6614  0.7101
  695MOL0     H93798   9.174   6.737   5.283  0.8952 -2.4847 -1.4620
  695MOL0     H93799   8.993   6.883   5.079 -0.9490 -2.3349  0.8359
  695MOL0     H93800   9.152   6.939   5.145 -0.0696  0.4332 -1.0648
  695MOL0     H93801   8.882   6.931   5.306 -1.0262  0.5367 -0.1733
  695MOL0     H93802   9.045   6.943   5.377 -1.2344  2.8199  2.0870
  695MOL0     H93803   9.088   7.149   5.258  1.5002 -1.8131  2.9954
  695MOL0     H93804   8.937   7.146   5.361 -2.1235 -1.0775 -0.9607
  695MOL0     H93805   8.850   7.249   5.183 -0.7574  0.5586 -2.9728
  695MOL0     H93806   8.808   7.096   5.145 -2.7373  3.5442  0.6435
  695MOL0     H93807   9.707   6.441   5.091  1.2107 -3.6832  0.8440
  695MOL0     H93808   9.843   6.459   5.309  0.2917 -3.1257  1.0534
  695MOL0     H93809   9.978   6.469   5.677  2.7783  3.2534 -0.9333
  695MOL0     H93810  10.131   6.551   5.838  0.6929 -1.3397  0.5351
  695MOL0     H93811   9.505   6.971   6.961 -1.5133 -0.5023  1.3391
  695MOL0     H93812   9.312   6.839   6.978 -1.9090 -2.6516  0.6921
  695MOL0     H93813   9.017   6.506   6.764  1.5633 -1.4937  0.1356
  695MOL0     H93814   8.817   6.385   6.799  1.8020  1.9928 -0.2545
  695MOL0     H93815   8.771   6.167   7.191 -0.6719 -0.0384 -0.1012
  695MOL0     H93816   8.651   6.304   7.216 -1.4183  0.5572 -0.1755
  695MOL0     H93817   8.489   6.181   7.076  1.1392 -0.1409 -1.4159
  695MOL0     H93818   8.546   6.111   7.230 -2.5336  0.5183 -0.0558
  695MOL0     H93819   8.728   5.979   7.090  0.3183  2.8748  0.0840
  695MOL0     H93820   8.640   6.022   6.947  3.0763 -3.6600 -0.1573
  695MOL0     H93821   8.432   5.894   7.061  0.3240  1.0937  1.8505
  695MOL0     H93822   8.531   5.846   7.180 -1.6147 -1.6874 -0.9956
  695MOL0     H93823   8.688   5.638   6.826 -1.3647  1.5528 -1.7589
  695MOL0     H93824   8.926   6.295   7.207 -0.6092 -0.4081 -1.1620
  695MOL0     H93825   9.116   6.447   7.191  1.1855 -0.4585 -0.6996
  696MOL0     O93826   6.952   1.274   2.971 -0.7613 -0.3029  0.3139
  696MOL0     C93827   6.899   1.204   2.890 -0.4249 -0.3441 -0.2136
  696MOL0     O93828   6.936   1.183   2.760  0.0527  0.3035 -0.1095
  696MOL0     C93829   7.042   1.239   2.709 -0.2155 -0.1856  0.0159
  696MOL0     C93830   7.019   1.314   2.595 -0.2512 -0.6520 -0.2091
  696MOL0     C93831   7.124   1.361   2.518 -0.0893  0.5102  0.7397
  696MOL0     C93832   7.256   1.329   2.555 -0.7113 -0.1707 -0.4488
  696MOL0     O93833   7.355   1.370   2.465 -0.3007 -0.2822 -0.7103
  696MOL0     C93834   7.470   1.445   2.523  0.0176  0.4457 -0.3581
  696MOL0     C93835   7.455   1.600   2.504 -0.2017  0.6651 -0.2388
  696MOL0     C93836   7.578   1.670   2.567 -0.9493  0.1159 -0.6610
  696MOL0     C93837   7.551   1.808   2.624 -0.4895 -0.1866 -0.6090
  696MOL0     C93838   7.675   1.879   2.683 -0.0825  0.0386  0.5152
  696MOL0     C93839   7.629   2.012   2.747  0.6102 -0.2546  0.9320
  696MOL0     C93840   7.670   2.138   2.672 -0.6501  0.6351 -0.0777
  696MOL0     C93841   7.823   2.152   2.689  0.1467 -0.1999  0.4105
  696MOL0     N93842   7.859   2.272   2.769  0.2480  0.7416 -0.3420
  696MOL0     C93843   7.875   2.256   2.903  0.1082 -0.0996  0.3509
  696MOL0     C93844   7.915   2.379   2.951 -0.0102 -0.0211 -0.2544
  696MOL0     C93845   7.928   2.434   3.089  0.7790  0.0807  0.8578
  696MOL0     C93846   8.016   2.342   3.172 -0.4121 -0.1173 -0.1496
  696MOL0     C93847   8.027   2.409   3.314  0.5041 -0.2616 -0.5310
  696MOL0     C93848   8.118   2.334   3.415  0.3476  0.3716  0.1994
  696MOL0     O93849   8.045   2.206   3.445  0.1172 -0.0540 -0.3727
  696MOL0     C93850   8.121   2.092   3.465  0.3441  0.0933 -0.2636
  696MOL0     C93851   8.251   2.100   3.508 -0.3622  0.2532 -0.4631
  696MOL0     C93852   8.326   1.984   3.546 -0.1295 -0.3790  0.2039
  696MOL0     C93853   8.472   2.024   3.571  0.4152  0.0044 -0.2641
  696MOL0     C93854   8.266   1.854   3.518 -0.0073 -1.0269  0.4645
  696MOL0     C93855   8.337   1.736   3.535  0.0261 -0.6482  0.9788
  696MOL0     O93856   8.320   1.646   3.434 -0.4866 -0.2527  0.2164
  696MOL0     C93857   8.362   1.515   3.450 -0.1609  0.3181  0.3703
  696MOL0     C93858   8.305   1.441   3.550 -0.3560  0.6505  0.7265
  696MOL0     C93859   8.323   1.303   3.560  0.0912  0.6664  0.0168
  696MOL0     C93860   8.407   1.236   3.466  0.0860  0.1963  0.7120
  696MOL0     O93861   8.420   1.097   3.480  0.5464  0.3169  0.4451
  696MOL0     C93862   8.503   1.035   3.390  0.2382  0.0835 -1.0575
  696MOL0     C93863   8.480   0.880   3.366  0.1197  0.1335 -0.0874
  696MOL0     C93864   8.335   0.859   3.323  0.8863  0.2357  0.3038
  696MOL0     C93865   8.305   0.740   3.233 -0.1313 -0.2032 -0.1322
  696MOL0     C93866   8.291   0.611   3.313  0.3104 -0.9210 -1.1517
  696MOL0     C93867   8.155   0.617   3.384 -0.0105 -0.2946 -0.5226
  696MOL0     C93868   8.102   0.504   3.462 -0.1458 -0.0728 -0.1539
  696MOL0     C93869   8.219   0.427   3.541  0.0590 -0.2246  1.5906
  696MOL0    Cl93870   8.274   0.538   3.677  0.1271  0.2240  0.3619
  696MOL0     C93871   8.472   1.309   3.362 -0.0360  0.2302 -0.0586
  696MOL0     C93872   8.452   1.451   3.355  0.4282  0.2753  0.0499
  696MOL0     O93873   8.407   1.721   3.634  0.1656  0.0257  0.1874
  696MOL0     C93874   8.136   1.852   3.473  0.0655 -0.0643 -0.5190
  696MOL0     C93875   8.064   1.971   3.452  0.2250  0.1500  1.3108
  696MOL0     N93876   7.936   2.462   2.844  0.9725 -0.1648 -0.1504
  696MOL0     N93877   7.894   2.401   2.735 -0.4833  0.3773 -0.6492
  696MOL0     C93878   7.285   1.262   2.674  0.4170  0.8778  0.2507
  696MOL0     C93879   7.168   1.208   2.745  0.8020  0.1773  0.1585
  696MOL0     C93880   6.782   1.110   2.921 -0.2704 -0.9222  1.0041
  696MOL0     C93881   6.704   1.048   2.815 -0.2903  0.0668 -0.4611
  696MOL0     C93882   6.601   0.962   2.834 -0.5066  0.3259 -0.2655
  696MOL0     C93883   6.561   0.939   2.969 -1.4941  0.4182  0.5183
  696MOL0     O93884   6.463   0.845   3.008  0.3352 -0.1646  0.2713
  696MOL0     C93885   6.348   0.847   2.921  0.2172  0.5043 -0.4598
  696MOL0     C93886   6.354   0.725   2.821 -0.1263  0.6188 -0.0291
  696MOL0     C93887   6.351   0.590   2.890  0.1967  0.3358 -0.1470
  696MOL0     C93888   6.374   0.467   2.805 -0.6105 -0.2470 -0.2972
  696MOL0     C93889   6.523   0.431   2.791 -0.1771  0.2297  0.5324
  696MOL0     C93890   6.642   0.406   2.777  0.6284 -0.1782 -0.7495
  696MOL0     C93891   6.627   1.013   3.071  1.2065 -0.1674 -0.3470
  696MOL0     C93892   6.740   1.092   3.048  0.2804  0.1912  0.2737
  696MOL0     H93893   6.919   1.346   2.567  0.7403  0.0512 -3.4060
  696MOL0     H93894   7.099   1.400   2.420 -2.6128 -3.4267 -0.4030
  696MOL0     H93895   7.495   1.434   2.628 -0.4892  1.0336 -0.1750
  696MOL0     H93896   7.554   1.411   2.461  1.2710 -1.1009  2.0283
  696MOL0     H93897   7.448   1.627   2.398 -0.4799  1.1884 -0.0931
  696MOL0     H93898   7.368   1.638   2.560  0.4072 -0.5093  1.5950
  696MOL0     H93899   7.619   1.612   2.651 -2.0481  0.8493  0.4067
  696MOL0     H93900   7.649   1.672   2.484  0.7030 -0.5110  0.6552
  696MOL0     H93901   7.501   1.870   2.550  0.4634  1.6878  0.2566
  696MOL0     H93902   7.478   1.790   2.703  0.8022  3.3967  1.6463
  696MOL0     H93903   7.725   1.816   2.757  1.5668 -0.0991 -0.6441
  696MOL0     H93904   7.743   1.902   2.600 -1.4230 -1.8153 -1.2085
  696MOL0     H93905   7.521   2.018   2.765  0.5765  2.2374  0.2546
  696MOL0     H93906   7.669   2.012   2.849  0.8530 -1.5548  0.8516
  696MOL0     H93907   7.639   2.118   2.569  2.2967  1.0436 -1.1373
  696MOL0     H93908   7.621   2.224   2.717 -0.4049  1.8987 -2.0927
  696MOL0     H93909   7.869   2.162   2.591 -0.0337  2.5018  0.5251
  696MOL0     H93910   7.862   2.059   2.732  0.5441  0.6161  1.8778
  696MOL0     H93911   7.843   2.175   2.969 -3.2988 -0.1136 -1.0736
  696MOL0     H93912   7.960   2.538   3.073  1.1049 -0.4592 -3.1406
  696MOL0     H93913   7.832   2.434   3.141  1.4961 -1.9307  2.2865
  696MOL0     H93914   8.116   2.333   3.130 -0.2603  1.3845 -0.1803
  696MOL0     H93915   7.973   2.242   3.179  1.3966 -1.6146 -5.5480
  696MOL0     H93916   7.930   2.421   3.362  1.5978  3.7504  1.0422
  696MOL0     H93917   8.064   2.511   3.300  0.3652 -0.2886 -1.1469
  696MOL0     H93918   8.128   2.403   3.499 -0.0681  3.2691 -1.9473
  696MOL0     H93919   8.211   2.321   3.358 -1.0120  3.8742 -3.3669
  696MOL0     H93920   8.289   2.194   3.546  0.0013  0.3632 -1.0835
  696MOL0     H93921   8.533   1.935   3.556 -0.1223  0.0669 -3.6529
  696MOL0     H93922   8.513   2.103   3.507  1.4090  0.2764  0.6944
  696MOL0     H93923   8.483   2.049   3.677 -1.1576 -4.1948  1.0789
  696MOL0     H93924   8.255   1.504   3.623 -1.3778  1.4911 -0.6476
  696MOL0     H93925   8.275   1.249   3.641  0.1123  0.6349  0.0079
  696MOL0     H93926   8.486   1.066   3.287 -1.1131 -1.9109 -1.5057
  696MOL0     H93927   8.607   1.057   3.413  0.9228 -1.1709 -2.7756
  696MOL0     H93928   8.549   0.836   3.293 -0.9722  2.3725 -2.6354
  696MOL0     H93929   8.485   0.831   3.464 -1.9810  0.7949  0.3985
  696MOL0     H93930   8.305   0.947   3.266  1.9466  1.2721  1.2805
  696MOL0     H93931   8.272   0.857   3.413 -2.5266 -3.0317 -1.8310
  696MOL0     H93932   8.221   0.765   3.167  1.5236  4.6799 -0.8368
  696MOL0     H93933   8.390   0.710   3.171  1.5447 -2.2740  2.8888
  696MOL0     H93934   8.376   0.586   3.377  0.7818 -0.8834 -1.7576
  696MOL0     H93935   8.277   0.528   3.243  0.2698 -3.4142  1.6325
  696MOL0     H93936   8.148   0.700   3.455 -0.9900 -0.0268 -0.9095
  696MOL0     H93937   8.081   0.631   3.304  0.5560 -0.1036 -1.0135
  696MOL0     H93938   8.057   0.432   3.393 -1.3776 -0.7462  1.2883
  696MOL0     H93939   8.025   0.544   3.528 -0.3284  3.5995 -2.3516
  696MOL0     H93940   8.304   0.414   3.473 -1.2478 -1.6901  0.1645
  696MOL0     H93941   8.187   0.324   3.562 -2.4595 -0.4050 -2.1956
  696MOL0     H93942   8.524   1.261   3.279  3.2324  1.9015  0.8494
  696MOL0     H93943   8.501   1.507   3.277 -2.5784 -0.5583 -2.6548
  696MOL0     H93944   8.090   1.757   3.448 -1.9760  1.0400 -1.2251
  696MOL0     H93945   7.964   1.964   3.411 -1.1935  0.5638  4.4124
  696MOL0     H93946   7.381   1.240   2.720 -0.7455  1.5588  3.1845
  696MOL0     H93947   7.183   1.135   2.824  1.1163 -1.5554 -1.4291
  696MOL0     H93948   6.740   1.078   2.718  0.0751  2.0465  0.2417
  696MOL0     H93949   6.565   0.904   2.750  3.0347 -3.5765  0.6031
  696MOL0     H93950   6.265   0.844   2.992 -0.1611  2.0608 -0.7841
  696MOL0     H93951   6.349   0.947   2.876 -0.0341  0.2449 -1.0448
  696MOL0     H93952   6.448   0.730   2.765  0.1812  0.7355  0.4952
  696MOL0     H93953   6.270   0.735   2.752  1.9874  0.2454 -2.8378
  696MOL0     H93954   6.245   0.575   2.915  0.1960 -2.4869 -1.4728
  696MOL0     H93955   6.400   0.598   2.987 -0.3295  0.1842  0.1354
  696MOL0     H93956   6.340   0.493   2.704  1.6702  0.7625 -0.8862
  696MOL0     H93957   6.321   0.380   2.845 -1.2198  0.3754  0.2802
  696MOL0     H93958   6.745   0.389   2.751  0.8448  0.1974 -0.1766
  696MOL0     H93959   6.586   1.001   3.171  2.9388 -1.8139  0.2267
  696MOL0     H93960   6.780   1.146   3.133  0.8071 -0.3762  0.3970
  697MOL0     O93961  10.123  10.354   4.554 -0.4183  0.4165  0.4340
  697MOL0     C93962  10.098  10.234   4.542 -0.1761 -1.0203  0.1139
  697MOL0     O93963  10.162  10.162   4.448 -0.4629 -0.4369  0.1671
  697MOL0     C93964  10.287  10.194   4.399  0.5633 -0.0112 -0.6028
  697MOL0     C93965  10.322  10.145   4.270  0.5894 -0.9231 -0.1765
  697MOL0     C93966  10.439  10.170   4.203 -0.6998 -0.3611  1.2843
  697MOL0     C93967  10.541  10.246   4.263  0.4283  0.5465 -0.0112
  697MOL0     O93968  10.660  10.269   4.197 -0.7199 -0.0951 -0.0445
  697MOL0     C93969  10.778  10.220   4.264  0.3009  1.2291  0.1776
  697MOL0     C93970  10.881  10.330   4.271 -0.0278  0.4355  0.2532
  697MOL0     C93971  10.811  10.460   4.328  0.0349 -0.9627  0.0769
  697MOL0     C93972  10.930  10.552   4.357  0.1043 -0.8658  0.7559
  697MOL0     C93973  10.886  10.689   4.408  0.2492 -0.3495  0.0567
  697MOL0     C93974  10.787  10.685   4.533  0.0661  0.3060  0.3054
  697MOL0     C93975  10.810  10.795   4.635 -0.7435 -0.5905  0.6624
  697MOL0     C93976  10.709  10.771   4.741 -1.0798  0.4050  0.6995
  697MOL0     N93977  10.589  10.856   4.712  0.3577  0.3238  0.1257
  697MOL0     C93978  10.475  10.821   4.639 -0.6114  0.8811  0.1943
  697MOL0     C93979  10.410  10.929   4.606  0.2192 -0.1247 -0.0114
  697MOL0     C93980  10.285  10.936   4.526 -1.3436 -1.0290 -0.0465
  697MOL0     C93981  10.175  10.836   4.555 -0.6197 -0.3130  0.6211
  697MOL0     C93982  10.073  10.826   4.442  0.6859 -0.2026  0.9833
  697MOL0     C93983   9.957  10.720   4.470  0.0265 -0.6269  0.9197
  697MOL0     O93984   9.901  10.751   4.592  0.4622 -0.4840  0.3126
  697MOL0     C93985   9.782  10.680   4.628 -0.4132  0.0614 -0.0071
  697MOL0     C93986   9.740  10.708   4.756 -0.1352  0.3416 -0.1242
  697MOL0     C93987   9.621  10.659   4.811 -0.3491  0.5382  0.0385
  697MOL0     C93988   9.589  10.694   4.944 -0.3873 -0.6262 -0.1744
  697MOL0     C93989   9.550  10.564   4.730  0.2018  1.4824  0.6157
  697MOL0     C93990   9.430  10.499   4.774  0.8365  0.4022  0.8533
  697MOL0     O93991   9.319  10.572   4.812 -0.2404  0.4072  0.2276
  697MOL0     C93992   9.227  10.498   4.878  0.0659 -0.3919 -1.1430
  697MOL0     C93993   9.220  10.493   5.016  0.2040  0.0058  0.3131
  697MOL0     C93994   9.120  10.427   5.083  0.7541  0.2615 -0.5096
  697MOL0     C93995   9.021  10.353   5.010  0.2437  0.1992 -0.2799
  697MOL0     O93996   8.916  10.289   5.072  0.5587  0.8470  0.3817
  697MOL0     C93997   8.920  10.250   5.205  0.3437 -0.1789  0.4658
  697MOL0     C93998   8.818  10.156   5.250  0.3294  0.0048  0.0223
  697MOL0     C93999   8.845  10.015   5.188 -0.1434 -0.3529  0.0893
  697MOL0     C94000   8.755   9.903   5.260  0.0487  0.2529 -0.7475
  697MOL0     C94001   8.805   9.757   5.228 -0.0502  0.4355 -0.6214
  697MOL0     C94002   8.696   9.653   5.269 -0.9847 -0.0371  0.3546
  697MOL0     C94003   8.760   9.518   5.262  0.0166  0.3693  0.3402
  697MOL0     C94004   8.644   9.411   5.276 -1.3895  0.7560  0.1223
  697MOL0    Cl94005   8.574   9.425   5.439 -0.0266  0.1790 -0.2508
  697MOL0     C94006   9.026  10.352   4.867 -0.5668 -0.7930 -0.1878
  697MOL0     C94007   9.131  10.429   4.808 -0.8200  0.0135 -0.2205
  697MOL0     O94008   9.434  10.374   4.760  0.1550  0.0261 -0.1779
  697MOL0     C94009   9.598  10.528   4.602 -0.3905 -0.5425 -0.1494
  697MOL0     C94010   9.716  10.585   4.558 -0.0231  0.3264 -0.4272
  697MOL0     N94011  10.487  11.033   4.666  0.7358 -0.0380  0.1276
  697MOL0     N94012  10.593  10.991   4.727  0.1872 -0.2382 -0.2860
  697MOL0     C94013  10.521  10.289   4.400  0.4872  0.5876 -0.2149
  697MOL0     C94014  10.385  10.273   4.462 -0.2887  0.2476  0.2632
  697MOL0     C94015   9.975  10.167   4.606  0.5384 -1.2701  0.5033
  697MOL0     C94016   9.867  10.240   4.648 -0.0466 -0.6100  0.4717
  697MOL0     C94017   9.751  10.188   4.700 -0.1044  0.5588  0.1409
  697MOL0     C94018   9.741  10.050   4.718  0.1584 -1.4317 -0.0155
  697MOL0     O94019   9.634   9.980   4.779  0.8070 -0.5918 -0.9128
  697MOL0     C94020   9.503  10.031   4.788  0.7126 -1.3644 -0.2332
  697MOL0     C94021   9.407   9.920   4.751 -0.2485  0.3810 -1.1472
  697MOL0     C94022   9.265   9.957   4.713 -0.2242  0.2646 -0.6689
  697MOL0     C94023   9.205  10.060   4.816 -0.4757  0.6738  1.2607
  697MOL0     C94024   9.212  10.012   4.953  0.4459  0.8567 -0.2369
  697MOL0     C94025   9.203   9.977   5.074  0.2445  0.7073 -0.3056
  697MOL0     C94026   9.847   9.971   4.690 -0.2806 -0.1298 -1.0878
  697MOL0     C94027   9.961  10.026   4.626  0.3805  0.1145  0.5609
  697MOL0     H94028  10.251  10.067   4.244 -3.0733  0.3053  4.6997
  697MOL0     H94029  10.455  10.130   4.103 -0.3649 -0.3095  1.3155
  697MOL0     H94030  10.750  10.186   4.364 -1.8130  3.1664  0.3418
  697MOL0     H94031  10.803  10.131   4.205 -2.5548  0.1374  0.4371
  697MOL0     H94032  10.971  10.300   4.324  0.9814  0.2606 -1.4838
  697MOL0     H94033  10.900  10.361   4.168 -1.3233  0.0455 -0.1267
  697MOL0     H94034  10.737  10.508   4.264  1.9344  0.3530 -1.2376
  697MOL0     H94035  10.761  10.446   4.424  0.5794 -1.0228  0.3535
  697MOL0     H94036  10.992  10.502   4.432  2.8627  0.5691 -0.3961
  697MOL0     H94037  10.999  10.554   4.271  1.5861 -4.4861  1.7015
  697MOL0     H94038  10.979  10.744   4.426 -0.0133  0.8323 -1.8657
  697MOL0     H94039  10.842  10.741   4.323  0.9946  2.3013  1.1935
  697MOL0     H94040  10.684  10.695   4.497 -0.1366 -4.1754 -0.9896
  697MOL0     H94041  10.807  10.592   4.588 -0.4711  0.6939  1.1827
  697MOL0     H94042  10.905  10.785   4.687 -0.3610  0.6097  0.2418
  697MOL0     H94043  10.808  10.898   4.596  2.0357  0.4993  3.0281
  697MOL0     H94044  10.751  10.810   4.834  0.0156 -0.3133  0.5200
  697MOL0     H94045  10.690  10.664   4.753  2.3136 -0.1003  2.7317
  697MOL0     H94046  10.465  10.716   4.615  1.9196  0.9253 -1.4220
  697MOL0     H94047  10.247  11.039   4.519 -1.3787 -1.1123 -1.4063
  697MOL0     H94048  10.329  10.917   4.427  2.6108  0.2441  1.2786
  697MOL0     H94049  10.138  10.869   4.652  2.6108  2.2105  1.1956
  697MOL0     H94050  10.213  10.733   4.561  1.9817  0.6390  2.8347
  697MOL0     H94051  10.124  10.804   4.348 -2.5062  1.8513 -1.4243
  697MOL0     H94052  10.027  10.924   4.425 -0.9113 -0.7100  2.0720
  697MOL0     H94053  10.009  10.625   4.483 -0.5380 -0.7333  2.8087
  697MOL0     H94054   9.884  10.721   4.389 -1.1433  2.5778  1.8559
  697MOL0     H94055   9.802  10.777   4.813  0.1543 -0.4475  0.5282
  697MOL0     H94056   9.630  10.625   5.018 -0.8769  1.8163  2.5574
  697MOL0     H94057   9.622  10.797   4.959 -1.3724 -0.3138 -0.0873
  697MOL0     H94058   9.481  10.680   4.957 -0.4600 -0.0870 -0.1674
  697MOL0     H94059   9.303  10.552   5.056  2.0483 -1.4654 -1.1410
  697MOL0     H94060   9.117  10.431   5.192 -0.2387  3.3485 -0.5804
  697MOL0     H94061   9.019  10.207   5.219  0.5168 -0.5124 -1.4671
  697MOL0     H94062   8.924  10.342   5.264  0.2831  0.7038 -0.8437
  697MOL0     H94063   8.841  10.141   5.356 -3.1598  1.5745  1.1491
  697MOL0     H94064   8.719  10.199   5.232  0.8186  0.0253 -3.2850
  697MOL0     H94065   8.944   9.987   5.225  0.2649  0.9743  0.0362
  697MOL0     H94066   8.853  10.012   5.079 -2.4594 -0.3454 -0.1217
  697MOL0     H94067   8.773   9.908   5.367  0.2122 -0.7289 -0.7178
  697MOL0     H94068   8.648   9.918   5.242  0.0901 -0.7114 -1.9463
  697MOL0     H94069   8.904   9.749   5.274  0.0774 -2.7288 -1.2199
  697MOL0     H94070   8.817   9.736   5.121 -4.1395 -3.2195 -0.6533
  697MOL0     H94071   8.676   9.682   5.372  0.8104 -0.6398  0.9230
  697MOL0     H94072   8.602   9.661   5.214  0.8804  1.8594 -2.8928
  697MOL0     H94073   8.832   9.510   5.344 -0.6286 -1.3452  0.7943
  697MOL0     H94074   8.808   9.510   5.163  0.0565 -1.4647  0.4775
  697MOL0     H94075   8.680   9.308   5.263 -3.3614 -0.0567  0.7721
  697MOL0     H94076   8.571   9.418   5.195 -1.2459  1.6875  0.0702
  697MOL0     H94077   8.961  10.292   4.803 -0.0465  2.0333 -3.6907
  697MOL0     H94078   9.152  10.424   4.701  1.5151 -2.3189  0.2379
  697MOL0     H94079   9.548  10.453   4.541 -1.0797  0.7462 -1.2269
  697MOL0     H94080   9.756  10.556   4.461  0.4146  0.1504 -0.1973
  697MOL0     H94081  10.595  10.339   4.461  2.9076 -1.5245 -1.2390
  697MOL0     H94082  10.376  10.320   4.559  0.0547 -1.2613  1.0574
  697MOL0     H94083   9.860  10.348   4.639  2.2013 -0.3695  1.0688
  697MOL0     H94084   9.680  10.268   4.720 -0.7298  0.2907 -0.9245
  697MOL0     H94085   9.485  10.070   4.889 -4.4061  0.1856 -1.4526
  697MOL0     H94086   9.482  10.118   4.726  3.0554  0.6939  1.6109
  697MOL0     H94087   9.410   9.847   4.833 -2.1296 -1.4276 -2.5854
  697MOL0     H94088   9.449   9.862   4.669  2.4065  2.4223 -1.3618
  697MOL0     H94089   9.210   9.863   4.718 -1.5130  0.8446 -2.6958
  697MOL0     H94090   9.248   9.994   4.611  1.7286  0.8010 -0.8544
  697MOL0     H94091   9.102  10.070   4.779 -0.1126 -3.0243 -1.2360
  697MOL0     H94092   9.250  10.159   4.801 -2.6885  1.6480  0.5373
  697MOL0     H94093   9.188   9.935   5.172  0.4426 -0.8661 -0.9285
  697MOL0     H94094   9.835   9.865   4.713 -1.7942  0.2377 -0.0204
  697MOL0     H94095  10.030   9.962   4.573  1.2543  2.5390 -1.4254
  698MOL0     O94096   3.230  10.364   7.844 -0.5596  0.2603  0.1278
  698MOL0     C94097   3.312  10.452   7.879  0.0237 -0.5881  0.4137
  698MOL0     O94098   3.441  10.477   7.822  0.3647 -0.3946  0.2794
  698MOL0     C94099   3.485  10.412   7.710 -0.2979 -0.7350  0.8711
  698MOL0     C94100   3.520  10.492   7.594  1.3072  0.0216 -0.5852
  698MOL0     C94101   3.541  10.443   7.468 -0.2221  0.5806  0.7580
  698MOL0     C94102   3.536  10.300   7.451 -0.0843  0.5104 -0.4296
  698MOL0     O94103   3.529  10.236   7.331 -0.3243 -0.7062  0.1729
  698MOL0     C94104   3.452  10.313   7.234  0.1922 -0.3094 -1.1247
  698MOL0     C94105   3.393  10.214   7.131  0.4120 -0.1583  0.6012
  698MOL0     C94106   3.295  10.106   7.182 -0.0097  0.0586  0.6528
  698MOL0     C94107   3.167  10.080   7.108  0.3661  0.7537 -0.2787
  698MOL0     C94108   3.062  10.184   7.130 -0.5530  0.1543  0.0102
  698MOL0     C94109   2.915  10.133   7.132 -0.2299 -0.4813 -0.0471
  698MOL0     C94110   2.880  10.064   7.261 -0.4084  0.3101  0.6200
  698MOL0     C94111   2.732  10.031   7.262 -0.2861 -0.2524  0.8756
  698MOL0     N94112   2.683   9.948   7.375 -0.2972 -0.0967  0.4020
  698MOL0     C94113   2.611   9.829   7.351  0.9881  0.5200  0.7169
  698MOL0     C94114   2.593   9.780   7.478  0.5654 -0.6049  0.9873
  698MOL0     C94115   2.534   9.650   7.491 -0.2510  0.1671 -0.8518
  698MOL0     C94116   2.557   9.547   7.381  0.5988 -0.2439  0.4943
  698MOL0     C94117   2.523   9.403   7.434 -0.3139 -0.4755  0.0727
  698MOL0     C94118   2.376   9.364   7.430 -0.0295 -0.2624  0.4050
  698MOL0     O94119   2.376   9.216   7.450 -0.3133  0.1862 -0.0421
  698MOL0     C94120   2.261   9.143   7.414 -0.4632  0.2158 -0.1364
  698MOL0     C94121   2.161   9.186   7.330  0.2710 -0.1039  0.2625
  698MOL0     C94122   2.034   9.109   7.331 -0.4060 -0.3745  0.2690
  698MOL0     C94123   1.920   9.190   7.257  0.2945 -0.2451  0.8589
  698MOL0     C94124   2.028   8.987   7.401  0.6601 -0.9309 -0.1296
  698MOL0     C94125   1.905   8.903   7.413  0.2871  0.0132  0.3648
  698MOL0     O94126   1.917   8.780   7.474 -0.6130 -0.0954  0.0662
  698MOL0     C94127   1.809   8.706   7.500  0.3750  0.1892 -1.1257
  698MOL0     C94128   1.803   8.573   7.478  0.0630  0.6813  0.0182
  698MOL0     C94129   1.685   8.497   7.493  0.4676  0.0548 -0.1851
  698MOL0     C94130   1.562   8.560   7.527  0.9951  1.3842  0.3406
  698MOL0     O94131   1.449   8.485   7.508 -0.3907 -0.1621  0.1860
  698MOL0     C94132   1.333   8.502   7.595 -0.3825  0.2254 -1.0525
  698MOL0     C94133   1.236   8.393   7.560 -0.0440 -0.4973 -0.2861
  698MOL0     C94134   1.125   8.374   7.669  0.7620  0.9905  0.4844
  698MOL0     C94135   1.017   8.273   7.626 -0.1835  0.0895 -0.3416
  698MOL0     C94136   0.916   8.272   7.736 -0.1748 -0.1051  1.5538
  698MOL0     C94137   0.797   8.177   7.697  0.8533 -0.9165 -0.2478
  698MOL0     C94138   0.692   8.173   7.822  0.7928  0.7699 -0.3248
  698MOL0     C94139   0.584   8.073   7.776  0.5176 -0.3020 -0.3952
  698MOL0    Cl94140   0.570   7.937   7.889  0.2172  0.0660 -0.0369
  698MOL0     C94141   1.569   8.684   7.571 -0.7965  0.1912  0.5661
  698MOL0     C94142   1.695   8.755   7.564 -0.0574  0.4387 -0.2952
  698MOL0     O94143   1.800   8.941   7.368 -0.0745 -0.1018  0.3956
  698MOL0     C94144   2.146   8.932   7.457 -0.5634  0.5059  0.4270
  698MOL0     C94145   2.258   9.014   7.470 -0.9557 -0.0581 -0.4422
  698MOL0     N94146   2.646   9.863   7.574 -0.5043 -0.2320 -0.5990
  698MOL0     N94147   2.693   9.965   7.512  0.3827  0.8008 -0.4554
  698MOL0     C94148   3.513  10.221   7.565  0.1356  0.6366 -0.7874
  698MOL0     C94149   3.494  10.274   7.693 -0.3802  0.3000 -0.1230
  698MOL0     C94150   3.275  10.537   7.998 -0.5403 -0.8566  0.4469
  698MOL0     C94151   3.351  10.648   8.027 -0.2344  0.7135  0.9791
  698MOL0     C94152   3.318  10.733   8.124 -1.0224 -0.4357  0.0697
  698MOL0     C94153   3.204  10.709   8.196  0.5964 -0.3311 -0.7134
  698MOL0     O94154   3.164  10.791   8.296 -0.7181  0.5228  0.4580
  698MOL0     C94155   3.230  10.915   8.326 -1.3798  0.2415 -0.2297
  698MOL0     C94156   3.121  10.998   8.399 -0.3372  0.3464 -0.8123
  698MOL0     C94157   3.144  11.156   8.401 -0.0979 -0.0459 -0.1094
  698MOL0     C94158   3.055  11.249   8.499 -0.3708 -0.4358 -0.0765
  698MOL0     C94159   3.111  11.381   8.505  0.1647 -0.7325 -0.3567
  698MOL0     C94160   3.158  11.491   8.504  0.5398 -1.2605 -0.3992
  698MOL0     C94161   3.115  10.611   8.163 -0.1024 -1.0323  0.2464
  698MOL0     C94162   3.151  10.526   8.062 -0.3146 -0.4773  0.3164
  698MOL0     H94163   3.524  10.600   7.610  0.2947 -0.1929  1.4359
  698MOL0     H94164   3.554  10.513   7.386  0.0393  1.8652  1.8518
  698MOL0     H94165   3.364  10.353   7.285  0.3771 -3.1748  1.7486
  698MOL0     H94166   3.505  10.395   7.185  0.8209 -0.0966 -0.0998
  698MOL0     H94167   3.331  10.276   7.066  0.6823 -2.6773 -2.2695
  698MOL0     H94168   3.468  10.169   7.065 -0.2033 -0.1416 -0.1219
  698MOL0     H94169   3.350  10.013   7.166 -2.2427 -0.7592 -4.2707
  698MOL0     H94170   3.272  10.117   7.289 -1.0513 -2.7800  0.7945
  698MOL0     H94171   3.188  10.077   7.000 -1.1993 -0.0698 -0.5959
  698MOL0     H94172   3.111   9.988   7.129  0.9067 -0.0455 -2.0613
  698MOL0     H94173   3.079  10.252   7.214 -0.4379 -1.8536  1.6933
  698MOL0     H94174   3.065  10.255   7.047 -3.6357  0.3432 -0.0348
  698MOL0     H94175   2.846  10.216   7.118  2.9153  2.3989  0.4647
  698MOL0     H94176   2.904  10.073   7.041  2.7989 -1.7821  0.3226
  698MOL0     H94177   2.926   9.965   7.269 -1.5245 -0.1965  0.8118
  698MOL0     H94178   2.904  10.117   7.353  0.5869 -4.0818  3.1709
  698MOL0     H94179   2.705   9.985   7.167  1.3520 -0.9120  0.6974
  698MOL0     H94180   2.690  10.132   7.264  1.9904  0.7965 -0.3582
  698MOL0     H94181   2.584   9.785   7.255  0.3981 -0.7811  1.4464
  698MOL0     H94182   2.578   9.605   7.581  3.4687  0.5951 -2.2887
  698MOL0     H94183   2.426   9.655   7.506 -0.3573 -0.6095 -1.2899
  698MOL0     H94184   2.658   9.547   7.339  1.1106 -0.8435  1.6566
  698MOL0     H94185   2.492   9.570   7.296 -0.9293 -0.9652  1.4193
  698MOL0     H94186   2.567   9.395   7.533 -1.3649  0.7542  0.6617
  698MOL0     H94187   2.568   9.331   7.365 -0.9116 -1.8624  1.0814
  698MOL0     H94188   2.332   9.394   7.335 -1.3744 -0.9361  0.7922
  698MOL0     H94189   2.323   9.418   7.508 -2.8802  1.8910 -2.7443
  698MOL0     H94190   2.166   9.282   7.280  1.4880  0.2110  0.9463
  698MOL0     H94191   1.847   9.120   7.215  0.7306 -0.7210  0.8804
  698MOL0     H94192   1.873   9.259   7.328 -1.4372 -2.4646  2.0236
  698MOL0     H94193   1.956   9.248   7.172 -0.0764 -1.6945 -0.3274
  698MOL0     H94194   1.885   8.518   7.433  0.1376 -1.6264  2.6630
  698MOL0     H94195   1.686   8.389   7.483 -1.6815 -0.1575  1.3913
  698MOL0     H94196   1.365   8.501   7.700 -3.2815 -0.3129 -0.0863
  698MOL0     H94197   1.283   8.600   7.589 -0.4085  0.1566 -2.1466
  698MOL0     H94198   1.180   8.431   7.474 -0.3685 -0.6568 -0.1480
  698MOL0     H94199   1.279   8.295   7.538  0.8987  0.1671 -1.5120
  698MOL0     H94200   1.070   8.468   7.683 -0.7240  0.1308  0.5062
  698MOL0     H94201   1.182   8.337   7.755  0.5604  0.2412  0.2976
  698MOL0     H94202   0.979   8.298   7.526  0.4357  0.5415 -0.4770
  698MOL0     H94203   1.055   8.171   7.626  1.5498  0.5648  3.6067
  698MOL0     H94204   0.887   8.377   7.746 -0.3981  0.3340 -2.2689
  698MOL0     H94205   0.972   8.233   7.821  1.5369  2.4193  1.7138
  698MOL0     H94206   0.759   8.205   7.598  1.6205 -3.3143 -1.2840
  698MOL0     H94207   0.848   8.081   7.688  0.2046 -1.0145 -5.0416
  698MOL0     H94208   0.649   8.268   7.855  1.8307  1.8942 -2.0798
  698MOL0     H94209   0.734   8.131   7.913 -2.4449  2.2199  2.0466
  698MOL0     H94210   0.611   8.046   7.673 -0.5036  0.9721 -1.0262
  698MOL0     H94211   0.486   8.120   7.775  0.8382  0.4177  0.6078
  698MOL0     H94212   1.491   8.728   7.633 -2.1076 -1.9566  0.5708
  698MOL0     H94213   1.704   8.858   7.597 -0.3639  0.7532 -1.1542
  698MOL0     H94214   2.146   8.830   7.493  0.2917  0.6165  0.7500
  698MOL0     H94215   2.352   8.974   7.507 -0.8445  0.0150 -0.6459
  698MOL0     H94216   3.506  10.113   7.564 -2.3098  0.7488 -2.0212
  698MOL0     H94217   3.485  10.205   7.777 -0.8741 -1.4776 -1.5946
  698MOL0     H94218   3.449  10.657   7.981  0.1165 -2.4379  0.8925
  698MOL0     H94219   3.400  10.801   8.146 -2.3927  1.8806 -1.5897
  698MOL0     H94220   3.318  10.886   8.384 -2.4100  1.1385  1.8429
  698MOL0     H94221   3.254  10.967   8.232 -3.4154  1.1424 -0.3049
  698MOL0     H94222   3.102  10.953   8.497 -1.4196  0.4583 -0.9680
  698MOL0     H94223   3.032  10.992   8.336 -0.2844 -0.2424 -0.8369
  698MOL0     H94224   3.146  11.204   8.303 -0.3521 -0.9758 -0.5883
  698MOL0     H94225   3.246  11.175   8.434 -0.0830 -0.3428  0.0256
  698MOL0     H94226   3.044  11.214   8.602  0.5245 -0.9867 -0.1616
  698MOL0     H94227   2.953  11.257   8.458  0.1662  0.5365 -1.2691
  698MOL0     H94228   3.196  11.591   8.513  0.9149 -1.5542  1.6804
  698MOL0     H94229   3.025  10.589   8.221  1.8755 -2.8300  2.8962
  698MOL0     H94230   3.075  10.457   8.028 -0.4378 -0.8365  1.2881
  699MOL0     O94231   2.078   0.396   8.714  0.4221 -0.7410 -0.0844
  699MOL0     C94232   2.192   0.354   8.715 -0.6369  0.9051  0.6427
  699MOL0     O94233   2.286   0.377   8.624 -0.0741 -0.9802  0.9879
  699MOL0     C94234   2.236   0.427   8.502 -1.8305  0.1165  0.0689
  699MOL0     C94235   2.289   0.544   8.435 -0.1147 -0.8633  0.0959
  699MOL0     C94236   2.232   0.592   8.319  0.5899 -0.4067  0.3509
  699MOL0     C94237   2.125   0.535   8.257  0.8195 -0.3097  0.0487
  699MOL0     O94238   2.070   0.596   8.144  0.1699  0.9707 -0.8758
  699MOL0     C94239   1.942   0.656   8.169 -0.0442  0.1068 -0.0429
  699MOL0     C94240   1.872   0.690   8.036  0.1697 -1.0942 -0.5871
  699MOL0     C94241   1.830   0.566   7.971 -0.2209  0.7247  1.6861
  699MOL0     C94242   1.686   0.518   8.015 -0.4967 -0.0183  0.0531
  699MOL0     C94243   1.646   0.380   7.945  0.4836  0.2392 -0.4753
  699MOL0     C94244   1.501   0.336   7.981  0.1085 -0.0495 -0.5985
  699MOL0     C94245   1.392   0.442   7.943 -0.6627  1.2547 -0.9040
  699MOL0     C94246   1.388   0.475   7.791  0.0674  0.2211 -1.1084
  699MOL0     N94247   1.263   0.542   7.747  0.4642  0.4643 -0.2078
  699MOL0     C94248   1.148   0.483   7.705  0.7399  0.2392 -0.7884
  699MOL0     C94249   1.065   0.587   7.691  0.4733  0.0162 -0.5123
  699MOL0     C94250   0.925   0.579   7.650 -0.5827  0.4238  0.2376
  699MOL0     C94251   0.913   0.519   7.503 -0.6506 -0.3786  0.1138
  699MOL0     C94252   0.782   0.562   7.437  0.2574 -1.2697  0.1117
  699MOL0     C94253   0.681   0.446   7.421  0.0551  0.2511  0.4490
  699MOL0     O94254   0.553   0.490   7.365  0.2016  0.2776  1.0893
  699MOL0     C94255   0.459   0.391   7.320 -0.3124  0.3315 -0.5298
  699MOL0     C94256   0.338   0.447   7.289 -0.2221  0.7327  0.3776
  699MOL0     C94257   0.238   0.377   7.223  1.4605  0.5548 -0.3665
  699MOL0     C94258   0.121   0.457   7.171 -0.3113 -0.0714 -0.7329
  699MOL0     C94259   0.250   0.235   7.201 -1.0195  0.6003  0.7177
  699MOL0     C94260   0.144   0.144   7.156 -0.1216 -0.2419  0.1882
  699MOL0     O94261   0.196   0.031   7.105  0.2634 -0.1127 -0.3244
  699MOL0     C94262   0.114  -0.075   7.081  0.7538 -0.6093 -0.0978
  699MOL0     C94263   0.160  -0.197   7.117 -0.3120  0.8696 -0.4217
  699MOL0     C94264   0.086  -0.316   7.092 -0.1008  0.3895  0.3098
  699MOL0     C94265  -0.042  -0.310   7.034 -0.1539 -0.7548  0.2207
  699MOL0     O94266  -0.126  -0.415   7.019  0.3051 -0.2064 -0.1519
  699MOL0     C94267  -0.119  -0.521   7.112 -0.6997  0.0874  0.3613
  699MOL0     C94268  -0.233  -0.617   7.080  0.5862  0.3388  0.1739
  699MOL0     C94269  -0.372  -0.566   7.122  0.2617 -0.4923  0.4801
  699MOL0     C94270  -0.376  -0.564   7.277  0.4767 -0.0878  0.0303
  699MOL0     C94271  -0.523  -0.548   7.318  0.7256 -0.2336 -0.3386
  699MOL0     C94272  -0.520  -0.534   7.461  0.7218 -0.7150 -0.3123
  699MOL0     C94273  -0.647  -0.566   7.536 -0.3138 -1.0488  0.0984
  699MOL0     C94274  -0.628  -0.514   7.673  0.1507 -0.5369 -0.0477
  699MOL0    Cl94275  -0.668  -0.330   7.671  0.3220  0.5862 -0.1536
  699MOL0     C94276  -0.095  -0.182   7.003 -0.0221 -0.0903 -0.3041
  699MOL0     C94277  -0.013  -0.068   7.024 -0.4368  0.2925  0.1990
  699MOL0     O94278   0.023   0.168   7.178  0.0824  0.5025  0.1028
  699MOL0     C94279   0.377   0.173   7.241 -0.4561  0.2756  0.3726
  699MOL0     C94280   0.478   0.257   7.294  0.5002 -0.3653 -0.0045
  699MOL0     N94281   1.133   0.704   7.717  0.3401  0.4898  0.5476
  699MOL0     N94282   1.254   0.674   7.756 -0.7317  0.3186 -0.1571
  699MOL0     C94283   2.077   0.416   8.311 -0.7133  0.6291 -0.2483
  699MOL0     C94284   2.131   0.358   8.432  0.6618 -0.2575 -0.0403
  699MOL0     C94285   2.239   0.280   8.834 -0.4900  0.2325 -0.6499
  699MOL0     C94286   2.359   0.209   8.842 -1.0345 -0.3873  0.2929
  699MOL0     C94287   2.415   0.155   8.958  0.1360 -0.7467  0.5211
  699MOL0     C94288   2.334   0.149   9.074  0.5512 -1.2267 -0.5809
  699MOL0     O94289   2.388   0.084   9.176  1.0376  0.1484  0.5181
  699MOL0     C94290   2.335   0.092   9.305  0.0813 -1.1682 -0.1080
  699MOL0     C94291   2.442   0.024   9.402 -0.4317  0.1318  0.3425
  699MOL0     C94292   2.577   0.091   9.385 -0.5489  0.5754 -0.8083
  699MOL0     C94293   2.683   0.037   9.474  0.1482  0.0253  0.3198
  699MOL0     C94294   2.815   0.109   9.456  0.1092  0.5428  0.1113
  699MOL0     C94295   2.905   0.177   9.452 -0.3110  0.8917 -0.2988
  699MOL0     C94296   2.206   0.215   9.067 -0.3296  0.4212 -0.5460
  699MOL0     C94297   2.155   0.272   8.951 -0.1184  0.2697  0.0431
  699MOL0     H94298   2.374   0.602   8.470 -0.3176  1.0859 -2.3867
  699MOL0     H94299   2.270   0.681   8.270 -0.7761 -0.6185 -1.2118
  699MOL0     H94300   1.881   0.592   8.233  0.5002  1.4299  1.8879
  699MOL0     H94301   1.956   0.754   8.215  0.1094 -0.9970  2.3836
  699MOL0     H94302   1.788   0.760   8.045  0.3796 -1.0561  2.3370
  699MOL0     H94303   1.944   0.753   7.982 -0.9628  0.1527 -0.7034
  699MOL0     H94304   1.835   0.591   7.865  0.4662  1.7031  1.9305
  699MOL0     H94305   1.896   0.482   7.996  0.1384  0.7429  0.8182
  699MOL0     H94306   1.683   0.504   8.124 -0.6808 -0.0227  0.0478
  699MOL0     H94307   1.614   0.597   7.993  0.0416  0.1340 -1.2547
  699MOL0     H94308   1.661   0.395   7.837  3.7827  0.8234 -0.0470
  699MOL0     H94309   1.717   0.303   7.977  0.6192 -0.1287 -1.6106
  699MOL0     H94310   1.483   0.243   7.926 -0.3034  1.7268 -3.7358
  699MOL0     H94311   1.502   0.322   8.089 -0.5138 -0.4897 -0.6466
  699MOL0     H94312   1.296   0.399   7.973  0.4030  0.2350  1.2857
  699MOL0     H94313   1.403   0.528   8.010  2.7732 -0.5702  1.1694
  699MOL0     H94314   1.402   0.381   7.736  1.1883 -0.4229  0.2233
  699MOL0     H94315   1.471   0.538   7.759  2.4030 -2.1626 -0.1183
  699MOL0     H94316   1.133   0.376   7.689 -4.6320  0.7407 -0.8083
  699MOL0     H94317   0.866   0.517   7.719 -1.2210  1.0479  0.2586
  699MOL0     H94318   0.882   0.679   7.657  0.6483  1.3806 -3.6812
  699MOL0     H94319   0.931   0.411   7.501  0.6216 -0.2383 -3.4854
  699MOL0     H94320   0.988   0.584   7.458 -1.2501  2.4259  2.8938
  699MOL0     H94321   0.809   0.611   7.342  2.5718  0.5686  1.6056
  699MOL0     H94322   0.729   0.639   7.494 -2.0714 -1.3254 -1.7899
  699MOL0     H94323   0.660   0.408   7.521 -1.1789 -0.8667 -0.2145
  699MOL0     H94324   0.724   0.369   7.357  1.4360  0.5407  0.9838
  699MOL0     H94325   0.334   0.554   7.309 -0.4490  1.6424 -3.7390
  699MOL0     H94326   0.156   0.557   7.141  1.1762 -0.5462 -0.6853
  699MOL0     H94327   0.071   0.412   7.085 -2.7710  2.0347 -0.5271
  699MOL0     H94328   0.048   0.461   7.252  2.6426 -0.2387  2.1851
  699MOL0     H94329   0.263  -0.214   7.146  0.2297 -0.2208 -2.7137
  699MOL0     H94330   0.123  -0.416   7.115 -2.4799 -0.5217  0.4411
  699MOL0     H94331  -0.022  -0.569   7.102 -0.7310  0.2558 -0.8624
  699MOL0     H94332  -0.113  -0.489   7.216  2.9881  0.3104  0.2049
  699MOL0     H94333  -0.239  -0.634   6.972 -2.7573  1.3739  0.0840
  699MOL0     H94334  -0.224  -0.712   7.133 -1.1782 -0.5717 -1.0482
  699MOL0     H94335  -0.452  -0.634   7.092 -0.3928 -0.4215  1.9692
  699MOL0     H94336  -0.398  -0.468   7.082  0.0723 -0.9204 -0.4722
  699MOL0     H94337  -0.338  -0.657   7.321 -0.0543  0.4369  1.6901
  699MOL0     H94338  -0.328  -0.467   7.296  2.6551 -0.2853 -3.4577
  699MOL0     H94339  -0.580  -0.640   7.299 -0.1575  0.1762  0.2733
  699MOL0     H94340  -0.565  -0.460   7.269  2.9224  1.4443  0.6573
  699MOL0     H94341  -0.454  -0.605   7.509  1.6007  0.9204  0.9907
  699MOL0     H94342  -0.492  -0.432   7.489  4.4778 -1.3025 -1.3797
  699MOL0     H94343  -0.671  -0.673   7.532 -2.7740 -0.5097 -0.9386
  699MOL0     H94344  -0.723  -0.503   7.489  0.6293 -1.7379 -2.5407
  699MOL0     H94345  -0.524  -0.535   7.701 -0.2197 -2.7166 -0.1611
  699MOL0     H94346  -0.694  -0.561   7.747  0.7589 -3.1685 -1.0584
  699MOL0     H94347  -0.194  -0.172   6.960 -0.3914 -0.7354  0.3651
  699MOL0     H94348  -0.048   0.031   6.996 -0.5253  0.7253  1.7196
  699MOL0     H94349   0.388   0.068   7.220 -1.3550  0.3167 -0.3674
  699MOL0     H94350   0.573   0.218   7.329  0.8614 -0.2355 -0.7984
  699MOL0     H94351   1.987   0.368   8.274 -0.6177  0.2375  0.0275
  699MOL0     H94352   2.080   0.273   8.476  1.9519  0.2741  2.7691
  699MOL0     H94353   2.419   0.209   8.751  1.4077 -1.5157  1.7884
  699MOL0     H94354   2.514   0.113   8.962  1.6587  2.4219 -0.5454
  699MOL0     H94355   2.306   0.190   9.343  4.6718  0.8020 -0.9387
  699MOL0     H94356   2.242   0.035   9.310 -4.1806  4.9442  0.0219
  699MOL0     H94357   2.459  -0.083   9.385  1.1365  0.3260  0.5247
  699MOL0     H94358   2.408   0.031   9.505 -0.7907  0.6030  0.1927
  699MOL0     H94359   2.568   0.196   9.412 -1.5183 -0.2635  2.6012
  699MOL0     H94360   2.608   0.070   9.282  0.0187 -2.3526 -0.1421
  699MOL0     H94361   2.705  -0.069   9.461 -0.6770 -0.2409  1.0272
  699MOL0     H94362   2.655   0.042   9.579 -1.7131  0.0894 -0.1576
  699MOL0     H94363   3.003   0.221   9.456 -0.7727  1.9053  0.3615
  699MOL0     H94364   2.139   0.216   9.152  0.2131  0.3061 -0.1152
  699MOL0     H94365   2.062   0.327   8.953 -1.2201 -1.5240  1.1595
  700MOL0     O94366   0.848   4.910   9.459  0.4428  0.1912 -0.0950
  700MOL0     C94367   0.827   4.963   9.350  0.2909  0.0979 -0.9280
  700MOL0     O94368   0.757   4.913   9.244  0.3484 -0.1457  0.5430
  700MOL0     C94369   0.672   4.811   9.251 -0.0809 -0.0412 -0.0596
  700MOL0     C94370   0.636   4.747   9.371 -0.2847 -0.1702 -0.2681
  700MOL0     C94371   0.562   4.628   9.381  0.8051  0.4508  0.0199
  700MOL0     C94372   0.498   4.581   9.261 -0.5407  0.2176  0.3082
  700MOL0     O94373   0.408   4.472   9.260 -0.2307  0.2760  0.2295
  700MOL0     C94374   0.472   4.354   9.204  0.3254 -0.4622  0.0605
  700MOL0     C94375   0.355   4.260   9.173 -0.4336 -0.9731  0.2385
  700MOL0     C94376   0.331   4.176   9.294  0.6349  0.0820 -0.6179
  700MOL0     C94377   0.194   4.120   9.308  0.5951  0.8118 -0.0056
  700MOL0     C94378   0.181   4.031   9.439 -0.1947 -0.2529 -0.5208
  700MOL0     C94379   0.031   3.994   9.476 -0.3087  0.1771 -0.0672
  700MOL0     C94380  -0.083   4.092   9.430  0.3615 -0.4127 -0.0980
  700MOL0     C94381  -0.221   4.055   9.481 -0.8599 -0.5047 -0.1535
  700MOL0     N94382  -0.251   4.097   9.620  0.3933 -0.3439  0.1771
  700MOL0     C94383  -0.343   4.033   9.699  1.4341 -1.0476 -0.3371
  700MOL0     C94384  -0.316   4.082   9.819  0.1610 -0.4038 -0.1367
  700MOL0     C94385  -0.381   4.019   9.943  0.7662  0.0788 -0.3216
  700MOL0     C94386  -0.319   3.884   9.983  1.0230  0.7182  0.9074
  700MOL0     C94387  -0.337   3.765   9.878  0.4411  0.1361 -1.9640
  700MOL0     C94388  -0.247   3.639   9.906  0.4185  0.3405  0.8127
  700MOL0     O94389  -0.108   3.655   9.894 -0.3314  0.5564  0.0456
  700MOL0     C94390  -0.048   3.632   9.770  0.4142 -0.1899  0.7750
  700MOL0     C94391  -0.118   3.598   9.647 -0.4328 -0.7416 -0.6908
  700MOL0     C94392  -0.051   3.575   9.526  0.5485  0.5008  1.2095
  700MOL0     C94393  -0.135   3.532   9.407 -0.8312  0.4517 -0.2791
  700MOL0     C94394   0.089   3.609   9.513 -0.8726  0.4417 -0.7223
  700MOL0     C94395   0.175   3.616   9.388  0.0913  0.4263 -0.0097
  700MOL0     O94396   0.298   3.664   9.409  0.5679  0.6585  1.1783
  700MOL0     C94397   0.389   3.646   9.305 -0.8190 -0.6913  0.0505
  700MOL0     C94398   0.386   3.739   9.200  0.0750 -0.7992  0.6967
  700MOL0     C94399   0.480   3.740   9.093  0.5144  0.2628 -1.6270
  700MOL0     C94400   0.579   3.646   9.098 -0.1521 -1.4088 -0.0070
  700MOL0     O94401   0.676   3.631   8.999  0.6735 -0.8326  0.0884
  700MOL0     C94402   0.676   3.717   8.893 -0.7430 -0.2121  0.0593
  700MOL0     C94403   0.809   3.701   8.804 -0.0756 -0.0716  0.5798
  700MOL0     C94404   0.820   3.550   8.753 -0.3333  0.3877 -0.6208
  700MOL0     C94405   0.952   3.509   8.705  0.4293  0.6987 -0.4939
  700MOL0     C94406   0.961   3.362   8.658  0.5757 -0.8153  0.2303
  700MOL0     C94407   0.919   3.264   8.760  0.5094  0.2779 -0.3296
  700MOL0     C94408   0.974   3.268   8.901  0.3681 -0.2638  0.3426
  700MOL0     C94409   0.926   3.146   8.995 -0.2953  1.0008  0.3228
  700MOL0    Cl94410   0.992   2.994   8.924  0.0078  0.1529 -0.0340
  700MOL0     C94411   0.584   3.560   9.200  0.1400  0.0066 -1.0129
  700MOL0     C94412   0.493   3.555   9.305 -0.0816 -0.3744 -0.2648
  700MOL0     O94413   0.129   3.592   9.275 -0.3775  0.3023  0.1639
  700MOL0     C94414   0.153   3.642   9.645 -0.2902 -0.1334  0.3038
  700MOL0     C94415   0.084   3.659   9.763 -0.9153 -0.4844  0.0522
  700MOL0     N94416  -0.224   4.187   9.818  1.0456  0.4180  0.5068
  700MOL0     N94417  -0.170   4.175   9.701  0.5315  0.6671  0.4916
  700MOL0     C94418   0.527   4.653   9.138 -0.0257 -0.8525  0.0129
  700MOL0     C94419   0.625   4.751   9.135 -0.7864  0.0333 -0.1124
  700MOL0     C94420   0.886   5.096   9.338  0.7478  0.3078  0.0511
  700MOL0     C94421   0.882   5.151   9.218 -0.5344 -0.3408  0.0976
  700MOL0     C94422   0.946   5.277   9.206  1.1802 -0.1162  0.3757
  700MOL0     C94423   1.007   5.340   9.313  0.6606 -0.9220  0.5391
  700MOL0     O94424   1.067   5.463   9.278  0.2190  0.2665 -0.2878
  700MOL0     C94425   0.989   5.566   9.343 -0.4705 -0.2305  0.0207
  700MOL0     C94426   1.040   5.707   9.298 -0.0023 -0.2961  0.0727
  700MOL0     C94427   1.043   5.727   9.144  0.3348  0.4886  0.0819
  700MOL0     C94428   1.074   5.872   9.116  0.8752  0.0891  0.7075
  700MOL0     C94429   1.097   5.889   8.970  0.3047 -0.0369 -0.2161
  700MOL0     C94430   1.112   5.897   8.851 -0.5933  0.2081  0.3208
  700MOL0     C94431   1.000   5.291   9.444  0.2759 -0.3490  0.5753
  700MOL0     C94432   0.931   5.170   9.451 -0.6767 -0.1075 -0.2021
  700MOL0     H94433   0.658   4.792   9.467 -0.4257 -1.0826  0.2141
  700MOL0     H94434   0.542   4.579   9.475 -0.8381 -0.7820 -0.9023
  700MOL0     H94435   0.535   4.381   9.119  0.5281  1.2313  0.7040
  700MOL0     H94436   0.548   4.312   9.271 -0.0312  0.0650  0.8212
  700MOL0     H94437   0.263   4.314   9.150  1.1904  2.6016  1.4205
  700MOL0     H94438   0.375   4.197   9.085  2.5015  0.6850 -0.4281
  700MOL0     H94439   0.399   4.092   9.279 -1.2635 -2.2092  2.3507
  700MOL0     H94440   0.359   4.238   9.380 -4.1873 -0.9091  2.0457
  700MOL0     H94441   0.124   4.203   9.317 -1.1374 -0.4751 -0.9213
  700MOL0     H94442   0.170   4.050   9.227  1.6915 -2.2555  2.1319
  700MOL0     H94443   0.241   3.941   9.421  0.4611  0.3370 -1.3983
  700MOL0     H94444   0.230   4.082   9.523  1.4105 -2.4177 -0.0674
  700MOL0     H94445   0.020   3.898   9.424 -2.4855  1.2653 -1.7474
  700MOL0     H94446   0.023   3.976   9.584 -0.9854  1.3799  0.0916
  700MOL0     H94447  -0.065   4.197   9.455  1.1430 -0.7644  0.9024
  700MOL0     H94448  -0.087   4.090   9.321 -0.3883 -0.1506 -0.0835
  700MOL0     H94449  -0.242   3.948   9.471 -0.9732 -0.6259  1.1797
  700MOL0     H94450  -0.299   4.104   9.422 -0.6977  2.8208  2.1220
  700MOL0     H94451  -0.414   3.954   9.677 -0.1481  0.2087  0.0063
  700MOL0     H94452  -0.363   4.094  10.021 -0.4980  2.1374 -1.9070
  700MOL0     H94453  -0.490   4.017   9.938  0.6860 -0.8318  1.2620
  700MOL0     H94454  -0.376   3.837  10.063 -0.4620 -4.3096 -2.5739
  700MOL0     H94455  -0.212   3.893  10.006  1.0958  0.3867  0.7143
  700MOL0     H94456  -0.308   3.806   9.781 -2.0664  0.9341 -2.4667
  700MOL0     H94457  -0.440   3.726   9.878 -0.0893  1.3515  0.2155
  700MOL0     H94458  -0.287   3.550   9.856 -2.7054  2.7109 -1.3719
  700MOL0     H94459  -0.269   3.611  10.009 -2.1154 -2.7842 -0.4214
  700MOL0     H94460  -0.225   3.600   9.661 -0.1114  1.5009  2.6961
  700MOL0     H94461  -0.193   3.624   9.393 -0.9975  0.3895 -0.0045
  700MOL0     H94462  -0.092   3.496   9.313 -0.8754  2.0669 -0.9491
  700MOL0     H94463  -0.204   3.452   9.436 -0.8853  0.5376 -0.1711
  700MOL0     H94464   0.304   3.810   9.205 -1.7980 -2.9125  1.3279
  700MOL0     H94465   0.481   3.820   9.020  1.0805  0.3181 -1.5663
  700MOL0     H94466   0.578   3.715   8.845 -1.0191  0.2314  0.5884
  700MOL0     H94467   0.683   3.818   8.935 -0.8433  0.8419 -2.2682
  700MOL0     H94468   0.797   3.776   8.725  1.2990  0.5201  0.9177
  700MOL0     H94469   0.899   3.743   8.850 -0.9357  4.3913 -1.3156
  700MOL0     H94470   0.755   3.522   8.670 -0.1831  1.7804 -1.2426
  700MOL0     H94471   0.797   3.494   8.844 -1.3812 -2.8688 -2.7377
  700MOL0     H94472   0.984   3.563   8.615  0.7094 -4.0551 -3.6160
  700MOL0     H94473   1.030   3.514   8.781 -0.6500  0.2756  0.6756
  700MOL0     H94474   1.062   3.340   8.623  0.8861  0.6243  0.1781
  700MOL0     H94475   0.897   3.359   8.569  0.6836 -0.7063  0.1476
  700MOL0     H94476   0.811   3.258   8.779  0.9445 -2.4551  1.9587
  700MOL0     H94477   0.952   3.174   8.706 -3.2764 -0.6831 -1.3390
  700MOL0     H94478   0.947   3.363   8.950  2.5235  0.8898 -0.5506
  700MOL0     H94479   1.083   3.270   8.889  0.1845 -1.0593 -1.8380
  700MOL0     H94480   0.816   3.141   9.001 -0.2037 -0.2677  1.5845
  700MOL0     H94481   0.971   3.151   9.095  0.7445 -0.7319 -0.0069
  700MOL0     H94482   0.663   3.486   9.197  1.9326  1.8618 -1.9689
  700MOL0     H94483   0.500   3.498   9.397  2.1140 -0.2728 -0.3323
  700MOL0     H94484   0.259   3.667   9.651 -0.8044  1.9618  1.2119
  700MOL0     H94485   0.131   3.690   9.856 -0.2334 -0.4688 -0.2898
  700MOL0     H94486   0.475   4.622   9.048  0.6170  0.8623 -0.9937
  700MOL0     H94487   0.659   4.789   9.039  2.1921 -0.0777  0.8267
  700MOL0     H94488   0.847   5.108   9.125  2.4840 -1.2464 -0.7376
  700MOL0     H94489   0.935   5.335   9.114  1.6528  1.7037  1.4138
  700MOL0     H94490   0.884   5.555   9.315 -0.4282  1.0429 -0.6910
  700MOL0     H94491   0.989   5.549   9.451 -3.1908 -2.2105 -0.1836
  700MOL0     H94492   1.145   5.708   9.329 -0.7750  0.5591  2.9636
  700MOL0     H94493   0.986   5.782   9.357  1.4745 -1.7368  3.5062
  700MOL0     H94494   0.944   5.711   9.100  0.0698  0.8749  0.5219
  700MOL0     H94495   1.116   5.656   9.105  0.3691  0.3123  0.4613
  700MOL0     H94496   1.156   5.902   9.182  0.0507  0.3714  1.6365
  700MOL0     H94497   0.985   5.931   9.140 -1.1680 -1.9569 -1.3513
  700MOL0     H94498   1.128   5.907   8.745  0.2270  3.0374  0.6320
  700MOL0     H94499   1.050   5.348   9.522  2.2104  0.7801 -1.3697
  700MOL0     H94500   0.917   5.122   9.547 -0.3869 -3.2249 -1.6138
  701MOL0     O94501   9.252   4.301   7.098 -1.0493  0.2804 -0.3845
  701MOL0     C94502   9.258   4.352   7.207  0.3665  0.5923  0.0998
  701MOL0     O94503   9.183   4.317   7.306  0.4544  0.1979 -0.0941
  701MOL0     C94504   9.080   4.226   7.292 -0.2016 -0.4785  0.1573
  701MOL0     C94505   9.093   4.092   7.260 -0.8961 -0.4631 -0.6698
  701MOL0     C94506   8.991   4.002   7.257  0.3553 -0.0168  0.9976
  701MOL0     C94507   8.865   4.046   7.288 -0.2629  0.1047 -0.1394
  701MOL0     O94508   8.753   3.968   7.296  0.6632 -0.6314 -0.6719
  701MOL0     C94509   8.761   3.834   7.254 -0.5080  0.2165 -0.4762
  701MOL0     C94510   8.784   3.809   7.109  0.1713  0.9837  0.2271
  701MOL0     C94511   8.797   3.663   7.080 -0.1368 -0.1765 -0.3261
  701MOL0     C94512   8.851   3.641   6.936 -0.1092  0.3456 -0.0671
  701MOL0     C94513   8.831   3.504   6.903  0.1677  0.0587 -0.0920
  701MOL0     C94514   8.864   3.473   6.761 -0.2388 -0.4256  0.0203
  701MOL0     C94515   8.855   3.324   6.712 -0.1262 -0.0644 -0.6319
  701MOL0     C94516   8.704   3.274   6.713 -1.0526  0.1020 -0.0715
  701MOL0     N94517   8.690   3.126   6.724  0.1061 -0.3269 -0.8653
  701MOL0     C94518   8.575   3.067   6.771  0.0299  0.3981 -0.0755
  701MOL0     C94519   8.585   2.937   6.728 -1.1387  0.2319  0.0916
  701MOL0     C94520   8.487   2.829   6.757 -0.7481  0.2885 -0.2682
  701MOL0     C94521   8.406   2.848   6.888  0.5023  0.3566  0.3033
  701MOL0     C94522   8.375   2.715   6.964  0.5385 -1.0652 -0.2649
  701MOL0     C94523   8.311   2.749   7.104 -0.2335  0.3390 -0.3025
  701MOL0     O94524   8.182   2.823   7.077 -1.3054 -0.0004 -0.6013
  701MOL0     C94525   8.068   2.772   7.122 -0.0754 -0.3574 -1.0659
  701MOL0     C94526   7.951   2.809   7.054  0.7066 -0.5682 -0.1004
  701MOL0     C94527   7.825   2.773   7.104 -0.2724 -0.2430 -0.2791
  701MOL0     C94528   7.705   2.841   7.029  0.7169  0.6058 -0.0994
  701MOL0     C94529   7.809   2.684   7.217 -0.2276 -0.5509  0.0600
  701MOL0     C94530   7.680   2.637   7.274  1.3266 -0.2220 -0.4858
  701MOL0     O94531   7.674   2.590   7.408 -0.2724 -0.6231  1.3775
  701MOL0     C94532   7.567   2.529   7.448 -0.5285  0.2008 -0.7825
  701MOL0     C94533   7.543   2.384   7.414 -0.5611  0.5100 -0.2541
  701MOL0     C94534   7.432   2.314   7.463 -0.4080  0.3626 -0.7834
  701MOL0     C94535   7.342   2.389   7.546 -0.5293 -1.0747  0.1805
  701MOL0     O94536   7.234   2.348   7.610 -0.5035  0.6349 -0.4802
  701MOL0     C94537   7.199   2.203   7.604  0.5834  0.8421 -0.7337
  701MOL0     C94538   7.074   2.180   7.685 -0.0264  1.2060  0.0563
  701MOL0     C94539   7.084   2.038   7.757 -0.0756 -0.1947 -0.0526
  701MOL0     C94540   6.946   1.976   7.792 -1.0516 -0.1135  0.0525
  701MOL0     C94541   6.857   2.056   7.885 -0.4513 -0.4837  0.6322
  701MOL0     C94542   6.757   1.970   7.960  0.4039 -0.2728 -0.0203
  701MOL0     C94543   6.825   1.904   8.080  0.0221  0.1012  0.0366
  701MOL0     C94544   6.903   1.999   8.171 -0.3653 -0.1223 -0.6244
  701MOL0    Cl94545   6.799   2.120   8.228  0.2193  0.0929  0.2695
  701MOL0     C94546   7.360   2.530   7.577 -0.0197  0.4939 -0.0447
  701MOL0     C94547   7.479   2.592   7.531  0.2327 -0.2346 -0.5601
  701MOL0     O94548   7.579   2.641   7.204  0.4636 -0.6115 -0.1016
  701MOL0     C94549   7.927   2.649   7.283 -0.0367  0.5599 -0.2885
  701MOL0     C94550   8.055   2.693   7.240 -0.5529 -0.6533 -0.6108
  701MOL0     N94551   8.694   2.931   6.642 -0.5683  0.5511 -0.4148
  701MOL0     N94552   8.757   3.042   6.634  0.0922 -0.4489 -0.4050
  701MOL0     C94553   8.849   4.185   7.299  0.2066 -0.1664 -0.0718
  701MOL0     C94554   8.949   4.271   7.303  0.2128  0.6146  0.7990
  701MOL0     C94555   9.372   4.441   7.237  0.0958 -0.3665  0.0446
  701MOL0     C94556   9.380   4.527   7.348  0.6601 -0.0357 -0.5717
  701MOL0     C94557   9.488   4.612   7.368  0.3151  0.5138  0.3746
  701MOL0     C94558   9.595   4.620   7.272  0.1687 -0.0385 -0.3084
  701MOL0     O94559   9.691   4.718   7.295  0.0277 -0.0279 -0.1842
  701MOL0     C94560   9.802   4.706   7.211  0.6404  0.2548 -0.5583
  701MOL0     C94561   9.912   4.816   7.244 -0.6139 -0.2960 -0.3692
  701MOL0     C94562   9.869   4.959   7.267  0.1540 -0.3333  0.4173
  701MOL0     C94563   9.992   5.029   7.313  0.3863  0.0074  0.1231
  701MOL0     C94564  10.074   5.079   7.203 -0.7040 -0.5798  0.5039
  701MOL0     C94565  10.149   5.118   7.118  0.7163 -0.0124  0.0802
  701MOL0     C94566   9.587   4.528   7.162 -0.1398 -0.9648  0.0579
  701MOL0     C94567   9.477   4.448   7.148  1.5805  0.6412  0.6095
  701MOL0     H94568   9.192   4.048   7.245 -0.7963  0.0097 -1.4444
  701MOL0     H94569   9.015   3.898   7.236 -0.6421  0.2172 -1.5891
  701MOL0     H94570   8.841   3.795   7.318  1.4892  2.0630 -1.6643
  701MOL0     H94571   8.667   3.785   7.280 -0.6464  1.6302  1.9567
  701MOL0     H94572   8.696   3.843   7.054 -1.2004 -2.2104  0.2300
  701MOL0     H94573   8.878   3.850   7.072  1.3476 -0.7951  1.1247
  701MOL0     H94574   8.834   3.593   7.155 -0.0170 -2.9300 -2.8067
  701MOL0     H94575   8.694   3.625   7.079  1.1592 -4.1596 -2.6706
  701MOL0     H94576   8.799   3.701   6.861  3.1588  1.6115 -1.4940
  701MOL0     H94577   8.958   3.661   6.923  0.0631  0.8169  1.7940
  701MOL0     H94578   8.884   3.432   6.967 -1.9883 -1.4330  0.1187
  701MOL0     H94579   8.727   3.477   6.923  0.9021 -2.0114  1.3469
  701MOL0     H94580   8.810   3.536   6.689 -2.3201 -1.1426  0.8634
  701MOL0     H94581   8.968   3.506   6.754  0.1149 -0.6598  3.0562
  701MOL0     H94582   8.884   3.323   6.606  0.6807 -3.0819 -0.4635
  701MOL0     H94583   8.928   3.255   6.756  0.1977  0.9852  0.5554
  701MOL0     H94584   8.654   3.303   6.620 -0.8065  0.7776 -0.0014
  701MOL0     H94585   8.656   3.314   6.803 -0.7998  0.1244  0.0554
  701MOL0     H94586   8.500   3.100   6.842  1.0678  1.3668  0.6031
  701MOL0     H94587   8.422   2.813   6.670 -1.3362 -2.0476  0.5198
  701MOL0     H94588   8.548   2.740   6.776 -1.6344 -0.0845  0.9642
  701MOL0     H94589   8.311   2.897   6.864  0.4446  0.3771  0.5643
  701MOL0     H94590   8.463   2.908   6.960 -1.1356 -2.4186  4.3000
  701MOL0     H94591   8.463   2.651   6.963 -1.0655 -3.4686 -2.4611
  701MOL0     H94592   8.300   2.673   6.895  1.8558 -1.3376 -1.5882
  701MOL0     H94593   8.384   2.802   7.166 -2.8634 -1.2769  4.7031
  701MOL0     H94594   8.297   2.651   7.151 -3.3104  0.6426 -0.3585
  701MOL0     H94595   7.970   2.886   6.980  4.5517 -2.3418 -1.2311
  701MOL0     H94596   7.662   2.764   6.964  0.1453  1.0963 -0.3060
  701MOL0     H94597   7.633   2.879   7.101 -0.4758 -2.7031  0.6420
  701MOL0     H94598   7.739   2.928   6.974  0.4289 -0.9173 -2.8637
  701MOL0     H94599   7.624   2.343   7.356  1.1617  3.4034 -0.1149
  701MOL0     H94600   7.405   2.212   7.439 -0.5838  0.7465 -2.2914
  701MOL0     H94601   7.166   2.166   7.507  0.5458 -1.3316  0.0673
  701MOL0     H94602   7.282   2.147   7.649 -1.5711 -0.3098  2.0565
  701MOL0     H94603   7.059   2.248   7.769  0.1500  0.6005  0.5893
  701MOL0     H94604   6.985   2.192   7.623 -0.6708  1.4703  1.0135
  701MOL0     H94605   7.146   2.051   7.846 -0.3785 -0.0424  0.1354
  701MOL0     H94606   7.137   1.966   7.694  1.8958  2.3470 -1.5366
  701MOL0     H94607   6.897   1.968   7.694 -1.0735 -2.3957  0.1972
  701MOL0     H94608   6.969   1.876   7.830  0.2347 -1.0246 -2.8332
  701MOL0     H94609   6.799   2.123   7.821 -2.4687 -1.2789  1.5442
  701MOL0     H94610   6.924   2.121   7.941  1.2108  0.8518 -2.6055
  701MOL0     H94611   6.667   2.023   7.993 -0.2073 -2.4530  2.0834
  701MOL0     H94612   6.714   1.893   7.896  2.5692 -1.4994 -0.0777
  701MOL0     H94613   6.907   1.836   8.053  2.3483  3.2171 -1.4987
  701MOL0     H94614   6.760   1.851   8.149  0.8100  0.8320  1.3772
  701MOL0     H94615   6.991   2.034   8.117 -0.2829 -1.5408 -1.4535
  701MOL0     H94616   6.937   1.952   8.264  2.0742  2.1264 -0.2373
  701MOL0     H94617   7.281   2.570   7.640  0.6357 -0.5137  1.4633
  701MOL0     H94618   7.499   2.694   7.561 -4.1525  0.8578 -0.6911
  701MOL0     H94619   7.939   2.580   7.366  2.2589  0.7658 -0.3679
  701MOL0     H94620   8.148   2.676   7.295 -1.0444  1.3342  0.9719
  701MOL0     H94621   8.746   4.217   7.298  0.5690  1.0186 -0.9184
  701MOL0     H94622   8.922   4.374   7.321  0.5853  0.6359  1.2600
  701MOL0     H94623   9.301   4.523   7.422  0.5694  0.2456 -0.6524
  701MOL0     H94624   9.486   4.678   7.454  0.5712  0.4210  0.4515
  701MOL0     H94625   9.859   4.614   7.220  2.9176  1.5650 -0.7887
  701MOL0     H94626   9.772   4.738   7.111 -0.4526  1.3414  0.0872
  701MOL0     H94627   9.999   4.814   7.177 -0.4473  4.0381 -0.6164
  701MOL0     H94628   9.947   4.778   7.340 -1.6830  1.1244  0.6389
  701MOL0     H94629   9.788   4.974   7.340  2.6454 -1.6643  3.7347
  701MOL0     H94630   9.842   5.003   7.171  3.2437  2.4399  0.6341
  701MOL0     H94631  10.042   4.963   7.385  1.0422  0.6691  0.2918
  701MOL0     H94632   9.962   5.124   7.359  1.5404  1.6366 -2.3015
  701MOL0     H94633  10.225   5.156   7.053 -1.5442 -0.6789 -3.2721
  701MOL0     H94634   9.664   4.528   7.086  1.0009  1.5913  1.0675
  701MOL0     H94635   9.472   4.381   7.063 -0.9625  1.3322  0.1396
  702MOL0     O94636   0.342   7.594   1.655 -0.2015 -0.1432  0.0920
  702MOL0     C94637   0.326   7.522   1.745  0.0123  0.4413  0.2254
  702MOL0     O94638   0.216   7.438   1.763 -0.1494  0.5860  0.4288
  702MOL0     C94639   0.118   7.425   1.656  0.4780 -0.3872 -0.4711
  702MOL0     C94640   0.137   7.325   1.561 -0.2688 -0.3332 -0.1754
  702MOL0     C94641   0.039   7.304   1.458 -1.0560  1.1577 -0.3305
  702MOL0     C94642  -0.083   7.375   1.466  1.1979 -0.1401  0.7493
  702MOL0     O94643  -0.178   7.316   1.377 -0.4482 -0.5942 -0.9829
  702MOL0     C94644  -0.313   7.356   1.371  0.2421  0.9395 -0.1203
  702MOL0     C94645  -0.334   7.453   1.255 -0.5289  0.7045  0.2975
  702MOL0     C94646  -0.304   7.376   1.124 -0.5050  0.7976 -0.1483
  702MOL0     C94647  -0.304   7.460   0.998  0.5324  0.0125  0.3057
  702MOL0     C94648  -0.277   7.373   0.871 -0.3353 -0.6708 -0.5505
  702MOL0     C94649  -0.296   7.460   0.750 -0.1447  0.0230  0.6902
  702MOL0     C94650  -0.243   7.379   0.634 -0.0079  0.3716  0.6813
  702MOL0     C94651  -0.210   7.476   0.516  0.0652  0.2245 -0.1877
  702MOL0     N94652  -0.324   7.563   0.470 -0.0633 -0.0104  0.4371
  702MOL0     C94653  -0.342   7.696   0.509 -1.0490  0.7259 -0.7770
  702MOL0     C94654  -0.422   7.743   0.409 -0.2347 -0.2793  0.2870
  702MOL0     C94655  -0.494   7.877   0.409 -0.3891 -0.5234  0.1574
  702MOL0     C94656  -0.411   7.997   0.370 -0.4040 -0.6475 -1.2531
  702MOL0     C94657  -0.377   7.984   0.216  0.1131 -0.2561 -0.0579
  702MOL0     C94658  -0.287   8.101   0.175  0.1744 -0.5505 -0.5704
  702MOL0     O94659  -0.270   8.113   0.026 -0.4068 -0.1150 -0.2037
  702MOL0     C94660  -0.172   8.191  -0.027  0.7451  0.1330 -0.0367
  702MOL0     C94661  -0.156   8.315   0.023  0.3795  0.0166 -1.2859
  702MOL0     C94662  -0.042   8.387  -0.010 -0.0679  0.1481 -0.5942
  702MOL0     C94663  -0.029   8.527   0.043  0.3227  0.1055  0.4698
  702MOL0     C94664   0.047   8.341  -0.103 -0.9569  0.4860  1.0827
  702MOL0     C94665   0.164   8.420  -0.150 -0.5991  0.4034  0.3054
  702MOL0     O94666   0.255   8.455  -0.055  0.1761 -0.1123  0.6674
  702MOL0     C94667   0.383   8.487  -0.090  0.3086 -0.5292  0.7108
  702MOL0     C94668   0.423   8.580  -0.193 -0.2028 -0.4215 -0.2147
  702MOL0     C94669   0.558   8.604  -0.205  0.8654 -0.1286 -0.1544
  702MOL0     C94670   0.652   8.554  -0.117  0.6736  0.0443 -0.2746
  702MOL0     O94671   0.781   8.586  -0.153 -0.3305 -0.8190 -0.7515
  702MOL0     C94672   0.879   8.607  -0.051 -0.0458 -0.4639 -0.0847
  702MOL0     C94673   1.005   8.663  -0.120 -0.1921 -0.4319 -0.1273
  702MOL0     C94674   0.964   8.796  -0.183 -0.2772 -0.3231  0.8586
  702MOL0     C94675   1.084   8.865  -0.246 -0.1411 -0.1833 -1.1693
  702MOL0     C94676   1.035   8.995  -0.301 -0.6448  0.8242 -1.1246
  702MOL0     C94677   1.134   9.058  -0.397  0.7429 -0.2460 -0.3187
  702MOL0     C94678   1.075   9.173  -0.465 -0.1128 -1.2683 -0.1235
  702MOL0     C94679   1.189   9.245  -0.543  0.1424 -0.0147 -0.5432
  702MOL0    Cl94680   1.327   9.286  -0.435  0.1118 -0.0788 -0.2366
  702MOL0     C94681   0.610   8.458  -0.018 -0.2334 -0.1681  0.1712
  702MOL0     C94682   0.475   8.424  -0.008  0.4373 -0.7571 -0.6830
  702MOL0     O94683   0.185   8.415  -0.272  0.5036 -0.0819  0.4015
  702MOL0     C94684   0.027   8.216  -0.159  0.1649  0.3291  0.9061
  702MOL0     C94685  -0.083   8.138  -0.120  0.0811 -0.8171 -0.4915
  702MOL0     N94686  -0.459   7.635   0.320 -0.1604 -0.1330  0.6430
  702MOL0     N94687  -0.406   7.523   0.367  0.1949 -0.3260  0.2437
  702MOL0     C94688  -0.101   7.483   1.558  0.5444  0.8284 -0.2169
  702MOL0     C94689   0.003   7.502   1.651  0.6747 -0.3327  0.7641
  702MOL0     C94690   0.426   7.539   1.846  0.0162 -0.4293  0.5489
  702MOL0     C94691   0.530   7.642   1.829 -0.2208 -0.7367 -0.9281
  702MOL0     C94692   0.621   7.659   1.929  0.7428  0.6024 -0.9560
  702MOL0     C94693   0.623   7.572   2.043  0.1442 -0.7954 -0.4078
  702MOL0     O94694   0.725   7.580   2.136  0.0199  0.2115  0.2414
  702MOL0     C94695   0.694   7.599   2.278  0.0004 -0.1926  0.0787
  702MOL0     C94696   0.746   7.743   2.314 -0.9529  0.3499 -0.4584
  702MOL0     C94697   0.669   7.823   2.417 -0.0904  1.2513  0.7549
  702MOL0     C94698   0.739   7.953   2.449 -0.2073  0.1705  0.5160
  702MOL0     C94699   0.835   7.927   2.550  0.1293  0.4362  0.7839
  702MOL0     C94700   0.921   7.922   2.635 -0.1300  0.6910  0.1610
  702MOL0     C94701   0.532   7.459   2.058 -0.6652  0.7059  0.6932
  702MOL0     C94702   0.430   7.451   1.961 -1.1573  0.1479  1.3094
  702MOL0     H94703   0.223   7.260   1.551  0.6170  1.1318 -3.2774
  702MOL0     H94704   0.048   7.225   1.384 -3.1064  1.6245 -1.1377
  702MOL0     H94705  -0.381   7.271   1.365 -0.1830  1.2123  0.6289
  702MOL0     H94706  -0.347   7.395   1.468 -0.2984 -2.7715  1.3658
  702MOL0     H94707  -0.437   7.490   1.250 -2.2051 -3.1373  2.1973
  702MOL0     H94708  -0.259   7.531   1.273 -1.0231  1.0301  0.9709
  702MOL0     H94709  -0.205   7.329   1.131 -1.4331 -0.9967  4.4411
  702MOL0     H94710  -0.379   7.298   1.109 -0.5241  1.2595 -2.9538
  702MOL0     H94711  -0.407   7.497   0.991  0.3442 -0.7674 -1.9097
  702MOL0     H94712  -0.233   7.540   1.023  0.6786  0.1515 -0.5026
  702MOL0     H94713  -0.178   7.327   0.868  0.1203  0.1780  0.7806
  702MOL0     H94714  -0.351   7.292   0.879 -1.4515  0.4821  1.5601
  702MOL0     H94715  -0.399   7.494   0.730  0.2248  0.9185  0.2538
  702MOL0     H94716  -0.234   7.548   0.772  1.2018 -1.1786  1.9422
  702MOL0     H94717  -0.154   7.321   0.657 -0.9311 -1.5725 -0.3744
  702MOL0     H94718  -0.320   7.306   0.605 -1.0004  1.6910 -0.1280
  702MOL0     H94719  -0.182   7.407   0.435 -0.7778 -2.3885  1.6031
  702MOL0     H94720  -0.123   7.535   0.546  1.6121 -0.9881 -2.0073
  702MOL0     H94721  -0.313   7.744   0.601 -3.0200  0.7047 -0.1008
  702MOL0     H94722  -0.578   7.880   0.339  0.6934  1.0152 -1.1738
  702MOL0     H94723  -0.541   7.886   0.507 -0.2755 -2.3302  0.4163
  702MOL0     H94724  -0.324   8.003   0.436  0.4380  2.0519 -2.4895
  702MOL0     H94725  -0.467   8.090   0.383 -0.1983 -0.2670 -2.7953
  702MOL0     H94726  -0.473   7.990   0.164 -0.3592  1.7150  0.9509
  702MOL0     H94727  -0.327   7.889   0.196  0.2110  0.1236 -1.7061
  702MOL0     H94728  -0.188   8.104   0.223  0.2497  3.8990 -0.6628
  702MOL0     H94729  -0.340   8.192   0.201  2.0794  0.1849  0.9878
  702MOL0     H94730  -0.240   8.352   0.081  0.3850 -1.1842 -0.4758
  702MOL0     H94731  -0.100   8.544   0.125 -1.9410 -0.1712 -1.3303
  702MOL0     H94732   0.070   8.559   0.076 -0.4180  0.5681  2.3802
  702MOL0     H94733  -0.055   8.597  -0.037 -0.2067  2.0356  2.2180
  702MOL0     H94734   0.367   8.632  -0.270 -1.2710  0.3047  1.0176
  702MOL0     H94735   0.598   8.679  -0.271  5.3454  0.1925  2.4997
  702MOL0     H94736   0.850   8.677   0.028  0.6330 -3.0948  2.7020
  702MOL0     H94737   0.906   8.512  -0.004 -0.0128 -0.5286 -0.2353
  702MOL0     H94738   1.079   8.692  -0.044 -0.3348  2.4098 -0.9554
  702MOL0     H94739   1.042   8.592  -0.194 -0.1127 -1.3572  0.7786
  702MOL0     H94740   0.908   8.853  -0.108 -0.7714  0.6647 -0.2275
  702MOL0     H94741   0.903   8.783  -0.273  0.3481 -0.7216  0.4844
  702MOL0     H94742   1.167   8.894  -0.181 -2.4328  3.8423  0.3484
  702MOL0     H94743   1.129   8.797  -0.320  3.0006 -0.9196  1.1783
  702MOL0     H94744   1.020   9.065  -0.218  0.4412  0.3030 -0.4696
  702MOL0     H94745   0.946   8.978  -0.362  1.0549  0.8034 -3.7459
  702MOL0     H94746   1.214   9.090  -0.329  0.5852  0.6902 -0.5593
  702MOL0     H94747   1.183   8.984  -0.461  2.5759  0.5193  0.1207
  702MOL0     H94748   1.035   9.237  -0.387  0.5668 -0.8410 -0.1229
  702MOL0     H94749   0.992   9.154  -0.535 -0.9005  1.5934 -0.0738
  702MOL0     H94750   1.152   9.339  -0.587 -3.6281  0.3477  2.8902
  702MOL0     H94751   1.232   9.188  -0.626  3.1342  0.3686  0.6060
  702MOL0     H94752   0.690   8.406   0.033 -0.5828 -1.3446 -0.4461
  702MOL0     H94753   0.438   8.345   0.056 -0.3257 -0.2728 -0.5060
  702MOL0     H94754   0.090   8.180  -0.239  0.0766 -0.0195  0.9908
  702MOL0     H94755  -0.089   8.032  -0.146 -2.2783 -1.2067  1.2856
  702MOL0     H94756  -0.189   7.546   1.567  0.8406  1.0319  1.3781
  702MOL0     H94757  -0.006   7.573   1.733 -2.7501  0.2854  0.0091
  702MOL0     H94758   0.530   7.706   1.741 -5.0002  0.3464 -0.3821
  702MOL0     H94759   0.692   7.738   1.904 -0.7879  2.0716 -0.8499
  702MOL0     H94760   0.586   7.586   2.293  0.0738 -0.6076  0.2573
  702MOL0     H94761   0.738   7.515   2.333  2.0735  0.4025 -0.5760
  702MOL0     H94762   0.742   7.805   2.224  0.0077 -0.1245 -0.8368
  702MOL0     H94763   0.849   7.724   2.344 -1.1371 -1.3977 -0.8047
  702MOL0     H94764   0.667   7.772   2.514 -2.6640  3.0774  1.7639
  702MOL0     H94765   0.577   7.858   2.371  1.1120  1.9523 -1.2468
  702MOL0     H94766   0.678   8.038   2.480  0.4851 -0.0085  2.5162
  702MOL0     H94767   0.793   7.992   2.362  0.6826 -0.2972  0.8387
  702MOL0     H94768   0.989   7.913   2.717  0.2816 -0.6591 -0.3037
  702MOL0     H94769   0.541   7.387   2.139  0.4356  0.3983  0.3174
  702MOL0     H94770   0.357   7.372   1.972 -1.3043  0.2361  0.9667
  703MOL0     O94771   1.563   6.345   1.971  0.2128 -0.0696 -0.4335
  703MOL0     C94772   1.631   6.250   1.930  0.2157  0.2984  0.6880
  703MOL0     O94773   1.715   6.262   1.818  0.1308 -0.3126 -0.6310
  703MOL0     C94774   1.706   6.368   1.741 -0.2577  0.2570  0.0335
  703MOL0     C94775   1.659   6.351   1.609  0.0078 -0.5073  0.2359
  703MOL0     C94776   1.649   6.467   1.523 -0.6420 -0.4297 -0.2093
  703MOL0     C94777   1.695   6.595   1.559 -0.0442 -0.2491 -0.0423
  703MOL0     O94778   1.685   6.699   1.467  0.0689 -0.2805 -0.4918
  703MOL0     C94779   1.607   6.815   1.510  0.0426 -0.5321  0.2326
  703MOL0     C94780   1.612   6.920   1.395 -0.5212  0.7367 -0.3519
  703MOL0     C94781   1.752   6.982   1.377 -0.4896 -1.3656  0.7183
  703MOL0     C94782   1.742   7.129   1.318 -0.1686  0.3289  1.2996
  703MOL0     C94783   1.882   7.195   1.312  1.0859  0.9203 -0.4675
  703MOL0     C94784   1.874   7.328   1.237 -0.2088  1.1488 -0.6714
  703MOL0     C94785   2.015   7.377   1.203 -0.3569 -0.7505  0.2919
  703MOL0     C94786   2.015   7.503   1.106 -0.4773  0.9787 -0.4699
  703MOL0     N94787   1.941   7.495   0.980  0.1523  0.2563 -0.3206
  703MOL0     C94788   1.936   7.378   0.901  0.0333 -0.5867  0.0712
  703MOL0     C94789   1.849   7.399   0.804  0.9922  0.6608 -0.1594
  703MOL0     C94790   1.796   7.289   0.711  0.4012 -0.4438 -0.2528
  703MOL0     C94791   1.809   7.144   0.767 -0.4937 -0.3098 -0.5362
  703MOL0     C94792   1.704   7.103   0.875  0.9895 -0.7060 -0.6643
  703MOL0     C94793   1.565   7.113   0.822  0.8762  0.5449 -1.4676
  703MOL0     O94794   1.478   7.054   0.917  0.1791 -0.4807  0.8136
  703MOL0     C94795   1.338   7.052   0.901  0.2938  1.0023 -0.5762
  703MOL0     C94796   1.259   7.011   1.008  1.3545  0.8473 -0.4191
  703MOL0     C94797   1.115   7.008   1.004  1.1070  0.4141  0.4130
  703MOL0     C94798   1.040   6.963   1.129 -0.0206 -0.7004 -0.4149
  703MOL0     C94799   1.049   7.050   0.882  0.9723  0.1538 -0.9884
  703MOL0     C94800   0.904   7.043   0.857 -0.3243 -0.2523  0.1977
  703MOL0     O94801   0.822   6.986   0.948  0.4706  0.2629  0.0008
  703MOL0     C94802   0.689   7.010   0.950 -0.0193  0.3287 -1.2408
  703MOL0     C94803   0.588   6.942   0.884 -0.1016 -0.6668  0.9406
  703MOL0     C94804   0.458   6.991   0.876  0.1752 -0.2593 -0.2623
  703MOL0     C94805   0.427   7.111   0.938 -0.5190  0.5660  0.5851
  703MOL0     O94806   0.291   7.133   0.940  0.2555  0.7390 -0.0870
  703MOL0     C94807   0.261   7.263   0.877  0.8788 -0.3680  0.2249
  703MOL0     C94808   0.143   7.256   0.777 -0.4672 -0.4522  0.0039
  703MOL0     C94809   0.193   7.245   0.630 -0.2742 -0.2303  0.4302
  703MOL0     C94810   0.254   7.376   0.594 -0.3491 -1.1431 -0.3064
  703MOL0     C94811   0.299   7.370   0.445  0.6304 -0.0973  0.3150
  703MOL0     C94812   0.171   7.382   0.355 -0.0871  0.1075  0.5231
  703MOL0     C94813   0.216   7.445   0.215 -1.0725  0.5533 -0.3863
  703MOL0     C94814   0.102   7.512   0.142 -0.2519  0.4117  0.2792
  703MOL0    Cl94815  -0.037   7.407   0.145  0.0994 -0.0348 -0.0481
  703MOL0     C94816   0.522   7.178   1.008 -1.4877 -0.4426  0.8588
  703MOL0     C94817   0.659   7.130   1.013 -0.5944 -0.6705 -0.9865
  703MOL0     O94818   0.860   7.098   0.750 -1.0212  0.0704  0.4540
  703MOL0     C94819   1.132   7.104   0.780  0.1111  0.1263  0.2457
  703MOL0     C94820   1.271   7.107   0.788 -0.4402  0.2123  0.1835
  703MOL0     N94821   1.812   7.526   0.812  0.4464  0.0296 -1.1521
  703MOL0     N94822   1.856   7.581   0.918 -0.7792  0.3284  0.8520
  703MOL0     C94823   1.748   6.601   1.686  0.8150  0.1737 -0.4302
  703MOL0     C94824   1.753   6.495   1.774 -0.1554  1.0807  0.3998
  703MOL0     C94825   1.632   6.132   2.016  0.6748  1.0741  0.0463
  703MOL0     C94826   1.709   6.014   1.985 -0.3857  0.8975  0.1337
  703MOL0     C94827   1.682   5.888   2.049  0.4040  0.6800 -0.6848
  703MOL0     C94828   1.581   5.884   2.150 -0.8619 -0.7982  1.0090
  703MOL0     O94829   1.558   5.772   2.219  0.5745 -0.1850 -0.7213
  703MOL0     C94830   1.544   5.641   2.151 -0.8200 -0.1873 -0.5851
  703MOL0     C94831   1.423   5.567   2.203  0.2932  0.1559  0.1347
  703MOL0     C94832   1.293   5.638   2.177 -0.9515  0.1396 -0.3634
  703MOL0     C94833   1.167   5.551   2.199 -0.8455  0.5663 -0.4918
  703MOL0     C94834   1.157   5.520   2.343 -0.2372 -0.6164 -0.1839
  703MOL0     C94835   1.173   5.496   2.462  0.5406  0.2748  0.5128
  703MOL0     C94836   1.532   6.002   2.195 -0.4473  0.5422 -0.1684
  703MOL0     C94837   1.548   6.121   2.138  0.9992 -0.9920  0.5937
  703MOL0     H94838   1.635   6.248   1.586  1.2906 -1.3493  2.3745
  703MOL0     H94839   1.613   6.455   1.421 -0.1020 -0.4724 -0.3973
  703MOL0     H94840   1.503   6.790   1.534  0.0438  1.2558  2.4677
  703MOL0     H94841   1.645   6.864   1.601 -1.2505  1.6557 -0.3283
  703MOL0     H94842   1.587   6.871   1.301  0.0028 -3.4105  1.4412
  703MOL0     H94843   1.537   6.991   1.433  1.1678  0.7487  3.4961
  703MOL0     H94844   1.806   6.985   1.472 -2.3156 -0.6661  1.7828
  703MOL0     H94845   1.812   6.931   1.301  0.1324 -2.3607  1.8452
  703MOL0     H94846   1.698   7.132   1.217  1.5529  1.0964  0.5376
  703MOL0     H94847   1.675   7.194   1.375 -0.6506  0.1718  0.9255
  703MOL0     H94848   1.910   7.216   1.416 -2.2378 -2.0247  1.2638
  703MOL0     H94849   1.955   7.124   1.274 -0.9018 -2.6163  1.7963
  703MOL0     H94850   1.820   7.307   1.144 -4.0254  0.0172  1.5556
  703MOL0     H94851   1.820   7.404   1.294  1.6013  2.2993 -0.4217
  703MOL0     H94852   2.056   7.407   1.299 -1.8097 -1.8687  1.3018
  703MOL0     H94853   2.076   7.296   1.160 -1.6762  0.0430 -3.5010
  703MOL0     H94854   2.119   7.529   1.082 -1.0132  1.5264 -2.3554
  703MOL0     H94855   1.966   7.581   1.165  1.0107  1.2851  0.4048
  703MOL0     H94856   1.998   7.290   0.916 -0.5899 -0.9820  0.3716
  703MOL0     H94857   1.695   7.311   0.675 -0.7460 -2.2656  1.5798
  703MOL0     H94858   1.861   7.292   0.623 -1.4000 -3.5808 -1.9024
  703MOL0     H94859   1.911   7.134   0.807 -0.3865  0.5771 -0.5581
  703MOL0     H94860   1.793   7.073   0.686  1.1368 -2.2567  0.7493
  703MOL0     H94861   1.727   7.161   0.965  1.8565 -3.4133  0.9616
  703MOL0     H94862   1.728   6.998   0.897  0.6431 -0.5468  0.5358
  703MOL0     H94863   1.552   7.062   0.726 -0.7465  0.5548 -1.2848
  703MOL0     H94864   1.539   7.218   0.808  0.3779  0.7481  0.6066
  703MOL0     H94865   1.302   6.973   1.100 -0.4164 -1.5673 -0.4842
  703MOL0     H94866   0.999   6.862   1.125 -0.2335 -0.7337  1.5235
  703MOL0     H94867   1.091   6.968   1.226 -1.5724 -0.6149  0.4391
  703MOL0     H94868   0.956   7.033   1.139 -0.0680 -0.0183 -4.1634
  703MOL0     H94869   0.620   6.846   0.846  0.3884  0.2594 -1.1587
  703MOL0     H94870   0.371   6.935   0.844 -0.9840  1.6396 -0.5457
  703MOL0     H94871   0.231   7.336   0.953 -0.3062  0.8385 -1.3359
  703MOL0     H94872   0.348   7.297   0.821  0.1682  1.3856  0.0949
  703MOL0     H94873   0.070   7.176   0.788  0.1810 -1.5690 -2.7794
  703MOL0     H94874   0.079   7.344   0.789 -0.7232 -0.7890  1.2359
  703MOL0     H94875   0.114   7.210   0.564  1.4692 -0.0295 -1.8970
  703MOL0     H94876   0.271   7.169   0.629 -1.9452 -1.9931  0.1988
  703MOL0     H94877   0.184   7.454   0.627 -0.4532 -1.3156 -0.1215
  703MOL0     H94878   0.343   7.391   0.655 -0.4392 -1.4882 -0.0903
  703MOL0     H94879   0.354   7.278   0.428  0.8300 -0.0430  0.6524
  703MOL0     H94880   0.363   7.457   0.425 -2.2932  2.5499  1.6444
  703MOL0     H94881   0.121   7.285   0.354  1.1187 -0.5304 -0.4832
  703MOL0     H94882   0.108   7.462   0.394 -0.8832  0.0392 -0.5669
  703MOL0     H94883   0.246   7.362   0.150 -1.9991 -0.3960  0.3514
  703MOL0     H94884   0.297   7.516   0.232  0.1358 -1.1356  1.4355
  703MOL0     H94885   0.129   7.536   0.039  0.0337  1.4761  0.5890
  703MOL0     H94886   0.068   7.607   0.185  1.0864  1.3115 -0.5930
  703MOL0     H94887   0.512   7.270   1.065  2.5496 -1.2608  3.2620
  703MOL0     H94888   0.736   7.193   1.055  0.3095 -0.3017 -3.0756
  703MOL0     H94889   1.087   7.160   0.699  1.8865  1.5925  0.2130
  703MOL0     H94890   1.333   7.147   0.709 -1.5875  2.0882  0.1547
  703MOL0     H94891   1.783   6.697   1.722  1.8886  0.2282 -1.5486
  703MOL0     H94892   1.792   6.492   1.876 -0.2427 -4.2035  0.5887
  703MOL0     H94893   1.770   6.025   1.897 -0.5912 -0.1805 -0.1608
  703MOL0     H94894   1.729   5.793   2.027  0.5269  0.8197 -1.0344
  703MOL0     H94895   1.538   5.658   2.043  5.6360  0.7662 -1.1559
  703MOL0     H94896   1.630   5.574   2.160 -1.8619 -1.6469 -1.2048
  703MOL0     H94897   1.432   5.549   2.310  0.8532  1.1462  0.2699
  703MOL0     H94898   1.413   5.471   2.151  0.9180  0.4961 -0.6495
  703MOL0     H94899   1.284   5.668   2.072 -0.0833  1.5281 -0.0751
  703MOL0     H94900   1.284   5.726   2.241 -1.3105  0.5761 -1.0002
  703MOL0     H94901   1.174   5.463   2.134  0.3873 -0.3058  0.7709
  703MOL0     H94902   1.072   5.598   2.171 -0.1188  1.2048 -2.0383
  703MOL0     H94903   1.183   5.463   2.564 -0.3600 -3.1016 -0.3410
  703MOL0     H94904   1.468   6.001   2.282 -0.8141  2.9703 -0.3215
  703MOL0     H94905   1.495   6.211   2.167 -0.9178 -0.2721 -4.2033
  704MOL0     O94906   8.342   9.421   3.399 -0.2867  0.5704 -0.2468
  704MOL0     C94907   8.265   9.404   3.307 -0.9073  0.2135  0.4126
  704MOL0     O94908   8.183   9.498   3.255 -0.2564 -0.4108  0.2212
  704MOL0     C94909   8.185   9.619   3.313 -0.1734 -0.6804 -1.0166
  704MOL0     C94910   8.127   9.640   3.442 -0.0523 -0.2005  0.1565
  704MOL0     C94911   8.133   9.777   3.505 -1.6837  0.0822  0.3811
  704MOL0     C94912   8.183   9.889   3.431  0.2158  0.1144  0.0262
  704MOL0     O94913   8.158  10.012   3.466 -0.1688 -0.5183  0.4009
  704MOL0     C94914   8.116  10.093   3.350  0.5460 -0.0386  0.0805
  704MOL0     C94915   8.024  10.200   3.428  0.1704  0.0605 -0.0863
  704MOL0     C94916   7.948  10.291   3.323 -0.0425  0.0423  0.4986
  704MOL0     C94917   8.047  10.369   3.240  0.5996  0.6119 -0.0942
  704MOL0     C94918   7.983  10.496   3.190  0.1759 -0.1671  0.1046
  704MOL0     C94919   8.099  10.574   3.118 -0.1162  0.3442  0.7461
  704MOL0     C94920   8.042  10.695   3.040 -0.1093 -0.0383 -0.1849
  704MOL0     C94921   7.993  10.813   3.125 -1.2718  0.4891  0.9081
  704MOL0     N94922   8.116  10.874   3.184  1.0414  0.2857 -1.3712
  704MOL0     C94923   8.225  10.940   3.124  0.3569  0.2451  0.8402
  704MOL0     C94924   8.303  10.988   3.215 -0.2264  0.1336  0.3776
  704MOL0     C94925   8.428  11.070   3.197 -0.6909 -0.2488  0.0485
  704MOL0     C94926   8.542  11.005   3.113  0.2866  0.2658 -0.5387
  704MOL0     C94927   8.653  11.121   3.123 -0.4273  0.2885 -0.4040
  704MOL0     C94928   8.753  11.075   3.228  1.1774  0.4989 -0.4879
  704MOL0     O94929   8.855  11.170   3.234 -0.2139 -0.3304 -1.2079
  704MOL0     C94930   8.974  11.143   3.168 -0.1882  0.3791 -0.4972
  704MOL0     C94931   8.979  11.053   3.063  0.6032 -0.2808  0.8788
  704MOL0     C94932   9.109  11.018   3.014 -0.4221 -0.5029 -0.1052
  704MOL0     C94933   9.122  10.923   2.894 -0.1582 -0.3437 -1.3775
  704MOL0     C94934   9.228  11.074   3.078 -0.3410  0.4064 -0.0474
  704MOL0     C94935   9.365  11.019   3.045 -0.7888  0.4835 -0.4986
  704MOL0     O94936   9.397  11.053   2.907  0.3927 -0.2253 -0.3490
  704MOL0     C94937   9.499  10.994   2.846 -0.0641  0.1282 -0.7494
  704MOL0     C94938   9.479  10.901   2.745  0.2179 -0.7765 -0.2239
  704MOL0     C94939   9.590  10.866   2.668 -0.6362 -0.5967  0.6361
  704MOL0     C94940   9.716  10.911   2.691  0.0532  0.1192 -0.4162
  704MOL0     O94941   9.833  10.875   2.631  0.3637  0.4583  0.1406
  704MOL0     C94942   9.838  10.743   2.570 -0.0123 -0.1900 -0.7587
  704MOL0     C94943   9.834  10.635   2.676  0.8195  0.1758  0.2692
  704MOL0     C94944   9.957  10.632   2.764  0.2586 -0.0630 -0.1455
  704MOL0     C94945   9.958  10.508   2.848  0.1863  0.5231 -0.7007
  704MOL0     C94946  10.085  10.470   2.934  0.3761  0.0400  0.4426
  704MOL0     C94947  10.109  10.575   3.034 -0.2373 -0.2313  0.0784
  704MOL0     C94948  10.233  10.514   3.119  1.2327  0.2198  0.1968
  704MOL0     C94949  10.364  10.508   3.037 -0.1888 -0.0514 -0.2596
  704MOL0    Cl94950  10.494  10.472   3.164 -0.1757  0.1132 -0.1773
  704MOL0     C94951   9.735  10.997   2.804  0.9322 -0.3860 -0.2953
  704MOL0     C94952   9.625  11.045   2.875 -0.6312 -0.8680 -0.5130
  704MOL0     O94953   9.446  10.969   3.126 -0.2478  0.0818 -0.9376
  704MOL0     C94954   9.220  11.154   3.190  0.5888  0.3849 -0.1309
  704MOL0     C94955   9.098  11.190   3.226  0.6917  0.5336 -0.5686
  704MOL0     N94956   8.254  10.937   3.333  0.2092  1.1195 -1.2096
  704MOL0     N94957   8.147  10.870   3.322 -0.3105  0.1079 -0.2109
  704MOL0     C94958   8.245   9.856   3.303 -0.5518 -0.6325  0.4404
  704MOL0     C94959   8.247   9.727   3.256  0.2713 -0.6156  1.0106
  704MOL0     C94960   8.272   9.267   3.249  0.3059  0.2896 -1.0300
  704MOL0     C94961   8.375   9.173   3.271  0.0708 -0.9856 -0.2703
  704MOL0     C94962   8.373   9.044   3.218 -0.4228  1.0160 -1.1425
  704MOL0     C94963   8.273   9.007   3.136  0.5718  0.4656 -0.5848
  704MOL0     O94964   8.281   8.884   3.078  0.1769 -0.6588  0.8086
  704MOL0     C94965   8.297   8.770   3.164 -0.5675  0.2446  0.2282
  704MOL0     C94966   8.224   8.642   3.104  0.8450 -0.6602 -0.3781
  704MOL0     C94967   8.075   8.652   3.121 -0.1729 -0.0588  0.0521
  704MOL0     C94968   8.003   8.521   3.081  0.1058 -0.6767  0.4165
  704MOL0     C94969   8.031   8.483   2.940 -0.9509 -0.3636 -0.5736
  704MOL0     C94970   8.043   8.443   2.825  0.2413 -0.0112 -0.1953
  704MOL0     C94971   8.167   9.093   3.110 -1.2339  0.1326 -0.9718
  704MOL0     C94972   8.167   9.222   3.166 -0.0018  0.4220  0.1186
  704MOL0     H94973   8.087   9.562   3.506  3.5717 -1.5313  1.0882
  704MOL0     H94974   8.084   9.803   3.599 -2.8004  4.6261 -1.2060
  704MOL0     H94975   8.200  10.145   3.304  0.1295 -0.0933 -0.7609
  704MOL0     H94976   8.057  10.037   3.277 -2.0957  1.0107  1.2583
  704MOL0     H94977   7.957  10.154   3.501 -1.1863  3.5794  1.0906
  704MOL0     H94978   8.091  10.264   3.486 -0.6359  1.2664 -0.4610
  704MOL0     H94979   7.887  10.226   3.259  1.2429 -1.4594  0.7437
  704MOL0     H94980   7.885  10.355   3.386 -1.7601 -1.8678  0.8283
  704MOL0     H94981   8.129  10.401   3.303  1.4456  1.3902 -1.5344
  704MOL0     H94982   8.090  10.300   3.167  3.7717 -0.3700  2.4836
  704MOL0     H94983   7.914  10.457   3.116 -2.2473  0.8814  1.6847
  704MOL0     H94984   7.939  10.561   3.267 -3.0237 -1.7325 -0.2492
  704MOL0     H94985   8.169  10.605   3.196  3.1228 -0.3463 -1.6970
  704MOL0     H94986   8.152  10.509   3.049 -0.8171 -1.1113  1.5358
  704MOL0     H94987   8.116  10.723   2.965 -1.4041 -1.0840 -1.9317
  704MOL0     H94988   7.965  10.657   2.972  0.7257  1.2034 -1.8960
  704MOL0     H94989   7.942  10.768   3.211  1.0247  0.5155  2.3740
  704MOL0     H94990   7.927  10.876   3.066 -0.8948 -0.5568 -0.6875
  704MOL0     H94991   8.252  10.942   3.019  2.4810  0.8115  1.3463
  704MOL0     H94992   8.412  11.169   3.152  0.5547 -0.1188 -0.1576
  704MOL0     H94993   8.458  11.082   3.302  0.2907 -1.7433 -0.0309
  704MOL0     H94994   8.510  10.979   3.012  0.7583  0.5712 -0.7727
  704MOL0     H94995   8.569  10.921   3.177  0.2481  1.2411  0.8079
  704MOL0     H94996   8.619  11.218   3.162  0.1929  1.2107 -2.0391
  704MOL0     H94997   8.704  11.124   3.026  0.4832 -0.8366  0.0127
  704MOL0     H94998   8.787  10.972   3.222  0.6658  0.2014  1.1327
  704MOL0     H94999   8.694  11.071   3.320  0.7609 -0.7229 -0.7959
  704MOL0     H95000   8.884  11.031   3.015  0.7112 -1.4736  1.1951
  704MOL0     H95001   9.171  10.973   2.811 -1.7281 -0.2307 -2.2780
  704MOL0     H95002   9.187  10.837   2.916  1.9267  1.9374  2.5097
  704MOL0     H95003   9.022  10.901   2.855  0.6459 -0.1940 -3.6871
  704MOL0     H95004   9.378  10.869   2.722 -0.8843 -0.1095  3.1474
  704MOL0     H95005   9.576  10.816   2.572 -0.4837 -0.0033  0.2984
  704MOL0     H95006   9.756  10.735   2.499 -0.9310  0.9670  0.1389
  704MOL0     H95007   9.931  10.737   2.512  1.0603  0.8473  0.7564
  704MOL0     H95008   9.753  10.658   2.746 -0.9564  1.8230 -2.1704
  704MOL0     H95009   9.815  10.542   2.621 -1.0675  1.3716 -1.2410
  704MOL0     H95010   9.965  10.717   2.832 -4.4843 -0.3626  1.1381
  704MOL0     H95011  10.042  10.631   2.696 -0.2448 -2.6043 -0.8435
  704MOL0     H95012   9.869  10.513   2.911  1.9047 -0.2142  1.9333
  704MOL0     H95013   9.935  10.421   2.786 -1.8422  0.0897  0.5629
  704MOL0     H95014  10.169  10.458   2.865 -0.1020 -2.1052  0.1541
  704MOL0     H95015  10.075  10.375   2.987 -1.9808  1.7820  3.4687
  704MOL0     H95016  10.134  10.668   2.982 -1.3340  0.5032  0.8353
  704MOL0     H95017  10.022  10.589   3.098 -0.6891 -2.0676 -0.0567
  704MOL0     H95018  10.221  10.414   3.160  1.8201  0.6038  1.3611
  704MOL0     H95019  10.255  10.578   3.205 -0.4497 -4.1162  4.2864
  704MOL0     H95020  10.371  10.610   2.998  1.1768 -0.9291 -2.4850
  704MOL0     H95021  10.364  10.443   2.949 -0.4886  0.5224 -0.6872
  704MOL0     H95022   9.835  11.025   2.835  0.5264 -0.6182  1.3303
  704MOL0     H95023   9.648  11.117   2.953 -2.8751  3.3574 -3.3186
  704MOL0     H95024   9.313  11.186   3.236 -0.0463 -0.2291  1.6555
  704MOL0     H95025   9.098  11.238   3.324  2.1957  1.4450 -0.9646
  704MOL0     H95026   8.302   9.931   3.248  2.9018 -2.0696  1.7737
  704MOL0     H95027   8.294   9.717   3.158  1.0768 -2.9990  1.5767
  704MOL0     H95028   8.464   9.203   3.326 -0.2580  2.7748 -1.5015
  704MOL0     H95029   8.459   8.979   3.231 -1.9993 -0.9113 -0.1158
  704MOL0     H95030   8.401   8.741   3.182 -1.3517 -1.6527  2.1253
  704MOL0     H95031   8.261   8.791   3.265  0.6937  3.8954  0.0874
  704MOL0     H95032   8.260   8.556   3.162 -2.1899 -1.2556  0.7828
  704MOL0     H95033   8.243   8.627   2.997  1.4679 -2.6461 -0.0337
  704MOL0     H95034   8.029   8.728   3.057  2.2223 -0.4896 -2.3379
  704MOL0     H95035   8.034   8.681   3.218 -0.0560 -1.0607  0.4123
  704MOL0     H95036   7.893   8.526   3.085  0.0864 -0.9821  0.2160
  704MOL0     H95037   8.025   8.437   3.147 -6.6170 -2.5108  1.0819
  704MOL0     H95038   8.041   8.411   2.723  0.1887  0.6626 -0.4108
  704MOL0     H95039   8.087   9.063   3.043 -3.7542  2.5389  0.7269
  704MOL0     H95040   8.075   9.276   3.146 -0.7495 -1.0507 -0.5767
  705MOL0     O95041   9.705  10.317   0.637  0.7182 -0.3095 -0.6133
  705MOL0     C95042   9.591  10.338   0.612  1.0532  0.6436 -0.2618
  705MOL0     O95043   9.525  10.293   0.506 -0.1427 -0.2857  0.3770
  705MOL0     C95044   9.587  10.199   0.429  0.5868  1.1548  0.6523
  705MOL0     C95045   9.578  10.198   0.289 -0.1918 -0.2273  0.4002
  705MOL0     C95046   9.636  10.094   0.212 -0.1356 -0.1842  0.0636
  705MOL0     C95047   9.707   9.989   0.269  0.6061 -0.2167 -1.0119
  705MOL0     O95048   9.763   9.884   0.196  0.9355  0.1635 -0.0504
  705MOL0     C95049   9.801   9.920   0.061 -0.3772  1.0359 -0.0529
  705MOL0     C95050   9.871   9.804  -0.014 -0.0554  0.4722  0.0140
  705MOL0     C95051   9.875   9.809  -0.170  0.0222  0.5883 -1.4779
  705MOL0     C95052   9.892   9.669  -0.232  0.8415  0.3901  1.0631
  705MOL0     C95053  10.019   9.591  -0.192  0.7974  0.2575 -0.1709
  705MOL0     C95054  10.014   9.437  -0.206  0.0997 -0.1954 -0.4579
  705MOL0     C95055  10.020   9.375  -0.344  0.3322 -0.4973  0.6295
  705MOL0     C95056   9.882   9.361  -0.416  0.8149 -0.6490  0.2790
  705MOL0     N95057   9.885   9.269  -0.526 -0.1589 -0.0116  1.3974
  705MOL0     C95058   9.898   9.322  -0.651 -0.6235  0.4257 -0.0992
  705MOL0     C95059   9.886   9.218  -0.730  0.8958  0.4759  0.5500
  705MOL0     C95060   9.869   9.213  -0.881 -0.3043  0.8712  0.2499
  705MOL0     C95061   9.946   9.309  -0.962 -0.8167  0.8000 -0.1994
  705MOL0     C95062   9.918   9.287  -1.112  0.8992  0.4007 -0.0742
  705MOL0     C95063  10.039   9.350  -1.188  0.8150  0.4925 -0.2692
  705MOL0     O95064  10.163   9.285  -1.159 -0.2974 -0.4147 -0.0817
  705MOL0     C95065  10.194   9.160  -1.204 -0.1452  1.1464  0.2605
  705MOL0     C95066  10.127   9.086  -1.306  0.5745  0.3154  0.6109
  705MOL0     C95067  10.153   8.955  -1.337 -0.0730  0.8163  0.8982
  705MOL0     C95068  10.052   8.879  -1.430 -0.8723  0.7101  0.2925
  705MOL0     C95069  10.277   8.898  -1.287  0.3532  0.6561 -0.7757
  705MOL0     C95070  10.325   8.758  -1.325 -0.5269 -0.0711 -1.3940
  705MOL0     O95071  10.415   8.696  -1.241  0.1801  0.2023 -0.3436
  705MOL0     C95072  10.450   8.563  -1.260 -0.3589 -0.0119  0.9300
  705MOL0     C95073  10.422   8.465  -1.166 -0.1494  0.4884 -0.2149
  705MOL0     C95074  10.469   8.336  -1.168 -0.6715  0.7733  0.2579
  705MOL0     C95075  10.545   8.295  -1.277  0.4823 -0.3384 -0.5249
  705MOL0     O95076  10.590   8.169  -1.276  0.4085  0.0938  0.3206
  705MOL0     C95077  10.700   8.138  -1.357 -0.3511 -0.3152  0.2648
  705MOL0     C95078  10.752   7.994  -1.313 -0.4786  0.3445 -0.4841
  705MOL0     C95079  10.698   7.874  -1.381  0.1076 -0.9627  0.1708
  705MOL0     C95080  10.583   7.810  -1.297  0.4611 -0.4403  0.0210
  705MOL0     C95081  10.511   7.692  -1.362  0.2786 -0.1844  0.1127
  705MOL0     C95082  10.388   7.653  -1.283  0.8630  0.7969 -0.2126
  705MOL0     C95083  10.301   7.546  -1.353  0.1461  0.5521 -0.6251
  705MOL0     C95084  10.188   7.514  -1.265  0.0500  0.3337  0.9395
  705MOL0    Cl95085  10.074   7.390  -1.330  0.0026 -0.4283  0.4295
  705MOL0     C95086  10.561   8.393  -1.383 -0.5599  0.5252  1.0018
  705MOL0     C95087  10.524   8.526  -1.375 -0.2532 -0.1275 -0.3082
  705MOL0     O95088  10.283   8.704  -1.429  0.7107 -0.4865 -0.1913
  705MOL0     C95089  10.355   8.978  -1.198 -0.0688  0.1712 -1.1629
  705MOL0     C95090  10.318   9.099  -1.158  1.1672  0.2122  0.7104
  705MOL0     N95091   9.869   9.102  -0.650 -0.4496 -0.0482 -0.0914
  705MOL0     N95092   9.874   9.136  -0.523  0.4224 -0.5031  0.5139
  705MOL0     C95093   9.719   9.987   0.408 -0.7221  0.7864  1.0952
  705MOL0     C95094   9.651  10.085   0.480 -0.1219 -0.3374 -0.0782
  705MOL0     C95095   9.513  10.427   0.696 -0.8465  0.0892  0.2381
  705MOL0     C95096   9.371  10.428   0.692 -0.8188  0.5378  0.3948
  705MOL0     C95097   9.307  10.526   0.771 -0.0299  0.3032  0.2074
  705MOL0     C95098   9.374  10.620   0.844  0.1780  0.5665 -0.4777
  705MOL0     O95099   9.319  10.718   0.923 -0.0274 -0.2232  0.4966
  705MOL0     C95100   9.176  10.733   0.928 -0.0634  0.2235 -0.2244
  705MOL0     C95101   9.134  10.827   0.810  0.6707  0.1669  0.4965
  705MOL0     C95102   9.197  10.968   0.818  1.2192 -0.9350  0.4535
  705MOL0     C95103   9.210  11.026   0.682 -0.5122 -0.3996 -0.5652
  705MOL0     C95104   9.076  11.045   0.609  0.6201  0.0010  0.6458
  705MOL0     C95105   8.963  11.047   0.556 -0.3434  0.5010 -0.4214
  705MOL0     C95106   9.511  10.606   0.845  0.4183 -0.7400 -0.4634
  705MOL0     C95107   9.582  10.516   0.777 -1.0536 -0.3905  0.4139
  705MOL0     H95108   9.551  10.289   0.238  2.0990 -0.9685 -2.3619
  705MOL0     H95109   9.636  10.110   0.104 -0.8630 -2.4995 -0.3471
  705MOL0     H95110   9.712   9.938   0.001 -0.9994 -1.6769 -0.0811
  705MOL0     H95111   9.866  10.007   0.049  2.9326 -1.5825 -3.3598
  705MOL0     H95112   9.973   9.791   0.024  1.2911  3.5948 -2.0565
  705MOL0     H95113   9.814   9.715   0.013 -0.7932  0.6475 -0.9186
  705MOL0     H95114   9.779   9.836  -0.216  1.4898  4.8409 -2.5689
  705MOL0     H95115   9.950   9.878  -0.209  0.8058  0.5819 -0.0180
  705MOL0     H95116   9.806   9.609  -0.202  0.4988  0.2979 -0.0707
  705MOL0     H95117   9.892   9.667  -0.341  0.5766  0.8704  1.0488
  705MOL0     H95118  10.106   9.636  -0.243 -0.4857  2.5114 -0.5301
  705MOL0     H95119  10.040   9.602  -0.085  2.9130 -0.6747 -0.4448
  705MOL0     H95120  10.100   9.407  -0.145 -1.5714 -1.9564  1.1869
  705MOL0     H95121   9.928   9.410  -0.145  0.9520 -1.6330  0.1821
  705MOL0     H95122  10.092   9.417  -0.415 -0.4839  0.1673  0.1832
  705MOL0     H95123  10.040   9.268  -0.333  0.1905 -0.8885 -2.2723
  705MOL0     H95124   9.845   9.456  -0.456  1.0886 -0.3769  0.6608
  705MOL0     H95125   9.801   9.335  -0.347  1.0958  1.8056  1.6780
  705MOL0     H95126   9.933   9.418  -0.687  3.6066 -0.7028  0.5605
  705MOL0     H95127   9.880   9.107  -0.908 -0.4504 -0.4410  4.5488
  705MOL0     H95128   9.761   9.229  -0.891 -0.8783 -2.3703  0.0414
  705MOL0     H95129  10.054   9.301  -0.949 -1.0841  1.6562  3.8080
  705MOL0     H95130   9.923   9.413  -0.937  0.5783  0.7641  1.3869
  705MOL0     H95131   9.822   9.330  -1.140 -0.2380  0.1882  3.1163
  705MOL0     H95132   9.915   9.180  -1.136 -0.2562  0.1482  1.0585
  705MOL0     H95133  10.051   9.458  -1.172  1.9677  0.4008 -0.4271
  705MOL0     H95134  10.028   9.333  -1.295 -2.2785  0.3068  0.0068
  705MOL0     H95135  10.035   9.132  -1.340  0.2327 -0.3686  0.5982
  705MOL0     H95136  10.013   8.790  -1.379  0.4278  1.0847  2.0788
  705MOL0     H95137   9.982   8.948  -1.476 -1.8571  1.2585  2.4865
  705MOL0     H95138  10.114   8.847  -1.514  0.3577  0.1733  1.3529
  705MOL0     H95139  10.368   8.492  -1.075  0.8669 -1.3120  0.9953
  705MOL0     H95140  10.436   8.269  -1.089  0.0834 -0.8653 -0.7779
  705MOL0     H95141  10.681   8.151  -1.464  2.2797 -1.5974 -0.4473
  705MOL0     H95142  10.787   8.202  -1.342 -0.1990 -0.2038 -0.9977
  705MOL0     H95143  10.861   7.990  -1.324 -0.2491 -1.0989  1.5958
  705MOL0     H95144  10.736   7.985  -1.205  1.9482 -0.6300 -0.1241
  705MOL0     H95145  10.772   7.795  -1.395  0.1582 -1.4046  2.5311
  705MOL0     H95146  10.653   7.897  -1.478  0.3986 -0.2092  0.2065
  705MOL0     H95147  10.625   7.783  -1.199  3.2404  1.8202 -0.4366
  705MOL0     H95148  10.508   7.886  -1.275  1.2299 -0.0201  1.3294
  705MOL0     H95149  10.569   7.599  -1.361 -2.8957 -2.3725 -1.6294
  705MOL0     H95150  10.486   7.710  -1.467  3.7298 -0.3730 -0.8545
  705MOL0     H95151  10.424   7.614  -1.187  1.2152  2.0552  0.1981
  705MOL0     H95152  10.320   7.736  -1.261 -1.2305 -0.7767 -0.4450
  705MOL0     H95153  10.364   7.459  -1.370  1.4522  1.3378  0.0324
  705MOL0     H95154  10.263   7.585  -1.448  0.7029  1.1824 -0.6013
  705MOL0     H95155  10.133   7.607  -1.247 -1.1358 -0.4754  1.6005
  705MOL0     H95156  10.222   7.477  -1.168  1.9709  0.3663  0.3156
  705MOL0     H95157  10.606   8.363  -1.478 -1.2298  4.3386 -0.7131
  705MOL0     H95158  10.545   8.596  -1.455 -1.6993 -1.0514 -1.5689
  705MOL0     H95159  10.448   8.953  -1.148 -0.9469  0.4475  0.6612
  705MOL0     H95160  10.374   9.159  -1.087 -3.3386  1.7880  3.3176
  705MOL0     H95161   9.770   9.905   0.458  1.7698  1.1307 -0.6974
  705MOL0     H95162   9.651  10.069   0.587 -0.9213  2.0108  0.3357
  705MOL0     H95163   9.324  10.354   0.628  0.3776 -0.2387  0.3779
  705MOL0     H95164   9.200  10.515   0.766  0.1106 -0.7243 -2.6347
  705MOL0     H95165   9.125  10.637   0.935  2.4523 -1.1925  0.0659
  705MOL0     H95166   9.157  10.795   1.016  3.1761 -1.1797  1.6186
  705MOL0     H95167   9.026  10.845   0.820  0.7411  0.4583  0.7388
  705MOL0     H95168   9.154  10.769   0.720 -3.8220 -0.5997 -0.2658
  705MOL0     H95169   9.295  10.963   0.866  0.7393 -0.6063  1.5047
  705MOL0     H95170   9.138  11.035   0.881  1.5896 -1.6764  1.6357
  705MOL0     H95171   9.282  10.964   0.627 -2.1023 -1.0937 -1.9292
  705MOL0     H95172   9.246  11.129   0.684 -1.4179 -0.0168 -2.1643
  705MOL0     H95173   8.866  11.042   0.510 -1.5414  0.3766  1.9402
  705MOL0     H95174   9.560  10.680   0.908  1.0397 -1.2949 -0.2824
  705MOL0     H95175   9.689  10.499   0.781 -0.8528  0.7550  0.3437
  706MOL0     O95176   2.064   8.239   9.946 -0.2916 -0.1075  0.0631
  706MOL0     C95177   1.990   8.269  10.034 -0.2398  0.1973 -0.0383
  706MOL0     O95178   2.021   8.337  10.148  0.2200 -0.3642  0.7004
  706MOL0     C95179   2.130   8.423  10.152  0.4711 -0.0727  0.0115
  706MOL0     C95180   2.226   8.401  10.249  0.4186 -0.6253  0.5873
  706MOL0     C95181   2.347   8.483  10.251 -0.9101 -0.2037  0.3909
  706MOL0     C95182   2.356   8.586  10.151  0.2456 -0.2596 -1.1859
  706MOL0     O95183   2.460   8.675  10.144 -0.2148  0.1771  0.2594
  706MOL0     C95184   2.511   8.720  10.262 -0.0507  0.1066 -0.4549
  706MOL0     C95185   2.436   8.843  10.327 -0.4270  1.1156  0.1525
  706MOL0     C95186   2.475   8.880  10.465  0.1304 -0.5499 -0.4634
  706MOL0     C95187   2.487   8.748  10.555 -0.2944  0.7392 -0.1331
  706MOL0     C95188   2.493   8.784  10.708  0.7049  0.0817 -1.5688
  706MOL0     C95189   2.544   8.679  10.816  0.5983  0.2102 -0.1403
  706MOL0     C95190   2.697   8.656  10.797 -0.1030  0.0220  0.5473
  706MOL0     C95191   2.752   8.542  10.883 -0.7565 -0.2128 -0.1432
  706MOL0     N95192   2.717   8.576  11.024  0.0361 -0.4059 -0.5263
  706MOL0     C95193   2.777   8.677  11.096  0.0003  0.4360  0.0713
  706MOL0     C95194   2.691   8.696  11.202  0.0831  0.3100  0.5408
  706MOL0     C95195   2.692   8.795  11.319  0.8023  0.4299 -0.2521
  706MOL0     C95196   2.743   8.933  11.267  0.2065  0.6079 -0.1569
  706MOL0     C95197   2.772   9.047  11.363 -0.7638 -0.4745  0.2565
  706MOL0     C95198   2.671   9.095  11.456 -0.7149  0.2649 -0.1696
  706MOL0     O95199   2.563   9.149  11.385  0.0516 -0.0006 -0.4760
  706MOL0     C95200   2.452   9.178  11.461 -0.4572 -0.8824 -0.0517
  706MOL0     C95201   2.398   9.304  11.485  1.2255  0.8042  0.2304
  706MOL0     C95202   2.276   9.316  11.551  0.8566 -0.0691  0.0019
  706MOL0     C95203   2.221   9.457  11.562  0.2566 -0.0574 -0.2237
  706MOL0     C95204   2.218   9.205  11.619  0.2150 -0.6469  0.1229
  706MOL0     C95205   2.112   9.212  11.719  0.8414 -0.3810 -0.7622
  706MOL0     O95206   2.053   9.090  11.754 -0.0393 -0.3634 -0.6811
  706MOL0     C95207   1.945   9.088  11.835  0.2415 -0.7981  0.1380
  706MOL0     C95208   1.942   9.011  11.955 -0.4637 -0.3116  0.4299
  706MOL0     C95209   1.831   8.995  12.037 -0.1095 -0.3061  0.0077
  706MOL0     C95210   1.711   9.063  12.015  0.0699 -0.7952 -0.5716
  706MOL0     O95211   1.602   9.083  12.104 -0.1405  0.1878  0.1731
  706MOL0     C95212   1.595   9.014  12.233 -0.7017 -0.0225  0.2310
  706MOL0     C95213   1.484   8.911  12.231 -0.2576 -0.0196  0.3455
  706MOL0     C95214   1.447   8.858  12.367  0.2839  0.2784  0.7926
  706MOL0     C95215   1.310   8.792  12.365 -0.0741  0.2697  0.0782
  706MOL0     C95216   1.274   8.769  12.513  0.2031  0.8451  0.0260
  706MOL0     C95217   1.381   8.698  12.610 -0.8873 -0.1639  0.3219
  706MOL0     C95218   1.329   8.702  12.755  0.7851  0.3437 -0.2616
  706MOL0     C95219   1.221   8.598  12.788  0.4224 -1.0640 -0.6622
  706MOL0    Cl95220   1.121   8.676  12.926 -0.1646  0.9062  0.1322
  706MOL0     C95221   1.706   9.148  11.904 -0.8758 -0.0952  0.7825
  706MOL0     C95222   1.822   9.163  11.810 -0.3957  0.1621 -0.4345
  706MOL0     O95223   2.091   9.320  11.775  0.3502 -0.5385 -0.3534
  706MOL0     C95224   2.279   9.081  11.591  0.4441 -0.6668  0.1897
  706MOL0     C95225   2.386   9.069  11.508  0.4216  0.3251  0.3899
  706MOL0     N95226   2.607   8.596  11.207  0.3951 -0.0025 -0.0184
  706MOL0     N95227   2.620   8.516  11.103  0.8512 -0.9021 -0.0583
  706MOL0     C95228   2.262   8.605  10.052 -0.5120 -0.2593 -0.9022
  706MOL0     C95229   2.151   8.527  10.053  0.0101  0.8197 -0.2163
  706MOL0     C95230   1.856   8.211  10.030  0.1303 -0.3178 -0.4602
  706MOL0     C95231   1.742   8.288  10.064  0.8271  0.1770  0.4255
  706MOL0     C95232   1.609   8.244  10.036 -1.0448  0.1158 -0.1199
  706MOL0     C95233   1.587   8.115   9.979  0.0941  0.6159  0.6493
  706MOL0     O95234   1.455   8.088   9.938 -0.0094 -0.2047 -0.5788
  706MOL0     C95235   1.414   7.959   9.889 -0.6800 -1.7818 -0.2814
  706MOL0     C95236   1.258   7.955   9.891  0.3372 -0.8386  0.2984
  706MOL0     C95237   1.174   8.027   9.775  0.5574  0.8146 -0.0194
  706MOL0     C95238   1.025   7.981   9.772 -1.2616 -0.4678 -0.0198
  706MOL0     C95239   1.017   7.834   9.749  0.5296 -0.4368 -0.6081
  706MOL0     C95240   0.998   7.712   9.740  0.5018 -0.2536  0.3012
  706MOL0     C95241   1.700   8.040   9.947  0.1153  0.3828 -0.0454
  706MOL0     C95242   1.831   8.085   9.968  0.4013  0.3794  0.8955
  706MOL0     H95243   2.202   8.325  10.322  0.5290 -0.2759  0.9902
  706MOL0     H95244   2.406   8.471  10.341 -0.7303 -2.0386  0.0575
  706MOL0     H95245   2.531   8.638  10.332  1.5463  0.4905 -0.4180
  706MOL0     H95246   2.615   8.745  10.238 -0.3454  0.2791 -1.5978
  706MOL0     H95247   2.445   8.934  10.267  0.2220  0.7014 -0.3992
  706MOL0     H95248   2.334   8.804  10.332 -0.6352  1.7533  1.0962
  706MOL0     H95249   2.568   8.937  10.462 -1.3751  2.0946 -2.2912
  706MOL0     H95250   2.398   8.946  10.507 -0.0885 -2.4063  2.2581
  706MOL0     H95251   2.400   8.683  10.538  0.6187 -0.2819 -1.0805
  706MOL0     H95252   2.589   8.710  10.539  0.0671  2.1548 -1.3621
  706MOL0     H95253   2.534   8.884  10.728 -3.6045  2.1139 -1.7930
  706MOL0     H95254   2.388   8.797  10.734  0.7241  2.2140 -2.3212
  706MOL0     H95255   2.522   8.726  10.912  2.3286  2.6903 -0.8429
  706MOL0     H95256   2.482   8.592  10.794 -1.1863  1.4669 -0.2657
  706MOL0     H95257   2.714   8.621  10.695  0.5514 -0.4427  0.8035
  706MOL0     H95258   2.750   8.752  10.802 -3.4399  2.1084 -0.8821
  706MOL0     H95259   2.859   8.547  10.861 -0.8813  1.1181 -0.5111
  706MOL0     H95260   2.717   8.441  10.857  0.9944 -1.2016  1.1225
  706MOL0     H95261   2.853   8.744  11.057 -1.7840  1.8961 -1.0594
  706MOL0     H95262   2.591   8.795  11.360  0.4037  2.1104 -1.1508
  706MOL0     H95263   2.757   8.752  11.396 -0.9666  2.8934  2.8699
  706MOL0     H95264   2.669   8.964  11.192 -1.2422 -4.2941 -1.1156
  706MOL0     H95265   2.838   8.920  11.216 -0.8061 -0.4568 -1.8806
  706MOL0     H95266   2.794   9.132  11.298 -0.1205  0.1139  1.2179
  706MOL0     H95267   2.865   9.033  11.419 -0.9060  1.0671  0.9376
  706MOL0     H95268   2.729   9.171  11.509 -1.2064  0.6919 -0.2410
  706MOL0     H95269   2.646   9.010  11.520 -0.3123  0.0285 -0.3214
  706MOL0     H95270   2.453   9.391  11.450 -0.2830  0.6917 -2.8048
  706MOL0     H95271   2.115   9.480  11.545  0.8227  4.3031  0.8813
  706MOL0     H95272   2.243   9.491  11.664  1.0789 -1.1676 -0.0139
  706MOL0     H95273   2.271   9.530  11.498 -0.8514  1.7024  0.8296
  706MOL0     H95274   2.034   8.975  11.998 -1.5546 -2.7346  0.9180
  706MOL0     H95275   1.853   8.943  12.130 -2.9021 -0.8862  0.4232
  706MOL0     H95276   1.691   8.971  12.264 -0.6630  0.0781  0.2502
  706MOL0     H95277   1.574   9.088  12.311 -1.5834 -0.7022  0.6564
  706MOL0     H95278   1.399   8.960  12.183 -1.6539 -3.0786 -0.5424
  706MOL0     H95279   1.499   8.829  12.160  0.3905  0.3252  0.0697
  706MOL0     H95280   1.430   8.940  12.437 -1.2666 -1.6758  2.8036
  706MOL0     H95281   1.529   8.790  12.392 -0.7652 -0.8140  1.3664
  706MOL0     H95282   1.243   8.867  12.321  3.3063  2.3785 -1.9119
  706MOL0     H95283   1.303   8.699  12.308  0.1179  1.1908 -1.5013
  706MOL0     H95284   1.183   8.710  12.507  0.7106  0.1440 -1.2952
  706MOL0     H95285   1.250   8.864  12.561 -1.2535 -1.3058  3.9224
  706MOL0     H95286   1.405   8.598  12.572  3.0253 -0.6275  3.3804
  706MOL0     H95287   1.475   8.753  12.607 -0.2539 -0.7086  4.3070
  706MOL0     H95288   1.289   8.801  12.778  0.1577 -0.4096  2.1762
  706MOL0     H95289   1.415   8.694  12.823  0.3875  2.7055  0.6362
  706MOL0     H95290   1.273   8.508  12.822 -0.1827 -0.1686  3.1435
  706MOL0     H95291   1.150   8.580  12.707 -2.1853 -2.3890  1.7096
  706MOL0     H95292   1.622   9.217  11.903  0.3974  1.5498  1.6627
  706MOL0     H95293   1.802   9.230  11.728 -0.9945 -0.3217 -0.6964
  706MOL0     H95294   2.262   8.986  11.641  0.0223 -1.1351 -0.8092
  706MOL0     H95295   2.436   8.975  11.488  0.1232 -0.6172  3.5951
  706MOL0     H95296   2.281   8.684   9.980 -0.4881 -0.3891 -1.0390
  706MOL0     H95297   2.082   8.525   9.970 -1.3323  1.0483  0.8594
  706MOL0     H95298   1.754   8.388  10.105  0.5018 -0.2289  1.5191
  706MOL0     H95299   1.531   8.314  10.064  1.7459  3.9432 -1.0661
  706MOL0     H95300   1.445   7.935   9.787  0.4384 -3.0378  0.3372
  706MOL0     H95301   1.455   7.880   9.952 -0.1456 -0.3378  1.2605
  706MOL0     H95302   1.223   7.995   9.987 -0.1922  1.0524 -0.6242
  706MOL0     H95303   1.241   7.848   9.879 -1.6839 -0.4610 -0.6881
  706MOL0     H95304   1.218   8.007   9.677  0.4446 -0.6313  0.2118
  706MOL0     H95305   1.190   8.130   9.807  1.2716  0.9747 -0.8567
  706MOL0     H95306   0.975   8.024   9.685  1.6683  1.2057 -1.0090
  706MOL0     H95307   0.973   8.010   9.864 -2.1348  2.3667 -1.2955
  706MOL0     H95308   0.973   7.608   9.727 -1.0512  0.1198  0.1286
  706MOL0     H95309   1.676   7.952   9.889 -3.9761  1.9980 -1.1329
  706MOL0     H95310   1.904   8.019   9.921 -3.3261 -1.4043 -3.0732
  707MOL0     O95311   0.503   7.311   8.069  0.3844  0.2133  0.6429
  707MOL0     C95312   0.509   7.432   8.041  0.2294  0.3199  0.4678
  707MOL0     O95313   0.620   7.503   8.031 -0.3745  0.4334 -0.1111
  707MOL0     C95314   0.747   7.436   8.021  0.3551 -0.7353  0.1660
  707MOL0     C95315   0.839   7.457   8.118 -0.3575 -0.7515 -0.0964
  707MOL0     C95316   0.976   7.429   8.087 -0.2999 -1.0411  0.5311
  707MOL0     C95317   1.015   7.371   7.964 -0.5121 -0.3521 -0.6972
  707MOL0     O95318   1.145   7.347   7.934 -1.1673  0.0637 -0.3408
  707MOL0     C95319   1.218   7.472   7.916  0.1254  1.0185 -0.3555
  707MOL0     C95320   1.374   7.448   7.914  0.9264  0.0096  0.3146
  707MOL0     C95321   1.453   7.566   7.868  0.4751 -0.2841  0.0435
  707MOL0     C95322   1.604   7.541   7.858  0.1667  0.7135  0.4000
  707MOL0     C95323   1.682   7.671   7.848 -0.3631 -0.4217  0.1780
  707MOL0     C95324   1.834   7.644   7.852 -0.3713  1.2420  0.1183
  707MOL0     C95325   1.931   7.752   7.798  0.3244  1.0013 -1.0896
  707MOL0     C95326   1.926   7.882   7.875  0.5008 -0.1496  0.1080
  707MOL0     N95327   1.989   7.972   7.779 -0.6112  0.1483  0.3245
  707MOL0     C95328   2.108   8.030   7.770 -0.2229 -0.4894  0.2227
  707MOL0     C95329   2.112   8.100   7.648 -0.2010  0.4802  0.5152
  707MOL0     C95330   2.232   8.182   7.603  0.3206 -0.4906  0.0719
  707MOL0     C95331   2.183   8.259   7.479  1.0313  0.2479 -1.4160
  707MOL0     C95332   2.281   8.372   7.438  0.5517  0.1383  0.0681
  707MOL0     C95333   2.246   8.501   7.522  0.8247 -0.2949  0.6780
  707MOL0     O95334   2.337   8.604   7.503 -0.1596 -0.6805  0.9733
  707MOL0     C95335   2.473   8.602   7.514  0.6792 -0.1759  0.2923
  707MOL0     C95336   2.554   8.702   7.451 -0.0952  0.2144  0.4169
  707MOL0     C95337   2.690   8.703   7.462  0.3937  0.8370  0.9199
  707MOL0     C95338   2.762   8.830   7.418  1.2540 -0.0929 -0.3032
  707MOL0     C95339   2.763   8.596   7.526 -0.5051  0.6237 -1.1974
  707MOL0     C95340   2.912   8.587   7.517  0.0579  0.2423  0.3824
  707MOL0     O95341   2.974   8.463   7.530 -0.5770  0.0749 -0.0320
  707MOL0     C95342   3.112   8.453   7.527 -0.0227 -0.4437  0.1701
  707MOL0     C95343   3.181   8.513   7.634 -0.2301  0.3862 -0.4455
  707MOL0     C95344   3.319   8.487   7.648 -0.7425  0.2133  0.3613
  707MOL0     C95345   3.385   8.406   7.561 -1.4307  0.8004  0.5470
  707MOL0     O95346   3.518   8.389   7.590 -0.3805  0.5360  0.3791
  707MOL0     C95347   3.569   8.256   7.584  0.6637 -0.0869 -0.7688
  707MOL0     C95348   3.713   8.264   7.630  0.3957 -0.4198 -0.1534
  707MOL0     C95349   3.778   8.127   7.624  0.0766 -0.4244  0.0170
  707MOL0     C95350   3.928   8.152   7.606 -0.1946 -0.5041  0.2662
  707MOL0     C95351   4.007   8.037   7.653  0.0308  0.3111 -0.4755
  707MOL0     C95352   4.161   8.062   7.639 -0.3230  0.3879 -0.9644
  707MOL0     C95353   4.240   7.933   7.643  0.3795  1.0268  0.1030
  707MOL0     C95354   4.398   7.951   7.661 -0.6436  0.2129 -0.5588
  707MOL0    Cl95355   4.424   7.947   7.835 -0.3139 -0.2888 -0.4871
  707MOL0     C95356   3.317   8.353   7.451  0.3898  0.0381 -0.4261
  707MOL0     C95357   3.181   8.373   7.430  0.8099 -0.2286 -0.3047
  707MOL0     O95358   2.977   8.691   7.520  0.0197 -0.1855  0.0711
  707MOL0     C95359   2.689   8.492   7.580  0.1228 -0.1248 -0.5114
  707MOL0     C95360   2.548   8.504   7.575 -0.5224  1.0394 -0.4178
  707MOL0     N95361   1.987   8.105   7.607  0.3949  0.3904  0.3107
  707MOL0     N95362   1.919   8.019   7.673 -0.7686 -0.3219 -0.4251
  707MOL0     C95363   0.921   7.343   7.876 -1.0673  0.8291 -0.3816
  707MOL0     C95364   0.789   7.385   7.899 -0.0074 -0.2750  0.5138
  707MOL0     C95365   0.386   7.506   8.033 -0.4719  0.8806  0.6566
  707MOL0     C95366   0.385   7.634   7.976  0.4742  0.2855 -0.3971
  707MOL0     C95367   0.274   7.715   7.981 -0.5587  0.8806  0.1019
  707MOL0     C95368   0.167   7.673   8.052  0.0229  0.5117  0.0888
  707MOL0     O95369   0.063   7.773   8.051  0.1791 -0.4461 -0.4244
  707MOL0     C95370  -0.062   7.741   8.110 -0.0406 -0.6334 -0.0740
  707MOL0     C95371  -0.087   7.842   8.218 -0.9316  0.0258 -0.4740
  707MOL0     C95372  -0.235   7.858   8.224 -0.5174  0.4726  0.8457
  707MOL0     C95373  -0.265   7.973   8.315  1.3697 -1.0652 -0.0864
  707MOL0     C95374  -0.226   7.948   8.453 -0.4728  0.4968  0.3958
  707MOL0     C95375  -0.204   7.914   8.569 -1.2180 -0.7088  0.2728
  707MOL0     C95376   0.155   7.538   8.097  0.0675 -0.1168 -0.9331
  707MOL0     C95377   0.261   7.448   8.084 -0.1483 -0.6392 -0.6400
  707MOL0     H95378   0.807   7.502   8.212 -2.2665 -1.3905 -0.3975
  707MOL0     H95379   1.051   7.462   8.158 -1.3855  2.4671  0.2528
  707MOL0     H95380   1.177   7.504   7.820 -1.7986 -0.4438 -0.0934
  707MOL0     H95381   1.190   7.556   7.981 -4.3939 -0.2210 -0.3660
  707MOL0     H95382   1.398   7.436   8.020 -1.8940 -0.1695  1.0400
  707MOL0     H95383   1.404   7.360   7.856 -0.6096  0.5302 -1.3493
  707MOL0     H95384   1.412   7.606   7.774 -2.2872  3.2283  2.4755
  707MOL0     H95385   1.445   7.642   7.945 -0.9772  0.5644 -0.8932
  707MOL0     H95386   1.625   7.489   7.952 -6.4053 -0.5379  1.6945
  707MOL0     H95387   1.627   7.480   7.770  1.5515 -0.7720  1.7192
  707MOL0     H95388   1.658   7.726   7.757 -0.7954 -1.9081 -0.6464
  707MOL0     H95389   1.653   7.744   7.924 -1.8817 -1.7115  0.9096
  707MOL0     H95390   1.851   7.633   7.960 -3.7060 -0.2571  0.6316
  707MOL0     H95391   1.860   7.551   7.801 -1.0756  0.3264  1.3505
  707MOL0     H95392   2.029   7.704   7.802  0.5131  0.6988 -5.1090
  707MOL0     H95393   1.896   7.756   7.694  3.1589  0.8366 -2.1187
  707MOL0     H95394   1.988   7.869   7.964 -1.2860 -4.2630  1.0298
  707MOL0     H95395   1.823   7.912   7.899  0.7289 -1.2007  2.7457
  707MOL0     H95396   2.188   8.003   7.839  1.3330  0.4256 -1.1301
  707MOL0     H95397   2.262   8.254   7.680  0.8583 -0.4564 -0.1688
  707MOL0     H95398   2.306   8.104   7.584 -1.4166 -2.0049 -0.6890
  707MOL0     H95399   2.087   8.310   7.494 -0.7182 -3.3077  0.8451
  707MOL0     H95400   2.180   8.183   7.401  1.4302 -3.1792  1.6543
  707MOL0     H95401   2.273   8.381   7.330 -0.1304  3.2157  0.2828
  707MOL0     H95402   2.384   8.336   7.451  1.1349  0.8402 -2.1505
  707MOL0     H95403   2.240   8.475   7.628 -4.0789 -2.2757  0.1605
  707MOL0     H95404   2.144   8.530   7.496  0.9785 -2.9890 -4.0554
  707MOL0     H95405   2.498   8.783   7.406  1.1782 -0.9118 -3.5996
  707MOL0     H95406   2.690   8.894   7.367  3.0820  2.9903  0.7370
  707MOL0     H95407   2.798   8.892   7.501 -2.7472  0.0624  1.5407
  707MOL0     H95408   2.850   8.819   7.355  2.8203  2.4390  1.2707
  707MOL0     H95409   3.118   8.570   7.700 -0.4685 -0.4847  0.0891
  707MOL0     H95410   3.376   8.515   7.736  3.2833 -3.0186 -0.9144
  707MOL0     H95411   3.513   8.186   7.647 -1.5339  0.7391 -1.7338
  707MOL0     H95412   3.563   8.213   7.484  1.2805 -2.8589  0.2580
  707MOL0     H95413   3.755   8.337   7.561  0.0327 -0.1434 -0.0880
  707MOL0     H95414   3.715   8.295   7.735  0.5631 -0.0735 -0.2595
  707MOL0     H95415   3.734   8.080   7.535  0.1372 -0.7195  0.1428
  707MOL0     H95416   3.748   8.061   7.706  4.1974  0.5330  2.5634
  707MOL0     H95417   3.944   8.177   7.501  1.7831 -2.2656  0.0631
  707MOL0     H95418   3.944   8.242   7.665  2.1396 -0.3592 -0.4837
  707MOL0     H95419   3.966   7.952   7.597  3.7047 -0.7933 -1.7805
  707MOL0     H95420   3.992   8.012   7.758 -0.3632 -0.8617 -0.7962
  707MOL0     H95421   4.183   8.106   7.541  3.3464  0.9152 -0.0373
  707MOL0     H95422   4.189   8.137   7.713 -2.8355  1.2784 -0.8177
  707MOL0     H95423   4.223   7.889   7.545  1.4650 -0.6902  0.6398
  707MOL0     H95424   4.206   7.853   7.709 -2.0190 -0.4933 -2.7926
  707MOL0     H95425   4.434   8.045   7.620 -0.5224  0.6681  0.5671
  707MOL0     H95426   4.457   7.869   7.619  1.5218  2.4618 -2.2299
  707MOL0     H95427   3.373   8.298   7.376  2.5686 -1.0651  1.8815
  707MOL0     H95428   3.115   8.339   7.351  0.2002 -2.6043  1.1285
  707MOL0     H95429   2.721   8.401   7.631 -3.3183 -0.2270  1.8214
  707MOL0     H95430   2.483   8.427   7.616 -3.9710  3.9399  0.0275
  707MOL0     H95431   0.941   7.286   7.787  0.3589 -1.3016  1.2121
  707MOL0     H95432   0.717   7.378   7.818 -0.1858  2.0995  0.3954
  707MOL0     H95433   0.475   7.680   7.935  0.4720  2.2160  1.5882
  707MOL0     H95434   0.284   7.808   7.926  4.6475 -0.9311 -2.7610
  707MOL0     H95435  -0.130   7.747   8.025 -0.2848  1.8496  0.2270
  707MOL0     H95436  -0.075   7.647   8.164 -1.4856 -0.1379  0.4892
  707MOL0     H95437  -0.050   7.935   8.174 -2.7986  0.8615 -0.3869
  707MOL0     H95438  -0.029   7.827   8.309 -0.5012  1.6654 -0.4409
  707MOL0     H95439  -0.282   7.773   8.275 -2.1399  0.3266 -0.7863
  707MOL0     H95440  -0.278   7.869   8.124  2.9024 -3.8575 -1.4753
  707MOL0     H95441  -0.367   8.013   8.321  2.3964  2.0469 -1.3596
  707MOL0     H95442  -0.208   8.054   8.268  0.1872 -1.4382 -2.3419
  707MOL0     H95443  -0.202   7.884   8.671 -0.7989 -1.4743  0.0487
  707MOL0     H95444   0.068   7.495   8.146 -0.0953 -0.0700 -1.1804
  707MOL0     H95445   0.265   7.344   8.114  2.3282 -0.5824 -0.6121
  708MOL0     O95446   9.792  10.947   7.104 -0.0034 -0.4719 -0.3699
  708MOL0     C95447   9.808  10.926   6.983 -0.7908 -0.2029 -0.8418
  708MOL0     O95448   9.734  10.960   6.883 -0.4118 -0.6208 -0.5799
  708MOL0     C95449   9.614  11.015   6.913 -0.2059 -0.4913  0.8507
  708MOL0     C95450   9.589  11.151   6.938 -0.3024 -0.4161  0.3716
  708MOL0     C95451   9.459  11.200   6.976  0.4025  0.2972  0.3250
  708MOL0     C95452   9.352  11.112   6.978 -0.0260 -0.0001  0.0010
  708MOL0     O95453   9.237  11.177   7.007 -0.3463 -0.1862 -0.3310
  708MOL0     C95454   9.117  11.096   7.012 -0.0497 -0.4599 -0.1106
  708MOL0     C95455   8.994  11.157   6.944  1.3705 -0.4332  0.2286
  708MOL0     C95456   8.871  11.071   6.978 -0.6587  0.0903  0.0001
  708MOL0     C95457   8.763  11.109   6.883  0.8807 -0.4177 -0.4126
  708MOL0     C95458   8.622  11.074   6.929  0.2922 -0.6661 -0.8025
  708MOL0     C95459   8.531  11.062   6.813  0.5787  0.0163 -0.7991
  708MOL0     C95460   8.525  11.184   6.723  0.4344 -0.6193  0.9517
  708MOL0     C95461   8.454  11.140   6.586  0.8488  0.4800  0.6915
  708MOL0     N95462   8.304  11.146   6.594 -0.3733 -0.4663  0.2366
  708MOL0     C95463   8.236  11.261   6.589 -0.3281  0.0261  0.7687
  708MOL0     C95464   8.111  11.220   6.614 -1.0526 -0.2620  0.4455
  708MOL0     C95465   7.981  11.297   6.603 -0.3899  0.3330 -0.4154
  708MOL0     C95466   7.918  11.358   6.739 -0.9714 -0.4779  1.2419
  708MOL0     C95467   8.035  11.412   6.825  0.2983  0.3435 -0.3388
  708MOL0     C95468   7.963  11.462   6.955 -0.7595 -0.6222  0.2013
  708MOL0     O95469   8.055  11.536   7.033  0.8268  0.5198 -0.0697
  708MOL0     C95470   8.162  11.469   7.074 -0.0851  0.5297  0.2169
  708MOL0     C95471   8.289  11.511   7.024  0.8569  0.2152  0.3700
  708MOL0     C95472   8.406  11.449   7.078  0.5001 -0.5153 -0.3129
  708MOL0     C95473   8.539  11.496   7.016  0.1327 -0.0597 -0.6301
  708MOL0     C95474   8.392  11.344   7.173 -0.2717 -1.1993  0.7876
  708MOL0     C95475   8.502  11.291   7.253 -0.2217  0.0830 -0.3777
  708MOL0     O95476   8.458  11.178   7.315 -0.2486  0.5745 -0.2811
  708MOL0     C95477   8.542  11.088   7.376  0.7621  0.0922  0.2206
  708MOL0     C95478   8.662  11.049   7.330 -0.5332  0.4400  0.3820
  708MOL0     C95479   8.736  10.952   7.398 -0.6933 -1.1866 -0.2668
  708MOL0     C95480   8.696  10.879   7.511 -0.2562  0.1841 -0.4532
  708MOL0     O95481   8.783  10.792   7.562  0.3709 -0.6876 -0.4631
  708MOL0     C95482   8.730  10.703   7.659 -0.0536 -0.0035 -0.3056
  708MOL0     C95483   8.656  10.592   7.584 -0.6032 -0.2051  0.8357
  708MOL0     C95484   8.745  10.482   7.541  0.3653 -0.9784  0.0734
  708MOL0     C95485   8.687  10.394   7.427  0.1632  0.1168 -0.3113
  708MOL0     C95486   8.762  10.278   7.382 -0.2718  0.7884 -0.3872
  708MOL0     C95487   8.788  10.276   7.231 -0.0637 -0.5942  1.3515
  708MOL0     C95488   8.851  10.407   7.184 -0.0098  0.4936  0.2243
  708MOL0     C95489   8.973  10.459   7.252 -0.2085 -0.4586  0.0313
  708MOL0    Cl95490   9.096  10.328   7.244 -0.6164  0.2853 -0.3796
  708MOL0     C95491   8.568  10.905   7.554  0.1878  0.0866  0.1017
  708MOL0     C95492   8.488  11.000   7.481 -0.1709 -0.4282  0.8075
  708MOL0     O95493   8.608  11.347   7.274 -0.5976 -0.5469  0.4864
  708MOL0     C95494   8.262  11.298   7.202  0.0519  1.2579 -1.0692
  708MOL0     C95495   8.143  11.367   7.159  0.3453  0.3229  0.2945
  708MOL0     N95496   8.107  11.085   6.643  0.3397 -0.4300  0.9830
  708MOL0     N95497   8.232  11.045   6.641 -0.5066 -0.4594  0.1153
  708MOL0     C95498   9.382  10.975   6.955  0.2854  0.7720  0.2034
  708MOL0     C95499   9.507  10.932   6.914 -0.6226  0.1010 -0.0674
  708MOL0     C95500   9.935  10.863   6.951 -0.4129  0.2868 -0.8090
  708MOL0     C95501  10.023  10.821   7.064  0.5209 -0.8735 -0.9302
  708MOL0     C95502  10.152  10.783   7.036 -0.3469  0.4140  0.3764
  708MOL0     C95503  10.202  10.770   6.904 -0.0177 -0.5234 -0.1799
  708MOL0     O95504  10.329  10.734   6.884  0.3840  0.1452 -0.2822
  708MOL0     C95505  10.406  10.835   6.822 -0.4291 -0.2056 -0.0354
  708MOL0     C95506  10.550  10.811   6.838 -0.0052 -0.1274 -0.1164
  708MOL0     C95507  10.632  10.923   6.782  0.5452 -0.4588  0.2379
  708MOL0     C95508  10.620  11.053   6.866 -1.2746  0.3440 -0.8380
  708MOL0     C95509  10.745  11.123   6.894 -0.1228 -0.3858  0.4814
  708MOL0     C95510  10.854  11.171   6.908  0.0496 -0.1998 -0.3725
  708MOL0     C95511  10.123  10.816   6.805 -0.8064  0.7579 -0.5807
  708MOL0     C95512   9.997  10.870   6.833  0.7896  0.2194 -0.0366
  708MOL0     H95513   9.669  11.225   6.941  0.4682 -1.2346  0.7698
  708MOL0     H95514   9.442  11.305   6.995 -1.0998  0.2935 -0.8141
  708MOL0     H95515   9.131  10.995   6.972  2.2862  1.2186 -4.1140
  708MOL0     H95516   9.092  11.082   7.118  2.7786  1.4886  0.9300
  708MOL0     H95517   8.968  11.260   6.973 -2.4264 -0.9793 -0.7518
  708MOL0     H95518   9.010  11.165   6.836  0.2527 -0.3048  0.0547
  708MOL0     H95519   8.898  10.966   6.965  2.2073  0.9707 -2.3500
  708MOL0     H95520   8.847  11.072   7.084  3.6822 -3.0676  1.2803
  708MOL0     H95521   8.761  11.217   6.870 -0.6812 -0.4445 -0.5327
  708MOL0     H95522   8.796  11.071   6.786  2.6464 -0.6315  0.2192
  708MOL0     H95523   8.638  10.983   6.987  0.0632  0.1296  0.5660
  708MOL0     H95524   8.594  11.144   7.009  3.7322 -0.5266  0.4587
  708MOL0     H95525   8.561  10.968   6.767  1.4667 -0.2958  0.3928
  708MOL0     H95526   8.428  11.055   6.850  1.4753 -1.4480  1.5948
  708MOL0     H95527   8.463  11.253   6.781 -0.2615  1.9185 -2.4940
  708MOL0     H95528   8.626  11.219   6.701  0.6952 -0.2212  2.6310
  708MOL0     H95529   8.482  11.038   6.559 -2.1031  0.6101 -3.9872
  708MOL0     H95530   8.492  11.205   6.506  0.7694 -0.1199  0.1588
  708MOL0     H95531   8.270  11.356   6.548  1.2630 -0.1283  1.6683
  708MOL0     H95532   8.011  11.367   6.523 -2.6754 -0.7742 -2.3720
  708MOL0     H95533   7.912  11.236   6.545 -1.2941  0.9800 -0.0504
  708MOL0     H95534   7.864  11.276   6.785  1.0658 -2.2360  0.6942
  708MOL0     H95535   7.849  11.435   6.703 -0.1148  0.1587  0.8983
  708MOL0     H95536   8.083  11.494   6.770 -0.3430  3.5025  3.4203
  708MOL0     H95537   8.103  11.329   6.843 -1.6867 -1.1057  0.7984
  708MOL0     H95538   7.911  11.387   7.015 -0.5525  1.2024  2.7980
  708MOL0     H95539   7.885  11.529   6.919 -0.7888 -0.3931  0.6820
  708MOL0     H95540   8.298  11.600   6.962  3.1680 -0.1217  0.1499
  708MOL0     H95541   8.543  11.590   6.962  4.0674  0.7656  0.7543
  708MOL0     H95542   8.602  11.529   7.099  1.8373  3.0368 -2.9766
  708MOL0     H95543   8.591  11.423   6.953  1.0263  0.3605 -0.3881
  708MOL0     H95544   8.705  11.082   7.236 -0.2215 -3.0842 -0.8645
  708MOL0     H95545   8.833  10.930   7.356 -0.3599 -1.3403  0.5673
  708MOL0     H95546   8.802  10.658   7.728 -0.7402  0.1782  0.5566
  708MOL0     H95547   8.661  10.738   7.736 -0.9900 -1.4991 -0.4292
  708MOL0     H95548   8.574  10.560   7.648 -3.8913  1.5578 -2.1569
  708MOL0     H95549   8.614  10.638   7.495  0.1363 -0.6924  0.2186
  708MOL0     H95550   8.767  10.426   7.632 -0.6495 -1.3572  0.0917
  708MOL0     H95551   8.838  10.529   7.506  1.5599 -2.7802  0.6685
  708MOL0     H95552   8.600  10.351   7.478 -0.7221 -0.0899 -1.9215
  708MOL0     H95553   8.650  10.451   7.341 -1.0253 -0.8155 -0.4472
  708MOL0     H95554   8.724  10.181   7.416  5.4434 -1.4063  0.8812
  708MOL0     H95555   8.859  10.274   7.433 -0.4803 -1.3378 -0.0681
  708MOL0     H95556   8.846  10.188   7.201 -0.3104  0.6643 -3.6754
  708MOL0     H95557   8.697  10.262   7.172 -0.0064  0.1838  1.0656
  708MOL0     H95558   8.781  10.492   7.183  0.8796  1.2557  1.1759
  708MOL0     H95559   8.872  10.402   7.077  0.7847  1.5706  0.3118
  708MOL0     H95560   8.950  10.502   7.350  0.1235 -1.0887  0.3983
  708MOL0     H95561   8.995  10.548   7.192 -0.8685 -0.2586  0.0780
  708MOL0     H95562   8.524  10.850   7.638 -1.4906 -2.1885 -2.0961
  708MOL0     H95563   8.388  11.030   7.511 -0.9676 -0.1154 -1.8270
  708MOL0     H95564   8.246  11.199   7.243  2.6722  1.6616  1.2227
  708MOL0     H95565   8.050  11.316   7.183  0.2355  0.6899  0.6735
  708MOL0     H95566   9.307  10.899   6.973  0.3491  1.0146  1.6381
  708MOL0     H95567   9.529  10.827   6.892  1.1923 -0.0268  1.9917
  708MOL0     H95568   9.990  10.831   7.167 -0.7530  2.6763 -1.5492
  708MOL0     H95569  10.218  10.745   7.113  1.5184  0.9180 -0.8979
  708MOL0     H95570  10.387  10.830   6.715 -0.2463 -4.1403 -0.0218
  708MOL0     H95571  10.386  10.940   6.845  4.3686  1.1674 -0.9598
  708MOL0     H95572  10.587  10.721   6.787  0.2036  0.5697 -1.2167
  708MOL0     H95573  10.568  10.804   6.946 -0.8293  1.1839  0.1250
  708MOL0     H95574  10.594  10.957   6.685 -1.4786  0.9086  1.4294
  708MOL0     H95575  10.735  10.888   6.774  0.9425  0.2188  1.9014
  708MOL0     H95576  10.596  11.023   6.968 -2.9172 -0.4448 -1.4143
  708MOL0     H95577  10.538  11.119   6.837 -2.4292 -0.2604  0.8740
  708MOL0     H95578  10.954  11.209   6.911 -1.0195  3.0715 -1.5481
  708MOL0     H95579  10.151  10.811   6.701  3.4709  0.1246  0.4313
  708MOL0     H95580   9.944  10.910   6.748 -2.2138 -1.3790  0.9353
  709MOL0     O95581   1.822   8.017   9.340 -0.8589 -0.1170 -0.4066
  709MOL0     C95582   1.839   7.998   9.459 -0.5971  0.5489 -0.0478
  709MOL0     O95583   1.738   7.983   9.552 -0.1973 -0.0603  0.1918
  709MOL0     C95584   1.614   7.964   9.493 -0.8246  0.6064  0.1363
  709MOL0     C95585   1.594   7.850   9.412 -0.4061 -0.0930  0.5471
  709MOL0     C95586   1.477   7.840   9.330  0.6269  0.4582 -0.7665
  709MOL0     C95587   1.370   7.942   9.347  0.1467  0.5071 -1.0403
  709MOL0     O95588   1.247   7.930   9.290  0.7044  0.2685  0.5854
  709MOL0     C95589   1.163   7.816   9.338  0.0923 -0.2502 -0.3766
  709MOL0     C95590   1.014   7.853   9.307 -0.9112  0.0224 -0.1464
  709MOL0     C95591   0.905   7.754   9.344  0.2240 -0.0867  0.0859
  709MOL0     C95592   0.767   7.770   9.267 -0.3453 -0.0913 -1.0675
  709MOL0     C95593   0.643   7.691   9.329  1.0548 -1.0117  1.5689
  709MOL0     C95594   0.544   7.658   9.217 -0.2752  0.4066 -0.2391
  709MOL0     C95595   0.427   7.583   9.282 -0.1709  0.3858 -0.4236
  709MOL0     C95596   0.346   7.506   9.182 -0.0246  1.3840  0.5132
  709MOL0     N95597   0.286   7.588   9.076 -0.3190 -0.0095 -0.5114
  709MOL0     C95598   0.222   7.713   9.098 -0.4442 -0.3112 -1.5686
  709MOL0     C95599   0.195   7.768   8.978 -0.5078  0.4230 -0.6782
  709MOL0     C95600   0.155   7.906   8.959 -0.2267 -0.2116 -0.1737
  709MOL0     C95601   0.014   7.919   9.009  0.8605  0.2996 -0.0682
  709MOL0     C95602  -0.047   8.053   8.985  0.2150  0.7064  0.1372
  709MOL0     C95603  -0.181   8.067   9.044 -0.1134  0.0577  0.3746
  709MOL0     O95604  -0.225   8.201   9.041  0.1652 -0.5884 -0.7554
  709MOL0     C95605  -0.327   8.238   9.128  1.4244  0.4499 -0.9768
  709MOL0     C95606  -0.409   8.144   9.188 -0.6643  0.3156  0.6721
  709MOL0     C95607  -0.501   8.185   9.287  1.0460  0.4550  0.2260
  709MOL0     C95608  -0.582   8.081   9.365  0.4484  0.7686  0.9515
  709MOL0     C95609  -0.511   8.325   9.318 -0.6115  0.0494  0.5235
  709MOL0     C95610  -0.610   8.376   9.413  0.8101  0.0472 -0.0555
  709MOL0     O95611  -0.568   8.482   9.472  0.8198 -0.8131  0.0507
  709MOL0     C95612  -0.637   8.548   9.569 -0.6203 -0.3221 -0.4279
  709MOL0     C95613  -0.667   8.497   9.698  0.3021  0.7334 -1.1316
  709MOL0     C95614  -0.728   8.580   9.791 -0.1786  0.6558  0.2889
  709MOL0     C95615  -0.755   8.715   9.761 -0.1532 -0.1174 -0.0474
  709MOL0     O95616  -0.822   8.798   9.848  0.2553 -0.3500  0.2455
  709MOL0     C95617  -0.880   8.925   9.809 -0.3524 -0.2435 -0.1065
  709MOL0     C95618  -0.968   8.967   9.921  0.0928 -0.1105 -0.9199
  709MOL0     C95619  -1.056   9.094   9.914  0.7227  0.4174  0.9711
  709MOL0     C95620  -0.988   9.200   9.825  0.9018 -0.0908 -0.0822
  709MOL0     C95621  -1.023   9.342   9.856  0.1639 -1.2992  0.3408
  709MOL0     C95622  -0.948   9.401   9.979  0.4721 -0.7888  0.4868
  709MOL0     C95623  -0.986   9.559   9.986  0.2684 -0.0556  0.3690
  709MOL0     C95624  -0.920   9.634  10.098  0.3884  0.4103  0.4028
  709MOL0    Cl95625  -0.985   9.572  10.258  0.0734  0.5714 -0.1464
  709MOL0     C95626  -0.729   8.760   9.629  0.0572 -0.0260  0.0145
  709MOL0     C95627  -0.674   8.676   9.532  1.0812 -0.2006  0.4665
  709MOL0     O95628  -0.717   8.322   9.438  0.3252  0.0915  0.1549
  709MOL0     C95629  -0.428   8.419   9.257  0.8562  0.0701 -0.5885
  709MOL0     C95630  -0.338   8.374   9.154  0.2611 -0.5860 -0.1401
  709MOL0     N95631   0.243   7.683   8.880  0.1165 -0.6579  0.0567
  709MOL0     N95632   0.289   7.573   8.938 -0.2887  0.7174  1.0152
  709MOL0     C95633   1.382   8.037   9.449  0.1878  0.4072  0.1837
  709MOL0     C95634   1.500   8.047   9.516 -1.6150 -0.1424  0.1500
  709MOL0     C95635   1.985   7.988   9.493  0.2390  0.1290 -0.2580
  709MOL0     C95636   2.090   7.998   9.397  0.7884 -0.1919 -0.7100
  709MOL0     C95637   2.219   7.986   9.433 -0.5429 -0.2718  0.8353
  709MOL0     C95638   2.261   7.965   9.566  0.3757  0.5382 -0.2315
  709MOL0     O95639   2.395   7.962   9.581 -0.0861  0.1194  0.1356
  709MOL0     C95640   2.438   7.937   9.710  0.4056  0.1087 -0.0287
  709MOL0     C95641   2.589   7.901   9.709  0.6743  0.9461 -0.5986
  709MOL0     C95642   2.673   8.031   9.701 -0.3502 -0.9985 -0.0930
  709MOL0     C95643   2.822   8.020   9.720 -0.1534  0.4072  0.2759
  709MOL0     C95644   2.874   7.962   9.840  0.3189  0.4888 -0.2995
  709MOL0     C95645   2.922   7.902   9.936  0.0628 -0.4941 -0.5482
  709MOL0     C95646   2.153   7.958   9.665  0.5166  1.0658 -0.4956
  709MOL0     C95647   2.024   7.962   9.625  0.8269  0.1750  0.2754
  709MOL0     H95648   1.661   7.773   9.375 -0.7290  0.1821 -0.6705
  709MOL0     H95649   1.453   7.759   9.261  0.7393  0.5851 -0.9565
  709MOL0     H95650   1.188   7.720   9.291 -0.8683 -0.1808 -1.0576
  709MOL0     H95651   1.179   7.808   9.445 -4.2224  2.2187  0.7124
  709MOL0     H95652   0.992   7.946   9.361 -0.6704 -0.6872  1.1947
  709MOL0     H95653   1.005   7.876   9.200  2.1316  2.1036 -0.1130
  709MOL0     H95654   0.948   7.656   9.319  1.5463  0.9247 -1.9568
  709MOL0     H95655   0.870   7.760   9.447 -1.9687 -1.4332 -0.5137
  709MOL0     H95656   0.724   7.870   9.258 -0.1647  0.0465 -0.4120
  709MOL0     H95657   0.787   7.753   9.160  1.3507 -0.2377 -0.7504
  709MOL0     H95658   0.671   7.595   9.374 -0.5940 -1.8133  0.9448
  709MOL0     H95659   0.581   7.741   9.404 -0.0963  3.0124 -1.6788
  709MOL0     H95660   0.505   7.739   9.154 -0.5223 -0.2187 -0.9127
  709MOL0     H95661   0.592   7.596   9.140  2.3694  3.2432 -1.0784
  709MOL0     H95662   0.454   7.512   9.360 -0.4960  4.1382  3.5323
  709MOL0     H95663   0.364   7.663   9.323  0.1626  1.4620 -1.9261
  709MOL0     H95664   0.272   7.443   9.233  1.5915 -4.6665 -3.5868
  709MOL0     H95665   0.404   7.425   9.139 -2.6848 -0.6063  0.4100
  709MOL0     H95666   0.198   7.777   9.182  0.6073  1.5248 -2.5854
  709MOL0     H95667   0.223   7.982   8.999  1.1844 -1.3275 -0.3703
  709MOL0     H95668   0.158   7.904   8.850  0.6988 -0.7684 -0.1470
  709MOL0     H95669   0.020   7.919   9.118 -1.8088  1.4393  0.1427
  709MOL0     H95670  -0.053   7.837   8.981  1.9785 -0.9473  0.7787
  709MOL0     H95671  -0.053   8.073   8.878 -4.5450  0.4440  0.1739
  709MOL0     H95672   0.023   8.124   9.031  0.4174  2.7497 -3.0064
  709MOL0     H95673  -0.174   8.031   9.147 -1.2791  2.2401  1.2984
  709MOL0     H95674  -0.251   8.005   8.988 -1.3222 -0.2806  2.1687
  709MOL0     H95675  -0.392   8.039   9.163  1.3777  0.3851  1.5249
  709MOL0     H95676  -0.510   8.004   9.395 -0.3700 -0.7706 -0.8186
  709MOL0     H95677  -0.614   8.116   9.463 -3.4225  2.0080 -0.5382
  709MOL0     H95678  -0.660   8.035   9.304 -2.4008  2.1298  3.3409
  709MOL0     H95679  -0.637   8.397   9.727 -1.7079  0.3282 -0.2176
  709MOL0     H95680  -0.736   8.542   9.892 -0.9090 -1.2370 -0.4350
  709MOL0     H95681  -0.797   8.996   9.797  1.6119 -2.1609  1.2954
  709MOL0     H95682  -0.940   8.918   9.718 -3.1429 -1.7954  1.7137
  709MOL0     H95683  -1.035   8.883   9.936  1.3955 -0.6298  3.2962
  709MOL0     H95684  -0.900   8.996  10.002  1.5850 -0.3542 -2.0478
  709MOL0     H95685  -1.076   9.128  10.016  1.9364 -0.9586  1.6996
  709MOL0     H95686  -1.147   9.072   9.858  0.2319  1.0221  1.5097
  709MOL0     H95687  -0.881   9.179   9.820  0.5347 -3.4453  2.1823
  709MOL0     H95688  -1.027   9.181   9.725  0.9556 -0.5483 -0.0188
  709MOL0     H95689  -1.127   9.333   9.889  0.5267 -1.4037  1.5169
  709MOL0     H95690  -1.008   9.393   9.760 -2.4458 -0.0339  0.5338
  709MOL0     H95691  -0.994   9.353  10.066 -1.6684  0.5919  0.2071
  709MOL0     H95692  -0.841   9.387   9.960  0.4776 -1.8916  1.2716
  709MOL0     H95693  -1.094   9.575   9.995 -0.2022 -0.8633 -2.7579
  709MOL0     H95694  -0.963   9.611   9.892 -1.6790  1.2206  0.5285
  709MOL0     H95695  -0.959   9.736  10.096 -2.0626 -0.4705  0.2158
  709MOL0     H95696  -0.812   9.628  10.084  0.1878 -1.7586 -0.7561
  709MOL0     H95697  -0.757   8.860   9.595 -1.8262 -1.5476 -3.4130
  709MOL0     H95698  -0.637   8.711   9.436  2.4303  0.6727  1.2775
  709MOL0     H95699  -0.446   8.524   9.277  0.8446  0.1132 -0.8336
  709MOL0     H95700  -0.286   8.453   9.102 -1.6330  2.9503  2.8763
  709MOL0     H95701   1.303   8.107   9.476 -1.8605 -2.3233  1.7638
  709MOL0     H95702   1.516   8.127   9.588  0.8763  0.3637 -0.8451
  709MOL0     H95703   2.061   8.012   9.294  1.1156 -0.5489 -0.8548
  709MOL0     H95704   2.299   8.018   9.367 -0.1292  0.3515  1.6280
  709MOL0     H95705   2.426   8.028   9.770 -0.0844 -0.8608  1.3761
  709MOL0     H95706   2.373   7.862   9.755 -3.4612  1.0994 -3.4329
  709MOL0     H95707   2.613   7.835   9.625 -0.3185 -0.5058  0.2072
  709MOL0     H95708   2.620   7.852   9.801  0.1551  3.1111  0.8012
  709MOL0     H95709   2.650   8.109   9.775  2.6777  0.3331 -0.4190
  709MOL0     H95710   2.649   8.081   9.607  0.0289  1.7231  1.1563
  709MOL0     H95711   2.875   8.114   9.703  1.1349 -0.5450 -1.2594
  709MOL0     H95712   2.859   7.949   9.645  0.7524  1.3275 -0.1633
  709MOL0     H95713   2.941   7.857  10.031  2.7899  0.5080 -0.5249
  709MOL0     H95714   2.165   7.952   9.773  0.9776  2.6290 -0.4326
  709MOL0     H95715   1.949   7.966   9.703 -1.4477 -3.7093 -1.4173
  710MOL0     O95716   8.234  11.454   3.581  0.1239  0.2192  0.6053
  710MOL0     C95717   8.264  11.333   3.589  0.0302 -0.5121  0.6478
  710MOL0     O95718   8.363  11.271   3.509  0.2710  0.3259 -0.0387
  710MOL0     C95719   8.453  11.343   3.439  0.0381 -0.5955 -0.9634
  710MOL0     C95720   8.416  11.456   3.361  0.7437 -0.7382  0.6502
  710MOL0     C95721   8.511  11.541   3.314 -0.0479 -0.1808  0.4634
  710MOL0     C95722   8.642  11.502   3.315  0.3926 -0.3831  0.5254
  710MOL0     O95723   8.727  11.581   3.246  0.1753  0.0010  0.4614
  710MOL0     C95724   8.844  11.534   3.184 -0.3977  0.8094  0.1808
  710MOL0     C95725   8.839  11.549   3.027 -0.3497 -1.1064  0.1704
  710MOL0     C95726   8.962  11.477   2.965  1.2014  0.5116  0.3028
  710MOL0     C95727   8.967  11.463   2.809  0.3945 -0.3244 -0.2183
  710MOL0     C95728   9.092  11.395   2.755  1.0836 -0.0903 -0.1181
  710MOL0     C95729   9.203  11.499   2.744  0.6255  0.0641  0.0565
  710MOL0     C95730   9.336  11.437   2.727 -0.1739  0.3042  0.7316
  710MOL0     C95731   9.353  11.349   2.601  0.3106 -0.3706 -0.5286
  710MOL0     N95732   9.352  11.418   2.473 -0.0602  0.4830 -0.5423
  710MOL0     C95733   9.451  11.488   2.410  0.4501 -0.1166  0.4834
  710MOL0     C95734   9.387  11.541   2.296  0.0161 -0.5301 -0.1351
  710MOL0     C95735   9.439  11.639   2.193 -1.1350  0.4696  0.8177
  710MOL0     C95736   9.498  11.762   2.263  0.8179  0.0724  0.1694
  710MOL0     C95737   9.572  11.855   2.163  0.8279 -0.1439  0.4605
  710MOL0     C95738   9.476  11.906   2.054 -0.3237  0.0562 -0.8851
  710MOL0     O95739   9.445  11.809   1.948 -0.0177 -0.4457 -0.1513
  710MOL0     C95740   9.544  11.752   1.872  0.2360  0.3568  0.3745
  710MOL0     C95741   9.518  11.627   1.822 -0.3709  0.4408  0.0234
  710MOL0     C95742   9.617  11.565   1.735  0.2768 -1.0346  0.4019
  710MOL0     C95743   9.575  11.437   1.675  1.5103  0.4020 -0.0396
  710MOL0     C95744   9.743  11.620   1.726 -1.1358 -0.1907 -0.7408
  710MOL0     C95745   9.853  11.552   1.660  0.4516  0.2771 -0.4989
  710MOL0     O95746   9.941  11.624   1.589  0.0857  0.0881  0.8098
  710MOL0     C95747  10.044  11.557   1.540 -0.9229  0.9142 -0.0364
  710MOL0     C95748  10.174  11.603   1.557  0.6037 -0.3038 -0.3569
  710MOL0     C95749  10.281  11.557   1.486  0.4275 -0.4627  0.0629
  710MOL0     C95750  10.265  11.444   1.390 -0.4015 -0.5160 -0.0027
  710MOL0     O95751  10.367  11.380   1.323 -0.1573 -0.1451 -0.0940
  710MOL0     C95752  10.471  11.330   1.411  0.4059 -0.1519  0.0883
  710MOL0     C95753  10.449  11.176   1.392 -0.2231  1.0786 -0.1423
  710MOL0     C95754  10.574  11.105   1.455 -0.3156 -0.3140  1.0000
  710MOL0     C95755  10.545  11.056   1.601 -0.5134 -0.8642  0.7392
  710MOL0     C95756  10.650  11.005   1.693 -0.3730 -0.2548 -0.4695
  710MOL0     C95757  10.656  10.856   1.651  0.0837  0.3647  0.0285
  710MOL0     C95758  10.754  10.788   1.750 -0.3258  0.3775  0.7983
  710MOL0     C95759  10.789  10.643   1.722  0.9691 -0.3664 -0.2823
  710MOL0    Cl95760  10.640  10.541   1.742  0.0499 -0.0174 -0.0256
  710MOL0     C95761  10.139  11.396   1.373 -0.6542 -0.8441 -0.4127
  710MOL0     C95762  10.031  11.452   1.446  1.1495 -0.1389  1.7958
  710MOL0     O95763   9.876  11.436   1.697 -0.4041 -0.3548  0.0242
  710MOL0     C95764   9.766  11.747   1.781  0.2891 -0.7809 -0.2368
  710MOL0     C95765   9.660  11.822   1.833  0.6764 -0.3676 -0.0441
  710MOL0     N95766   9.253  11.506   2.298 -0.3411  0.2275  0.3730
  710MOL0     N95767   9.235  11.429   2.405  0.4014 -0.0669  0.3236
  710MOL0     C95768   8.680  11.387   3.386  0.3384  0.0875  0.1591
  710MOL0     C95769   8.583  11.306   3.453  0.0747  0.9746  0.0936
  710MOL0     C95770   8.196  11.252   3.685 -0.3659 -0.9287  0.0330
  710MOL0     C95771   8.169  11.301   3.810  0.0790 -0.6017 -0.2809
  710MOL0     C95772   8.083  11.230   3.899  0.8739 -0.1162 -0.7332
  710MOL0     C95773   8.023  11.112   3.859 -0.5078  0.0099 -0.6252
  710MOL0     O95774   7.947  11.061   3.958  0.4023 -0.3004 -0.1275
  710MOL0     C95775   7.882  10.934   3.940 -0.0465 -0.0022  0.0812
  710MOL0     C95776   7.779  10.892   4.040 -0.1880  0.8008  0.3901
  710MOL0     C95777   7.657  10.979   4.034  0.7219 -0.9563 -0.4358
  710MOL0     C95778   7.592  11.003   3.894  0.1916 -0.1208 -0.1691
  710MOL0     C95779   7.540  10.882   3.848  0.9103  0.3195  0.1330
  710MOL0     C95780   7.475  10.779   3.844  0.0185 -0.4580  0.4506
  710MOL0     C95781   8.047  11.062   3.728  0.0614  0.2359  0.5900
  710MOL0     C95782   8.140  11.126   3.647 -0.4091 -1.0456  0.3100
  710MOL0     H95783   8.311  11.480   3.351  1.0318  0.5022  0.4061
  710MOL0     H95784   8.480  11.634   3.268 -2.5407 -1.4463 -0.6857
  710MOL0     H95785   8.933  11.590   3.216 -0.4249  1.8507 -1.4660
  710MOL0     H95786   8.866  11.429   3.207  0.5177  1.2324  1.4056
  710MOL0     H95787   8.751  11.509   2.975 -0.3261 -1.5609  0.4715
  710MOL0     H95788   8.844  11.653   2.994  2.6514 -1.2020  0.0059
  710MOL0     H95789   9.054  11.531   2.988  2.9540  0.0319 -4.4866
  710MOL0     H95790   8.954  11.372   2.996  0.4685  0.1038 -1.2108
  710MOL0     H95791   8.884  11.402   2.772  0.2767 -0.3375  0.0657
  710MOL0     H95792   8.946  11.559   2.762 -0.3690  0.6760  2.0064
  710MOL0     H95793   9.125  11.318   2.825 -0.1907 -0.5619 -0.0149
  710MOL0     H95794   9.073  11.338   2.663 -4.8861  0.2624  0.5168
  710MOL0     H95795   9.188  11.562   2.655  3.6825  1.0074  0.0670
  710MOL0     H95796   9.208  11.563   2.832  2.4087 -0.0888  0.1102
  710MOL0     H95797   9.411  11.517   2.728  1.2204 -0.8034 -2.3711
  710MOL0     H95798   9.348  11.358   2.802 -1.2707 -2.6857 -2.0369
  710MOL0     H95799   9.273  11.275   2.596  0.5024 -0.5155 -2.1734
  710MOL0     H95800   9.446  11.292   2.616  1.3988  1.8270  1.8744
  710MOL0     H95801   9.557  11.506   2.428  0.8190  2.2869 -3.0455
  710MOL0     H95802   9.516  11.602   2.126  0.2574  2.0960  1.4449
  710MOL0     H95803   9.353  11.670   2.133  0.0622  0.7721 -0.8012
  710MOL0     H95804   9.549  11.736   2.357  0.9881 -0.7448 -0.1343
  710MOL0     H95805   9.414  11.829   2.286 -0.8581 -2.2130  1.2147
  710MOL0     H95806   9.660  11.812   2.116  0.9897  1.9476 -1.3436
  710MOL0     H95807   9.608  11.941   2.220  1.0136  0.0853  0.0052
  710MOL0     H95808   9.530  11.997   2.024 -3.1283  2.1562  0.0471
  710MOL0     H95809   9.389  11.956   2.096 -0.2196  0.0282 -0.6326
  710MOL0     H95810   9.422  11.579   1.839  0.4153 -1.5636 -0.8256
  710MOL0     H95811   9.620  11.357   1.733  0.6422  0.3820  0.6289
  710MOL0     H95812   9.468  11.421   1.657  1.8604 -2.0022 -0.2587
  710MOL0     H95813   9.611  11.433   1.572  1.7587 -0.7319  0.0792
  710MOL0     H95814  10.162  11.691   1.619  0.4151  0.0540 -0.8930
  710MOL0     H95815  10.378  11.595   1.515 -0.8242  0.8520  2.9469
  710MOL0     H95816  10.566  11.377   1.383 -0.3008  1.6173  0.4769
  710MOL0     H95817  10.446  11.349   1.516 -1.2446 -2.7245  0.2371
  710MOL0     H95818  10.354  11.161   1.444 -0.0020  0.3474  0.0644
  710MOL0     H95819  10.442  11.132   1.293 -4.8907 -1.6359  1.0806
  710MOL0     H95820  10.662  11.168   1.445  0.4987 -0.9974  3.2796
  710MOL0     H95821  10.596  11.010   1.405  0.8942  0.6444 -0.3647
  710MOL0     H95822  10.495  11.135   1.658 -3.5935  0.3688 -3.1928
  710MOL0     H95823  10.457  10.990   1.593  0.2790 -2.3392  3.1371
  710MOL0     H95824  10.626  11.026   1.798  5.7443 -1.5092  1.6156
  710MOL0     H95825  10.745  11.059   1.680  0.0262 -0.1781  2.2357
  710MOL0     H95826  10.557  10.810   1.661  0.3690 -0.1663  0.4933
  710MOL0     H95827  10.692  10.855   1.548 -0.3411  1.8317 -0.1580
  710MOL0     H95828  10.710  10.807   1.849 -1.7923  0.3732  0.1796
  710MOL0     H95829  10.850  10.837   1.735 -1.3809  1.7174 -2.4677
  710MOL0     H95830  10.873  10.607   1.782  1.0167 -0.4439 -0.3945
  710MOL0     H95831  10.831  10.645   1.621  0.5470  0.1825 -0.4495
  710MOL0     H95832  10.129  11.314   1.302 -3.4939  1.9360 -3.6039
  710MOL0     H95833   9.937  11.400   1.426  1.9549 -0.4432 -1.9381
  710MOL0     H95834   9.857  11.797   1.751  0.5665  0.6917  2.8030
  710MOL0     H95835   9.677  11.924   1.865 -3.0369 -0.7349  4.1299
  710MOL0     H95836   8.784  11.355   3.383  1.0261  1.8796  2.2414
  710MOL0     H95837   8.613  11.217   3.507 -2.9678 -0.5437 -0.5487
  710MOL0     H95838   8.188  11.407   3.828 -1.3395 -0.4535  0.5229
  710MOL0     H95839   8.058  11.278   3.994  3.1871 -1.4934  0.6702
  710MOL0     H95840   7.837  10.915   3.842  0.1298  2.0889 -0.4596
  710MOL0     H95841   7.959  10.858   3.952 -2.1289 -2.1517  0.6158
  710MOL0     H95842   7.831  10.911   4.134  2.2622  3.7087 -1.3649
  710MOL0     H95843   7.761  10.784   4.034  0.8475  0.5832  0.9232
  710MOL0     H95844   7.672  11.078   4.077 -0.0546 -0.3240 -1.5854
  710MOL0     H95845   7.585  10.940   4.106  1.5154 -1.1292  0.2789
  710MOL0     H95846   7.648  11.049   3.812 -3.7084  4.1649 -0.8990
  710MOL0     H95847   7.502  11.063   3.912  0.6787  0.3448  0.7951
  710MOL0     H95848   7.431  10.682   3.834  3.5573 -2.1373 -0.4220
  710MOL0     H95849   7.991  10.975   3.694  0.8397  0.0904 -0.3695
  710MOL0     H95850   8.156  11.094   3.545 -0.1740 -0.3840  0.1361
  711MOL0     O95851   8.341   3.202   2.355  0.1376 -0.9387  0.3929
  711MOL0     C95852   8.366   3.111   2.278 -0.3011 -0.5581 -0.6171
  711MOL0     O95853   8.338   2.983   2.310  1.4100 -0.2256  0.2874
  711MOL0     C95854   8.290   2.951   2.439 -0.3511 -0.3651 -0.2569
  711MOL0     C95855   8.152   2.923   2.448 -0.2397  0.0117  0.5009
  711MOL0     C95856   8.097   2.891   2.562  0.3049 -0.0371  0.1132
  711MOL0     C95857   8.172   2.887   2.685  0.1252  0.6165  0.8470
  711MOL0     O95858   8.105   2.880   2.801  0.1973 -0.1854 -0.6368
  711MOL0     C95859   7.967   2.835   2.815 -0.9771 -0.4633  0.0800
  711MOL0     C95860   7.940   2.831   2.958  0.4666 -0.1414  0.1538
  711MOL0     C95861   7.960   2.964   3.035 -0.2884 -0.9591  0.8675
  711MOL0     C95862   7.963   2.947   3.193 -0.5807  0.4465  0.4959
  711MOL0     C95863   7.951   3.072   3.273  0.3349 -0.5094 -0.1401
  711MOL0     C95864   8.057   3.183   3.232  0.1082  0.3489 -0.3112
  711MOL0     C95865   8.032   3.312   3.313 -0.4759 -0.2904  0.3204
  711MOL0     C95866   8.155   3.380   3.354  0.5942  0.3574  1.1712
  711MOL0     N95867   8.234   3.315   3.456  0.7123 -0.1638 -0.4273
  711MOL0     C95868   8.173   3.301   3.577 -0.0864  1.0550  1.2509
  711MOL0     C95869   8.252   3.213   3.647  0.5893 -0.0254 -0.7515
  711MOL0     C95870   8.236   3.181   3.791  0.0496 -0.4054  0.4463
  711MOL0     C95871   8.328   3.279   3.864 -0.9643 -0.0179  0.6954
  711MOL0     C95872   8.365   3.234   4.007 -0.3875  0.3497  0.2644
  711MOL0     C95873   8.238   3.207   4.084 -0.5373  0.6650  0.0989
  711MOL0     O95874   8.185   3.088   4.050 -0.4334  0.0800 -0.4864
  711MOL0     C95875   8.089   3.045   4.138  0.3036 -0.1353  0.4866
  711MOL0     C95876   8.008   3.125   4.217  0.6581  0.1332 -0.8002
  711MOL0     C95877   7.900   3.079   4.294 -0.0044  0.0111  0.0979
  711MOL0     C95878   7.818   3.185   4.363  0.7908 -0.2678 -0.2676
  711MOL0     C95879   7.860   2.940   4.289  0.6986  0.3149  0.6373
  711MOL0     C95880   7.750   2.882   4.368  0.1961 -0.5757  0.4965
  711MOL0     O95881   7.683   2.973   4.444 -0.1379  0.0971 -1.4984
  711MOL0     C95882   7.612   2.930   4.560  0.3609 -1.1605  0.1654
  711MOL0     C95883   7.505   3.011   4.591  0.9161  0.5253 -0.0539
  711MOL0     C95884   7.436   2.988   4.708 -0.9277 -1.5307  0.0104
  711MOL0     C95885   7.478   2.888   4.796 -0.1357  0.8018 -0.3153
  711MOL0     O95886   7.407   2.872   4.911  0.4243 -0.3408  0.5686
  711MOL0     C95887   7.441   2.796   5.027  0.3184  1.3363 -1.0584
  711MOL0     C95888   7.342   2.832   5.145  0.3474 -0.4554  0.7534
  711MOL0     C95889   7.394   2.773   5.269 -0.2692  0.3793 -0.7444
  711MOL0     C95890   7.357   2.854   5.394 -0.7446 -0.4678  0.1061
  711MOL0     C95891   7.412   2.795   5.519 -0.3930  0.3325  0.2311
  711MOL0     C95892   7.395   2.872   5.653 -0.1669 -0.0682 -0.5022
  711MOL0     C95893   7.268   2.838   5.740 -0.2904 -0.2534 -0.6819
  711MOL0     C95894   7.145   2.926   5.705 -0.4027 -0.1039  0.7564
  711MOL0    Cl95895   7.023   2.924   5.838  0.5723 -0.1916  0.3340
  711MOL0     C95896   7.570   2.794   4.758 -0.1108  0.6331 -0.1412
  711MOL0     C95897   7.647   2.821   4.639  0.6352  0.0442  0.4067
  711MOL0     O95898   7.715   2.767   4.350 -0.7335  0.3258  0.6675
  711MOL0     C95899   7.939   2.851   4.208 -0.6355  0.1496 -0.2100
  711MOL0     C95900   8.053   2.907   4.141  0.0678  0.7634  0.6035
  711MOL0     N95901   8.342   3.150   3.554 -0.3277 -0.0896 -0.1385
  711MOL0     N95902   8.329   3.219   3.445 -0.4320  0.8568  0.3399
  711MOL0     C95903   8.313   2.909   2.680 -1.1009  0.1485  0.5169
  711MOL0     C95904   8.372   2.941   2.559 -0.0196 -0.7735 -0.3300
  711MOL0     C95905   8.419   3.145   2.141  0.0394 -1.2921 -0.1916
  711MOL0     C95906   8.422   3.050   2.044 -0.7008  0.1309  0.3154
  711MOL0     C95907   8.473   3.077   1.920  0.3734  0.7990  1.4413
  711MOL0     C95908   8.514   3.208   1.894 -0.9764  0.1794  0.3536
  711MOL0     O95909   8.586   3.214   1.773  0.5642 -0.9695 -0.1193
  711MOL0     C95910   8.683   3.321   1.761  0.3637 -1.0500  0.1499
  711MOL0     C95911   8.710   3.337   1.611  0.1483 -0.2696 -0.8722
  711MOL0     C95912   8.778   3.218   1.545 -0.0706 -0.1351 -0.8933
  711MOL0     C95913   8.926   3.236   1.576 -0.0654  0.1544  0.4159
  711MOL0     C95914   8.981   3.128   1.493 -0.4304 -0.1591 -0.1017
  711MOL0     C95915   9.046   3.053   1.434 -0.1606 -0.8909 -0.3343
  711MOL0     C95916   8.504   3.314   1.988  0.9562  0.5645 -0.1357
  711MOL0     C95917   8.455   3.280   2.109 -1.0491 -1.0573 -0.5625
  711MOL0     H95918   8.084   2.933   2.363 -0.5893 -1.1053  0.6387
  711MOL0     H95919   7.991   2.868   2.562  0.4182 -0.6580 -1.5395
  711MOL0     H95920   7.899   2.904   2.763 -0.2068  0.4146  0.2191
  711MOL0     H95921   7.949   2.742   2.758 -0.1200 -0.6143  0.0384
  711MOL0     H95922   7.834   2.808   2.969  0.9359 -1.7454  1.6409
  711MOL0     H95923   7.989   2.750   3.013  0.3386  1.2877  2.4820
  711MOL0     H95924   8.044   3.018   2.989 -2.0561  2.6206  1.4714
  711MOL0     H95925   7.880   3.033   3.008  2.5255  2.6633  0.9197
  711MOL0     H95926   7.901   2.866   3.232 -2.4285  2.4227  1.9291
  711MOL0     H95927   8.063   2.911   3.216 -0.9248 -3.2594 -2.7220
  711MOL0     H95928   7.846   3.103   3.274  0.4671 -0.0598  1.0249
  711MOL0     H95929   7.984   3.048   3.374 -0.7218  0.2035  0.3936
  711MOL0     H95930   8.150   3.129   3.256 -0.2731 -0.3988 -0.4832
  711MOL0     H95931   8.046   3.204   3.126 -0.9658  0.3961 -0.1982
  711MOL0     H95932   7.968   3.377   3.252 -1.2934 -0.8986  0.5217
  711MOL0     H95933   7.977   3.293   3.406 -0.9671  4.7310  1.3487
  711MOL0     H95934   8.118   3.477   3.390 -0.6606  0.6141 -0.6375
  711MOL0     H95935   8.222   3.413   3.274 -0.1996  0.7343  0.6421
  711MOL0     H95936   8.093   3.365   3.612 -2.1077 -0.0838 -0.9195
  711MOL0     H95937   8.132   3.192   3.822  0.6396 -0.3639  2.5961
  711MOL0     H95938   8.270   3.078   3.808 -2.0154 -1.8500 -3.1235
  711MOL0     H95939   8.284   3.379   3.861  1.1295  0.9446 -1.5270
  711MOL0     H95940   8.425   3.289   3.814  0.0277 -3.3762  1.7078
  711MOL0     H95941   8.429   3.310   4.052  1.3920 -0.2669 -1.1069
  711MOL0     H95942   8.421   3.140   4.010 -0.0411  0.5688  0.9834
  711MOL0     H95943   8.168   3.288   4.060 -0.7667  0.3564 -0.2717
  711MOL0     H95944   8.260   3.219   4.190 -1.6729  0.3893  0.3772
  711MOL0     H95945   8.026   3.232   4.227 -1.2175  0.6351 -2.1152
  711MOL0     H95946   7.715   3.182   4.326  0.9776  2.6246 -1.2819
  711MOL0     H95947   7.828   3.182   4.471 -2.7503  1.4583  0.2523
  711MOL0     H95948   7.840   3.281   4.315  1.2446 -1.5916 -2.9327
  711MOL0     H95949   7.468   3.085   4.521 -1.7183  1.4858  2.1829
  711MOL0     H95950   7.353   3.057   4.716  0.7207  1.4073 -4.3194
  711MOL0     H95951   7.443   2.687   5.015  0.9553  1.3672 -1.2884
  711MOL0     H95952   7.544   2.823   5.054 -0.1219  2.0431 -0.0261
  711MOL0     H95953   7.334   2.941   5.151  0.3157 -0.0931 -3.1673
  711MOL0     H95954   7.246   2.785   5.123 -0.2580 -0.7351  3.6869
  711MOL0     H95955   7.503   2.762   5.262 -0.2729  0.9710 -1.9531
  711MOL0     H95956   7.354   2.672   5.280  0.4213 -0.2509 -3.4406
  711MOL0     H95957   7.394   2.956   5.382  1.2142 -1.2043 -0.6396
  711MOL0     H95958   7.248   2.852   5.404 -0.9543 -0.5519 -1.7735
  711MOL0     H95959   7.518   2.769   5.510 -0.3194  0.6239  0.2361
  711MOL0     H95960   7.356   2.702   5.525 -0.5043  0.2819 -1.2989
  711MOL0     H95961   7.486   2.849   5.709 -0.3864  1.8838  0.7639
  711MOL0     H95962   7.391   2.978   5.629 -1.4717 -0.0452 -0.2479
  711MOL0     H95963   7.285   2.862   5.846 -1.1177  0.9542 -0.8030
  711MOL0     H95964   7.243   2.733   5.722  1.0440 -1.0273  1.5970
  711MOL0     H95965   7.090   2.900   5.614 -1.3993 -0.3269  1.4062
  711MOL0     H95966   7.178   3.029   5.689  1.2549 -0.4372  1.7162
  711MOL0     H95967   7.603   2.715   4.825  0.7536 -0.0380 -1.3311
  711MOL0     H95968   7.728   2.752   4.616  1.3086  0.3285  1.7579
  711MOL0     H95969   7.917   2.746   4.192  0.7983 -0.9071  3.7008
  711MOL0     H95970   8.125   2.840   4.096  0.2790 -0.0257  2.0608
  711MOL0     H95971   8.376   2.919   2.768  1.0025  2.3428 -1.1056
  711MOL0     H95972   8.477   2.969   2.552 -0.6551  1.8834 -0.4260
  711MOL0     H95973   8.391   2.947   2.057  2.1627 -0.5873  2.6165
  711MOL0     H95974   8.475   3.004   1.840  0.1536  1.8334  0.4645
  711MOL0     H95975   8.638   3.414   1.796  0.2606 -0.7764 -0.6892
  711MOL0     H95976   8.774   3.313   1.822  0.3185  1.6745  0.6897
  711MOL0     H95977   8.771   3.428   1.599 -1.6254  1.4909  2.1559
  711MOL0     H95978   8.620   3.372   1.561  1.4830  2.0557 -1.8375
  711MOL0     H95979   8.759   3.224   1.438 -2.5204 -0.4636 -0.5292
  711MOL0     H95980   8.732   3.129   1.589 -0.7990  1.7741  2.5872
  711MOL0     H95981   8.954   3.209   1.678  0.5665 -0.2455  0.1454
  711MOL0     H95982   8.956   3.334   1.538  1.0689  0.1282  1.1975
  711MOL0     H95983   9.086   2.977   1.369 -0.1775  0.0486 -1.4681
  711MOL0     H95984   8.535   3.418   1.983 -0.8331  1.1158 -0.3312
  711MOL0     H95985   8.446   3.355   2.187 -0.5431 -0.8932 -0.6573
  712MOL0     O95986   9.987   9.147   0.121  0.7539  0.3323  0.0625
  712MOL0     C95987   9.973   9.141   0.001  0.4614  0.0681  0.0723
  712MOL0     O95988  10.067   9.137  -0.095 -0.7705  0.2081 -0.0072
  712MOL0     C95989  10.197   9.181  -0.066  0.2248  0.1400  1.1088
  712MOL0     C95990  10.233   9.291   0.026  0.4600  0.4811 -0.2392
  712MOL0     C95991  10.363   9.341   0.028 -0.4000  0.3654  0.8088
  712MOL0     C95992  10.453   9.281  -0.058 -0.5305 -0.2282  0.8707
  712MOL0     O95993  10.582   9.320  -0.061 -0.0088  0.3891  0.3045
  712MOL0     C95994  10.644   9.368   0.053 -0.2195 -0.2641  0.1642
  712MOL0     C95995  10.791   9.349   0.056 -0.5824  0.6099  1.0256
  712MOL0     C95996  10.860   9.384  -0.078 -0.9478 -0.1981 -0.2773
  712MOL0     C95997  11.013   9.374  -0.066 -0.0064  0.9939  0.0985
  712MOL0     C95998  11.097   9.442  -0.179  0.2042  0.1946  0.3317
  712MOL0     C95999  11.059   9.392  -0.320  0.2687  0.9003 -0.7959
  712MOL0     C96000  11.131   9.470  -0.431  0.0626 -0.4033  1.1239
  712MOL0     C96001  11.079   9.440  -0.575 -1.3841 -0.4779  0.0391
  712MOL0     N96002  10.947   9.483  -0.595 -0.2551  0.1537  1.5341
  712MOL0     C96003  10.885   9.600  -0.557 -0.7416 -0.1091  0.2579
  712MOL0     C96004  10.771   9.595  -0.630  1.0519  1.3121 -0.9858
  712MOL0     C96005  10.677   9.713  -0.656  0.2716  1.2890  0.3329
  712MOL0     C96006  10.624   9.786  -0.535 -0.2145  0.0577 -0.4684
  712MOL0     C96007  10.491   9.718  -0.508  0.1460  0.0579  0.4066
  712MOL0     C96008  10.364   9.803  -0.536  0.7896  1.0340  0.2660
  712MOL0     O96009  10.357   9.922  -0.455 -0.6735 -0.2962 -0.6538
  712MOL0     C96010  10.237   9.983  -0.426 -0.2478 -0.7349  0.2791
  712MOL0     C96011  10.133   9.982  -0.515  0.0542 -0.0479  0.3968
  712MOL0     C96012  10.003  10.042  -0.491 -0.4317 -0.0294 -0.6139
  712MOL0     C96013   9.894  10.000  -0.586  0.0451  0.0348  0.0132
  712MOL0     C96014   9.991  10.118  -0.368 -0.5126 -0.4241 -0.2850
  712MOL0     C96015   9.855  10.186  -0.329 -0.0841 -0.2752 -0.3606
  712MOL0     O96016   9.842  10.222  -0.199  0.3838  0.6339  0.3400
  712MOL0     C96017   9.713  10.270  -0.160 -0.5643  0.7421  0.1854
  712MOL0     C96018   9.596  10.194  -0.169  0.1858  0.2610  0.3316
  712MOL0     C96019   9.474  10.234  -0.114 -0.5876 -0.1933  1.1467
  712MOL0     C96020   9.466  10.347  -0.042 -0.2629 -0.0709  0.2074
  712MOL0     O96021   9.353  10.400   0.016 -0.1028 -0.4035 -0.3288
  712MOL0     C96022   9.258  10.306   0.065  0.1032  0.1104 -0.9366
  712MOL0     C96023   9.157  10.370   0.165  0.2633  0.0974  0.4650
  712MOL0     C96024   9.211  10.414   0.306  0.9346  0.5807 -0.4529
  712MOL0     C96025   9.107  10.486   0.399  0.2302 -0.1693  0.1554
  712MOL0     C96026   9.065  10.617   0.347  0.7238 -0.2874  0.4759
  712MOL0     C96027   8.982  10.691   0.454  0.0667  0.6028 -0.7751
  712MOL0     C96028   8.836  10.635   0.464  1.0158  0.3724  0.2777
  712MOL0     C96029   8.743  10.707   0.555 -0.1108  0.0043  0.3884
  712MOL0    Cl96030   8.814  10.694   0.725 -0.1947  0.4238 -0.3304
  712MOL0     C96031   9.575  10.429  -0.035  0.5701  0.0388  0.9328
  712MOL0     C96032   9.694  10.393  -0.101  0.3334  0.3914  0.3158
  712MOL0     O96033   9.769  10.195  -0.416 -0.6058  0.0857  0.8745
  712MOL0     C96034  10.098  10.131  -0.284 -0.7468  0.6458  0.4309
  712MOL0     C96035  10.223  10.063  -0.309  0.3622 -0.3766  0.8039
  712MOL0     N96036  10.759   9.479  -0.705  0.6164  0.4046 -0.4026
  712MOL0     N96037  10.868   9.411  -0.686 -0.2568 -1.5377 -0.1747
  712MOL0     C96038  10.424   9.172  -0.146 -0.0712 -0.3304 -0.0183
  712MOL0     C96039  10.293   9.128  -0.158  0.4259  0.0067 -0.2979
  712MOL0     C96040   9.833   9.127  -0.038  0.4363 -0.3371  0.3463
  712MOL0     C96041   9.813   9.059  -0.161 -0.1046  0.1271  0.3172
  712MOL0     C96042   9.684   9.039  -0.216  0.3930  0.1891  0.0100
  712MOL0     C96043   9.571   9.093  -0.144  0.8046  0.1682  1.4410
  712MOL0     O96044   9.435   9.066  -0.166 -0.2444  0.3385 -0.4929
  712MOL0     C96045   9.403   8.969  -0.266 -0.0218 -1.0948  0.9847
  712MOL0     C96046   9.255   8.936  -0.272  1.3384  0.0716  0.9355
  712MOL0     C96047   9.216   8.826  -0.387 -0.0432 -1.2376 -0.8496
  712MOL0     C96048   9.064   8.792  -0.399 -0.5339  0.3255 -0.3671
  712MOL0     C96049   9.005   8.733  -0.279 -0.6017 -0.6457  0.1697
  712MOL0     C96050   8.964   8.670  -0.188  0.2039 -0.1518  0.1243
  712MOL0     C96051   9.595   9.166  -0.026  0.2688 -0.0709 -0.6421
  712MOL0     C96052   9.730   9.184   0.026  0.2878 -0.3896  0.2319
  712MOL0     H96053  10.161   9.336   0.094  0.2980  1.8102 -1.2429
  712MOL0     H96054  10.389   9.428   0.088  0.1894  0.0287  1.0505
  712MOL0     H96055  10.617   9.474   0.051  1.5467  0.2522  1.3796
  712MOL0     H96056  10.607   9.324   0.147  3.1856  0.0950  1.8385
  712MOL0     H96057  10.829   9.413   0.136  1.7307  0.7194 -0.0768
  712MOL0     H96058  10.822   9.246   0.077 -0.0055  0.7548  0.9024
  712MOL0     H96059  10.825   9.319  -0.159  0.4075 -1.8455  0.3947
  712MOL0     H96060  10.853   9.484  -0.121  5.2663  1.2401  0.9975
  712MOL0     H96061  11.045   9.425   0.026 -1.1376  1.7154  0.1166
  712MOL0     H96062  11.030   9.266  -0.062 -2.6874  0.2995 -3.2569
  712MOL0     H96063  11.091   9.551  -0.173  0.9131  0.4357 -2.0410
  712MOL0     H96064  11.202   9.416  -0.167  0.1281 -0.4592 -0.3058
  712MOL0     H96065  11.080   9.285  -0.324 -2.4231  0.3158 -1.2888
  712MOL0     H96066  10.951   9.407  -0.327  0.2070  1.4428  0.8668
  712MOL0     H96067  11.121   9.579  -0.420 -0.1032 -0.3726  0.6784
  712MOL0     H96068  11.237   9.444  -0.439  1.0521  3.3122 -0.0846
  712MOL0     H96069  11.095   9.333  -0.589 -0.5974 -0.0340 -3.4306
  712MOL0     H96070  11.139   9.483  -0.656 -0.9106 -0.4191  0.4130
  712MOL0     H96071  10.920   9.685  -0.499  2.8684  0.2657 -2.1680
  712MOL0     H96072  10.747   9.779  -0.709 -0.9218  2.0914 -0.2938
  712MOL0     H96073  10.606   9.685  -0.735  1.5781 -0.6797 -0.2048
  712MOL0     H96074  10.605   9.892  -0.558  1.9268  1.6500  3.9271
  712MOL0     H96075  10.693   9.799  -0.451 -0.9200 -0.3318  0.1854
  712MOL0     H96076  10.495   9.682  -0.405  0.4746 -1.3034 -0.0628
  712MOL0     H96077  10.486   9.630  -0.573  2.9412  1.2841 -1.6497
  712MOL0     H96078  10.288   9.734  -0.498  2.1585  0.5558  2.2690
  712MOL0     H96079  10.355   9.825  -0.643 -0.1676 -3.4036 -0.7632
  712MOL0     H96080  10.143   9.922  -0.605 -0.4008  0.5106 -0.0255
  712MOL0     H96081   9.932   9.953  -0.677 -0.4852  1.0395 -0.7439
  712MOL0     H96082   9.825   9.930  -0.538  0.7822  1.5292  3.6193
  712MOL0     H96083   9.843  10.085  -0.631  1.8683  0.5938 -1.1082
  712MOL0     H96084   9.607  10.104  -0.228 -0.5539  1.1764 -1.2663
  712MOL0     H96085   9.382  10.180  -0.136  0.8783 -1.8447 -1.4722
  712MOL0     H96086   9.209  10.257  -0.020  0.2694  0.4135 -1.2088
  712MOL0     H96087   9.322  10.235   0.119 -2.2270 -0.1615  1.6699
  712MOL0     H96088   9.110  10.462   0.129  1.0731  0.8211  1.2335
  712MOL0     H96089   9.088  10.288   0.188  3.1510 -2.7296 -0.2473
  712MOL0     H96090   9.290  10.482   0.274  0.9500  1.5961  1.5572
  712MOL0     H96091   9.264  10.340   0.366  0.1965  0.7481  0.4266
  712MOL0     H96092   9.021  10.419   0.401 -0.2028  0.3042 -1.2259
  712MOL0     H96093   9.150  10.497   0.499 -0.9789 -0.0875  0.6852
  712MOL0     H96094   9.012  10.604   0.253 -1.4186 -2.3055  1.8431
  712MOL0     H96095   9.158  10.672   0.329  1.7737 -0.9069  3.4265
  712MOL0     H96096   9.039  10.679   0.547 -0.0747  1.5952 -0.5556
  712MOL0     H96097   8.975  10.794   0.419  0.6594  0.6206 -0.8510
  712MOL0     H96098   8.841  10.528   0.487 -2.9586 -0.3517 -1.3971
  712MOL0     H96099   8.794  10.636   0.362  0.1229  0.5254  0.6362
  712MOL0     H96100   8.639  10.673   0.563 -0.3883  1.0415  1.2547
  712MOL0     H96101   8.743  10.813   0.527 -0.6355 -0.2292 -0.5553
  712MOL0     H96102   9.560  10.532  -0.002 -1.9229  0.3377 -0.8023
  712MOL0     H96103   9.784  10.453  -0.089  1.1910 -0.9700  0.9100
  712MOL0     H96104  10.083  10.188  -0.193 -2.2108 -0.8273  1.1645
  712MOL0     H96105  10.305  10.072  -0.238 -0.2398 -1.4282  1.6696
  712MOL0     H96106  10.494   9.131  -0.219 -1.6323 -0.8406 -1.2890
  712MOL0     H96107  10.270   9.051  -0.230 -1.3964  0.0002  0.2558
  712MOL0     H96108   9.900   9.023  -0.215  2.7677  0.1776  4.4196
  712MOL0     H96109   9.671   8.977  -0.304 -1.0094 -0.0377  0.3574
  712MOL0     H96110   9.428   9.019  -0.360  2.6501 -2.0008  1.1079
  712MOL0     H96111   9.463   8.879  -0.249  0.9256 -0.5545  0.6046
  712MOL0     H96112   9.193   9.025  -0.286  0.3319 -0.6526  0.6351
  712MOL0     H96113   9.230   8.892  -0.174  1.3953 -0.1849  0.8343
  712MOL0     H96114   9.268   8.735  -0.354 -0.5840 -1.1040  0.4605
  712MOL0     H96115   9.259   8.871  -0.477  0.5011  3.2876  1.3748
  712MOL0     H96116   9.041   8.727  -0.484 -3.2119  0.8457 -0.1381
  712MOL0     H96117   9.009   8.887  -0.399  1.5833  1.6425 -1.2300
  712MOL0     H96118   8.919   8.635  -0.098 -2.4185 -0.4221 -1.2078
  712MOL0     H96119   9.512   9.216   0.023 -0.0969  0.4051 -1.7359
  712MOL0     H96120   9.733   9.246   0.114 -2.1601  1.8406 -1.0862
  713MOL0     O96121   3.265   0.434   1.109  0.6242  0.4674  0.7719
  713MOL0     C96122   3.273   0.313   1.063  0.7018  0.1618 -0.0221
  713MOL0     O96123   3.382   0.226   1.070 -0.3632 -0.3786  0.6264
  713MOL0     C96124   3.501   0.276   1.121  0.3758  0.2426 -0.1136
  713MOL0     C96125   3.599   0.326   1.038  0.4839  0.5994  0.6727
  713MOL0     C96126   3.716   0.369   1.082  0.0545  0.2562  0.3048
  713MOL0     C96127   3.736   0.399   1.216  0.5676  0.1195  0.9210
  713MOL0     O96128   3.855   0.455   1.254 -0.4431 -0.1554  0.5154
  713MOL0     C96129   3.928   0.395   1.356 -0.2423  0.2138 -0.8538
  713MOL0     C96130   3.949   0.248   1.314 -0.8010 -0.7552  0.6187
  713MOL0     C96131   4.048   0.233   1.190  0.3299 -0.4141 -0.5846
  713MOL0     C96132   4.135   0.105   1.190  0.3910  0.1419 -0.1312
  713MOL0     C96133   4.261   0.133   1.098  0.3346  0.3687  0.6026
  713MOL0     C96134   4.226   0.139   0.948 -0.3100 -0.5723  0.3499
  713MOL0     C96135   4.358   0.140   0.880 -0.6272  1.0346 -0.8964
  713MOL0     C96136   4.434   0.006   0.876 -0.0767  0.7007  0.4412
  713MOL0     N96137   4.569   0.033   0.832 -0.3882 -0.3264 -0.1539
  713MOL0     C96138   4.684  -0.006   0.885 -0.0966  0.0487  0.0836
  713MOL0     C96139   4.779   0.029   0.792  0.5867  0.2813  0.0462
  713MOL0     C96140   4.923  -0.010   0.820 -0.5798  0.7019 -0.3158
  713MOL0     C96141   4.986  -0.148   0.763  0.7868  0.2912 -0.2102
  713MOL0     C96142   4.973  -0.180   0.613  0.3467  1.0449 -1.0872
  713MOL0     C96143   5.034  -0.077   0.524 -0.9918  0.7021 -0.2088
  713MOL0     O96144   4.993  -0.111   0.394  0.2195  0.8419 -1.2672
  713MOL0     C96145   5.074  -0.199   0.321 -0.0293 -0.5601  0.5772
  713MOL0     C96146   5.205  -0.184   0.308 -0.0178  0.8478  0.3646
  713MOL0     C96147   5.289  -0.249   0.212 -0.2178 -0.4375 -0.2849
  713MOL0     C96148   5.422  -0.183   0.184  0.5296 -0.5450  0.4455
  713MOL0     C96149   5.226  -0.361   0.140  0.5371 -0.2590 -0.4880
  713MOL0     C96150   5.299  -0.449   0.051 -0.4022 -0.7720 -0.0787
  713MOL0     O96151   5.233  -0.534  -0.026  0.4958 -0.3174  0.3930
  713MOL0     C96152   5.309  -0.643  -0.074 -0.4651  0.5781  0.4290
  713MOL0     C96153   5.339  -0.748   0.017  0.0679 -0.6914  0.5584
  713MOL0     C96154   5.430  -0.846  -0.024  0.2483  0.7512 -0.3828
  713MOL0     C96155   5.479  -0.847  -0.159  1.0728  0.4134 -0.7101
  713MOL0     O96156   5.555  -0.957  -0.197 -0.4954 -0.1201 -0.5116
  713MOL0     C96157   5.493  -1.054  -0.283  0.8062  0.0912 -0.2325
  713MOL0     C96158   5.579  -1.174  -0.332 -1.4535 -0.3936 -0.3649
  713MOL0     C96159   5.511  -1.252  -0.454  0.1966  0.6240 -0.1023
  713MOL0     C96160   5.375  -1.303  -0.426  0.4162  0.5807 -0.9752
  713MOL0     C96161   5.303  -1.334  -0.557 -0.9500 -0.5371 -1.3535
  713MOL0     C96162   5.156  -1.291  -0.549  0.7037  0.2298 -0.3430
  713MOL0     C96163   5.075  -1.386  -0.638  0.1145  0.6813  0.2815
  713MOL0     C96164   5.118  -1.374  -0.788  0.4673  0.2942  0.6172
  713MOL0    Cl96165   4.994  -1.452  -0.884 -0.0695  0.1609 -0.2806
  713MOL0     C96166   5.437  -0.749  -0.241 -0.2966 -0.7183  0.0657
  713MOL0     C96167   5.356  -0.645  -0.205  0.6306  0.3703 -0.8456
  713MOL0     O96168   5.423  -0.445   0.063  0.1251 -0.5518  0.3520
  713MOL0     C96169   5.092  -0.384   0.169 -0.8399  1.3880 -0.2161
  713MOL0     C96170   5.020  -0.313   0.261  0.2368  0.5859 -0.0205
  713MOL0     N96171   4.715   0.091   0.687 -0.9439  0.0910  0.1744
  713MOL0     N96172   4.587   0.084   0.710 -0.0090 -0.7170  0.2213
  713MOL0     C96173   3.634   0.350   1.306 -1.2301  0.0389  0.1814
  713MOL0     C96174   3.513   0.297   1.257  0.0167 -0.0029  1.1797
  713MOL0     C96175   3.157   0.265   0.985 -0.9924 -0.1571  0.1011
  713MOL0     C96176   3.068   0.354   0.918  0.2520 -1.0323 -0.4116
  713MOL0     C96177   2.961   0.315   0.851  0.0600 -0.4206  0.0535
  713MOL0     C96178   2.920   0.183   0.845 -0.5294 -0.6031  0.2970
  713MOL0     O96179   2.809   0.137   0.776  0.0052 -0.1266 -0.1904
  713MOL0     C96180   2.773   0.212   0.654  0.6912 -0.3028  0.7567
  713MOL0     C96181   2.883   0.222   0.548  0.5368 -0.3155 -0.9008
  713MOL0     C96182   2.950   0.084   0.513 -0.8013  0.4538 -0.0616
  713MOL0     C96183   2.859  -0.014   0.443  0.8526 -0.3771 -0.2269
  713MOL0     C96184   2.828   0.023   0.300  1.3291  1.2390 -0.7656
  713MOL0     C96185   2.790   0.053   0.194  0.6202  0.7779 -0.1497
  713MOL0     C96186   3.007   0.091   0.907  0.3279  0.4911 -0.1999
  713MOL0     C96187   3.120   0.128   0.976  0.8105  0.2920 -0.2636
  713MOL0     H96188   3.582   0.309   0.932  0.1658  0.4594  0.7455
  713MOL0     H96189   3.798   0.381   1.013  2.1349 -2.3583  2.1292
  713MOL0     H96190   4.019   0.450   1.379 -1.1969  0.9239  1.4718
  713MOL0     H96191   3.875   0.403   1.451  1.2213  1.5074 -0.1106
  713MOL0     H96192   3.982   0.188   1.399 -0.9094  0.5680  1.6368
  713MOL0     H96193   3.860   0.194   1.281 -0.8249  0.1943 -0.9542
  713MOL0     H96194   3.978   0.238   1.106 -3.6317  2.7529  2.4329
  713MOL0     H96195   4.118   0.317   1.184  1.0442 -0.6123  2.8066
  713MOL0     H96196   4.170   0.096   1.294  0.5855  2.3130  0.0440
  713MOL0     H96197   4.086   0.014   1.154  0.6310  0.2087 -0.6244
  713MOL0     H96198   4.317   0.222   1.126  0.2246  0.4474  0.5703
  713MOL0     H96199   4.330   0.051   1.122  4.4212  4.0817  3.0538
  713MOL0     H96200   4.167   0.053   0.914 -1.7959 -0.2088  1.8590
  713MOL0     H96201   4.166   0.228   0.926 -3.2718 -1.7073  3.0896
  713MOL0     H96202   4.332   0.165   0.777 -1.3309  1.0389 -0.7190
  713MOL0     H96203   4.420   0.217   0.927  1.3147 -1.4201  0.8199
  713MOL0     H96204   4.393  -0.065   0.803  1.5586  0.0597  0.1178
  713MOL0     H96205   4.436  -0.042   0.974  1.9626  0.0847  0.1512
  713MOL0     H96206   4.718  -0.067   0.968  2.9184 -0.5844 -1.4427
  713MOL0     H96207   5.000   0.062   0.792  0.8961 -0.4237  0.7230
  713MOL0     H96208   4.928  -0.014   0.929  0.7860  1.5922 -0.3286
  713MOL0     H96209   4.927  -0.225   0.814  1.6607 -0.8260 -0.8537
  713MOL0     H96210   5.092  -0.146   0.789  1.1793  2.3793 -1.8014
  713MOL0     H96211   4.867  -0.194   0.588  0.7119  1.1578 -2.8001
  713MOL0     H96212   5.023  -0.276   0.600  0.6863  0.8372  1.2415
  713MOL0     H96213   5.140  -0.052   0.536 -1.5256  1.9265  2.9686
  713MOL0     H96214   4.978   0.014   0.548  1.2208  3.1812 -3.5580
  713MOL0     H96215   5.254  -0.094   0.345 -1.5483  1.8847 -0.0240
  713MOL0     H96216   5.505  -0.227   0.240 -0.7686 -0.2520  2.7151
  713MOL0     H96217   5.442  -0.189   0.076 -0.8776  1.1980  0.0354
  713MOL0     H96218   5.414  -0.076   0.205 -1.1796 -0.4718 -0.3824
  713MOL0     H96219   5.303  -0.736   0.119  1.3552  3.6613  0.7215
  713MOL0     H96220   5.463  -0.916   0.053 -0.1238  0.4006 -0.5382
  713MOL0     H96221   5.409  -1.095  -0.227  0.4941  1.0890  0.0672
  713MOL0     H96222   5.468  -0.998  -0.374  1.4510 -0.6296 -0.8643
  713MOL0     H96223   5.665  -1.124  -0.378 -0.1853 -2.1121  0.0596
  713MOL0     H96224   5.633  -1.226  -0.252  2.1733  1.7699 -1.1536
  713MOL0     H96225   5.572  -1.337  -0.483  1.1194  0.2341  2.6792
  713MOL0     H96226   5.506  -1.197  -0.549 -1.5240 -1.5491 -1.3566
  713MOL0     H96227   5.379  -1.389  -0.359  3.6182  0.6040 -0.9960
  713MOL0     H96228   5.315  -1.228  -0.374 -1.2642 -1.3870  0.0599
  713MOL0     H96229   5.295  -1.442  -0.544 -2.4111 -0.2557  0.6927
  713MOL0     H96230   5.357  -1.304  -0.647  4.9785 -1.6937  1.2948
  713MOL0     H96231   5.128  -1.304  -0.444  1.1904  0.4726 -0.1814
  713MOL0     H96232   5.133  -1.188  -0.579 -0.8507  0.4093  1.2990
  713MOL0     H96233   4.970  -1.358  -0.633 -0.0876  1.7896 -4.8241
  713MOL0     H96234   5.096  -1.490  -0.611 -1.7394  0.9528  3.2197
  713MOL0     H96235   5.212  -1.424  -0.814 -0.1055 -0.6539  0.3156
  713MOL0     H96236   5.130  -1.266  -0.803 -1.6446  1.0501  3.4760
  713MOL0     H96237   5.472  -0.738  -0.343 -0.2496 -1.1702  0.0291
  713MOL0     H96238   5.334  -0.564  -0.273  1.1870  2.9084  1.8358
  713MOL0     H96239   5.051  -0.472   0.121  1.5976  0.1997 -0.2568
  713MOL0     H96240   4.924  -0.343   0.303 -1.5975  2.8883 -2.2785
  713MOL0     H96241   3.642   0.360   1.414 -0.6140 -0.4438  0.1815
  713MOL0     H96242   3.422   0.281   1.314 -0.5215  1.9478  0.9627
  713MOL0     H96243   3.090   0.460   0.916 -0.1714 -0.9406 -0.3713
  713MOL0     H96244   2.901   0.395   0.808  0.1612  2.1779  4.2321
  713MOL0     H96245   2.694   0.149   0.611  0.0401  0.6657  0.5053
  713MOL0     H96246   2.724   0.304   0.689 -4.9928 -1.9617 -1.6879
  713MOL0     H96247   2.969   0.282   0.578  0.9328 -1.2223 -0.1836
  713MOL0     H96248   2.845   0.263   0.454 -1.8111  1.1236  0.5787
  713MOL0     H96249   2.993   0.035   0.600 -0.9618 -0.2735 -0.3797
  713MOL0     H96250   3.042   0.108   0.459  0.4664 -0.3918  1.6504
  713MOL0     H96251   2.765  -0.026   0.498 -1.5871  0.4983 -3.8721
  713MOL0     H96252   2.908  -0.112   0.438 -1.8157 -1.8279  0.4860
  713MOL0     H96253   2.754   0.078   0.096  2.4198  4.1823 -0.0631
  713MOL0     H96254   2.985  -0.014   0.898  0.7000  0.5438 -2.5143
  713MOL0     H96255   3.186   0.053   1.019 -1.0643 -2.0177 -1.1546
  714MOL0     O96256  11.381   2.409   4.327 -0.0184  0.0105  0.4033
  714MOL0     C96257  11.341   2.334   4.239  0.8429  0.1329  0.0569
  714MOL0     O96258  11.290   2.369   4.124  0.8436 -1.1549 -0.2506
  714MOL0     C96259  11.270   2.501   4.086  0.0468  0.1330  0.1700
  714MOL0     C96260  11.144   2.546   4.065  0.1912 -0.5807 -0.2921
  714MOL0     C96261  11.129   2.679   4.028 -0.2237 -0.1097 -0.3432
  714MOL0     C96262  11.242   2.775   4.018 -0.5077  0.4745 -0.6452
  714MOL0     O96263  11.226   2.900   3.956  0.9747 -0.5274 -0.0183
  714MOL0     C96264  11.112   2.983   3.994 -0.2464  0.4807  1.0045
  714MOL0     C96265  11.115   3.033   4.137 -0.6847 -0.3854  0.0843
  714MOL0     C96266  11.076   3.177   4.151 -0.2142 -0.1820  0.3309
  714MOL0     C96267  11.022   3.206   4.291  0.0691 -0.6875  0.0067
  714MOL0     C96268  11.012   3.352   4.331 -0.0365 -0.9206 -0.8143
  714MOL0     C96269  10.949   3.373   4.476 -0.5222  0.6691 -0.0364
  714MOL0     C96270  10.913   3.521   4.502  0.4742 -0.4310 -0.3016
  714MOL0     C96271  10.866   3.548   4.639  0.2014  0.1593  0.1828
  714MOL0     N96272  10.854   3.693   4.657  0.5997  0.1278 -0.8026
  714MOL0     C96273  10.953   3.780   4.694  0.0913  0.5828  0.0562
  714MOL0     C96274  10.888   3.897   4.725  0.4206 -0.4856 -0.1653
  714MOL0     C96275  10.970   4.025   4.781 -0.7195  0.5278  0.2409
  714MOL0     C96276  10.915   4.042   4.921 -0.4802 -0.1226 -1.1986
  714MOL0     C96277  10.919   4.177   4.986  0.1129 -0.2929  0.7407
  714MOL0     C96278  11.061   4.215   5.049  0.2158  0.0886  0.7241
  714MOL0     O96279  11.042   4.339   5.118  0.2385 -0.5313  0.1705
  714MOL0     C96280  11.152   4.418   5.143  0.3073 -0.2407 -0.5396
  714MOL0     C96281  11.126   4.514   5.241  0.0749 -0.1717 -0.5574
  714MOL0     C96282  11.230   4.607   5.273 -0.8584  0.1072  0.0909
  714MOL0     C96283  11.203   4.714   5.379 -0.9063 -0.0071  0.9142
  714MOL0     C96284  11.366   4.595   5.222  0.1862  0.9188 -0.9266
  714MOL0     C96285  11.480   4.687   5.251  0.7630 -0.5172 -0.7939
  714MOL0     O96286  11.579   4.706   5.152  0.3180  0.4630 -0.3205
  714MOL0     C96287  11.673   4.796   5.181 -0.0248 -0.0452  0.5403
  714MOL0     C96288  11.653   4.933   5.168 -0.5027  0.3953  0.4828
  714MOL0     C96289  11.758   5.017   5.187 -0.1929  0.1905 -0.6830
  714MOL0     C96290  11.887   4.972   5.213 -0.0529  0.1078  0.0037
  714MOL0     O96291  11.986   5.069   5.226  0.5230  0.3148  0.7690
  714MOL0     C96292  11.989   5.123   5.356  0.3158 -0.3426 -0.9453
  714MOL0     C96293  12.129   5.183   5.371  0.8239 -0.0627  0.7739
  714MOL0     C96294  12.228   5.060   5.378  0.4780 -0.6295  0.3254
  714MOL0     C96295  12.361   5.133   5.387  0.6325  0.6066  0.9742
  714MOL0     C96296  12.426   5.138   5.247 -0.0672 -0.1945 -0.4096
  714MOL0     C96297  12.583   5.152   5.248  0.0616 -0.1502  0.6814
  714MOL0     C96298  12.634   5.249   5.142  0.2530  0.3227  0.2972
  714MOL0     C96299  12.595   5.193   5.005 -0.1109 -0.5984 -0.0717
  714MOL0    Cl96300  12.678   5.308   4.891  0.1558  0.2309 -0.1915
  714MOL0     C96301  11.921   4.837   5.228 -0.3111 -0.7536  0.5631
  714MOL0     C96302  11.811   4.752   5.214  0.2774 -0.0930  0.1475
  714MOL0     O96303  11.488   4.744   5.359  0.0398 -0.0392  0.3878
  714MOL0     C96304  11.386   4.493   5.126  0.4321 -0.7557  0.4996
  714MOL0     C96305  11.282   4.407   5.087  0.5173  0.0639  0.1015
  714MOL0     N96306  10.756   3.887   4.697  0.5771 -0.2724 -0.1889
  714MOL0     N96307  10.735   3.765   4.660  0.1916  0.3083 -0.0367
  714MOL0     C96308  11.368   2.725   4.048 -0.3941  0.0907  0.4895
  714MOL0     C96309  11.379   2.590   4.082  0.3095 -0.2093  0.6125
  714MOL0     C96310  11.350   2.179   4.276 -0.4699  0.2404  1.5128
  714MOL0     C96311  11.396   2.130   4.395  0.2213 -0.3577 -0.1608
  714MOL0     C96312  11.386   1.991   4.425 -0.4637  0.5751  0.3477
  714MOL0     C96313  11.323   1.905   4.341 -0.1519  0.7537 -0.9438
  714MOL0     O96314  11.289   1.770   4.375  0.5321  0.4725  0.1265
  714MOL0     C96315  11.291   1.736   4.514 -0.5562  0.1296 -0.2472
  714MOL0     C96316  11.176   1.635   4.546  0.0176  0.3563 -0.9992
  714MOL0     C96317  11.190   1.515   4.459  0.4750  0.1639  0.3654
  714MOL0     C96318  11.063   1.431   4.454 -0.5029 -0.0780  0.3959
  714MOL0     C96319  11.074   1.305   4.379 -0.1563  0.3406  0.1131
  714MOL0     C96320  11.068   1.209   4.305 -0.2089  1.0920 -0.9981
  714MOL0     C96321  11.280   1.952   4.212 -0.3183  0.4686 -0.0263
  714MOL0     C96322  11.291   2.089   4.183  0.3114  0.5710  0.2444
  714MOL0     H96323  11.070   2.467   4.054  1.3628 -1.3702 -3.4501
  714MOL0     H96324  11.037   2.721   3.989  1.0060  1.5115 -1.6619
  714MOL0     H96325  11.094   3.061   3.920 -2.0309 -1.5396 -0.8389
  714MOL0     H96326  11.023   2.919   3.993  2.1963 -3.1440  0.5045
  714MOL0     H96327  11.060   2.956   4.193  0.1805 -0.9375  0.1965
  714MOL0     H96328  11.219   3.032   4.170 -1.4591  0.2448  2.8680
  714MOL0     H96329  11.164   3.240   4.133 -1.6623  1.0224 -3.5654
  714MOL0     H96330  11.003   3.201   4.073  1.2353 -2.5784 -1.9376
  714MOL0     H96331  10.925   3.157   4.305 -0.6374  1.2885  2.7604
  714MOL0     H96332  11.093   3.153   4.356  3.1453  1.7385 -1.1165
  714MOL0     H96333  11.112   3.397   4.329 -1.2547  2.2017  1.5109
  714MOL0     H96334  10.943   3.393   4.258 -2.4155  0.4916  2.0354
  714MOL0     H96335  10.856   3.317   4.489 -0.1234  0.2915  1.3720
  714MOL0     H96336  11.028   3.344   4.546  2.6681  1.4229 -3.0462
  714MOL0     H96337  10.994   3.584   4.463 -0.4242  1.8735  1.3796
  714MOL0     H96338  10.825   3.546   4.442  0.4317 -0.5305 -0.2806
  714MOL0     H96339  10.940   3.510   4.710  0.0505 -2.9037 -1.1537
  714MOL0     H96340  10.775   3.490   4.654 -1.9380  2.1362 -3.5377
  714MOL0     H96341  11.060   3.765   4.686 -0.1009 -0.6032 -0.5591
  714MOL0     H96342  11.079   4.016   4.780 -0.4996  2.1228  2.8166
  714MOL0     H96343  10.949   4.112   4.718  1.9883 -0.0528 -1.6702
  714MOL0     H96344  10.965   3.970   4.986  0.2062  0.8102 -0.6767
  714MOL0     H96345  10.811   4.009   4.927  0.1224 -2.1386 -0.9774
  714MOL0     H96346  10.837   4.189   5.057 -0.4310 -0.9934  0.2474
  714MOL0     H96347  10.897   4.258   4.916  1.9798 -0.7993 -0.4917
  714MOL0     H96348  11.135   4.209   4.969 -0.9416  1.8128 -0.5557
  714MOL0     H96349  11.094   4.150   5.131  1.0021  1.9144  1.9095
  714MOL0     H96350  11.035   4.523   5.300  0.0794 -0.6249 -0.4824
  714MOL0     H96351  11.273   4.691   5.460  1.3591 -0.6895 -1.1150
  714MOL0     H96352  11.209   4.815   5.337 -0.1656 -1.2186 -2.1451
  714MOL0     H96353  11.097   4.707   5.405 -0.5390 -0.9520  2.2549
  714MOL0     H96354  11.550   4.967   5.166 -2.5750 -4.7203 -3.7227
  714MOL0     H96355  11.748   5.125   5.184  2.3191  0.4788 -1.4849
  714MOL0     H96356  11.916   5.200   5.382 -0.2340 -1.1440 -0.0751
  714MOL0     H96357  11.965   5.046   5.430 -2.6913  0.0202 -1.3904
  714MOL0     H96358  12.150   5.251   5.288 -0.0740  2.1458  2.2540
  714MOL0     H96359  12.125   5.245   5.461 -6.4816 -0.3313  1.2517
  714MOL0     H96360  12.226   4.990   5.294 -1.7293 -2.1480  1.5318
  714MOL0     H96361  12.208   4.992   5.462 -0.5071 -1.7083 -0.7375
  714MOL0     H96362  12.354   5.238   5.414  0.6038  0.9877 -0.4633
  714MOL0     H96363  12.436   5.076   5.443  1.7764  0.0838 -0.9887
  714MOL0     H96364  12.386   5.229   5.202  0.5431 -0.0518 -0.6678
  714MOL0     H96365  12.392   5.051   5.188 -0.4835  0.8393 -1.7433
  714MOL0     H96366  12.598   5.201   5.345  0.9573 -3.3282  2.2900
  714MOL0     H96367  12.623   5.050   5.246  1.4271  0.3899 -1.2819
  714MOL0     H96368  12.742   5.256   5.157  0.6976 -3.5944  0.0040
  714MOL0     H96369  12.587   5.344   5.170  1.8363  0.9185  1.0787
  714MOL0     H96370  12.489   5.193   4.978 -0.0732  0.7312 -0.2798
  714MOL0     H96371  12.643   5.095   4.997  1.4582  0.1061  0.3646
  714MOL0     H96372  12.023   4.801   5.236 -0.0541 -0.1260  0.1392
  714MOL0     H96373  11.809   4.643   5.216 -2.9255 -0.1466 -0.5150
  714MOL0     H96374  11.479   4.486   5.072  0.6682 -1.0375  0.9327
  714MOL0     H96375  11.304   4.326   5.018  1.0518  1.6023 -1.6077
  714MOL0     H96376  11.454   2.791   4.044 -0.3313 -0.0572 -0.8581
  714MOL0     H96377  11.479   2.561   4.113  1.4744  1.8412 -1.0252
  714MOL0     H96378  11.439   2.197   4.468  2.9296  1.9657 -3.5230
  714MOL0     H96379  11.425   1.947   4.516 -2.4791 -0.2590  0.8629
  714MOL0     H96380  11.384   1.687   4.543  1.2761  3.2516 -0.3842
  714MOL0     H96381  11.277   1.824   4.578 -4.3908 -0.8968  0.5427
  714MOL0     H96382  11.076   1.678   4.535 -2.0401 -2.7421  3.1243
  714MOL0     H96383  11.191   1.601   4.649  0.8481  0.6833 -1.0056
  714MOL0     H96384  11.269   1.452   4.500  0.0550  0.6356  1.9609
  714MOL0     H96385  11.222   1.518   4.354  0.1425 -2.5705  0.0988
  714MOL0     H96386  10.982   1.494   4.417 -1.0330 -0.8184  0.2543
  714MOL0     H96387  11.035   1.401   4.556  0.1914  1.0359  0.9252
  714MOL0     H96388  11.059   1.111   4.262  0.5659 -1.0526  3.2134
  714MOL0     H96389  11.228   1.889   4.141  1.1896  1.2118 -1.8425
  714MOL0     H96390  11.246   2.133   4.095  2.9414  1.4373 -0.7687
  715MOL0     O96391   7.498   0.397   7.353  0.2359 -0.1900 -0.0252
  715MOL0     C96392   7.377   0.384   7.374 -0.3847 -0.2553  0.5637
  715MOL0     O96393   7.281   0.396   7.275  0.2378 -0.5162  0.7073
  715MOL0     C96394   7.287   0.477   7.153  1.6078 -0.0415  0.4047
  715MOL0     C96395   7.401   0.503   7.081 -0.1897 -0.3769  0.4304
  715MOL0     C96396   7.401   0.579   6.956  0.5302 -0.7500  0.3752
  715MOL0     C96397   7.279   0.625   6.910 -0.3220  0.0399 -0.4610
  715MOL0     O96398   7.275   0.702   6.798 -0.5266  0.5220  0.1563
  715MOL0     C96399   7.375   0.697   6.694  0.0345 -0.5277 -0.2314
  715MOL0     C96400   7.298   0.717   6.567 -0.5851 -0.0236 -0.9100
  715MOL0     C96401   7.404   0.746   6.462 -0.2747  0.1482  1.3532
  715MOL0     C96402   7.403   0.894   6.435 -0.2816  0.3415 -0.0716
  715MOL0     C96403   7.489   0.909   6.318 -0.0946 -0.5836  0.3291
  715MOL0     C96404   7.509   1.064   6.302  0.7953  0.1755 -0.1862
  715MOL0     C96405   7.515   1.092   6.152  0.0254  0.3278 -0.1229
  715MOL0     C96406   7.634   1.039   6.076  0.1979  0.4460  0.1525
  715MOL0     N96407   7.634   1.091   5.941  0.1636 -0.5045  0.0898
  715MOL0     C96408   7.542   1.081   5.843 -0.1212  0.3435  0.0226
  715MOL0     C96409   7.585   1.130   5.731 -0.2434 -0.4751  0.1219
  715MOL0     C96410   7.505   1.136   5.607 -0.0531 -0.6430 -1.0209
  715MOL0     C96411   7.588   1.095   5.480  1.1001 -0.4565  0.3281
  715MOL0     C96412   7.597   0.946   5.451  0.6597  0.3958 -0.8858
  715MOL0     C96413   7.691   0.897   5.340 -0.2771  0.6463  1.1038
  715MOL0     O96414   7.829   0.924   5.380  0.1884 -0.2872  0.1322
  715MOL0     C96415   7.886   0.812   5.442 -0.3192  0.8689 -0.5305
  715MOL0     C96416   7.872   0.801   5.574  0.5366 -0.4163  0.2513
  715MOL0     C96417   7.939   0.707   5.649  0.3473 -0.8716  0.3457
  715MOL0     C96418   7.951   0.725   5.793  0.0454  0.0834  0.2018
  715MOL0     C96419   7.991   0.594   5.574 -1.2261  0.1393 -0.2440
  715MOL0     C96420   8.061   0.468   5.651 -0.6828 -0.4409  0.3814
  715MOL0     O96421   8.117   0.390   5.566  0.0720  0.8246  0.2031
  715MOL0     C96422   8.188   0.276   5.599 -0.7478  0.2940 -0.6561
  715MOL0     C96423   8.173   0.164   5.523  0.0981  0.3910 -0.1521
  715MOL0     C96424   8.261   0.056   5.549  0.4851  0.1362  0.3709
  715MOL0     C96425   8.350   0.049   5.659  0.1556 -0.5175  0.3170
  715MOL0     O96426   8.417  -0.066   5.696  0.5763  0.3408 -0.3601
  715MOL0     C96427   8.423  -0.184   5.614  0.3917  0.2271 -1.2877
  715MOL0     C96428   8.464  -0.310   5.697  0.7774 -0.3493  0.3132
  715MOL0     C96429   8.462  -0.435   5.597 -0.5729 -0.0722 -0.5797
  715MOL0     C96430   8.484  -0.567   5.663 -0.0620 -0.3120  0.7201
  715MOL0     C96431   8.512  -0.687   5.565  0.2703 -0.5223 -0.2555
  715MOL0     C96432   8.561  -0.811   5.638  0.5042 -0.6149 -1.2409
  715MOL0     C96433   8.575  -0.935   5.553 -1.0487 -0.6557  0.2416
  715MOL0     C96434   8.703  -1.010   5.574  0.1528 -0.1963 -0.3175
  715MOL0    Cl96435   8.835  -0.900   5.524  0.3958 -0.0060 -0.0221
  715MOL0     C96436   8.365   0.168   5.729  0.5385  0.1555  0.4747
  715MOL0     C96437   8.285   0.283   5.701 -0.2293 -0.4968 -0.4591
  715MOL0     O96438   8.064   0.452   5.774  0.2581 -0.1044  0.4799
  715MOL0     C96439   7.992   0.595   5.436  0.5968 -0.1454  0.1961
  715MOL0     C96440   7.946   0.709   5.369 -0.6878  0.0716  0.5762
  715MOL0     N96441   7.726   1.166   5.755  0.7804 -0.0411 -0.0922
  715MOL0     N96442   7.749   1.129   5.878 -0.5571  0.5593 -0.4059
  715MOL0     C96443   7.158   0.604   6.979 -0.4355 -1.0742 -0.2590
  715MOL0     C96444   7.161   0.531   7.102 -0.9914  0.2051  0.9360
  715MOL0     C96445   7.324   0.319   7.495 -0.3127  0.2358  0.3583
  715MOL0     C96446   7.414   0.292   7.604  0.0147 -0.2342  0.2201
  715MOL0     C96447   7.365   0.238   7.727  0.2615  0.1401 -0.1249
  715MOL0     C96448   7.236   0.195   7.752  0.6635  0.8202 -0.2704
  715MOL0     O96449   7.214   0.131   7.869 -0.6660  0.5475  0.0982
  715MOL0     C96450   7.094   0.063   7.899 -0.3923  0.4874 -0.1240
  715MOL0     C96451   7.092  -0.027   8.024  0.0014 -0.1586 -0.0782
  715MOL0     C96452   7.204  -0.129   8.024 -0.1160  0.5057 -0.3193
  715MOL0     C96453   7.153  -0.256   8.092 -0.6178  0.0177  0.9289
  715MOL0     C96454   7.273  -0.340   8.126  0.6554 -0.4844 -0.2625
  715MOL0     C96455   7.368  -0.411   8.166 -0.5469 -0.1857  0.2445
  715MOL0     C96456   7.146   0.223   7.650  0.8016 -0.7868  1.3018
  715MOL0     C96457   7.189   0.281   7.527 -0.9042  0.0859 -0.9305
  715MOL0     H96458   7.494   0.463   7.122  0.6913  0.9767 -0.1803
  715MOL0     H96459   7.487   0.606   6.897 -3.7764  2.4757 -5.5458
  715MOL0     H96460   7.443   0.782   6.707 -0.2467 -0.0792 -1.4965
  715MOL0     H96461   7.434   0.606   6.691  1.2820  0.2747 -1.4910
  715MOL0     H96462   7.244   0.627   6.537 -3.3575  1.7955 -1.7509
  715MOL0     H96463   7.223   0.795   6.581  1.5758  1.9141  0.8179
  715MOL0     H96464   7.508   0.728   6.491  0.4608 -0.1410 -1.2353
  715MOL0     H96465   7.382   0.686   6.373  0.1854 -0.0021  1.3408
  715MOL0     H96466   7.299   0.925   6.417  0.2724  0.8032 -3.0684
  715MOL0     H96467   7.440   0.944   6.525 -0.6158  0.4355  0.0137
  715MOL0     H96468   7.580   0.851   6.333  0.2978  0.2653  1.3951
  715MOL0     H96469   7.440   0.868   6.229  1.6322  0.8050 -1.3651
  715MOL0     H96470   7.434   1.125   6.354 -0.5032 -2.7628  1.6942
  715MOL0     H96471   7.608   1.092   6.341  0.4191  0.1016  0.8678
  715MOL0     H96472   7.425   1.056   6.100 -1.2221  0.4004  1.9102
  715MOL0     H96473   7.514   1.201   6.140  0.6327  0.3196 -0.3271
  715MOL0     H96474   7.628   0.930   6.065 -1.3200  0.1399  3.0902
  715MOL0     H96475   7.727   1.056   6.132  0.7309 -1.7216  0.0198
  715MOL0     H96476   7.449   1.027   5.860 -0.1021  0.6099  1.0602
  715MOL0     H96477   7.416   1.072   5.615  1.0512 -2.3231 -1.5702
  715MOL0     H96478   7.477   1.241   5.592  1.8390  0.0912  0.2368
  715MOL0     H96479   7.679   1.154   5.493 -0.0559  0.9327  2.9229
  715MOL0     H96480   7.536   1.131   5.391  1.5293 -0.1873  0.1830
  715MOL0     H96481   7.493   0.912   5.438  0.6590 -1.6148  2.9909
  715MOL0     H96482   7.608   0.886   5.541 -0.9456 -1.3881 -1.8040
  715MOL0     H96483   7.675   0.946   5.243 -0.5621  1.2752  1.4565
  715MOL0     H96484   7.667   0.792   5.327  0.5349  0.3436  1.9755
  715MOL0     H96485   7.828   0.885   5.628  2.9750  1.6900 -0.8625
  715MOL0     H96486   7.883   0.654   5.841  3.9049 -2.9161  1.7907
  715MOL0     H96487   8.052   0.711   5.832 -0.3245 -2.0261  0.5227
  715MOL0     H96488   7.924   0.828   5.817  1.1993  0.5176 -0.2692
  715MOL0     H96489   8.088   0.164   5.456  0.2754 -0.4607 -0.3984
  715MOL0     H96490   8.240  -0.031   5.488 -0.8880 -0.1161  1.1555
  715MOL0     H96491   8.322  -0.194   5.573 -1.0603 -3.6129  2.4696
  715MOL0     H96492   8.497  -0.176   5.534  1.1147  0.2651 -0.6298
  715MOL0     H96493   8.569  -0.310   5.729  2.1876 -2.1477 -3.5996
  715MOL0     H96494   8.406  -0.335   5.785 -2.2318 -0.4270 -1.5567
  715MOL0     H96495   8.534  -0.412   5.519 -1.7330  0.2396 -1.5905
  715MOL0     H96496   8.369  -0.440   5.539 -1.0190 -2.4165  0.2174
  715MOL0     H96497   8.581  -0.564   5.715  0.4920  3.6086 -0.2246
  715MOL0     H96498   8.395  -0.590   5.722 -1.8826 -0.6344 -1.9921
  715MOL0     H96499   8.597  -0.653   5.505  0.4066  2.3598  1.3548
  715MOL0     H96500   8.426  -0.728   5.511 -0.6696 -1.9243  2.1185
  715MOL0     H96501   8.646  -0.773   5.694  0.1201 -0.2350 -0.9088
  715MOL0     H96502   8.488  -0.830   5.717  3.5986  0.6902  2.2193
  715MOL0     H96503   8.573  -0.903   5.448 -1.0942 -1.3827  0.0128
  715MOL0     H96504   8.493  -1.005   5.575 -2.0388 -0.7903 -3.2029
  715MOL0     H96505   8.705  -1.099   5.510 -1.9814 -2.0271  1.9491
  715MOL0     H96506   8.705  -1.043   5.678  0.3739 -1.6139 -0.7473
  715MOL0     H96507   8.446   0.157   5.801  1.6895 -0.7845 -0.9117
  715MOL0     H96508   8.307   0.384   5.735  1.2132 -1.4641  1.6517
  715MOL0     H96509   8.029   0.505   5.388  0.3879  0.4425 -1.1136
  715MOL0     H96510   7.937   0.704   5.261 -0.2444 -1.6053  0.5928
  715MOL0     H96511   7.071   0.663   6.955  0.4278 -1.0622 -3.9452
  715MOL0     H96512   7.065   0.508   7.146 -1.1699 -1.4770 -0.2733
  715MOL0     H96513   7.518   0.319   7.594  0.1284 -1.1302 -1.2677
  715MOL0     H96514   7.441   0.228   7.804  0.4034 -0.1441 -0.3004
  715MOL0     H96515   7.015   0.138   7.907 -1.3583 -0.3979 -0.9541
  715MOL0     H96516   7.073  -0.003   7.814  0.9142 -0.0997 -0.0140
  715MOL0     H96517   6.996  -0.080   8.023 -0.8129  1.2736 -0.9957
  715MOL0     H96518   7.109   0.038   8.110  1.9874 -1.7665  0.8435
  715MOL0     H96519   7.286  -0.092   8.085 -2.4040  1.9383  2.1177
  715MOL0     H96520   7.235  -0.151   7.922 -0.8784 -3.5907  0.1586
  715MOL0     H96521   7.088  -0.303   8.018 -0.5445  1.9895 -0.4752
  715MOL0     H96522   7.087  -0.242   8.178 -1.4986 -3.4918  0.9529
  715MOL0     H96523   7.448  -0.479   8.185 -1.5543 -0.7369  2.9853
  715MOL0     H96524   7.040   0.209   7.668  0.9033 -0.7300  1.9902
  715MOL0     H96525   7.126   0.314   7.446  0.7710  2.9955 -1.2152
  716MOL0     O96526  11.027   9.820   5.288 -0.0407  0.1325 -0.4712
  716MOL0     C96527  10.967   9.738   5.231  0.0498 -0.4044 -0.0891
  716MOL0     O96528  10.830   9.738   5.209  0.4492 -0.3927 -0.4690
  716MOL0     C96529  10.742   9.834   5.251 -0.2267 -0.4676 -0.1086
  716MOL0     C96530  10.764   9.948   5.326 -0.8174 -0.3031  0.5633
  716MOL0     C96531  10.663  10.037   5.361 -1.0039 -0.3506  0.3672
  716MOL0     C96532  10.539  10.037   5.300 -0.6882  0.2618 -0.0153
  716MOL0     O96533  10.431  10.131   5.334  0.4033 -0.1995  0.0413
  716MOL0     C96534  10.464  10.256   5.398 -0.6647  0.3353  0.8217
  716MOL0     C96535  10.357  10.347   5.376  1.7723  0.0458 -0.4812
  716MOL0     C96536  10.355  10.460   5.483  0.2309 -1.2666 -0.1681
  716MOL0     C96537  10.248  10.567   5.455 -0.4893 -0.3436 -1.1054
  716MOL0     C96538  10.320  10.697   5.426 -0.2030 -0.2433 -0.2082
  716MOL0     C96539  10.411  10.692   5.296 -0.7922 -0.4334  0.0587
  716MOL0     C96540  10.494  10.817   5.284  0.3172  0.4398 -0.2662
  716MOL0     C96541  10.594  10.828   5.165 -0.3328 -0.2820 -0.3322
  716MOL0     N96542  10.694  10.720   5.159  0.4265  0.2967 -0.2505
  716MOL0     C96543  10.787  10.697   5.258  0.3502 -0.6676 -0.1990
  716MOL0     C96544  10.841  10.580   5.230  0.1415 -0.6957  1.0477
  716MOL0     C96545  10.932  10.492   5.302  0.3116 -0.5696  0.0265
  716MOL0     C96546  10.886  10.463   5.447 -0.5641  0.1738  0.4178
  716MOL0     C96547  10.984  10.423   5.556  0.4831  0.2406  0.0751
  716MOL0     C96548  11.072  10.301   5.528  0.4057  0.3283 -0.7027
  716MOL0     O96549  10.994  10.191   5.557 -0.1285 -0.0385  0.1066
  716MOL0     C96550  11.008  10.128   5.683 -0.2114 -0.5703 -1.1631
  716MOL0     C96551  11.122  10.131   5.764 -1.2650 -0.0883 -0.4196
  716MOL0     C96552  11.127  10.080   5.888  0.1848 -0.2349 -0.6384
  716MOL0     C96553  11.261  10.097   5.970  0.0885 -0.5477 -0.3394
  716MOL0     C96554  11.006  10.014   5.932  0.2967  0.8751 -0.6885
  716MOL0     C96555  10.983   9.968   6.078 -0.8541  0.5078  0.2052
  716MOL0     O96556  10.865   9.912   6.107 -0.1401  0.1614  1.3053
  716MOL0     C96557  10.842   9.861   6.230 -0.0421  0.1103 -0.3392
  716MOL0     C96558  10.723   9.872   6.294 -0.4101 -0.1086  0.0578
  716MOL0     C96559  10.708   9.817   6.418 -0.5408  0.2282 -1.4855
  716MOL0     C96560  10.804   9.733   6.476 -0.4926  0.2081  0.0336
  716MOL0     O96561  10.790   9.685   6.601 -1.1388  0.3075  0.0639
  716MOL0     C96562  10.662   9.633   6.659 -0.0183 -0.6488 -0.2049
  716MOL0     C96563  10.687   9.577   6.798  0.2120 -0.0072 -1.1107
  716MOL0     C96564  10.706   9.699   6.891 -0.1210  0.0808 -0.4598
  716MOL0     C96565  10.683   9.677   7.035 -0.2771  0.7563 -0.1750
  716MOL0     C96566  10.526   9.669   7.075  0.8917 -0.6450  0.0568
  716MOL0     C96567  10.520   9.663   7.231  0.8176  0.8431  0.1311
  716MOL0     C96568  10.361   9.662   7.262 -0.7231  0.3594 -0.2754
  716MOL0     C96569  10.349   9.605   7.400 -0.1075  1.0977  0.1760
  716MOL0    Cl96570  10.173   9.593   7.451  0.1003 -0.5245 -0.6960
  716MOL0     C96571  10.921   9.710   6.407 -0.7979 -0.6615 -0.9330
  716MOL0     C96572  10.939   9.772   6.286 -0.8012  0.7164  0.7458
  716MOL0     O96573  11.069   9.995   6.163 -0.4439  0.1340  0.2932
  716MOL0     C96574  10.896  10.010   5.847  0.7669 -0.7443 -0.0263
  716MOL0     C96575  10.896  10.070   5.724  0.0177  0.8920 -0.6017
  716MOL0     N96576  10.790  10.539   5.108  0.0458 -0.1976  0.5061
  716MOL0     N96577  10.697  10.618   5.075  0.0605  0.4683  0.4318
  716MOL0     C96578  10.512   9.917   5.222  0.7977  0.5130 -0.4023
  716MOL0     C96579  10.607   9.819   5.200  0.7608 -0.0591 -1.7030
  716MOL0     C96580  11.045   9.638   5.161  0.6942 -0.4635  0.5561
  716MOL0     C96581  11.180   9.628   5.168 -0.2374 -0.0240 -0.1733
  716MOL0     C96582  11.256   9.549   5.082  0.0883  0.6644  1.0191
  716MOL0     C96583  11.196   9.461   4.987  0.1829 -0.4116 -0.7193
  716MOL0     O96584  11.255   9.386   4.884  0.0527  0.2161 -0.8000
  716MOL0     C96585  11.397   9.403   4.871  0.1297  0.8210  0.1227
  716MOL0     C96586  11.430   9.538   4.801  0.0678  0.5612  0.2828
  716MOL0     C96587  11.385   9.543   4.656  0.2542 -0.4051 -0.0491
  716MOL0     C96588  11.423   9.668   4.568  0.9299 -0.5180 -0.9235
  716MOL0     C96589  11.567   9.668   4.546  0.3462 -0.8131  0.3188
  716MOL0     C96590  11.690   9.672   4.528 -0.2335  0.9754  0.2790
  716MOL0     C96591  11.063   9.435   5.011  1.0600 -1.2431 -0.2320
  716MOL0     C96592  10.979   9.531   5.094  0.1450  0.4421 -0.3927
  716MOL0     H96593  10.860   9.960   5.374 -1.0459 -1.4476  1.3608
  716MOL0     H96594  10.705  10.115   5.424  1.8560 -0.7899 -0.8444
  716MOL0     H96595  10.492  10.250   5.504 -3.0958  1.8058  1.6349
  716MOL0     H96596  10.555  10.287   5.346  0.5045 -1.2484  1.8011
  716MOL0     H96597  10.360  10.386   5.274 -0.0682  0.2122 -0.5071
  716MOL0     H96598  10.262  10.295   5.387  0.7586  2.2248  2.0567
  716MOL0     H96599  10.336  10.415   5.580 -3.5113  0.9051  0.2927
  716MOL0     H96600  10.455  10.505   5.484 -0.1350 -0.2088 -2.5384
  716MOL0     H96601  10.193  10.551   5.361 -0.8167  3.0829 -1.6305
  716MOL0     H96602  10.171  10.574   5.532  0.1223 -1.1202 -0.4150
  716MOL0     H96603  10.246  10.777   5.416  2.3861  2.7496  2.3790
  716MOL0     H96604  10.395  10.717   5.503  0.2534  0.4963 -0.8294
  716MOL0     H96605  10.479  10.607   5.292  0.9326  0.8906 -0.1692
  716MOL0     H96606  10.340  10.697   5.213 -0.1563  4.8587 -0.5436
  716MOL0     H96607  10.430  10.906   5.289 -1.5957 -0.8762 -0.4483
  716MOL0     H96608  10.542  10.820   5.382  3.1746 -1.0739 -1.4995
  716MOL0     H96609  10.637  10.928   5.164 -0.8050  0.0844 -4.6914
  716MOL0     H96610  10.537  10.835   5.072  1.5376 -1.6343 -1.6543
  716MOL0     H96611  10.807  10.764   5.341  0.4235  0.4469 -1.0826
  716MOL0     H96612  10.935  10.401   5.240 -1.3249 -0.0983 -0.8174
  716MOL0     H96613  11.027  10.546   5.309 -0.6083  0.9818  1.1334
  716MOL0     H96614  10.796  10.400   5.443 -1.1349  0.6802  3.1053
  716MOL0     H96615  10.839  10.552   5.489 -1.2800 -0.9544  2.1441
  716MOL0     H96616  10.927  10.399   5.646 -1.0811  0.9265 -0.6863
  716MOL0     H96617  11.052  10.506   5.577  3.6160 -1.6232 -1.9297
  716MOL0     H96618  11.161  10.309   5.590  0.3829 -3.9286  0.1806
  716MOL0     H96619  11.103  10.285   5.425  0.9125 -3.1031 -0.1315
  716MOL0     H96620  11.213  10.179   5.731 -0.4006 -2.5805 -1.9811
  716MOL0     H96621  11.279  10.012   6.037 -2.0671 -2.6823 -2.2366
  716MOL0     H96622  11.347  10.105   5.904  0.6868  2.2050  0.6792
  716MOL0     H96623  11.258  10.186   6.033  0.1752  1.9368 -3.6059
  716MOL0     H96624  10.648   9.934   6.246 -1.0495  0.5375  1.8109
  716MOL0     H96625  10.614   9.831   6.472  0.6110 -0.1422  0.6978
  716MOL0     H96626  10.584   9.708   6.668  0.4318 -0.3893  2.2525
  716MOL0     H96627  10.645   9.547   6.594 -1.4820  0.2584 -1.0666
  716MOL0     H96628  10.599   9.519   6.829 -1.7232  2.5155 -1.5760
  716MOL0     H96629  10.773   9.512   6.783  0.2904 -0.4735  1.0049
  716MOL0     H96630  10.646   9.783   6.855  1.9353  0.8502 -2.3602
  716MOL0     H96631  10.808   9.727   6.865  0.4464 -2.6640 -1.4952
  716MOL0     H96632  10.729   9.586   7.076 -1.1963  1.0467  1.5848
  716MOL0     H96633  10.724   9.748   7.107 -1.4495  0.4423  0.8316
  716MOL0     H96634  10.481   9.581   7.029  3.2548 -1.4111 -0.9304
  716MOL0     H96635  10.472   9.757   7.038  1.5475 -1.2811 -2.5823
  716MOL0     H96636  10.559   9.566   7.265 -2.8041  0.3870  3.8624
  716MOL0     H96637  10.573   9.749   7.272  1.7553  0.8637 -1.0701
  716MOL0     H96638  10.299   9.607   7.190 -0.3862  1.2305 -1.2559
  716MOL0     H96639  10.321   9.763   7.273  2.6702  1.6145  2.1002
  716MOL0     H96640  10.392   9.676   7.471 -3.0650  0.6271  2.6677
  716MOL0     H96641  10.392   9.505   7.403 -2.7382 -0.2157 -1.7796
  716MOL0     H96642  10.987   9.638   6.455 -1.9878 -1.4871 -0.4576
  716MOL0     H96643  11.022   9.736   6.225  0.4845  1.0985  2.2044
  716MOL0     H96644  10.801   9.967   5.877 -1.6121  1.5002 -3.5954
  716MOL0     H96645  10.807  10.059   5.663 -0.7902 -1.9289  0.9021
  716MOL0     H96646  10.408   9.915   5.190  1.0430 -0.5747 -1.1710
  716MOL0     H96647  10.580   9.727   5.147 -0.8261  0.1639 -1.3364
  716MOL0     H96648  11.243   9.701   5.219 -0.7907  0.1955  0.2084
  716MOL0     H96649  11.364   9.561   5.072  0.4005 -1.6930  1.0252
  716MOL0     H96650  11.458   9.387   4.960  0.6033  0.1437 -0.3156
  716MOL0     H96651  11.429   9.323   4.804  1.7438 -0.6225  2.4569
  716MOL0     H96652  11.537   9.553   4.815  0.2144 -0.4739  0.3393
  716MOL0     H96653  11.376   9.617   4.854  0.0935  2.3284 -2.1223
  716MOL0     H96654  11.278   9.532   4.635 -0.7547  6.4581 -0.9320
  716MOL0     H96655  11.431   9.455   4.611  0.4510 -0.9888  1.2431
  716MOL0     H96656  11.397   9.765   4.611  1.0113  0.8634 -3.7372
  716MOL0     H96657  11.375   9.670   4.470 -1.3187  1.4271  0.1227
  716MOL0     H96658  11.790   9.658   4.495  0.0465  0.1685  1.4050
  716MOL0     H96659  11.017   9.356   4.952 -1.9340  1.5409 -1.9882
  716MOL0     H96660  10.871   9.524   5.103  0.3478 -1.3931  1.4028
  717MOL0     O96661   0.467   8.225   1.640 -0.3322  0.1865 -0.4897
  717MOL0     C96662   0.445   8.106   1.599  0.2725 -0.0444 -0.8780
  717MOL0     O96663   0.527   7.998   1.617 -0.0714 -0.2087  0.4018
  717MOL0     C96664   0.642   8.018   1.693 -0.0077  0.0148  0.3658
  717MOL0     C96665   0.767   7.975   1.641  0.7632  1.1885  0.2584
  717MOL0     C96666   0.880   7.981   1.719 -0.5906  0.3472 -0.4598
  717MOL0     C96667   0.868   8.026   1.852  0.6686 -0.6195 -0.3149
  717MOL0     O96668   0.978   8.038   1.917  0.9722 -0.1732 -0.2502
  717MOL0     C96669   1.005   7.930   2.012  0.5237  0.1784  0.7107
  717MOL0     C96670   1.129   7.948   2.093 -0.1648 -0.1521  0.0088
  717MOL0     C96671   1.134   8.074   2.173  0.8626  1.0399  0.5910
  717MOL0     C96672   1.117   8.055   2.321  0.8646 -0.1032 -0.1623
  717MOL0     C96673   1.057   8.178   2.393 -0.1374  0.5101  0.9350
  717MOL0     C96674   1.124   8.202   2.526  0.0755 -0.3169 -0.2129
  717MOL0     C96675   1.022   8.296   2.609  0.1967 -0.7006  0.1027
  717MOL0     C96676   1.088   8.329   2.744  0.4720 -0.5573  0.0079
  717MOL0     N96677   1.156   8.453   2.729  0.4689 -0.4107  1.3354
  717MOL0     C96678   1.098   8.579   2.708 -0.4118 -0.4680  0.0343
  717MOL0     C96679   1.199   8.657   2.655  0.5990  0.2614  0.1318
  717MOL0     C96680   1.177   8.794   2.590 -0.9535  0.4807 -0.1557
  717MOL0     C96681   1.047   8.808   2.516  1.9930 -0.8440  0.0382
  717MOL0     C96682   1.055   8.735   2.382  0.4348  0.0240  0.8014
  717MOL0     C96683   0.933   8.773   2.293 -0.4089 -0.2082 -0.5599
  717MOL0     O96684   0.941   8.909   2.254 -0.5508  0.4103 -0.2258
  717MOL0     C96685   0.846   8.940   2.160 -0.6882  0.8493  0.6867
  717MOL0     C96686   0.879   9.011   2.045  0.6074  0.1268  0.5922
  717MOL0     C96687   0.775   9.060   1.957 -0.0776  0.1732  0.6271
  717MOL0     C96688   0.832   9.139   1.838  0.2206 -1.0870 -0.7328
  717MOL0     C96689   0.636   9.027   1.977 -1.6107  0.0917  0.4187
  717MOL0     C96690   0.528   9.088   1.898  1.1565  0.1946  0.5022
  717MOL0     O96691   0.553   9.187   1.813 -0.8710 -0.6312  0.2001
  717MOL0     C96692   0.458   9.211   1.716  0.2647  0.0697 -0.8854
  717MOL0     C96693   0.363   9.311   1.726 -0.4165  0.1326 -0.4972
  717MOL0     C96694   0.256   9.318   1.636  0.7344 -0.5936  0.7274
  717MOL0     C96695   0.241   9.218   1.536 -0.7231  0.4727 -0.4079
  717MOL0     O96696   0.138   9.227   1.445  0.0886 -1.1292  0.1357
  717MOL0     C96697   0.067   9.104   1.411 -0.0680 -0.5093 -0.2622
  717MOL0     C96698  -0.077   9.128   1.361  0.6526 -0.8211  0.2949
  717MOL0     C96699  -0.083   9.137   1.210  0.4709  0.4460  0.2492
  717MOL0     C96700  -0.231   9.169   1.157  0.0500 -0.3830  0.7307
  717MOL0     C96701  -0.316   9.043   1.163 -0.5121  0.0761  0.1548
  717MOL0     C96702  -0.447   9.068   1.109 -0.0277 -0.5249  1.1392
  717MOL0     C96703  -0.525   9.191   1.165 -0.0787  0.3364  0.7559
  717MOL0     C96704  -0.535   9.187   1.321 -0.6002 -0.3686 -0.1203
  717MOL0    Cl96705  -0.661   9.082   1.363  0.3137 -0.0665  0.0703
  717MOL0     C96706   0.332   9.110   1.527  0.0487  0.4385  0.2436
  717MOL0     C96707   0.439   9.113   1.618  0.1265  0.1620 -0.2801
  717MOL0     O96708   0.414   9.051   1.931  1.0063 -0.5565  0.7217
  717MOL0     C96709   0.610   8.937   2.083 -0.0443  0.0904 -0.6631
  717MOL0     C96710   0.706   8.902   2.178  0.1055 -0.1532 -0.2399
  717MOL0     N96711   1.314   8.577   2.646 -0.4192 -0.5136 -0.5038
  717MOL0     N96712   1.282   8.457   2.674  0.3414 -0.3232 -0.0707
  717MOL0     C96713   0.744   8.077   1.898  1.1512  1.4601  0.5064
  717MOL0     C96714   0.630   8.067   1.822 -0.4092  0.0936  0.3203
  717MOL0     C96715   0.327   8.091   1.518  0.4105 -1.0737  0.4957
  717MOL0     C96716   0.233   8.193   1.500 -0.0267  0.2115 -0.4217
  717MOL0     C96717   0.128   8.187   1.413  0.1679 -0.1247  0.1332
  717MOL0     C96718   0.103   8.070   1.338 -0.0387  0.7741 -0.4128
  717MOL0     O96719  -0.008   8.048   1.260 -0.6794  0.2339  0.0803
  717MOL0     C96720  -0.095   8.156   1.219 -0.4684  0.2886 -0.2021
  717MOL0     C96721  -0.129   8.138   1.076 -0.1317  0.3849 -0.0692
  717MOL0     C96722   0.001   8.130   0.984  0.5777  0.0019  0.5344
  717MOL0     C96723  -0.043   8.056   0.862 -0.1120 -0.4616  0.8134
  717MOL0     C96724  -0.135   8.127   0.779 -0.2070 -0.5836  0.2603
  717MOL0     C96725  -0.211   8.175   0.705  0.4703  0.0502 -0.0332
  717MOL0     C96726   0.187   7.965   1.361  0.0672 -0.8374  0.1058
  717MOL0     C96727   0.301   7.967   1.452  0.7489 -0.0302  0.4977
  717MOL0     H96728   0.763   7.938   1.539 -1.8502  2.0651 -0.0328
  717MOL0     H96729   0.975   7.948   1.678 -1.4153  0.1980 -2.3653
  717MOL0     H96730   0.924   7.914   2.083 -0.0767 -1.9281 -0.3813
  717MOL0     H96731   1.009   7.833   1.963 -0.5811 -0.0991  1.1395
  717MOL0     H96732   1.134   7.856   2.152  0.8461 -0.6570 -0.8445
  717MOL0     H96733   1.201   7.949   2.011  0.0643 -1.5585  0.1827
  717MOL0     H96734   1.225   8.130   2.152  1.7851 -1.1090 -1.7152
  717MOL0     H96735   1.048   8.131   2.135  0.9993 -0.6397 -2.6505
  717MOL0     H96736   1.056   7.966   2.339  1.3755 -0.0549  2.2032
  717MOL0     H96737   1.215   8.024   2.357  0.7515 -2.8929 -2.0237
  717MOL0     H96738   1.083   8.263   2.329  1.1446 -1.4600 -1.3312
  717MOL0     H96739   0.949   8.188   2.410 -0.2716  0.4235  0.2079
  717MOL0     H96740   1.149   8.113   2.584  0.0252  0.3441  0.8511
  717MOL0     H96741   1.219   8.249   2.498  0.9269 -2.8158 -1.8485
  717MOL0     H96742   1.004   8.386   2.549  2.1454 -0.7444 -0.6321
  717MOL0     H96743   0.929   8.239   2.615  0.6654 -1.5520 -0.4033
  717MOL0     H96744   1.165   8.256   2.773  1.6391 -0.0815 -1.7010
  717MOL0     H96745   1.014   8.341   2.823  0.4328 -1.3149  0.0941
  717MOL0     H96746   0.994   8.608   2.726 -0.4452 -1.4765  1.6711
  717MOL0     H96747   1.194   8.866   2.670  2.9818  0.0484 -0.4110
  717MOL0     H96748   1.266   8.797   2.526 -0.1832  0.7928  0.9057
  717MOL0     H96749   1.033   8.916   2.506  0.8851 -1.1370 -2.0211
  717MOL0     H96750   0.974   8.761   2.583  0.0332  0.7178 -0.9077
  717MOL0     H96751   1.046   8.630   2.412  2.7757 -0.2170  0.8854
  717MOL0     H96752   1.141   8.748   2.315 -2.9719 -1.4972 -4.4734
  717MOL0     H96753   0.848   8.761   2.361 -0.4537 -0.5205 -0.6674
  717MOL0     H96754   0.917   8.701   2.212  0.8958 -1.2064  0.0307
  717MOL0     H96755   0.981   9.046   2.040  1.5819 -2.4001  1.2994
  717MOL0     H96756   0.936   9.115   1.814  1.5160 -0.6124  3.5802
  717MOL0     H96757   0.778   9.114   1.746 -2.7729 -0.6043  0.7644
  717MOL0     H96758   0.834   9.245   1.866  1.7958 -1.0744 -0.7980
  717MOL0     H96759   0.369   9.387   1.804 -0.3233  0.5076 -0.8699
  717MOL0     H96760   0.189   9.403   1.627  2.3919  0.5770 -1.9072
  717MOL0     H96761   0.136   9.052   1.344  3.4824 -0.1528  2.7880
  717MOL0     H96762   0.060   9.039   1.498  1.3407 -0.4132 -0.0602
  717MOL0     H96763  -0.144   9.052   1.402  0.5326 -0.1326  1.4169
  717MOL0     H96764  -0.108   9.229   1.392  0.9538  0.0013 -1.8737
  717MOL0     H96765  -0.053   9.041   1.167  1.9973  0.9975  0.0229
  717MOL0     H96766  -0.019   9.214   1.168  0.9711 -0.5124 -0.7872
  717MOL0     H96767  -0.276   9.240   1.228 -0.7383  0.0342 -0.1573
  717MOL0     H96768  -0.228   9.212   1.057  0.5428  4.1796  2.4349
  717MOL0     H96769  -0.328   9.010   1.267 -0.7427  2.7145  1.0449
  717MOL0     H96770  -0.279   8.954   1.111 -0.9993 -1.1409  1.7905
  717MOL0     H96771  -0.455   9.072   1.000 -1.0590 -1.0950  1.1840
  717MOL0     H96772  -0.503   8.976   1.130 -2.9826  0.6879 -0.8107
  717MOL0     H96773  -0.627   9.200   1.124  0.0151  0.4530  0.5441
  717MOL0     H96774  -0.474   9.278   1.123  2.7554 -1.5650 -0.0596
  717MOL0     H96775  -0.561   9.290   1.346  0.1270  1.0993 -4.5781
  717MOL0     H96776  -0.444   9.165   1.378  0.5360  3.2970 -0.2634
  717MOL0     H96777   0.335   9.034   1.450  1.7155  2.3840 -1.7706
  717MOL0     H96778   0.512   9.032   1.619 -0.9861 -0.8854 -1.3769
  717MOL0     H96779   0.507   8.907   2.103  0.1965  0.6256  1.7139
  717MOL0     H96780   0.663   8.842   2.258 -1.3095 -2.8915 -2.8147
  717MOL0     H96781   0.720   8.119   1.996 -1.3992 -0.6868  0.9095
  717MOL0     H96782   0.538   8.113   1.857 -0.2611  1.7676 -1.3739
  717MOL0     H96783   0.266   8.293   1.525 -1.7515  2.1691 -4.9330
  717MOL0     H96784   0.076   8.282   1.400  0.5430  0.3509  1.8716
  717MOL0     H96785  -0.179   8.156   1.288  2.6579 -3.8245  4.2578
  717MOL0     H96786  -0.055   8.257   1.229  1.8510 -0.1949 -3.1443
  717MOL0     H96787  -0.188   8.224   1.044  1.3357  1.5010  0.1167
  717MOL0     H96788  -0.184   8.044   1.088  0.5359  0.1127  1.0398
  717MOL0     H96789   0.075   8.069   1.038  1.5990 -1.5647 -2.3893
  717MOL0     H96790   0.044   8.225   0.952  0.1242  0.2117  0.5530
  717MOL0     H96791  -0.085   7.956   0.873  1.5628 -1.3573 -0.4868
  717MOL0     H96792   0.045   8.042   0.799  0.3488  2.4446  0.6528
  717MOL0     H96793  -0.291   8.225   0.654 -0.4547 -0.9076  0.4324
  717MOL0     H96794   0.162   7.871   1.313 -2.3191  0.7515 -1.9686
  717MOL0     H96795   0.359   7.876   1.458 -2.7948 -2.7147 -1.7732
  718MOL0     O96796   7.370   1.836   1.303 -0.8774  0.1764 -0.0719
  718MOL0     C96797   7.391   1.716   1.308 -0.2622  0.0103  0.1994
  718MOL0     O96798   7.325   1.620   1.229  0.0096  0.6035  0.3198
  718MOL0     C96799   7.259   1.667   1.126  0.3528  0.1799  0.3581
  718MOL0     C96800   7.295   1.637   0.991 -0.3661  0.8409  0.2032
  718MOL0     C96801   7.231   1.689   0.884 -0.3121 -0.6667 -1.2080
  718MOL0     C96802   7.115   1.760   0.897 -0.3285  0.0957  0.4792
  718MOL0     O96803   7.043   1.800   0.788  0.1481  0.3366  0.3544
  718MOL0     C96804   6.930   1.887   0.798 -0.0927  0.6432 -0.7390
  718MOL0     C96805   6.897   1.926   0.652  0.0396  0.3381  0.9212
  718MOL0     C96806   6.793   2.029   0.630  0.1214 -0.3353  0.3162
  718MOL0     C96807   6.755   2.022   0.485  0.0419 -0.4932  0.3978
  718MOL0     C96808   6.660   2.133   0.445  0.0108  0.2041 -0.2904
  718MOL0     C96809   6.720   2.270   0.444  0.3377  0.1983 -0.2426
  718MOL0     C96810   6.618   2.371   0.386  0.4252  0.6095 -1.1294
  718MOL0     C96811   6.639   2.506   0.457 -0.8595  0.4367 -0.0351
  718MOL0     N96812   6.553   2.617   0.400  0.0107 -0.3916 -0.4124
  718MOL0     C96813   6.451   2.673   0.466  0.1999 -0.1502 -0.5179
  718MOL0     C96814   6.423   2.780   0.391 -0.3041  0.3977  0.8462
  718MOL0     C96815   6.303   2.871   0.424 -0.1260 -0.5400  0.7004
  718MOL0     C96816   6.181   2.826   0.345 -0.7341 -0.4490 -0.5134
  718MOL0     C96817   6.058   2.920   0.327  0.8630 -0.2015  0.2970
  718MOL0     C96818   5.936   2.835   0.289  0.6870  0.0336  0.0993
  718MOL0     O96819   5.950   2.783   0.150 -0.0845 -0.1557  0.0048
  718MOL0     C96820   5.820   2.766   0.106  0.0769 -0.3645  1.5357
  718MOL0     C96821   5.774   2.824  -0.021  0.6698  0.1556  0.2694
  718MOL0     C96822   5.633   2.805  -0.057 -0.9010  0.6023 -0.2301
  718MOL0     C96823   5.589   2.859  -0.189  0.2927  0.2281 -0.3857
  718MOL0     C96824   5.547   2.738   0.032 -0.3068  0.7408  0.5984
  718MOL0     C96825   5.403   2.732   0.011  0.6079  0.2193  0.1232
  718MOL0     O96826   5.337   2.608   0.030 -0.1636 -0.8475 -0.4117
  718MOL0     C96827   5.199   2.586  -0.008 -0.3886 -0.3005  0.3322
  718MOL0     C96828   5.114   2.490   0.056 -0.8344  0.1786  0.6696
  718MOL0     C96829   4.978   2.491   0.039 -0.0819  0.5605  1.1538
  718MOL0     C96830   4.918   2.565  -0.062  0.0838 -0.7935  0.0966
  718MOL0     O96831   4.786   2.546  -0.071  0.4920  1.0516  0.4975
  718MOL0     C96832   4.713   2.622  -0.171 -0.6339  0.0621  0.3655
  718MOL0     C96833   4.572   2.574  -0.178 -0.7161 -0.1209 -0.8299
  718MOL0     C96834   4.493   2.616  -0.302  0.9478  0.7903  0.3678
  718MOL0     C96835   4.461   2.500  -0.387  0.7837 -0.2820 -0.4601
  718MOL0     C96836   4.357   2.535  -0.497 -0.1733  0.8264 -1.2013
  718MOL0     C96837   4.288   2.411  -0.545  0.6838  0.4848  0.0263
  718MOL0     C96838   4.399   2.305  -0.587 -0.1427  0.0550  0.3007
  718MOL0     C96839   4.360   2.200  -0.682 -0.4374  0.2303 -0.0652
  718MOL0    Cl96840   4.370   2.267  -0.847  0.3746  0.2141  0.4643
  718MOL0     C96841   4.994   2.651  -0.133 -0.2966 -0.4475 -0.4464
  718MOL0     C96842   5.132   2.652  -0.115 -0.9233 -0.4827  0.3917
  718MOL0     O96843   5.349   2.833  -0.029  0.6453  0.1190 -0.2986
  718MOL0     C96844   5.592   2.687   0.147 -0.7108  0.0089 -0.1974
  718MOL0     C96845   5.726   2.695   0.185 -0.4143 -0.5257  1.0302
  718MOL0     N96846   6.506   2.789   0.280 -0.0746  0.1442 -0.6382
  718MOL0     N96847   6.573   2.680   0.284 -0.2442 -0.9677 -0.0558
  718MOL0     C96848   7.069   1.785   1.025 -0.0420  0.5403 -0.3843
  718MOL0     C96849   7.146   1.750   1.132 -0.5742 -0.2649 -0.0131
  718MOL0     C96850   7.493   1.674   1.405 -1.4281  0.4140 -0.5634
  718MOL0     C96851   7.537   1.536   1.402 -0.1131  0.0401 -0.4028
  718MOL0     C96852   7.617   1.480   1.504  0.1202  1.0453 -0.4570
  718MOL0     C96853   7.660   1.552   1.613 -0.0003  0.0210  0.3850
  718MOL0     O96854   7.754   1.484   1.685 -0.8919 -0.3624 -0.0256
  718MOL0     C96855   7.829   1.556   1.784 -0.6483  0.1420  0.4146
  718MOL0     C96856   7.976   1.594   1.752 -0.4367 -0.0634  0.3070
  718MOL0     C96857   8.035   1.695   1.854 -0.4942 -0.0165 -1.1399
  718MOL0     C96858   8.040   1.647   2.010  0.2024  0.3222 -0.7243
  718MOL0     C96859   8.134   1.727   2.097  0.3372  0.8330 -0.7598
  718MOL0     C96860   8.217   1.786   2.173 -0.4830  0.2828 -0.1205
  718MOL0     C96861   7.620   1.690   1.616 -1.0547 -0.1454  0.3229
  718MOL0     C96862   7.535   1.747   1.518  0.0358 -0.2141 -0.0450
  718MOL0     H96863   7.376   1.565   0.984 -2.3749 -1.4300 -1.1678
  718MOL0     H96864   7.289   1.675   0.793  1.6678  0.0948 -0.1269
  718MOL0     H96865   6.835   1.847   0.835  0.1960  2.2042  1.9614
  718MOL0     H96866   6.944   1.979   0.856  0.3876 -0.6332  1.2553
  718MOL0     H96867   6.977   1.957   0.584 -2.2798 -1.1718 -2.8106
  718MOL0     H96868   6.865   1.829   0.612  1.9384 -1.0789  2.6332
  718MOL0     H96869   6.709   2.031   0.700 -1.0152  0.4908 -1.0127
  718MOL0     H96870   6.847   2.121   0.651 -3.8622  1.7348  2.8040
  718MOL0     H96871   6.844   2.036   0.423 -1.3223  1.6266 -1.2142
  718MOL0     H96872   6.716   1.922   0.461  0.7930 -1.0867  1.5718
  718MOL0     H96873   6.632   2.104   0.344 -1.9005  2.0284 -0.3309
  718MOL0     H96874   6.572   2.137   0.510  0.7419  0.2644  0.7342
  718MOL0     H96875   6.764   2.294   0.541  0.0002  0.0406 -0.0442
  718MOL0     H96876   6.807   2.277   0.379  1.2948 -0.5141  0.9167
  718MOL0     H96877   6.641   2.380   0.279 -0.3930 -1.0156 -1.4621
  718MOL0     H96878   6.514   2.340   0.398  1.7127 -3.4662  1.6589
  718MOL0     H96879   6.739   2.542   0.429 -0.2102 -1.7872 -0.8082
  718MOL0     H96880   6.621   2.503   0.565 -1.4727  2.8961  0.0029
  718MOL0     H96881   6.394   2.651   0.556  0.6154 -1.3229 -0.5194
  718MOL0     H96882   6.277   2.870   0.531  2.5339 -4.2828  1.5061
  718MOL0     H96883   6.331   2.975   0.404 -2.1159 -0.2511 -0.9143
  718MOL0     H96884   6.139   2.742   0.402  1.9589 -1.2984  0.3797
  718MOL0     H96885   6.212   2.798   0.244 -0.5794  0.1156 -0.6298
  718MOL0     H96886   6.082   2.996   0.252 -0.1875  0.3988  0.5577
  718MOL0     H96887   6.042   2.984   0.415  3.0400  1.6211 -0.5158
  718MOL0     H96888   5.858   2.911   0.291  1.2563  0.6464 -0.7038
  718MOL0     H96889   5.924   2.749   0.356 -0.2430  0.5054  0.5594
  718MOL0     H96890   5.846   2.867  -0.090 -0.4828 -1.1704 -1.8577
  718MOL0     H96891   5.673   2.884  -0.254 -0.3867 -0.6610 -1.6493
  718MOL0     H96892   5.531   2.785  -0.245  4.4413 -2.0173 -2.0882
  718MOL0     H96893   5.522   2.939  -0.156  2.0645  0.4469  3.1377
  718MOL0     H96894   5.157   2.439   0.142 -0.7237  2.3262  1.9662
  718MOL0     H96895   4.912   2.419   0.087 -2.3087  1.1878 -0.7371
  718MOL0     H96896   4.711   2.728  -0.144  0.2850 -0.0345  0.8274
  718MOL0     H96897   4.759   2.608  -0.270  1.1103 -1.0406  1.2903
  718MOL0     H96898   4.583   2.466  -0.177 -1.0415 -0.2860 -4.2221
  718MOL0     H96899   4.523   2.619  -0.091  3.3286 -0.0960  1.7080
  718MOL0     H96900   4.543   2.696  -0.357  0.3724  0.7561 -0.2128
  718MOL0     H96901   4.398   2.658  -0.267  0.9974 -2.0950  4.8656
  718MOL0     H96902   4.552   2.467  -0.438  0.4589 -0.4774 -0.9221
  718MOL0     H96903   4.424   2.419  -0.323  0.6065 -0.4886 -0.8188
  718MOL0     H96904   4.422   2.581  -0.572 -1.1729  2.4068 -1.1277
  718MOL0     H96905   4.284   2.607  -0.460 -0.7585 -0.4048  0.1159
  718MOL0     H96906   4.223   2.361  -0.473 -1.0052 -1.7779 -2.8755
  718MOL0     H96907   4.227   2.437  -0.631  2.7445 -0.1285 -1.7047
  718MOL0     H96908   4.427   2.263  -0.490 -0.6947 -0.7412  0.1229
  718MOL0     H96909   4.479   2.369  -0.626 -1.7185  2.2305  0.4192
  718MOL0     H96910   4.263   2.157  -0.657  0.3489 -1.2924  0.4931
  718MOL0     H96911   4.424   2.114  -0.663  1.4277  0.6502 -3.5119
  718MOL0     H96912   4.948   2.711  -0.211 -0.7683  1.2143  1.0462
  718MOL0     H96913   5.194   2.718  -0.174 -2.7306  0.8679 -0.0910
  718MOL0     H96914   5.522   2.634   0.211 -1.3601 -2.8066 -2.9821
  718MOL0     H96915   5.748   2.642   0.277  2.4172  1.2046  1.4729
  718MOL0     H96916   6.975   1.838   1.034 -0.3355  0.5975 -3.0374
  718MOL0     H96917   7.114   1.778   1.231 -2.1428 -2.1575  0.0645
  718MOL0     H96918   7.514   1.465   1.323  0.3741 -1.9553  1.1656
  718MOL0     H96919   7.654   1.379   1.492  0.7210  1.3560 -1.4332
  718MOL0     H96920   7.774   1.642   1.824 -0.4413  0.2230  0.5290
  718MOL0     H96921   7.831   1.486   1.868  2.9457  0.6709  0.9577
  718MOL0     H96922   7.971   1.647   1.657 -0.6915  2.7717  1.8100
  718MOL0     H96923   8.031   1.501   1.735 -3.5502 -1.6372 -2.2934
  718MOL0     H96924   7.968   1.782   1.849 -1.7916 -0.9744 -0.8668
  718MOL0     H96925   8.136   1.725   1.824 -0.3084  3.4956  2.2125
  718MOL0     H96926   8.052   1.540   2.029 -1.5026  0.2326  0.0387
  718MOL0     H96927   7.944   1.674   2.055  0.2579  2.3055 -1.7165
  718MOL0     H96928   8.297   1.824   2.233  0.6975  0.3572 -1.6849
  718MOL0     H96929   7.654   1.750   1.699  0.8455  1.4569 -1.4830
  718MOL0     H96930   7.501   1.849   1.534  1.2979  0.6863 -2.5685
  719MOL0     O96931   1.996   5.251   2.411 -0.1051 -0.3478 -0.4756
  719MOL0     C96932   1.972   5.178   2.317  0.5121 -0.1282 -0.5710
  719MOL0     O96933   2.060   5.100   2.240 -0.0469 -0.3744 -0.7718
  719MOL0     C96934   2.193   5.126   2.231 -0.6147  0.0967  0.4430
  719MOL0     C96935   2.274   5.020   2.184 -0.4657  0.3907 -0.4637
  719MOL0     C96936   2.408   5.037   2.156  0.6592  0.0288 -0.5030
  719MOL0     C96937   2.478   5.154   2.188 -0.3198  0.5087  0.1396
  719MOL0     O96938   2.614   5.150   2.164 -0.1799 -0.1729 -0.1343
  719MOL0     C96939   2.696   5.257   2.203  0.0645  0.3900 -0.4371
  719MOL0     C96940   2.847   5.242   2.189  0.4877  0.5373 -0.2074
  719MOL0     C96941   2.940   5.347   2.246  0.1353  0.1251  0.5968
  719MOL0     C96942   3.078   5.281   2.273 -0.3883  0.1549  0.3087
  719MOL0     C96943   3.195   5.384   2.274  0.0402  0.2869 -0.0930
  719MOL0     C96944   3.185   5.460   2.400 -0.6288 -1.2769  0.1041
  719MOL0     C96945   3.294   5.572   2.414 -0.3342  0.6559 -0.4600
  719MOL0     C96946   3.303   5.647   2.551 -0.0861  0.3662 -0.0192
  719MOL0     N96947   3.279   5.564   2.667  0.5007 -1.0348  0.2666
  719MOL0     C96948   3.161   5.561   2.723 -0.7365  0.5999  1.1079
  719MOL0     C96949   3.175   5.478   2.827  0.2983  0.0430 -0.4844
  719MOL0     C96950   3.075   5.452   2.937 -0.4043 -0.6124  0.2497
  719MOL0     C96951   3.039   5.586   3.001  0.6436 -0.2674  0.1089
  719MOL0     C96952   2.948   5.567   3.123  0.1965 -0.1119 -0.0545
  719MOL0     C96953   2.805   5.536   3.085  0.8516  1.0027  1.1751
  719MOL0     O96954   2.741   5.647   3.034 -0.0129 -0.2879  0.5622
  719MOL0     C96955   2.605   5.678   3.042 -0.9484  0.1652  0.6237
  719MOL0     C96956   2.532   5.665   3.165  0.0967  0.6558 -0.8418
  719MOL0     C96957   2.400   5.678   3.162  1.3029 -0.5451 -0.7982
  719MOL0     C96958   2.322   5.672   3.294 -0.5656 -0.4682 -0.8456
  719MOL0     C96959   2.324   5.693   3.044 -0.4999 -1.0552  0.0555
  719MOL0     C96960   2.175   5.708   3.023  0.3587  1.0078  0.8923
  719MOL0     O96961   2.105   5.695   3.129  0.1054  0.6113 -0.3446
  719MOL0     C96962   1.966   5.700   3.120 -0.9482  0.1271  0.7400
  719MOL0     C96963   1.908   5.830   3.149  0.7922  0.1420 -1.0162
  719MOL0     C96964   1.766   5.851   3.145  0.5224 -0.0560  0.0198
  719MOL0     C96965   1.681   5.741   3.102 -0.5384 -0.1018 -1.0501
  719MOL0     O96966   1.543   5.752   3.098  0.0663 -0.2874 -0.0596
  719MOL0     C96967   1.497   5.844   3.194  0.4757 -1.0889 -0.3718
  719MOL0     C96968   1.346   5.824   3.214  0.5654 -0.5336 -0.0936
  719MOL0     C96969   1.291   5.939   3.302 -0.3046 -0.8868  0.7336
  719MOL0     C96970   1.144   5.931   3.327 -0.4226  0.3934  0.8298
  719MOL0     C96971   1.120   6.019   3.446 -0.2072  0.7382 -0.0448
  719MOL0     C96972   0.978   6.012   3.495  0.4761 -0.0668  0.0825
  719MOL0     C96973   0.949   6.088   3.623 -0.5517  0.6583  0.1685
  719MOL0     C96974   0.932   6.243   3.600  0.1011  1.1005  1.0621
  719MOL0    Cl96975   0.949   6.318   3.767 -0.4811 -0.0209 -0.1419
  719MOL0     C96976   1.735   5.613   3.071 -0.6419 -0.3327 -0.3025
  719MOL0     C96977   1.874   5.589   3.089 -0.6763 -0.7523 -0.4674
  719MOL0     O96978   2.124   5.740   2.915  0.4789 -0.3533 -0.5605
  719MOL0     C96979   2.400   5.714   2.923  0.7485 -0.8532 -0.3801
  719MOL0     C96980   2.538   5.715   2.930 -0.6474  0.1431  0.3407
  719MOL0     N96981   3.295   5.422   2.817 -0.9074  0.5396 -0.2628
  719MOL0     N96982   3.359   5.468   2.718 -0.2708 -0.4306  0.9928
  719MOL0     C96983   2.403   5.267   2.235 -0.4096  0.2608 -0.2887
  719MOL0     C96984   2.259   5.257   2.258  0.1478 -0.0947  0.4543
  719MOL0     C96985   1.831   5.151   2.281 -0.1533 -0.0008 -0.1208
  719MOL0     C96986   1.735   5.237   2.320  0.2025 -0.4296  0.0877
  719MOL0     C96987   1.600   5.222   2.277  0.1528 -0.1875 -0.2339
  719MOL0     C96988   1.560   5.109   2.203  0.2219 -0.7359 -0.1367
  719MOL0     O96989   1.423   5.110   2.180 -0.3976  0.2488 -0.7586
  719MOL0     C96990   1.368   5.006   2.101  0.4221 -0.4961  0.2028
  719MOL0     C96991   1.213   5.009   2.125  0.2753 -0.2521 -0.2046
  719MOL0     C96992   1.146   5.154   2.167  0.2341 -0.2112  0.1976
  719MOL0     C96993   0.997   5.152   2.153  0.7862  0.2837 -0.1939
  719MOL0     C96994   0.947   5.140   2.019 -0.4275  0.1855 -0.5710
  719MOL0     C96995   0.901   5.125   1.905  0.5053 -0.5730 -0.0726
  719MOL0     C96996   1.657   5.014   2.173 -0.0119  1.1045  0.7453
  719MOL0     C96997   1.800   5.037   2.209  0.4143 -0.4660  0.0473
  719MOL0     H96998   2.245   4.915   2.179  0.9875 -0.3796  3.4014
  719MOL0     H96999   2.464   4.948   2.132 -1.5425 -1.8081  0.7434
  719MOL0     H97000   2.673   5.337   2.132  1.4039 -1.9538 -3.7534
  719MOL0     H97001   2.671   5.276   2.308 -1.3124  0.2564 -0.7257
  719MOL0     H97002   2.875   5.154   2.247  1.0701  0.1515 -1.0578
  719MOL0     H97003   2.862   5.229   2.082 -0.6162  0.7848 -0.4064
  719MOL0     H97004   2.953   5.430   2.175  0.8871 -0.7252 -0.2964
  719MOL0     H97005   2.901   5.385   2.340 -0.6331  2.7018 -0.6653
  719MOL0     H97006   3.088   5.229   2.369  2.3172 -1.0184 -0.4987
  719MOL0     H97007   3.089   5.211   2.190 -1.4487 -0.5752  0.7600
  719MOL0     H97008   3.293   5.337   2.256 -0.1987  0.4477 -1.9939
  719MOL0     H97009   3.196   5.449   2.186  1.9235  0.3329 -0.0778
  719MOL0     H97010   3.085   5.504   2.408  0.0778  0.3433  0.4503
  719MOL0     H97011   3.182   5.390   2.484 -1.5309 -1.1528  0.1902
  719MOL0     H97012   3.394   5.545   2.380 -0.6528  2.1907 -2.8537
  719MOL0     H97013   3.258   5.643   2.339  2.0983  0.6217 -1.7756
  719MOL0     H97014   3.239   5.736   2.553  1.7982  1.8128  2.5316
  719MOL0     H97015   3.403   5.691   2.557  0.4725 -0.8918  0.1997
  719MOL0     H97016   3.064   5.605   2.699 -1.9307 -1.2094  2.3992
  719MOL0     H97017   2.983   5.408   2.898 -1.9962  0.8540  2.1559
  719MOL0     H97018   3.115   5.386   3.014  2.2430  0.7591  0.1510
  719MOL0     H97019   2.993   5.660   2.935 -0.8978  0.7659  2.2191
  719MOL0     H97020   3.135   5.620   3.041  1.8925 -2.1725 -1.0595
  719MOL0     H97021   2.947   5.663   3.175 -0.0010  1.3651 -2.6003
  719MOL0     H97022   2.996   5.496   3.191 -0.0614  1.0778  1.4081
  719MOL0     H97023   2.747   5.495   3.168  0.0898 -1.4627 -0.4341
  719MOL0     H97024   2.799   5.452   3.015 -2.6359  1.7013  0.4690
  719MOL0     H97025   2.580   5.638   3.258 -1.7864  1.0526  0.2773
  719MOL0     H97026   2.282   5.773   3.306  2.0033  0.5361  0.0857
  719MOL0     H97027   2.247   5.593   3.298 -2.2548  0.8838 -3.3342
  719MOL0     H97028   2.374   5.651   3.389 -1.6551 -3.4318 -0.8029
  719MOL0     H97029   1.959   5.922   3.175  0.3764  0.5015 -1.4490
  719MOL0     H97030   1.730   5.944   3.188 -1.4642 -1.1918  0.9542
  719MOL0     H97031   1.542   5.815   3.290 -0.1571 -2.1033 -0.3623
  719MOL0     H97032   1.535   5.940   3.159 -0.2490  0.0658  1.8044
  719MOL0     H97033   1.299   5.821   3.115  0.4521 -0.5754 -0.0379
  719MOL0     H97034   1.330   5.724   3.256  1.5431 -0.6141  0.1181
  719MOL0     H97035   1.312   6.030   3.244  1.1550 -0.0136  2.5359
  719MOL0     H97036   1.353   5.946   3.392  1.0542 -1.7884 -0.0921
  719MOL0     H97037   1.090   5.974   3.242 -0.4219  1.4281  1.3362
  719MOL0     H97038   1.103   5.832   3.349  1.1901 -0.6932 -0.7905
  719MOL0     H97039   1.144   6.125   3.433  0.2716  1.0278  2.5436
  719MOL0     H97040   1.191   5.987   3.523  0.8640 -2.0912 -2.0400
  719MOL0     H97041   0.910   6.035   3.413  0.4835  2.7982  0.7726
  719MOL0     H97042   0.959   5.908   3.523 -3.3479  0.3170 -0.5365
  719MOL0     H97043   1.033   6.071   3.691  1.3155  1.0688 -1.9193
  719MOL0     H97044   0.860   6.056   3.678  1.4265 -2.4802  1.8647
  719MOL0     H97045   0.832   6.272   3.565  1.3512  1.6109 -2.4564
  719MOL0     H97046   0.999   6.282   3.524 -1.0933 -2.2598 -1.9832
  719MOL0     H97047   1.673   5.524   3.071  0.7634 -1.3946  1.4681
  719MOL0     H97048   1.902   5.485   3.081  0.2639 -0.4978 -0.5821
  719MOL0     H97049   2.342   5.735   2.834 -0.3313  2.9502  1.0012
  719MOL0     H97050   2.582   5.719   2.831 -0.9548 -0.8551  0.1461
  719MOL0     H97051   2.439   5.367   2.258 -0.3406  0.6770 -2.0539
  719MOL0     H97052   2.199   5.341   2.291  1.9750  2.3970 -2.1702
  719MOL0     H97053   1.745   5.321   2.388 -1.1217 -0.0229 -0.1933
  719MOL0     H97054   1.516   5.281   2.311 -0.5531 -1.4565  0.3094
  719MOL0     H97055   1.400   5.015   1.997  2.4147  1.7338  0.9261
  719MOL0     H97056   1.388   4.903   2.134 -2.2621 -0.9967  0.5666
  719MOL0     H97057   1.193   4.945   2.212 -1.3931 -1.5315 -1.4774
  719MOL0     H97058   1.173   4.968   2.032  2.7461 -0.0555 -1.4584
  719MOL0     H97059   1.179   5.236   2.103 -1.8078  2.1554  1.9716
  719MOL0     H97060   1.171   5.175   2.272 -0.9309 -0.1008  0.4655
  719MOL0     H97061   0.949   5.237   2.204  0.3809 -0.0500 -0.0200
  719MOL0     H97062   0.959   5.065   2.208 -0.0126 -0.5705 -2.0228
  719MOL0     H97063   0.846   5.109   1.814  0.1537 -1.1860  0.2425
  719MOL0     H97064   1.633   4.923   2.120 -1.4303  1.5701  0.5544
  719MOL0     H97065   1.869   4.957   2.183 -1.2605 -1.1810 -2.6338
  720MOL0     O97066   1.269   2.471   5.737  0.5738  0.1342  0.0892
  720MOL0     C97067   1.216   2.581   5.715 -0.2816  0.9822  0.5969
  720MOL0     O97068   1.264   2.707   5.747 -0.2913 -0.0679  0.6086
  720MOL0     C97069   1.375   2.709   5.832 -0.1091  0.4511 -0.3524
  720MOL0     C97070   1.369   2.660   5.966  0.0984 -0.3418  0.2330
  720MOL0     C97071   1.482   2.678   6.049  0.6307 -1.4519  1.1543
  720MOL0     C97072   1.603   2.749   6.001  0.1809 -0.4383  0.0101
  720MOL0     O97073   1.713   2.765   6.082 -0.1196  0.4067  0.4148
  720MOL0     C97074   1.699   2.843   6.199 -0.7573  0.7395  0.7652
  720MOL0     C97075   1.819   2.840   6.299  0.3293 -0.6185 -0.5784
  720MOL0     C97076   1.782   2.913   6.430 -0.9342  0.4907 -0.4849
  720MOL0     C97077   1.723   2.810   6.532 -0.7262 -0.4929 -0.0615
  720MOL0     C97078   1.823   2.716   6.607 -0.3172  0.6046  0.0986
  720MOL0     C97079   1.744   2.614   6.698 -0.1701  0.0687 -0.2261
  720MOL0     C97080   1.854   2.514   6.763  0.6497  0.5061 -0.2766
  720MOL0     C97081   1.777   2.395   6.829  0.0935 -0.3613  0.3604
  720MOL0     N97082   1.707   2.310   6.736 -0.5215 -0.4385  0.2419
  720MOL0     C97083   1.742   2.279   6.608 -0.2058 -0.3226  0.3781
  720MOL0     C97084   1.654   2.185   6.556  0.1752 -0.1186  0.2248
  720MOL0     C97085   1.663   2.119   6.419  0.1879 -0.3924  0.3731
  720MOL0     C97086   1.795   2.143   6.336 -0.2117 -0.2193  0.1197
  720MOL0     C97087   1.801   2.286   6.281 -0.4470 -0.0691  0.3428
  720MOL0     C97088   1.929   2.313   6.204  0.4520  0.0733  0.2642
  720MOL0     O97089   2.016   2.387   6.300 -0.1683 -0.2635  0.1958
  720MOL0     C97090   2.106   2.482   6.243 -0.1828  0.0607  0.1668
  720MOL0     C97091   2.128   2.599   6.311  0.3968 -1.2380 -0.8756
  720MOL0     C97092   2.217   2.697   6.261  0.8549 -0.3961  0.2042
  720MOL0     C97093   2.227   2.834   6.332 -0.8504  0.2494 -0.1796
  720MOL0     C97094   2.289   2.687   6.140  0.3966  0.0868  0.2430
  720MOL0     C97095   2.379   2.794   6.078 -0.0578  1.0026 -0.5343
  720MOL0     O97096   2.488   2.738   6.018  1.0448  0.3459 -0.2766
  720MOL0     C97097   2.552   2.811   5.921  0.0987 -0.4454 -0.1087
  720MOL0     C97098   2.507   2.808   5.789 -0.3479  0.1021 -0.5389
  720MOL0     C97099   2.577   2.892   5.692 -0.7709 -0.0255  0.8560
  720MOL0     C97100   2.682   2.981   5.722  0.3064 -0.8161  0.2666
  720MOL0     O97101   2.756   3.063   5.636  0.5069 -0.6405 -0.3637
  720MOL0     C97102   2.677   3.101   5.521 -0.6918 -0.3757 -0.6552
  720MOL0     C97103   2.698   3.018   5.395 -0.8772  0.1890 -0.3068
  720MOL0     C97104   2.824   3.078   5.334 -1.1026  0.1639 -0.2975
  720MOL0     C97105   2.866   3.001   5.208 -0.0527 -1.1898  0.1782
  720MOL0     C97106   2.935   2.863   5.232  0.5634 -0.9282  0.1261
  720MOL0     C97107   2.833   2.750   5.216  0.2716 -0.6652 -0.1447
  720MOL0     C97108   2.889   2.610   5.236 -0.0613  0.3348  0.3645
  720MOL0     C97109   2.885   2.581   5.390 -0.3040  0.0559  0.7268
  720MOL0    Cl97110   2.720   2.559   5.477 -0.1748 -0.1735 -0.2906
  720MOL0     C97111   2.717   2.977   5.859  0.2316 -0.5140 -1.2304
  720MOL0     C97112   2.655   2.897   5.960  0.1228 -0.1911  0.6910
  720MOL0     O97113   2.353   2.912   6.081 -0.4161  0.0192 -0.0222
  720MOL0     C97114   2.267   2.564   6.064 -0.0457 -0.5751 -0.8266
  720MOL0     C97115   2.179   2.468   6.119  0.7474  0.1477 -0.5227
  720MOL0     N97116   1.559   2.159   6.661 -1.2066 -0.4550  0.0994
  720MOL0     N97117   1.598   2.236   6.762 -0.0388  0.4160 -0.1541
  720MOL0     C97118   1.600   2.800   5.873 -0.4493 -0.5879 -0.6532
  720MOL0     C97119   1.488   2.780   5.791 -0.4446  1.0060  0.5283
  720MOL0     C97120   1.090   2.576   5.644 -0.7123  0.8009 -0.1180
  720MOL0     C97121   1.060   2.471   5.548 -0.3989 -0.4214 -0.0522
  720MOL0     C97122   0.948   2.470   5.466  0.0173 -0.9083 -0.3430
  720MOL0     C97123   0.867   2.586   5.465 -0.1465  0.0345  0.1206
  720MOL0     O97124   0.758   2.584   5.371  0.1398 -0.5667 -0.0814
  720MOL0     C97125   0.656   2.682   5.377  0.7358  0.2067  0.2629
  720MOL0     C97126   0.543   2.643   5.278 -0.0390 -0.0271 -0.4900
  720MOL0     C97127   0.485   2.752   5.205  0.2780  0.0335 -0.3716
  720MOL0     C97128   0.427   2.698   5.073  0.2157 -0.3505 -0.4500
  720MOL0     C97129   0.316   2.598   5.095 -1.3413  0.5367  0.2116
  720MOL0     C97130   0.237   2.508   5.124 -0.5801  0.1434  0.6528
  720MOL0     C97131   0.891   2.684   5.555  0.6080 -0.3826 -0.5066
  720MOL0     C97132   0.995   2.677   5.656  0.5944  0.3919 -0.3897
  720MOL0     H97133   1.274   2.624   6.005 -2.2539  2.0951 -2.6965
  720MOL0     H97134   1.495   2.638   6.149  0.6142 -0.1267  1.7115
  720MOL0     H97135   1.682   2.947   6.171 -1.1290  0.6590  0.6927
  720MOL0     H97136   1.606   2.809   6.246 -1.4299 -1.4277 -1.8753
  720MOL0     H97137   1.835   2.736   6.327 -1.3581 -0.4325  1.2973
  720MOL0     H97138   1.911   2.878   6.255 -0.4852  1.6512 -0.4587
  720MOL0     H97139   1.877   2.942   6.476 -1.1077 -0.3703  0.4361
  720MOL0     H97140   1.714   2.998   6.420  0.5726  1.7630 -0.5005
  720MOL0     H97141   1.673   2.862   6.614 -0.5869  0.0112 -0.2914
  720MOL0     H97142   1.638   2.761   6.483  0.8470 -3.8393  0.2663
  720MOL0     H97143   1.881   2.659   6.534  3.3875  2.3728  1.4355
  720MOL0     H97144   1.895   2.777   6.663  0.3557  0.2472 -0.3649
  720MOL0     H97145   1.691   2.654   6.784 -0.2571 -2.5469  1.0508
  720MOL0     H97146   1.671   2.560   6.637  0.6329 -0.3735 -0.8269
  720MOL0     H97147   1.927   2.468   6.696  2.3555 -2.1591  3.1203
  720MOL0     H97148   1.907   2.567   6.843 -0.0524 -2.3362  2.2659
  720MOL0     H97149   1.708   2.430   6.907  0.2231 -2.2954  1.4077
  720MOL0     H97150   1.846   2.339   6.892  0.3987  1.1639  1.4382
  720MOL0     H97151   1.835   2.304   6.558 -0.3618 -1.1995 -0.3952
  720MOL0     H97152   1.639   2.013   6.434 -1.2099 -0.6164 -2.6617
  720MOL0     H97153   1.581   2.153   6.355  1.7982 -1.8739 -2.6747
  720MOL0     H97154   1.806   2.072   6.254  1.6619  0.7427 -0.5276
  720MOL0     H97155   1.881   2.120   6.400  0.9391 -1.1976 -1.7072
  720MOL0     H97156   1.787   2.366   6.354 -4.9094  1.6384 -1.9462
  720MOL0     H97157   1.717   2.296   6.211 -1.5575 -2.4673  1.2208
  720MOL0     H97158   1.904   2.384   6.124  2.8720  1.1103  0.3459
  720MOL0     H97159   1.960   2.219   6.157 -2.0163 -0.2753 -0.8342
  720MOL0     H97160   2.078   2.609   6.406  0.8184 -1.6780 -0.6049
  720MOL0     H97161   2.187   2.922   6.282  0.3071 -0.1371 -1.8617
  720MOL0     H97162   2.167   2.830   6.423  0.7690 -0.6545  0.9072
  720MOL0     H97163   2.334   2.844   6.354 -0.3797  1.2420 -2.6563
  720MOL0     H97164   2.425   2.746   5.756 -0.1648  0.7732 -2.3954
  720MOL0     H97165   2.536   2.874   5.593  2.1558 -3.0636  0.0065
  720MOL0     H97166   2.570   3.106   5.545 -0.7505  1.6226 -1.1603
  720MOL0     H97167   2.692   3.208   5.506 -3.7645  0.4779  1.3356
  720MOL0     H97168   2.711   2.915   5.429  0.1203  1.3109  3.1288
  720MOL0     H97169   2.617   3.034   5.324 -1.6398  3.3978  1.1103
  720MOL0     H97170   2.909   3.079   5.402 -1.8152 -4.1603  0.9424
  720MOL0     H97171   2.804   3.181   5.305  2.4551  0.3177 -2.8563
  720MOL0     H97172   2.774   2.993   5.149  0.5148 -1.0753 -0.7479
  720MOL0     H97173   2.929   3.067   5.147 -0.1945 -1.1919  0.0273
  720MOL0     H97174   2.992   2.854   5.326 -1.2229  0.5654  1.4377
  720MOL0     H97175   3.003   2.852   5.148  0.4942  6.3268 -1.5578
  720MOL0     H97176   2.762   2.756   5.299  0.9339 -4.3932  0.8454
  720MOL0     H97177   2.786   2.772   5.119  0.5814 -1.8271 -0.5704
  720MOL0     H97178   2.989   2.592   5.196  0.7983 -0.4794  2.7020
  720MOL0     H97179   2.816   2.541   5.194  0.5520  0.2195 -0.5526
  720MOL0     H97180   2.938   2.655   5.449  1.0447 -0.1627 -0.1503
  720MOL0     H97181   2.929   2.481   5.401 -1.4309 -0.9025 -2.3191
  720MOL0     H97182   2.796   3.046   5.888 -3.6624  4.8175 -1.8472
  720MOL0     H97183   2.694   2.911   6.061 -0.3506 -2.2507  1.2107
  720MOL0     H97184   2.344   2.545   5.990  2.9341  2.1002  1.3333
  720MOL0     H97185   2.166   2.376   6.062 -2.5527 -1.7714  2.9150
  720MOL0     H97186   1.691   2.853   5.846 -0.4239 -0.7723 -0.9321
  720MOL0     H97187   1.490   2.815   5.688 -0.5142  0.0240  0.1815
  720MOL0     H97188   1.125   2.385   5.535  2.3138  1.7063 -1.6587
  720MOL0     H97189   0.925   2.392   5.394  0.3463  0.2544 -1.7488
  720MOL0     H97190   0.613   2.682   5.478 -1.4905  2.5947 -0.5728
  720MOL0     H97191   0.693   2.783   5.358  0.5892  0.0258 -1.0255
  720MOL0     H97192   0.467   2.587   5.333  1.0704 -0.5838  0.5265
  720MOL0     H97193   0.584   2.575   5.203  1.7020  0.1312  0.2717
  720MOL0     H97194   0.550   2.836   5.179 -1.1743  1.2381 -0.2028
  720MOL0     H97195   0.407   2.791   5.271 -1.4413  0.6615 -2.6613
  720MOL0     H97196   0.501   2.651   5.008 -0.0488  2.1056 -2.6780
  720MOL0     H97197   0.386   2.780   5.013  0.6335 -0.6328 -1.1289
  720MOL0     H97198   0.181   2.422   5.157 -3.0546  2.4996  3.2009
  720MOL0     H97199   0.824   2.769   5.553  0.8295 -0.1688  0.5701
  720MOL0     H97200   1.002   2.757   5.729 -3.7776  0.1353  0.5740
  721MOL0     O97201   4.707   6.246   0.156 -0.4202  0.3326  0.0853
  721MOL0     C97202   4.797   6.326   0.192 -0.2013 -0.3941  0.2159
  721MOL0     O97203   4.781   6.454   0.231 -0.1827  0.3084 -0.2891
  721MOL0     C97204   4.658   6.510   0.234  0.3838 -0.4249 -0.8682
  721MOL0     C97205   4.542   6.450   0.286  0.0481  0.5633  0.3849
  721MOL0     C97206   4.427   6.534   0.286 -0.3862  0.3571 -0.0845
  721MOL0     C97207   4.436   6.670   0.257  0.1064  0.5561  0.1880
  721MOL0     O97208   4.333   6.756   0.230 -0.4732  0.1574  0.7609
  721MOL0     C97209   4.224   6.745   0.325  0.5156  0.2948  0.2899
  721MOL0     C97210   4.268   6.793   0.468 -0.1604 -0.6645  0.2600
  721MOL0     C97211   4.184   6.735   0.583  0.6074 -0.2145  0.1621
  721MOL0     C97212   4.221   6.794   0.718  0.4977 -0.1889 -0.0026
  721MOL0     C97213   4.343   6.731   0.778  0.4140 -0.9779 -0.5332
  721MOL0     C97214   4.393   6.811   0.903  0.0343  0.9772 -0.7593
  721MOL0     C97215   4.507   6.736   0.977 -0.0461 -1.1728  0.0417
  721MOL0     C97216   4.559   6.800   1.111 -1.0664  0.7055  0.2730
  721MOL0     N97217   4.682   6.748   1.164  0.0873 -0.7085 -0.8908
  721MOL0     C97218   4.712   6.637   1.239 -0.6384  0.8179 -0.4838
  721MOL0     C97219   4.836   6.653   1.278 -0.6113  0.0461  0.9695
  721MOL0     C97220   4.913   6.564   1.365  0.0380  0.4735 -0.9438
  721MOL0     C97221   5.033   6.500   1.300  0.4631  0.2975 -0.7678
  721MOL0     C97222   5.049   6.375   1.392 -0.3236 -0.2249  0.4172
  721MOL0     C97223   5.202   6.360   1.402  0.0838  0.6406 -0.0384
  721MOL0     O97224   5.232   6.231   1.455  0.4702 -0.6853 -0.6426
  721MOL0     C97225   5.367   6.200   1.454  0.5764 -0.1687 -0.9276
  721MOL0     C97226   5.406   6.065   1.445 -0.5840 -1.3027 -0.5387
  721MOL0     C97227   5.539   6.024   1.456 -0.3391  0.7004 -0.8907
  721MOL0     C97228   5.568   5.873   1.434  0.1156  0.1505 -0.1470
  721MOL0     C97229   5.646   6.124   1.480  1.0031  1.0629 -0.8425
  721MOL0     C97230   5.789   6.100   1.529  0.0019 -0.5151  0.0284
  721MOL0     O97231   5.826   5.983   1.589  0.6791  1.1173  0.2427
  721MOL0     C97232   5.958   5.942   1.610  0.6802  1.1246  0.7175
  721MOL0     C97233   5.971   5.802   1.616 -0.1313 -0.4770  0.0029
  721MOL0     C97234   6.089   5.749   1.663 -0.4614 -0.0186  0.5088
  721MOL0     C97235   6.195   5.826   1.697 -0.1931  0.4730 -0.4966
  721MOL0     O97236   6.308   5.749   1.731  0.4237  1.0971  1.0217
  721MOL0     C97237   6.396   5.816   1.821  0.1088 -0.7051 -0.1290
  721MOL0     C97238   6.522   5.732   1.856  0.6412 -0.1097  0.0256
  721MOL0     C97239   6.529   5.716   2.007  0.1469  0.1264  0.1871
  721MOL0     C97240   6.619   5.610   2.052  0.2547 -0.2630  0.1987
  721MOL0     C97241   6.687   5.655   2.186  0.5928  0.4511 -0.3768
  721MOL0     C97242   6.754   5.533   2.247 -0.3354  0.6028 -0.3177
  721MOL0     C97243   6.824   5.559   2.372 -0.1012 -1.0104 -0.6911
  721MOL0     C97244   6.910   5.435   2.410 -0.3967  0.3217 -0.4397
  721MOL0    Cl97245   7.043   5.482   2.527 -0.1714  0.2799 -0.2501
  721MOL0     C97246   6.189   5.967   1.681  0.7727  1.0647 -0.6176
  721MOL0     C97247   6.070   6.027   1.635  0.3750  0.3307  0.5956
  721MOL0     O97248   5.867   6.178   1.480 -0.1844 -0.3455 -0.0680
  721MOL0     C97249   5.609   6.261   1.487  0.1345  0.9827  0.1383
  721MOL0     C97250   5.470   6.296   1.475 -0.3790 -0.3189 -0.3311
  721MOL0     N97251   4.872   6.785   1.238  0.3470 -0.3228 -0.3043
  721MOL0     N97252   4.778   6.838   1.173 -0.6220 -0.5213  0.1248
  721MOL0     C97253   4.557   6.729   0.223 -0.5821  0.0086  0.4354
  721MOL0     C97254   4.669   6.648   0.206  0.4312  0.0757  1.7073
  721MOL0     C97255   4.933   6.268   0.215 -0.5858  0.0944  0.0444
  721MOL0     C97256   4.953   6.132   0.199 -1.0041  0.7663  0.4676
  721MOL0     C97257   5.078   6.075   0.208 -0.0020  0.2822  0.0519
  721MOL0     C97258   5.184   6.157   0.260 -0.1861 -0.2572  0.4257
  721MOL0     O97259   5.316   6.117   0.276  0.7209  0.3595  0.7841
  721MOL0     C97260   5.346   5.977   0.275  0.1385 -0.1336  0.9441
  721MOL0     C97261   5.497   5.959   0.305 -0.3746  1.0277  0.0600
  721MOL0     C97262   5.527   5.821   0.369 -0.2912 -0.2716  0.9863
  721MOL0     C97263   5.680   5.792   0.362  0.5963 -0.5753 -1.1843
  721MOL0     C97264   5.714   5.696   0.469  0.7355  0.2685  0.2328
  721MOL0     C97265   5.724   5.606   0.547 -0.2452 -1.0499  1.5231
  721MOL0     C97266   5.158   6.286   0.303 -0.5662 -0.2890  0.4722
  721MOL0     C97267   5.038   6.344   0.267  0.4721 -0.3052 -0.3434
  721MOL0     H97268   4.542   6.344   0.310 -0.3292  0.4764  0.0180
  721MOL0     H97269   4.336   6.482   0.313 -1.3790  1.1254 -1.7669
  721MOL0     H97270   4.133   6.800   0.299 -0.6121 -0.6558  2.0785
  721MOL0     H97271   4.190   6.641   0.330 -0.9205  0.7637  0.6414
  721MOL0     H97272   4.371   6.764   0.489  1.5605  0.4977 -5.0108
  721MOL0     H97273   4.268   6.902   0.474 -1.4214 -0.6408  0.1352
  721MOL0     H97274   4.078   6.753   0.562  0.2603 -0.4784  1.6193
  721MOL0     H97275   4.201   6.627   0.583 -0.9427 -0.5554  2.9519
  721MOL0     H97276   4.222   6.903   0.714  2.1336  0.0306  3.2792
  721MOL0     H97277   4.141   6.781   0.792 -0.9293  3.7113 -0.6494
  721MOL0     H97278   4.319   6.629   0.810  0.0468 -1.3442 -1.9201
  721MOL0     H97279   4.425   6.727   0.706 -0.2877  0.3362 -1.4418
  721MOL0     H97280   4.435   6.901   0.857  2.6825  0.9138  1.3494
  721MOL0     H97281   4.321   6.844   0.979  1.4906 -1.8990  2.1000
  721MOL0     H97282   4.467   6.640   1.011 -2.6600 -0.2801 -0.2453
  721MOL0     H97283   4.591   6.720   0.910  0.2543  2.3564 -0.6282
  721MOL0     H97284   4.482   6.786   1.187  0.9822 -1.4334  2.0842
  721MOL0     H97285   4.578   6.906   1.093 -2.9735  0.8344 -1.3816
  721MOL0     H97286   4.651   6.550   1.261  2.2681 -1.1204  0.4374
  721MOL0     H97287   4.945   6.622   1.453  0.1991  0.6007 -1.0836
  721MOL0     H97288   4.835   6.495   1.397  1.4249 -0.5379  0.4056
  721MOL0     H97289   5.120   6.564   1.282  2.1672 -1.9601 -1.0472
  721MOL0     H97290   4.997   6.472   1.200  2.2343 -0.8270 -1.1417
  721MOL0     H97291   5.011   6.289   1.337 -0.1923 -1.1575  1.7457
  721MOL0     H97292   5.001   6.385   1.490 -1.2070 -2.9482  0.3463
  721MOL0     H97293   5.246   6.444   1.458 -1.1128  4.3090 -4.0159
  721MOL0     H97294   5.247   6.377   1.303 -2.2775  0.7530 -1.1436
  721MOL0     H97295   5.329   5.990   1.428 -0.4156 -0.7639 -4.9964
  721MOL0     H97296   5.661   5.853   1.487  0.9583  3.9885  0.1188
  721MOL0     H97297   5.484   5.813   1.471  0.4116 -1.6580 -2.2239
  721MOL0     H97298   5.579   5.863   1.326  2.4782 -0.7219  0.1210
  721MOL0     H97299   5.885   5.741   1.589 -0.0031  0.8933 -4.2820
  721MOL0     H97300   6.096   5.640   1.663 -2.5196 -0.3187 -3.7151
  721MOL0     H97301   6.428   5.907   1.770 -1.0106 -0.3741 -0.2658
  721MOL0     H97302   6.344   5.850   1.911  1.9426  0.1020  0.6638
  721MOL0     H97303   6.522   5.632   1.813 -1.5658  0.8071 -2.3524
  721MOL0     H97304   6.610   5.774   1.806 -0.6420  0.0244 -2.2490
  721MOL0     H97305   6.432   5.683   2.045  0.8206 -0.5214  1.4198
  721MOL0     H97306   6.560   5.810   2.054 -0.1806  0.8282 -0.9636
  721MOL0     H97307   6.564   5.517   2.067  2.5292 -2.7689 -4.6886
  721MOL0     H97308   6.695   5.592   1.976  1.9068  4.3241  0.4526
  721MOL0     H97309   6.615   5.677   2.266  1.8692  0.1734  0.8788
  721MOL0     H97310   6.755   5.740   2.177 -0.4427  1.1760 -1.7664
  721MOL0     H97311   6.688   5.449   2.266 -0.7087 -0.5182 -5.1890
  721MOL0     H97312   6.827   5.507   2.169  2.1449  2.2733  1.2915
  721MOL0     H97313   6.753   5.587   2.451 -0.3142 -0.0172 -1.2206
  721MOL0     H97314   6.897   5.640   2.362  0.3511 -0.9788  2.0674
  721MOL0     H97315   6.968   5.387   2.331 -0.5023 -1.3994  0.4920
  721MOL0     H97316   6.848   5.352   2.444  3.0623 -1.5128  2.0259
  721MOL0     H97317   6.276   6.028   1.703  2.7611 -1.2563 -1.5321
  721MOL0     H97318   6.060   6.135   1.640  0.5018  0.3130  1.3017
  721MOL0     H97319   5.693   6.326   1.507  2.1875 -0.9313 -1.7182
  721MOL0     H97320   5.451   6.403   1.484 -1.3170 -0.3124 -2.1487
  721MOL0     H97321   4.570   6.836   0.210  2.3125 -0.2664  0.5489
  721MOL0     H97322   4.768   6.676   0.171  1.2833 -4.1500  0.0492
  721MOL0     H97323   4.880   6.073   0.144  0.3369  0.8665 -1.5617
  721MOL0     H97324   5.090   5.973   0.175 -0.7884 -1.3385  4.2094
  721MOL0     H97325   5.287   5.926   0.351 -3.5868  0.0968 -1.5241
  721MOL0     H97326   5.311   5.928   0.184  0.7687 -0.8965  1.1072
  721MOL0     H97327   5.546   6.036   0.364  1.5194 -0.2328  0.2301
  721MOL0     H97328   5.559   5.958   0.214  1.5250 -2.8818  1.1891
  721MOL0     H97329   5.478   5.741   0.313 -1.1049  2.0347 -1.8451
  721MOL0     H97330   5.496   5.829   0.474 -1.2904  3.3270  0.5634
  721MOL0     H97331   5.731   5.888   0.370 -0.3020 -0.1555 -0.2683
  721MOL0     H97332   5.705   5.755   0.262  0.4199 -0.7479 -1.1658
  721MOL0     H97333   5.725   5.537   0.629 -0.4588 -1.7439  0.9511
  721MOL0     H97334   5.238   6.355   0.328 -1.8305  1.4387 -0.0396
  721MOL0     H97335   5.033   6.452   0.280 -0.9408 -0.5954  2.3016
  722MOL0     O97336   2.666   1.082   1.320 -0.1494 -0.2465 -0.3150
  722MOL0     C97337   2.711   1.119   1.428 -0.3153  0.6693 -0.5001
  722MOL0     O97338   2.738   1.251   1.461  0.0986  0.4684 -0.6600
  722MOL0     C97339   2.743   1.337   1.349  0.4233 -0.0900 -0.1616
  722MOL0     C97340   2.627   1.375   1.284 -0.0826 -0.9597 -0.1866
  722MOL0     C97341   2.651   1.451   1.174  0.2608 -0.6661 -1.2608
  722MOL0     C97342   2.778   1.504   1.129  0.3672 -0.0767  0.3332
  722MOL0     O97343   2.776   1.607   1.039  0.4162 -0.3788 -0.6298
  722MOL0     C97344   2.888   1.698   1.050  1.3247  0.4268 -0.1936
  722MOL0     C97345   2.824   1.833   1.026 -0.2237 -1.0125 -0.1892
  722MOL0     C97346   2.934   1.935   1.036 -0.1635 -0.2030  1.2457
  722MOL0     C97347   2.876   2.070   0.987  0.6270 -0.5137 -0.0283
  722MOL0     C97348   2.959   2.195   1.030 -0.2186  0.1880 -1.0848
  722MOL0     C97349   2.934   2.238   1.176  0.4819 -0.5920  0.3407
  722MOL0     C97350   2.955   2.391   1.199  0.5465  1.1011  0.6322
  722MOL0     C97351   3.089   2.451   1.176  0.1874  0.6703  0.0348
  722MOL0     N97352   3.203   2.390   1.252 -0.0301 -0.3492 -0.2625
  722MOL0     C97353   3.195   2.347   1.380 -0.4414  0.2691 -0.5312
  722MOL0     C97354   3.323   2.313   1.414  0.6914 -0.5290  0.0773
  722MOL0     C97355   3.360   2.247   1.552  0.0273 -0.1490  0.1240
  722MOL0     C97356   3.437   2.126   1.536  0.4025 -0.5178 -0.2112
  722MOL0     C97357   3.576   2.141   1.599 -0.9417 -0.9861  0.1697
  722MOL0     C97358   3.667   2.217   1.503 -0.3219  0.1367  0.1341
  722MOL0     O97359   3.809   2.195   1.536  0.7855  0.1125  0.2473
  722MOL0     C97360   3.900   2.295   1.502 -0.3414  0.5572  0.6390
  722MOL0     C97361   4.020   2.279   1.570 -0.3924  0.1883 -0.4358
  722MOL0     C97362   4.125   2.377   1.553 -0.1956  0.0085  0.4716
  722MOL0     C97363   4.257   2.355   1.622  0.7679 -0.3175  0.6051
  722MOL0     C97364   4.107   2.487   1.478  0.5822 -0.8742  0.1216
  722MOL0     C97365   4.209   2.593   1.455  0.6542 -0.0331  0.2216
  722MOL0     O97366   4.215   2.647   1.330 -0.1686  0.0674  0.2944
  722MOL0     C97367   4.283   2.769   1.293  0.1524 -0.9942  0.7703
  722MOL0     C97368   4.285   2.822   1.163 -0.0566 -0.5394  0.6346
  722MOL0     C97369   4.362   2.928   1.117  0.0587  0.5107 -0.0667
  722MOL0     C97370   4.451   2.987   1.203 -0.2521  0.3648  0.2915
  722MOL0     O97371   4.525   3.090   1.156 -0.2221  0.4636 -0.5368
  722MOL0     C97372   4.666   3.086   1.191 -0.0184  0.1376 -1.0159
  722MOL0     C97373   4.757   3.180   1.112  0.8324  0.1956 -0.1809
  722MOL0     C97374   4.769   3.142   0.960  1.0774  0.4952  0.1616
  722MOL0     C97375   4.921   3.117   0.931 -0.3730 -0.8958 -0.2705
  722MOL0     C97376   4.954   3.138   0.778 -0.7302 -0.4205  0.6315
  722MOL0     C97377   5.101   3.170   0.743 -0.4765  1.4671 -0.1368
  722MOL0     C97378   5.119   3.173   0.597  0.0242 -0.1396 -0.2811
  722MOL0     C97379   5.261   3.166   0.547  0.7011  0.8042 -0.6351
  722MOL0    Cl97380   5.343   3.311   0.609  0.1300 -0.1163 -0.1785
  722MOL0     C97381   4.453   2.944   1.339 -0.0609  0.3754  0.1986
  722MOL0     C97382   4.380   2.832   1.380  0.7937  0.1741 -0.0181
  722MOL0     O97383   4.262   2.636   1.553 -0.8013 -0.1421 -0.2103
  722MOL0     C97384   3.989   2.504   1.407  0.2392 -0.5269  0.3417
  722MOL0     C97385   3.883   2.412   1.420  0.2246  0.1171  0.4883
  722MOL0     N97386   3.403   2.338   1.309 -0.3164 -0.3688  0.6715
  722MOL0     N97387   3.333   2.390   1.218  1.4362 -0.9562 -0.0787
  722MOL0     C97388   2.893   1.446   1.196 -0.1329 -0.4794  0.8249
  722MOL0     C97389   2.867   1.362   1.295 -0.3523 -0.3971  0.0393
  722MOL0     C97390   2.734   1.018   1.532  0.1712  0.0469 -0.2461
  722MOL0     C97391   2.798   1.044   1.661  0.3592 -0.2791 -0.4043
  722MOL0     C97392   2.817   0.939   1.753  0.2919  0.2277 -0.6140
  722MOL0     C97393   2.764   0.819   1.732  0.7261  0.7009  0.9551
  722MOL0     O97394   2.765   0.730   1.844  0.7545  0.4196 -0.1528
  722MOL0     C97395   2.662   0.632   1.857 -0.6385  0.2018  0.8406
  722MOL0     C97396   2.536   0.681   1.929  0.8409 -0.5957 -0.3067
  722MOL0     C97397   2.498   0.831   1.910 -0.0328  0.1173  0.7591
  722MOL0     C97398   2.360   0.877   1.959 -0.3384 -0.5327  0.0127
  722MOL0     C97399   2.360   0.856   2.106 -0.4883  0.0644  0.1430
  722MOL0     C97400   2.365   0.829   2.225 -0.2207 -0.3103  0.1526
  722MOL0     C97401   2.720   0.785   1.602  0.0528  0.5662 -0.9542
  722MOL0     C97402   2.700   0.884   1.507  0.5440  0.1968 -0.0126
  722MOL0     H97403   2.528   1.347   1.317 -0.0933 -0.4539  0.2316
  722MOL0     H97404   2.575   1.496   1.110  2.2277  2.7176 -1.4758
  722MOL0     H97405   2.935   1.705   1.149 -0.5030  2.6289  0.6025
  722MOL0     H97406   2.966   1.670   0.978  1.8558  0.6022  0.3010
  722MOL0     H97407   2.805   1.828   0.918  2.3746 -0.7151 -0.7220
  722MOL0     H97408   2.729   1.855   1.076 -0.4139  0.9268 -1.2932
  722MOL0     H97409   2.958   1.961   1.140 -0.4384 -0.3310  1.3427
  722MOL0     H97410   3.022   1.908   0.978 -1.0963  1.9066 -1.3775
  722MOL0     H97411   2.873   2.062   0.878 -0.3186  2.8638 -0.3506
  722MOL0     H97412   2.773   2.081   1.023 -0.9832 -2.8944 -3.3288
  722MOL0     H97413   3.063   2.187   0.998 -1.1198 -0.3390 -4.2646
  722MOL0     H97414   2.921   2.276   0.967 -0.6776  0.2259 -0.7687
  722MOL0     H97415   2.837   2.212   1.218 -0.7292  2.6728 -0.1343
  722MOL0     H97416   3.017   2.187   1.227  1.0850 -2.7779 -2.5664
  722MOL0     H97417   2.885   2.434   1.126  0.2531 -3.1434 -1.9083
  722MOL0     H97418   2.908   2.405   1.297 -4.0190  0.4323 -1.2185
  722MOL0     H97419   3.090   2.559   1.192  3.0166  0.4433  2.1242
  722MOL0     H97420   3.113   2.429   1.071 -1.3338  1.3328 -0.4773
  722MOL0     H97421   3.108   2.320   1.438 -0.1770 -1.3324 -0.8536
  722MOL0     H97422   3.404   2.322   1.618  1.6425 -0.0218 -1.0256
  722MOL0     H97423   3.280   2.227   1.623 -0.0934  1.6874  0.5661
  722MOL0     H97424   3.456   2.095   1.433 -0.3764  2.2040 -1.2562
  722MOL0     H97425   3.379   2.041   1.574  1.3685 -1.0187  0.1977
  722MOL0     H97426   3.628   2.046   1.617  0.7939 -0.0256  0.4810
  722MOL0     H97427   3.578   2.178   1.702 -1.3445 -3.9640  1.3489
  722MOL0     H97428   3.631   2.320   1.503 -0.4016  0.1174  0.8556
  722MOL0     H97429   3.644   2.184   1.402  0.3769  2.5205 -0.8587
  722MOL0     H97430   4.045   2.191   1.627 -2.7036 -1.6668 -2.1038
  722MOL0     H97431   4.283   2.432   1.695 -1.6610  2.4826 -1.2147
  722MOL0     H97432   4.253   2.262   1.679 -0.6314 -0.7477 -0.1140
  722MOL0     H97433   4.327   2.351   1.538 -2.4560 -0.9299 -2.3021
  722MOL0     H97434   4.215   2.783   1.090 -0.2475  2.2715 -0.8193
  722MOL0     H97435   4.341   2.974   1.021  2.1343 -1.6478 -1.6474
  722MOL0     H97436   4.682   3.121   1.293  1.9851 -1.9262 -0.5490
  722MOL0     H97437   4.716   2.988   1.194 -0.0708  0.1183  1.6485
  722MOL0     H97438   4.720   3.283   1.115  0.7155  0.1397  0.3273
  722MOL0     H97439   4.848   3.177   1.171  1.5189  0.6326 -1.1829
  722MOL0     H97440   4.724   3.221   0.900  2.4292  0.2856 -1.1670
  722MOL0     H97441   4.715   3.049   0.936 -1.4653  1.4556  1.7491
  722MOL0     H97442   4.981   3.193   0.983 -1.7605  0.3212 -0.3766
  722MOL0     H97443   4.958   3.020   0.965  2.0604  0.5219  1.4500
  722MOL0     H97444   4.891   3.219   0.740 -0.1996 -0.3286 -0.0746
  722MOL0     H97445   4.934   3.048   0.719  3.1309 -0.9523 -0.1023
  722MOL0     H97446   5.132   3.270   0.774  1.5104  0.8032  0.2208
  722MOL0     H97447   5.168   3.106   0.802 -1.3556  0.4784 -0.1777
  722MOL0     H97448   5.064   3.255   0.550 -1.0384 -0.7229 -0.0680
  722MOL0     H97449   5.074   3.087   0.546  0.7088  0.6584 -2.3583
  722MOL0     H97450   5.273   3.163   0.438 -0.0617  0.5510 -0.7140
  722MOL0     H97451   5.306   3.073   0.583 -1.6305  1.0625  3.6355
  722MOL0     H97452   4.521   3.002   1.400  0.1034  0.0532  0.3211
  722MOL0     H97453   4.399   2.804   1.483  0.1846 -3.6475 -0.7856
  722MOL0     H97454   3.977   2.590   1.342 -2.1874 -0.9937  0.1000
  722MOL0     H97455   3.796   2.424   1.357  0.3493  2.4912  0.6754
  722MOL0     H97456   2.997   1.472   1.179 -1.0097  2.0060 -1.6567
  722MOL0     H97457   2.961   1.322   1.333  0.3959  1.8093  0.6303
  722MOL0     H97458   2.837   1.143   1.679 -3.7230  1.8051 -1.6824
  722MOL0     H97459   2.865   0.961   1.848 -2.6431 -0.1725  1.0699
  722MOL0     H97460   2.639   0.570   1.770 -0.9902  2.8053 -1.0359
  722MOL0     H97461   2.709   0.561   1.926  1.3116  3.4629  3.1368
  722MOL0     H97462   2.547   0.668   2.037 -1.7161  1.5518  0.3358
  722MOL0     H97463   2.451   0.624   1.890  0.0966  0.7009 -0.6428
  722MOL0     H97464   2.495   0.848   1.802 -1.0947  5.6285  1.3555
  722MOL0     H97465   2.583   0.877   1.961 -2.1434  2.7801  2.1828
  722MOL0     H97466   2.285   0.816   1.911 -0.7941 -0.8291  1.0717
  722MOL0     H97467   2.336   0.981   1.936 -1.6595 -0.7179  0.5005
  722MOL0     H97468   2.361   0.794   2.326  1.0410  1.6711  0.9468
  722MOL0     H97469   2.689   0.682   1.586 -1.2850  0.8640 -0.4110
  722MOL0     H97470   2.649   0.865   1.414  0.7532 -0.5144  0.0107
  723MOL0     O97471   3.978   7.418   3.074  0.2832 -0.1514 -0.2226
  723MOL0     C97472   4.023   7.324   3.140 -0.5247  0.9011  0.0933
  723MOL0     O97473   3.942   7.234   3.212 -0.2638  0.1497 -0.1891
  723MOL0     C97474   3.807   7.225   3.182  0.2243  1.4549  0.1737
  723MOL0     C97475   3.758   7.120   3.097  0.1307 -0.0447  0.4425
  723MOL0     C97476   3.627   7.112   3.058  0.6904  0.3369 -0.7306
  723MOL0     C97477   3.539   7.216   3.104 -0.2596 -0.2239 -1.2745
  723MOL0     O97478   3.401   7.207   3.075  0.6187 -0.3322  0.3709
  723MOL0     C97479   3.351   7.094   3.002 -0.1627 -0.3025 -0.4736
  723MOL0     C97480   3.194   7.107   3.000  0.1505  0.6893 -0.4757
  723MOL0     C97481   3.119   6.979   2.988  0.1639 -0.1541 -0.5534
  723MOL0     C97482   2.968   6.995   2.969 -0.4315  0.8972  0.6881
  723MOL0     C97483   2.882   6.863   2.951 -0.3601  0.8587  1.1054
  723MOL0     C97484   2.894   6.761   3.068 -0.2662 -0.3930  0.5417
  723MOL0     C97485   2.780   6.660   3.056 -0.4987 -0.5366 -1.0171
  723MOL0     C97486   2.649   6.709   3.125  0.5373  0.5619 -0.1940
  723MOL0     N97487   2.546   6.601   3.093 -0.8078 -0.3690 -0.9560
  723MOL0     C97488   2.504   6.502   3.179 -0.5160 -0.2686  0.6936
  723MOL0     C97489   2.412   6.439   3.100 -0.0022  0.4003 -0.7994
  723MOL0     C97490   2.315   6.322   3.136 -0.3615 -0.0599 -0.6346
  723MOL0     C97491   2.356   6.191   3.078  0.4785  0.5966 -0.6309
  723MOL0     C97492   2.465   6.121   3.160  1.0616  0.2851  0.3787
  723MOL0     C97493   2.530   6.002   3.090 -0.4597 -0.3864 -0.5490
  723MOL0     O97494   2.571   6.037   2.954 -0.0118 -0.6089  0.9041
  723MOL0     C97495   2.695   6.106   2.951  0.7326 -0.1871 -0.0217
  723MOL0     C97496   2.806   6.025   2.967 -0.5578 -0.0189 -0.2125
  723MOL0     C97497   2.928   6.093   2.987  0.4402  0.8569 -1.2752
  723MOL0     C97498   3.037   5.999   3.041 -0.1452  0.3182 -0.0516
  723MOL0     C97499   2.935   6.228   2.959 -0.1896 -0.5841 -0.4723
  723MOL0     C97500   3.060   6.306   2.960 -0.1732 -0.0446  0.4025
  723MOL0     O97501   3.047   6.442   2.976  0.0147  0.4468 -0.1127
  723MOL0     C97502   3.156   6.522   2.951 -0.3372  0.5905  0.1319
  723MOL0     C97503   3.165   6.599   2.835  0.0223 -0.0171  0.8212
  723MOL0     C97504   3.264   6.695   2.818 -0.1414  0.2244  0.3161
  723MOL0     C97505   3.366   6.714   2.912  0.6579 -0.8286 -0.3799
  723MOL0     O97506   3.476   6.793   2.900  0.6507 -0.1799  0.0448
  723MOL0     C97507   3.515   6.830   2.767  0.3397 -0.7922  0.0039
  723MOL0     C97508   3.665   6.860   2.768 -0.3370 -0.5573 -0.4791
  723MOL0     C97509   3.744   6.740   2.808 -0.1858 -0.4612  0.0440
  723MOL0     C97510   3.903   6.766   2.811  0.8282  0.1709 -0.1771
  723MOL0     C97511   3.984   6.655   2.894  0.5329 -0.2239 -0.3412
  723MOL0     C97512   3.969   6.671   3.046  0.6877  0.2647  0.2286
  723MOL0     C97513   4.045   6.567   3.137 -0.1291  0.4988 -0.2246
  723MOL0     C97514   4.023   6.577   3.283  0.1507  0.2534 -0.0631
  723MOL0    Cl97515   4.122   6.473   3.393  0.0987 -0.3065  0.5970
  723MOL0     C97516   3.371   6.630   3.021  0.1293 -0.2970 -1.0760
  723MOL0     C97517   3.266   6.535   3.042 -0.4117 -0.6825 -0.8913
  723MOL0     O97518   3.161   6.242   2.939 -0.4506 -0.1505 -0.1799
  723MOL0     C97519   2.817   6.297   2.939 -0.8903 -0.9818 -1.2093
  723MOL0     C97520   2.696   6.236   2.924  0.2501 -0.2334 -0.9823
  723MOL0     N97521   2.419   6.496   2.978  0.6131 -0.9880  0.4654
  723MOL0     N97522   2.500   6.594   2.968  0.2799  0.4225 -1.0374
  723MOL0     C97523   3.591   7.323   3.192  0.4758  0.6140 -0.1232
  723MOL0     C97524   3.722   7.325   3.226 -0.5415  0.1848 -0.1032
  723MOL0     C97525   4.176   7.303   3.154 -0.1150 -0.4054 -0.0534
  723MOL0     C97526   4.225   7.189   3.228 -0.2468  0.0317  0.2240
  723MOL0     C97527   4.359   7.151   3.220  0.1033 -0.4054 -0.3092
  723MOL0     C97528   4.450   7.238   3.154 -0.9988  0.4461 -0.0882
  723MOL0     O97529   4.589   7.216   3.142  0.6639 -0.0154  0.4716
  723MOL0     C97530   4.660   7.099   3.183 -1.0005  0.7278 -0.2573
  723MOL0     C97531   4.647   6.976   3.085  1.0341 -0.0361 -0.5629
  723MOL0     C97532   4.750   6.852   3.115  0.1334 -0.9600  1.2005
  723MOL0     C97533   4.745   6.800   3.260  0.7442  0.1879  0.0738
  723MOL0     C97534   4.785   6.659   3.266 -0.9747 -0.1424  0.1317
  723MOL0     C97535   4.840   6.551   3.279  0.2083 -1.1230 -0.8320
  723MOL0     C97536   4.408   7.356   3.105 -0.4079 -0.2762 -0.1442
  723MOL0     C97537   4.275   7.391   3.104  1.1053 -0.3313 -0.3051
  723MOL0     H97538   3.825   7.048   3.051 -0.0104 -0.7465  1.3229
  723MOL0     H97539   3.602   7.034   2.987 -0.8275  0.6161 -0.5304
  723MOL0     H97540   3.383   7.089   2.898  1.8766 -3.4091  0.1943
  723MOL0     H97541   3.385   6.998   3.043 -1.8340 -0.9517 -0.5315
  723MOL0     H97542   3.164   7.163   3.089 -2.3031 -0.3148 -0.6014
  723MOL0     H97543   3.174   7.179   2.919 -1.1523  0.4419 -0.4034
  723MOL0     H97544   3.163   6.921   2.906 -1.2549 -0.8792 -0.8425
  723MOL0     H97545   3.132   6.926   3.083 -1.3210  2.0586  0.9947
  723MOL0     H97546   2.928   7.042   3.059 -1.1570 -0.2117  0.9689
  723MOL0     H97547   2.946   7.061   2.886 -1.4312 -0.5980 -0.2901
  723MOL0     H97548   2.779   6.888   2.927 -0.4515 -0.3379  0.1506
  723MOL0     H97549   2.926   6.807   2.867 -0.9750  2.1992 -0.1448
  723MOL0     H97550   2.987   6.706   3.054 -0.9219 -1.1199 -1.4268
  723MOL0     H97551   2.890   6.815   3.163 -2.9847 -0.0860  0.3564
  723MOL0     H97552   2.760   6.635   2.952  0.3863 -0.0946 -1.3119
  723MOL0     H97553   2.803   6.565   3.105  0.7244 -0.0293 -0.5496
  723MOL0     H97554   2.612   6.804   3.085 -1.7634 -0.8894 -1.7358
  723MOL0     H97555   2.655   6.699   3.234 -3.6615 -4.7147 -0.0068
  723MOL0     H97556   2.547   6.477   3.276 -2.9909 -1.4816  1.5878
  723MOL0     H97557   2.307   6.321   3.245  2.1203  0.1360 -0.3933
  723MOL0     H97558   2.215   6.349   3.100  0.8581  1.6789 -2.9796
  723MOL0     H97559   2.381   6.199   2.972  0.0902 -3.4265 -1.1874
  723MOL0     H97560   2.268   6.128   3.092 -0.4292  1.7719 -0.8861
  723MOL0     H97561   2.424   6.081   3.253  3.3739 -1.2647  0.8025
  723MOL0     H97562   2.541   6.197   3.181  2.7553 -0.9047 -1.2101
  723MOL0     H97563   2.446   5.932   3.080  0.4013 -1.4992 -0.1865
  723MOL0     H97564   2.606   5.947   3.145 -1.6740 -2.5905 -0.9656
  723MOL0     H97565   2.787   5.918   2.969  1.6705 -0.4709  0.4709
  723MOL0     H97566   3.008   5.905   3.089  2.3518 -0.9201 -0.8166
  723MOL0     H97567   3.104   5.965   2.962  0.4220 -1.8206  1.2797
  723MOL0     H97568   3.099   6.050   3.114 -0.9563  1.3146 -0.0375
  723MOL0     H97569   3.094   6.570   2.758  0.7648  0.1634  0.0632
  723MOL0     H97570   3.265   6.756   2.729  3.3112  0.5996  0.4500
  723MOL0     H97571   3.501   6.743   2.701  2.4377 -1.5486  0.4899
  723MOL0     H97572   3.444   6.911   2.746  2.8018  1.1328 -1.3785
  723MOL0     H97573   3.689   6.902   2.670 -0.8436  2.8645  0.7252
  723MOL0     H97574   3.679   6.939   2.842  0.1921  0.0046 -1.1691
  723MOL0     H97575   3.724   6.663   2.732 -0.0153 -1.6662  1.1894
  723MOL0     H97576   3.708   6.706   2.905  0.5785  0.6019  0.7209
  723MOL0     H97577   3.951   6.776   2.714  1.4650  3.4865  0.3733
  723MOL0     H97578   3.912   6.863   2.860 -0.8475  0.9581 -1.3010
  723MOL0     H97579   4.092   6.669   2.882  0.6936 -2.1400 -1.5819
  723MOL0     H97580   3.962   6.550   2.872  0.9924 -0.0996 -1.4849
  723MOL0     H97581   3.995   6.773   3.078  1.9013  0.7757 -2.1636
  723MOL0     H97582   3.866   6.664   3.082  0.4158  0.8470 -0.4134
  723MOL0     H97583   4.153   6.581   3.132 -0.4227  2.9803 -0.8186
  723MOL0     H97584   4.026   6.466   3.100  1.0528  0.8719 -1.9457
  723MOL0     H97585   3.918   6.556   3.304  0.4596 -0.4668  0.8386
  723MOL0     H97586   4.053   6.679   3.310  1.9562 -0.1607 -0.3565
  723MOL0     H97587   3.465   6.640   3.075  0.7845  0.1540 -2.2528
  723MOL0     H97588   3.262   6.476   3.133  0.0846  2.2040  1.1564
  723MOL0     H97589   2.817   6.405   2.929 -1.0926 -0.8275  0.2781
  723MOL0     H97590   2.604   6.292   2.918  1.0602  1.7379  2.3973
  723MOL0     H97591   3.519   7.395   3.228 -0.0474  0.8705 -1.5853
  723MOL0     H97592   3.767   7.404   3.286  0.2170  0.1040 -0.5428
  723MOL0     H97593   4.168   7.121   3.291  1.9349  0.4538  2.8027
  723MOL0     H97594   4.390   7.063   3.275  2.2411  1.2985  1.3876
  723MOL0     H97595   4.760   7.139   3.164 -0.1487 -0.9471  0.4567
  723MOL0     H97596   4.646   7.076   3.289  0.7616  1.3971  0.1521
  723MOL0     H97597   4.668   7.014   2.985  0.9865 -0.2909 -0.6712
  723MOL0     H97598   4.544   6.942   3.073  1.2509 -1.4949  1.1544
  723MOL0     H97599   4.850   6.891   3.090 -2.2048  3.0065 -3.7413
  723MOL0     H97600   4.732   6.772   3.044  0.4829 -0.0655  0.0643
  723MOL0     H97601   4.644   6.806   3.299  0.6266  0.5953 -0.2797
  723MOL0     H97602   4.806   6.860   3.328  2.8939 -1.8458  0.0698
  723MOL0     H97603   4.894   6.458   3.279  1.5838 -0.3845  0.9999
  723MOL0     H97604   4.479   7.427   3.063 -1.1343  0.3901 -0.2609
  723MOL0     H97605   4.242   7.476   3.045  0.0317  0.6896  1.6917
  724MOL0     O97606   2.892   1.537   4.693 -1.0108  0.5003 -0.3157
  724MOL0     C97607   2.906   1.650   4.650 -0.8282 -0.8055  0.1577
  724MOL0     O97608   2.892   1.697   4.527 -0.0913 -0.4856  0.2945
  724MOL0     C97609   2.854   1.616   4.420  0.2246 -0.3270  0.3376
  724MOL0     C97610   2.729   1.575   4.384  0.2717  1.5440 -0.3186
  724MOL0     C97611   2.706   1.518   4.255 -0.3407  0.0888  0.2462
  724MOL0     C97612   2.809   1.490   4.163  0.0531  0.4380  0.1551
  724MOL0     O97613   2.784   1.451   4.036  0.6084 -0.0368  1.0603
  724MOL0     C97614   2.885   1.497   3.939 -0.9401 -1.4405  0.5899
  724MOL0     C97615   2.898   1.647   3.894  0.9048 -0.1215  0.3009
  724MOL0     C97616   2.955   1.652   3.758  0.6860 -0.1703 -0.1812
  724MOL0     C97617   2.873   1.746   3.665 -0.3353 -0.7928 -0.5463
  724MOL0     C97618   2.878   1.731   3.509 -1.0966  1.0300  0.7749
  724MOL0     C97619   2.830   1.857   3.426  0.1096  0.3205  0.1791
  724MOL0     C97620   2.834   1.827   3.268 -0.3850  0.7871  0.4633
  724MOL0     C97621   2.752   1.927   3.188  0.4216 -0.4421  0.2319
  724MOL0     N97622   2.741   1.904   3.038  0.0083 -0.2269 -0.8429
  724MOL0     C97623   2.781   1.997   2.950 -0.1897  0.1914  0.5774
  724MOL0     C97624   2.780   1.936   2.833  0.7154  0.0103 -0.1570
  724MOL0     C97625   2.803   1.978   2.697  0.5598 -0.1599  0.2960
  724MOL0     C97626   2.741   2.116   2.670 -1.3092  0.2862 -0.4276
  724MOL0     C97627   2.723   2.132   2.528  0.0152 -0.5418 -0.3193
  724MOL0     C97628   2.692   2.284   2.493  0.5621 -0.8155 -0.2785
  724MOL0     O97629   2.756   2.319   2.364 -0.2073  0.4053 -0.2007
  724MOL0     C97630   2.721   2.440   2.304  0.7578  0.1278 -0.4114
  724MOL0     C97631   2.763   2.456   2.176 -0.8545  1.2364  0.1131
  724MOL0     C97632   2.743   2.576   2.104  0.7748 -0.0419 -0.3000
  724MOL0     C97633   2.821   2.585   1.975 -0.1954  0.4896  1.1450
  724MOL0     C97634   2.684   2.690   2.176  0.3874  0.0878  0.3103
  724MOL0     C97635   2.656   2.818   2.121  0.6843 -0.8104  0.5769
  724MOL0     O97636   2.702   2.841   2.003 -0.6718  0.4401  0.2058
  724MOL0     C97637   2.690   2.953   1.916  0.5382  0.9207  0.3613
  724MOL0     C97638   2.566   3.026   1.898 -0.1180 -0.9778  0.7821
  724MOL0     C97639   2.559   3.139   1.812  0.0054  0.4693 -1.0663
  724MOL0     C97640   2.669   3.167   1.731 -0.5081  0.0376  0.5372
  724MOL0     O97641   2.676   3.269   1.643 -0.8567 -0.1947 -0.0089
  724MOL0     C97642   2.560   3.327   1.594 -0.3593 -0.3324 -0.5688
  724MOL0     C97643   2.605   3.427   1.494 -1.0546  1.0579 -0.1564
  724MOL0     C97644   2.634   3.553   1.560  0.3636 -0.1867 -0.0435
  724MOL0     C97645   2.720   3.641   1.472 -0.5092 -0.8942  0.5629
  724MOL0     C97646   2.714   3.787   1.532 -0.7155 -0.6798  0.0489
  724MOL0     C97647   2.803   3.881   1.438  0.6303  1.0309 -0.0133
  724MOL0     C97648   2.733   3.899   1.300  0.5338 -0.4603 -0.3467
  724MOL0     C97649   2.820   3.981   1.200  0.9072 -0.3632 -0.5806
  724MOL0    Cl97650   2.724   4.002   1.054  0.5539 -0.0785 -0.0709
  724MOL0     C97651   2.787   3.083   1.738  0.4508  0.4383  0.0696
  724MOL0     C97652   2.802   2.980   1.836  0.0248 -0.4037 -0.1916
  724MOL0     O97653   2.580   2.902   2.178  0.2546 -0.1127 -0.6751
  724MOL0     C97654   2.635   2.664   2.301  0.1617  0.2109 -0.0608
  724MOL0     C97655   2.657   2.544   2.368 -0.0691  0.5324 -0.5807
  724MOL0     N97656   2.748   1.801   2.855 -0.4266  0.1737  0.0016
  724MOL0     N97657   2.727   1.788   2.981 -0.0447  0.4818  0.5723
  724MOL0     C97658   2.933   1.526   4.216  0.6566 -0.5033 -0.3011
  724MOL0     C97659   2.957   1.590   4.337 -0.3400 -0.1910  0.6495
  724MOL0     C97660   2.934   1.757   4.751 -0.3315  0.0165  0.3163
  724MOL0     C97661   2.999   1.877   4.708  0.4029 -0.6535 -0.6653
  724MOL0     C97662   3.028   1.977   4.804 -1.0421  0.7812 -1.1112
  724MOL0     C97663   3.003   1.961   4.938  0.2160 -0.0665 -0.2193
  724MOL0     O97664   3.037   2.055   5.032 -0.0395 -0.0659  0.5376
  724MOL0     C97665   3.057   2.009   5.164 -0.1047  0.5741 -0.5332
  724MOL0     C97666   3.155   2.099   5.237  0.0533 -0.3063 -0.2291
  724MOL0     C97667   3.115   2.099   5.386  0.2008 -0.7098  0.4263
  724MOL0     C97668   3.022   2.209   5.410  0.1076  0.6341  0.7291
  724MOL0     C97669   2.972   2.189   5.549 -0.7957  1.1606 -0.2821
  724MOL0     C97670   2.960   2.177   5.674  0.5540 -0.0581  0.7444
  724MOL0     C97671   2.929   1.844   4.978  0.2716 -0.0960  0.2079
  724MOL0     C97672   2.905   1.744   4.883  0.6587  0.2119 -0.0529
  724MOL0     H97673   2.643   1.601   4.445  1.1631  4.0709 -0.0209
  724MOL0     H97674   2.605   1.493   4.224  0.6505 -0.1420 -3.1827
  724MOL0     H97675   2.988   1.464   3.955 -0.8827 -2.5803 -1.6423
  724MOL0     H97676   2.858   1.439   3.850  0.3529 -1.5080  0.2269
  724MOL0     H97677   2.798   1.691   3.905  1.9796  1.9669  2.7990
  724MOL0     H97678   2.960   1.701   3.966  0.8148 -0.7248  0.8346
  724MOL0     H97679   3.059   1.686   3.748  0.8451 -0.4744  0.3651
  724MOL0     H97680   2.949   1.555   3.709 -2.0633  0.1371 -0.5602
  724MOL0     H97681   2.766   1.728   3.680  0.0335 -2.4241  0.3171
  724MOL0     H97682   2.889   1.852   3.690 -0.7560 -0.2531 -2.4002
  724MOL0     H97683   2.978   1.705   3.476 -2.0181 -1.6282 -0.1826
  724MOL0     H97684   2.822   1.643   3.477 -3.0303  2.7041 -0.7635
  724MOL0     H97685   2.728   1.877   3.462  0.5559  1.0444  1.0857
  724MOL0     H97686   2.893   1.945   3.435 -0.3689  0.8563 -1.3751
  724MOL0     H97687   2.930   1.827   3.214 -0.2757 -5.0338  0.0562
  724MOL0     H97688   2.803   1.725   3.246  1.4438  0.0910  0.9197
  724MOL0     H97689   2.799   2.025   3.199 -1.3291  0.3082  1.2968
  724MOL0     H97690   2.658   1.918   3.243  0.7093  1.1280  1.0293
  724MOL0     H97691   2.810   2.100   2.967  0.3100  0.6114 -2.4126
  724MOL0     H97692   2.911   1.982   2.684  0.9197 -4.1877  0.6615
  724MOL0     H97693   2.759   1.902   2.632  0.4404  1.5485 -1.7116
  724MOL0     H97694   2.813   2.189   2.707 -2.9570  2.1276 -0.7040
  724MOL0     H97695   2.651   2.134   2.730 -0.3817 -3.3059  2.4390
  724MOL0     H97696   2.629   2.085   2.496  1.0822 -2.1331 -1.2170
  724MOL0     H97697   2.817   2.110   2.477  0.5977 -0.4838  0.7032
  724MOL0     H97698   2.740   2.341   2.573  1.4401 -2.4244  0.3875
  724MOL0     H97699   2.584   2.296   2.496  0.7672  1.2071  2.2254
  724MOL0     H97700   2.812   2.371   2.130 -0.2999 -0.0372  2.9023
  724MOL0     H97701   2.926   2.608   1.994  1.0246 -1.4398 -2.3404
  724MOL0     H97702   2.837   2.490   1.923 -0.9819  0.0080  1.7561
  724MOL0     H97703   2.780   2.654   1.901  3.7606  0.9627 -0.8670
  724MOL0     H97704   2.477   3.011   1.959  0.0833  2.4140  2.1223
  724MOL0     H97705   2.463   3.189   1.805  0.2590  1.2944  0.8886
  724MOL0     H97706   2.495   3.252   1.548 -3.7815  1.7444  0.5057
  724MOL0     H97707   2.496   3.376   1.669 -2.2456  1.0772 -2.9522
  724MOL0     H97708   2.693   3.390   1.439  1.3526  2.1793  2.6613
  724MOL0     H97709   2.521   3.433   1.426 -2.0374 -2.4228  0.5332
  724MOL0     H97710   2.700   3.518   1.641  0.3128 -0.3347 -0.0672
  724MOL0     H97711   2.546   3.606   1.596 -1.7260 -3.6767  0.4251
  724MOL0     H97712   2.827   3.621   1.461  0.4433  3.3424  0.4217
  724MOL0     H97713   2.673   3.651   1.374 -1.0584  1.3501  0.9907
  724MOL0     H97714   2.761   3.787   1.631  1.5387  2.6055 -0.8670
  724MOL0     H97715   2.612   3.821   1.553 -0.6705 -1.2606  1.2861
  724MOL0     H97716   2.798   3.982   1.481 -2.8184 -0.0256  2.5321
  724MOL0     H97717   2.905   3.845   1.422  0.0824 -0.1972 -0.9105
  724MOL0     H97718   2.636   3.949   1.305 -0.0660 -1.4002 -1.8125
  724MOL0     H97719   2.714   3.811   1.239  1.8353  0.7766 -2.6627
  724MOL0     H97720   2.918   3.936   1.182  0.6880 -0.4280 -1.7214
  724MOL0     H97721   2.833   4.084   1.235 -1.3607 -0.3277  0.3035
  724MOL0     H97722   2.877   3.103   1.680  1.2683 -1.5666  0.5950
  724MOL0     H97723   2.888   2.913   1.843  0.6684  0.4359  0.0214
  724MOL0     H97724   2.587   2.742   2.359  1.4824 -0.8919  2.6748
  724MOL0     H97725   2.621   2.544   2.470 -0.9962  2.0118 -0.8706
  724MOL0     H97726   3.026   1.503   4.166 -0.9218 -1.5098 -2.9522
  724MOL0     H97727   3.060   1.614   4.361 -0.0621 -0.8450  0.1496
  724MOL0     H97728   3.025   1.888   4.603 -1.1750 -0.9360 -1.1101
  724MOL0     H97729   3.068   2.068   4.763  1.5043  0.3306  0.1989
  724MOL0     H97730   2.962   2.016   5.218 -0.1113 -2.2914  0.0063
  724MOL0     H97731   3.085   1.903   5.160 -1.2711  0.2824 -2.7458
  724MOL0     H97732   3.142   2.201   5.198 -2.3456 -1.1811 -1.9152
  724MOL0     H97733   3.259   2.073   5.216  0.6955  2.0192 -0.2623
  724MOL0     H97734   3.203   2.096   5.450  1.1972 -1.5954 -0.9282
  724MOL0     H97735   3.080   1.999   5.411  0.7272 -1.1521 -0.5404
  724MOL0     H97736   2.949   2.199   5.329  1.0612  1.5778 -0.2666
  724MOL0     H97737   3.067   2.309   5.404  1.4469  0.0009 -0.1527
  724MOL0     H97738   2.950   2.177   5.781 -0.5763  0.6468  0.6554
  724MOL0     H97739   2.900   1.816   5.079  1.7419 -1.0142  0.4128
  724MOL0     H97740   2.864   1.652   4.923  0.3022  0.6794  0.6916
  725MOL0     O97741   6.248   6.554   7.870  0.5988 -0.0561  0.6175
  725MOL0     C97742   6.265   6.676   7.887 -0.3992  0.1624  0.0541
  725MOL0     O97743   6.172   6.765   7.926  0.4491  0.0427  0.7696
  725MOL0     C97744   6.045   6.712   7.915  0.1939  0.7667 -0.8325
  725MOL0     C97745   5.966   6.702   7.803 -0.2541 -0.8272  0.4775
  725MOL0     C97746   5.837   6.654   7.815  0.3001 -0.9658 -0.2517
  725MOL0     C97747   5.787   6.596   7.937 -0.2017 -0.3714  0.7093
  725MOL0     O97748   5.659   6.547   7.956 -0.2879  0.5750  0.3693
  725MOL0     C97749   5.556   6.575   7.859 -0.1303  0.4600 -0.7491
  725MOL0     C97750   5.445   6.470   7.869 -0.9918  0.9609 -0.4544
  725MOL0     C97751   5.313   6.481   7.780  0.1151 -0.0166 -1.1722
  725MOL0     C97752   5.332   6.423   7.634  0.6964  0.0711 -0.6285
  725MOL0     C97753   5.207   6.417   7.559 -0.4659  0.2461  0.0718
  725MOL0     C97754   5.238   6.395   7.404 -0.3751  0.5178  0.2087
  725MOL0     C97755   5.253   6.240   7.368  0.8170 -1.1316  0.3629
  725MOL0     C97756   5.398   6.180   7.389  0.0230 -0.2687  1.0453
  725MOL0     N97757   5.487   6.204   7.264  0.3669 -0.1046 -0.0340
  725MOL0     C97758   5.528   6.329   7.238  0.5306 -0.2130 -0.1841
  725MOL0     C97759   5.603   6.330   7.133 -0.2711 -0.6989  0.1835
  725MOL0     C97760   5.670   6.455   7.065 -1.2831 -0.0082 -0.7908
  725MOL0     C97761   5.576   6.523   6.963 -0.0284 -1.1187  0.7963
  725MOL0     C97762   5.615   6.663   6.920 -0.7277  0.1093  0.3944
  725MOL0     C97763   5.505   6.737   6.842 -0.7502 -0.9873 -0.3373
  725MOL0     O97764   5.556   6.867   6.783  0.4609 -0.5663  0.6285
  725MOL0     C97765   5.610   6.863   6.653 -1.1151  1.1340  1.1555
  725MOL0     C97766   5.650   6.733   6.591 -0.1365 -0.1896 -0.1249
  725MOL0     C97767   5.702   6.734   6.465 -0.0986  0.1160  0.8741
  725MOL0     C97768   5.748   6.596   6.415 -0.3748 -0.1805 -0.1058
  725MOL0     C97769   5.714   6.847   6.384  0.7234 -0.4717 -0.5690
  725MOL0     C97770   5.774   6.846   6.243 -0.5594 -0.5041  0.3590
  725MOL0     O97771   5.900   6.796   6.224  0.3007  0.2255 -0.1454
  725MOL0     C97772   5.962   6.825   6.116 -1.5908 -0.9206 -0.1164
  725MOL0     C97773   5.952   6.747   5.996 -1.0970  0.1056 -0.2058
  725MOL0     C97774   6.020   6.784   5.882  0.2470 -0.8104  0.0481
  725MOL0     C97775   6.098   6.901   5.875  1.0888  0.0661 -0.0429
  725MOL0     O97776   6.159   6.943   5.759 -0.2122  0.4103 -0.0532
  725MOL0     C97777   6.094   7.063   5.700 -0.3077  0.1916  0.3071
  725MOL0     C97778   6.151   7.077   5.556  1.3171 -0.1775 -0.7934
  725MOL0     C97779   6.301   7.113   5.579  0.9160 -0.1014  1.1946
  725MOL0     C97780   6.388   7.065   5.447 -0.3452  0.5912  0.2244
  725MOL0     C97781   6.514   7.153   5.431 -0.3738  0.0459  0.4573
  725MOL0     C97782   6.606   7.075   5.345 -0.4260 -0.1362 -0.0619
  725MOL0     C97783   6.711   7.171   5.295  0.0040 -0.3701 -0.3797
  725MOL0     C97784   6.824   7.185   5.407  1.0655  0.0667  0.9561
  725MOL0    Cl97785   6.922   7.330   5.362  0.1272 -0.2049  0.1609
  725MOL0     C97786   6.104   6.980   5.985 -0.2852  0.8894 -0.0307
  725MOL0     C97787   6.039   6.943   6.109 -0.2347  0.1514  0.1121
  725MOL0     O97788   5.704   6.900   6.155 -0.2205 -0.5553 -0.1382
  725MOL0     C97789   5.668   6.969   6.437  0.4822  0.0619  0.1864
  725MOL0     C97790   5.625   6.976   6.569  0.5442  0.7036  0.0471
  725MOL0     N97791   5.601   6.200   7.082 -0.1963 -0.3160 -0.2807
  725MOL0     N97792   5.519   6.132   7.158  0.9141  0.0222 -0.5132
  725MOL0     C97793   5.864   6.607   8.054  0.1165 -0.0614 -1.3647
  725MOL0     C97794   5.993   6.656   8.035 -0.4304 -0.6161 -0.5041
  725MOL0     C97795   6.405   6.733   7.865  0.9446  0.1987  0.3922
  725MOL0     C97796   6.412   6.886   7.854 -0.5540 -0.4748 -0.2034
  725MOL0     C97797   6.539   6.951   7.816 -0.3098  0.1522 -0.1449
  725MOL0     C97798   6.651   6.873   7.795  0.7368 -0.2366  0.4032
  725MOL0     O97799   6.765   6.937   7.772  0.1610  0.2380  0.2049
  725MOL0     C97800   6.859   6.865   7.703  0.1551  0.3862 -0.5515
  725MOL0     C97801   6.959   6.959   7.647  0.5883  0.0781 -0.5374
  725MOL0     C97802   7.021   7.034   7.772  0.0234  0.1437 -0.3336
  725MOL0     C97803   7.149   7.104   7.734  0.9428  0.3920  0.0277
  725MOL0     C97804   7.138   7.188   7.611  1.1865  0.9067 -0.1635
  725MOL0     C97805   7.139   7.266   7.515 -0.9372  0.4980  0.4450
  725MOL0     C97806   6.634   6.737   7.796 -0.1132 -0.0112  1.0965
  725MOL0     C97807   6.523   6.661   7.830  0.2707 -0.1505 -0.4188
  725MOL0     H97808   6.007   6.744   7.712 -1.8228 -1.1098 -0.3951
  725MOL0     H97809   5.781   6.646   7.722  3.8525 -1.5572 -2.5533
  725MOL0     H97810   5.522   6.677   7.875  0.1633  0.6560 -1.3283
  725MOL0     H97811   5.594   6.573   7.756 -0.8952 -5.0981 -1.2438
  725MOL0     H97812   5.482   6.368   7.856  1.5222  1.4000  2.2832
  725MOL0     H97813   5.411   6.467   7.973  1.5095 -0.4595  0.3888
  725MOL0     H97814   5.240   6.423   7.837  2.4032 -0.0960  1.9126
  725MOL0     H97815   5.281   6.586   7.777 -0.5678 -0.2273 -1.3598
  725MOL0     H97816   5.412   6.479   7.585 -0.3097  3.2910  1.1178
  725MOL0     H97817   5.369   6.322   7.656 -0.2405  0.1237  1.4279
  725MOL0     H97818   5.136   6.344   7.600 -2.7769  2.7346  0.8332
  725MOL0     H97819   5.156   6.513   7.549  0.6858  0.7238 -1.6753
  725MOL0     H97820   5.154   6.434   7.346  0.1128  0.8497 -0.2844
  725MOL0     H97821   5.324   6.460   7.384 -0.6078  2.0072  3.3335
  725MOL0     H97822   5.179   6.193   7.432 -1.4716  2.1445  0.3585
  725MOL0     H97823   5.219   6.225   7.265 -0.6310  2.1283  0.2452
  725MOL0     H97824   5.379   6.073   7.397  0.1165 -0.7179 -2.8741
  725MOL0     H97825   5.454   6.218   7.475  1.0295 -1.4953  0.9534
  725MOL0     H97826   5.519   6.415   7.303 -0.8100  0.9330 -1.8054
  725MOL0     H97827   5.692   6.519   7.151 -1.3078 -2.8897  1.5311
  725MOL0     H97828   5.765   6.427   7.017  0.0898  1.9838  0.6218
  725MOL0     H97829   5.479   6.542   7.011 -1.1427  1.1951 -2.0780
  725MOL0     H97830   5.557   6.459   6.877  3.2777  1.7637 -2.4354
  725MOL0     H97831   5.702   6.649   6.855 -2.8480 -2.8200 -2.1596
  725MOL0     H97832   5.636   6.715   7.014 -1.7300 -1.0821  1.3112
  725MOL0     H97833   5.424   6.757   6.913 -1.4208  0.0369 -1.3708
  725MOL0     H97834   5.460   6.672   6.766 -2.2726  1.7390 -1.9498
  725MOL0     H97835   5.653   6.638   6.644 -1.3321 -1.4333 -2.1529
  725MOL0     H97836   5.690   6.566   6.327  1.8085  0.6520 -1.9172
  725MOL0     H97837   5.856   6.604   6.401 -0.3921  1.8642  0.5894
  725MOL0     H97838   5.737   6.515   6.488 -3.3907  0.8414  0.7229
  725MOL0     H97839   5.897   6.654   6.007  0.4086 -1.2958 -3.3653
  725MOL0     H97840   6.007   6.714   5.800  0.6326 -1.1847  0.3049
  725MOL0     H97841   5.986   7.050   5.697 -0.4023  1.1262 -1.4761
  725MOL0     H97842   6.113   7.153   5.760 -0.5718 -0.7511  1.8635
  725MOL0     H97843   6.143   6.987   5.494 -1.3077  0.2057 -1.1353
  725MOL0     H97844   6.102   7.160   5.503  1.8850 -0.0509 -1.1222
  725MOL0     H97845   6.354   7.061   5.660  2.3036 -3.8024 -1.7380
  725MOL0     H97846   6.308   7.222   5.582  0.3166  0.0442 -0.9694
  725MOL0     H97847   6.427   6.963   5.452  0.5112  0.7842 -1.5695
  725MOL0     H97848   6.329   7.074   5.355  1.9267  0.9335 -1.2828
  725MOL0     H97849   6.541   7.174   5.534 -0.1899  0.0849  0.4018
  725MOL0     H97850   6.482   7.249   5.390  0.8165  1.2901  2.3038
  725MOL0     H97851   6.650   6.989   5.397  0.4370  1.2375  1.5729
  725MOL0     H97852   6.555   7.036   5.257  2.0642 -3.0963 -0.3615
  725MOL0     H97853   6.661   7.266   5.272 -1.3926 -1.3185 -1.4174
  725MOL0     H97854   6.754   7.132   5.203 -2.2000 -0.4725 -1.4232
  725MOL0     H97855   6.879   7.092   5.391  2.4112  0.9776  0.1074
  725MOL0     H97856   6.787   7.196   5.509 -0.8654  1.0690  0.1962
  725MOL0     H97857   6.172   7.065   5.980  2.2202 -0.9666  0.5973
  725MOL0     H97858   6.050   6.994   6.205 -0.7920  3.6589 -1.5199
  725MOL0     H97859   5.677   7.062   6.382 -0.3410 -0.0984 -0.2359
  725MOL0     H97860   5.579   7.070   6.599 -3.4510 -1.1931  0.5260
  725MOL0     H97861   5.840   6.572   8.153  0.9258  2.7231 -0.1036
  725MOL0     H97862   6.058   6.651   8.122 -2.2277  0.4749  0.9584
  725MOL0     H97863   6.342   6.962   7.888 -0.7352 -1.3705  1.4975
  725MOL0     H97864   6.549   7.059   7.816 -0.7614  0.2083 -1.2709
  725MOL0     H97865   6.907   6.799   7.775 -2.9151 -0.1317  1.1672
  725MOL0     H97866   6.814   6.799   7.628  1.7573  1.7548 -2.8641
  725MOL0     H97867   6.909   7.022   7.572  1.8849  2.7268  0.6823
  725MOL0     H97868   7.031   6.904   7.586  0.5408 -0.0819 -0.4479
  725MOL0     H97869   7.048   6.960   7.848  0.5088  0.2796 -0.3739
  725MOL0     H97870   6.949   7.098   7.823  0.7461 -1.2924  2.7050
  725MOL0     H97871   7.218   7.019   7.726 -0.8363 -1.3838  2.2031
  725MOL0     H97872   7.173   7.169   7.818  1.4733  0.2453 -0.0061
  725MOL0     H97873   7.130   7.328   7.428  0.7198  0.0642 -0.0609
  725MOL0     H97874   6.711   6.673   7.754 -0.7493  2.8166 -5.8060
  725MOL0     H97875   6.519   6.553   7.818  1.7079 -0.2812 -0.0068
  726MOL0     O97876   9.990   3.107   6.058 -0.6850  0.0907 -0.2596
  726MOL0     C97877  10.053   3.125   5.953 -0.4374  0.6816 -0.3079
  726MOL0     O97878  10.039   3.057   5.835  0.5997  0.1814  0.2639
  726MOL0     C97879   9.930   2.974   5.812 -1.2299  0.4768  0.4788
  726MOL0     C97880   9.950   2.894   5.701 -0.3657 -0.9354 -0.4764
  726MOL0     C97881   9.838   2.820   5.656 -1.0195 -0.3341 -0.1234
  726MOL0     C97882   9.708   2.836   5.710 -0.1972 -0.0312  0.3074
  726MOL0     O97883   9.613   2.753   5.659  0.4104  0.1623  0.1462
  726MOL0     C97884   9.503   2.823   5.596 -0.9885  0.7913  0.3052
  726MOL0     C97885   9.427   2.714   5.503 -0.0280 -0.9081  0.5896
  726MOL0     C97886   9.289   2.759   5.463 -0.2811  0.6240 -0.3386
  726MOL0     C97887   9.201   2.647   5.410 -0.1556  0.1050 -0.7282
  726MOL0     C97888   9.061   2.701   5.383 -0.4018 -0.4300  0.0861
  726MOL0     C97889   8.995   2.639   5.264 -0.0847 -0.3868 -0.1012
  726MOL0     C97890   8.867   2.731   5.230  0.6366  0.0463 -0.7099
  726MOL0     C97891   8.765   2.661   5.148  0.1050  0.5464  1.2601
  726MOL0     N97892   8.663   2.753   5.103  0.6950  0.0243  0.6346
  726MOL0     C97893   8.621   2.748   4.979  0.1029  0.5760  0.3477
  726MOL0     C97894   8.550   2.859   4.956  1.3673 -0.3066  0.0289
  726MOL0     C97895   8.475   2.878   4.836  0.3305 -0.0797  0.7101
  726MOL0     C97896   8.552   2.956   4.722 -0.9695  0.1271  0.6655
  726MOL0     C97897   8.473   2.949   4.589 -0.7454 -0.0229 -0.4047
  726MOL0     C97898   8.513   3.061   4.496  0.5360  0.2839 -0.6423
  726MOL0     O97899   8.457   3.020   4.372  0.4035 -0.3141 -0.2446
  726MOL0     C97900   8.525   2.933   4.290  0.6925  0.1680  0.5447
  726MOL0     C97901   8.458   2.891   4.178 -0.6594 -0.3899 -0.6547
  726MOL0     C97902   8.517   2.805   4.094 -0.3973 -0.5158  0.1824
  726MOL0     C97903   8.428   2.755   3.973  0.1541  1.4296 -0.7658
  726MOL0     C97904   8.656   2.771   4.112  0.1020  0.8747  0.6100
  726MOL0     C97905   8.729   2.689   4.019  0.4936 -0.6367  0.6364
  726MOL0     O97906   8.865   2.697   4.048 -0.1779 -0.3423  0.4282
  726MOL0     C97907   8.952   2.625   3.965  0.5399  0.4829 -0.3660
  726MOL0     C97908   8.936   2.489   3.926  0.3628 -0.2280  0.0179
  726MOL0     C97909   9.026   2.421   3.850 -0.4031  0.1483 -0.2015
  726MOL0     C97910   9.139   2.486   3.793  0.6240  0.2177  0.4844
  726MOL0     O97911   9.220   2.417   3.714 -0.4016  0.8478  0.4854
  726MOL0     C97912   9.254   2.462   3.578 -0.1097  0.6061  0.4239
  726MOL0     C97913   9.321   2.347   3.498 -0.0931 -0.0193 -0.0968
  726MOL0     C97914   9.218   2.254   3.447 -0.2382  0.3467 -0.3299
  726MOL0     C97915   9.275   2.126   3.375  0.0061  0.3700  1.1189
  726MOL0     C97916   9.167   2.035   3.311 -0.2110  0.2236  0.2429
  726MOL0     C97917   9.070   1.984   3.419  1.4466 -0.4975 -1.2103
  726MOL0     C97918   8.960   1.903   3.345  0.4982  0.2612 -0.1194
  726MOL0     C97919   8.850   1.855   3.432 -0.2585  0.3384  0.4001
  726MOL0    Cl97920   8.756   1.756   3.314  0.0886 -0.2499 -0.0621
  726MOL0     C97921   9.162   2.615   3.824  0.4828 -0.4708  0.1622
  726MOL0     C97922   9.076   2.676   3.917 -0.0408 -0.6582  0.1869
  726MOL0     O97923   8.672   2.631   3.935  0.2124  0.0578  0.5471
  726MOL0     C97924   8.719   2.802   4.227  1.2533  0.0974  0.7392
  726MOL0     C97925   8.653   2.884   4.323  0.0129 -0.0680  0.2261
  726MOL0     N97926   8.561   2.938   5.070 -0.7196  0.5040 -0.1834
  726MOL0     N97927   8.629   2.869   5.157  0.2050 -1.4844  0.2961
  726MOL0     C97928   9.690   2.924   5.812 -0.1919  0.0910 -0.8865
  726MOL0     C97929   9.806   2.983   5.867 -0.4408 -0.2190 -0.2677
  726MOL0     C97930  10.171   3.215   5.965  0.3444 -0.7975 -0.4383
  726MOL0     C97931  10.268   3.214   5.862 -0.0218  0.1613  1.2421
  726MOL0     C97932  10.380   3.296   5.855  0.3490 -0.3150 -0.7012
  726MOL0     C97933  10.389   3.399   5.954  0.0659  0.0381  0.1069
  726MOL0     O97934  10.475   3.495   5.939 -0.0380 -0.0346 -0.1544
  726MOL0     C97935  10.550   3.522   6.058  0.6218 -0.0495 -0.1252
  726MOL0     C97936  10.672   3.434   6.049 -0.5656  0.5112  0.7759
  726MOL0     C97937  10.752   3.477   5.926 -0.5558  0.6807  0.2057
  726MOL0     C97938  10.794   3.620   5.937 -0.4545 -1.3869 -0.4042
  726MOL0     C97939  10.874   3.644   6.061  0.7323  0.7173 -0.3343
  726MOL0     C97940  10.929   3.657   6.169 -0.4237  0.8229  0.1211
  726MOL0     C97941  10.303   3.389   6.069  0.5737 -0.7679  0.2967
  726MOL0     C97942  10.194   3.304   6.067  0.7035  0.4836 -0.0975
  726MOL0     H97943  10.048   2.914   5.659  0.6665  0.2316  2.2625
  726MOL0     H97944   9.851   2.766   5.563  0.1979 -2.9932  1.4663
  726MOL0     H97945   9.435   2.852   5.676  1.1669 -2.3470  3.5648
  726MOL0     H97946   9.532   2.920   5.555 -3.4159  2.3693  2.0187
  726MOL0     H97947   9.491   2.693   5.417 -1.6100 -1.8652 -0.4071
  726MOL0     H97948   9.421   2.615   5.549 -0.9260 -1.3338 -0.4061
  726MOL0     H97949   9.240   2.796   5.554  1.7082  0.4123  0.8766
  726MOL0     H97950   9.292   2.855   5.411 -1.4949  1.1280  0.4559
  726MOL0     H97951   9.240   2.619   5.311 -1.9312 -1.9682 -0.9209
  726MOL0     H97952   9.205   2.556   5.471  0.0155  3.1141  4.2424
  726MOL0     H97953   8.991   2.706   5.467  1.6217  0.9491  1.8007
  726MOL0     H97954   9.079   2.804   5.351 -0.5674 -0.3913  0.1189
  726MOL0     H97955   9.062   2.636   5.177  1.7903  2.4206  1.1002
  726MOL0     H97956   8.958   2.536   5.277 -0.9783 -0.2094 -1.1565
  726MOL0     H97957   8.821   2.751   5.327  1.7844 -1.9805  0.3342
  726MOL0     H97958   8.895   2.827   5.186 -1.4221  1.4419  0.8340
  726MOL0     H97959   8.718   2.600   5.225  0.5261  2.2029  2.9121
  726MOL0     H97960   8.809   2.601   5.068  0.4872  0.2265  1.7048
  726MOL0     H97961   8.635   2.668   4.907 -0.7302 -0.5649  1.3816
  726MOL0     H97962   8.461   2.779   4.791  1.4846 -0.3307  0.8615
  726MOL0     H97963   8.378   2.920   4.864 -0.6539 -1.0167 -1.1197
  726MOL0     H97964   8.655   2.919   4.711 -0.3453  1.8886  0.2380
  726MOL0     H97965   8.569   3.061   4.745  1.0452  0.7866 -3.0419
  726MOL0     H97966   8.365   2.945   4.607 -0.4048 -0.3248  1.9220
  726MOL0     H97967   8.489   2.851   4.544 -1.1403 -1.4265  2.2619
  726MOL0     H97968   8.621   3.078   4.501  0.1209  3.1222  1.4020
  726MOL0     H97969   8.474   3.157   4.532  4.7024  1.6414  0.7682
  726MOL0     H97970   8.360   2.937   4.168 -1.6297 -2.3947 -0.8822
  726MOL0     H97971   8.471   2.768   3.874 -0.3167 -1.4707 -1.4401
  726MOL0     H97972   8.420   2.647   3.987  0.6536  1.3720 -0.9077
  726MOL0     H97973   8.327   2.798   3.966 -1.1828 -1.4566 -0.8690
  726MOL0     H97974   8.855   2.439   3.977  0.6566  1.5647  2.4495
  726MOL0     H97975   9.011   2.315   3.833 -0.0313 -0.8393  4.3626
  726MOL0     H97976   9.163   2.480   3.520  3.1725  0.7347 -5.4827
  726MOL0     H97977   9.314   2.553   3.578  1.3162 -0.2873 -1.0611
  726MOL0     H97978   9.384   2.381   3.415 -1.1571  1.5560 -0.3130
  726MOL0     H97979   9.383   2.295   3.571 -3.2876 -1.2182  1.9668
  726MOL0     H97980   9.165   2.321   3.379 -0.9849 -0.7373 -0.8346
  726MOL0     H97981   9.143   2.220   3.520 -0.7794 -2.5875 -2.1057
  726MOL0     H97982   9.334   2.164   3.290 -0.7657  0.3577  0.5692
  726MOL0     H97983   9.337   2.068   3.444 -0.8840 -0.2233  1.4319
  726MOL0     H97984   9.218   1.949   3.266 -0.1365 -1.8848  3.9306
  726MOL0     H97985   9.113   2.085   3.230 -3.0520 -0.3767  1.6344
  726MOL0     H97986   9.124   1.929   3.498 -0.3711  0.9436  1.1802
  726MOL0     H97987   9.019   2.072   3.458  1.3863  0.4501 -3.3093
  726MOL0     H97988   9.013   1.817   3.303  2.6216  1.8656 -0.8749
  726MOL0     H97989   8.904   1.959   3.269 -1.8322 -1.9195 -0.1630
  726MOL0     H97990   8.800   1.944   3.471  3.3169  2.5165  0.4964
  726MOL0     H97991   8.886   1.795   3.516 -3.3964 -0.7958  1.0492
  726MOL0     H97992   9.252   2.654   3.779  0.0723  1.3097  0.8247
  726MOL0     H97993   9.105   2.774   3.955  4.3323 -1.4127 -0.7398
  726MOL0     H97994   8.819   2.774   4.257  0.6885 -1.6970  1.1204
  726MOL0     H97995   8.717   2.908   4.408  1.7645 -1.5548 -0.5988
  726MOL0     H97996   9.597   2.927   5.869  0.4642 -1.2130  0.3314
  726MOL0     H97997   9.796   3.052   5.951  0.5385  0.9615 -1.0796
  726MOL0     H97998  10.261   3.155   5.772 -1.2764  1.8412  0.1742
  726MOL0     H97999  10.448   3.300   5.770  0.0868 -2.9555 -1.1116
  726MOL0     H98000  10.571   3.629   6.055 -1.9523  0.7169  3.4109
  726MOL0     H98001  10.496   3.513   6.153 -3.4748 -3.0413 -2.4020
  726MOL0     H98002  10.651   3.327   6.036  1.0743  0.5323 -3.7117
  726MOL0     H98003  10.734   3.440   6.139 -0.5082 -3.4100  1.1932
  726MOL0     H98004  10.699   3.463   5.832 -0.1104 -1.3848  0.2061
  726MOL0     H98005  10.836   3.409   5.907  0.1913  1.1813  1.5713
  726MOL0     H98006  10.718   3.698   5.933  2.0802  1.2264 -2.4996
  726MOL0     H98007  10.860   3.634   5.850 -1.8880 -0.2081 -1.3630
  726MOL0     H98008  10.975   3.669   6.265  0.9240  2.6889 -0.6872
  726MOL0     H98009  10.297   3.473   6.138 -2.1981  0.6603 -1.5445
  726MOL0     H98010  10.118   3.326   6.141  1.2178 -2.0020  1.2976
  727MOL0     O98011  11.198   9.248   6.635 -0.0138 -1.1190 -0.2758
  727MOL0     C98012  11.184   9.174   6.541 -0.8455  0.5534  0.2646
  727MOL0     O98013  11.169   9.212   6.411 -1.2063 -0.1635 -0.3068
  727MOL0     C98014  11.187   9.337   6.354 -0.0660  0.0232 -0.1374
  727MOL0     C98015  11.152   9.342   6.215 -0.4419 -0.8671  0.1113
  727MOL0     C98016  11.199   9.459   6.145 -1.0405 -0.0506  0.7831
  727MOL0     C98017  11.276   9.562   6.204  0.4022  0.0964 -0.7194
  727MOL0     O98018  11.311   9.659   6.121 -1.0185 -0.5716  0.1650
  727MOL0     C98019  11.412   9.751   6.165  0.4372 -0.9060 -0.1237
  727MOL0     C98020  11.544   9.684   6.164  0.2278  0.4276 -0.5700
  727MOL0     C98021  11.659   9.779   6.162 -0.0397  0.2441  0.8291
  727MOL0     C98022  11.702   9.859   6.282 -0.8951  0.0120 -0.5359
  727MOL0     C98023  11.844   9.827   6.335 -0.4449 -0.2582  0.1096
  727MOL0     C98024  11.960   9.877   6.259 -0.2711 -0.4981  0.7284
  727MOL0     C98025  12.079   9.910   6.337  0.2735  0.2234 -0.0918
  727MOL0     C98026  12.200   9.966   6.264  0.2559 -0.5514  0.0899
  727MOL0     N98027  12.237   9.890   6.148  1.0925  0.5435 -0.2975
  727MOL0     C98028  12.173   9.923   6.036 -0.0726  0.0823 -0.4506
  727MOL0     C98029  12.190   9.814   5.955  0.8380  0.6367  0.0430
  727MOL0     C98030  12.143   9.793   5.811  0.3545  0.2837  0.1310
  727MOL0     C98031  12.070   9.654   5.792  0.4687 -0.2573 -0.3564
  727MOL0     C98032  11.930   9.662   5.864 -0.5750 -0.2208  0.3369
  727MOL0     C98033  11.858   9.528   5.845  0.1921  0.5228  1.0931
  727MOL0     O98034  11.723   9.548   5.885 -0.1869 -0.0023  1.1100
  727MOL0     C98035  11.633   9.442   5.868 -0.9549  0.1328  0.4639
  727MOL0     C98036  11.681   9.306   5.840 -0.3272 -0.5108 -0.9017
  727MOL0     C98037  11.593   9.186   5.843  0.0060 -0.0649 -0.0418
  727MOL0     C98038  11.664   9.060   5.816 -0.2519 -0.1932  0.3773
  727MOL0     C98039  11.457   9.215   5.852  0.6017 -0.0593  0.5615
  727MOL0     C98040  11.348   9.102   5.853 -0.0871 -0.5506 -0.1171
  727MOL0     O98041  11.226   9.137   5.894  0.1883  0.3152  0.9450
  727MOL0     C98042  11.125   9.040   5.901 -0.5261  0.4508  0.1130
  727MOL0     C98043  11.079   8.989   6.021 -0.0839 -0.2233 -0.5024
  727MOL0     C98044  10.974   8.899   6.029 -0.3292  0.1194 -0.3206
  727MOL0     C98045  10.912   8.850   5.917 -0.2625 -0.6795 -0.4794
  727MOL0     O98046  10.814   8.752   5.942 -0.2649  0.2249 -0.3447
  727MOL0     C98047  10.768   8.670   5.824 -0.4965 -1.3627 -0.2731
  727MOL0     C98048  10.690   8.549   5.874 -1.0164  0.7334 -0.1171
  727MOL0     C98049  10.641   8.463   5.755 -0.2977 -0.3886  0.5246
  727MOL0     C98050  10.503   8.512   5.709 -0.8621 -0.8740 -0.0668
  727MOL0     C98051  10.426   8.422   5.602  0.1474  0.0610  0.7463
  727MOL0     C98052  10.292   8.485   5.545 -0.0944 -0.1634 -0.1049
  727MOL0     C98053  10.236   8.391   5.445  0.0036  0.1880  1.2036
  727MOL0     C98054  10.085   8.416   5.422 -0.5142 -0.5667  0.2971
  727MOL0    Cl98055  10.055   8.584   5.355 -0.0545  0.2325  0.1772
  727MOL0     C98056  10.958   8.898   5.788  0.4390 -0.5430  0.0230
  727MOL0     C98057  11.061   8.999   5.787 -0.2288 -0.2373  0.1682
  727MOL0     O98058  11.383   8.987   5.818  0.2951 -0.6184 -0.2703
  727MOL0     C98059  11.421   9.353   5.872  0.8781 -0.1270 -0.4674
  727MOL0     C98060  11.506   9.463   5.872 -0.4529  0.1805 -0.0698
  727MOL0     N98061  12.267   9.717   6.024  0.3184  0.2127  0.0102
  727MOL0     N98062  12.300   9.768   6.143  0.0231  0.5861 -0.0564
  727MOL0     C98063  11.293   9.554   6.341  0.2305 -0.4474  0.0652
  727MOL0     C98064  11.245   9.442   6.414 -0.0108  1.1897  0.6272
  727MOL0     C98065  11.178   9.035   6.576 -0.0542 -0.7949 -0.9604
  727MOL0     C98066  11.235   8.985   6.693  0.0357  0.7422  0.1384
  727MOL0     C98067  11.228   8.842   6.720 -0.4355  0.4601  0.2561
  727MOL0     C98068  11.172   8.749   6.640 -0.1322  0.9991  0.3936
  727MOL0     O98069  11.190   8.614   6.670 -0.8242  0.2475  0.4959
  727MOL0     C98070  11.158   8.512   6.577 -0.3715  0.5083 -0.7996
  727MOL0     C98071  11.016   8.473   6.577  0.6667  0.3008 -0.1129
  727MOL0     C98072  11.002   8.357   6.478  0.2119  0.2281  0.1302
  727MOL0     C98073  11.045   8.380   6.338 -0.2469  0.6843  0.0326
  727MOL0     C98074  10.979   8.500   6.289  0.1234 -0.0461 -0.2030
  727MOL0     C98075  10.910   8.594   6.252  0.3261  0.1686 -0.9143
  727MOL0     C98076  11.110   8.805   6.534 -0.1810  0.1415  0.2043
  727MOL0     C98077  11.120   8.937   6.496 -1.3160 -0.3024  0.1207
  727MOL0     H98078  11.091   9.264   6.169 -1.8526 -0.2057  0.7946
  727MOL0     H98079  11.191   9.468   6.037 -1.6282  2.3695  0.9709
  727MOL0     H98080  11.422   9.843   6.107  2.6863 -1.2039 -0.3206
  727MOL0     H98081  11.401   9.802   6.261  0.2745 -0.2178 -0.5055
  727MOL0     H98082  11.553   9.612   6.246  0.3997  2.5077  1.3327
  727MOL0     H98083  11.553   9.631   6.069  2.1459 -1.7330  0.7228
  727MOL0     H98084  11.747   9.721   6.132  1.1823  2.1076  0.6612
  727MOL0     H98085  11.645   9.854   6.084  1.1597  0.8453  1.1728
  727MOL0     H98086  11.690   9.966   6.263 -2.7071  0.0004  0.2907
  727MOL0     H98087  11.632   9.841   6.364  1.3975  2.8964  2.2544
  727MOL0     H98088  11.855   9.870   6.435 -1.0866  2.5973 -0.9470
  727MOL0     H98089  11.850   9.718   6.342 -2.6648 -0.5596 -1.4370
  727MOL0     H98090  11.980   9.799   6.186 -1.3782 -0.4093  0.3131
  727MOL0     H98091  11.931   9.967   6.205 -1.4462  0.7239  3.2101
  727MOL0     H98092  12.041   9.972   6.418 -2.5296 -0.4486 -0.7793
  727MOL0     H98093  12.107   9.815   6.384  0.3584  1.4752  2.5506
  727MOL0     H98094  12.277   9.962   6.342  0.9080 -0.7479 -0.5495
  727MOL0     H98095  12.183  10.070   6.237  0.0416 -1.1892 -2.5363
  727MOL0     H98096  12.118  10.015   6.017  1.5223  0.8934 -1.2541
  727MOL0     H98097  12.068   9.867   5.783  0.7293 -0.1000 -2.0408
  727MOL0     H98098  12.228   9.791   5.743  0.1308 -2.9071 -0.2155
  727MOL0     H98099  12.128   9.572   5.837  0.6308  0.5402  0.9441
  727MOL0     H98100  12.044   9.636   5.687  3.6712  1.9904 -1.6883
  727MOL0     H98101  11.876   9.740   5.808 -0.3822  1.6456  2.6015
  727MOL0     H98102  11.954   9.694   5.966  0.3323  0.2576 -0.0181
  727MOL0     H98103  11.899   9.459   5.919 -1.2668  0.6688  2.0904
  727MOL0     H98104  11.863   9.490   5.743 -0.6181  0.5880  1.0190
  727MOL0     H98105  11.788   9.293   5.829 -0.1122 -1.8292  1.8571
  727MOL0     H98106  11.766   9.059   5.855 -1.0948 -2.8830  2.8810
  727MOL0     H98107  11.612   8.971   5.853 -0.4126 -2.5206 -4.6608
  727MOL0     H98108  11.669   9.045   5.708  3.0212  1.1088  0.2540
  727MOL0     H98109  11.119   9.024   6.116 -1.6647 -2.5515  1.1152
  727MOL0     H98110  10.929   8.869   6.124  0.7614 -2.1572 -0.4646
  727MOL0     H98111  10.700   8.734   5.768  2.1410  0.3115 -1.7882
  727MOL0     H98112  10.859   8.643   5.770  0.1963  1.6527 -0.7934
  727MOL0     H98113  10.763   8.486   5.924  0.8917  1.9524 -1.2302
  727MOL0     H98114  10.610   8.571   5.944 -1.8224 -1.9495 -0.0849
  727MOL0     H98115  10.641   8.358   5.784 -2.2350 -0.4218  0.5111
  727MOL0     H98116  10.713   8.466   5.672  1.3215 -1.6923  1.8185
  727MOL0     H98117  10.441   8.513   5.799  0.3985 -0.4032  0.8032
  727MOL0     H98118  10.518   8.610   5.663 -0.4932 -2.6858 -4.3665
  727MOL0     H98119  10.400   8.325   5.645 -2.7986 -0.2403 -1.3874
  727MOL0     H98120  10.505   8.412   5.527  2.2524  2.1649  2.5375
  727MOL0     H98121  10.215   8.504   5.621 -1.6266  0.9602 -1.8689
  727MOL0     H98122  10.317   8.581   5.501  2.5291  0.0740  1.6376
  727MOL0     H98123  10.253   8.289   5.479  3.0275  0.5120  0.9003
  727MOL0     H98124  10.297   8.402   5.355  1.3850  2.4601  2.3310
  727MOL0     H98125  10.036   8.413   5.520  0.3077  2.2189  0.8939
  727MOL0     H98126  10.038   8.339   5.361 -1.3384  0.5907 -0.5686
  727MOL0     H98127  10.910   8.868   5.695  0.0684 -1.3042  0.4470
  727MOL0     H98128  11.107   9.022   5.691  0.0444 -0.2672  0.2892
  727MOL0     H98129  11.315   9.360   5.894  0.9608 -0.0105 -0.1050
  727MOL0     H98130  11.465   9.564   5.869 -3.3141 -0.7337  2.8625
  727MOL0     H98131  11.354   9.633   6.384  0.8537 -0.3379 -0.9972
  727MOL0     H98132  11.277   9.428   6.516  1.9100 -1.3642 -0.2295
  727MOL0     H98133  11.273   9.043   6.776 -0.5651 -0.7814  1.5451
  727MOL0     H98134  11.267   8.820   6.818  1.3931 -2.8010 -1.0574
  727MOL0     H98135  11.189   8.538   6.476 -0.6170 -3.7212 -2.1763
  727MOL0     H98136  11.230   8.433   6.602  0.8791  1.3873 -1.5197
  727MOL0     H98137  10.955   8.563   6.566  1.3527  0.7080 -0.5998
  727MOL0     H98138  10.982   8.444   6.677  1.1948 -0.5740 -0.1771
  727MOL0     H98139  10.898   8.325   6.473  0.5076 -0.5714 -2.6338
  727MOL0     H98140  11.054   8.273   6.524 -1.6253 -1.8504 -1.3765
  727MOL0     H98141  11.015   8.297   6.274  0.3048 -0.0834  0.7581
  727MOL0     H98142  11.154   8.383   6.332 -0.2869  0.1041 -1.3433
  727MOL0     H98143  10.854   8.676   6.212 -0.1657  0.0270 -0.5245
  727MOL0     H98144  11.070   8.732   6.465 -0.1426 -0.3393  0.6790
  727MOL0     H98145  11.078   8.964   6.400 -1.6865 -0.0244  0.3600
  728MOL0     O98146   9.330   0.716   0.123  0.3058 -0.5819  0.8487
  728MOL0     C98147   9.389   0.658   0.211 -1.3089 -0.2955  0.5385
  728MOL0     O98148   9.411   0.707   0.339  0.3818 -1.0816 -0.2654
  728MOL0     C98149   9.370   0.837   0.365  0.3511 -0.1010 -1.0748
  728MOL0     C98150   9.249   0.895   0.315 -0.3150 -0.1771  0.7779
  728MOL0     C98151   9.209   1.020   0.356 -0.6365 -1.0721 -0.4050
  728MOL0     C98152   9.285   1.089   0.453 -0.4296 -0.3519  0.6282
  728MOL0     O98153   9.242   1.222   0.479  0.3990  0.5654  0.4586
  728MOL0     C98154   9.340   1.313   0.526 -0.3301 -0.1045  0.5798
  728MOL0     C98155   9.304   1.455   0.462 -0.5142  0.9953 -0.1438
  728MOL0     C98156   9.351   1.560   0.558 -0.2252 -0.4710  0.2827
  728MOL0     C98157   9.324   1.694   0.482 -0.4678  0.0082  0.1705
  728MOL0     C98158   9.330   1.810   0.571 -0.2801 -0.5610 -0.2571
  728MOL0     C98159   9.262   1.931   0.495 -0.1239 -0.4409  0.0113
  728MOL0     C98160   9.239   2.037   0.607  1.1106 -0.8268 -0.0885
  728MOL0     C98161   9.160   2.160   0.547  0.6504  0.4327  0.0566
  728MOL0     N98162   9.023   2.133   0.493  0.0505 -0.1868 -0.6174
  728MOL0     C98163   8.948   2.020   0.513 -0.2026  0.6954  0.2300
  728MOL0     C98164   8.837   2.028   0.438 -0.2246 -0.5535  0.4053
  728MOL0     C98165   8.727   1.926   0.418 -0.3415 -0.5453 -0.5554
  728MOL0     C98166   8.776   1.786   0.462  0.0629  0.2418 -0.1468
  728MOL0     C98167   8.689   1.662   0.427  0.1316 -0.4853  0.5239
  728MOL0     C98168   8.751   1.533   0.464  0.2356 -0.0255 -0.2232
  728MOL0     O98169   8.838   1.489   0.357 -0.2595  0.4824 -0.8692
  728MOL0     C98170   8.831   1.353   0.332  0.0670  0.2523  0.9176
  728MOL0     C98171   8.820   1.327   0.192  0.9865 -0.9609 -0.6614
  728MOL0     C98172   8.827   1.196   0.137  0.8675 -0.7175 -0.9709
  728MOL0     C98173   8.841   1.197  -0.011  0.4600 -0.6900  0.1805
  728MOL0     C98174   8.835   1.089   0.229  0.5457 -0.2318 -0.3254
  728MOL0     C98175   8.839   0.952   0.189 -0.5450  0.0470 -0.7045
  728MOL0     O98176   8.904   0.863   0.269 -0.3248 -0.6248  0.0701
  728MOL0     C98177   8.921   0.736   0.224  0.3166 -0.7331  0.2637
  728MOL0     C98178   8.905   0.637   0.313  0.8873  0.7813  0.5407
  728MOL0     C98179   8.946   0.507   0.277  0.5207  0.5091 -0.5965
  728MOL0     C98180   8.990   0.473   0.149  0.4611  0.3341 -0.5288
  728MOL0     O98181   9.011   0.342   0.114  0.4847  0.1905  0.1665
  728MOL0     C98182   9.050   0.297  -0.014 -0.4816 -0.2720  0.2086
  728MOL0     C98183   9.102   0.150   0.001  0.5873 -1.2836 -0.3412
  728MOL0     C98184   9.173   0.095  -0.129 -0.1710  0.6413  0.4772
  728MOL0     C98185   9.081   0.057  -0.240 -0.0874 -0.5419  0.5633
  728MOL0     C98186   9.144   0.032  -0.378  0.9418 -0.4111 -0.5976
  728MOL0     C98187   9.041  -0.043  -0.468  0.0233  0.2716 -0.6530
  728MOL0     C98188   9.059  -0.021  -0.619 -0.0694 -0.0104 -0.8361
  728MOL0     C98189   8.937  -0.091  -0.688  0.1885  0.9678  0.6029
  728MOL0    Cl98190   8.981  -0.254  -0.747  0.6160  0.3108 -0.2465
  728MOL0     C98191   9.006   0.574   0.055 -0.1070  0.0451 -0.1840
  728MOL0     C98192   8.979   0.709   0.093  0.3180  1.0748 -0.0127
  728MOL0     O98193   8.786   0.926   0.083 -0.0989  0.4299  0.2154
  728MOL0     C98194   8.824   1.119   0.368 -0.0026  0.3004 -0.3232
  728MOL0     C98195   8.834   1.248   0.423 -0.2222  0.2409  0.8720
  728MOL0     N98196   8.834   2.160   0.389  0.6263  1.0209 -0.1613
  728MOL0     N98197   8.942   2.215   0.423  0.5052 -0.2509 -0.9920
  728MOL0     C98198   9.407   1.028   0.506  0.2271  0.0726  0.6703
  728MOL0     C98199   9.447   0.909   0.457 -0.1041  0.3487  0.3276
  728MOL0     C98200   9.450   0.519   0.189 -0.2531 -0.6965 -0.7357
  728MOL0     C98201   9.574   0.486   0.248  0.7665  0.3334  0.3099
  728MOL0     C98202   9.624   0.355   0.236  0.6398  0.1732 -0.2294
  728MOL0     C98203   9.541   0.259   0.177  0.2627  0.1142 -0.4596
  728MOL0     O98204   9.576   0.128   0.167  0.1942 -0.3455 -0.2516
  728MOL0     C98205   9.700   0.101   0.108  0.0399 -0.3621 -1.0154
  728MOL0     C98206   9.684  -0.043   0.046  0.3851 -0.2934 -0.2309
  728MOL0     C98207   9.597  -0.037  -0.079 -0.3277 -0.5281 -0.4424
  728MOL0     C98208   9.673   0.029  -0.197 -0.7577 -0.2638 -1.1890
  728MOL0     C98209   9.629   0.164  -0.215 -0.2720 -0.8786  0.7130
  728MOL0     C98210   9.580   0.272  -0.238  0.6837  0.6202 -0.1339
  728MOL0     C98211   9.423   0.298   0.118 -0.2146  0.7139 -0.3114
  728MOL0     C98212   9.374   0.425   0.126  1.3015  0.3005 -0.0165
  728MOL0     H98213   9.189   0.835   0.247  0.9592  0.8690 -1.3774
  728MOL0     H98214   9.109   1.056   0.334 -0.0982  0.2131 -0.8056
  728MOL0     H98215   9.329   1.315   0.635  2.0826  0.4601  0.8747
  728MOL0     H98216   9.442   1.291   0.494 -0.9932 -1.5330 -0.6216
  728MOL0     H98217   9.349   1.467   0.363  2.6325 -2.7879  0.5622
  728MOL0     H98218   9.195   1.459   0.455 -0.7891 -2.7754 -0.2950
  728MOL0     H98219   9.300   1.544   0.653 -2.8136  1.0543 -0.7619
  728MOL0     H98220   9.458   1.558   0.584 -0.2312  0.1618  0.3798
  728MOL0     H98221   9.409   1.704   0.414  0.0018 -5.5128 -0.4499
  728MOL0     H98222   9.230   1.689   0.426 -0.2593 -1.8806 -0.0571
  728MOL0     H98223   9.276   1.786   0.662  0.8288 -0.6177  0.4089
  728MOL0     H98224   9.429   1.850   0.595 -0.5617  2.0881 -2.8243
  728MOL0     H98225   9.327   1.967   0.416  1.5892 -0.3315  1.4156
  728MOL0     H98226   9.163   1.911   0.452 -0.2470  0.0098  0.0805
  728MOL0     H98227   9.186   1.986   0.688 -1.3201 -0.7593 -1.5522
  728MOL0     H98228   9.337   2.068   0.644  2.1572 -1.3327 -2.2563
  728MOL0     H98229   9.216   2.204   0.464 -2.0676 -0.5690 -2.5016
  728MOL0     H98230   9.151   2.236   0.624 -0.1908  1.8354 -1.3568
  728MOL0     H98231   8.966   1.928   0.569 -0.1303 -0.0245 -0.9530
  728MOL0     H98232   8.638   1.953   0.475 -0.2009 -3.0275  0.9676
  728MOL0     H98233   8.701   1.926   0.312 -3.0567  0.7808  0.0317
  728MOL0     H98234   8.779   1.784   0.571 -4.4378  3.6224  0.3664
  728MOL0     H98235   8.878   1.753   0.439 -0.8406 -2.8471 -0.2494
  728MOL0     H98236   8.670   1.669   0.319  0.1040  0.1338  0.5635
  728MOL0     H98237   8.592   1.663   0.477 -0.3614  2.6894 -0.2550
  728MOL0     H98238   8.671   1.463   0.488  0.5867  0.5581  3.2327
  728MOL0     H98239   8.810   1.545   0.556  3.2859  0.0313 -2.0490
  728MOL0     H98240   8.815   1.416   0.129 -5.3489 -1.1839 -1.1463
  728MOL0     H98241   8.813   1.290  -0.061  0.6655 -0.8755 -0.2855
  728MOL0     H98242   8.941   1.156  -0.029  0.3686 -1.4905  1.3865
  728MOL0     H98243   8.781   1.119  -0.059  2.6043 -0.7819 -2.6170
  728MOL0     H98244   8.863   0.655   0.411  1.1774  0.6381  0.6930
  728MOL0     H98245   8.930   0.423   0.344  1.8471  0.0560 -0.8175
  728MOL0     H98246   8.974   0.316  -0.090  0.5331  2.4051 -0.2256
  728MOL0     H98247   9.141   0.346  -0.049  1.2527 -1.5618  2.6000
  728MOL0     H98248   9.177   0.145   0.080  0.1365  2.2994  0.4629
  728MOL0     H98249   9.012   0.092   0.027 -1.4015  1.7983  0.1282
  728MOL0     H98250   9.238   0.008  -0.109  0.8554 -0.1674 -4.9664
  728MOL0     H98251   9.249   0.169  -0.154  2.7258 -0.7791  4.0000
  728MOL0     H98252   9.032  -0.037  -0.212  2.7279 -1.7445  1.8321
  728MOL0     H98253   9.002   0.130  -0.259 -0.5917 -0.9108  1.1691
  728MOL0     H98254   9.232  -0.032  -0.372  2.9625  1.8350 -3.3996
  728MOL0     H98255   9.175   0.128  -0.422 -1.4251  0.1271 -1.2050
  728MOL0     H98256   9.051  -0.150  -0.451 -3.8938 -0.0534  0.5332
  728MOL0     H98257   8.940  -0.009  -0.441 -0.1739 -1.2241  0.6239
  728MOL0     H98258   9.153  -0.067  -0.652  0.9357 -0.5228  2.3684
  728MOL0     H98259   9.057   0.087  -0.636 -1.4697  0.9501  3.9107
  728MOL0     H98260   8.914  -0.021  -0.769 -0.2054  1.1591  0.8746
  728MOL0     H98261   8.847  -0.109  -0.629 -0.2524  0.4475 -0.2081
  728MOL0     H98262   9.048   0.557  -0.044  0.6664  1.4520 -0.1267
  728MOL0     H98263   8.999   0.795   0.030  0.8349 -0.3459 -1.8915
  728MOL0     H98264   8.811   1.032   0.432  0.5262  1.7262  1.8189
  728MOL0     H98265   8.832   1.261   0.530 -0.0911 -0.3006  0.9470
  728MOL0     H98266   9.461   1.078   0.586 -1.0139 -1.1660  2.3447
  728MOL0     H98267   9.538   0.864   0.493 -0.4012 -0.5046  0.0384
  728MOL0     H98268   9.632   0.556   0.308 -2.8738  1.5541  2.7877
  728MOL0     H98269   9.720   0.320   0.274  1.0748 -0.2840 -1.6656
  728MOL0     H98270   9.728   0.184   0.044 -1.9634  1.6708  0.5954
  728MOL0     H98271   9.776   0.090   0.186 -1.9973 -0.0028  1.1483
  728MOL0     H98272   9.646  -0.110   0.123  2.7092 -0.8438  0.5272
  728MOL0     H98273   9.785  -0.077   0.022  0.8823  0.1816  1.1197
  728MOL0     H98274   9.504   0.010  -0.048  0.5907 -0.1582  2.0131
  728MOL0     H98275   9.582  -0.142  -0.105  0.9161 -0.2754 -2.4492
  728MOL0     H98276   9.645  -0.026  -0.287 -2.3598 -1.2119 -0.1514
  728MOL0     H98277   9.782   0.023  -0.186 -0.9638 -2.1005  0.4126
  728MOL0     H98278   9.527   0.363  -0.259 -0.4308 -0.1587 -0.7335
  728MOL0     H98279   9.360   0.227   0.065  0.8403 -0.0825 -0.5441
  728MOL0     H98280   9.280   0.457   0.082  1.8077 -1.0635 -2.2712
  729MOL0     O98281   9.414   1.244   7.407  0.1778 -0.4338  0.0226
  729MOL0     C98282   9.427   1.119   7.407 -0.1965 -1.0522 -0.3352
  729MOL0     O98283   9.542   1.058   7.424  0.1626  0.6135 -0.5471
  729MOL0     C98284   9.669   1.106   7.418 -0.0207  0.7721 -0.5960
  729MOL0     C98285   9.769   1.013   7.460 -0.5935  0.6445 -0.3839
  729MOL0     C98286   9.906   1.053   7.465 -0.2071  0.5234  0.4736
  729MOL0     C98287   9.949   1.178   7.416 -0.2959 -0.3608  0.0714
  729MOL0     O98288  10.084   1.209   7.407 -0.3708  0.1019  0.6492
  729MOL0     C98289  10.137   1.323   7.347  0.4310 -0.0956  0.7337
  729MOL0     C98290  10.288   1.326   7.366  1.0822  0.7855  0.2052
  729MOL0     C98291  10.339   1.307   7.509  0.0797  0.3853 -0.1066
  729MOL0     C98292  10.346   1.162   7.562 -0.0874  0.3683 -0.1592
  729MOL0     C98293  10.418   1.167   7.694  0.9078  0.1007  0.1465
  729MOL0     C98294  10.560   1.233   7.709  0.5893  0.7817 -0.0955
  729MOL0     C98295  10.665   1.183   7.609  0.2915 -0.4692  1.0259
  729MOL0     C98296  10.777   1.284   7.562 -0.3266 -0.2451  0.9385
  729MOL0     N98297  10.733   1.415   7.518  0.2849  0.5894 -0.6068
  729MOL0     C98298  10.744   1.532   7.589 -0.0468  0.8704  0.9963
  729MOL0     C98299  10.725   1.628   7.492  0.7006  0.2469  0.6509
  729MOL0     C98300  10.704   1.768   7.541  0.2256 -0.2701  0.8023
  729MOL0     C98301  10.800   1.805   7.655 -0.0879 -0.0167 -0.1526
  729MOL0     C98302  10.798   1.959   7.659  0.0210  0.3334  0.2778
  729MOL0     C98303  10.876   2.004   7.782 -0.5598  0.9129  0.4656
  729MOL0     O98304  10.824   1.947   7.903  0.4817 -0.2326  0.2994
  729MOL0     C98305  10.847   1.995   8.030  0.3844  0.7063  0.9070
  729MOL0     C98306  10.751   1.969   8.131 -0.1782  0.7068  0.3022
  729MOL0     C98307  10.773   2.011   8.262 -0.1329 -0.2209  0.6700
  729MOL0     C98308  10.666   2.012   8.358  0.7578 -0.4085  0.1658
  729MOL0     C98309  10.896   2.070   8.300 -0.0475 -0.0326 -0.0393
  729MOL0     C98310  10.931   2.102   8.445 -0.6301 -0.7195  0.0386
  729MOL0     O98311  10.874   2.028   8.542 -0.9758 -0.0221  0.0630
  729MOL0     C98312  10.929   2.036   8.666 -0.7900 -0.3180  0.6380
  729MOL0     C98313  11.053   1.987   8.701 -0.6257  0.4480 -0.5028
  729MOL0     C98314  11.094   1.981   8.838 -0.2222  0.3573  0.0359
  729MOL0     C98315  11.013   2.038   8.943  0.3425  0.2934  0.5138
  729MOL0     O98316  11.055   2.047   9.077  0.5529  0.0763 -0.6132
  729MOL0     C98317  11.178   2.119   9.093 -0.0294  0.3247  0.3019
  729MOL0     C98318  11.177   2.200   9.215  0.4127  0.3965  0.1691
  729MOL0     C98319  11.084   2.316   9.204 -0.1637 -0.3969  0.5490
  729MOL0     C98320  11.034   2.371   9.344  0.1403  0.0032 -0.0208
  729MOL0     C98321  10.963   2.513   9.340 -0.1441 -0.8531  0.3557
  729MOL0     C98322  11.069   2.628   9.308  0.4176 -0.5258 -0.8339
  729MOL0     C98323  10.998   2.766   9.328  0.5868  0.6859 -0.3374
  729MOL0     C98324  11.037   2.876   9.244 -0.1392  0.4892  0.3766
  729MOL0    Cl98325  10.965   2.842   9.085  0.1201 -0.3846 -0.0519
  729MOL0     C98326  10.887   2.084   8.900 -0.2948  0.2347 -1.2620
  729MOL0     C98327  10.847   2.080   8.767  0.4607  0.5648 -0.1967
  729MOL0     O98328  11.017   2.185   8.467 -0.4340 -0.8937 -0.6163
  729MOL0     C98329  10.998   2.097   8.195 -0.1073 -0.0997 -0.2300
  729MOL0     C98330  10.975   2.059   8.061 -0.3441  0.4431 -0.5045
  729MOL0     N98331  10.707   1.566   7.371 -0.7076  0.1074 -0.6095
  729MOL0     N98332  10.698   1.445   7.386 -0.3424  0.0968  0.1377
  729MOL0     C98333   9.849   1.269   7.379 -0.2651 -0.0659 -0.0012
  729MOL0     C98334   9.709   1.231   7.375 -0.5871 -1.2961 -0.6703
  729MOL0     C98335   9.308   1.037   7.443  0.9387  0.1970 -0.4594
  729MOL0     C98336   9.316   0.892   7.453 -0.4084  0.3377 -0.3592
  729MOL0     C98337   9.213   0.810   7.474  0.4550 -0.6300 -0.1616
  729MOL0     C98338   9.086   0.869   7.494 -0.5981 -0.7303 -0.8961
  729MOL0     O98339   8.986   0.782   7.524  0.5339 -0.3939  0.0626
  729MOL0     C98340   8.846   0.826   7.531 -0.2202 -0.0504 -0.8850
  729MOL0     C98341   8.760   0.704   7.581 -0.1932 -0.1677 -0.3271
  729MOL0     C98342   8.795   0.653   7.718 -0.0166  0.2460 -0.4420
  729MOL0     C98343   8.702   0.534   7.758 -0.1013 -0.5325  0.4513
  729MOL0     C98344   8.732   0.418   7.678 -0.3738 -0.2408  0.4337
  729MOL0     C98345   8.743   0.329   7.601 -0.3786 -0.0075  0.7863
  729MOL0     C98346   9.065   1.009   7.496  0.1325 -0.6085 -0.7804
  729MOL0     C98347   9.172   1.092   7.456  1.3424  0.3070  0.2097
  729MOL0     H98348   9.729   0.915   7.483 -1.1570  0.5029 -1.8532
  729MOL0     H98349   9.977   0.975   7.492 -1.1495 -0.0919  1.2374
  729MOL0     H98350  10.117   1.322   7.240  3.0678 -1.6772  0.1650
  729MOL0     H98351  10.089   1.414   7.384  0.5599  0.6920 -0.9818
  729MOL0     H98352  10.332   1.240   7.315 -0.3215  0.1458  0.0273
  729MOL0     H98353  10.342   1.407   7.316 -1.4250  2.1564 -0.4298
  729MOL0     H98354  10.440   1.346   7.501  0.6271 -0.9099  0.1756
  729MOL0     H98355  10.278   1.363   7.580 -1.6532 -0.9602 -0.4618
  729MOL0     H98356  10.242   1.128   7.575  0.4754 -2.8597 -2.7293
  729MOL0     H98357  10.400   1.103   7.488 -2.5312  0.5475 -2.2133
  729MOL0     H98358  10.349   1.203   7.772 -0.8538 -0.9849 -0.8393
  729MOL0     H98359  10.424   1.065   7.733 -2.3989 -0.7587 -1.2140
  729MOL0     H98360  10.538   1.338   7.691  0.6052  1.1110  1.6448
  729MOL0     H98361  10.601   1.221   7.809  3.9127 -2.7580 -1.6263
  729MOL0     H98362  10.732   1.115   7.661 -0.9848 -1.4382  1.4388
  729MOL0     H98363  10.617   1.136   7.522  1.4096  0.9452 -0.4092
  729MOL0     H98364  10.835   1.237   7.482  0.2748 -2.7488  2.7142
  729MOL0     H98365  10.862   1.305   7.628  1.4812 -0.2812 -1.2505
  729MOL0     H98366  10.775   1.550   7.692  2.7647 -0.6759  0.5170
  729MOL0     H98367  10.719   1.839   7.459  5.6106  0.1136  1.7314
  729MOL0     H98368  10.608   1.769   7.592  0.7418  0.8926  1.8220
  729MOL0     H98369  10.904   1.774   7.637 -0.1472 -0.9266  0.9796
  729MOL0     H98370  10.775   1.769   7.755 -2.6626  1.6438 -0.1352
  729MOL0     H98371  10.698   2.001   7.671  1.7637  4.6995  1.6051
  729MOL0     H98372  10.836   2.015   7.573 -0.4756  2.0477  1.1264
  729MOL0     H98373  10.884   2.113   7.785  0.4585  0.8394  2.5330
  729MOL0     H98374  10.980   1.972   7.771 -1.8238 -3.2636 -1.6034
  729MOL0     H98375  10.658   1.917   8.110 -0.4948  0.5544  1.9750
  729MOL0     H98376  10.575   2.023   8.298  0.3253  1.6934  1.1208
  729MOL0     H98377  10.663   1.918   8.414 -0.7846  0.3541  1.4205
  729MOL0     H98378  10.672   2.097   8.425  5.5338  0.0305 -0.4134
  729MOL0     H98379  11.120   1.953   8.622  0.1666  1.0367 -0.1047
  729MOL0     H98380  11.189   1.932   8.857  0.2061  0.3446 -1.8732
  729MOL0     H98381  11.242   2.030   9.095 -2.9825 -2.0070 -0.7350
  729MOL0     H98382  11.198   2.188   9.011 -2.0920  0.2228 -0.3600
  729MOL0     H98383  11.139   2.141   9.299 -1.7051 -1.4266 -1.9260
  729MOL0     H98384  11.277   2.231   9.248  0.2358 -1.0377  2.2537
  729MOL0     H98385  11.002   2.296   9.134 -0.6250  1.5493  0.4732
  729MOL0     H98386  11.145   2.395   9.160 -1.0984  0.3377  0.5446
  729MOL0     H98387  10.971   2.293   9.389  2.4605 -0.7593  2.1588
  729MOL0     H98388  11.114   2.368   9.418 -1.6214 -1.8644  1.9589
  729MOL0     H98389  10.924   2.531   9.440 -1.6211  1.7530 -0.5943
  729MOL0     H98390  10.881   2.518   9.268  0.0490 -0.3961  0.1612
  729MOL0     H98391  11.154   2.624   9.377  0.6988  2.3149 -0.8660
  729MOL0     H98392  11.111   2.626   9.206  0.3469 -1.0046 -0.8554
  729MOL0     H98393  11.016   2.797   9.432  0.8923  0.7519 -0.4093
  729MOL0     H98394  10.889   2.764   9.324  0.5861  1.8294 -4.2688
  729MOL0     H98395  11.146   2.886   9.237  0.2134 -1.9984  1.6512
  729MOL0     H98396  11.008   2.972   9.288 -0.6648  0.9987 -0.9961
  729MOL0     H98397  10.816   2.135   8.965 -0.9646 -0.1950 -1.6437
  729MOL0     H98398  10.747   2.120   8.754  0.1580  0.9861  2.8120
  729MOL0     H98399  11.080   2.159   8.229  0.4917 -0.9485 -0.0879
  729MOL0     H98400  11.045   2.092   7.985  0.4510  0.0074  0.0251
  729MOL0     H98401   9.873   1.370   7.349 -1.8703  1.0048  2.0574
  729MOL0     H98402   9.635   1.309   7.365  3.4993  3.1051  0.0732
  729MOL0     H98403   9.416   0.849   7.446  0.0599  1.5007 -1.0496
  729MOL0     H98404   9.236   0.707   7.501  1.1776  0.0804  2.1421
  729MOL0     H98405   8.830   0.910   7.600 -2.1965  1.3167 -2.8647
  729MOL0     H98406   8.816   0.857   7.431 -1.1842  0.2225 -0.5148
  729MOL0     H98407   8.796   0.621   7.519  2.2812 -1.0573  2.0898
  729MOL0     H98408   8.655   0.711   7.551 -0.5066 -1.6091  0.2997
  729MOL0     H98409   8.772   0.735   7.786 -1.5943 -2.0127  1.9442
  729MOL0     H98410   8.900   0.626   7.725 -0.1263 -1.0326 -2.6547
  729MOL0     H98411   8.596   0.560   7.750  0.3507  1.8241  1.2173
  729MOL0     H98412   8.703   0.517   7.866 -2.1514 -0.5726  0.5063
  729MOL0     H98413   8.766   0.247   7.537  0.4998  0.9007 -0.1069
  729MOL0     H98414   8.970   1.055   7.518  1.3983  1.9236 -0.1673
  729MOL0     H98415   9.169   1.200   7.444 -2.6238  0.1123 -2.5114
  730MOL0     O98416   8.422   5.144   4.026 -0.0829  0.1188 -0.5268
  730MOL0     C98417   8.523   5.084   4.075 -0.2739 -0.1412 -0.1443
  730MOL0     O98418   8.552   5.068   4.210 -0.5411 -0.0799  0.8027
  730MOL0     C98419   8.485   5.133   4.308  0.5147  0.2104 -0.7581
  730MOL0     C98420   8.552   5.189   4.414  0.6208 -0.1186 -0.2669
  730MOL0     C98421   8.480   5.257   4.522 -0.3154 -0.7362  0.1530
  730MOL0     C98422   8.340   5.263   4.517 -0.6991 -0.0785 -0.4906
  730MOL0     O98423   8.272   5.307   4.625 -0.2860 -0.3212 -0.2128
  730MOL0     C98424   8.137   5.312   4.620 -0.0099 -0.7504 -0.2732
  730MOL0     C98425   8.095   5.353   4.763 -0.5167  0.4885 -0.0462
  730MOL0     C98426   8.115   5.505   4.781 -0.4344  0.5852  0.5722
  730MOL0     C98427   8.064   5.554   4.912  0.6613 -0.3420  0.2601
  730MOL0     C98428   8.142   5.689   4.954  0.7254  0.0105 -0.5727
  730MOL0     C98429   8.118   5.740   5.093 -1.1208 -0.3342 -0.3026
  730MOL0     C98430   7.965   5.782   5.113 -0.0731  0.7460 -0.4533
  730MOL0     C98431   7.945   5.899   5.201  0.6620  0.1399  0.1850
  730MOL0     N98432   8.000   6.024   5.143  0.6016  1.1094  0.2268
  730MOL0     C98433   7.939   6.095   5.042 -0.4177  0.0560 -0.2915
  730MOL0     C98434   8.025   6.190   5.021 -0.4115  0.1132  0.0355
  730MOL0     C98435   8.004   6.304   4.920 -0.1838 -0.6865 -0.1726
  730MOL0     C98436   8.049   6.266   4.782  0.5596  0.6505 -0.3155
  730MOL0     C98437   8.202   6.284   4.760 -0.2953  0.0186 -0.6120
  730MOL0     C98438   8.285   6.164   4.782 -0.1411  0.1983 -1.7122
  730MOL0     O98439   8.425   6.202   4.781  0.6089  0.1759  0.1790
  730MOL0     C98440   8.515   6.103   4.767 -0.2329  0.8338  1.5750
  730MOL0     C98441   8.505   5.981   4.833  0.3713  0.0476  0.0448
  730MOL0     C98442   8.596   5.875   4.799  0.2217 -0.0598 -0.8094
  730MOL0     C98443   8.563   5.739   4.862  0.3836 -0.2171  0.2805
  730MOL0     C98444   8.706   5.908   4.723 -0.3084  0.1180  0.7822
  730MOL0     C98445   8.816   5.813   4.670  0.3494  0.1471  0.6352
  730MOL0     O98446   8.935   5.862   4.636  0.0101  0.6288  0.0207
  730MOL0     C98447   9.009   5.799   4.537  0.7275  0.1951  0.5943
  730MOL0     C98448   8.948   5.753   4.420 -0.3478 -0.4331 -0.5219
  730MOL0     C98449   9.033   5.691   4.321  0.3095 -0.0314 -0.9845
  730MOL0     C98450   9.166   5.672   4.342 -0.1815 -0.6602  0.7437
  730MOL0     O98451   9.219   5.612   4.235  0.1094  0.2063  0.5100
  730MOL0     C98452   9.368   5.613   4.237  0.4739  1.5330  0.7991
  730MOL0     C98453   9.420   5.515   4.133 -0.1880 -0.4078  0.8192
  730MOL0     C98454   9.396   5.578   3.990 -0.0057  0.0378  0.6447
  730MOL0     C98455   9.434   5.470   3.881  0.4151  0.2480  0.1750
  730MOL0     C98456   9.426   5.534   3.744  0.1447  0.3362 -0.3083
  730MOL0     C98457   9.290   5.607   3.705 -0.9020  0.9063 -0.0401
  730MOL0     C98458   9.266   5.586   3.555  0.7744 -0.0401 -0.6856
  730MOL0     C98459   9.365   5.661   3.467  0.2114 -0.3318 -0.1071
  730MOL0    Cl98460   9.354   5.588   3.306 -0.0324  0.5580  0.0293
  730MOL0     C98461   9.227   5.723   4.457  0.3867  0.0025 -0.0525
  730MOL0     C98462   9.144   5.774   4.562 -0.1010 -0.6928  0.5445
  730MOL0     O98463   8.792   5.692   4.658  0.5310  0.5286  0.0628
  730MOL0     C98464   8.729   6.042   4.680 -0.0221 -0.4330 -0.7293
  730MOL0     C98465   8.634   6.141   4.702 -0.2227 -0.3117 -0.3517
  730MOL0     N98466   8.127   6.197   5.118  0.4628  0.6987  0.0304
  730MOL0     N98467   8.107   6.096   5.188 -0.1912  0.0593  0.3625
  730MOL0     C98468   8.270   5.194   4.411  0.5695 -0.2030 -0.3171
  730MOL0     C98469   8.340   5.138   4.308  0.1364  0.1424  0.4568
  730MOL0     C98470   8.637   5.028   3.989  0.0126  0.0242 -0.2531
  730MOL0     C98471   8.756   4.984   4.039 -0.2956  1.5441 -0.4311
  730MOL0     C98472   8.847   4.915   3.962  0.1862 -0.6549 -0.0224
  730MOL0     C98473   8.829   4.905   3.821 -0.3826  0.0345  0.3814
  730MOL0     O98474   8.917   4.850   3.728  0.0085 -0.0650 -0.3540
  730MOL0     C98475   9.001   4.745   3.775  0.0690  0.6100  0.6857
  730MOL0     C98476   9.057   4.673   3.653 -0.2031  0.1942  0.3669
  730MOL0     C98477   9.115   4.762   3.550 -1.5100  0.8990 -0.1015
  730MOL0     C98478   9.145   4.682   3.423  0.6693 -0.1926  0.5789
  730MOL0     C98479   9.185   4.783   3.328 -0.4672  0.3250  0.3313
  730MOL0     C98480   9.213   4.862   3.244 -0.6140  0.3569  0.4058
  730MOL0     C98481   8.713   4.953   3.767 -0.0433  0.7039  0.4893
  730MOL0     C98482   8.613   5.009   3.852  0.4192  0.4335  0.0035
  730MOL0     H98483   8.660   5.190   4.428  0.9211  0.0506 -2.2887
  730MOL0     H98484   8.542   5.309   4.594 -0.4630  0.0302 -0.2586
  730MOL0     H98485   8.095   5.374   4.540 -0.3735  1.3042  1.4142
  730MOL0     H98486   8.089   5.214   4.608 -0.6453 -0.5228  0.3274
  730MOL0     H98487   7.989   5.332   4.776 -0.0142 -2.1576  0.3424
  730MOL0     H98488   8.155   5.309   4.842  0.8113 -1.9828 -2.2839
  730MOL0     H98489   8.223   5.522   4.780 -0.1931 -0.8843  0.4765
  730MOL0     H98490   8.081   5.564   4.696  1.2543 -0.1251 -0.6585
  730MOL0     H98491   7.960   5.581   4.894  0.7008  1.7002  2.6109
  730MOL0     H98492   8.074   5.483   4.995 -1.4214 -2.5655 -1.2528
  730MOL0     H98493   8.250   5.672   4.950  0.8307  0.7144 -0.8769
  730MOL0     H98494   8.116   5.768   4.883 -1.3790 -1.2115 -1.2614
  730MOL0     H98495   8.147   5.656   5.158 -2.0159  0.6189  1.3997
  730MOL0     H98496   8.177   5.831   5.096 -0.1271 -0.9914  1.5907
  730MOL0     H98497   7.924   5.811   5.015 -2.6966  3.3926  1.2512
  730MOL0     H98498   7.918   5.694   5.156  1.2207 -0.2158 -0.9320
  730MOL0     H98499   7.991   5.884   5.299  0.4429  1.8593  0.5759
  730MOL0     H98500   7.839   5.914   5.223 -0.8768 -1.5426 -4.6583
  730MOL0     H98501   7.861   6.062   4.975 -0.1388  0.7608 -0.9881
  730MOL0     H98502   7.899   6.325   4.938 -0.0227 -0.1596  0.1753
  730MOL0     H98503   8.070   6.381   4.960 -1.8447  0.4135  0.5433
  730MOL0     H98504   8.008   6.347   4.721 -0.6752  0.5511  0.3594
  730MOL0     H98505   8.024   6.163   4.757  1.9782  0.6233 -1.7251
  730MOL0     H98506   8.240   6.360   4.830 -2.5716  1.9901 -1.3593
  730MOL0     H98507   8.225   6.308   4.655  0.9188  1.2176 -0.1039
  730MOL0     H98508   8.274   6.092   4.700  0.1027  0.0523 -1.6191
  730MOL0     H98509   8.259   6.121   4.879 -2.0297 -0.4413 -2.4563
  730MOL0     H98510   8.410   5.983   4.886  0.0733  0.0373 -0.4735
  730MOL0     H98511   8.637   5.663   4.837 -0.3975 -0.5206 -1.2126
  730MOL0     H98512   8.574   5.754   4.970  0.3273  0.5015  0.1960
  730MOL0     H98513   8.458   5.711   4.846 -0.2187  1.0299  1.7919
  730MOL0     H98514   8.841   5.772   4.415 -1.1386 -3.5142  1.7519
  730MOL0     H98515   8.987   5.662   4.227  2.9526 -0.7485 -2.1560
  730MOL0     H98516   9.402   5.717   4.231  2.1708  0.9642 -0.0974
  730MOL0     H98517   9.418   5.576   4.326  1.8937  1.3727 -0.0348
  730MOL0     H98518   9.527   5.513   4.154 -0.1718  4.2739  2.2097
  730MOL0     H98519   9.362   5.423   4.148 -2.4781  1.3728  4.1130
  730MOL0     H98520   9.442   5.672   3.957  0.7315 -1.2530 -2.3863
  730MOL0     H98521   9.288   5.589   3.998 -0.1903 -2.3734  2.8584
  730MOL0     H98522   9.535   5.436   3.905  0.8633  1.3895 -0.0320
  730MOL0     H98523   9.371   5.381   3.886  1.0549 -0.2262 -0.0585
  730MOL0     H98524   9.463   5.466   3.666  2.9952 -0.2585  1.4017
  730MOL0     H98525   9.509   5.605   3.754  1.7108 -1.5600  0.8931
  730MOL0     H98526   9.204   5.585   3.770  1.8402 -1.3374  3.1940
  730MOL0     H98527   9.310   5.714   3.717 -0.5942  1.1889 -2.5550
  730MOL0     H98528   9.168   5.626   3.525  0.1045  0.1741  1.6292
  730MOL0     H98529   9.262   5.478   3.540  0.5487 -0.1833  0.3576
  730MOL0     H98530   9.468   5.637   3.496  0.5802 -2.7678 -2.8842
  730MOL0     H98531   9.345   5.768   3.475  1.8785 -0.1537  3.4364
  730MOL0     H98532   9.333   5.717   4.482  0.2584  2.0847  1.1945
  730MOL0     H98533   9.202   5.791   4.652  1.2340  2.7339 -0.7936
  730MOL0     H98534   8.820   6.085   4.638 -0.3854  0.1293 -0.9577
  730MOL0     H98535   8.662   6.244   4.682 -2.0168  0.5794  1.3447
  730MOL0     H98536   8.162   5.187   4.410  0.4022  1.6812 -2.0971
  730MOL0     H98537   8.284   5.088   4.229  2.3984 -0.7927 -0.6327
  730MOL0     H98538   8.767   5.002   4.145  0.5083  0.7539 -0.3665
  730MOL0     H98539   8.938   4.888   4.013 -0.0426  1.4929  1.6451
  730MOL0     H98540   9.088   4.771   3.837  0.2818 -0.4499  0.8607
  730MOL0     H98541   8.951   4.665   3.831  0.6259 -0.7352 -0.6733
  730MOL0     H98542   8.976   4.617   3.605  0.6607 -0.4906 -0.3378
  730MOL0     H98543   9.129   4.596   3.682 -1.5249 -1.0562  0.4531
  730MOL0     H98544   9.211   4.803   3.582 -1.7068  0.9637  0.4150
  730MOL0     H98545   9.045   4.844   3.529 -0.9792  1.2310 -0.6128
  730MOL0     H98546   9.053   4.636   3.384  0.6023  2.3687 -2.7235
  730MOL0     H98547   9.223   4.606   3.438  0.6569 -0.0684  1.3126
  730MOL0     H98548   9.260   4.921   3.167  0.8462 -1.1728  0.0519
  730MOL0     H98549   8.698   4.943   3.660  1.4344  4.3948 -0.2249
  730MOL0     H98550   8.515   5.037   3.813  0.6190 -1.9366 -2.4995
  731MOL0     O98551   7.522   3.464   6.774  0.2006 -0.5696 -0.6453
  731MOL0     C98552   7.626   3.475   6.840  0.6845 -0.4408 -0.1265
  731MOL0     O98553   7.715   3.567   6.814 -0.5884 -0.1517 -0.7800
  731MOL0     C98554   7.706   3.628   6.695  0.0455 -1.1288 -0.6102
  731MOL0     C98555   7.787   3.605   6.588  0.1805 -0.7668 -0.0170
  731MOL0     C98556   7.775   3.678   6.467  0.8503  0.1116  0.7520
  731MOL0     C98557   7.694   3.787   6.448 -0.6449 -0.4485 -0.2937
  731MOL0     O98558   7.687   3.867   6.342 -0.4812  0.4637 -0.6842
  731MOL0     C98559   7.757   3.832   6.224 -0.1870 -0.2603  0.0260
  731MOL0     C98560   7.908   3.882   6.215 -0.4218 -0.5923  0.6751
  731MOL0     C98561   7.959   3.876   6.056  0.3537  0.0313 -0.4086
  731MOL0     C98562   7.915   3.761   5.973  0.5461  0.4128  0.5518
  731MOL0     C98563   7.997   3.725   5.846  0.1787 -0.3429  0.5505
  731MOL0     C98564   8.001   3.835   5.752  0.0189 -0.6897  0.3025
  731MOL0     C98565   8.081   3.800   5.629 -1.0632  0.0581 -0.2234
  731MOL0     C98566   8.007   3.720   5.533  0.3872  0.2449 -0.2794
  731MOL0     N98567   8.087   3.677   5.418 -0.4108 -0.4628 -0.6194
  731MOL0     C98568   8.220   3.625   5.413  0.1405  0.6890 -0.6443
  731MOL0     C98569   8.242   3.583   5.290  1.4854 -0.0411 -0.0864
  731MOL0     C98570   8.355   3.525   5.220  0.6111 -0.3368 -0.2476
  731MOL0     C98571   8.351   3.376   5.243 -0.6068 -0.1994  0.4144
  731MOL0     C98572   8.404   3.296   5.129 -0.7910 -0.1857 -0.5380
  731MOL0     C98573   8.303   3.274   5.016  0.2049 -0.3996 -0.5121
  731MOL0     O98574   8.355   3.206   4.901  0.7758 -0.1440 -0.2859
  731MOL0     C98575   8.335   3.281   4.780 -0.7469 -0.7775  0.3248
  731MOL0     C98576   8.448   3.344   4.725 -0.3523 -1.0303 -0.5563
  731MOL0     C98577   8.430   3.422   4.612 -0.4014  0.6069  0.3961
  731MOL0     C98578   8.560   3.477   4.561  1.7340 -0.4714 -0.0076
  731MOL0     C98579   8.307   3.419   4.535  1.4732 -1.0843  0.5921
  731MOL0     C98580   8.282   3.482   4.395 -0.4729  1.0516 -0.2621
  731MOL0     O98581   8.364   3.587   4.353  0.0088 -0.6083 -0.1610
  731MOL0     C98582   8.345   3.632   4.224  0.3554 -0.5981 -0.1996
  731MOL0     C98583   8.429   3.588   4.126 -0.0260  0.7181 -0.4967
  731MOL0     C98584   8.425   3.635   3.986 -0.3492 -0.2239 -0.1966
  731MOL0     C98585   8.318   3.705   3.946  0.1057  1.6090 -0.6700
  731MOL0     O98586   8.290   3.738   3.819  0.5564  0.2163  0.4597
  731MOL0     C98587   8.354   3.662   3.706 -0.1694 -0.9648  0.9644
  731MOL0     C98588   8.314   3.729   3.570  0.1054 -0.8156  1.0180
  731MOL0     C98589   8.380   3.876   3.557  0.7006 -0.1092  0.1073
  731MOL0     C98590   8.264   3.985   3.536 -0.2078  0.1159  0.1229
  731MOL0     C98591   8.170   3.996   3.657  0.4498 -0.4417  0.0817
  731MOL0     C98592   8.083   4.121   3.642  0.0119  0.2806  0.4932
  731MOL0     C98593   7.991   4.150   3.758  0.5292  0.7168 -0.5843
  731MOL0     C98594   7.890   4.036   3.788  0.5333 -0.4497 -0.5155
  731MOL0    Cl98595   7.780   4.044   3.649 -0.0940  0.5500 -0.2785
  731MOL0     C98596   8.228   3.744   4.045  0.6233  0.7060 -0.0796
  731MOL0     C98597   8.244   3.710   4.176  0.8415 -0.2761  0.1847
  731MOL0     O98598   8.192   3.434   4.326  0.1178 -0.3286 -0.1783
  731MOL0     C98599   8.194   3.359   4.601 -1.1958  0.9228  0.2668
  731MOL0     C98600   8.211   3.297   4.725 -0.0968 -0.4432 -0.1785
  731MOL0     N98601   8.119   3.586   5.218  0.6025 -0.1066  0.2297
  731MOL0     N98602   8.025   3.638   5.295  0.3372 -0.9709 -0.1510
  731MOL0     C98603   7.614   3.819   6.558 -1.0048 -1.1952 -0.0872
  731MOL0     C98604   7.614   3.734   6.678  0.4979  0.1648  0.2991
  731MOL0     C98605   7.670   3.375   6.939 -0.4235 -0.2337  0.0881
  731MOL0     C98606   7.589   3.269   6.983  0.3484 -0.6721 -0.2154
  731MOL0     C98607   7.641   3.188   7.078 -0.2627  0.4331  1.0168
  731MOL0     C98608   7.771   3.203   7.131  0.8141 -0.9480  0.0435
  731MOL0     O98609   7.816   3.118   7.222 -0.3958 -0.2073  0.7189
  731MOL0     C98610   7.916   3.158   7.317 -0.2956 -0.2020 -0.1790
  731MOL0     C98611   7.896   3.064   7.440  0.0359 -0.4201  0.1308
  731MOL0     C98612   7.754   3.069   7.494 -0.2956 -0.2556 -0.6798
  731MOL0     C98613   7.671   2.947   7.449  0.4033  0.0408  0.1453
  731MOL0     C98614   7.539   2.975   7.500  0.7371  0.1811  1.2785
  731MOL0     C98615   7.430   3.013   7.542 -0.9178  1.0008 -0.0791
  731MOL0     C98616   7.858   3.291   7.072 -0.2205 -0.4106 -0.1875
  731MOL0     C98617   7.805   3.386   6.981 -0.0085 -0.0739  0.0462
  731MOL0     H98618   7.865   3.529   6.593  1.5198  0.3826 -1.9640
  731MOL0     H98619   7.854   3.666   6.393 -1.4189  0.2742 -1.9065
  731MOL0     H98620   7.739   3.725   6.205 -3.4896 -0.3501  2.7794
  731MOL0     H98621   7.698   3.882   6.147 -3.4221 -0.5436  2.1524
  731MOL0     H98622   7.909   3.988   6.240  2.3008 -0.2260 -0.5765
  731MOL0     H98623   7.974   3.824   6.280 -1.1315 -0.5112  1.4808
  731MOL0     H98624   7.939   3.969   6.003  1.6849 -0.5674 -2.0420
  731MOL0     H98625   8.069   3.879   6.059  0.4733 -2.2507 -0.9172
  731MOL0     H98626   7.923   3.667   6.029  1.2038 -0.8290 -1.5266
  731MOL0     H98627   7.810   3.764   5.942  0.7824  0.3022 -0.2857
  731MOL0     H98628   8.098   3.689   5.869 -0.3722 -0.7637  2.5096
  731MOL0     H98629   7.950   3.632   5.812  0.3461 -0.2089 -0.0505
  731MOL0     H98630   7.901   3.861   5.714 -0.6769 -1.9040  1.2233
  731MOL0     H98631   8.062   3.916   5.792  2.6253 -2.7539  0.7610
  731MOL0     H98632   8.118   3.894   5.584  1.5879 -1.0927 -0.6516
  731MOL0     H98633   8.170   3.744   5.659  0.0446  2.1633  0.7151
  731MOL0     H98634   7.920   3.782   5.512  1.1040  2.5000  2.7868
  731MOL0     H98635   7.985   3.630   5.591  2.6339 -0.6722 -0.7265
  731MOL0     H98636   8.296   3.624   5.490  0.3743  1.2026 -0.8576
  731MOL0     H98637   8.359   3.564   5.118  1.6270 -1.7318 -0.7757
  731MOL0     H98638   8.450   3.558   5.262  0.7344  0.9443 -1.4785
  731MOL0     H98639   8.254   3.341   5.278 -1.3051 -1.5277 -2.5481
  731MOL0     H98640   8.424   3.361   5.323 -0.7554 -3.8657 -0.0119
  731MOL0     H98641   8.429   3.197   5.170  3.0384  0.1379 -1.7217
  731MOL0     H98642   8.504   3.336   5.109  0.1337 -1.7755  0.6348
  731MOL0     H98643   8.255   3.368   4.985 -0.2723 -1.2561 -2.5253
  731MOL0     H98644   8.226   3.215   5.067  2.7220 -2.7087  0.8826
  731MOL0     H98645   8.544   3.319   4.768 -1.2870 -1.3437  1.4572
  731MOL0     H98646   8.635   3.399   4.546 -0.9986 -3.6669  1.7702
  731MOL0     H98647   8.556   3.525   4.462 -1.0040  0.7658  0.6032
  731MOL0     H98648   8.593   3.559   4.626 -0.4367  1.2352 -0.9027
  731MOL0     H98649   8.505   3.514   4.147 -1.0237  0.1346  1.2254
  731MOL0     H98650   8.507   3.606   3.921 -1.1020 -2.0844 -0.3935
  731MOL0     H98651   8.463   3.671   3.708 -0.2763  0.8431  0.7612
  731MOL0     H98652   8.311   3.562   3.703  1.1628 -1.5452 -0.8636
  731MOL0     H98653   8.361   3.673   3.489 -0.3058 -0.3991  0.4811
  731MOL0     H98654   8.206   3.734   3.551  0.0982  1.5328  1.3456
  731MOL0     H98655   8.456   3.872   3.478 -0.3611  2.7888 -1.2168
  731MOL0     H98656   8.424   3.899   3.654 -3.5902 -0.5245  2.4054
  731MOL0     H98657   8.311   4.083   3.536 -0.9417  0.4774 -0.7918
  731MOL0     H98658   8.218   3.969   3.438  1.8635 -1.6852 -0.6430
  731MOL0     H98659   8.226   4.003   3.751  0.6897 -0.9888 -0.0175
  731MOL0     H98660   8.098   3.914   3.656  1.3361 -1.2699 -2.2414
  731MOL0     H98661   8.155   4.201   3.623 -0.1452 -0.1691 -2.3882
  731MOL0     H98662   8.029   4.118   3.547  1.0000  0.5210 -0.0782
  731MOL0     H98663   7.933   4.240   3.737 -0.6828  0.4893  1.5318
  731MOL0     H98664   8.055   4.175   3.842 -0.3450  2.0626 -0.2934
  731MOL0     H98665   7.834   4.055   3.880  0.9907  2.1234 -0.6780
  731MOL0     H98666   7.928   3.934   3.794  0.4392 -0.4033  1.1441
  731MOL0     H98667   8.134   3.787   4.012  1.0562  0.8795 -1.1083
  731MOL0     H98668   8.169   3.753   4.242  2.1378  0.4963  1.2124
  731MOL0     H98669   8.098   3.353   4.551 -0.8393 -0.1528 -0.3279
  731MOL0     H98670   8.127   3.246   4.772 -1.1564  1.4982  0.1350
  731MOL0     H98671   7.561   3.908   6.525 -0.2184 -0.9603 -0.7309
  731MOL0     H98672   7.526   3.753   6.739 -0.1018 -0.5221 -0.3426
  731MOL0     H98673   7.484   3.266   6.954 -0.3952  2.3392  1.7407
  731MOL0     H98674   7.581   3.105   7.112 -1.7522 -1.1573 -4.5302
  731MOL0     H98675   8.014   3.139   7.273  0.4678 -0.8180  1.6882
  731MOL0     H98676   7.906   3.262   7.350 -2.9982 -0.5179  0.2509
  731MOL0     H98677   7.963   3.091   7.522 -1.0094 -0.6501  1.0905
  731MOL0     H98678   7.923   2.964   7.403 -3.1783 -0.7282 -1.7869
  731MOL0     H98679   7.707   3.161   7.461 -1.1119 -0.3144  0.2999
  731MOL0     H98680   7.759   3.075   7.603  1.8674  1.5397 -0.8160
  731MOL0     H98681   7.708   2.849   7.481  0.4203  0.7256  2.4038
  731MOL0     H98682   7.660   2.933   7.341 -1.3249  0.3186  0.2485
  731MOL0     H98683   7.330   3.042   7.569 -0.7879 -0.7319  2.6167
  731MOL0     H98684   7.964   3.290   7.095 -0.1293 -0.9832 -0.6108
  731MOL0     H98685   7.869   3.462   6.937 -0.2777  1.0368  1.4989
  732MOL0     O98686   1.566   4.691   2.121  0.3669 -0.6161  0.2635
  732MOL0     C98687   1.634   4.587   2.120  0.2744  0.5149 -0.3791
  732MOL0     O98688   1.761   4.580   2.088  0.1851 -0.6417  0.6630
  732MOL0     C98689   1.821   4.689   2.018 -0.5718 -0.7065  0.0511
  732MOL0     C98690   1.764   4.739   1.900  0.4511  0.8944  0.5634
  732MOL0     C98691   1.825   4.846   1.826  1.2886 -0.0387  0.2063
  732MOL0     C98692   1.946   4.901   1.869  0.6902  0.0909  0.6069
  732MOL0     O98693   1.997   4.998   1.787  0.1607 -0.1268 -0.3302
  732MOL0     C98694   2.141   4.981   1.745  1.2005 -0.1691  0.8318
  732MOL0     C98695   2.157   5.045   1.601  0.2123  0.4509 -0.1541
  732MOL0     C98696   2.307   5.070   1.571 -0.0379  0.6239  0.9961
  732MOL0     C98697   2.314   5.139   1.432 -0.3578  0.2898 -0.4116
  732MOL0     C98698   2.279   5.055   1.312 -0.0619 -0.5314 -1.2699
  732MOL0     C98699   2.373   5.073   1.189  0.9224  0.2274  1.1966
  732MOL0     C98700   2.327   4.970   1.078  0.2275  0.4536  0.0609
  732MOL0     C98701   2.327   4.826   1.120 -0.6769  0.8411 -0.6441
  732MOL0     N98702   2.459   4.766   1.166 -0.0398 -1.4585 -0.5906
  732MOL0     C98703   2.508   4.786   1.293 -0.1957 -0.5173 -0.9268
  732MOL0     C98704   2.603   4.694   1.315 -0.7087 -0.3064  1.0784
  732MOL0     C98705   2.685   4.701   1.448 -0.3829  0.1710 -0.5183
  732MOL0     C98706   2.796   4.607   1.445 -0.4732 -0.3547 -1.3486
  732MOL0     C98707   2.864   4.588   1.584  0.2444 -0.8054 -0.3379
  732MOL0     C98708   2.969   4.476   1.581  0.1500 -0.3272 -0.5178
  732MOL0     O98709   3.085   4.518   1.501 -0.1444 -0.4000 -1.0235
  732MOL0     C98710   3.176   4.619   1.531  0.3429 -0.1350  0.7990
  732MOL0     C98711   3.235   4.687   1.419 -0.2305 -0.6862 -0.6096
  732MOL0     C98712   3.328   4.795   1.445  0.3814  0.8893  0.4804
  732MOL0     C98713   3.395   4.847   1.322 -0.0827  0.4540  0.5291
  732MOL0     C98714   3.350   4.854   1.572 -0.2959  0.1181  0.1562
  732MOL0     C98715   3.450   4.952   1.606 -0.5957  0.2922 -0.7537
  732MOL0     O98716   3.476   5.060   1.518  0.5682  0.3637  0.7964
  732MOL0     C98717   3.597   5.111   1.497 -0.2033  0.1397  0.3828
  732MOL0     C98718   3.609   5.190   1.386 -0.5277 -1.3625  1.5335
  732MOL0     C98719   3.734   5.239   1.334  0.0050 -0.0594 -1.1612
  732MOL0     C98720   3.855   5.210   1.408 -0.3690 -0.1018 -0.3484
  732MOL0     O98721   3.978   5.246   1.370  0.5021 -0.3370  1.0142
  732MOL0     C98722   4.047   5.156   1.283  0.2311 -0.2613 -0.1733
  732MOL0     C98723   4.167   5.218   1.214 -0.2684 -0.2113 -0.0166
  732MOL0     C98724   4.263   5.118   1.156 -0.0270 -0.2855 -0.2156
  732MOL0     C98725   4.377   5.195   1.085 -0.5061 -0.6075 -0.3978
  732MOL0     C98726   4.487   5.108   1.023  0.9506  0.4099 -0.6170
  732MOL0     C98727   4.604   5.184   0.952  0.0633 -0.0495 -0.0534
  732MOL0     C98728   4.573   5.279   0.836  0.0816 -0.7196  0.4999
  732MOL0     C98729   4.690   5.317   0.738  0.0402  0.1655  0.2843
  732MOL0    Cl98730   4.850   5.311   0.823  0.0683  0.2145 -0.1583
  732MOL0     C98731   3.839   5.132   1.520 -0.6487 -0.1404 -0.8851
  732MOL0     C98732   3.713   5.074   1.566 -0.1678 -0.8804  1.2348
  732MOL0     O98733   3.506   4.931   1.715 -0.2852  0.2182 -0.6540
  732MOL0     C98734   3.279   4.784   1.675  0.6133  0.7746 -0.4349
  732MOL0     C98735   3.197   4.674   1.655  0.4346 -0.1991 -0.1161
  732MOL0     N98736   2.620   4.620   1.196 -0.3595 -0.4673 -0.2793
  732MOL0     N98737   2.530   4.663   1.113  0.1429 -0.5236  0.4358
  732MOL0     C98738   1.998   4.850   1.980  0.0833  0.0136 -0.2424
  732MOL0     C98739   1.943   4.743   2.053 -0.8711 -0.0179  0.6523
  732MOL0     C98740   1.558   4.460   2.155 -1.0281  0.8413 -0.1945
  732MOL0     C98741   1.614   4.333   2.117 -0.5625 -0.6311  0.2357
  732MOL0     C98742   1.562   4.214   2.153 -0.0958  0.3236 -0.2302
  732MOL0     C98743   1.453   4.211   2.240 -1.0599  0.2803  0.1050
  732MOL0     O98744   1.416   4.082   2.292 -0.0104 -0.5632  0.9300
  732MOL0     C98745   1.324   4.062   2.399  0.1160  0.7507 -0.4822
  732MOL0     C98746   1.200   3.989   2.354  0.7118  0.6608  0.7432
  732MOL0     C98747   1.091   3.977   2.459 -1.0176 -0.0331  0.5247
  732MOL0     C98748   1.010   4.105   2.465  0.6294 -0.4493  0.4162
  732MOL0     C98749   0.913   4.097   2.357  0.6166 -1.2511  0.1074
  732MOL0     C98750   0.812   4.107   2.282  0.4796 -0.1266  0.1042
  732MOL0     C98751   1.383   4.334   2.264  0.0762  0.4258  0.3806
  732MOL0     C98752   1.443   4.452   2.235 -0.9497 -1.0537  0.9560
  732MOL0     H98753   1.668   4.698   1.872 -0.9482  4.0449  0.3353
  732MOL0     H98754   1.764   4.874   1.741 -0.0552 -1.1114  0.7772
  732MOL0     H98755   2.203   5.033   1.818  2.2312  0.1756 -0.2664
  732MOL0     H98756   2.170   4.876   1.742  1.0023 -0.2353  1.2017
  732MOL0     H98757   2.103   4.986   1.527 -3.9246  2.0573  1.3204
  732MOL0     H98758   2.098   5.137   1.608 -0.0508  0.2329  0.6382
  732MOL0     H98759   2.354   5.140   1.641  1.2305 -0.1381  0.9371
  732MOL0     H98760   2.374   4.985   1.561  0.2036  1.0673 -2.0654
  732MOL0     H98761   2.265   5.236   1.429 -2.4686 -0.7396 -1.6194
  732MOL0     H98762   2.422   5.157   1.427  0.0781 -1.4534  1.4299
  732MOL0     H98763   2.299   4.954   1.347  1.3413 -0.5076 -1.9391
  732MOL0     H98764   2.174   5.059   1.280  0.3296 -0.9232 -2.6540
  732MOL0     H98765   2.350   5.165   1.133  0.9514  1.1713  2.6751
  732MOL0     H98766   2.479   5.082   1.211  1.3630 -3.0054  0.8836
  732MOL0     H98767   2.223   4.989   1.049  0.1212  0.2750  0.3105
  732MOL0     H98768   2.392   4.988   0.992 -1.9990  1.7845 -1.4570
  732MOL0     H98769   2.279   4.762   1.045 -1.7229 -3.2960  3.1624
  732MOL0     H98770   2.260   4.810   1.204 -1.4229 -1.3904 -1.5742
  732MOL0     H98771   2.473   4.863   1.361 -1.0697  0.0114 -1.9446
  732MOL0     H98772   2.731   4.797   1.472 -0.3177 -0.0005  0.0782
  732MOL0     H98773   2.619   4.675   1.531 -0.0451 -0.7967 -0.5320
  732MOL0     H98774   2.868   4.640   1.369 -2.3002  3.6730 -1.5245
  732MOL0     H98775   2.756   4.508   1.421  0.1275 -1.4244  1.5923
  732MOL0     H98776   2.777   4.560   1.645  0.3421  1.2051  0.8173
  732MOL0     H98777   2.900   4.689   1.602  0.9808 -0.9076 -1.1615
  732MOL0     H98778   2.940   4.380   1.538  2.4704 -1.2164 -0.2604
  732MOL0     H98779   2.995   4.457   1.686  1.8118 -3.6334 -1.3718
  732MOL0     H98780   3.223   4.644   1.320  0.4409 -0.0806 -0.9649
  732MOL0     H98781   3.361   4.794   1.233 -1.4267  1.9005  0.1388
  732MOL0     H98782   3.359   4.948   1.299 -1.9097 -0.5433 -1.2735
  732MOL0     H98783   3.502   4.848   1.343 -0.7043  0.5516  4.5481
  732MOL0     H98784   3.513   5.205   1.337 -0.2361 -1.4929  0.9130
  732MOL0     H98785   3.757   5.299   1.246 -0.6576  2.8121  0.4971
  732MOL0     H98786   4.077   5.071   1.345  1.1031 -0.1317 -0.4145
  732MOL0     H98787   3.979   5.120   1.205 -1.0018 -2.3679  1.7295
  732MOL0     H98788   4.116   5.279   1.140 -0.8001  0.2259  0.6969
  732MOL0     H98789   4.222   5.287   1.280 -2.5895  2.3563 -0.5932
  732MOL0     H98790   4.210   5.060   1.080 -2.4320  2.1628 -0.5643
  732MOL0     H98791   4.294   5.047   1.233  0.1948 -1.5308 -1.3986
  732MOL0     H98792   4.340   5.259   1.005 -0.0203  0.0670 -0.0914
  732MOL0     H98793   4.424   5.269   1.150  1.9478 -1.6867 -0.8183
  732MOL0     H98794   4.444   5.043   0.947 -1.0889 -1.5594  2.0265
  732MOL0     H98795   4.517   5.035   1.099  1.9594 -0.3540 -1.7122
  732MOL0     H98796   4.650   5.244   1.031 -3.3195 -0.3591  2.4043
  732MOL0     H98797   4.670   5.105   0.916  0.2235 -2.0196  3.9549
  732MOL0     H98798   4.524   5.368   0.876  0.4738  0.5695 -1.7439
  732MOL0     H98799   4.505   5.225   0.769  2.3281  0.4181 -2.9759
  732MOL0     H98800   4.677   5.421   0.710 -3.1111 -0.1438  0.1716
  732MOL0     H98801   4.704   5.248   0.654  2.9481  1.4224 -0.3905
  732MOL0     H98802   3.926   5.109   1.580 -2.0115 -1.0894  0.8384
  732MOL0     H98803   3.712   4.999   1.646  2.7910 -1.9883  0.3664
  732MOL0     H98804   3.290   4.815   1.778 -0.7120  2.6765 -0.8046
  732MOL0     H98805   3.159   4.638   1.750  2.3328 -0.1951  0.6944
  732MOL0     H98806   2.103   4.875   1.997 -0.3667  0.3229  2.6548
  732MOL0     H98807   2.005   4.699   2.130  1.4809  1.3866 -0.3222
  732MOL0     H98808   1.710   4.342   2.067 -0.6922  1.7967  0.2965
  732MOL0     H98809   1.608   4.122   2.119 -0.2980  1.1184 -2.9304
  732MOL0     H98810   1.366   4.008   2.484 -3.3418  0.0855  0.9749
  732MOL0     H98811   1.288   4.159   2.434 -1.1926  1.3659 -3.2276
  732MOL0     H98812   1.238   3.889   2.330  0.2026  0.4505  0.7879
  732MOL0     H98813   1.154   4.039   2.269  1.5300  1.4666  0.7591
  732MOL0     H98814   1.135   3.946   2.554  0.8033 -2.0601 -0.8752
  732MOL0     H98815   1.028   3.891   2.435  0.0577 -0.3266 -1.5077
  732MOL0     H98816   1.069   4.195   2.447 -0.1416 -0.4203 -2.4944
  732MOL0     H98817   0.959   4.105   2.562 -2.3615 -2.2401 -1.0310
  732MOL0     H98818   0.720   4.114   2.228 -0.6469  0.9920  2.0367
  732MOL0     H98819   1.294   4.336   2.326  0.8634  0.8996  1.5431
  732MOL0     H98820   1.415   4.548   2.278  3.6330  0.9375  0.0552
  733MOL0     O98821  10.673   4.334  10.357 -0.2747  0.1534  0.1693
  733MOL0     C98822  10.566   4.396  10.320 -0.6315 -0.2014  0.3986
  733MOL0     O98823  10.504   4.384  10.192 -0.5000 -0.0250 -0.5731
  733MOL0     C98824  10.562   4.292  10.106  0.8098  0.3852  0.0696
  733MOL0     C98825  10.696   4.307  10.058 -0.1436  0.5254 -0.4322
  733MOL0     C98826  10.749   4.211   9.968  0.2963 -1.0903 -0.1121
  733MOL0     C98827  10.673   4.104   9.923 -0.3823 -0.1191  0.6172
  733MOL0     O98828  10.730   4.033   9.815 -0.0512  0.1634 -0.5941
  733MOL0     C98829  10.673   3.909   9.777 -0.3706 -0.1987  0.1507
  733MOL0     C98830  10.779   3.819   9.717  0.6860  0.3247  0.1897
  733MOL0     C98831  10.753   3.667   9.722  0.0111 -0.4002 -0.6047
  733MOL0     C98832  10.811   3.601   9.598 -0.2373 -0.9612 -0.1693
  733MOL0     C98833  10.745   3.644   9.462 -0.3897 -1.3542  1.0390
  733MOL0     C98834  10.765   3.542   9.342 -0.1826  0.2328 -0.3646
  733MOL0     C98835  10.905   3.506   9.298 -0.2409 -0.8896 -0.3180
  733MOL0     C98836  10.905   3.432   9.161  0.2625 -0.2399  0.1075
  733MOL0     N98837  11.021   3.356   9.124 -0.0149 -0.6454 -0.1501
  733MOL0     C98838  11.089   3.272   9.208  0.7900  0.1645  0.0042
  733MOL0     C98839  11.202   3.249   9.132  0.1483 -0.2458  0.4296
  733MOL0     C98840  11.317   3.154   9.170 -0.3274 -0.5868  0.3621
  733MOL0     C98841  11.457   3.214   9.151  1.1049 -0.0434  0.0746
  733MOL0     C98842  11.566   3.110   9.132 -1.5636  0.0095 -0.7577
  733MOL0     C98843  11.714   3.160   9.165  0.9765  0.2229  0.5257
  733MOL0     O98844  11.741   3.130   9.296 -0.8239  0.0779 -0.9352
  733MOL0     C98845  11.872   3.125   9.335 -0.5428 -0.5395  0.1974
  733MOL0     C98846  11.910   3.044   9.445 -0.9231 -0.5834  0.5406
  733MOL0     C98847  12.046   3.049   9.490  0.5163 -0.8324  0.3835
  733MOL0     C98848  12.061   2.960   9.610 -0.2972 -0.8347 -0.4428
  733MOL0     C98849  12.144   3.139   9.429  0.4021  0.2251  0.2331
  733MOL0     C98850  12.283   3.144   9.472 -0.4645 -0.8741 -0.4339
  733MOL0     O98851  12.357   3.227   9.399  0.5511 -0.5912  0.5194
  733MOL0     C98852  12.495   3.232   9.414  1.5081 -0.2366  0.4826
  733MOL0     C98853  12.579   3.124   9.464 -0.4672 -0.6418  0.3661
  733MOL0     C98854  12.708   3.152   9.485 -0.3857 -0.0499 -0.6239
  733MOL0     C98855  12.761   3.280   9.469 -0.7922  0.0505  0.1953
  733MOL0     O98856  12.897   3.314   9.483 -0.0892  0.0981  0.5395
  733MOL0     C98857  12.971   3.221   9.566 -0.6698 -0.2335 -0.1715
  733MOL0     C98858  12.936   3.229   9.715  0.5979  1.0659  0.4524
  733MOL0     C98859  12.917   3.366   9.762  1.1251  0.4198  0.7368
  733MOL0     C98860  12.915   3.370   9.915  0.1297  0.1669 -0.6989
  733MOL0     C98861  13.058   3.347   9.995  1.4006  0.1550 -0.3131
  733MOL0     C98862  13.040   3.321  10.145 -0.7375  0.5301  0.1067
  733MOL0     C98863  12.977   3.437  10.237  0.3986 -0.3945  0.1378
  733MOL0     C98864  13.008   3.409  10.385 -0.5192 -0.2266 -0.6720
  733MOL0    Cl98865  12.934   3.247  10.457 -0.4022  0.0786  0.0253
  733MOL0     C98866  12.678   3.382   9.419  0.0787 -0.5155  1.2768
  733MOL0     C98867  12.547   3.359   9.392 -0.5977 -0.0299  0.8138
  733MOL0     O98868  12.321   3.083   9.571 -0.3291  0.3976  0.3231
  733MOL0     C98869  12.100   3.223   9.330  0.3591 -1.0853  0.3555
  733MOL0     C98870  11.968   3.216   9.276 -1.0107  0.1072 -0.2335
  733MOL0     N98871  11.186   3.304   9.004 -0.4083 -0.1259  0.1977
  733MOL0     N98872  11.080   3.376   9.008  0.3333  0.3055  0.5010
  733MOL0     C98873  10.543   4.090   9.969  0.1643 -0.6727 -0.1766
  733MOL0     C98874  10.493   4.181  10.059  0.2566 -0.2066 -0.3035
  733MOL0     C98875  10.499   4.498  10.412 -0.7837  0.3155 -0.1987
  733MOL0     C98876  10.386   4.555  10.379  0.8118 -0.3018  0.0663
  733MOL0     C98877  10.330   4.648  10.472  0.5245 -0.1483 -0.1399
  733MOL0     C98878  10.394   4.685  10.601  0.0556 -0.1599  0.7856
  733MOL0     O98879  10.347   4.777  10.694  0.4097  0.2866  1.2993
  733MOL0     C98880  10.291   4.715  10.819  0.3085 -0.8830 -0.3472
  733MOL0     C98881  10.204   4.820  10.902  0.6397  0.3243 -0.4129
  733MOL0     C98882  10.146   4.756  11.027 -0.0644 -0.1262  0.4461
  733MOL0     C98883  10.054   4.851  11.109 -0.1772  0.3613  0.4517
  733MOL0     C98884  10.123   4.960  11.175 -1.1838  0.6105  0.7086
  733MOL0     C98885  10.170   5.063  11.208 -0.5254 -0.0097  0.0188
  733MOL0     C98886  10.519   4.627  10.619 -0.8630 -0.6067  0.2455
  733MOL0     C98887  10.567   4.538  10.526  0.3787 -0.3591  0.4907
  733MOL0     H98888  10.750   4.396  10.085  0.1905 -0.0933  1.0030
  733MOL0     H98889  10.846   4.233   9.924 -0.0229  0.8481  0.0726
  733MOL0     H98890  10.631   3.863   9.867  0.4120  3.5048  2.6667
  733MOL0     H98891  10.594   3.928   9.703  0.0562  0.1821 -0.2141
  733MOL0     H98892  10.779   3.856   9.614  0.1243 -1.5994 -0.5466
  733MOL0     H98893  10.879   3.828   9.759  1.0035 -1.0363 -0.2171
  733MOL0     H98894  10.796   3.633   9.816  1.8114 -0.2128 -1.3246
  733MOL0     H98895  10.644   3.660   9.718 -0.3041  2.5726 -0.0280
  733MOL0     H98896  10.919   3.611   9.586 -0.5372  1.7058 -1.5138
  733MOL0     H98897  10.779   3.497   9.603 -0.0584 -0.9584  1.3487
  733MOL0     H98898  10.637   3.658   9.462 -0.3123 -0.5575 -0.3157
  733MOL0     H98899  10.780   3.743   9.430 -1.5603 -1.3622 -0.4252
  733MOL0     H98900  10.719   3.447   9.371  4.4331 -2.0998  0.2472
  733MOL0     H98901  10.714   3.583   9.254 -2.0108 -1.5697 -0.2243
  733MOL0     H98902  10.965   3.597   9.297  0.3823 -1.2530  1.4400
  733MOL0     H98903  10.945   3.437   9.372  0.1042 -0.6729 -0.3003
  733MOL0     H98904  10.880   3.502   9.080 -2.5187 -2.8301 -1.4511
  733MOL0     H98905  10.821   3.362   9.161  0.3703 -0.3706 -0.2799
  733MOL0     H98906  11.057   3.230   9.304 -3.5589 -1.6023 -1.9359
  733MOL0     H98907  11.308   3.105   9.267 -2.9340  1.4536  1.2751
  733MOL0     H98908  11.314   3.074   9.095 -1.8350  2.2165 -2.8673
  733MOL0     H98909  11.469   3.272   9.243 -1.5049 -1.2368  1.2400
  733MOL0     H98910  11.455   3.283   9.066 -3.1368  0.5716  0.4583
  733MOL0     H98911  11.550   3.077   9.029 -0.8581 -0.7628 -0.6317
  733MOL0     H98912  11.560   3.021   9.196  2.0598  0.4501  0.4497
  733MOL0     H98913  11.718   3.268   9.147  0.5440  0.1012 -0.4093
  733MOL0     H98914  11.779   3.117   9.088 -1.5673  2.6618 -3.3440
  733MOL0     H98915  11.826   3.000   9.498 -0.6408 -3.3595 -1.1254
  733MOL0     H98916  12.126   2.879   9.573 -1.1190 -1.6815 -0.0702
  733MOL0     H98917  12.109   3.001   9.700 -3.7914 -0.6821  1.5042
  733MOL0     H98918  11.974   2.912   9.655  0.3426 -0.1483  1.6800
  733MOL0     H98919  12.548   3.028   9.506 -1.6772 -0.5553 -0.2698
  733MOL0     H98920  12.773   3.071   9.516 -1.2763 -0.4038  0.3611
  733MOL0     H98921  12.968   3.117   9.530  3.2627 -1.0337  1.2702
  733MOL0     H98922  13.079   3.240   9.556 -0.2393 -0.3920  3.0368
  733MOL0     H98923  12.850   3.163   9.728  1.6201 -0.6876 -1.2197
  733MOL0     H98924  13.006   3.180   9.782  1.7256 -0.3571 -1.6736
  733MOL0     H98925  12.828   3.408   9.714  2.0491  1.1629 -0.3957
  733MOL0     H98926  12.997   3.431   9.724 -1.3164  4.0428  1.2601
  733MOL0     H98927  12.878   3.471   9.937 -0.4036  0.2608 -1.9732
  733MOL0     H98928  12.833   3.308   9.952 -0.4027  2.0172  1.4325
  733MOL0     H98929  13.128   3.428   9.973  1.9215 -0.1850  0.0572
  733MOL0     H98930  13.105   3.257   9.954 -1.2655 -2.5537  2.0716
  733MOL0     H98931  12.985   3.229  10.167  0.2827 -0.7569 -2.3163
  733MOL0     H98932  13.140   3.287  10.173 -1.4927 -1.4219  0.6223
  733MOL0     H98933  12.869   3.431  10.220  0.6679 -0.6991 -1.5561
  733MOL0     H98934  13.014   3.531  10.196  0.5645  1.1251  3.4348
  733MOL0     H98935  12.994   3.496  10.450 -1.4372 -0.5929 -0.3693
  733MOL0     H98936  13.113   3.379  10.393 -0.7268 -0.7240  0.4715
  733MOL0     H98937  12.712   3.483   9.399 -4.2907  0.7186 -1.3505
  733MOL0     H98938  12.495   3.446   9.353  3.0674  1.0662 -2.1875
  733MOL0     H98939  12.159   3.298   9.276 -2.5653 -0.1831 -1.8892
  733MOL0     H98940  11.937   3.278   9.192 -6.3539 -3.5147 -1.4498
  733MOL0     H98941  10.468   4.020   9.932 -0.4065  0.1050 -0.5269
  733MOL0     H98942  10.388   4.167  10.082  0.8514 -2.1679  1.5326
  733MOL0     H98943  10.334   4.529  10.287  0.5822 -1.6951  0.5613
  733MOL0     H98944  10.237   4.702  10.457  0.1397 -1.2154 -1.8259
  733MOL0     H98945  10.226   4.638  10.776 -0.0867  0.5069 -2.3244
  733MOL0     H98946  10.358   4.668  10.892  1.9322  1.7531 -0.0087
  733MOL0     H98947  10.123   4.855  10.838  1.2828  3.1547  0.2161
  733MOL0     H98948  10.256   4.913  10.924 -0.4836  0.4875  1.7976
  733MOL0     H98949  10.237   4.727  11.079 -0.5857 -0.3147  1.2712
  733MOL0     H98950  10.098   4.660  11.007 -1.5344  0.4818  0.8949
  733MOL0     H98951  10.011   4.788  11.187  0.8379  1.7537  2.1850
  733MOL0     H98952   9.969   4.897  11.058  0.0081 -0.8699 -1.0783
  733MOL0     H98953  10.216   5.150  11.250  1.6644 -0.8336 -0.5527
  733MOL0     H98954  10.575   4.653  10.708 -0.5659 -1.6898  0.3811
  733MOL0     H98955  10.666   4.500  10.553  1.5691  0.6968 -2.0479
  734MOL0     O98956   1.405   3.814   3.169  0.7046  0.7479 -0.4131
  734MOL0     C98957   1.482   3.723   3.175  0.5022  0.0445  0.9053
  734MOL0     O98958   1.442   3.598   3.204 -0.4149  0.1477 -0.7703
  734MOL0     C98959   1.310   3.571   3.212 -0.0113  0.4796  0.8934
  734MOL0     C98960   1.261   3.502   3.102 -1.0910 -0.0773 -1.1845
  734MOL0     C98961   1.132   3.459   3.108  1.3864 -0.1679 -0.1215
  734MOL0     C98962   1.043   3.478   3.212 -0.1429 -0.2039  0.3739
  734MOL0     O98963   0.912   3.417   3.225 -0.4446 -0.0013 -0.0419
  734MOL0     C98964   0.851   3.424   3.353  0.5117  0.2020 -0.5660
  734MOL0     C98965   0.722   3.337   3.357  0.0008 -0.0455 -0.1903
  734MOL0     C98966   0.755   3.190   3.322 -0.6544  0.9499 -0.7062
  734MOL0     C98967   0.643   3.087   3.311 -0.7400  0.3784  0.6901
  734MOL0     C98968   0.521   3.131   3.214  0.2516  1.1069  0.3554
  734MOL0     C98969   0.410   3.041   3.210 -0.6007  0.1971  0.3137
  734MOL0     C98970   0.301   3.073   3.119  0.2097  0.4441 -1.3653
  734MOL0     C98971   0.261   3.220   3.111  0.6791  0.0412 -0.2551
  734MOL0     N98972   0.126   3.234   3.059 -0.0100  0.4436 -0.4382
  734MOL0     C98973   0.087   3.241   2.928  0.9184 -0.2724 -1.1764
  734MOL0     C98974  -0.048   3.229   2.930  0.3771  0.2101 -0.1217
  734MOL0     C98975  -0.157   3.244   2.819 -0.0610  0.8633  0.0715
  734MOL0     C98976  -0.167   3.119   2.730 -0.5005 -0.8632 -0.4385
  734MOL0     C98977  -0.245   3.005   2.787  0.5669  0.6068 -0.1915
  734MOL0     C98978  -0.239   2.890   2.693 -0.0329 -0.6342  0.8185
  734MOL0     O98979  -0.297   2.927   2.566  0.0605  0.1544 -0.1616
  734MOL0     C98980  -0.287   2.843   2.459  0.0774 -1.3275 -1.4714
  734MOL0     C98981  -0.236   2.709   2.455  0.0336 -0.3105 -0.4726
  734MOL0     C98982  -0.246   2.626   2.343 -0.5352  0.4202  0.4004
  734MOL0     C98983  -0.206   2.481   2.361 -0.0566  0.2304  0.1845
  734MOL0     C98984  -0.302   2.676   2.222 -1.0141  0.8664 -0.5273
  734MOL0     C98985  -0.315   2.603   2.091  0.3237 -0.1439  0.6096
  734MOL0     O98986  -0.242   2.496   2.072  0.1773 -0.0773  0.2809
  734MOL0     C98987  -0.250   2.433   1.954 -0.2300  0.5644  0.6458
  734MOL0     C98988  -0.235   2.492   1.831  0.8105  0.4754 -0.6195
  734MOL0     C98989  -0.276   2.418   1.715 -0.2467  1.0453 -0.2144
  734MOL0     C98990  -0.336   2.288   1.726  0.0108 -0.7919  0.4484
  734MOL0     O98991  -0.384   2.232   1.610  0.7432  0.0799  0.3896
  734MOL0     C98992  -0.390   2.087   1.604 -0.1480  0.4131 -0.0168
  734MOL0     C98993  -0.542   2.055   1.578 -0.9001 -0.7982 -0.3554
  734MOL0     C98994  -0.574   2.102   1.430 -0.5462  0.0150  0.6886
  734MOL0     C98995  -0.713   2.058   1.397 -0.3370  0.8330 -0.4753
  734MOL0     C98996  -0.711   1.902   1.367 -0.3558  0.3569 -0.6035
  734MOL0     C98997  -0.636   1.852   1.233  0.2625  0.1860 -0.3637
  734MOL0     C98998  -0.631   1.695   1.213  0.1331  0.3581  0.6620
  734MOL0     C98999  -0.774   1.640   1.180  0.8265 -0.9175 -0.8724
  734MOL0    Cl99000  -0.750   1.449   1.163 -0.0600 -0.4304  0.1548
  734MOL0     C99001  -0.356   2.236   1.853 -0.8664  0.4087  0.3283
  734MOL0     C99002  -0.306   2.304   1.967  0.6125 -0.4191 -0.4345
  734MOL0     O99003  -0.399   2.648   2.016  0.2353 -0.7712  0.6745
  734MOL0     C99004  -0.353   2.808   2.225  0.3840  0.9019 -0.1721
  734MOL0     C99005  -0.342   2.886   2.342  1.2225 -0.0670 -0.9569
  734MOL0     N99006  -0.092   3.221   3.060 -0.0405  0.0533 -0.7355
  734MOL0     N99007   0.015   3.210   3.135  0.3034  0.1621 -0.0037
  734MOL0     C99008   1.101   3.556   3.324  0.1776 -0.6968  0.5831
  734MOL0     C99009   1.232   3.598   3.328  0.0830  0.3816 -1.2021
  734MOL0     C99010   1.618   3.752   3.139 -0.4184 -0.6417 -0.8601
  734MOL0     C99011   1.676   3.881   3.124  0.2870  0.0466  0.2606
  734MOL0     C99012   1.810   3.900   3.090 -0.0914  0.1105  0.1063
  734MOL0     C99013   1.892   3.781   3.090  0.3281 -0.3066  0.0003
  734MOL0     O99014   2.025   3.784   3.068 -0.6493  0.2790  0.3523
  734MOL0     C99015   2.095   3.910   3.050 -0.2903 -0.0087  0.0421
  734MOL0     C99016   2.138   3.978   3.172  0.0711 -0.3080  0.0853
  734MOL0     C99017   2.197   4.107   3.131  0.2883 -1.1260 -1.3424
  734MOL0     C99018   2.249   4.171   3.260 -0.2690 -0.2499 -0.0887
  734MOL0     C99019   2.143   4.220   3.344  1.2883 -1.0552 -0.4581
  734MOL0     C99020   2.048   4.263   3.404  1.0889  0.8302 -0.4579
  734MOL0     C99021   1.844   3.653   3.117 -0.1723 -0.0414 -0.0680
  734MOL0     C99022   1.710   3.635   3.144 -0.3757 -0.7061 -0.6947
  734MOL0     H99023   1.315   3.464   3.016  0.6699 -2.1695  0.6860
  734MOL0     H99024   1.089   3.399   3.029  0.6757 -2.3613  1.8247
  734MOL0     H99025   0.919   3.387   3.430 -0.3637  0.0744  0.1724
  734MOL0     H99026   0.829   3.526   3.387  1.5047  0.3321 -0.2869
  734MOL0     H99027   0.675   3.342   3.456  1.3029  0.7342  0.4112
  734MOL0     H99028   0.647   3.384   3.293 -1.4774 -0.5399  1.0894
  734MOL0     H99029   0.817   3.184   3.232 -2.3496  0.0865 -1.8664
  734MOL0     H99030   0.819   3.154   3.403 -0.2849  3.3568  0.1507
  734MOL0     H99031   0.684   2.995   3.269  1.6810  2.8455 -2.9877
  734MOL0     H99032   0.601   3.076   3.412 -2.1796  1.8712  0.3046
  734MOL0     H99033   0.481   3.230   3.236 -0.1907  0.8059  0.9351
  734MOL0     H99034   0.570   3.128   3.116  5.5852  0.0487  2.6748
  734MOL0     H99035   0.449   2.941   3.188  1.5118  1.4410 -2.2162
  734MOL0     H99036   0.359   3.040   3.307 -2.4115 -3.1249 -0.5448
  734MOL0     H99037   0.321   3.049   3.014 -1.2501 -2.5794 -1.0728
  734MOL0     H99038   0.215   3.012   3.149  0.6518 -0.2952 -1.5812
  734MOL0     H99039   0.321   3.288   3.050  0.2900  2.0139  1.4316
  734MOL0     H99040   0.251   3.271   3.208 -1.9532  2.8295 -1.8080
  734MOL0     H99041   0.161   3.240   2.849  4.5387  0.0897  1.8890
  734MOL0     H99042  -0.248   3.279   2.867  0.8952  2.0513  1.1008
  734MOL0     H99043  -0.127   3.335   2.765  2.1573  1.2564  1.7964
  734MOL0     H99044  -0.063   3.091   2.713 -0.4717 -0.4737 -0.9178
  734MOL0     H99045  -0.218   3.166   2.646 -3.0602 -1.9067  0.4242
  734MOL0     H99046  -0.352   3.029   2.787 -0.0244 -1.7275  0.4510
  734MOL0     H99047  -0.213   2.970   2.885  3.4221 -0.2672 -1.3289
  734MOL0     H99048  -0.292   2.801   2.726  2.0091 -2.8910 -1.5247
  734MOL0     H99049  -0.133   2.866   2.679  0.1768  1.9626 -4.9469
  734MOL0     H99050  -0.186   2.680   2.546 -1.3771 -0.3371  0.3251
  734MOL0     H99051  -0.292   2.422   2.329 -0.1368  0.1879  0.4727
  734MOL0     H99052  -0.119   2.451   2.301  0.1250 -0.2512  0.6765
  734MOL0     H99053  -0.171   2.462   2.463 -2.1503 -1.9380  0.5881
  734MOL0     H99054  -0.203   2.595   1.843  0.2278  0.6964 -0.9117
  734MOL0     H99055  -0.253   2.469   1.622 -1.3132 -0.6080 -1.4417
  734MOL0     H99056  -0.330   2.060   1.517 -2.3492  1.1984 -1.8788
  734MOL0     H99057  -0.348   2.031   1.688  1.6003  0.7413 -0.6395
  734MOL0     H99058  -0.561   1.949   1.595 -2.9929 -0.4514 -0.2282
  734MOL0     H99059  -0.610   2.109   1.645 -0.7737 -0.1317 -0.7507
  734MOL0     H99060  -0.494   2.058   1.369 -1.2858 -0.8137  0.2936
  734MOL0     H99061  -0.560   2.211   1.431  0.4362 -0.0407 -1.3133
  734MOL0     H99062  -0.787   2.079   1.474 -1.9800 -1.5315 -1.3011
  734MOL0     H99063  -0.731   2.115   1.305  0.9526  1.5215 -0.3396
  734MOL0     H99064  -0.815   1.869   1.367 -0.5464  0.9426 -1.0786
  734MOL0     H99065  -0.653   1.847   1.442  2.0265 -0.8454 -3.1244
  734MOL0     H99066  -0.689   1.901   1.150 -1.3539  2.7903  1.9912
  734MOL0     H99067  -0.540   1.904   1.243 -0.9554  2.6766 -0.7140
  734MOL0     H99068  -0.590   1.659   1.309 -1.3710  3.9175  2.8524
  734MOL0     H99069  -0.568   1.671   1.127 -1.0286 -0.1756 -0.0621
  734MOL0     H99070  -0.795   1.695   1.088  0.0637  2.1619  0.9841
  734MOL0     H99071  -0.842   1.668   1.261 -0.1683 -2.3020 -1.2058
  734MOL0     H99072  -0.420   2.150   1.860  0.6434 -0.7906  0.0217
  734MOL0     H99073  -0.320   2.252   2.062  0.0936  2.3507  1.1122
  734MOL0     H99074  -0.384   2.865   2.139 -1.0560  1.8902  0.9446
  734MOL0     H99075  -0.371   2.990   2.335 -2.0157 -0.9515 -2.7844
  734MOL0     H99076   1.042   3.576   3.413  1.4037 -2.9173  2.0062
  734MOL0     H99077   1.287   3.644   3.410  0.5691 -0.3456 -1.1100
  734MOL0     H99078   1.603   3.962   3.119 -0.7979 -0.9646 -2.0934
  734MOL0     H99079   1.842   4.004   3.088 -0.5817  0.2522 -1.1296
  734MOL0     H99080   2.184   3.895   2.989 -0.7491 -3.2884 -0.0294
  734MOL0     H99081   2.039   3.982   2.990  2.0410  3.2936  1.5437
  734MOL0     H99082   2.204   3.913   3.231  0.7318 -0.7696 -1.1292
  734MOL0     H99083   2.042   3.986   3.223  1.0851 -3.5893  2.8939
  734MOL0     H99084   2.124   4.171   3.081  1.7790  1.7512 -0.0718
  734MOL0     H99085   2.287   4.096   3.070  1.2656 -0.6631 -0.0215
  734MOL0     H99086   2.311   4.256   3.231 -0.5564 -0.5797 -1.7558
  734MOL0     H99087   2.302   4.096   3.319  2.3622 -0.6355 -2.6857
  734MOL0     H99088   1.972   4.299   3.471  1.2209  0.1920  0.0438
  734MOL0     H99089   1.907   3.566   3.130 -0.4660 -0.0828  1.1445
  734MOL0     H99090   1.674   3.537   3.173 -0.3444 -0.9145 -1.3544
  735MOL0     O99091   1.988   8.485   6.035  1.1992 -0.4146  0.4284
  735MOL0     C99092   2.019   8.436   6.142  0.5558 -0.4991 -0.4333
  735MOL0     O99093   2.051   8.299   6.167 -0.1245 -0.8574  0.0830
  735MOL0     C99094   2.044   8.221   6.058 -0.5325  0.5121  0.3363
  735MOL0     C99095   1.927   8.182   5.985 -0.4767  0.3177 -0.5266
  735MOL0     C99096   1.938   8.082   5.883 -1.6758  0.5543 -0.0144
  735MOL0     C99097   2.068   8.029   5.842  0.4415  0.4380 -0.4686
  735MOL0     O99098   2.081   7.945   5.728 -0.6247  0.1307  0.4152
  735MOL0     C99099   1.970   7.925   5.640  0.7141  0.0811 -0.0021
  735MOL0     C99100   2.000   7.819   5.530  0.6517  0.3815  0.2890
  735MOL0     C99101   1.972   7.680   5.569 -0.1704  0.3828 -0.3736
  735MOL0     C99102   1.822   7.647   5.585  0.4946  0.8085  0.5429
  735MOL0     C99103   1.800   7.496   5.618 -1.0345  0.2883  0.3131
  735MOL0     C99104   1.836   7.458   5.760  0.2209 -0.3384  0.2740
  735MOL0     C99105   1.801   7.315   5.790 -0.6385  0.0967  0.6213
  735MOL0     C99106   1.851   7.276   5.930 -0.2070  0.2565  0.3416
  735MOL0     N99107   1.841   7.126   5.940 -0.9199 -0.3275 -0.5061
  735MOL0     C99108   1.732   7.059   5.992 -0.5323  0.7906  0.4118
  735MOL0     C99109   1.771   6.930   5.987  0.3748  0.5192  0.0223
  735MOL0     C99110   1.675   6.822   6.030  0.6483 -0.1870 -0.5467
  735MOL0     C99111   1.552   6.801   5.945 -0.2328  0.4169 -0.2825
  735MOL0     C99112   1.451   6.705   6.012 -0.6093 -0.0883 -0.5018
  735MOL0     C99113   1.488   6.563   6.033  0.7578 -0.3027 -0.2614
  735MOL0     O99114   1.366   6.498   6.088  0.3686  0.3014 -0.0881
  735MOL0     C99115   1.367   6.365   6.112 -0.1311 -0.2362 -0.5573
  735MOL0     C99116   1.470   6.279   6.077  0.9187  0.2419 -0.0962
  735MOL0     C99117   1.472   6.144   6.125  0.2188  0.6152  0.5851
  735MOL0     C99118   1.584   6.052   6.086  0.0755 -0.6135  0.0309
  735MOL0     C99119   1.362   6.097   6.197 -0.8523  0.4099  0.5899
  735MOL0     C99120   1.330   5.955   6.237 -0.3777  0.2846  0.2256
  735MOL0     O99121   1.432   5.879   6.275 -0.7508 -0.2284 -0.1964
  735MOL0     C99122   1.413   5.748   6.316 -0.2288  0.5187 -0.3291
  735MOL0     C99123   1.427   5.645   6.227 -0.0920  0.6672  0.1364
  735MOL0     C99124   1.410   5.515   6.279 -0.9053 -0.4931  0.1700
  735MOL0     C99125   1.379   5.482   6.411  0.0598  0.1398 -1.0576
  735MOL0     O99126   1.378   5.352   6.450 -0.5016 -0.3947 -0.3650
  735MOL0     C99127   1.433   5.335   6.577 -0.7791 -0.2657 -0.1432
  735MOL0     C99128   1.484   5.195   6.592 -0.1286 -0.4511 -1.2088
  735MOL0     C99129   1.503   5.167   6.742  0.4560 -0.1412  0.0242
  735MOL0     C99130   1.389   5.075   6.786 -0.5749 -0.2517  0.0675
  735MOL0     C99131   1.422   5.044   6.934  0.6105  0.0488 -0.2833
  735MOL0     C99132   1.375   5.152   7.038 -0.1102 -0.4456  0.1124
  735MOL0     C99133   1.223   5.172   7.050 -0.0469  0.1472 -0.0239
  735MOL0     C99134   1.207   5.299   7.130  0.6027  0.5015  0.6641
  735MOL0    Cl99135   1.239   5.437   7.029  0.1229 -0.0723 -0.2148
  735MOL0     C99136   1.374   5.595   6.492 -0.1294 -0.5557  0.0919
  735MOL0     C99137   1.401   5.724   6.449  0.7942 -0.2835  0.1594
  735MOL0     O99138   1.213   5.917   6.224  0.0491  0.6689 -0.2348
  735MOL0     C99139   1.267   6.184   6.240 -0.5686 -0.6718 -0.0551
  735MOL0     C99140   1.266   6.318   6.198 -0.0071 -0.0609  0.7075
  735MOL0     N99141   1.898   6.913   5.931 -0.2066 -0.1593 -0.4640
  735MOL0     N99142   1.938   7.041   5.913  0.2988  0.1648  0.1791
  735MOL0     C99143   2.177   8.069   5.916  0.0763  0.3919  0.3460
  735MOL0     C99144   2.167   8.160   6.023 -0.7104  0.0958 -0.9744
  735MOL0     C99145   2.034   8.524   6.261  0.0775 -0.0843 -1.1872
  735MOL0     C99146   2.152   8.531   6.328 -0.0091 -0.7935  0.0400
  735MOL0     C99147   2.172   8.618   6.445 -0.4166  0.0968  0.2711
  735MOL0     C99148   2.065   8.692   6.496 -0.2755 -0.8641 -0.3707
  735MOL0     O99149   2.093   8.750   6.617  0.1925 -0.3604  0.3471
  735MOL0     C99150   1.998   8.813   6.701 -0.1097  0.4044  0.1036
  735MOL0     C99151   1.987   8.958   6.666 -0.5656  0.4438 -0.0308
  735MOL0     C99152   2.093   9.051   6.726 -0.6502  0.6473 -0.5860
  735MOL0     C99153   2.059   9.080   6.873  0.0013  0.2660 -0.5009
  735MOL0     C99154   2.153   9.182   6.928 -1.4307 -0.2733 -0.3134
  735MOL0     C99155   2.233   9.257   6.983  0.3118 -0.0832 -0.1635
  735MOL0     C99156   1.940   8.689   6.432 -0.1117  0.3840  0.0768
  735MOL0     C99157   1.927   8.601   6.315 -0.3235 -0.2174 -1.1527
  735MOL0     H99158   1.828   8.196   6.027  0.3932 -0.8440  2.1439
  735MOL0     H99159   1.848   8.038   5.842 -1.9384  0.3539  0.7429
  735MOL0     H99160   1.884   7.888   5.697  1.3684 -1.1774  0.2089
  735MOL0     H99161   1.948   8.013   5.579  0.8898 -1.3276 -2.1758
  735MOL0     H99162   1.937   7.841   5.443 -3.4898  0.2462  2.9384
  735MOL0     H99163   2.106   7.827   5.507  1.1106 -0.8085  1.8588
  735MOL0     H99164   2.026   7.608   5.507  0.6264  0.4508  0.2222
  735MOL0     H99165   2.021   7.676   5.667  2.5273 -1.1026 -1.6761
  735MOL0     H99166   1.782   7.705   5.669  0.0570 -2.7037  2.9972
  735MOL0     H99167   1.768   7.669   5.492  0.6973 -3.4683 -0.7930
  735MOL0     H99168   1.694   7.472   5.606 -0.5726 -0.8237 -2.0729
  735MOL0     H99169   1.861   7.444   5.544  0.0495  0.9423  0.7131
  735MOL0     H99170   1.946   7.457   5.758  0.2444  0.6003  0.3885
  735MOL0     H99171   1.795   7.531   5.831  0.3854 -0.4101  0.4445
  735MOL0     H99172   1.694   7.295   5.778 -0.5811  0.8868 -1.5565
  735MOL0     H99173   1.828   7.250   5.706 -2.3293 -1.2458  1.0553
  735MOL0     H99174   1.788   7.333   5.998  1.5879  1.4859  1.0544
  735MOL0     H99175   1.952   7.319   5.938 -0.6414  1.2342  0.6805
  735MOL0     H99176   1.640   7.101   6.032 -0.5299 -0.6413  2.0586
  735MOL0     H99177   1.719   6.726   6.061 -0.6406  0.1175  2.5376
  735MOL0     H99178   1.638   6.841   6.131 -3.8802  0.0766 -2.0401
  735MOL0     H99179   1.584   6.775   5.844  5.3987  1.4916  0.9118
  735MOL0     H99180   1.506   6.899   5.929 -2.9331 -0.4386  1.5529
  735MOL0     H99181   1.361   6.708   5.951 -1.8421  1.3924  1.2626
  735MOL0     H99182   1.418   6.746   6.108  1.9796  1.3749 -0.1405
  735MOL0     H99183   1.567   6.550   6.108 -0.9281 -3.1746  1.2291
  735MOL0     H99184   1.528   6.516   5.943  0.5825  1.5562 -1.3630
  735MOL0     H99185   1.559   6.322   6.032  1.1166  0.2023  0.2475
  735MOL0     H99186   1.621   6.090   5.990 -0.5219  1.7110  0.6665
  735MOL0     H99187   1.654   6.058   6.170 -0.4323  1.6199  0.3577
  735MOL0     H99188   1.571   5.944   6.075  1.3940 -0.7680 -0.2854
  735MOL0     H99189   1.457   5.654   6.123  0.9579  1.6612  0.5093
  735MOL0     H99190   1.444   5.434   6.216  0.0162  0.5642 -0.7533
  735MOL0     H99191   1.514   5.406   6.590 -1.3943  0.4343 -0.0723
  735MOL0     H99192   1.362   5.336   6.660  2.7748 -1.6217  3.2171
  735MOL0     H99193   1.415   5.123   6.548 -1.2089 -0.0314 -0.2591
  735MOL0     H99194   1.580   5.188   6.541  0.2989  2.1027 -0.8973
  735MOL0     H99195   1.507   5.258   6.802  0.7226 -0.4991  0.5607
  735MOL0     H99196   1.599   5.116   6.758  0.2316 -1.6090 -2.7404
  735MOL0     H99197   1.289   5.111   6.760 -1.1139 -1.9261 -0.2734
  735MOL0     H99198   1.394   4.979   6.733 -4.3600 -0.5020 -0.1405
  735MOL0     H99199   1.530   5.047   6.948  0.9751  2.3480 -2.7088
  735MOL0     H99200   1.383   4.950   6.974 -0.3870  0.5531 -0.0344
  735MOL0     H99201   1.413   5.115   7.133 -1.1277 -3.4885 -0.5565
  735MOL0     H99202   1.425   5.247   7.019 -0.4323 -0.5579 -1.4627
  735MOL0     H99203   1.177   5.083   7.092  0.5636 -1.4291 -2.4889
  735MOL0     H99204   1.174   5.184   6.953  3.1556  2.9268 -1.5035
  735MOL0     H99205   1.276   5.295   7.215  0.4472 -1.0534  0.7432
  735MOL0     H99206   1.106   5.295   7.173  0.7218  1.4280  1.0508
  735MOL0     H99207   1.354   5.589   6.599  1.8715  2.1448  0.7385
  735MOL0     H99208   1.415   5.797   6.528  1.5269 -3.1575  2.8777
  735MOL0     H99209   1.177   6.148   6.288 -1.9590 -0.4014 -2.3018
  735MOL0     H99210   1.193   6.393   6.226 -2.5701 -1.0139 -2.7921
  735MOL0     H99211   2.274   8.023   5.901  0.2054  0.8982 -0.3613
  735MOL0     H99212   2.261   8.180   6.075  0.3986 -1.2300 -2.3503
  735MOL0     H99213   2.237   8.479   6.285  0.9098 -0.1563  1.0418
  735MOL0     H99214   2.260   8.608   6.507 -0.2887  2.6393  0.5642
  735MOL0     H99215   1.903   8.762   6.683  0.8348 -2.7778  3.0960
  735MOL0     H99216   2.012   8.806   6.809  0.7579  2.9679  0.2260
  735MOL0     H99217   1.882   8.988   6.679 -1.5707 -1.1822 -3.1863
  735MOL0     H99218   1.999   8.960   6.557  0.7596  2.4186  0.1055
  735MOL0     H99219   2.106   9.148   6.677  1.1095 -0.5534 -2.6143
  735MOL0     H99220   2.190   9.002   6.733 -2.0704 -2.1848  2.8149
  735MOL0     H99221   2.067   8.986   6.928  2.3055  1.3349  1.1609
  735MOL0     H99222   1.957   9.116   6.885  0.9719  3.3881 -0.5557
  735MOL0     H99223   2.294   9.332   7.030 -2.2103  2.6712 -0.9559
  735MOL0     H99224   1.851   8.736   6.472  1.4683  3.2900  0.4507
  735MOL0     H99225   1.829   8.586   6.271 -0.8090  1.7305 -0.8496
  736MOL0     O99226   7.389   6.963   8.148  0.1271  0.0541 -0.2726
  736MOL0     C99227   7.358   7.076   8.171 -0.0432  0.5483  0.2870
  736MOL0     O99228   7.230   7.121   8.215 -0.0400  0.8679  0.3888
  736MOL0     C99229   7.128   7.032   8.234 -0.4636 -0.8921  0.3225
  736MOL0     C99230   7.118   6.955   8.350  0.5609  0.5281 -0.1764
  736MOL0     C99231   7.016   6.856   8.364  0.2322 -0.1929 -0.3722
  736MOL0     C99232   6.920   6.840   8.254  0.6012  0.2931  0.4320
  736MOL0     O99233   6.833   6.732   8.258 -0.9172 -0.5024  0.0281
  736MOL0     C99234   6.779   6.684   8.134 -0.6620 -0.6100 -0.0389
  736MOL0     C99235   6.694   6.557   8.152 -0.6389  0.3279 -0.4891
  736MOL0     C99236   6.761   6.442   8.207 -0.1228 -0.0519 -0.6448
  736MOL0     C99237   6.663   6.324   8.229  0.2164 -0.2426 -0.7167
  736MOL0     C99238   6.729   6.221   8.315 -0.1345 -0.7987 -0.4792
  736MOL0     C99239   6.630   6.104   8.322  0.0147  0.2738 -0.0400
  736MOL0     C99240   6.686   5.981   8.390 -1.4206 -0.1619  0.3798
  736MOL0     C99241   6.819   5.926   8.335  0.7580 -0.2767 -0.1170
  736MOL0     N99242   6.805   5.911   8.185 -0.3622  0.0705 -1.2990
  736MOL0     C99243   6.892   5.968   8.093 -0.3374  0.1618 -0.3489
  736MOL0     C99244   6.876   5.890   7.984  0.0174 -0.1184 -0.1387
  736MOL0     C99245   6.948   5.913   7.852  0.3062 -1.3521  0.4076
  736MOL0     C99246   6.866   5.998   7.749  0.8684  0.6135 -0.0064
  736MOL0     C99247   6.874   6.154   7.787 -0.0448  0.4810 -0.4588
  736MOL0     C99248   6.791   6.225   7.671 -1.1040 -0.4086 -0.0081
  736MOL0     O99249   6.772   6.366   7.676 -0.0500 -0.9331 -0.2250
  736MOL0     C99250   6.886   6.440   7.696 -0.1963  0.0287  0.1135
  736MOL0     C99251   6.936   6.450   7.818 -0.4753 -0.0251  0.2586
  736MOL0     C99252   7.060   6.513   7.854  0.9799  0.8822  0.2744
  736MOL0     C99253   7.097   6.531   7.998  0.2743  0.2100 -0.0445
  736MOL0     C99254   7.140   6.566   7.740 -0.5709  0.5295 -0.4562
  736MOL0     C99255   7.263   6.645   7.760  0.0979 -0.0607 -0.3317
  736MOL0     O99256   7.352   6.588   7.846 -1.2236  0.4146  0.9183
  736MOL0     C99257   7.478   6.649   7.871 -0.2109 -0.2085  0.6093
  736MOL0     C99258   7.528   6.640   8.004  0.3409 -0.0294  0.8365
  736MOL0     C99259   7.651   6.698   8.028 -1.0385 -0.4442  0.3661
  736MOL0     C99260   7.728   6.768   7.930 -0.8788 -0.1762  0.2987
  736MOL0     O99261   7.855   6.817   7.961 -0.0553 -0.6898 -0.1573
  736MOL0     C99262   7.944   6.711   8.001  0.9532 -0.4420  0.1120
  736MOL0     C99263   8.088   6.737   7.971 -0.8855  0.6059  0.4644
  736MOL0     C99264   8.198   6.668   8.047  0.3412 -0.4567 -0.1778
  736MOL0     C99265   8.335   6.720   8.003 -0.6656 -0.0060  0.0475
  736MOL0     C99266   8.437   6.658   8.096  0.2692  0.1868 -0.0351
  736MOL0     C99267   8.586   6.680   8.061 -0.5226 -0.0357 -0.2760
  736MOL0     C99268   8.637   6.634   7.924 -0.5248  0.6138  0.2129
  736MOL0     C99269   8.618   6.478   7.889 -0.2868  0.4012  0.2610
  736MOL0    Cl99270   8.735   6.395   8.002  0.0012  0.0490 -0.0060
  736MOL0     C99271   7.683   6.778   7.796  0.6741  0.4636 -0.4835
  736MOL0     C99272   7.555   6.718   7.774 -0.3734 -0.0775  0.5614
  736MOL0     O99273   7.287   6.747   7.694  0.5346 -0.0801 -0.4166
  736MOL0     C99274   7.082   6.566   7.612  0.4027  0.2725 -0.2289
  736MOL0     C99275   6.954   6.498   7.592 -0.1474 -0.4323  0.1011
  736MOL0     N99276   6.778   5.795   8.012  0.2691  0.7186 -0.2218
  736MOL0     N99277   6.739   5.804   8.136 -0.8671  0.9026  1.4039
  736MOL0     C99278   6.929   6.927   8.141 -0.0657  0.4987 -0.7461
  736MOL0     C99279   7.038   7.016   8.130  0.1429 -0.0859 -0.1487
  736MOL0     C99280   7.473   7.171   8.170  0.0708 -0.3346  0.1266
  736MOL0     C99281   7.436   7.298   8.182  0.6498 -0.1960  0.7449
  736MOL0     C99282   7.530   7.398   8.173 -0.1739 -0.0380  0.1097
  736MOL0     C99283   7.658   7.361   8.141 -0.2652  0.1496  0.6572
  736MOL0     O99284   7.748   7.455   8.102 -0.0211  0.4767 -0.7109
  736MOL0     C99285   7.764   7.554   8.209  0.4222  0.9383 -0.0704
  736MOL0     C99286   7.870   7.653   8.150  0.4741  0.6877 -0.5255
  736MOL0     C99287   7.975   7.676   8.261 -1.2848  0.2074 -0.0248
  736MOL0     C99288   7.917   7.737   8.391  0.0055 -0.2023  1.3483
  736MOL0     C99289   8.020   7.792   8.478 -0.1027 -0.7312 -0.2499
  736MOL0     C99290   8.095   7.849   8.551 -0.5824  0.0886  0.1518
  736MOL0     C99291   7.699   7.228   8.129 -0.1929 -0.1922  0.3322
  736MOL0     C99292   7.606   7.131   8.144  0.2454 -0.5275  0.1508
  736MOL0     H99293   7.204   6.963   8.415  2.0558 -1.9724 -1.7005
  736MOL0     H99294   7.012   6.776   8.437 -2.9504 -3.0306 -3.2558
  736MOL0     H99295   6.714   6.750   8.076 -0.5538 -1.2179 -0.8601
  736MOL0     H99296   6.869   6.660   8.077 -0.7335  1.7027 -1.2597
  736MOL0     H99297   6.607   6.589   8.210 -0.2295 -0.1518  0.4134
  736MOL0     H99298   6.662   6.526   8.052 -1.4446 -1.0010  0.1571
  736MOL0     H99299   6.842   6.415   8.139  1.8496  0.1380  1.5144
  736MOL0     H99300   6.802   6.466   8.306  0.6175  1.3749 -1.2690
  736MOL0     H99301   6.568   6.358   8.273  0.6187 -0.1278  0.0821
  736MOL0     H99302   6.645   6.281   8.130 -0.7521 -0.3899 -0.4869
  736MOL0     H99303   6.826   6.200   8.270 -0.6391  1.3232 -2.7234
  736MOL0     H99304   6.750   6.242   8.421 -0.9092 -3.2046  0.2163
  736MOL0     H99305   6.535   6.133   8.369 -0.8981 -2.0067 -0.3166
  736MOL0     H99306   6.597   6.075   8.222  0.6543 -0.7710  0.0403
  736MOL0     H99307   6.692   6.008   8.496 -1.6915 -0.3979  0.4554
  736MOL0     H99308   6.617   5.896   8.383  0.6498 -1.8786 -0.5604
  736MOL0     H99309   6.832   5.830   8.385  1.3122 -1.7602 -2.8815
  736MOL0     H99310   6.906   5.989   8.359 -0.4220  1.1622  0.5289
  736MOL0     H99311   6.967   6.046   8.104 -0.0601 -0.2803  1.2776
  736MOL0     H99312   7.050   5.952   7.865  1.1900 -1.8289 -3.6616
  736MOL0     H99313   6.968   5.816   7.804  1.8113 -0.0024 -1.8903
  736MOL0     H99314   6.764   5.962   7.758  0.6101  1.1279 -0.8119
  736MOL0     H99315   6.907   5.978   7.650  1.8537 -2.7174  0.9236
  736MOL0     H99316   6.976   6.192   7.803 -0.6606  2.9910 -2.0314
  736MOL0     H99317   6.828   6.180   7.883  0.8511 -0.5456  0.2722
  736MOL0     H99318   6.693   6.178   7.658 -1.5539  0.6766 -0.6261
  736MOL0     H99319   6.846   6.207   7.577  1.1457 -1.9638  1.4866
  736MOL0     H99320   6.867   6.403   7.887  0.5995 -0.9148  0.7679
  736MOL0     H99321   7.200   6.503   8.020  0.2601  0.1759 -0.0210
  736MOL0     H99322   7.083   6.637   8.022  2.3431  0.3541  0.7517
  736MOL0     H99323   7.030   6.470   8.058 -1.2971  0.8505 -1.0875
  736MOL0     H99324   7.469   6.594   8.083  1.8782  0.6594  2.4477
  736MOL0     H99325   7.692   6.697   8.128  1.1114 -1.0262 -0.4641
  736MOL0     H99326   7.931   6.694   8.108 -2.0482 -1.4800 -0.3328
  736MOL0     H99327   7.918   6.618   7.950  2.6747 -0.3558 -1.0395
  736MOL0     H99328   8.108   6.706   7.868 -0.2633 -1.3812  1.1550
  736MOL0     H99329   8.117   6.842   7.979 -0.5852  0.6076 -0.5002
  736MOL0     H99330   8.189   6.560   8.037 -0.1405 -0.4159 -0.2256
  736MOL0     H99331   8.177   6.683   8.153 -1.4024 -1.6870 -0.2902
  736MOL0     H99332   8.359   6.681   7.904 -4.4569  0.5601 -1.2902
  736MOL0     H99333   8.351   6.828   8.007 -0.0069 -0.1235  0.7222
  736MOL0     H99334   8.432   6.548   8.096  2.6848  0.0345  0.9622
  736MOL0     H99335   8.431   6.700   8.197  0.0179  0.9873 -0.3779
  736MOL0     H99336   8.617   6.785   8.054  2.5374 -0.4172  3.9639
  736MOL0     H99337   8.649   6.646   8.144  2.6148  0.0669 -2.4332
  736MOL0     H99338   8.746   6.638   7.921 -0.3270 -0.4943  2.9443
  736MOL0     H99339   8.596   6.701   7.848  0.6150  0.9771 -0.0949
  736MOL0     H99340   8.647   6.453   7.786  0.1885 -0.5429  0.6105
  736MOL0     H99341   8.514   6.447   7.903 -0.4715 -0.3567 -2.3019
  736MOL0     H99342   7.729   6.830   7.713 -0.9363 -0.1656 -1.8086
  736MOL0     H99343   7.535   6.699   7.669  2.4751  2.0073 -0.4989
  736MOL0     H99344   7.138   6.606   7.527  0.3416 -1.0280 -0.9065
  736MOL0     H99345   6.918   6.490   7.490 -0.3926 -2.0410  0.2961
  736MOL0     H99346   6.847   6.919   8.070 -1.8014 -0.2204  1.2462
  736MOL0     H99347   7.055   7.080   8.044 -0.4650  0.6575  0.2757
  736MOL0     H99348   7.332   7.316   8.210  0.4264  0.0011 -0.1925
  736MOL0     H99349   7.492   7.499   8.183  0.2971  0.1348  0.1744
  736MOL0     H99350   7.680   7.621   8.229 -1.6391 -1.5340  0.1908
  736MOL0     H99351   7.792   7.497   8.299  0.8659  2.3170  0.6915
  736MOL0     H99352   7.822   7.750   8.134 -2.3917 -0.1938  1.8178
  736MOL0     H99353   7.906   7.629   8.050 -0.0048  1.8586 -0.9961
  736MOL0     H99354   8.037   7.756   8.220 -1.0297 -0.4221 -0.8917
  736MOL0     H99355   8.043   7.593   8.282  0.8573  1.0192 -3.1391
  736MOL0     H99356   7.874   7.649   8.440  1.5541 -1.3041  0.8032
  736MOL0     H99357   7.844   7.815   8.368 -1.2393 -1.0432  2.3068
  736MOL0     H99358   8.166   7.897   8.615 -1.8465  1.9477  0.2473
  736MOL0     H99359   7.804   7.210   8.111 -0.7640 -0.4093 -3.6717
  736MOL0     H99360   7.626   7.026   8.122 -0.6995 -0.6848  0.0068
  737MOL0     O99361   8.659   3.470  10.931 -0.0755  0.1445  0.1357
  737MOL0     C99362   8.679   3.467  10.809  0.1539  0.8779 -0.1138
  737MOL0     O99363   8.774   3.389  10.746 -0.2590  0.9474 -0.6166
  737MOL0     C99364   8.860   3.310  10.830  0.3609 -0.1027  1.0719
  737MOL0     C99365   8.893   3.178  10.778 -0.2600 -0.4514 -0.0178
  737MOL0     C99366   8.947   3.082  10.857 -0.2185  0.4965  0.5796
  737MOL0     C99367   8.987   3.107  10.985  0.2193  0.0101 -0.5516
  737MOL0     O99368   9.040   3.018  11.076 -0.1410  0.8072  0.0919
  737MOL0     C99369   9.081   2.892  11.030  0.3269  0.8070  0.0102
  737MOL0     C99370   9.096   2.795  11.149 -0.5034  0.2614 -0.6057
  737MOL0     C99371   8.965   2.755  11.210 -0.3433  0.0198  0.2928
  737MOL0     C99372   8.954   2.607  11.253  0.2467  0.7464 -0.2901
  737MOL0     C99373   8.827   2.541  11.303  0.0046  0.8807  0.2088
  737MOL0     C99374   8.761   2.626  11.413  0.9628 -0.3751  0.0585
  737MOL0     C99375   8.633   2.555  11.473  0.5021 -0.0947  1.2699
  737MOL0     C99376   8.671   2.461  11.596 -0.9825  1.0109  0.6389
  737MOL0     N99377   8.682   2.321  11.550 -0.1857  0.1380 -0.2404
  737MOL0     C99378   8.581   2.235  11.500  1.2284 -0.1483  0.3369
  737MOL0     C99379   8.643   2.116  11.484  1.3432  0.1724 -0.5090
  737MOL0     C99380   8.575   1.991  11.423  0.5124 -0.6003  0.1144
  737MOL0     C99381   8.594   1.878  11.520 -0.6857  0.5245 -0.6540
  737MOL0     C99382   8.552   1.750  11.451 -0.9743 -0.3355 -0.2543
  737MOL0     C99383   8.502   1.642  11.538  0.4402  0.3978 -0.0066
  737MOL0     O99384   8.518   1.516  11.475  0.3258  0.1554 -0.0546
  737MOL0     C99385   8.476   1.403  11.553 -0.2105 -0.7317 -0.0820
  737MOL0     C99386   8.398   1.413  11.666 -0.2640 -0.7050 -0.1354
  737MOL0     C99387   8.349   1.296  11.722 -0.1968 -0.4905 -0.4853
  737MOL0     C99388   8.262   1.322  11.845 -0.5761  0.3475 -0.3151
  737MOL0     C99389   8.371   1.162  11.668  1.1402  0.2762 -0.8954
  737MOL0     C99390   8.324   1.043  11.732 -0.5044  1.0688 -0.2573
  737MOL0     O99391   8.397   0.932  11.686  0.1502 -0.7056 -0.4284
  737MOL0     C99392   8.402   0.810  11.745 -0.1293  1.3673  0.5952
  737MOL0     C99393   8.293   0.753  11.808  0.2265  0.8030  0.2242
  737MOL0     C99394   8.296   0.623  11.865 -0.2795 -0.1686  0.3867
  737MOL0     C99395   8.415   0.544  11.861 -0.0284 -0.3878 -0.8869
  737MOL0     O99396   8.416   0.421  11.908 -0.0630 -0.7743 -0.0142
  737MOL0     C99397   8.352   0.406  12.032 -0.0042  0.1763  0.4885
  737MOL0     C99398   8.401   0.271  12.083  0.6142  0.4011  0.0884
  737MOL0     C99399   8.360   0.152  11.993  0.6117  1.4543 -0.0343
  737MOL0     C99400   8.201   0.137  11.973 -0.2587 -1.2127 -0.6539
  737MOL0     C99401   8.169   0.023  11.876 -0.0911  0.7854 -0.1791
  737MOL0     C99402   8.019  -0.001  11.845 -0.4676 -0.1594  0.4291
  737MOL0     C99403   7.998  -0.145  11.792  1.1478  0.5593 -0.9346
  737MOL0     C99404   7.845  -0.165  11.788 -0.2930 -0.4757  0.8491
  737MOL0    Cl99405   7.813  -0.343  11.770  0.1779  0.1692 -0.2384
  737MOL0     C99406   8.528   0.596  11.794 -0.8123 -0.1531 -0.0304
  737MOL0     C99407   8.523   0.736  11.741 -0.5753 -0.3085  0.7565
  737MOL0     O99408   8.236   1.043  11.819 -0.1239 -0.8324 -0.1756
  737MOL0     C99409   8.471   1.167  11.570  1.2258 -0.3552 -0.6974
  737MOL0     C99410   8.518   1.282  11.509  0.5126  0.2459  0.3069
  737MOL0     N99411   8.772   2.129  11.519  0.2983 -0.0575  0.4574
  737MOL0     N99412   8.795   2.247  11.555  0.3732 -0.1277 -0.1479
  737MOL0     C99413   8.961   3.235  11.040  0.5754 -0.9774  0.1696
  737MOL0     C99414   8.892   3.333  10.968  0.5285  0.5303 -0.0268
  737MOL0     C99415   8.598   3.550  10.720 -0.3948 -0.0054 -0.0101
  737MOL0     C99416   8.610   3.537  10.585 -0.4082  0.3589 -0.0962
  737MOL0     C99417   8.539   3.616  10.500 -0.1294  0.3447  0.4116
  737MOL0     C99418   8.451   3.716  10.540 -0.1099  0.0205  0.2020
  737MOL0     O99419   8.373   3.786  10.457 -0.5000 -0.1918  0.5107
  737MOL0     C99420   8.249   3.842  10.489 -0.6562 -0.3909  0.6393
  737MOL0     C99421   8.148   3.733  10.458 -0.7467 -0.1183  1.0101
  737MOL0     C99422   8.010   3.798  10.484 -0.1980 -0.2679 -0.0334
  737MOL0     C99423   7.890   3.697  10.466 -0.6286  0.0979 -0.3181
  737MOL0     C99424   7.756   3.753  10.480  0.0305  0.3786  0.5648
  737MOL0     C99425   7.656   3.813  10.498 -0.5957  0.2836 -0.3180
  737MOL0     C99426   8.434   3.726  10.681 -0.2290 -0.0731 -0.1173
  737MOL0     C99427   8.502   3.641  10.771  0.4404  0.2925 -0.0718
  737MOL0     H99428   8.865   3.152  10.676  0.0509 -1.2390  0.0900
  737MOL0     H99429   8.967   2.978  10.834 -1.1458  0.7805 -1.7489
  737MOL0     H99430   9.019   2.839  10.957 -0.3861  3.3705 -1.3758
  737MOL0     H99431   9.180   2.908  10.984 -0.0578  2.7602 -0.2287
  737MOL0     H99432   9.162   2.709  11.135 -1.5699 -0.5632 -0.6979
  737MOL0     H99433   9.145   2.852  11.229 -0.0961  0.3456 -0.9154
  737MOL0     H99434   8.938   2.814  11.298  0.1362  1.3699 -0.4370
  737MOL0     H99435   8.892   2.783  11.134 -0.4222 -1.2873 -0.1306
  737MOL0     H99436   8.998   2.550  11.170  1.5703  0.7753  0.3567
  737MOL0     H99437   9.034   2.607  11.328 -0.8402  0.4720  0.9165
  737MOL0     H99438   8.754   2.525  11.222 -0.5710  1.0848  0.6776
  737MOL0     H99439   8.857   2.444  11.345  0.4633  0.8905 -0.0926
  737MOL0     H99440   8.835   2.650  11.490 -0.0410  2.2325  0.2982
  737MOL0     H99441   8.727   2.722  11.374 -5.5732 -2.8617 -1.6420
  737MOL0     H99442   8.574   2.628  11.529  1.4229  1.6622  0.0225
  737MOL0     H99443   8.560   2.520  11.399  0.0208  1.5687  0.9265
  737MOL0     H99444   8.593   2.464  11.673  2.2586 -0.8961  4.3431
  737MOL0     H99445   8.770   2.488  11.636 -0.6743  2.4122 -0.9656
  737MOL0     H99446   8.485   2.272  11.466  1.2147  2.0343  2.4259
  737MOL0     H99447   8.470   2.012  11.401  1.5251  0.8694 -4.2397
  737MOL0     H99448   8.627   1.980  11.328 -0.2219 -2.0827 -0.1585
  737MOL0     H99449   8.539   1.892  11.614  0.6389 -0.4015  0.3090
  737MOL0     H99450   8.702   1.860  11.533 -0.4328 -1.0723 -4.0648
  737MOL0     H99451   8.636   1.717  11.389 -0.5572 -1.3640  0.8224
  737MOL0     H99452   8.483   1.765  11.368 -0.4449 -1.9220 -1.0277
  737MOL0     H99453   8.394   1.658  11.546  0.5785  0.9235  0.9038
  737MOL0     H99454   8.552   1.639  11.635  2.5451 -2.5690 -1.0405
  737MOL0     H99455   8.374   1.508  11.713  1.0184 -0.3651 -0.1350
  737MOL0     H99456   8.318   1.286  11.932 -0.6584 -1.6075 -1.0141
  737MOL0     H99457   8.247   1.430  11.857  0.8052  0.7170 -1.5773
  737MOL0     H99458   8.165   1.273  11.858 -2.1217  3.1278 -0.7336
  737MOL0     H99459   8.203   0.815  11.811 -0.4903 -0.2463  1.0732
  737MOL0     H99460   8.212   0.579  11.917  1.6089 -0.6382  3.2758
  737MOL0     H99461   8.380   0.485  12.102 -0.0190  0.7872 -0.1876
  737MOL0     H99462   8.245   0.414  12.014  0.4503  4.6434 -1.4431
  737MOL0     H99463   8.509   0.262  12.093  0.3860 -1.7953  1.3263
  737MOL0     H99464   8.366   0.243  12.183  0.9095 -1.1065 -0.2131
  737MOL0     H99465   8.388   0.064  12.052 -2.0164  0.7063  0.2324
  737MOL0     H99466   8.415   0.154  11.898 -3.4644  0.5112 -2.6861
  737MOL0     H99467   8.156   0.113  12.070 -0.1634 -2.0058 -0.7984
  737MOL0     H99468   8.146   0.229  11.951  0.9901  0.0184  1.0692
  737MOL0     H99469   8.209  -0.072  11.912  0.6752  0.5256 -1.6662
  737MOL0     H99470   8.225   0.038  11.783  0.8692 -1.9413 -0.1391
  737MOL0     H99471   7.955   0.025  11.929 -1.5371  1.9661 -0.9509
  737MOL0     H99472   7.980   0.065  11.766 -0.8106  1.4177  1.8598
  737MOL0     H99473   8.040  -0.220  11.859  2.1002 -1.0174 -3.1442
  737MOL0     H99474   8.046  -0.172  11.697 -3.3889 -0.3281 -3.2354
  737MOL0     H99475   7.804  -0.116  11.699 -0.2383  0.7797  1.4914
  737MOL0     H99476   7.811  -0.123  11.883 -1.1846  1.2213 -0.1785
  737MOL0     H99477   8.618   0.535  11.797 -0.9715 -0.3533  2.6235
  737MOL0     H99478   8.607   0.777  11.686 -0.3292 -2.7992 -0.8855
  737MOL0     H99479   8.518   1.077  11.532  0.4209 -0.2351 -2.0407
  737MOL0     H99480   8.598   1.278  11.436 -2.3562 -0.1302 -3.0997
  737MOL0     H99481   8.991   3.246  11.144  2.6654 -0.5960 -0.4228
  737MOL0     H99482   8.875   3.422  11.028  2.1996  0.4335  0.6303
  737MOL0     H99483   8.665   3.452  10.547 -3.3157 -2.6038  1.7121
  737MOL0     H99484   8.554   3.583  10.398 -0.7664 -0.1223  0.4647
  737MOL0     H99485   8.254   3.866  10.596  2.4118  2.2437  0.0570
  737MOL0     H99486   8.228   3.937  10.440  0.9469 -0.9113 -1.2029
  737MOL0     H99487   8.170   3.649  10.525  1.1133 -2.4730 -2.2487
  737MOL0     H99488   8.153   3.699  10.354  1.7885 -1.7636  1.5806
  737MOL0     H99489   7.992   3.873  10.407 -0.9046  0.5418  0.8950
  737MOL0     H99490   8.008   3.845  10.583  1.6167  2.2717 -1.1037
  737MOL0     H99491   7.909   3.616  10.537  1.2836  0.1720 -0.7076
  737MOL0     H99492   7.895   3.648  10.369  0.0994 -1.1486  0.3305
  737MOL0     H99493   7.567   3.872  10.510 -2.3247 -1.5048 -3.2313
  737MOL0     H99494   8.354   3.786  10.724 -1.5096 -1.3241 -0.6581
  737MOL0     H99495   8.491   3.651  10.878  1.8723  2.0259 -0.0237
  738MOL0     O99496   0.521   2.472   0.331  0.2557  0.5970  0.2829
  738MOL0     C99497   0.572   2.374   0.379  0.1555  1.1420  0.0108
  738MOL0     O99498   0.505   2.256   0.404  0.4919 -0.8260  0.3278
  738MOL0     C99499   0.376   2.231   0.360  0.0631 -0.9053  0.0717
  738MOL0     C99500   0.353   2.114   0.288 -0.0079  0.0433  0.1640
  738MOL0     C99501   0.211   2.074   0.258 -0.8999  0.2620 -0.0604
  738MOL0     C99502   0.110   2.154   0.291  1.7696  0.1601 -0.1984
  738MOL0     O99503  -0.024   2.132   0.247 -0.4422 -0.0229  0.1587
  738MOL0     C99504  -0.086   2.016   0.301  0.8487  0.6241  0.5807
  738MOL0     C99505  -0.153   2.028   0.441  0.7636 -0.0082  0.8383
  738MOL0     C99506  -0.048   2.030   0.548 -0.0170  0.0054  0.1684
  738MOL0     C99507   0.034   1.891   0.563  1.0716 -0.2789 -1.6737
  738MOL0     C99508   0.115   1.879   0.695 -0.9973 -0.5609 -0.1317
  738MOL0     C99509   0.035   1.842   0.822 -0.2163  0.1087  0.5780
  738MOL0     C99510   0.119   1.862   0.951 -0.7144 -0.1717  0.6169
  738MOL0     C99511   0.024   1.824   1.069  0.6042 -0.1256 -0.1927
  738MOL0     N99512  -0.062   1.929   1.122 -0.5402  0.8125 -0.4370
  738MOL0     C99513  -0.057   2.062   1.108  0.4687 -0.7962 -0.1595
  738MOL0     C99514  -0.148   2.117   1.192  0.4655 -0.6175  0.3039
  738MOL0     C99515  -0.162   2.268   1.218  0.6334 -0.9376  0.8431
  738MOL0     C99516  -0.081   2.302   1.343  0.1464  0.4970  0.5131
  738MOL0     C99517  -0.093   2.452   1.364  0.1918  0.0610 -0.2391
  738MOL0     C99518  -0.004   2.501   1.480 -0.3310  0.6430  0.2239
  738MOL0     O99519   0.122   2.550   1.422 -0.3004  0.6951  0.8017
  738MOL0     C99520   0.163   2.668   1.485 -0.3851  0.2536 -0.0145
  738MOL0     C99521   0.180   2.778   1.405 -0.8599 -0.5788 -0.2301
  738MOL0     C99522   0.232   2.900   1.455 -0.2098 -0.0804 -0.0017
  738MOL0     C99523   0.258   3.019   1.361  0.1438 -0.5010 -0.7955
  738MOL0     C99524   0.265   2.911   1.596  1.0293  0.1381 -0.0591
  738MOL0     C99525   0.330   3.031   1.659  0.8137 -0.2148 -0.1402
  738MOL0     O99526   0.384   3.016   1.787 -0.3010  0.0005  0.1162
  738MOL0     C99527   0.434   3.126   1.859 -0.3356  0.6437  0.4746
  738MOL0     C99528   0.573   3.141   1.844 -0.1259 -0.9725  0.5311
  738MOL0     C99529   0.633   3.260   1.891  0.6605  1.1396 -0.8562
  738MOL0     C99530   0.554   3.351   1.965 -0.2849 -0.2302 -0.5036
  738MOL0     O99531   0.620   3.455   2.030  0.4201  0.0816 -0.5462
  738MOL0     C99532   0.542   3.570   2.074 -0.0601  0.6598  0.1253
  738MOL0     C99533   0.633   3.691   2.077  0.1664  1.3515  0.1556
  738MOL0     C99534   0.763   3.681   2.162 -0.7429 -0.0967  0.0139
  738MOL0     C99535   0.748   3.599   2.297  0.1275  0.2191  0.5171
  738MOL0     C99536   0.640   3.659   2.387  0.0582  0.6211 -1.0516
  738MOL0     C99537   0.681   3.788   2.461 -0.2045  0.1598 -0.2613
  738MOL0     C99538   0.723   3.749   2.602  0.2632 -0.9341 -0.9717
  738MOL0     C99539   0.754   3.872   2.687 -0.3376  0.6779 -0.0881
  738MOL0    Cl99540   0.599   3.983   2.698 -0.3217  0.5113 -0.1779
  738MOL0     C99541   0.416   3.327   1.989  0.2568 -0.7890  0.6897
  738MOL0     C99542   0.357   3.213   1.934  0.2624 -0.6723  0.9544
  738MOL0     O99543   0.320   3.144   1.603 -0.5372  0.8579 -0.4430
  738MOL0     C99544   0.244   2.795   1.675 -0.2200 -0.1875  0.4025
  738MOL0     C99545   0.198   2.676   1.622  0.4996  0.0138  0.0340
  738MOL0     N99546  -0.224   2.012   1.238  0.9205  0.1063 -0.3302
  738MOL0     N99547  -0.177   1.899   1.187 -0.5965 -0.9421 -0.4318
  738MOL0     C99548   0.129   2.270   0.360  0.0122 -0.1337  0.3125
  738MOL0     C99549   0.258   2.309   0.399 -0.6570 -0.1978 -0.2358
  738MOL0     C99550   0.721   2.366   0.413  0.2775 -0.4647  0.0360
  738MOL0     C99551   0.782   2.243   0.434  0.0206 -0.6833  1.0555
  738MOL0     C99552   0.914   2.228   0.480  0.6883 -0.0730 -0.1635
  738MOL0     C99553   0.981   2.340   0.527  0.1798  0.2974 -0.0480
  738MOL0     O99554   1.093   2.345   0.597 -0.1499 -0.6270 -0.4719
  738MOL0     C99555   1.101   2.256   0.715 -0.7826  0.7928  0.1777
  738MOL0     C99556   1.001   2.299   0.825  0.0000  0.6483  0.4236
  738MOL0     C99557   1.027   2.197   0.930 -0.0805  0.5580 -0.6836
  738MOL0     C99558   0.939   2.228   1.055 -0.3605 -0.8199 -0.0613
  738MOL0     C99559   0.801   2.265   1.044 -0.2401  1.1567  0.3915
  738MOL0     C99560   0.695   2.290   1.025  0.0641  0.4370 -0.5997
  738MOL0     C99561   0.924   2.471   0.490  0.7749  0.7651  0.1012
  738MOL0     C99562   0.797   2.484   0.439 -0.2803  0.7167  0.2372
  738MOL0     H99563   0.440   2.054   0.264  1.1890  3.0371 -4.1984
  738MOL0     H99564   0.195   1.979   0.208  4.7453 -2.1361  1.8496
  738MOL0     H99565  -0.166   1.996   0.229  2.3640  1.7467 -1.5569
  738MOL0     H99566  -0.025   1.926   0.295 -1.9332 -1.5362  2.2754
  738MOL0     H99567  -0.215   2.118   0.452  0.1276 -0.3190 -0.1207
  738MOL0     H99568  -0.219   1.946   0.470  2.4206 -1.8660 -0.4328
  738MOL0     H99569   0.028   2.101   0.514 -1.7398  1.8171 -0.0560
  738MOL0     H99570  -0.090   2.050   0.647  0.1770 -1.9253  0.6721
  738MOL0     H99571  -0.029   1.803   0.546 -0.6771  0.5172  0.3179
  738MOL0     H99572   0.105   1.898   0.480  2.0567  0.3709 -0.8081
  738MOL0     H99573   0.198   1.808   0.684 -0.3387  0.2139 -0.2283
  738MOL0     H99574   0.159   1.978   0.708 -0.8750 -0.5393 -0.7130
  738MOL0     H99575  -0.057   1.901   0.823 -1.0042 -1.0331 -1.0561
  738MOL0     H99576  -0.006   1.742   0.810  0.0088  0.0956 -0.0910
  738MOL0     H99577   0.200   1.790   0.937 -2.8294 -2.2854 -1.7986
  738MOL0     H99578   0.143   1.968   0.960 -2.7398  0.2206  2.5134
  738MOL0     H99579   0.090   1.789   1.150 -0.2075  2.1840  1.5555
  738MOL0     H99580  -0.039   1.736   1.050 -0.8036 -0.2554  4.0430
  738MOL0     H99581   0.003   2.126   1.046 -0.5552  1.6174  1.1965
  738MOL0     H99582  -0.121   2.323   1.133  0.5394  0.3440  1.6075
  738MOL0     H99583  -0.269   2.290   1.220  0.6692 -0.8307  1.6564
  738MOL0     H99584   0.021   2.265   1.328 -0.7525 -1.3468 -1.5639
  738MOL0     H99585  -0.120   2.250   1.431 -2.1812 -1.5676 -1.5969
  738MOL0     H99586  -0.194   2.472   1.401 -0.1566 -3.0378  0.8277
  738MOL0     H99587  -0.075   2.509   1.273  1.3809 -0.0335 -0.0811
  738MOL0     H99588   0.010   2.413   1.544  1.7285 -1.0671 -2.3781
  738MOL0     H99589  -0.062   2.582   1.525 -1.1425  0.6818 -0.8537
  738MOL0     H99590   0.160   2.771   1.298 -2.9189  0.8550  0.0084
  738MOL0     H99591   0.360   3.057   1.374 -1.0679  2.4953  1.0461
  738MOL0     H99592   0.237   2.998   1.255  0.3582 -0.2543 -0.8889
  738MOL0     H99593   0.185   3.098   1.382  0.9579 -0.8294  4.6723
  738MOL0     H99594   0.631   3.076   1.780  0.9525  0.1535  0.3441
  738MOL0     H99595   0.741   3.270   1.892  0.7388  0.7295  1.7798
  738MOL0     H99596   0.453   3.591   2.014 -2.8637 -0.8008  3.4715
  738MOL0     H99597   0.496   3.548   2.170 -0.0917  0.7420  0.1288
  738MOL0     H99598   0.664   3.719   1.976 -1.6457  1.3846 -0.4359
  738MOL0     H99599   0.579   3.776   2.121 -0.3403  1.5932 -0.8895
  738MOL0     H99600   0.807   3.781   2.170 -1.6162  0.4325 -1.2575
  738MOL0     H99601   0.837   3.630   2.100 -0.5010 -0.5817  0.6976
  738MOL0     H99602   0.730   3.493   2.275  4.2637 -0.8985  1.5835
  738MOL0     H99603   0.844   3.600   2.349 -0.0522 -0.6087  0.8801
  738MOL0     H99604   0.603   3.576   2.448  4.5154 -0.3088  0.6949
  738MOL0     H99605   0.550   3.685   2.329 -0.0534  1.7446 -0.4077
  738MOL0     H99606   0.773   3.823   2.412 -0.6204  0.5679 -0.7641
  738MOL0     H99607   0.603   3.865   2.459  0.6448  1.1030  1.2114
  738MOL0     H99608   0.803   3.675   2.595 -1.2170 -3.1724  2.8743
  738MOL0     H99609   0.657   3.678   2.653  4.0257 -3.1599  1.2883
  738MOL0     H99610   0.841   3.922   2.644 -1.8712  0.3172 -3.9894
  738MOL0     H99611   0.775   3.845   2.791  1.5248  2.7462  0.1498
  738MOL0     H99612   0.353   3.395   2.045 -0.9437  1.1211 -2.6695
  738MOL0     H99613   0.253   3.189   1.950 -0.6854  0.7809 -2.3330
  738MOL0     H99614   0.280   2.782   1.777 -0.5745 -2.2568  0.3190
  738MOL0     H99615   0.208   2.583   1.676 -0.2805 -0.2018 -0.1789
  738MOL0     H99616   0.054   2.345   0.383  2.3776  1.8288  2.1413
  738MOL0     H99617   0.274   2.407   0.445  0.2737 -0.1359 -0.6632
  738MOL0     H99618   0.739   2.148   0.401 -0.7591 -0.6246  1.8625
  738MOL0     H99619   0.944   2.125   0.497  1.4116 -0.0254 -1.1297
  738MOL0     H99620   1.079   2.154   0.684 -1.7324  0.7642  0.8734
  738MOL0     H99621   1.204   2.256   0.750 -1.3966  0.5939  2.1092
  738MOL0     H99622   0.900   2.300   0.782 -0.3904 -2.2364  1.0875
  738MOL0     H99623   1.030   2.402   0.851 -0.4365  0.8081  0.2844
  738MOL0     H99624   1.128   2.181   0.969 -0.5480 -1.1546 -0.0508
  738MOL0     H99625   0.991   2.098   0.899 -2.1640  1.7315 -2.2358
  738MOL0     H99626   0.997   2.304   1.107  2.3699 -1.3997 -2.0718
  738MOL0     H99627   0.945   2.140   1.121 -1.4428  0.8518  2.4284
  738MOL0     H99628   0.594   2.321   1.005 -1.4791 -3.4624  0.2034
  738MOL0     H99629   0.976   2.564   0.514 -0.7306  1.7180 -0.2318
  738MOL0     H99630   0.767   2.586   0.417 -1.0318  0.7918  1.4767
  739MOL0     O99631   6.864   4.693  10.157 -0.3635  0.0172 -0.3458
  739MOL0     C99632   6.944   4.636  10.089  0.7672  1.3816  0.4579
  739MOL0     O99633   7.060   4.704  10.048 -0.0876  0.4356 -0.1621
  739MOL0     C99634   7.066   4.834  10.064 -0.5959 -0.3509  0.7986
  739MOL0     C99635   6.978   4.921   9.995 -0.0104 -0.6928 -0.5855
  739MOL0     C99636   6.980   5.055  10.016  0.6217  0.5140 -0.6963
  739MOL0     C99637   7.066   5.117  10.113 -0.4444  1.4782  0.0219
  739MOL0     O99638   7.055   5.247  10.133  0.0065 -0.0017  0.9197
  739MOL0     C99639   7.128   5.312  10.242  0.1000  0.4595  0.2667
  739MOL0     C99640   7.068   5.282  10.388  0.2968  0.1304 -0.1870
  739MOL0     C99641   6.914   5.269  10.391  0.1908  0.4461 -0.1302
  739MOL0     C99642   6.849   5.412  10.358 -0.1422  0.0047  0.6381
  739MOL0     C99643   6.693   5.416  10.370  0.2831  0.5172  0.0255
  739MOL0     C99644   6.664   5.556  10.307  0.1023  0.2058 -0.2878
  739MOL0     C99645   6.517   5.576  10.285 -0.1169  0.6876  0.1703
  739MOL0     C99646   6.433   5.600  10.413  0.3405 -0.2538 -0.0670
  739MOL0     N99647   6.300   5.632  10.368  0.0155  0.2300 -0.0765
  739MOL0     C99648   6.232   5.564  10.265 -0.5209 -0.3451 -0.6776
  739MOL0     C99649   6.122   5.636  10.254 -0.7884  0.1911  0.3081
  739MOL0     C99650   6.009   5.624  10.154 -0.0853  0.2468 -0.2861
  739MOL0     C99651   5.874   5.660  10.213 -0.1056  0.1499  0.1385
  739MOL0     C99652   5.830   5.546  10.304 -0.4346 -0.0018  0.0357
  739MOL0     C99653   5.692   5.563  10.375 -0.5145 -0.0929  0.3190
  739MOL0     O99654   5.601   5.468  10.323 -0.0652  0.0726 -0.4398
  739MOL0     C99655   5.466   5.490  10.328 -0.0934 -0.4689 -0.0077
  739MOL0     C99656   5.381   5.525  10.437 -0.3042 -0.4944  0.6373
  739MOL0     C99657   5.250   5.554  10.417 -1.0937 -0.5125  0.0151
  739MOL0     C99658   5.175   5.588  10.542  0.0947  0.8294  0.4872
  739MOL0     C99659   5.197   5.563  10.286 -0.9158  0.3418 -0.8577
  739MOL0     C99660   5.064   5.611  10.269  0.2146 -0.3093 -0.6247
  739MOL0     O99661   5.042   5.673  10.153  0.5318 -0.6308  0.1658
  739MOL0     C99662   4.918   5.725  10.125 -1.1428 -0.7496 -1.0861
  739MOL0     C99663   4.869   5.819  10.219  0.0145  0.0315 -0.5574
  739MOL0     C99664   4.733   5.867  10.206 -1.4287  0.4605  0.9033
  739MOL0     C99665   4.669   5.848  10.083  0.1873  0.3671  0.7165
  739MOL0     O99666   4.558   5.927  10.066 -0.0109  0.3532  0.0011
  739MOL0     C99667   4.510   5.940   9.930  0.3439  0.2877  0.2705
  739MOL0     C99668   4.396   6.045   9.935  0.0453 -0.2825 -0.0375
  739MOL0     C99669   4.278   5.994  10.018  0.3651 -1.5312  0.8323
  739MOL0     C99670   4.175   6.098  10.053 -0.0961 -0.2143 -1.3601
  739MOL0     C99671   4.076   6.035  10.149  0.0058 -0.2931  0.1918
  739MOL0     C99672   3.963   6.124  10.204  0.8021 -0.3688  0.8338
  739MOL0     C99673   3.841   6.124  10.105 -0.1777  0.7671  0.0480
  739MOL0     C99674   3.712   6.136  10.175 -0.7923 -1.0459 -0.5868
  739MOL0    Cl99675   3.680   6.292  10.232 -0.0135 -0.0563 -0.6849
  739MOL0     C99676   4.719   5.762   9.986  0.2816 -0.1930 -0.1595
  739MOL0     C99677   4.842   5.695  10.015  0.7212 -0.2645  0.2100
  739MOL0     O99678   4.977   5.550  10.337 -0.0832 -0.6942 -0.2936
  739MOL0     C99679   5.269   5.515  10.184  0.2110  0.1469  0.4733
  739MOL0     C99680   5.403   5.469  10.203 -0.1455 -0.0890 -0.5541
  739MOL0     N99681   6.138   5.754  10.326  0.0956  0.2461  0.8264
  739MOL0     N99682   6.235   5.748  10.402  0.0472 -0.7860 -0.3669
  739MOL0     C99683   7.160   5.036  10.185  0.0517  0.7936  0.2063
  739MOL0     C99684   7.151   4.893  10.160  0.9148 -0.5358 -0.3695
  739MOL0     C99685   6.930   4.492  10.061 -0.4413 -0.1115  0.0729
  739MOL0     C99686   7.019   4.429   9.969  0.3430  0.3069 -0.2587
  739MOL0     C99687   6.992   4.293   9.935 -0.3378  0.9184 -0.6184
  739MOL0     C99688   6.894   4.221   9.994  1.7243 -0.6571 -0.9602
  739MOL0     O99689   6.879   4.097   9.947 -0.0919 -0.6481 -1.1408
  739MOL0     C99690   6.780   4.011   9.994  0.8917  0.1981  0.5147
  739MOL0     C99691   6.806   3.972  10.140 -0.1310  0.5937  0.2410
  739MOL0     C99692   6.953   3.928  10.159  0.3552 -0.2152 -0.2993
  739MOL0     C99693   6.983   3.836  10.275 -0.2729  0.4696 -0.1495
  739MOL0     C99694   7.125   3.818  10.274  0.0684  0.3911  0.1983
  739MOL0     C99695   7.239   3.790  10.267 -0.5063  0.2205  0.2606
  739MOL0     C99696   6.806   4.285  10.080 -0.2308  0.0646 -0.2165
  739MOL0     C99697   6.814   4.422  10.107 -1.4977 -0.2423  0.0243
  739MOL0     H99698   6.912   4.879   9.921 -0.9057  0.4896 -0.4781
  739MOL0     H99699   6.907   5.110   9.958 -2.3703  1.0338  3.1446
  739MOL0     H99700   7.236   5.294  10.236  0.3530  1.8751  0.2563
  739MOL0     H99701   7.120   5.419  10.225 -0.0089  0.4871  0.4933
  739MOL0     H99702   7.110   5.184  10.412 -0.2708  0.8008  4.3827
  739MOL0     H99703   7.121   5.342  10.463  0.4003  1.7343 -1.4894
  739MOL0     H99704   6.875   5.188  10.328 -0.1919 -0.3536  1.0926
  739MOL0     H99705   6.876   5.226  10.485  0.3523  0.9620  0.1747
  739MOL0     H99706   6.876   5.488  10.433  0.4054 -0.0553  0.5004
  739MOL0     H99707   6.882   5.450  10.261 -2.0443 -0.8939 -0.4187
  739MOL0     H99708   6.648   5.338  10.308  0.7394 -0.7698  1.2519
  739MOL0     H99709   6.659   5.418  10.474 -1.0535 -0.5649 -0.3578
  739MOL0     H99710   6.689   5.629  10.384 -1.2299  0.2919  0.0881
  739MOL0     H99711   6.709   5.572  10.208 -5.1014  0.8952 -2.9203
  739MOL0     H99712   6.495   5.655  10.213 -2.9412 -0.9430 -0.9441
  739MOL0     H99713   6.471   5.489  10.236 -1.4440  2.4959 -1.9746
  739MOL0     H99714   6.471   5.678  10.481 -0.1129 -1.0755  1.1692
  739MOL0     H99715   6.427   5.502  10.460 -0.8774  0.8627  2.2860
  739MOL0     H99716   6.269   5.475  10.215  1.7283  1.1216 -1.8185
  739MOL0     H99717   6.038   5.691  10.073 -1.9872  1.0201 -0.3803
  739MOL0     H99718   5.999   5.521  10.118  2.6703  0.2118 -1.2108
  739MOL0     H99719   5.806   5.678  10.129  3.1061 -1.2107 -2.9881
  739MOL0     H99720   5.882   5.751  10.274  0.1267 -0.7706  1.5237
  739MOL0     H99721   5.894   5.549  10.392 -3.6177  3.1784  2.5649
  739MOL0     H99722   5.830   5.443  10.268  0.3910  1.2439 -3.9882
  739MOL0     H99723   5.654   5.663  10.352 -1.7546 -0.4669  0.6862
  739MOL0     H99724   5.697   5.538  10.481 -0.4142 -0.4793  0.2264
  739MOL0     H99725   5.434   5.525  10.532 -0.4224  1.0370  0.7234
  739MOL0     H99726   5.250   5.582  10.622 -0.3711 -3.4289  0.8280
  739MOL0     H99727   5.122   5.683  10.534 -0.5734  0.3327 -1.1896
  739MOL0     H99728   5.099   5.510  10.553  0.5729  0.5459  2.1888
  739MOL0     H99729   4.935   5.845  10.301 -1.3668  2.1181 -0.0183
  739MOL0     H99730   4.713   5.945  10.278  0.7024  0.9618  1.0055
  739MOL0     H99731   4.593   5.960   9.861  0.0606 -1.0595 -0.5054
  739MOL0     H99732   4.475   5.841   9.899  3.7191 -1.9653  2.9097
  739MOL0     H99733   4.430   6.135   9.986  1.9758  0.5297 -2.5917
  739MOL0     H99734   4.366   6.069   9.833 -0.9793 -0.0282  0.3118
  739MOL0     H99735   4.307   5.940  10.109  0.4372  1.3735  2.6926
  739MOL0     H99736   4.225   5.926   9.951 -4.2851  4.2476 -2.2826
  739MOL0     H99737   4.217   6.188  10.098  2.1212 -0.8201 -2.0905
  739MOL0     H99738   4.125   6.131   9.961  1.2814 -0.6039 -2.2891
  739MOL0     H99739   4.141   6.014  10.234 -0.6051 -1.6656  0.3531
  739MOL0     H99740   4.046   5.936  10.113  1.5075 -1.0079  0.8106
  739MOL0     H99741   3.943   6.083  10.303  1.6663  2.0728  2.1106
  739MOL0     H99742   4.002   6.225  10.224 -0.4169  0.1204  0.8319
  739MOL0     H99743   3.833   6.024  10.061 -0.0339  1.2444 -1.0926
  739MOL0     H99744   3.853   6.200  10.027  0.6666  0.1196 -0.4742
  739MOL0     H99745   3.725   6.058  10.251  2.2999 -1.1246 -1.0937
  739MOL0     H99746   3.626   6.114  10.110 -1.4935 -1.3081  0.3963
  739MOL0     H99747   4.662   5.757   9.894 -3.8029  1.6158  1.9968
  739MOL0     H99748   4.885   5.620   9.950 -1.2197 -2.7527  1.6083
  739MOL0     H99749   5.229   5.506  10.084 -1.5932 -0.3910  1.1860
  739MOL0     H99750   5.453   5.436  10.113 -0.5272  0.6890 -1.0625
  739MOL0     H99751   7.232   5.083  10.252 -0.4136  3.8198 -1.2590
  739MOL0     H99752   7.212   4.833  10.227 -0.7332 -0.3603  1.3672
  739MOL0     H99753   7.097   4.491   9.926  0.3042 -1.0945 -2.4862
  739MOL0     H99754   7.053   4.240   9.863  1.0792  0.2616  0.9970
  739MOL0     H99755   6.678   4.049   9.986  1.4298  1.4003 -0.9792
  739MOL0     H99756   6.777   3.916   9.939 -0.4071 -0.5216  1.7570
  739MOL0     H99757   6.729   3.896  10.156 -0.1941  0.6563  0.2391
  739MOL0     H99758   6.790   4.053  10.213  2.3625  4.0075 -2.6262
  739MOL0     H99759   7.012   4.019  10.171 -0.4483  0.5522 -1.8714
  739MOL0     H99760   6.985   3.868  10.073  1.0486 -2.3934  1.4079
  739MOL0     H99761   6.928   3.741  10.285  1.9532 -0.7518  1.2008
  739MOL0     H99762   6.959   3.880  10.373 -1.7519 -1.7802  0.5784
  739MOL0     H99763   7.342   3.761  10.256 -0.7305  0.1477 -2.0964
  739MOL0     H99764   6.719   4.227  10.111  1.4575 -0.7765  3.5270
  739MOL0     H99765   6.754   4.462  10.188 -0.7002  0.7053  0.1648
  740MOL0     O99766   9.953   1.839   1.474 -0.9385 -0.5699 -1.0088
  740MOL0     C99767   9.886   1.755   1.418  0.7201 -0.2766  0.3967
  740MOL0     O99768   9.754   1.757   1.415  0.0953  0.6859  0.7127
  740MOL0     C99769   9.676   1.855   1.479 -0.3704  0.5123 -0.9178
  740MOL0     C99770   9.547   1.859   1.429 -0.9717  0.0778 -0.2127
  740MOL0     C99771   9.453   1.941   1.492  0.2697 -0.1555 -0.3204
  740MOL0     C99772   9.486   2.023   1.606  0.1607  0.7402 -0.3399
  740MOL0     O99773   9.391   2.108   1.661 -0.0277 -0.0929  0.3167
  740MOL0     C99774   9.379   2.088   1.798  0.2640  0.5470 -0.8723
  740MOL0     C99775   9.255   2.158   1.843  0.1903 -0.6262 -0.2572
  740MOL0     C99776   9.283   2.305   1.841  0.5603 -0.2148 -1.0125
  740MOL0     C99777   9.377   2.339   1.954 -0.3560  0.4848 -1.0017
  740MOL0     C99778   9.317   2.439   2.059 -0.1572  0.1511  0.0416
  740MOL0     C99779   9.204   2.381   2.140  0.3570  0.6369  0.1470
  740MOL0     C99780   9.107   2.488   2.178  0.2163 -0.7767 -0.2812
  740MOL0     C99781   8.974   2.434   2.233  0.2152  0.2332  0.1606
  740MOL0     N99782   8.903   2.362   2.130  0.0549 -0.2543 -0.4680
  740MOL0     C99783   8.794   2.289   2.165  0.3202 -1.1684 -0.1168
  740MOL0     C99784   8.739   2.234   2.056  0.2284 -0.0309 -0.1271
  740MOL0     C99785   8.628   2.129   2.060 -0.4370  0.2953 -0.8368
  740MOL0     C99786   8.620   2.030   2.183  0.7892 -0.2882  0.9530
  740MOL0     C99787   8.736   1.936   2.194 -0.0802  0.4987  0.1952
  740MOL0     C99788   8.725   1.866   2.332  0.4754  0.5284  0.0372
  740MOL0     O99789   8.599   1.791   2.336  0.0121  0.0439 -0.2629
  740MOL0     C99790   8.548   1.738   2.454 -0.4181  0.4106  0.1489
  740MOL0     C99791   8.605   1.764   2.579  0.1947 -0.2329 -0.4066
  740MOL0     C99792   8.545   1.713   2.700  1.4949 -0.5887  0.7516
  740MOL0     C99793   8.608   1.750   2.834 -0.4139  0.2700  0.6860
  740MOL0     C99794   8.424   1.640   2.698 -0.7138  0.9976  0.4706
  740MOL0     C99795   8.367   1.560   2.808  0.2058  0.1241 -0.0881
  740MOL0     O99796   8.352   1.425   2.797  0.1732 -0.2011  0.0416
  740MOL0     C99797   8.261   1.361   2.872  0.2820  0.5555 -0.9655
  740MOL0     C99798   8.169   1.282   2.795 -0.4633 -0.4175 -1.2545
  740MOL0     C99799   8.066   1.217   2.860  0.1378 -0.1916  0.3637
  740MOL0     C99800   8.050   1.226   3.004 -0.5041 -0.1164  0.2910
  740MOL0     O99801   7.956   1.152   3.067 -0.1093 -0.6140  0.5945
  740MOL0     C99802   7.988   1.022   3.125 -0.7569  0.1425  0.4921
  740MOL0     C99803   7.857   0.949   3.149  0.5506 -0.6433 -0.4861
  740MOL0     C99804   7.882   0.840   3.259 -0.3175  0.1458  0.2307
  740MOL0     C99805   7.797   0.865   3.386  0.1165  0.1537 -0.2399
  740MOL0     C99806   7.673   0.769   3.398  0.5709 -0.1373 -0.3246
  740MOL0     C99807   7.616   0.796   3.531 -0.3868  0.3461  0.8167
  740MOL0     C99808   7.490   0.711   3.535  0.5392 -0.7002 -0.7458
  740MOL0     C99809   7.416   0.716   3.663 -0.1344 -1.0623 -0.7877
  740MOL0    Cl99810   7.371   0.889   3.715  0.4651  0.2094  0.6089
  740MOL0     C99811   8.152   1.292   3.077 -0.3755  0.2048 -0.8111
  740MOL0     C99812   8.254   1.354   3.012  0.7984 -0.2174  0.3514
  740MOL0     O99813   8.318   1.624   2.902 -0.4068 -0.3240  0.8553
  740MOL0     C99814   8.382   1.606   2.563 -0.1178  0.0206 -0.5274
  740MOL0     C99815   8.440   1.649   2.447  0.4512 -0.0173  0.2812
  740MOL0     N99816   8.818   2.284   1.947  0.9416  0.5647 -0.1355
  740MOL0     N99817   8.905   2.359   1.997 -0.4281  0.1726  0.1426
  740MOL0     C99818   9.619   2.034   1.640 -0.0194  0.3598 -1.0110
  740MOL0     C99819   9.712   1.949   1.577 -0.3164  0.1950 -0.8921
  740MOL0     C99820   9.957   1.647   1.343  0.6034  0.6753  0.6715
  740MOL0     C99821  10.098   1.625   1.364  0.1826 -0.0464 -0.3073
  740MOL0     C99822  10.158   1.509   1.302 -0.5161 -0.4895  0.0980
  740MOL0     C99823  10.095   1.421   1.224 -0.8993  0.0201 -0.3725
  740MOL0     O99824  10.174   1.329   1.161  0.1166 -0.2935 -0.5953
  740MOL0     C99825  10.107   1.197   1.133 -0.1593 -0.2150  0.2443
  740MOL0     C99826  10.096   1.130   1.270 -0.8671 -0.3963 -0.6877
  740MOL0     C99827  10.026   0.987   1.251  0.7385 -0.3654 -0.3777
  740MOL0     C99828   9.965   0.931   1.377  0.8153  0.6038 -0.4256
  740MOL0     C99829   9.840   1.002   1.417 -0.3338 -1.0570 -0.1969
  740MOL0     C99830   9.745   1.062   1.444  1.0782  0.2263  0.3531
  740MOL0     C99831   9.955   1.449   1.203 -0.2507 -0.1259  0.6578
  740MOL0     C99832   9.885   1.559   1.261  0.7881  0.4393  0.4490
  740MOL0     H99833   9.515   1.781   1.361  1.3420 -1.6308  0.5300
  740MOL0     H99834   9.352   1.929   1.454 -0.1666  3.1828 -0.5398
  740MOL0     H99835   9.379   1.983   1.828 -0.5196  1.0805  1.1744
  740MOL0     H99836   9.466   2.126   1.853  0.9503  3.5096 -3.7422
  740MOL0     H99837   9.181   2.120   1.772  2.5867 -2.8482 -1.7816
  740MOL0     H99838   9.227   2.127   1.944 -4.0402 -0.2512 -1.1125
  740MOL0     H99839   9.323   2.334   1.743 -2.5575 -0.7285 -2.5699
  740MOL0     H99840   9.184   2.351   1.855 -0.6892 -3.5272  2.7876
  740MOL0     H99841   9.428   2.261   2.012 -1.8025  1.0785  1.2170
  740MOL0     H99842   9.455   2.397   1.905  0.7933  0.4554  0.7055
  740MOL0     H99843   9.393   2.473   2.130 -1.3476 -0.0020  1.4538
  740MOL0     H99844   9.279   2.517   1.993  0.6412  0.0875 -0.5025
  740MOL0     H99845   9.156   2.304   2.078  3.2774 -1.2380  0.0333
  740MOL0     H99846   9.233   2.328   2.231 -1.7500 -4.0873 -1.6111
  740MOL0     H99847   9.154   2.564   2.240 -1.2581  0.7092 -0.8863
  740MOL0     H99848   9.065   2.548   2.097 -1.4729  0.2718  1.2705
  740MOL0     H99849   8.913   2.510   2.281  1.0306  0.0680  1.5128
  740MOL0     H99850   8.993   2.367   2.318 -2.5117 -1.3294 -0.3662
  740MOL0     H99851   8.770   2.265   2.268 -2.5160  0.8536 -0.1675
  740MOL0     H99852   8.533   2.175   2.029 -2.1796 -1.6955  1.2002
  740MOL0     H99853   8.660   2.064   1.979  0.4385 -1.5157  0.9000
  740MOL0     H99854   8.536   1.962   2.168  1.3113 -0.6172 -0.6416
  740MOL0     H99855   8.596   2.092   2.270 -0.5144 -0.6368  0.8614
  740MOL0     H99856   8.825   1.999   2.192  0.7367 -0.6403 -1.3747
  740MOL0     H99857   8.749   1.867   2.110  1.9791 -0.3856  1.1831
  740MOL0     H99858   8.731   1.940   2.413  1.5605  1.4788 -0.8768
  740MOL0     H99859   8.804   1.792   2.349  1.6366  1.9090  0.9172
  740MOL0     H99860   8.696   1.822   2.586 -1.7203  3.0113 -0.0786
  740MOL0     H99861   8.582   1.679   2.913 -3.3603  2.7132  2.1016
  740MOL0     H99862   8.717   1.757   2.834 -0.4291  1.0143  2.3472
  740MOL0     H99863   8.558   1.845   2.855 -0.6043  0.4405 -0.4342
  740MOL0     H99864   8.184   1.280   2.687  0.2724  1.2240 -1.2100
  740MOL0     H99865   8.001   1.163   2.792 -2.1148  3.1411 -0.3564
  740MOL0     H99866   8.052   0.964   3.057 -1.0166 -0.5110  0.7963
  740MOL0     H99867   8.040   1.037   3.220  1.0588  0.6630 -0.5192
  740MOL0     H99868   7.780   1.021   3.177  2.7351  1.4894  0.4440
  740MOL0     H99869   7.838   0.897   3.054 -0.0927 -1.1630 -0.0801
  740MOL0     H99870   7.987   0.819   3.282  1.2060  1.0987 -4.8026
  740MOL0     H99871   7.852   0.745   3.214  0.6758  1.3295 -3.2329
  740MOL0     H99872   7.866   0.863   3.471 -0.7762  0.5624  0.5123
  740MOL0     H99873   7.760   0.967   3.397  0.1924  0.3960 -1.9132
  740MOL0     H99874   7.707   0.665   3.393 -0.4480 -0.4481 -1.0692
  740MOL0     H99875   7.606   0.783   3.312 -2.4197 -0.4561  1.8044
  740MOL0     H99876   7.680   0.759   3.612 -2.5330  1.1238  2.9871
  740MOL0     H99877   7.584   0.900   3.541  0.2124  1.0841 -3.3439
  740MOL0     H99878   7.519   0.609   3.504  1.0282 -1.0795  0.8848
  740MOL0     H99879   7.420   0.766   3.472  1.6648  2.3459  0.4862
  740MOL0     H99880   7.481   0.670   3.738  1.0439 -0.6729 -1.5393
  740MOL0     H99881   7.329   0.650   3.665  0.0410 -1.3351  1.7737
  740MOL0     H99882   8.156   1.278   3.185  0.2077  0.6047 -0.7740
  740MOL0     H99883   8.330   1.408   3.067  1.5011 -0.8546  0.0189
  740MOL0     H99884   8.307   1.533   2.533 -0.4111  0.7464 -1.6436
  740MOL0     H99885   8.399   1.623   2.350  1.6547  0.0562 -0.2639
  740MOL0     H99886   9.644   2.109   1.715 -0.1438 -1.2793  0.7632
  740MOL0     H99887   9.809   1.949   1.625  0.1205  0.2356 -1.7538
  740MOL0     H99888  10.164   1.687   1.424  3.6265  0.1845 -3.9194
  740MOL0     H99889  10.266   1.502   1.304 -0.4903 -0.1107  0.0018
  740MOL0     H99890  10.004   1.212   1.099  0.3998 -0.9339 -1.9546
  740MOL0     H99891  10.161   1.138   1.058  0.4024  2.6390 -1.8032
  740MOL0     H99892  10.020   1.188   1.324 -1.0778 -0.3345 -1.0521
  740MOL0     H99893  10.188   1.104   1.322 -0.1724  0.5662 -1.4117
  740MOL0     H99894  10.102   0.922   1.205  1.3469  0.4084 -0.4918
  740MOL0     H99895   9.942   1.000   1.183 -1.1919 -1.2522  1.7287
  740MOL0     H99896  10.032   0.940   1.464  0.1699  1.5948 -0.0171
  740MOL0     H99897   9.940   0.828   1.349  1.0156  1.4726 -4.3774
  740MOL0     H99898   9.662   1.126   1.467  2.3570  1.5577  1.4632
  740MOL0     H99899   9.902   1.376   1.142  1.5101 -1.5385  0.7336
  740MOL0     H99900   9.781   1.578   1.237 -0.0672  2.6790  4.8403
  741MOL0     O99901   6.679   0.918   4.344  0.5998 -0.6369 -0.1619
  741MOL0     C99902   6.762   0.922   4.251 -0.4262  0.4324 -0.0931
  741MOL0     O99903   6.840   0.819   4.217 -0.0005 -0.3058 -0.1755
  741MOL0     C99904   6.833   0.704   4.297  1.4064 -0.7710 -0.8658
  741MOL0     C99905   6.788   0.587   4.234  0.8170 -0.2791  0.2886
  741MOL0     C99906   6.804   0.459   4.288  0.0442  0.0486  0.2611
  741MOL0     C99907   6.845   0.454   4.424  0.1022 -0.5501 -0.2149
  741MOL0     O99908   6.844   0.334   4.500  0.1351 -1.1343 -0.3793
  741MOL0     C99909   6.878   0.211   4.433  1.0378  0.3859  0.8664
  741MOL0     C99910   6.761   0.107   4.435  0.2077  0.1455  0.2210
  741MOL0     C99911   6.815  -0.046   4.423  0.1656 -0.0811  0.3348
  741MOL0     C99912   6.709  -0.139   4.484 -0.5029  0.1721 -0.5672
  741MOL0     C99913   6.752  -0.284   4.510  0.3253 -0.5589 -0.2441
  741MOL0     C99914   6.847  -0.311   4.623 -0.0160 -0.3780  0.9288
  741MOL0     C99915   6.783  -0.342   4.756  0.1819  0.2043  0.5846
  741MOL0     C99916   6.708  -0.476   4.778 -0.4737 -0.9464 -0.2471
  741MOL0     N99917   6.808  -0.594   4.763  1.2205 -0.3119 -0.7003
  741MOL0     C99918   6.792  -0.713   4.699  1.0223 -0.4214  0.4595
  741MOL0     C99919   6.887  -0.787   4.734 -0.6208  0.0917 -0.0052
  741MOL0     C99920   6.912  -0.927   4.676 -0.2311 -0.7478  1.2158
  741MOL0     C99921   7.047  -0.959   4.603  0.7221 -0.9834 -0.4622
  741MOL0     C99922   7.082  -1.103   4.583 -0.5523  1.2647 -0.4502
  741MOL0     C99923   6.967  -1.161   4.494 -1.0247 -0.2398 -0.8585
  741MOL0     O99924   6.869  -1.208   4.583  0.2825 -0.2915 -0.1275
  741MOL0     C99925   6.783  -1.313   4.538 -0.6649 -0.7862  0.0935
  741MOL0     C99926   6.819  -1.398   4.426 -0.3367 -0.4106  0.1395
  741MOL0     C99927   6.716  -1.464   4.364  0.6393  0.4578 -0.0758
  741MOL0     C99928   6.752  -1.537   4.234 -0.1398 -0.1959 -0.4876
  741MOL0     C99929   6.587  -1.456   4.411 -0.4064  0.0441 -0.2887
  741MOL0     C99930   6.471  -1.521   4.345  0.7001  1.1425 -0.6302
  741MOL0     O99931   6.346  -1.483   4.396 -0.6529 -0.3853  0.6627
  741MOL0     C99932   6.240  -1.508   4.318 -0.4799  0.0039 -0.1214
  741MOL0     C99933   6.140  -1.602   4.342  0.5217  0.4467 -0.3311
  741MOL0     C99934   6.023  -1.608   4.265 -0.3601 -1.3313  0.3858
  741MOL0     C99935   6.016  -1.535   4.145 -0.2793  0.5107 -0.7953
  741MOL0     O99936   5.922  -1.556   4.044  0.3036  0.2518 -0.3833
  741MOL0     C99937   5.963  -1.657   3.954  1.1156 -0.0712  0.4399
  741MOL0     C99938   5.851  -1.708   3.859 -0.4139 -0.3814 -0.4116
  741MOL0     C99939   5.911  -1.826   3.772  0.5695 -0.2105  0.0942
  741MOL0     C99940   5.810  -1.915   3.699  1.1356  0.8233 -0.1806
  741MOL0     C99941   5.753  -1.835   3.586  0.5120  0.1540 -0.0266
  741MOL0     C99942   5.666  -1.920   3.488 -1.1184 -0.5357  0.1807
  741MOL0     C99943   5.587  -1.836   3.383 -0.7251 -0.4589 -0.8262
  741MOL0     C99944   5.677  -1.792   3.269 -0.5034 -0.3013 -0.4631
  741MOL0    Cl99945   5.589  -1.659   3.188  0.2068 -0.0025  0.2350
  741MOL0     C99946   6.110  -1.436   4.117 -0.3263  0.4326 -0.1834
  741MOL0     C99947   6.219  -1.421   4.211  0.3143 -0.5195 -0.3323
  741MOL0     O99948   6.481  -1.618   4.270 -0.1002  0.0194  0.4275
  741MOL0     C99949   6.558  -1.386   4.529  1.1176  0.8486 -0.1871
  741MOL0     C99950   6.655  -1.314   4.588  0.6759  0.3775 -0.7026
  741MOL0     N99951   6.968  -0.721   4.826  0.1890 -1.1491  0.8024
  741MOL0     N99952   6.908  -0.606   4.843 -0.4334  0.8755  0.2315
  741MOL0     C99953   6.872   0.573   4.490 -0.7192 -0.6089  0.1352
  741MOL0     C99954   6.867   0.698   4.430  0.1500 -0.0677  0.6354
  741MOL0     C99955   6.768   1.043   4.174  0.0333 -0.3690  0.8368
  741MOL0     C99956   6.830   1.043   4.047 -0.5108 -0.8595  0.2022
  741MOL0     C99957   6.836   1.165   3.977  0.1143 -0.0233 -0.0352
  741MOL0     C99958   6.764   1.284   4.017 -0.7022  0.0526 -0.1078
  741MOL0     O99959   6.777   1.397   3.938 -0.2771 -0.6711  0.5690
  741MOL0     C99960   6.689   1.509   3.972  1.1608  0.0683 -0.1208
  741MOL0     C99961   6.698   1.628   3.877  0.6217  0.5650  0.4726
  741MOL0     C99962   6.709   1.582   3.741  0.5416  0.0889  0.1259
  741MOL0     C99963   6.712   1.713   3.651  0.0281  0.1990  0.2704
  741MOL0     C99964   6.658   1.682   3.521 -0.2073  0.3660 -0.1709
  741MOL0     C99965   6.622   1.674   3.407 -0.0294 -0.1234  0.0477
  741MOL0     C99966   6.697   1.279   4.136 -0.3867  0.2584 -0.3072
  741MOL0     C99967   6.693   1.162   4.212 -0.4686 -1.2921 -0.5635
  741MOL0     H99968   6.777   0.605   4.127  2.8401 -4.9960 -0.9566
  741MOL0     H99969   6.774   0.373   4.228 -1.0602 -0.5315  1.5784
  741MOL0     H99970   6.907   0.222   4.328 -0.7558 -1.5218  0.1024
  741MOL0     H99971   6.957   0.164   4.494  0.4902 -1.4160  0.2548
  741MOL0     H99972   6.716   0.106   4.535  1.9362  0.8735  1.0412
  741MOL0     H99973   6.692   0.129   4.353 -1.2379  0.8554  1.5664
  741MOL0     H99974   6.830  -0.074   4.319 -0.3995  1.3179 -0.1460
  741MOL0     H99975   6.908  -0.054   4.480  0.8639  1.0783 -0.6034
  741MOL0     H99976   6.696  -0.105   4.587 -2.8918  0.5196 -0.9368
  741MOL0     H99977   6.610  -0.131   4.440 -0.0844  2.2703 -1.2264
  741MOL0     H99978   6.661  -0.337   4.537  1.0176 -1.7155 -0.1052
  741MOL0     H99979   6.798  -0.328   4.421  0.5878  0.0043 -0.3948
  741MOL0     H99980   6.925  -0.382   4.593  0.5308  1.1748 -1.7022
  741MOL0     H99981   6.903  -0.220   4.647 -1.5134  0.1841  2.4800
  741MOL0     H99982   6.862  -0.340   4.832  0.5366 -1.1516  0.2740
  741MOL0     H99983   6.716  -0.259   4.782  1.2435  0.5944  2.2898
  741MOL0     H99984   6.626  -0.471   4.706  1.2666  2.2126 -2.2635
  741MOL0     H99985   6.664  -0.482   4.878 -0.4184 -1.8717 -0.2739
  741MOL0     H99986   6.711  -0.745   4.634 -1.7397  3.0768  1.8401
  741MOL0     H99987   6.904  -1.005   4.752  2.4406 -2.7186 -0.4020
  741MOL0     H99988   6.830  -0.955   4.609  0.1304 -1.8859  1.2438
  741MOL0     H99989   7.123  -0.900   4.656 -1.6472  2.0704 -0.1238
  741MOL0     H99990   7.053  -0.907   4.507  0.5202  2.9247  1.4407
  741MOL0     H99991   7.098  -1.151   4.680  0.8443  0.2798 -1.1376
  741MOL0     H99992   7.171  -1.119   4.521 -1.1165  2.8264 -1.7561
  741MOL0     H99993   7.011  -1.238   4.431  2.1861  0.2368  0.6164
  741MOL0     H99994   6.927  -1.082   4.430 -0.1688 -0.1348 -1.2697
  741MOL0     H99995   6.918  -1.411   4.384 -0.3527 -0.1161  0.0016
  741MOL0     H99996   6.857  -1.564   4.222 -0.6524 -1.9907 -1.4265
  741MOL0     H99997   6.713  -1.638   4.247 -1.8379  0.6063  1.0560
  741MOL0     H99998   6.712  -1.490   4.143 -1.7036 -0.4006  0.0565
  741MOL0     H99999   6.153  -1.670   4.426 -0.1787  3.7374  2.6881
  741MOL0     H    0   5.943  -1.668   4.307  1.2113 -2.2149  2.2829
  741MOL0     H    1   6.054  -1.629   3.900  2.2179 -1.6768  1.4018
  741MOL0     H    2   5.991  -1.738   4.022 -0.1311  0.3879  1.5599
  741MOL0     H    3   5.769  -1.747   3.921  0.1372 -2.6141 -1.0108
  741MOL0     H    4   5.810  -1.632   3.792  0.8292  0.7710  0.0854
  741MOL0     H    5   5.965  -1.894   3.839  2.0447 -0.4923 -1.3237
  741MOL0     H    6   5.973  -1.772   3.700  1.6527 -2.0963 -0.4718
  741MOL0     H    7   5.859  -1.999   3.648  0.3887  0.6801 -0.6700
  741MOL0     H    8   5.730  -1.951   3.764 -1.6713  3.7882 -1.7245
  741MOL0     H    9   5.831  -1.786   3.528 -1.4776  2.0516 -1.2299
  741MOL0     H   10   5.701  -1.746   3.623 -2.1830 -1.6690  0.8400
  741MOL0     H   11   5.731  -1.994   3.440  1.2980  0.6544  1.4011
  741MOL0     H   12   5.590  -1.975   3.544 -0.9044 -0.5023  0.5075
  741MOL0     H   13   5.554  -1.738   3.418  2.2164  1.6445 -3.4350
  741MOL0     H   14   5.498  -1.894   3.355  0.1285 -1.2044 -2.1199
  741MOL0     H   15   5.691  -1.867   3.190  0.3963  2.3161 -2.9729
  741MOL0     H   16   5.777  -1.766   3.305 -0.8714  0.6705 -0.1138
  741MOL0     H   17   6.100  -1.375   4.027 -0.3487  0.3436 -0.2413
  741MOL0     H   18   6.291  -1.344   4.185 -0.0755 -0.0262  0.0106
  741MOL0     H   19   6.461  -1.380   4.578 -1.3456 -1.2447 -4.2462
  741MOL0     H   20   6.621  -1.267   4.680 -0.6416 -2.5047  0.3860
  741MOL0     H   21   6.905   0.545   4.589  0.7994  0.9445  0.1095
  741MOL0     H   22   6.888   0.781   4.497 -2.2324  0.6733  0.5205
  741MOL0     H   23   6.890   0.961   4.008  2.4695  0.5239  1.5645
  741MOL0     H   24   6.884   1.175   3.880  3.1533  0.4019  1.3792
  741MOL0     H   25   6.587   1.471   3.968  2.1570 -2.9995 -4.6524
  741MOL0     H   26   6.720   1.536   4.074  1.2001  1.9419 -0.6033
  741MOL0     H   27   6.779   1.692   3.911  1.0644 -0.7826  2.0847
  741MOL0     H   28   6.601   1.678   3.886  1.2906  2.4755 -1.8600
  741MOL0     H   29   6.626   1.514   3.721  0.5306  0.5358 -1.4725
  741MOL0     H   30   6.802   1.527   3.723  0.1292 -0.8254  0.7356
  741MOL0     H   31   6.817   1.747   3.647  0.2396 -0.5325 -0.9326
  741MOL0     H   32   6.652   1.789   3.701 -0.3212 -0.9833  1.6771
  741MOL0     H   33   6.590   1.659   3.306 -0.7962 -2.0657  0.5404
  741MOL0     H   34   6.653   1.370   4.174  1.6954  1.1837 -0.0009
  741MOL0     H   35   6.634   1.163   4.303 -0.7567  1.3382 -0.6962
  742MOL0     O   36   1.906   8.183   7.988 -0.3624  0.1653 -0.1725
  742MOL0     C   37   1.876   8.278   7.912  0.0037  1.3664  0.3779
  742MOL0     O   38   1.766   8.287   7.845 -0.6939 -1.0960  0.2913
  742MOL0     C   39   1.668   8.187   7.833 -0.1855 -0.2598 -0.1902
  742MOL0     C   40   1.617   8.170   7.706 -0.4673 -0.1091  0.5546
  742MOL0     C   41   1.527   8.067   7.681  0.4489 -0.1747  0.2183
  742MOL0     C   42   1.475   7.990   7.781 -0.0193  0.0901  0.4936
  742MOL0     O   43   1.381   7.897   7.766  0.2130  0.3312  0.4082
  742MOL0     C   44   1.257   7.945   7.714 -0.4330  0.2590 -0.0771
  742MOL0     C   45   1.138   7.863   7.751  0.1233  0.9603 -0.5557
  742MOL0     C   46   1.153   7.827   7.901  0.2343  0.2079  0.2338
  742MOL0     C   47   1.134   7.967   7.971 -0.8583  0.0357 -0.4396
  742MOL0     C   48   1.076   7.956   8.109 -0.0098 -0.7667 -0.0435
  742MOL0     C   49   0.915   7.945   8.126 -0.9159 -0.1988  0.0601
  742MOL0     C   50   0.875   7.909   8.263 -0.1452 -0.3615 -0.4473
  742MOL0     C   51   0.721   7.911   8.280  0.2280 -0.8281 -0.5731
  742MOL0     N   52   0.653   8.031   8.301 -0.0959  0.2865 -0.4182
  742MOL0     C   53   0.611   8.108   8.199  0.1502  0.3135 -0.4576
  742MOL0     C   54   0.529   8.203   8.256  0.0619 -0.6965  0.3562
  742MOL0     C   55   0.442   8.309   8.197 -1.0986  0.4019 -0.6218
  742MOL0     C   56   0.314   8.252   8.131 -0.6252  0.4300 -0.3533
  742MOL0     C   57   0.347   8.195   7.996 -0.0246 -0.5635  0.1812
  742MOL0     C   58   0.222   8.145   7.918  0.0194 -0.3915  0.5101
  742MOL0     O   59   0.110   8.234   7.924  0.2580 -0.1786 -0.4465
  742MOL0     C   60  -0.011   8.183   7.874  0.2545 -0.1490  0.0345
  742MOL0     C   61  -0.032   8.060   7.805  0.0019  0.2095  0.2473
  742MOL0     C   62  -0.157   8.013   7.769 -0.4576  0.8360  0.4992
  742MOL0     C   63  -0.147   7.866   7.739 -0.0590  0.0212 -0.6272
  742MOL0     C   64  -0.267   8.096   7.794  0.3776  0.9133 -0.3993
  742MOL0     C   65  -0.403   8.052   7.781  0.0694 -0.4521 -0.8979
  742MOL0     O   66  -0.439   7.939   7.707 -0.1248  0.0222  0.0054
  742MOL0     C   67  -0.544   7.856   7.720  0.4060  0.1664 -0.3588
  742MOL0     C   68  -0.631   7.846   7.833  0.6766  0.2156  1.0289
  742MOL0     C   69  -0.735   7.755   7.828  0.5027 -0.3686  0.2845
  742MOL0     C   70  -0.750   7.672   7.713  0.0464  0.2215  0.4273
  742MOL0     O   71  -0.851   7.583   7.717  0.3404  0.7695  0.0765
  742MOL0     C   72  -0.854   7.448   7.672 -1.0500 -0.7945 -1.0002
  742MOL0     C   73  -0.723   7.363   7.718  0.2699  0.3501  0.4215
  742MOL0     C   74  -0.740   7.213   7.698 -0.0785  0.3620  1.0260
  742MOL0     C   75  -0.748   7.168   7.557 -0.3580 -0.3712  0.1349
  742MOL0     C   76  -0.828   7.046   7.518 -0.7893  0.8382 -0.3744
  742MOL0     C   77  -0.782   6.982   7.386 -0.4618  0.0590  0.2658
  742MOL0     C   78  -0.871   6.873   7.342  1.7031  0.8377 -0.3923
  742MOL0     C   79  -1.005   6.933   7.303  0.3179  0.2310 -0.1548
  742MOL0    Cl   80  -1.129   6.804   7.266 -0.0739  0.1181  0.1097
  742MOL0     C   81  -0.668   7.678   7.605 -0.1236  0.4289 -0.3181
  742MOL0     C   82  -0.580   7.786   7.602 -0.1365 -0.5823 -0.4349
  742MOL0     O   83  -0.492   8.129   7.827 -0.0758  0.2777  0.0332
  742MOL0     C   84  -0.250   8.227   7.851 -0.6990 -0.3496  0.6952
  742MOL0     C   85  -0.125   8.267   7.888 -0.3164 -0.0550 -0.1824
  742MOL0     N   86   0.529   8.186   8.392  0.2632 -0.7081 -0.5213
  742MOL0     N   87   0.608   8.082   8.420 -0.0527  0.0565 -0.2916
  742MOL0     C   88   1.518   8.006   7.904 -0.3060 -1.4507  0.1019
  742MOL0     C   89   1.614   8.101   7.934  0.7578 -0.6969 -0.0669
  742MOL0     C   90   1.969   8.391   7.892 -1.0787  0.7546 -0.1496
  742MOL0     C   91   1.922   8.518   7.838 -0.1848 -0.4496  0.2990
  742MOL0     C   92   2.018   8.620   7.820 -0.0033  0.0974  0.2342
  742MOL0     C   93   2.151   8.609   7.865 -0.2551 -0.9042 -0.0465
  742MOL0     O   94   2.237   8.720   7.861 -0.4294  1.1454 -0.0318
  742MOL0     C   95   2.360   8.710   7.927  0.0619 -0.4827 -1.1242
  742MOL0     C   96   2.429   8.836   7.944 -0.1274 -0.3172 -0.1985
  742MOL0     C   97   2.500   8.878   7.825  0.3663  0.0379 -0.3483
  742MOL0     C   98   2.565   9.023   7.850 -0.9234  0.0326 -0.8935
  742MOL0     C   99   2.637   9.062   7.729 -0.4045  0.7073  0.1946
  742MOL0     C  100   2.696   9.093   7.625  0.1976  0.1715  0.9611
  742MOL0     C  101   2.191   8.490   7.924  0.3473 -0.0860 -0.4950
  742MOL0     C  102   2.105   8.383   7.943  0.3167 -0.0384 -0.5787
  742MOL0     H  103   1.641   8.244   7.630 -0.3056  0.3736  1.0666
  742MOL0     H  104   1.490   8.067   7.579  0.8053 -1.6129  0.0713
  742MOL0     H  105   1.243   8.048   7.749  2.0493  0.4271  0.5915
  742MOL0     H  106   1.273   7.953   7.606 -0.3435  2.9715  0.0597
  742MOL0     H  107   1.055   7.925   7.718  0.7620  0.5997 -3.0609
  742MOL0     H  108   1.132   7.766   7.700 -2.3268  0.3844  0.6909
  742MOL0     H  109   1.069   7.770   7.942  0.9258  0.0012  1.4340
  742MOL0     H  110   1.248   7.780   7.929  0.5382 -0.0684 -1.2042
  742MOL0     H  111   1.229   8.021   7.976  0.1778 -1.7949  0.7664
  742MOL0     H  112   1.062   8.028   7.915 -3.4830 -2.9644 -0.6304
  742MOL0     H  113   1.118   7.878   8.173  0.3425  0.1374  0.8493
  742MOL0     H  114   1.101   8.049   8.160 -1.6309 -1.6304  2.4953
  742MOL0     H  115   0.862   8.033   8.088 -1.1249  0.2982  1.4533
  742MOL0     H  116   0.888   7.873   8.048  0.5751  1.6112 -2.2905
  742MOL0     H  117   0.924   7.814   8.288  0.6703  0.7111  2.4485
  742MOL0     H  118   0.907   7.981   8.338 -2.3526  0.8290 -0.5707
  742MOL0     H  119   0.696   7.852   8.368  2.9324  2.2290  2.5434
  742MOL0     H  120   0.685   7.861   8.189  0.9728 -2.4476 -0.0077
  742MOL0     H  121   0.640   8.113   8.095 -0.5286 -1.5316 -0.7647
  742MOL0     H  122   0.397   8.356   8.284 -0.2648 -3.3490  2.0900
  742MOL0     H  123   0.513   8.376   8.147  1.1734 -0.8443  0.7584
  742MOL0     H  124   0.252   8.342   8.121 -0.8384  0.8241  3.1782
  742MOL0     H  125   0.272   8.171   8.191  0.3709 -1.3745 -1.9824
  742MOL0     H  126   0.419   8.114   8.012  1.6715  0.8544  0.0059
  742MOL0     H  127   0.402   8.266   7.934 -0.3023 -1.5960 -1.2956
  742MOL0     H  128   0.189   8.049   7.959 -2.3156  0.5731  1.0473
  742MOL0     H  129   0.253   8.125   7.815 -1.0971  0.4390 -0.0167
  742MOL0     H  130   0.053   8.003   7.771 -0.3498 -0.6706  0.8040
  742MOL0     H  131  -0.220   7.822   7.807  0.2809  0.7624  0.2226
  742MOL0     H  132  -0.181   7.862   7.635 -0.5216  0.1708 -0.4824
  742MOL0     H  133  -0.047   7.822   7.745 -1.1952 -2.5893  0.7439
  742MOL0     H  134  -0.616   7.896   7.928  2.0172 -1.4737  1.7572
  742MOL0     H  135  -0.807   7.740   7.908  0.4988 -0.2094  0.3102
  742MOL0     H  136  -0.941   7.392   7.707  0.6914 -3.3970 -0.5409
  742MOL0     H  137  -0.851   7.444   7.563  1.7283 -1.2024 -0.9833
  742MOL0     H  138  -0.647   7.409   7.654  1.7356 -3.1205 -0.5408
  742MOL0     H  139  -0.698   7.383   7.823  0.5832  2.4562  0.0037
  742MOL0     H  140  -0.824   7.177   7.759  1.6552 -1.7332  2.3397
  742MOL0     H  141  -0.657   7.164   7.749 -0.4866 -2.9703 -1.2011
  742MOL0     H  142  -0.796   7.249   7.502  0.3460  2.1503  2.9732
  742MOL0     H  143  -0.650   7.163   7.508  1.7998  1.5776  3.8158
  742MOL0     H  144  -0.929   7.085   7.505 -1.1307  0.8816  1.8949
  742MOL0     H  145  -0.836   6.973   7.600  1.3689  0.7177 -0.2093
  742MOL0     H  146  -0.780   7.052   7.302  1.4643 -0.3547 -0.0754
  742MOL0     H  147  -0.680   6.945   7.396 -0.2235  0.6088 -0.0819
  742MOL0     H  148  -0.879   6.795   7.418 -0.5319 -1.6413 -2.9244
  742MOL0     H  149  -0.844   6.812   7.255 -0.5905 -0.0475 -0.5717
  742MOL0     H  150  -0.991   7.004   7.221  0.5071  1.0466  0.5545
  742MOL0     H  151  -1.045   6.980   7.393  1.4168 -1.5611  1.3458
  742MOL0     H  152  -0.676   7.616   7.515  0.6133  0.4802 -0.4320
  742MOL0     H  153  -0.522   7.805   7.513 -1.6408 -0.1682 -1.3630
  742MOL0     H  154  -0.328   8.292   7.890 -0.9323  0.8972 -1.6649
  742MOL0     H  155  -0.103   8.362   7.937  0.2186 -0.6358  0.7434
  742MOL0     H  156   1.466   7.949   7.981 -0.1063  0.1704  1.4830
  742MOL0     H  157   1.647   8.111   8.037 -1.0029  0.9914  0.3953
  742MOL0     H  158   1.822   8.532   7.798 -0.9222  1.9484  2.6823
  742MOL0     H  159   1.979   8.716   7.787 -2.7010 -1.2690 -0.8432
  742MOL0     H  160   2.325   8.693   8.029 -2.6194 -2.1867 -2.1978
  742MOL0     H  161   2.426   8.631   7.889  0.6938 -1.7582  2.3135
  742MOL0     H  162   2.506   8.826   8.021  1.2073 -3.8711 -1.8042
  742MOL0     H  163   2.346   8.904   7.967 -3.9919 -3.5634 -3.1050
  742MOL0     H  164   2.425   8.883   7.746  0.3459 -0.3343 -0.3530
  742MOL0     H  165   2.570   8.801   7.791  1.7187  1.8938 -2.0148
  742MOL0     H  166   2.633   9.007   7.933 -0.9062 -1.1525 -1.1121
  742MOL0     H  167   2.489   9.093   7.886 -0.2281  0.7586 -0.8229
  742MOL0     H  168   2.727   9.118   7.526 -0.1945  1.0063  1.0410
  742MOL0     H  169   2.295   8.481   7.954  0.3819 -1.5534 -0.9622
  742MOL0     H  170   2.143   8.290   7.985 -3.9563 -1.0666  1.5501
  743MOL0     O  171   9.084  10.539   2.569  0.1981 -0.3799  0.6394
  743MOL0     C  172   9.107  10.415   2.572 -0.0050  0.5157 -0.1247
  743MOL0     O  173   9.026  10.308   2.528 -0.4503 -0.5706 -0.6487
  743MOL0     C  174   8.913  10.352   2.464  1.1134  1.0307  0.1475
  743MOL0     C  175   8.782  10.340   2.521 -0.7643 -0.1251  0.0579
  743MOL0     C  176   8.677  10.364   2.441  0.3371  0.4128 -0.2277
  743MOL0     C  177   8.684  10.428   2.315 -0.8205  0.2470 -0.0520
  743MOL0     O  178   8.574  10.490   2.260  0.4107  0.9882 -0.5080
  743MOL0     C  179   8.547  10.446   2.128  0.4593 -0.4160  0.6759
  743MOL0     C  180   8.402  10.480   2.094  0.0177 -0.0222  0.5250
  743MOL0     C  181   8.341  10.413   1.968  0.0401  0.4038 -0.1822
  743MOL0     C  182   8.202  10.476   1.934  0.4824 -0.4857  0.5692
  743MOL0     C  183   8.123  10.421   1.816  1.0844  0.9401 -0.6420
  743MOL0     C  184   8.050  10.297   1.862 -0.3333 -0.3683 -0.1862
  743MOL0     C  185   7.936  10.231   1.768 -0.1207 -0.8684  0.9077
  743MOL0     C  186   8.004  10.181   1.644 -0.1481 -0.0895 -0.0670
  743MOL0     N  187   8.095  10.072   1.685 -0.8486  0.2828 -0.1863
  743MOL0     C  188   8.060   9.945   1.732 -0.7758  0.1807  0.3779
  743MOL0     C  189   8.174   9.890   1.773 -0.4196 -0.0850  0.6504
  743MOL0     C  190   8.177   9.757   1.839  0.0496  0.1255  0.0655
  743MOL0     C  191   8.321   9.697   1.872 -0.0535 -0.2109  1.0645
  743MOL0     C  192   8.305   9.582   1.976 -0.8265 -0.4050 -0.1491
  743MOL0     C  193   8.447   9.517   2.008  0.6134 -0.3053  0.5065
  743MOL0     O  194   8.556   9.604   2.032  1.0219 -0.3997  0.0547
  743MOL0     C  195   8.675   9.540   2.030  0.3337  0.0201  0.0530
  743MOL0     C  196   8.696   9.406   2.059 -1.2312  0.4561  1.1234
  743MOL0     C  197   8.826   9.354   2.032 -0.3713  0.5293 -0.7268
  743MOL0     C  198   8.857   9.210   2.073  0.1503 -0.4657 -0.4762
  743MOL0     C  199   8.928   9.440   1.973  0.1891 -0.5354 -0.2110
  743MOL0     C  200   9.063   9.407   1.930  0.5489 -0.4091  0.1837
  743MOL0     O  201   9.155   9.508   1.900  0.0049  1.2525 -0.0348
  743MOL0     C  202   9.282   9.464   1.871  1.3082 -0.8037 -0.2673
  743MOL0     C  203   9.311   9.423   1.739  0.5411 -0.5275  0.2370
  743MOL0     C  204   9.443   9.386   1.703 -0.3609  0.6935  0.3606
  743MOL0     C  205   9.535   9.372   1.806 -0.7284 -0.5145 -0.6853
  743MOL0     O  206   9.653   9.313   1.771  0.4143 -0.5127  0.3578
  743MOL0     C  207   9.778   9.365   1.823 -0.1896 -0.0740 -0.1313
  743MOL0     C  208   9.897   9.376   1.728  1.1439  1.1086 -0.2460
  743MOL0     C  209   9.987   9.490   1.769 -0.4830 -0.7404 -0.4655
  743MOL0     C  210  10.079   9.536   1.659 -0.4093 -0.7007  0.3490
  743MOL0     C  211  10.186   9.639   1.688  0.8334  0.8443 -0.4670
  743MOL0     C  212  10.305   9.591   1.772  0.3939  0.5772 -0.0322
  743MOL0     C  213  10.393   9.503   1.690 -0.8379 -0.7411 -0.6784
  743MOL0     C  214  10.526   9.468   1.753  0.4202 -0.5975 -0.6092
  743MOL0    Cl  215  10.493   9.402   1.916 -0.0783  0.1920  0.0367
  743MOL0     C  216   9.510   9.411   1.943 -0.3359 -0.7377  0.1777
  743MOL0     C  217   9.377   9.449   1.971 -0.0931  0.2207 -0.7599
  743MOL0     O  218   9.078   9.294   1.927  0.3803  0.1385  0.4868
  743MOL0     C  219   8.907   9.579   1.967  0.1262  0.1604  0.8350
  743MOL0     C  220   8.776   9.620   1.987  0.2546 -0.4424 -0.7474
  743MOL0     N  221   8.272   9.980   1.751  0.8197  0.5881  0.5398
  743MOL0     N  222   8.228  10.089   1.702  0.4181  0.9304 -0.4527
  743MOL0     C  223   8.810  10.455   2.264  0.6103  0.1621  0.0308
  743MOL0     C  224   8.924  10.417   2.341  0.0011 -0.4842 -0.9062
  743MOL0     C  225   9.247  10.374   2.620  0.2778 -0.7603 -0.0569
  743MOL0     C  226   9.345  10.471   2.612 -0.5298  0.5423  0.5887
  743MOL0     C  227   9.471  10.427   2.664 -0.1181 -0.6150  0.7147
  743MOL0     C  228   9.500  10.307   2.728  0.4120 -0.4050 -0.1281
  743MOL0     O  229   9.629  10.296   2.775  0.1822 -0.0581 -0.4606
  743MOL0     C  230   9.655  10.181   2.858  0.9487 -0.5325 -0.6443
  743MOL0     C  231   9.745  10.073   2.792  0.7584 -0.8768 -0.5133
  743MOL0     C  232   9.876  10.114   2.748 -0.2271 -0.1181  0.5737
  743MOL0     C  233   9.938   9.990   2.688  0.0027 -0.7985  0.3212
  743MOL0     C  234  10.075  10.018   2.644 -0.3809  0.3120 -1.0754
  743MOL0     C  235  10.193  10.033   2.617  0.0089  0.3059 -0.5577
  743MOL0     C  236   9.398  10.201   2.719  0.6170 -0.9166  0.1833
  743MOL0     C  237   9.275  10.243   2.656 -0.4283  0.5488 -0.0162
  743MOL0     H  238   8.775  10.303   2.623 -0.6756 -0.3321 -0.0105
  743MOL0     H  239   8.574  10.350   2.473 -0.0461  1.2103 -1.0657
  743MOL0     H  240   8.613  10.490   2.053 -0.6859  0.6324  0.2629
  743MOL0     H  241   8.552  10.337   2.121  0.3197 -0.4253  0.7171
  743MOL0     H  242   8.339  10.446   2.177  0.5080  0.2685  1.0220
  743MOL0     H  243   8.385  10.588   2.094 -3.2091 -0.4253  0.5649
  743MOL0     H  244   8.408  10.427   1.883 -1.7953 -0.7418 -1.8751
  743MOL0     H  245   8.335  10.304   1.971  1.6315  0.2864  2.5527
  743MOL0     H  246   8.151  10.475   2.031 -0.7536  3.6020  0.1779
  743MOL0     H  247   8.217  10.581   1.905  0.2488  0.3455  3.1636
  743MOL0     H  248   8.050  10.490   1.772 -0.9340 -0.5847  0.1227
  743MOL0     H  249   8.203  10.399   1.746  1.7062 -1.4611  0.7235
  743MOL0     H  250   8.136  10.231   1.876 -0.0633  0.0565  0.1898
  743MOL0     H  251   8.004  10.308   1.961  0.5582 -0.8481  0.2979
  743MOL0     H  252   7.892  10.151   1.828  1.5975 -1.0164  2.0514
  743MOL0     H  253   7.862  10.308   1.742  2.1657  0.3582 -2.6754
  743MOL0     H  254   8.053  10.267   1.598  0.6202 -0.1124  0.6894
  743MOL0     H  255   7.926  10.135   1.581  1.8006 -4.3774  0.3223
  743MOL0     H  256   7.961   9.902   1.740 -1.8273  2.5630  0.7527
  743MOL0     H  257   8.120   9.764   1.932 -1.0265  1.0602 -0.6457
  743MOL0     H  258   8.113   9.684   1.791 -1.1320 -0.1896  1.9966
  743MOL0     H  259   8.386   9.782   1.897  0.9126 -0.3944 -0.6086
  743MOL0     H  260   8.356   9.648   1.780  0.5089  0.0235  1.1515
  743MOL0     H  261   8.239   9.502   1.944 -1.4633  1.1889 -3.1691
  743MOL0     H  262   8.266   9.621   2.071 -0.0932 -0.0862  0.0339
  743MOL0     H  263   8.468   9.447   1.926 -0.3922  1.3860 -1.2837
  743MOL0     H  264   8.434   9.454   2.097 -0.2991  0.4604  0.9381
  743MOL0     H  265   8.620   9.334   2.088  1.2883 -1.9969  2.1432
  743MOL0     H  266   8.871   9.149   1.984 -0.1526 -1.4965  0.1626
  743MOL0     H  267   8.946   9.211   2.138  0.7263 -1.2945 -1.2234
  743MOL0     H  268   8.770   9.157   2.113 -1.4744  1.9814 -0.5703
  743MOL0     H  269   9.237   9.443   1.662 -0.2822 -0.5597  1.0103
  743MOL0     H  270   9.462   9.351   1.602  2.1040  1.6214  0.4289
  743MOL0     H  271   9.772   9.463   1.872  0.3709  0.4426 -1.0840
  743MOL0     H  272   9.809   9.295   1.901 -1.6536 -2.6252 -1.7142
  743MOL0     H  273   9.952   9.281   1.735 -3.0707 -1.5193  0.8447
  743MOL0     H  274   9.857   9.398   1.629 -1.7817  0.1585  0.6196
  743MOL0     H  275  10.056   9.445   1.841 -0.2076 -0.9073 -0.8299
  743MOL0     H  276   9.947   9.579   1.818  2.1636 -0.3024  1.1241
  743MOL0     H  277  10.132   9.457   1.604  1.6346  2.3252 -2.4190
  743MOL0     H  278  10.009   9.590   1.595  0.5996  0.8071  0.4550
  743MOL0     H  279  10.144   9.721   1.747  1.7505  1.0205 -0.0248
  743MOL0     H  280  10.213   9.686   1.593  2.2177 -1.2726 -1.2051
  743MOL0     H  281  10.351   9.684   1.807  0.6054  0.7309 -0.7179
  743MOL0     H  282  10.268   9.529   1.855 -1.4547 -0.0811 -1.2941
  743MOL0     H  283  10.426   9.547   1.595  1.8881 -0.0315  0.4990
  743MOL0     H  284  10.348   9.406   1.668  1.3384 -1.4972 -2.2080
  743MOL0     H  285  10.591   9.556   1.763  0.4170 -0.8004  2.2190
  743MOL0     H  286  10.594   9.394   1.710  1.3986 -0.1355  0.1032
  743MOL0     H  287   9.578   9.396   2.026  0.1346 -0.8769 -0.2303
  743MOL0     H  288   9.342   9.472   2.071 -1.8274 -1.6740 -0.8815
  743MOL0     H  289   8.981   9.644   1.921  1.5935 -2.1947 -0.3592
  743MOL0     H  290   8.759   9.727   1.990 -2.4376 -0.8292  1.0009
  743MOL0     H  291   8.824  10.510   2.172  1.4602  1.4297  0.8837
  743MOL0     H  292   9.026  10.429   2.307  0.1069  3.2778  0.2692
  743MOL0     H  293   9.323  10.565   2.562  2.4765  1.4941  0.8725
  743MOL0     H  294   9.558  10.491   2.665  0.3839 -1.1048 -2.3378
  743MOL0     H  295   9.716  10.221   2.940  1.3496  1.7384 -1.9857
  743MOL0     H  296   9.563  10.140   2.900  0.4046  1.1154 -0.1655
  743MOL0     H  297   9.686  10.042   2.704  1.4340  0.4065 -1.4498
  743MOL0     H  298   9.754   9.983   2.853 -0.6280 -0.4408  0.3747
  743MOL0     H  299   9.928  10.154   2.836  1.5136  1.6365 -1.1498
  743MOL0     H  300   9.862  10.200   2.683 -0.3002  0.0894  0.8627
  743MOL0     H  301   9.889   9.972   2.592 -0.3293  2.1256 -0.1457
  743MOL0     H  302   9.923   9.902   2.752 -3.1085  0.7411  1.9470
  743MOL0     H  303  10.298  10.045   2.602 -0.4142  2.0260 -2.5604
  743MOL0     H  304   9.414  10.100   2.754 -1.5816 -0.8293  1.6756
  743MOL0     H  305   9.207  10.162   2.632  3.5085 -3.4366  1.0017
  744MOL0     O  306   8.299   6.558  10.513 -0.1862 -0.1457  0.5717
  744MOL0     C  307   8.290   6.482  10.421  0.0147  0.7001  0.7666
  744MOL0     O  308   8.378   6.475  10.316 -0.1911 -0.1629  0.5649
  744MOL0     C  309   8.499   6.548  10.312  0.6058 -0.1333  0.7321
  744MOL0     C  310   8.594   6.550  10.412 -0.1417  0.0665 -1.1295
  744MOL0     C  311   8.710   6.633  10.407 -0.4551  0.5488  0.2685
  744MOL0     C  312   8.723   6.724  10.301  0.3223  0.6871 -0.0597
  744MOL0     O  313   8.826   6.819  10.300  0.1680 -0.2682  0.5637
  744MOL0     C  314   8.954   6.797  10.365 -0.8599 -0.5721 -0.3260
  744MOL0     C  315   9.053   6.910  10.329  0.1267 -1.3172 -0.4160
  744MOL0     C  316   9.040   6.956  10.184  0.5511  0.3854 -0.6329
  744MOL0     C  317   9.134   7.080  10.161  0.6692 -1.2330  0.0523
  744MOL0     C  318   9.143   7.094  10.008  0.5101 -0.7025  0.1553
  744MOL0     C  319   9.271   7.164   9.959 -0.4284 -0.6194 -0.7189
  744MOL0     C  320   9.399   7.086   9.985 -0.1546 -0.9864  0.0996
  744MOL0     C  321   9.517   7.159   9.912  0.7335 -0.7608  0.7018
  744MOL0     N  322   9.641   7.087   9.944 -0.3238 -0.2795 -0.7467
  744MOL0     C  323   9.708   7.068  10.069 -0.5532  0.7856  0.6981
  744MOL0     C  324   9.808   6.976  10.039  0.5376 -0.1023 -0.4676
  744MOL0     C  325   9.918   6.936  10.134  0.6764  0.7687  0.1589
  744MOL0     C  326  10.051   6.994  10.083  0.0348 -0.7824  0.5002
  744MOL0     C  327  10.172   6.971  10.167  0.1553  0.6103  0.3696
  744MOL0     C  328  10.265   7.089  10.188  0.4236  0.6690  0.3299
  744MOL0     O  329  10.398   7.055  10.233  0.3418 -0.0335  0.5068
  744MOL0     C  330  10.491   7.160  10.243  0.0595  0.6768 -0.0620
  744MOL0     C  331  10.598   7.159  10.155 -0.0479  0.9917 -0.5198
  744MOL0     C  332  10.700   7.249  10.165  0.0504 -0.7648  0.2538
  744MOL0     C  333  10.822   7.232  10.086 -0.4472  0.6568  0.1301
  744MOL0     C  334  10.684   7.358  10.258 -0.6397  0.1207  0.2529
  744MOL0     C  335  10.785   7.462  10.292 -0.1549 -0.4327 -0.0458
  744MOL0     O  336  10.891   7.473  10.206  0.1682  0.8458  0.0705
  744MOL0     C  337  10.996   7.553  10.220 -0.3303 -1.3413 -0.4945
  744MOL0     C  338  10.980   7.693  10.231  0.1531 -0.5833  0.4830
  744MOL0     C  339  11.097   7.777  10.245  0.5573  0.3887  0.4089
  744MOL0     C  340  11.219   7.712  10.251  0.3072 -0.7414  0.2030
  744MOL0     O  341  11.327   7.787  10.265 -0.6140 -0.0063  0.3706
  744MOL0     C  342  11.353   7.852  10.385  0.0806  0.6698  0.2349
  744MOL0     C  343  11.343   7.739  10.497  1.1349  0.6997 -1.0077
  744MOL0     C  344  11.399   7.777  10.640  0.0549  0.1948  0.1654
  744MOL0     C  345  11.400   7.661  10.736 -0.9474  0.0528 -0.2516
  744MOL0     C  346  11.457   7.697  10.876 -0.0880 -0.0890  0.1040
  744MOL0     C  347  11.606   7.723  10.882 -0.1563  0.0796 -0.0123
  744MOL0     C  348  11.704   7.605  10.865  0.0661 -0.8616 -0.1937
  744MOL0     C  349  11.853   7.662  10.859  0.3521 -0.3502  0.0852
  744MOL0    Cl  350  11.885   7.757  10.706  0.3479  0.3109 -0.2167
  744MOL0     C  351  11.240   7.570  10.237 -0.1424  1.0113 -0.0242
  744MOL0     C  352  11.120   7.498  10.209 -0.2924  0.7405 -0.3093
  744MOL0     O  353  10.776   7.530  10.398 -0.5728 -0.1319 -0.1110
  744MOL0     C  354  10.567   7.362  10.343 -0.0334 -0.4653  0.4160
  744MOL0     C  355  10.474   7.259  10.333 -0.2040  0.1164 -0.4848
  744MOL0     N  356   9.783   6.926   9.911 -0.1005  0.4393  0.0992
  744MOL0     N  357   9.696   7.002   9.852 -0.1528  0.3653 -0.4653
  744MOL0     C  358   8.637   6.717  10.197 -0.3505 -0.2987  0.7006
  744MOL0     C  359   8.527   6.627  10.199  0.4197  0.1366 -0.8585
  744MOL0     C  360   8.186   6.373  10.426 -0.1355 -0.1617  0.2863
  744MOL0     C  361   8.177   6.269  10.340 -0.1737 -0.0557  0.6677
  744MOL0     C  362   8.084   6.166  10.353  0.5514 -0.4160  1.3347
  744MOL0     C  363   7.986   6.185  10.449 -0.2502  0.5716 -0.3167
  744MOL0     O  364   7.875   6.093  10.470 -0.7102 -0.7962 -0.0727
  744MOL0     C  365   7.918   5.958  10.462  0.4346 -0.0002  0.0477
  744MOL0     C  366   7.824   5.873  10.551 -0.1364  0.5423  0.5984
  744MOL0     C  367   7.792   5.917  10.688 -0.1585  1.1209 -0.1492
  744MOL0     C  368   7.702   5.817  10.763  0.6290 -0.1927 -0.0341
  744MOL0     C  369   7.670   5.853  10.900  0.0412 -0.6367 -0.9259
  744MOL0     C  370   7.642   5.893  11.010  0.5175  0.2681 -0.6709
  744MOL0     C  371   7.998   6.283  10.540 -0.2966  1.1455  0.9024
  744MOL0     C  372   8.097   6.378  10.528  1.4319  0.1735 -0.4645
  744MOL0     H  373   8.595   6.475  10.490  1.0200 -1.5435 -2.6120
  744MOL0     H  374   8.781   6.650  10.487 -2.6529  0.5585  2.3123
  744MOL0     H  375   8.942   6.792  10.473 -0.3332 -1.0300 -0.2877
  744MOL0     H  376   8.996   6.711  10.313 -2.6349 -1.2020 -0.8019
  744MOL0     H  377   9.043   6.993  10.399 -0.9588 -0.4535 -1.5481
  744MOL0     H  378   9.154   6.869  10.340  0.2478 -2.1844 -3.6829
  744MOL0     H  379   9.075   6.878  10.117 -0.4042 -1.0578  0.4884
  744MOL0     H  380   8.936   6.979  10.156  0.3664 -1.7924 -1.9705
  744MOL0     H  381   9.087   7.171  10.198 -0.0713 -1.7244  0.3288
  744MOL0     H  382   9.222   7.066  10.224 -0.4288 -2.1404  1.4376
  744MOL0     H  383   9.150   6.999   9.955 -1.7157 -0.7466 -0.1540
  744MOL0     H  384   9.060   7.161   9.981  1.4771  1.2823  1.7874
  744MOL0     H  385   9.252   7.178   9.852 -0.9592  1.6050 -0.3810
  744MOL0     H  386   9.278   7.263  10.006 -0.5200  0.7165 -3.3376
  744MOL0     H  387   9.413   7.095  10.093  1.7275  1.1847 -0.2616
  744MOL0     H  388   9.399   6.978   9.971  2.4014 -1.0512  0.2298
  744MOL0     H  389   9.526   7.266   9.932  1.6105 -1.6292  7.0103
  744MOL0     H  390   9.509   7.156   9.803  2.0858  2.7090  0.3760
  744MOL0     H  391   9.699   7.122  10.163  1.7405  2.4026  0.0818
  744MOL0     H  392   9.901   6.966  10.238 -0.2381 -1.9659  0.8925
  744MOL0     H  393   9.929   6.827  10.131 -1.1594  0.5572 -2.7347
  744MOL0     H  394  10.042   7.103  10.082  2.3591 -0.5407  0.9401
  744MOL0     H  395  10.077   6.948   9.988 -2.1235 -1.3386  0.1115
  744MOL0     H  396  10.228   6.884  10.131 -0.3043  0.1639  0.7230
  744MOL0     H  397  10.138   6.942  10.266 -0.1212  1.5557  0.5565
  744MOL0     H  398  10.209   7.156  10.255  0.8862 -0.6861  2.1345
  744MOL0     H  399  10.296   7.128  10.090  3.6725 -0.1541  0.9237
  744MOL0     H  400  10.625   7.073  10.095  1.6858  1.8285 -1.0074
  744MOL0     H  401  10.889   7.178  10.154 -0.6383  0.4920  0.1904
  744MOL0     H  402  10.792   7.166  10.004 -1.8230  1.9614 -0.4667
  744MOL0     H  403  10.864   7.321  10.039  4.5766 -1.1886  0.4436
  744MOL0     H  404  10.888   7.751  10.229  0.4878 -0.0166  0.9467
  744MOL0     H  405  11.093   7.885  10.255 -1.7269  0.2993  1.0748
  744MOL0     H  406  11.455   7.892  10.390 -0.5878  2.2979  2.8598
  744MOL0     H  407  11.288   7.939  10.404 -2.1569 -1.2337  1.8710
  744MOL0     H  408  11.240   7.711  10.519  2.2570 -1.4775  2.1295
  744MOL0     H  409  11.408   7.661  10.457 -1.1518 -1.2963 -1.0239
  744MOL0     H  410  11.324   7.847  10.680 -1.7366  0.5979 -3.5029
  744MOL0     H  411  11.490   7.836  10.632 -0.3533  1.1495  2.0370
  744MOL0     H  412  11.296   7.630  10.753 -1.2245  2.1663  2.7526
  744MOL0     H  413  11.456   7.578  10.691 -3.8179 -4.0112  2.9190
  744MOL0     H  414  11.434   7.621  10.952 -1.4959  1.2002  1.0285
  744MOL0     H  415  11.406   7.781  10.924 -1.0457 -1.1827  1.0905
  744MOL0     H  416  11.631   7.809  10.820  2.0268 -1.5791 -1.6095
  744MOL0     H  417  11.625   7.754  10.985 -2.1669  4.6278 -0.7845
  744MOL0     H  418  11.682   7.537  10.783  0.7841  1.7781 -2.7196
  744MOL0     H  419  11.692   7.537  10.950  3.1216 -2.3391 -0.7998
  744MOL0     H  420  11.934   7.589  10.863 -0.7920 -1.8535 -2.0364
  744MOL0     H  421  11.871   7.715  10.953  1.0485 -2.7351  1.3765
  744MOL0     H  422  11.339   7.528  10.220  0.2237  1.6690  0.4593
  744MOL0     H  423  11.113   7.393  10.181 -3.6707  0.3400  1.5822
  744MOL0     H  424  10.547   7.437  10.419 -0.4570  1.2522 -1.3147
  744MOL0     H  425  10.391   7.263  10.403  2.2441 -0.3422  2.6742
  744MOL0     H  426   8.651   6.764  10.100  2.6738 -0.9607  0.6994
  744MOL0     H  427   8.456   6.607  10.120 -1.3568  2.4103  0.0537
  744MOL0     H  428   8.253   6.275  10.263  2.1845  0.9544  2.9238
  744MOL0     H  429   8.076   6.090  10.276  2.0002  1.8488 -1.2383
  744MOL0     H  430   7.912   5.939  10.354 -1.7035 -3.7809  0.6339
  744MOL0     H  431   8.019   5.939  10.501  0.0036  0.1516  1.2984
  744MOL0     H  432   7.859   5.770  10.560 -0.0789  0.5065 -0.0189
  744MOL0     H  433   7.736   5.865  10.487  2.1174  0.5393 -2.7277
  744MOL0     H  434   7.736   6.011  10.681  2.3571  2.6298 -1.5426
  744MOL0     H  435   7.879   5.936  10.751 -0.4276  0.0865  0.5550
  744MOL0     H  436   7.744   5.717  10.749  0.7395 -0.0094 -1.0942
  744MOL0     H  437   7.606   5.810  10.712 -1.2757  2.2268  2.8790
  744MOL0     H  438   7.628   5.925  11.111  0.9006  0.5253 -0.6976
  744MOL0     H  439   7.934   6.289  10.627  0.8486 -0.2141  1.8798
  744MOL0     H  440   8.087   6.458  10.600  0.6659 -0.8074  0.5566
  745MOL0     O  441   9.826   5.193   5.557 -0.3168  0.2399  0.3545
  745MOL0     C  442   9.901   5.134   5.632 -0.1325  0.4700  0.1138
  745MOL0     O  443   9.876   5.014   5.688 -0.4744 -0.5568 -0.6734
  745MOL0     C  444   9.773   4.934   5.655  0.2795 -0.7973  0.9528
  745MOL0     C  445   9.750   4.895   5.525 -0.2138 -0.0777  0.2788
  745MOL0     C  446   9.638   4.809   5.503  0.5088  0.4742  0.7458
  745MOL0     C  447   9.549   4.779   5.605 -0.0364  0.2621 -0.4405
  745MOL0     O  448   9.444   4.697   5.582  0.5002 -0.1559  0.1601
  745MOL0     C  449   9.476   4.567   5.540  0.0951 -0.5080 -0.4306
  745MOL0     C  450   9.346   4.482   5.538 -0.5248  0.6773 -0.7557
  745MOL0     C  451   9.400   4.342   5.503  0.2133  0.0297 -0.6817
  745MOL0     C  452   9.294   4.243   5.492 -0.2107 -0.5604  0.3329
  745MOL0     C  453   9.192   4.246   5.372 -0.1540 -0.3852  0.2444
  745MOL0     C  454   9.239   4.300   5.238  0.8275  0.5040  0.3378
  745MOL0     C  455   9.130   4.340   5.138  1.1041 -0.0183 -0.0177
  745MOL0     C  456   9.182   4.398   4.999  0.1479  0.4391  0.2484
  745MOL0     N  457   9.079   4.397   4.898  0.1914  0.3743  0.7503
  745MOL0     C  458   9.045   4.501   4.809  0.1501 -0.1782 -0.5196
  745MOL0     C  459   8.937   4.451   4.738  0.2271  0.2809 -1.2833
  745MOL0     C  460   8.861   4.525   4.622  0.1669 -1.3463 -1.3530
  745MOL0     C  461   8.726   4.575   4.673 -0.0413 -0.1110 -0.0544
  745MOL0     C  462   8.623   4.464   4.683  1.1202  0.0815  0.2371
  745MOL0     C  463   8.478   4.489   4.724 -0.0090  0.4506  0.0016
  745MOL0     O  464   8.413   4.368   4.746  0.1582  0.4280 -0.7101
  745MOL0     C  465   8.275   4.356   4.755 -0.1012 -0.2857  0.7841
  745MOL0     C  466   8.188   4.467   4.761  0.5535  0.6916 -0.7666
  745MOL0     C  467   8.052   4.448   4.774 -0.2498  0.1700  0.3008
  745MOL0     C  468   7.975   4.572   4.778 -0.3904  0.6518  0.1640
  745MOL0     C  469   7.997   4.318   4.772  0.1187  0.7522  0.7426
  745MOL0     C  470   7.848   4.286   4.768  0.0566  0.2938  0.5196
  745MOL0     O  471   7.821   4.151   4.788  0.6275 -0.0613  0.0553
  745MOL0     C  472   7.692   4.096   4.784  0.3991  0.8924  0.0511
  745MOL0     C  473   7.573   4.155   4.816  0.1615  0.4631 -0.7971
  745MOL0     C  474   7.453   4.080   4.813  1.0858  0.3861  0.5141
  745MOL0     C  475   7.449   3.958   4.759  0.3854 -0.2191  0.4224
  745MOL0     O  476   7.334   3.883   4.741 -0.2233 -0.6262  0.2773
  745MOL0     C  477   7.221   3.917   4.820 -0.1856 -0.1176 -0.7801
  745MOL0     C  478   7.151   3.784   4.829 -0.1764 -0.8024  0.0559
  745MOL0     C  479   7.028   3.811   4.920  1.3200  0.8093  0.1432
  745MOL0     C  480   6.959   3.671   4.947 -0.2229 -0.8850  0.6280
  745MOL0     C  481   6.843   3.680   5.041 -0.2145 -0.3032 -0.1756
  745MOL0     C  482   6.786   3.537   5.085 -0.0123 -0.5248  0.1574
  745MOL0     C  483   6.723   3.560   5.223  0.2124  0.4991  0.9977
  745MOL0     C  484   6.628   3.436   5.263  0.1098  0.4830 -0.4181
  745MOL0    Cl  485   6.555   3.474   5.420  0.1582 -0.2252  0.1436
  745MOL0     C  486   7.569   3.900   4.729 -0.1649 -0.3059  0.4494
  745MOL0     C  487   7.695   3.953   4.749  0.7214 -0.9160 -0.4748
  745MOL0     O  488   7.759   4.369   4.737  0.4233 -0.0747 -0.7586
  745MOL0     C  489   8.084   4.213   4.769 -0.5544 -1.2140  0.1410
  745MOL0     C  490   8.223   4.230   4.755 -0.0903 -0.2806 -0.0558
  745MOL0     N  491   8.911   4.321   4.779 -0.4409 -0.1672  0.3428
  745MOL0     N  492   8.989   4.295   4.876 -0.9701 -0.5861 -1.5508
  745MOL0     C  493   9.582   4.818   5.736  0.4679 -0.1539  0.0579
  745MOL0     C  494   9.687   4.901   5.755  0.8368  0.0572  1.0740
  745MOL0     C  495  10.036   5.192   5.673 -0.2469 -0.0737 -0.0959
  745MOL0     C  496  10.118   5.141   5.775 -0.6758 -0.6607  0.0295
  745MOL0     C  497  10.242   5.196   5.798 -0.2798  0.8202 -0.8269
  745MOL0     C  498  10.295   5.307   5.738  1.1034 -0.9517  0.0310
  745MOL0     O  499  10.418   5.369   5.747 -0.1176  0.0104 -0.0069
  745MOL0     C  500  10.502   5.320   5.849 -1.2782 -0.1497 -1.0197
  745MOL0     C  501  10.624   5.414   5.849  0.0280 -0.9058 -0.2536
  745MOL0     C  502  10.747   5.354   5.774  0.5590 -0.6353 -0.6272
  745MOL0     C  503  10.869   5.441   5.793  0.4338  1.4326  0.3198
  745MOL0     C  504  10.984   5.396   5.713  0.4869  0.6020  0.0110
  745MOL0     C  505  11.059   5.367   5.628 -0.1596  0.2513  0.6338
  745MOL0     C  506  10.210   5.367   5.642 -0.8132 -0.3511 -0.1749
  745MOL0     C  507  10.085   5.302   5.603 -0.3343 -0.9063 -0.8474
  745MOL0     H  508   9.815   4.925   5.443 -0.0244 -0.0483  0.4392
  745MOL0     H  509   9.609   4.758   5.412 -2.0957 -1.4490  2.5089
  745MOL0     H  510   9.529   4.566   5.444  2.5315 -1.7234  0.8323
  745MOL0     H  511   9.544   4.517   5.610 -1.7777 -2.3461  0.1942
  745MOL0     H  512   9.293   4.467   5.633 -0.8103 -3.1165 -1.3417
  745MOL0     H  513   9.275   4.518   5.463  0.1291  1.6560 -0.9128
  745MOL0     H  514   9.468   4.339   5.417  2.3156 -2.7509  0.9104
  745MOL0     H  515   9.459   4.316   5.592  1.3763 -0.3969 -1.5534
  745MOL0     H  516   9.337   4.142   5.497  1.8672  0.2997  4.4397
  745MOL0     H  517   9.235   4.253   5.583 -0.8672  3.6019 -0.3648
  745MOL0     H  518   9.132   4.155   5.371 -3.4044  1.5200  1.8836
  745MOL0     H  519   9.122   4.325   5.402  0.5723  0.3157  0.1240
  745MOL0     H  520   9.297   4.389   5.265 -0.2319  1.3035  0.0464
  745MOL0     H  521   9.297   4.218   5.193 -0.6762  0.3092 -1.3688
  745MOL0     H  522   9.076   4.250   5.106 -0.2589  1.3157 -1.6740
  745MOL0     H  523   9.062   4.405   5.192  0.1345 -1.8327  1.0645
  745MOL0     H  524   9.277   4.350   4.977 -0.1087  0.0826 -0.0960
  745MOL0     H  525   9.210   4.503   5.014 -1.3298  0.7667  0.9328
  745MOL0     H  526   9.091   4.599   4.800  0.3487 -0.1742  0.4315
  745MOL0     H  527   8.918   4.615   4.598  3.2988 -2.7976 -0.0469
  745MOL0     H  528   8.851   4.463   4.532 -1.0693  2.4224 -4.0533
  745MOL0     H  529   8.677   4.647   4.607 -0.3190  2.3660  2.6467
  745MOL0     H  530   8.734   4.620   4.772 -2.2788 -0.8695  0.5312
  745MOL0     H  531   8.655   4.385   4.751  3.1128  1.3974  0.9269
  745MOL0     H  532   8.619   4.421   4.583  4.5147 -1.2632  0.5416
  745MOL0     H  533   8.427   4.549   4.648 -3.0945 -1.9983 -0.0795
  745MOL0     H  534   8.477   4.533   4.824  0.7124 -2.8529  1.5945
  745MOL0     H  535   8.225   4.568   4.775 -1.5282  1.3512  0.4226
  745MOL0     H  536   7.893   4.561   4.850 -0.0583  0.9628  0.5893
  745MOL0     H  537   8.034   4.661   4.800  1.4641 -0.1077 -1.4213
  745MOL0     H  538   7.931   4.599   4.681 -0.6871  0.2661  0.1871
  745MOL0     H  539   7.572   4.257   4.853  1.0860  0.0059  0.5867
  745MOL0     H  540   7.363   4.134   4.841  1.2605  2.0752 -1.9012
  745MOL0     H  541   7.256   3.951   4.918 -1.7490  1.6953 -0.7895
  745MOL0     H  542   7.151   3.991   4.779 -1.0270 -0.1735  0.4758
  745MOL0     H  543   7.114   3.756   4.730 -0.9635 -1.4268  0.5115
  745MOL0     H  544   7.213   3.712   4.882 -1.0422 -1.2901  0.4380
  745MOL0     H  545   6.947   3.863   4.868 -1.8751 -2.5262  1.3552
  745MOL0     H  546   7.053   3.849   5.020 -1.9365 -1.8306  2.1982
  745MOL0     H  547   6.930   3.631   4.849  1.6603 -0.3298 -0.1936
  745MOL0     H  548   7.032   3.598   4.983  1.6693  1.2203  1.2994
  745MOL0     H  549   6.763   3.734   4.989 -1.7692 -2.3841 -0.0468
  745MOL0     H  550   6.879   3.734   5.129  0.2675 -1.6825  0.5005
  745MOL0     H  551   6.708   3.513   5.011  1.4184 -0.0831 -1.5660
  745MOL0     H  552   6.857   3.455   5.073  1.5593  0.8466 -0.3720
  745MOL0     H  553   6.660   3.649   5.219 -0.8974 -0.2608  1.0296
  745MOL0     H  554   6.806   3.575   5.293  0.0989 -1.2665  1.5532
  745MOL0     H  555   6.688   3.344   5.261 -1.4133 -0.6506 -4.6860
  745MOL0     H  556   6.552   3.434   5.184 -0.1430  0.3633 -0.1739
  745MOL0     H  557   7.562   3.799   4.691 -1.0163 -0.1712  0.2392
  745MOL0     H  558   7.783   3.895   4.725  1.3939 -1.2684  2.5072
  745MOL0     H  559   8.049   4.110   4.764 -4.5077 -0.0311  0.2183
  745MOL0     H  560   8.293   4.152   4.729  0.0751  0.2484 -1.2719
  745MOL0     H  561   9.511   4.786   5.812  2.5505  0.1803  2.2482
  745MOL0     H  562   9.712   4.955   5.845 -0.8318  0.8752  1.0912
  745MOL0     H  563  10.087   5.059   5.839 -1.6794  2.0022  3.2190
  745MOL0     H  564  10.293   5.149   5.882 -3.7024 -0.6995  0.5854
  745MOL0     H  565  10.457   5.327   5.948  1.4343  0.9173  0.2416
  745MOL0     H  566  10.547   5.224   5.823  0.3631  0.4895 -0.7206
  745MOL0     H  567  10.642   5.437   5.954 -3.1231  0.7798  0.0247
  745MOL0     H  568  10.591   5.506   5.800  0.2691 -0.9553 -0.5110
  745MOL0     H  569  10.716   5.352   5.669 -0.2923 -0.9768 -0.3797
  745MOL0     H  570  10.762   5.251   5.808 -0.1501  0.0670  2.0505
  745MOL0     H  571  10.904   5.434   5.896  0.4851  1.0422  0.2756
  745MOL0     H  572  10.847   5.546   5.768  0.0584  1.2454 -0.1681
  745MOL0     H  573  11.121   5.352   5.542 -0.0302 -0.1693  0.7982
  745MOL0     H  574  10.239   5.454   5.584 -0.8824 -1.2425 -1.6048
  745MOL0     H  575  10.013   5.356   5.542 -1.3289  0.0635  1.0811
  746MOL0     O  576   2.365   6.168  11.166 -0.9737  0.1419 -0.7635
  746MOL0     C  577   2.490   6.170  11.168  0.3701 -0.3470  0.5406
  746MOL0     O  578   2.560   6.191  11.287 -0.2604 -0.0276 -0.3001
  746MOL0     C  579   2.499   6.229  11.394 -0.0461 -0.5823  0.6398
  746MOL0     C  580   2.536   6.176  11.520  0.3311 -0.0633 -0.5562
  746MOL0     C  581   2.490   6.228  11.644  0.3890  0.8144  0.8594
  746MOL0     C  582   2.405   6.342  11.637 -0.4406  0.7820  1.2347
  746MOL0     O  583   2.345   6.405  11.739  0.4245  0.2301 -0.0984
  746MOL0     C  584   2.347   6.341  11.866 -0.0424  0.5379 -0.0194
  746MOL0     C  585   2.280   6.406  11.982  0.6694 -0.7609  0.2036
  746MOL0     C  586   2.310   6.347  12.119  0.1246  0.9478  0.4738
  746MOL0     C  587   2.203   6.374  12.218 -0.5676 -0.6015 -0.4608
  746MOL0     C  588   2.232   6.321  12.359  0.7127 -0.3001  0.8711
  746MOL0     C  589   2.275   6.173  12.360  0.8128  0.0182  0.9765
  746MOL0     C  590   2.289   6.119  12.498 -0.3525 -1.1827 -0.1049
  746MOL0     C  591   2.415   6.162  12.565  0.3091  0.6782  0.5464
  746MOL0     N  592   2.410   6.160  12.717 -0.2831 -0.1565  0.2804
  746MOL0     C  593   2.371   6.058  12.804 -0.0608  0.2203 -0.3406
  746MOL0     C  594   2.404   6.114  12.928  0.0781 -0.4083 -0.2869
  746MOL0     C  595   2.371   6.036  13.058 -0.4290 -0.0475 -0.8381
  746MOL0     C  596   2.505   5.992  13.127  1.2796 -0.4059 -0.1258
  746MOL0     C  597   2.574   5.890  13.037  0.2383  0.6774 -0.2901
  746MOL0     C  598   2.719   5.877  13.072 -0.1479 -0.4285  0.0585
  746MOL0     O  599   2.767   5.781  12.978  0.4035  0.1119 -0.2474
  746MOL0     C  600   2.895   5.741  13.000 -0.8234 -0.2262 -0.4912
  746MOL0     C  601   3.002   5.818  12.958 -0.3774  0.5930 -0.3378
  746MOL0     C  602   3.136   5.783  12.968 -0.3030 -0.1877  0.2643
  746MOL0     C  603   3.240   5.883  12.917 -0.8016  1.3118 -0.4116
  746MOL0     C  604   3.175   5.664  13.025 -0.2011 -0.3464  0.6230
  746MOL0     C  605   3.320   5.617  13.026  0.7687 -0.4612 -0.2188
  746MOL0     O  606   3.423   5.698  13.057 -0.0600 -0.2280  0.0665
  746MOL0     C  607   3.547   5.645  13.088 -0.5004  0.3214 -0.2287
  746MOL0     C  608   3.604   5.517  13.055 -0.2202  0.2213 -0.1645
  746MOL0     C  609   3.735   5.494  13.093  0.0580  0.5440  1.0403
  746MOL0     C  610   3.813   5.595  13.153  0.4586  0.2011  0.1770
  746MOL0     O  611   3.945   5.568  13.174  0.5856  0.1122  0.8493
  746MOL0     C  612   4.013   5.517  13.059  0.1196 -0.9412 -0.1309
  746MOL0     C  613   4.001   5.608  12.919 -0.4668 -0.6446  0.0275
  746MOL0     C  614   4.082   5.575  12.801 -0.6408  0.5277  0.2412
  746MOL0     C  615   4.229   5.570  12.822 -0.4265 -0.0677  0.1001
  746MOL0     C  616   4.299   5.573  12.681  0.2070 -0.1080  0.0803
  746MOL0     C  617   4.446   5.586  12.693  0.2561 -0.0338  0.4891
  746MOL0     C  618   4.504   5.613  12.550 -0.3634 -0.4421  0.1831
  746MOL0     C  619   4.662   5.637  12.549 -0.3230 -0.2771  0.1407
  746MOL0    Cl  620   4.717   5.773  12.658  0.0641 -0.5690 -0.0184
  746MOL0     C  621   3.761   5.716  13.186  0.8282  0.3438 -0.4758
  746MOL0     C  622   3.629   5.740  13.165 -0.5464  0.6877 -0.0088
  746MOL0     O  623   3.330   5.497  13.029  0.5735  0.2359  0.0631
  746MOL0     C  624   3.067   5.587  13.086 -0.3340  0.5068 -0.5092
  746MOL0     C  625   2.929   5.627  13.079 -0.6232 -0.9011  0.6176
  746MOL0     N  626   2.447   6.241  12.918 -0.8338  0.6237  0.1437
  746MOL0     N  627   2.446   6.266  12.791  0.2920 -0.3115  0.4267
  746MOL0     C  628   2.367   6.393  11.513 -0.0405  0.2288 -0.8998
  746MOL0     C  629   2.410   6.341  11.394 -0.6281  0.0363 -0.2643
  746MOL0     C  630   2.560   6.125  11.049 -0.4777 -0.6421  0.7659
  746MOL0     C  631   2.702   6.104  11.048  0.0094  0.5560 -0.3290
  746MOL0     C  632   2.781   6.090  10.937  0.0515 -0.5374 -0.1149
  746MOL0     C  633   2.722   6.088  10.807  0.2633 -0.3396 -0.0516
  746MOL0     O  634   2.801   6.046  10.703 -0.4286 -0.3108 -0.2361
  746MOL0     C  635   2.914   6.136  10.671  0.4163  0.9824 -0.3399
  746MOL0     C  636   3.016   6.044  10.598 -0.6269  0.2159  0.0401
  746MOL0     C  637   3.065   5.930  10.682  0.5657 -0.2390 -0.8171
  746MOL0     C  638   3.165   5.968  10.782 -0.6208 -0.7068 -0.1251
  746MOL0     C  639   3.289   6.027  10.722  0.3363 -0.5370  0.4075
  746MOL0     C  640   3.395   6.071  10.675  0.8746 -1.1531  0.2299
  746MOL0     C  641   2.583   6.115  10.799  0.0726  0.0695  0.2231
  746MOL0     C  642   2.498   6.131  10.922 -0.0264 -0.9247  0.7202
  746MOL0     H  643   2.602   6.091  11.526 -1.6116 -1.5622  0.7621
  746MOL0     H  644   2.509   6.187  11.742 -2.8141  0.6337  1.5243
  746MOL0     H  645   2.301   6.241  11.860 -3.8049  1.9546  1.9077
  746MOL0     H  646   2.452   6.332  11.896 -0.3388 -0.1229  0.8739
  746MOL0     H  647   2.306   6.512  11.977 -4.3475  0.9881  3.7016
  746MOL0     H  648   2.172   6.409  11.966  0.7112 -0.5007 -0.0485
  746MOL0     H  649   2.327   6.240  12.105 -0.5917  0.7776  0.8542
  746MOL0     H  650   2.405   6.391  12.151  1.1513  0.0219 -1.1486
  746MOL0     H  651   2.178   6.480  12.220 -0.8963 -0.6864  1.5491
  746MOL0     H  652   2.115   6.322  12.178 -0.4022  0.4495 -2.3181
  746MOL0     H  653   2.313   6.385  12.395 -0.3916  1.7890 -0.1418
  746MOL0     H  654   2.136   6.338  12.409  1.1029 -0.5762  1.7304
  746MOL0     H  655   2.196   6.116  12.311  1.5555 -0.3270  0.1580
  746MOL0     H  656   2.366   6.161  12.301 -0.8998  1.4925 -2.2244
  746MOL0     H  657   2.197   6.150  12.549 -0.9110  2.2215 -2.8065
  746MOL0     H  658   2.288   6.010  12.490  1.2941 -1.3070  0.9267
  746MOL0     H  659   2.434   6.263  12.528 -0.7407  0.3088 -1.0612
  746MOL0     H  660   2.504   6.106  12.533  1.5943  1.3703  2.7026
  746MOL0     H  661   2.328   5.961  12.780  0.7470  0.2363 -1.9427
  746MOL0     H  662   2.305   6.092  13.125  1.7944 -0.2884  1.7192
  746MOL0     H  663   2.326   5.937  13.044 -0.4579 -0.0018 -1.0737
  746MOL0     H  664   2.482   5.950  13.225  1.4500 -1.1851 -0.4145
  746MOL0     H  665   2.559   6.086  13.145  0.1195  0.1864  0.3880
  746MOL0     H  666   2.571   5.918  12.931  0.5235 -1.3321 -0.8735
  746MOL0     H  667   2.518   5.796  13.043  0.2626  0.7465  2.1993
  746MOL0     H  668   2.722   5.831  13.171 -0.6376  0.6602  0.5813
  746MOL0     H  669   2.775   5.971  13.072 -0.7790 -0.0490 -0.2419
  746MOL0     H  670   2.971   5.902  12.897 -2.1950 -0.7745 -1.4063
  746MOL0     H  671   3.292   5.929  13.002 -0.5870 -0.3275  0.3896
  746MOL0     H  672   3.302   5.819  12.854 -0.0563 -0.5794  2.0651
  746MOL0     H  673   3.188   5.960  12.859 -0.0684  0.0091 -2.9290
  746MOL0     H  674   3.561   5.432  13.002  1.3865 -1.0233  0.4495
  746MOL0     H  675   3.772   5.396  13.063  0.5092  1.1801 -0.5884
  746MOL0     H  676   4.119   5.515  13.089 -0.1319  1.6064  1.2778
  746MOL0     H  677   3.985   5.416  13.030 -0.2062 -0.5367 -1.2918
  746MOL0     H  678   3.900   5.606  12.877  1.4115 -1.2448 -5.2179
  746MOL0     H  679   4.024   5.709  12.955  0.1767 -0.9546  0.4859
  746MOL0     H  680   4.057   5.637  12.714  0.9426 -0.2982 -0.8444
  746MOL0     H  681   4.053   5.471  12.782 -1.9728  0.6660  1.3579
  746MOL0     H  682   4.260   5.660  12.876 -1.8324 -0.9076  2.4325
  746MOL0     H  683   4.267   5.479  12.867  3.9754  0.3511 -2.2086
  746MOL0     H  684   4.258   5.654  12.620  1.3073 -0.5667 -1.3148
  746MOL0     H  685   4.268   5.482  12.629 -0.0282 -2.6676  4.2341
  746MOL0     H  686   4.468   5.673  12.756 -1.1959  2.1993 -1.8733
  746MOL0     H  687   4.489   5.496  12.737  0.7590  0.0266  0.1254
  746MOL0     H  688   4.457   5.704  12.514 -2.4595 -2.3087 -2.1831
  746MOL0     H  689   4.482   5.537  12.474  0.9776  1.2277 -1.9866
  746MOL0     H  690   4.684   5.664  12.445 -2.4045 -0.9134 -0.5144
  746MOL0     H  691   4.711   5.543  12.573 -1.0407 -0.9976 -1.1049
  746MOL0     H  692   3.818   5.786  13.247 -0.8801  0.6155  0.8884
  746MOL0     H  693   3.602   5.840  13.198  1.8783  1.6966 -0.8563
  746MOL0     H  694   3.096   5.493  13.132 -0.7783 -0.0722 -1.3991
  746MOL0     H  695   2.851   5.561  13.115  1.1521 -1.7146  3.3715
  746MOL0     H  696   2.309   6.485  11.514  2.7009  2.1899 -3.7238
  746MOL0     H  697   2.393   6.380  11.294 -2.1660 -3.5159 -1.5658
  746MOL0     H  698   2.764   6.107  11.137  2.3835  1.1183 -1.9348
  746MOL0     H  699   2.887   6.068  10.938  0.7632  2.1190 -2.7132
  746MOL0     H  700   2.875   6.207  10.597  1.4862  0.5449 -1.3754
  746MOL0     H  701   2.949   6.185  10.762  2.3765  3.0610 -2.0681
  746MOL0     H  702   3.100   6.099  10.555  0.1140 -1.3482 -0.6110
  746MOL0     H  703   2.972   5.997  10.510  1.1691  1.0373 -1.3558
  746MOL0     H  704   3.118   5.861  10.615  2.5100  1.7089 -1.4045
  746MOL0     H  705   2.988   5.874  10.736  0.4592  2.7125  2.4373
  746MOL0     H  706   3.200   5.888  10.847  3.3639  1.5242  0.8238
  746MOL0     H  707   3.120   6.046  10.845  1.2443  1.5727 -1.4370
  746MOL0     H  708   3.480   6.110  10.623  1.0099 -0.7526  0.7453
  746MOL0     H  709   2.537   6.105  10.701 -0.0639  0.3610  0.2583
  746MOL0     H  710   2.392   6.153  10.913  0.6215  1.7776 -2.8040
  747MOL0     O  711  10.339   1.713   6.847 -0.6028 -0.2978  0.8672
  747MOL0     C  712  10.373   1.604   6.897 -0.6425  0.0706  0.0034
  747MOL0     O  713  10.298   1.520   6.976 -0.3485  0.2565 -0.9142
  747MOL0     C  714  10.162   1.541   6.980  0.1192 -0.1090  0.5356
  747MOL0     C  715  10.076   1.485   6.881  0.3877  0.1288  0.2580
  747MOL0     C  716   9.932   1.492   6.897 -0.5130 -0.1754  0.8742
  747MOL0     C  717   9.876   1.537   7.021  0.5142  0.1487  0.6388
  747MOL0     O  718   9.736   1.541   7.044 -0.0658  0.5695  1.0310
  747MOL0     C  719   9.635   1.475   6.958  0.1630  0.0712 -0.0585
  747MOL0     C  720   9.499   1.511   7.025  0.4759 -0.2909  0.8439
  747MOL0     C  721   9.381   1.449   6.946 -0.3472 -0.0453 -0.4346
  747MOL0     C  722   9.252   1.435   7.023 -0.7768  0.8421  0.0822
  747MOL0     C  723   9.136   1.400   6.938 -0.2754 -0.4449 -0.0445
  747MOL0     C  724   9.014   1.326   6.994  0.4797 -0.4534 -0.4169
  747MOL0     C  725   8.888   1.321   6.905 -0.3732 -0.1116 -0.7239
  747MOL0     C  726   8.897   1.237   6.782  0.3163  0.0778  0.0467
  747MOL0     N  727   8.769   1.204   6.725  0.5397  0.5814  0.1569
  747MOL0     C  728   8.682   1.299   6.678 -0.6344 -0.2751 -1.0795
  747MOL0     C  729   8.591   1.232   6.603 -0.3176  1.5271 -0.4272
  747MOL0     C  730   8.466   1.293   6.543  0.9364 -0.6482  0.0989
  747MOL0     C  731   8.505   1.409   6.447  1.2002 -0.5022 -0.9067
  747MOL0     C  732   8.542   1.366   6.307 -0.7288  0.7003  0.8036
  747MOL0     C  733   8.535   1.488   6.216  0.0108 -0.5373 -0.6717
  747MOL0     O  734   8.626   1.592   6.253 -0.0585  0.8530  0.2180
  747MOL0     C  735   8.587   1.718   6.227  0.1479  0.1134 -0.8349
  747MOL0     C  736   8.579   1.800   6.348  0.0390 -0.5394  0.5190
  747MOL0     C  737   8.527   1.929   6.338 -0.7905 -0.0543  0.8147
  747MOL0     C  738   8.551   2.015   6.455  0.6340  0.9452 -0.4380
  747MOL0     C  739   8.477   1.976   6.207 -0.1865 -0.1721 -0.4125
  747MOL0     C  740   8.399   2.102   6.195  1.0568 -0.3957  0.0781
  747MOL0     O  741   8.341   2.121   6.074  0.2162  0.2936 -0.3492
  747MOL0     C  742   8.276   2.240   6.058  0.5133  0.8609 -0.7417
  747MOL0     C  743   8.347   2.373   6.052  1.3561  0.0033 -0.0235
  747MOL0     C  744   8.275   2.493   6.056  0.3800 -0.2905  0.1205
  747MOL0     C  745   8.134   2.492   6.040 -0.8244  0.2111 -1.4201
  747MOL0     O  746   8.079   2.616   6.040  0.8052  0.3980 -0.1421
  747MOL0     C  747   7.941   2.624   6.099 -0.2639 -0.4239  0.0120
  747MOL0     C  748   7.917   2.758   6.175 -0.2999 -0.3413 -1.1374
  747MOL0     C  749   7.995   2.790   6.304 -0.0801 -0.3511  0.0351
  747MOL0     C  750   7.965   2.931   6.357  0.2360  0.0633  0.1786
  747MOL0     C  751   8.058   3.043   6.317 -0.9692 -0.2600  0.2168
  747MOL0     C  752   8.213   3.014   6.342  0.3769 -0.5118  0.2120
  747MOL0     C  753   8.287   3.149   6.338  0.6477 -0.0684  0.7277
  747MOL0     C  754   8.441   3.140   6.323  0.2087  0.9940 -0.7217
  747MOL0    Cl  755   8.496   3.119   6.159 -0.7367 -0.6095  0.0640
  747MOL0     C  756   8.073   2.366   6.038  0.5595  0.0002 -0.5201
  747MOL0     C  757   8.144   2.245   6.053  0.5956  0.6041  0.3462
  747MOL0     O  758   8.379   2.175   6.293 -0.0477 -0.3864  0.0990
  747MOL0     C  759   8.496   1.894   6.096 -0.3237 -0.0593 -0.1479
  747MOL0     C  760   8.559   1.768   6.099 -0.6788  0.1529  0.1891
  747MOL0     N  761   8.620   1.093   6.614 -0.0067 -0.8169 -0.9078
  747MOL0     N  762   8.733   1.081   6.688  0.4642 -0.6045 -0.3489
  747MOL0     C  763   9.954   1.599   7.111  0.0442 -0.5891 -1.0000
  747MOL0     C  764  10.101   1.593   7.091  0.6799 -0.7919 -0.3471
  747MOL0     C  765  10.524   1.595   6.915  0.7128  0.3646  0.9048
  747MOL0     C  766  10.586   1.508   7.012 -0.3283 -1.9730  0.1469
  747MOL0     C  767  10.729   1.490   7.020 -0.5725  0.1770  0.2099
  747MOL0     C  768  10.809   1.550   6.924  0.8606  0.4892  0.0191
  747MOL0     O  769  10.945   1.545   6.946 -0.2852 -0.1511 -1.0583
  747MOL0     C  770  11.038   1.590   6.847  0.1365  0.5573  0.1220
  747MOL0     C  771  11.074   1.486   6.732  0.2209  0.0337 -1.3562
  747MOL0     C  772  11.190   1.532   6.647 -0.4904 -1.4949 -0.7542
  747MOL0     C  773  11.334   1.513   6.689  0.2662 -0.1662  0.1233
  747MOL0     C  774  11.380   1.619   6.784  0.3540 -0.0050 -0.0800
  747MOL0     C  775  11.406   1.692   6.872  0.5214 -0.4505 -0.8975
  747MOL0     C  776  10.751   1.626   6.832 -0.3929 -1.6012 -0.3572
  747MOL0     C  777  10.611   1.654   6.821 -0.7536  0.0777  0.0924
  747MOL0     H  778  10.131   1.440   6.799  1.1075  1.0256  0.2302
  747MOL0     H  779   9.876   1.440   6.821  2.3978  1.8683 -3.0056
  747MOL0     H  780   9.621   1.526   6.862  0.7451  1.7997  0.7369
  747MOL0     H  781   9.645   1.366   6.953 -1.8382 -0.1525 -0.2118
  747MOL0     H  782   9.507   1.472   7.126 -2.7966  2.0864  2.2089
  747MOL0     H  783   9.490   1.620   7.032 -1.4180 -0.4618  1.5726
  747MOL0     H  784   9.354   1.501   6.853 -0.3839  0.6804 -0.0235
  747MOL0     H  785   9.402   1.343   6.925 -3.5618 -1.0207  0.6088
  747MOL0     H  786   9.274   1.359   7.099 -0.7637  1.0897  0.3281
  747MOL0     H  787   9.231   1.536   7.059 -0.7798  2.0584 -3.0359
  747MOL0     H  788   9.103   1.498   6.900  0.6658  0.4192  1.2842
  747MOL0     H  789   9.176   1.348   6.850 -0.3588  0.6379 -0.7433
  747MOL0     H  790   9.041   1.227   7.033  2.9169 -1.1632 -3.5123
  747MOL0     H  791   8.986   1.390   7.078  0.0495  0.4720 -1.2505
  747MOL0     H  792   8.803   1.281   6.960 -1.4601  1.2249 -1.3861
  747MOL0     H  793   8.868   1.420   6.864  1.0459 -0.3092 -1.9878
  747MOL0     H  794   8.948   1.142   6.804 -0.3425 -0.3516 -0.2451
  747MOL0     H  795   8.958   1.295   6.713  0.5762  0.7865  0.8602
  747MOL0     H  796   8.698   1.403   6.703  3.1000 -1.6476  3.9623
  747MOL0     H  797   8.401   1.211   6.511 -2.4759  0.2475  3.9974
  747MOL0     H  798   8.402   1.334   6.621  0.9980  1.4038 -0.8666
  747MOL0     H  799   8.585   1.472   6.488  0.0967  1.8183 -2.1108
  747MOL0     H  800   8.420   1.477   6.435 -0.5732 -2.0094  1.9756
  747MOL0     H  801   8.478   1.286   6.267  2.5610 -0.8511 -1.8320
  747MOL0     H  802   8.648   1.341   6.296 -1.4842 -2.3969 -0.5525
  747MOL0     H  803   8.434   1.529   6.227  0.0738 -0.6486  0.4679
  747MOL0     H  804   8.554   1.462   6.112  2.2568 -0.4986 -0.3119
  747MOL0     H  805   8.613   1.754   6.440  1.8475 -1.6860 -0.6667
  747MOL0     H  806   8.459   2.055   6.498  2.1308  2.5126  1.4761
  747MOL0     H  807   8.604   1.963   6.535  0.4088  1.4541  0.0526
  747MOL0     H  808   8.600   2.105   6.415 -3.0224  2.7993 -1.2329
  747MOL0     H  809   8.455   2.364   6.047  1.2546 -0.9508 -0.6925
  747MOL0     H  810   8.328   2.587   6.060  0.7426 -0.4988  0.2074
  747MOL0     H  811   7.877   2.633   6.011  0.1912  0.1953 -0.2606
  747MOL0     H  812   7.917   2.533   6.155  1.2445 -0.9872 -0.2123
  747MOL0     H  813   7.940   2.837   6.103  1.9600  0.6699  0.5627
  747MOL0     H  814   7.808   2.756   6.190 -0.4544  1.7693 -1.5919
  747MOL0     H  815   8.101   2.783   6.276 -0.5407 -1.8856 -1.5181
  747MOL0     H  816   7.984   2.714   6.382  1.0839 -1.1326 -0.5232
  747MOL0     H  817   7.862   2.960   6.338 -0.6472 -2.4468  0.7328
  747MOL0     H  818   7.960   2.915   6.465 -0.7113 -0.0317  0.1251
  747MOL0     H  819   8.033   3.132   6.374  0.6297  2.2354 -2.6972
  747MOL0     H  820   8.041   3.071   6.213 -3.8714  1.2465  1.0030
  747MOL0     H  821   8.224   2.961   6.437  0.9646 -0.5909  0.1041
  747MOL0     H  822   8.256   2.951   6.263  2.0847  1.3841 -0.4518
  747MOL0     H  823   8.263   3.205   6.429 -1.7754 -1.8692  1.3108
  747MOL0     H  824   8.254   3.203   6.249 -1.6513  0.7452  1.9672
  747MOL0     H  825   8.473   3.056   6.386 -1.2416  0.9779  0.0485
  747MOL0     H  826   8.489   3.227   6.369 -1.9748  0.3005  3.4205
  747MOL0     H  827   7.970   2.364   6.005 -0.0906  1.5415  1.2298
  747MOL0     H  828   8.080   2.158   6.054  1.8148 -0.3212 -0.0876
  747MOL0     H  829   8.445   1.911   6.001 -3.2628  0.9965  1.4956
  747MOL0     H  830   8.571   1.703   6.014  0.7546 -1.2274  1.3716
  747MOL0     H  831   9.912   1.646   7.199  0.8101 -0.7939 -0.5195
  747MOL0     H  832  10.164   1.623   7.174 -0.0988 -1.0810  0.3687
  747MOL0     H  833  10.533   1.459   7.093 -0.4099 -0.9143  0.7476
  747MOL0     H  834  10.762   1.438   7.109  1.3066  1.7579  0.5015
  747MOL0     H  835  11.006   1.681   6.796 -2.5596 -2.3395 -4.0333
  747MOL0     H  836  11.130   1.612   6.902  0.2379 -1.6886  0.9666
  747MOL0     H  837  10.987   1.461   6.672 -0.0737 -0.4982 -0.7150
  747MOL0     H  838  11.116   1.395   6.776 -1.7508 -0.5803 -0.6544
  747MOL0     H  839  11.168   1.639   6.639 -1.2117 -1.7499 -2.6512
  747MOL0     H  840  11.178   1.500   6.543  2.0010 -0.8245 -1.3076
  747MOL0     H  841  11.399   1.503   6.602  1.7239 -3.0170  1.3954
  747MOL0     H  842  11.343   1.412   6.731 -2.1958 -1.2077 -1.6629
  747MOL0     H  843  11.427   1.767   6.947 -0.2732  0.6251 -1.7158
  747MOL0     H  844  10.820   1.671   6.762  0.4261 -0.7813  0.9276
  747MOL0     H  845  10.572   1.712   6.739 -0.1108 -2.6200 -2.2844
  748MOL0     O  846   5.837   1.906   8.531 -0.5883  0.5274 -0.3959
  748MOL0     C  847   5.816   1.801   8.469 -0.2475  0.0878 -1.0097
  748MOL0     O  848   5.701   1.767   8.404  0.2802 -0.1822  0.1327
  748MOL0     C  849   5.587   1.832   8.433  0.5893  0.0952 -0.6800
  748MOL0     C  850   5.531   1.809   8.554 -0.1500 -0.4034 -0.0320
  748MOL0     C  851   5.399   1.856   8.574 -0.8535 -0.6542 -0.1003
  748MOL0     C  852   5.319   1.920   8.475 -0.3995  0.8043  0.3625
  748MOL0     O  853   5.186   1.949   8.508  0.1514  0.0743 -0.1447
  748MOL0     C  854   5.116   2.060   8.443 -0.3328  0.3516  0.2504
  748MOL0     C  855   4.989   2.015   8.378 -1.4992 -0.9467 -0.2147
  748MOL0     C  856   4.896   2.139   8.361  0.4736 -0.5682 -0.1232
  748MOL0     C  857   4.755   2.118   8.290  0.1152 -0.7157  0.0709
  748MOL0     C  858   4.657   2.044   8.387  0.5048  0.4888 -0.2883
  748MOL0     C  859   4.599   2.126   8.503 -0.0628 -0.6266 -0.9279
  748MOL0     C  860   4.454   2.088   8.531 -0.1461  0.1984 -0.2030
  748MOL0     C  861   4.386   2.150   8.654 -0.7762 -0.4950 -0.5543
  748MOL0     N  862   4.253   2.076   8.674  0.4015 -0.0488 -1.0114
  748MOL0     C  863   4.128   2.126   8.706  0.1384  0.1611  0.2601
  748MOL0     C  864   4.048   2.020   8.713 -0.1566  0.1728 -0.1330
  748MOL0     C  865   3.904   2.009   8.743  0.3988 -0.3942  0.5737
  748MOL0     C  866   3.804   1.956   8.631  0.3884  0.6081 -0.4069
  748MOL0     C  867   3.662   1.998   8.674  0.7347  0.2654  0.0361
  748MOL0     C  868   3.563   1.921   8.587 -0.8269  0.3172  0.5652
  748MOL0     O  869   3.573   1.787   8.619  0.6220  0.8781  0.2760
  748MOL0     C  870   3.503   1.690   8.548  0.5764 -0.4604  0.8666
  748MOL0     C  871   3.500   1.553   8.590  0.5058  0.0642  0.4856
  748MOL0     C  872   3.443   1.456   8.514  0.8345 -0.0657  0.2625
  748MOL0     C  873   3.443   1.319   8.584 -0.0830 -0.5563  0.7170
  748MOL0     C  874   3.376   1.482   8.392  0.1292  0.5126 -0.2660
  748MOL0     C  875   3.307   1.373   8.307 -0.1003  0.2547  0.1494
  748MOL0     O  876   3.323   1.243   8.345 -0.2169  0.3791  0.1077
  748MOL0     C  877   3.247   1.151   8.286 -0.5726  0.9419  0.0660
  748MOL0     C  878   3.135   1.092   8.342 -0.4560 -0.4258 -0.5881
  748MOL0     C  879   3.055   0.990   8.282  0.0225 -0.1383  0.1399
  748MOL0     C  880   3.102   0.945   8.160  0.1007 -0.1273 -0.5853
  748MOL0     O  881   3.023   0.862   8.091 -0.5205  0.2707  0.4830
  748MOL0     C  882   3.072   0.813   7.964  0.0627 -0.2486  0.4632
  748MOL0     C  883   2.965   0.727   7.909  0.3561 -0.3885  0.8387
  748MOL0     C  884   2.979   0.581   7.956 -0.2707  0.0248 -0.0822
  748MOL0     C  885   2.918   0.552   8.092  0.4442 -0.5357  0.2358
  748MOL0     C  886   2.763   0.569   8.092 -0.4794 -0.6350 -0.5116
  748MOL0     C  887   2.690   0.457   8.029  0.0954  0.5325 -0.7190
  748MOL0     C  888   2.544   0.468   8.059 -0.4902  0.1509 -0.0223
  748MOL0     C  889   2.477   0.346   7.995  0.9403  0.2542 -0.4151
  748MOL0    Cl  890   2.293   0.343   8.010 -0.0772 -0.2920 -0.4630
  748MOL0     C  891   3.220   0.995   8.100 -1.3926  0.7521  0.4009
  748MOL0     C  892   3.286   1.101   8.163 -0.1810  0.1951 -0.1848
  748MOL0     O  893   3.250   1.420   8.204  0.1048  0.1954 -0.0151
  748MOL0     C  894   3.371   1.617   8.351  0.7265  0.2714 -0.7460
  748MOL0     C  895   3.432   1.723   8.423 -0.3229 -0.6920 -0.9350
  748MOL0     N  896   4.116   1.901   8.706 -0.1335 -0.3611 -0.0118
  748MOL0     N  897   4.239   1.938   8.679  0.0592 -0.4142  0.3823
  748MOL0     C  898   5.380   1.935   8.347  0.8582 -0.4495  0.8484
  748MOL0     C  899   5.504   1.889   8.332 -0.7054  0.3545  0.2214
  748MOL0     C  900   5.922   1.695   8.476  0.3216  0.4962  0.3265
  748MOL0     C  901   5.899   1.570   8.425 -0.2828  0.3780 -1.4002
  748MOL0     C  902   5.998   1.464   8.426  0.7483  0.3488 -0.4112
  748MOL0     C  903   6.121   1.489   8.481 -0.4450  0.4035 -0.1448
  748MOL0     O  904   6.208   1.385   8.476 -0.3553  0.5668 -0.3367
  748MOL0     C  905   6.347   1.405   8.522  0.1108 -0.1121 -0.0900
  748MOL0     C  906   6.425   1.490   8.419 -0.3376  0.5604 -0.3968
  748MOL0     C  907   6.574   1.450   8.432 -0.3510 -0.8058 -0.1382
  748MOL0     C  908   6.643   1.527   8.324 -1.2638 -0.3065 -0.3424
  748MOL0     C  909   6.781   1.475   8.328 -0.5831 -0.1839  0.3381
  748MOL0     C  910   6.874   1.410   8.355 -0.1624  0.7793  0.1913
  748MOL0     C  911   6.146   1.613   8.541  0.2895  0.8587 -0.0117
  748MOL0     C  912   6.042   1.715   8.541 -0.2705  0.1062  0.7116
  748MOL0     H  913   5.592   1.753   8.625  2.4178 -1.9967 -3.2372
  748MOL0     H  914   5.345   1.839   8.666 -2.0900 -1.5671 -0.9628
  748MOL0     H  915   5.102   2.130   8.526  1.9841 -0.5832  1.5364
  748MOL0     H  916   5.175   2.117   8.370 -1.6755  0.0461 -1.1328
  748MOL0     H  917   5.025   1.963   8.288 -0.5327 -1.1078  0.2499
  748MOL0     H  918   4.951   1.939   8.447  0.2176 -1.1175  0.5974
  748MOL0     H  919   4.886   2.178   8.462 -0.2387  1.3682 -0.8991
  748MOL0     H  920   4.938   2.223   8.306  3.0543 -1.2913  0.6122
  748MOL0     H  921   4.710   2.214   8.265  0.1608 -0.9838 -1.1475
  748MOL0     H  922   4.762   2.058   8.198 -0.2161  2.3249 -2.0929
  748MOL0     H  923   4.569   2.014   8.329  0.6519  1.2741 -0.9453
  748MOL0     H  924   4.716   1.961   8.428  1.3745  1.1648 -0.1399
  748MOL0     H  925   4.670   2.106   8.584  0.2454 -2.2211 -1.5546
  748MOL0     H  926   4.608   2.234   8.485 -0.4330 -0.5613 -0.7188
  748MOL0     H  927   4.399   2.121   8.442 -0.3094  0.5000  0.0080
  748MOL0     H  928   4.451   1.980   8.547 -0.0001  0.3234  0.7326
  748MOL0     H  929   4.381   2.260   8.653 -0.6448 -0.4514  0.9987
  748MOL0     H  930   4.449   2.115   8.735  0.9943 -0.5729 -1.8968
  748MOL0     H  931   4.089   2.227   8.716 -1.1429 -0.4954  2.4385
  748MOL0     H  932   3.898   1.943   8.830  0.2526 -0.4912  0.4912
  748MOL0     H  933   3.865   2.107   8.771  0.0769 -0.9075  2.0284
  748MOL0     H  934   3.822   1.848   8.634  0.8133  0.6757 -0.3788
  748MOL0     H  935   3.826   2.000   8.534  3.2473  1.1428  0.3712
  748MOL0     H  936   3.641   2.104   8.660  0.3442  0.0963 -0.7192
  748MOL0     H  937   3.658   1.977   8.782  0.2653 -1.2879 -0.2594
  748MOL0     H  938   3.593   1.938   8.483  0.1546 -0.7205  0.6630
  748MOL0     H  939   3.461   1.958   8.605 -0.7697  1.3407 -0.9933
  748MOL0     H  940   3.548   1.527   8.684 -2.0263 -1.3822  1.4629
  748MOL0     H  941   3.465   1.325   8.691 -0.8354 -0.0480  0.8482
  748MOL0     H  942   3.343   1.275   8.577 -1.0786  1.7637 -1.2191
  748MOL0     H  943   3.514   1.244   8.547 -2.1373 -2.0713 -0.3401
  748MOL0     H  944   3.098   1.113   8.442  1.0123 -0.9247  0.0952
  748MOL0     H  945   2.967   0.947   8.328 -0.0507 -1.3531 -1.0932
  748MOL0     H  946   3.073   0.902   7.900  0.5384 -2.1027 -2.2558
  748MOL0     H  947   3.166   0.758   7.967  0.4977  0.4918  3.0528
  748MOL0     H  948   2.869   0.772   7.938  0.0473 -1.3199  1.3216
  748MOL0     H  949   2.978   0.740   7.801 -1.2363 -0.0307  0.6666
  748MOL0     H  950   3.077   0.534   7.954 -0.6715 -1.0293  2.0997
  748MOL0     H  951   2.934   0.514   7.883 -4.0077  0.4087  1.6016
  748MOL0     H  952   2.940   0.452   8.129 -1.3138 -0.5184  1.4912
  748MOL0     H  953   2.952   0.625   8.167 -0.2922  0.9951 -0.8694
  748MOL0     H  954   2.728   0.660   8.044 -0.5183 -0.0836  0.5445
  748MOL0     H  955   2.738   0.568   8.198 -0.2413 -0.3976 -0.4522
  748MOL0     H  956   2.712   0.450   7.922 -1.1712 -2.1213 -0.8736
  748MOL0     H  957   2.724   0.363   8.073 -2.9837  0.7103  2.4689
  748MOL0     H  958   2.514   0.564   8.017  2.3842  1.7439  1.3046
  748MOL0     H  959   2.511   0.474   8.163 -2.1028  1.6629 -0.5703
  748MOL0     H  960   2.509   0.260   8.054 -1.2165  0.2411  0.8467
  748MOL0     H  961   2.503   0.344   7.889  1.6069  0.9678 -0.2674
  748MOL0     H  962   3.263   0.971   8.003 -2.2695 -0.6348  0.3321
  748MOL0     H  963   3.367   1.156   8.117  0.4420  1.1339  1.9135
  748MOL0     H  964   3.315   1.638   8.261  1.0711 -3.4414 -2.0051
  748MOL0     H  965   3.419   1.817   8.370  0.0236  0.2372  0.5651
  748MOL0     H  966   5.340   1.979   8.257 -0.7087  1.1214  2.2334
  748MOL0     H  967   5.561   1.893   8.239  1.0368  2.1619  1.2744
  748MOL0     H  968   5.800   1.551   8.385 -0.9018  0.5682 -0.0161
  748MOL0     H  969   5.975   1.374   8.371  1.8092  0.9308 -1.8625
  748MOL0     H  970   6.356   1.458   8.617  2.0862  4.7336 -2.6282
  748MOL0     H  971   6.404   1.312   8.519  1.4463  0.7061 -1.5820
  748MOL0     H  972   6.417   1.595   8.449  2.3770  0.6683  0.2240
  748MOL0     H  973   6.387   1.470   8.319 -2.3089 -2.3143  0.7958
  748MOL0     H  974   6.587   1.342   8.416 -3.3054 -1.3014  0.2797
  748MOL0     H  975   6.619   1.473   8.529 -1.4111 -1.0984  0.4301
  748MOL0     H  976   6.636   1.635   8.341 -2.1669 -0.4111  0.0160
  748MOL0     H  977   6.592   1.500   8.231 -2.7133 -2.8816  1.0971
  748MOL0     H  978   6.965   1.359   8.379  2.0520  4.8213  1.3389
  748MOL0     H  979   6.242   1.630   8.590 -0.3927  1.0085  1.3219
  748MOL0     H  980   6.059   1.811   8.589  3.3806  0.1519 -0.3793
  749MOL0     O  981   1.734   2.523  10.323  0.4279 -0.4110  0.2269
  749MOL0     C  982   1.732   2.407  10.372  0.8146 -0.2791 -0.0276
  749MOL0     O  983   1.708   2.293  10.307  0.3170  0.1808 -0.2999
  749MOL0     C  984   1.657   2.287  10.179 -0.9362 -0.7411  0.6406
  749MOL0     C  985   1.650   2.154  10.133  0.1192 -0.0717  1.4931
  749MOL0     C  986   1.583   2.117  10.015  0.3627 -0.2893  0.0975
  749MOL0     C  987   1.520   2.218   9.935  0.2475  0.4482 -0.3056
  749MOL0     O  988   1.466   2.162   9.819  0.2912 -0.0983 -0.1549
  749MOL0     C  989   1.378   2.235   9.728 -0.3308 -0.9691 -0.6459
  749MOL0     C  990   1.237   2.188   9.755 -0.1011 -0.9848  0.1286
  749MOL0     C  991   1.130   2.283   9.713 -0.3242  0.1206  0.3988
  749MOL0     C  992   1.002   2.235   9.780  0.6344 -0.2796 -0.5916
  749MOL0     C  993   0.882   2.331   9.741 -0.8184 -0.2639  0.0070
  749MOL0     C  994   0.749   2.270   9.800  0.1843  1.1084  0.0414
  749MOL0     C  995   0.634   2.371   9.768 -0.0080 -0.0499  0.1513
  749MOL0     C  996   0.520   2.376   9.869  0.1630 -0.0264  0.7476
  749MOL0     N  997   0.474   2.251   9.926  0.1600 -0.7609 -0.4391
  749MOL0     C  998   0.416   2.149   9.858  0.4728 -0.2152 -0.2564
  749MOL0     C  999   0.375   2.070   9.954 -0.8753 -0.1110 -0.2034
  749MOL0     C 1000   0.309   1.938   9.925  0.6272  0.4221  0.5909
  749MOL0     C 1001   0.157   1.958   9.965 -0.0558  0.6459  0.8977
  749MOL0     C 1002   0.137   1.943  10.118  0.4263 -0.8663  0.6539
  749MOL0     C 1003  -0.000   1.994  10.164 -0.1656 -0.0041  0.2084
  749MOL0     O 1004   0.005   1.999  10.307  1.0706  0.7646 -0.1743
  749MOL0     C 1005  -0.109   1.987  10.372  0.5235  0.6859 -0.0494
  749MOL0     C 1006  -0.101   1.960  10.506 -0.2833 -0.5717 -0.3891
  749MOL0     C 1007  -0.218   1.937  10.588  0.4641 -0.3625  0.0908
  749MOL0     C 1008  -0.209   1.889  10.726  0.2005 -0.3273 -0.5012
  749MOL0     C 1009  -0.341   1.972  10.536 -0.5596 -1.0047 -0.3296
  749MOL0     C 1010  -0.471   1.984  10.612  0.1693 -0.1556  0.6680
  749MOL0     O 1011  -0.586   1.966  10.547 -0.1686 -0.1792 -0.3260
  749MOL0     C 1012  -0.691   1.907  10.623 -0.2588 -0.0140  0.1718
  749MOL0     C 1013  -0.807   1.983  10.658 -0.2247 -0.7665  0.5860
  749MOL0     C 1014  -0.910   1.938  10.741  0.6357 -0.2686 -0.9238
  749MOL0     C 1015  -0.893   1.801  10.797 -0.3266 -0.3150 -0.3028
  749MOL0     O 1016  -0.977   1.729  10.874  0.2709  1.0670 -0.6691
  749MOL0     C 1017  -1.110   1.791  10.874  0.6906 -0.6595 -0.9789
  749MOL0     C 1018  -1.229   1.694  10.911 -0.9134  0.1650  0.4254
  749MOL0     C 1019  -1.214   1.609  11.030 -0.3979 -0.3693  0.3145
  749MOL0     C 1020  -1.317   1.496  11.039  0.5391 -0.3302  0.1104
  749MOL0     C 1021  -1.296   1.421  11.175  1.0679 -0.3302  0.3646
  749MOL0     C 1022  -1.417   1.321  11.180 -0.3091  0.0599 -0.4126
  749MOL0     C 1023  -1.426   1.272  11.324  0.0139  0.7928  0.2305
  749MOL0     C 1024  -1.566   1.283  11.387 -0.1071 -0.4088  0.3127
  749MOL0    Cl 1025  -1.615   1.453  11.407  0.3585  0.2309  0.5932
  749MOL0     C 1026  -0.772   1.732  10.768  0.6764  0.4370 -0.1264
  749MOL0     C 1027  -0.677   1.784  10.684  0.0607  0.4500  0.8168
  749MOL0     O 1028  -0.459   2.000  10.730  0.4416 -0.1796  0.4319
  749MOL0     C 1029  -0.348   1.996  10.396 -0.3875  0.9417  0.0445
  749MOL0     C 1030  -0.233   2.012  10.314  0.1458  0.2475 -0.3229
  749MOL0     N 1031   0.404   2.128  10.082  0.0528 -0.2663  0.1615
  749MOL0     N 1032   0.464   2.234  10.063 -0.2242  0.1853  0.0928
  749MOL0     C 1033   1.529   2.354   9.978 -0.2444  0.1227  0.7625
  749MOL0     C 1034   1.602   2.390  10.097 -0.0254 -0.0588  0.0460
  749MOL0     C 1035   1.741   2.390  10.513  0.2063  0.0787  0.4963
  749MOL0     C 1036   1.791   2.265  10.558  0.3685 -0.7573  0.7644
  749MOL0     C 1037   1.786   2.251  10.691 -0.5573  0.1517 -1.0207
  749MOL0     C 1038   1.745   2.353  10.780  0.5478 -0.1127  0.5142
  749MOL0     O 1039   1.734   2.312  10.909  0.6569 -0.2834  0.2348
  749MOL0     C 1040   1.821   2.391  11.001  0.4570 -0.4117  0.4633
  749MOL0     C 1041   1.961   2.365  10.983 -0.3331  0.9470  0.0507
  749MOL0     C 1042   2.056   2.408  11.098  0.8140  0.2813 -0.2190
  749MOL0     C 1043   2.201   2.401  11.056  0.3179  0.2504  0.2726
  749MOL0     C 1044   2.222   2.263  11.016  0.2055 -0.0934  0.1786
  749MOL0     C 1045   2.270   2.148  10.994  0.0321 -0.0338 -0.4152
  749MOL0     C 1046   1.714   2.484  10.733  0.1829 -0.2078  0.1713
  749MOL0     C 1047   1.716   2.506  10.594 -0.2299  0.1613 -0.0528
  749MOL0     H 1048   1.678   2.075  10.202  0.6634 -4.0077 -2.7940
  749MOL0     H 1049   1.573   2.012   9.990 -0.1743 -0.3866  0.7094
  749MOL0     H 1050   1.389   2.342   9.745 -3.3287 -0.7783  0.5616
  749MOL0     H 1051   1.408   2.213   9.625  2.8238  1.0716 -0.3084
  749MOL0     H 1052   1.224   2.094   9.701 -1.2892 -1.0031  0.4264
  749MOL0     H 1053   1.231   2.174   9.863  1.6270 -1.5327  0.1888
  749MOL0     H 1054   1.160   2.385   9.736  0.6680  0.0530 -0.5327
  749MOL0     H 1055   1.125   2.270   9.605  0.6713 -0.4646  0.4119
  749MOL0     H 1056   0.972   2.134   9.752 -1.8396  0.4971 -0.9434
  749MOL0     H 1057   1.017   2.231   9.889  0.7022 -3.2439 -0.6424
  749MOL0     H 1058   0.901   2.425   9.794  0.4232 -0.9073  0.7558
  749MOL0     H 1059   0.873   2.356   9.635  1.3460  0.7693  0.0295
  749MOL0     H 1060   0.740   2.167   9.763  1.0428  1.3500 -0.8662
  749MOL0     H 1061   0.755   2.263   9.909 -0.8473  2.1373  0.1775
  749MOL0     H 1062   0.653   2.478   9.761 -4.2088  1.1234  2.8371
  749MOL0     H 1063   0.598   2.330   9.672 -2.7959  1.3793  0.4755
  749MOL0     H 1064   0.434   2.419   9.816 -1.0054  0.8492  3.2074
  749MOL0     H 1065   0.549   2.448   9.946 -0.8069 -0.1297  1.2176
  749MOL0     H 1066   0.417   2.115   9.755 -0.1987 -3.1598  0.6248
  749MOL0     H 1067   0.325   1.916   9.819  1.2942  1.5217  0.4443
  749MOL0     H 1068   0.346   1.856   9.987  1.2436  0.2470 -0.0054
  749MOL0     H 1069   0.088   1.885   9.924  2.9836 -2.4037  0.7700
  749MOL0     H 1070   0.114   2.052   9.929 -1.1461 -0.9327 -2.3078
  749MOL0     H 1071   0.208   2.004  10.174 -0.1445 -1.0186  1.5821
  749MOL0     H 1072   0.156   1.841  10.152  2.0228 -1.3490 -1.4901
  749MOL0     H 1073  -0.085   1.929  10.137 -0.2165 -0.3896  1.2439
  749MOL0     H 1074  -0.013   2.094  10.121 -3.1040  0.1817  1.2725
  749MOL0     H 1075  -0.005   1.940  10.552 -1.6490 -1.6900  2.1723
  749MOL0     H 1076  -0.257   1.791  10.736 -0.4636 -0.1715 -1.8848
  749MOL0     H 1077  -0.101   1.885  10.743  0.4326  4.4620  0.6135
  749MOL0     H 1078  -0.239   1.966  10.797 -1.5489  0.8249 -2.3762
  749MOL0     H 1079  -0.835   2.069  10.596  0.4210 -0.7184  0.3575
  749MOL0     H 1080  -0.994   2.005  10.757  2.7407  2.8610 -1.9242
  749MOL0     H 1081  -1.114   1.879  10.938  1.2384 -0.5232 -1.1230
  749MOL0     H 1082  -1.133   1.821  10.771  0.9155 -0.6400 -1.0254
  749MOL0     H 1083  -1.327   1.743  10.916 -0.9473  0.1549 -0.1015
  749MOL0     H 1084  -1.223   1.629  10.824  0.9161  0.3847  0.3505
  749MOL0     H 1085  -1.231   1.676  11.114 -0.6983  2.0917 -1.6007
  749MOL0     H 1086  -1.113   1.570  11.046  0.4095  2.2183  2.1400
  749MOL0     H 1087  -1.421   1.528  11.027  0.7386  0.6778  0.9551
  749MOL0     H 1088  -1.294   1.429  10.955  2.0009 -1.7982  1.6090
  749MOL0     H 1089  -1.296   1.496  11.255  0.8355  0.1386 -0.0678
  749MOL0     H 1090  -1.207   1.359  11.166  1.4787  0.3237 -0.1269
  749MOL0     H 1091  -1.507   1.377  11.153  1.2583  2.5127 -0.7505
  749MOL0     H 1092  -1.393   1.252  11.098  1.9723 -0.2375  0.4324
  749MOL0     H 1093  -1.355   1.336  11.377  0.8947  0.6265 -0.7187
  749MOL0     H 1094  -1.397   1.167  11.334 -0.8064  0.4064 -1.1529
  749MOL0     H 1095  -1.560   1.238  11.486 -1.1549 -0.3257  0.4275
  749MOL0     H 1096  -1.640   1.229  11.327 -0.1689 -0.5863  0.5448
  749MOL0     H 1097  -0.750   1.633  10.806 -1.4559  0.9726  2.8512
  749MOL0     H 1098  -0.596   1.720  10.651  0.2550  1.3099 -0.4270
  749MOL0     H 1099  -0.440   2.020  10.343  0.0030 -1.4258 -1.9392
  749MOL0     H 1100  -0.244   2.056  10.215  0.9680  2.1008  0.3632
  749MOL0     H 1101   1.490   2.436   9.918  3.7569  0.8937 -1.0889
  749MOL0     H 1102   1.607   2.497  10.112  1.5319  0.2815 -2.3500
  749MOL0     H 1103   1.826   2.183  10.498 -1.0924 -2.9714  2.7508
  749MOL0     H 1104   1.802   2.151  10.730 -0.0868 -0.1398 -1.9425
  749MOL0     H 1105   1.811   2.498  11.024  0.6952 -0.3504  0.2878
  749MOL0     H 1106   1.792   2.338  11.092 -1.1768 -0.0329  0.1933
  749MOL0     H 1107   1.993   2.412  10.889  0.0700 -1.6788 -1.2243
  749MOL0     H 1108   1.969   2.257  10.969 -1.6289  0.5211  2.2680
  749MOL0     H 1109   2.053   2.345  11.187  1.4244  1.8939  0.9915
  749MOL0     H 1110   2.028   2.509  11.127  0.7825 -0.1523  1.3169
  749MOL0     H 1111   2.277   2.422  11.132  1.0565 -0.6827 -0.1980
  749MOL0     H 1112   2.204   2.477  10.977 -0.2561  1.1984  1.1334
  749MOL0     H 1113   2.306   2.047  10.991 -1.2431 -0.5389  0.6627
  749MOL0     H 1114   1.668   2.566  10.787  1.5700  0.5308  0.2699
  749MOL0     H 1115   1.673   2.596  10.550 -5.2547 -1.9552 -0.1480
  750MOL0     O 1116   2.765   0.462   9.542 -0.2916 -0.0386 -0.7151
  750MOL0     C 1117   2.643   0.444   9.557  0.3188 -0.5061  0.0744
  750MOL0     O 1118   2.543   0.459   9.462 -0.0945 -0.1522  0.2245
  750MOL0     C 1119   2.568   0.512   9.339 -0.2562 -0.3081  0.2324
  750MOL0     C 1120   2.505   0.452   9.233 -0.9036 -0.2090  0.2131
  750MOL0     C 1121   2.529   0.491   9.106 -0.9498 -0.1000 -0.5572
  750MOL0     C 1122   2.615   0.609   9.079 -0.0797  0.1203  0.1572
  750MOL0     O 1123   2.641   0.665   8.958  0.1101  0.1640 -0.0263
  750MOL0     C 1124   2.620   0.585   8.838  0.5574  0.9458 -0.9198
  750MOL0     C 1125   2.471   0.578   8.796  0.4914  0.4827 -0.0207
  750MOL0     C 1126   2.403   0.714   8.794  0.5675  0.5665 -0.0160
  750MOL0     C 1127   2.276   0.713   8.873  0.7696  0.6369  0.4502
  750MOL0     C 1128   2.206   0.852   8.842 -0.4211  0.0786  0.5180
  750MOL0     C 1129   2.071   0.865   8.904 -0.3306 -0.1319 -0.1298
  750MOL0     C 1130   2.017   1.015   8.908 -0.2249  0.5333  0.8187
  750MOL0     C 1131   1.870   1.025   8.897 -0.1682  0.3134  1.2530
  750MOL0     N 1132   1.811   0.948   9.006 -0.6235  0.3435 -0.1208
  750MOL0     C 1133   1.694   0.874   9.009 -0.8009  0.3352  0.9298
  750MOL0     C 1134   1.659   0.866   9.139 -0.4511 -0.1279 -0.9567
  750MOL0     C 1135   1.525   0.810   9.184  0.7439 -0.6225  0.2794
  750MOL0     C 1136   1.406   0.890   9.139  0.2745 -0.4349  0.2496
  750MOL0     C 1137   1.411   1.025   9.222  0.2484  0.3213  0.1133
  750MOL0     C 1138   1.294   1.116   9.200  0.4068 -0.2398 -0.8252
  750MOL0     O 1139   1.240   1.088   9.073  0.4315 -0.1464 -0.2396
  750MOL0     C 1140   1.105   1.107   9.048 -1.2423  0.5175 -0.1886
  750MOL0     C 1141   1.012   1.188   9.127  0.2559 -0.7281  0.7306
  750MOL0     C 1142   0.871   1.189   9.110 -0.7374  0.0457 -0.4764
  750MOL0     C 1143   0.794   1.297   9.182 -1.3343  0.4983 -0.5769
  750MOL0     C 1144   0.812   1.106   9.004 -0.9794  0.7969 -0.1396
  750MOL0     C 1145   0.675   1.107   8.965  0.9524  0.6393 -0.5587
  750MOL0     O 1146   0.597   1.208   9.005 -0.1385  0.5578  0.3712
  750MOL0     C 1147   0.465   1.216   8.958  1.0345 -0.8172 -0.3124
  750MOL0     C 1148   0.353   1.217   9.047 -0.2109  1.0616  0.1005
  750MOL0     C 1149   0.223   1.225   8.995  0.4059  0.7158  0.4573
  750MOL0     C 1150   0.200   1.247   8.858  0.2149 -0.3547 -0.0434
  750MOL0     O 1151   0.061   1.246   8.839  0.2469 -0.0883  0.1389
  750MOL0     C 1152   0.043   1.339   8.722 -0.6123 -0.9934 -0.9024
  750MOL0     C 1153  -0.115   1.369   8.696  0.7775 -0.5929 -0.0894
  750MOL0     C 1154  -0.188   1.452   8.797 -0.0731 -0.0311  0.2198
  750MOL0     C 1155  -0.338   1.436   8.769  0.2532  0.0453  0.6813
  750MOL0     C 1156  -0.399   1.526   8.872  0.3463 -0.0201  0.3426
  750MOL0     C 1157  -0.552   1.540   8.860 -0.4418 -0.8284 -0.0972
  750MOL0     C 1158  -0.606   1.677   8.894 -0.2083  0.7104  0.2550
  750MOL0     C 1159  -0.761   1.682   8.897  0.2259  0.8396 -0.0952
  750MOL0    Cl 1160  -0.824   1.722   8.735  0.1989  0.0647 -0.2256
  750MOL0     C 1161   0.305   1.254   8.772 -0.5540  0.0141  0.0640
  750MOL0     C 1162   0.440   1.235   8.824 -0.2803  1.1756 -0.1503
  750MOL0     O 1163   0.638   1.003   8.904 -1.0842  0.2647 -0.7500
  750MOL0     C 1164   0.901   1.016   8.941  0.4161  0.6393  0.0233
  750MOL0     C 1165   1.039   1.016   8.959 -0.3754 -0.8562  0.0551
  750MOL0     N 1166   1.748   0.934   9.212  0.0808  0.1477  1.3986
  750MOL0     N 1167   1.831   0.987   9.139 -0.7350  0.6468 -0.2120
  750MOL0     C 1168   2.669   0.668   9.190 -0.1355 -0.1296  0.0928
  750MOL0     C 1169   2.642   0.629   9.318 -0.8320  0.3835  0.3174
  750MOL0     C 1170   2.609   0.369   9.685 -0.6637  0.3702 -0.8114
  750MOL0     C 1171   2.476   0.361   9.724 -0.0583 -0.3499 -0.3897
  750MOL0     C 1172   2.442   0.278   9.838  0.6784 -0.1574  0.0173
  750MOL0     C 1173   2.535   0.225   9.930 -0.2068  0.2249  0.3261
  750MOL0     O 1174   2.501   0.155  10.052  0.6255 -0.5217  0.4385
  750MOL0     C 1175   2.366   0.100  10.045  0.1729 -0.3138  0.0379
  750MOL0     C 1176   2.370   0.014  10.174 -0.7354  0.2312 -0.2401
  750MOL0     C 1177   2.347   0.105  10.300 -0.5863 -0.4761  0.0012
  750MOL0     C 1178   2.345   0.021  10.429  1.0128 -0.3565  0.0670
  750MOL0     C 1179   2.296   0.102  10.537 -0.6430 -0.5536 -0.6164
  750MOL0     C 1180   2.277   0.175  10.632  0.0589  0.0637 -0.8038
  750MOL0     C 1181   2.667   0.244   9.890 -0.0584  0.6627 -0.9101
  750MOL0     C 1182   2.705   0.308   9.773 -0.2487 -0.7684  0.7215
  750MOL0     H 1183   2.442   0.365   9.250  1.0950 -2.1254 -1.6021
  750MOL0     H 1184   2.478   0.429   9.034  0.7134 -0.4680 -1.4635
  750MOL0     H 1185   2.668   0.645   8.761  0.6464  0.7770 -0.9956
  750MOL0     H 1186   2.670   0.488   8.845 -0.0982  0.5904 -1.1332
  750MOL0     H 1187   2.465   0.527   8.700  0.2510 -1.4732  0.9643
  750MOL0     H 1188   2.418   0.510   8.864  1.0772 -1.4730 -1.4130
  750MOL0     H 1189   2.466   0.791   8.840  0.8770  0.4278 -0.2022
  750MOL0     H 1190   2.395   0.747   8.689  0.0963  1.9948  0.4398
  750MOL0     H 1191   2.221   0.622   8.847  2.5709 -0.2968 -0.2285
  750MOL0     H 1192   2.288   0.701   8.981  0.1354  0.4716  0.5098
  750MOL0     H 1193   2.269   0.926   8.892 -1.2102  1.1787 -0.0811
  750MOL0     H 1194   2.196   0.875   8.736 -1.2946 -0.7565  0.4005
  750MOL0     H 1195   2.003   0.817   8.833  1.6539  0.6824 -2.7365
  750MOL0     H 1196   2.060   0.817   9.002 -1.3134  0.6310  0.1519
  750MOL0     H 1197   2.052   1.063   9.001  1.6155 -2.8414  2.0529
  750MOL0     H 1198   2.056   1.071   8.823 -0.1884  1.6096  1.5163
  750MOL0     H 1199   1.833   0.971   8.809 -0.7700  2.0081  0.4110
  750MOL0     H 1200   1.833   1.128   8.901 -1.5133 -0.1496  1.1022
  750MOL0     H 1201   1.653   0.833   8.917 -0.2273 -0.2220  0.9168
  750MOL0     H 1202   1.517   0.714   9.133  0.7119  1.0740 -3.2369
  750MOL0     H 1203   1.510   0.789   9.290 -0.2068 -1.6059 -0.0349
  750MOL0     H 1204   1.312   0.837   9.159  0.0147 -0.2812 -0.5326
  750MOL0     H 1205   1.419   0.903   9.031  1.5973 -4.3698 -0.2378
  750MOL0     H 1206   1.504   1.073   9.191 -1.9765  3.6544 -2.0269
  750MOL0     H 1207   1.409   0.995   9.327 -0.0129 -4.3796 -0.9976
  750MOL0     H 1208   1.316   1.223   9.205  1.2152 -0.4598  1.0661
  750MOL0     H 1209   1.212   1.095   9.269  0.8613 -0.0355 -0.2139
  750MOL0     H 1210   1.052   1.256   9.202  2.0625 -2.2548  1.2423
  750MOL0     H 1211   0.854   1.346   9.259  1.7200 -0.7751 -1.9925
  750MOL0     H 1212   0.763   1.375   9.112 -0.7506  2.2558  1.0187
  750MOL0     H 1213   0.703   1.258   9.227 -2.1430  0.9169 -1.7997
  750MOL0     H 1214   0.370   1.206   9.153  1.9132  1.5808 -0.1474
  750MOL0     H 1215   0.132   1.213   9.053 -1.7588  0.8356 -2.7005
  750MOL0     H 1216   0.086   1.434   8.756 -3.7410 -0.4279  2.0875
  750MOL0     H 1217   0.098   1.297   8.638  1.1759 -0.5937  0.0253
  750MOL0     H 1218  -0.108   1.412   8.595  2.9151  1.1637  0.7276
  750MOL0     H 1219  -0.165   1.272   8.683  1.6827 -0.7809 -3.1756
  750MOL0     H 1220  -0.157   1.556   8.780 -2.4008  0.6444 -0.2918
  750MOL0     H 1221  -0.154   1.433   8.898  1.1137 -0.8910 -0.3250
  750MOL0     H 1222  -0.347   1.462   8.664 -1.5795  0.3105  0.8759
  750MOL0     H 1223  -0.383   1.337   8.783  1.1453 -0.2855  1.2973
  750MOL0     H 1224  -0.358   1.627   8.861  0.9157 -0.2944 -0.1149
  750MOL0     H 1225  -0.374   1.494   8.973  0.0859  1.2271  0.8135
  750MOL0     H 1226  -0.552   1.522   8.752  5.1984  1.5754 -0.8832
  750MOL0     H 1227  -0.602   1.467   8.924  0.3305 -0.6156  0.7601
  750MOL0     H 1228  -0.569   1.756   8.827  1.4199 -0.9438 -0.8927
  750MOL0     H 1229  -0.565   1.694   8.994  2.6602  1.1727 -0.9043
  750MOL0     H 1230  -0.799   1.755   8.970 -0.5227 -0.7362  1.1437
  750MOL0     H 1231  -0.796   1.585   8.933 -2.0110  1.7034  0.1930
  750MOL0     H 1232   0.293   1.274   8.666  1.6923  0.0707 -0.2490
  750MOL0     H 1233   0.525   1.226   8.757  0.7494 -4.1544  1.4184
  750MOL0     H 1234   0.861   0.934   8.883 -3.5384  2.1649  0.3235
  750MOL0     H 1235   1.105   0.945   8.911  1.2087 -1.9278  3.4697
  750MOL0     H 1236   2.725   0.760   9.174  0.7672 -0.6816  0.0375
  750MOL0     H 1237   2.686   0.686   9.399 -0.5625 -0.5684  0.8472
  750MOL0     H 1238   2.396   0.408   9.669  0.3514 -2.1143 -2.6293
  750MOL0     H 1239   2.337   0.276   9.864  0.1178  0.9371 -1.9828
  750MOL0     H 1240   2.290   0.178  10.055  0.0738 -0.3039 -0.7210
  750MOL0     H 1241   2.353   0.047   9.950  2.1264 -0.3362 -0.2657
  750MOL0     H 1242   2.466  -0.038  10.173 -0.7574  0.1962 -0.9159
  750MOL0     H 1243   2.294  -0.063  10.167 -0.0472 -0.3239 -2.3401
  750MOL0     H 1244   2.257   0.165  10.284  1.2042  2.3150 -0.3199
  750MOL0     H 1245   2.426   0.180  10.293 -1.0076 -0.2044 -4.0117
  750MOL0     H 1246   2.436  -0.031  10.461 -0.0975 -2.7979 -0.5235
  750MOL0     H 1247   2.265  -0.054  10.427 -2.7898  3.3194  0.4901
  750MOL0     H 1248   2.261   0.228  10.723  1.4107 -3.0775  1.4643
  750MOL0     H 1249   2.747   0.209   9.954 -0.2348  1.3810 -0.2927
  750MOL0     H 1250   2.812   0.322   9.758  0.6762 -4.7388  2.2910
  751MOL0     O 1251   6.094   3.654   7.659 -0.1339 -0.4346 -0.2850
  751MOL0     C 1252   6.142   3.683   7.548 -0.4881 -0.2685  0.9592
  751MOL0     O 1253   6.093   3.641   7.419  0.3253 -0.3702  0.7233
  751MOL0     C 1254   5.960   3.614   7.416 -0.8797 -0.3740 -1.1382
  751MOL0     C 1255   5.865   3.684   7.332  0.5407  0.1379  0.0668
  751MOL0     C 1256   5.727   3.651   7.331  0.3808  0.1449 -0.1725
  751MOL0     C 1257   5.678   3.539   7.401  0.0786  1.0997  0.3933
  751MOL0     O 1258   5.547   3.500   7.385 -0.2506  0.3566 -0.5696
  751MOL0     C 1259   5.507   3.382   7.449  0.3127 -0.2802 -0.4768
  751MOL0     C 1260   5.361   3.350   7.405 -0.1905 -0.9735 -0.3617
  751MOL0     C 1261   5.249   3.457   7.440  1.2077  0.4051  0.5946
  751MOL0     C 1262   5.256   3.598   7.368 -0.4126  0.1387  0.1498
  751MOL0     C 1263   5.124   3.668   7.377 -0.1911  0.6030 -0.2210
  751MOL0     C 1264   5.031   3.621   7.262 -0.1853 -0.5072  0.2917
  751MOL0     C 1265   4.899   3.694   7.261  0.7960  0.1943 -0.0772
  751MOL0     C 1266   4.795   3.616   7.171 -0.2106  0.2234 -0.6725
  751MOL0     N 1267   4.764   3.474   7.213  0.4914 -0.5815  0.2286
  751MOL0     C 1268   4.747   3.416   7.335  0.2350  0.0705 -0.5718
  751MOL0     C 1269   4.772   3.284   7.315  0.4081  0.5221 -0.7320
  751MOL0     C 1270   4.769   3.168   7.413  0.0240 -0.9019  0.3608
  751MOL0     C 1271   4.624   3.109   7.430  0.3232  0.1662 -0.9110
  751MOL0     C 1272   4.547   3.209   7.521 -0.5947 -0.0013  0.7162
  751MOL0     C 1273   4.405   3.159   7.547  0.5767  0.9797  0.4710
  751MOL0     O 1274   4.358   3.251   7.647 -0.7254  0.1527 -0.9134
  751MOL0     C 1275   4.230   3.223   7.680  0.6210 -0.1967  0.0240
  751MOL0     C 1276   4.188   3.096   7.725 -0.9022  0.1171  0.0561
  751MOL0     C 1277   4.059   3.064   7.762 -0.5134 -0.6776 -0.7369
  751MOL0     C 1278   4.027   2.919   7.758  0.5936 -0.9501 -1.0050
  751MOL0     C 1279   3.963   3.160   7.754 -0.0971  0.3544 -0.1447
  751MOL0     C 1280   3.813   3.145   7.781 -0.5921  0.1167 -0.3302
  751MOL0     O 1281   3.768   3.021   7.838 -0.4400  0.0302  0.4799
  751MOL0     C 1282   3.648   2.967   7.800 -1.3507  0.0726  0.6541
  751MOL0     C 1283   3.634   2.887   7.692  0.3205 -0.2767  0.4998
  751MOL0     C 1284   3.508   2.846   7.644  0.1210 -0.6780  0.4973
  751MOL0     C 1285   3.395   2.906   7.704  0.5513  0.4058  0.6184
  751MOL0     O 1286   3.267   2.868   7.638 -0.1988 -0.1428 -0.4531
  751MOL0     C 1287   3.163   2.849   7.739 -1.0970 -0.1619  0.0413
  751MOL0     C 1288   3.032   2.809   7.669 -0.8509 -0.2276  0.6657
  751MOL0     C 1289   2.960   2.933   7.609 -0.3121 -0.1229 -0.5069
  751MOL0     C 1290   3.011   2.974   7.473 -0.2675 -0.2674  0.3748
  751MOL0     C 1291   2.920   3.086   7.409  0.4684  0.7525 -0.6420
  751MOL0     C 1292   2.816   3.005   7.314  0.9120  0.6302  0.1386
  751MOL0     C 1293   2.879   2.947   7.187 -0.1177 -0.3695 -0.7150
  751MOL0     C 1294   2.785   2.912   7.066 -0.1513  0.1161  0.4489
  751MOL0    Cl 1295   2.652   2.817   7.126 -0.5779  0.2349  0.0239
  751MOL0     C 1296   3.410   2.992   7.807 -0.4600  0.2698 -0.8671
  751MOL0     C 1297   3.533   3.024   7.861 -0.0728  0.1330 -0.2081
  751MOL0     O 1298   3.736   3.232   7.746  0.4640  0.0299  0.2229
  751MOL0     C 1299   3.998   3.293   7.707 -0.8978  0.1511 -0.4207
  751MOL0     C 1300   4.130   3.319   7.678  0.3092 -0.5277  0.4210
  751MOL0     N 1301   4.775   3.256   7.178 -0.6243 -0.0962  0.3494
  751MOL0     N 1302   4.795   3.370   7.130  0.3976 -0.1337 -0.4949
  751MOL0     C 1303   5.770   3.466   7.481 -0.5984 -1.1187  0.6060
  751MOL0     C 1304   5.908   3.508   7.484  0.5174  0.2840 -0.7569
  751MOL0     C 1305   6.281   3.717   7.571 -0.3753  0.5943  0.3045
  751MOL0     C 1306   6.382   3.663   7.484  0.8679  0.1470 -0.0846
  751MOL0     C 1307   6.516   3.677   7.519 -0.7159 -1.3236  0.5823
  751MOL0     C 1308   6.553   3.739   7.642 -0.9660  0.6568 -0.4634
  751MOL0     O 1309   6.685   3.724   7.682 -0.3289  0.3981 -0.2455
  751MOL0     C 1310   6.720   3.724   7.821 -0.1044 -0.5254 -0.0289
  751MOL0     C 1311   6.876   3.696   7.839  0.0238  0.3188  0.5417
  751MOL0     C 1312   6.886   3.543   7.860  0.1432  0.1085  0.0842
  751MOL0     C 1313   7.022   3.486   7.823  0.3861  0.0069  0.6939
  751MOL0     C 1314   7.060   3.499   7.685  0.3612  0.1967 -0.0711
  751MOL0     C 1315   7.080   3.495   7.567  0.4526 -0.1795  0.7329
  751MOL0     C 1316   6.456   3.783   7.736  0.0203 -0.2694  0.5675
  751MOL0     C 1317   6.321   3.772   7.693  0.0656  1.2285 -0.4859
  751MOL0     H 1318   5.909   3.767   7.277 -1.6819  0.4418 -1.3820
  751MOL0     H 1319   5.645   3.704   7.283  0.5106 -1.2979 -2.1245
  751MOL0     H 1320   5.572   3.295   7.435  0.7392 -0.2871  1.3362
  751MOL0     H 1321   5.499   3.391   7.558  1.2975  1.2386 -0.5059
  751MOL0     H 1322   5.359   3.342   7.296  1.7625 -2.0275 -0.3610
  751MOL0     H 1323   5.343   3.250   7.446  1.6598 -1.3018 -0.2605
  751MOL0     H 1324   5.152   3.414   7.411 -0.9007  5.1077 -0.1913
  751MOL0     H 1325   5.239   3.469   7.548 -3.1242 -1.5098  0.6022
  751MOL0     H 1326   5.325   3.666   7.419 -0.8215  1.1991 -0.6794
  751MOL0     H 1327   5.278   3.575   7.264  0.3187 -2.2320  0.7709
  751MOL0     H 1328   5.075   3.648   7.473  2.0009 -0.4120  0.7587
  751MOL0     H 1329   5.129   3.776   7.368  2.0617  0.4749 -1.1640
  751MOL0     H 1330   5.084   3.646   7.170  0.1754  1.6156  1.0288
  751MOL0     H 1331   5.008   3.514   7.263  1.9644 -1.0891  3.5908
  751MOL0     H 1332   4.858   3.688   7.362  2.4885 -1.1947  0.5815
  751MOL0     H 1333   4.897   3.799   7.230 -2.1978 -0.1035 -1.2236
  751MOL0     H 1334   4.846   3.617   7.074 -2.7554  1.7919 -2.0775
  751MOL0     H 1335   4.699   3.663   7.151 -0.7759 -1.4942 -2.3181
  751MOL0     H 1336   4.733   3.458   7.435 -0.9089 -1.6475  0.0336
  751MOL0     H 1337   4.841   3.091   7.382  1.8246  1.2883 -1.2230
  751MOL0     H 1338   4.806   3.198   7.511 -2.3532 -1.0519  1.3785
  751MOL0     H 1339   4.637   3.010   7.474  1.3101  0.9118  0.5712
  751MOL0     H 1340   4.565   3.094   7.339  0.8697 -5.7575 -0.6741
  751MOL0     H 1341   4.536   3.304   7.469  0.8026 -1.3678 -2.3672
  751MOL0     H 1342   4.588   3.218   7.622 -0.7333 -0.9460  0.8659
  751MOL0     H 1343   4.410   3.056   7.583  2.4768  0.1703 -1.8024
  751MOL0     H 1344   4.342   3.168   7.458  0.2024 -1.3697  0.4513
  751MOL0     H 1345   4.255   3.011   7.718 -1.8703 -0.5973 -0.8781
  751MOL0     H 1346   4.112   2.862   7.718  0.1271 -0.7383 -2.3391
  751MOL0     H 1347   4.016   2.875   7.858 -1.1746 -2.3748 -1.7612
  751MOL0     H 1348   3.942   2.894   7.694 -0.7660 -0.9748  0.7403
  751MOL0     H 1349   3.727   2.863   7.640  1.3994  2.8203  0.8167
  751MOL0     H 1350   3.492   2.775   7.563 -3.7961 -1.0864  1.4338
  751MOL0     H 1351   3.194   2.771   7.810  2.1090  1.4285  0.5293
  751MOL0     H 1352   3.155   2.944   7.793 -1.9799 -1.3011  2.0293
  751MOL0     H 1353   3.060   2.733   7.595 -0.1559 -0.5144  1.2189
  751MOL0     H 1354   2.964   2.759   7.737 -2.1431 -0.5779 -0.8194
  751MOL0     H 1355   2.959   3.016   7.680  0.7071 -1.1514  0.7473
  751MOL0     H 1356   2.854   2.908   7.596 -0.5412  0.0437  0.8490
  751MOL0     H 1357   3.116   3.007   7.478 -0.8496  2.4141 -2.0190
  751MOL0     H 1358   3.022   2.884   7.411 -1.3868  0.2379 -0.6131
  751MOL0     H 1359   2.972   3.161   7.348  1.7324  3.1238  2.9937
  751MOL0     H 1360   2.867   3.146   7.484  1.4832  2.1042 -0.9760
  751MOL0     H 1361   2.770   2.921   7.367 -0.1399  1.3124  0.3332
  751MOL0     H 1362   2.731   3.068   7.285 -0.6639 -2.2919 -2.1325
  751MOL0     H 1363   2.925   2.851   7.214  1.0710  0.8897  2.0606
  751MOL0     H 1364   2.965   3.006   7.154 -0.5410 -0.1738 -1.4967
  751MOL0     H 1365   2.835   2.857   6.986 -3.2703 -1.5982 -0.5110
  751MOL0     H 1366   2.749   3.006   7.022  0.5798  0.8959  1.4534
  751MOL0     H 1367   3.327   3.045   7.851 -1.7111 -1.7553 -0.6340
  751MOL0     H 1368   3.547   3.099   7.939 -0.8925  1.4795 -1.3124
  751MOL0     H 1369   3.932   3.378   7.714 -0.1215  0.6058  3.9779
  751MOL0     H 1370   4.154   3.418   7.642  1.2420  0.0833  2.5934
  751MOL0     H 1371   5.740   3.373   7.528 -1.8753 -0.2932  1.4995
  751MOL0     H 1372   5.978   3.456   7.549 -0.9732 -0.2050  0.5076
  751MOL0     H 1373   6.355   3.613   7.391 -0.4190 -1.7280  1.2438
  751MOL0     H 1374   6.596   3.634   7.458 -2.5251 -2.2959 -1.2185
  751MOL0     H 1375   6.711   3.825   7.862 -2.7587 -1.2961  1.5574
  751MOL0     H 1376   6.665   3.654   7.886  1.3465 -0.3237  1.4800
  751MOL0     H 1377   6.906   3.754   7.926  2.5368 -0.0247 -0.0376
  751MOL0     H 1378   6.944   3.723   7.758 -0.2393 -1.4382 -0.3157
  751MOL0     H 1379   6.818   3.496   7.788  1.6645  1.1143 -2.1121
  751MOL0     H 1380   6.856   3.509   7.959  0.3713 -0.7202 -0.1288
  751MOL0     H 1381   7.026   3.379   7.843  5.1111 -0.0610  0.5917
  751MOL0     H 1382   7.083   3.529   7.903  0.4623  0.1654  0.5502
  751MOL0     H 1383   7.101   3.496   7.461 -0.6199  0.2551  0.5107
  751MOL0     H 1384   6.481   3.829   7.831  1.0344  0.4262 -0.0244
  751MOL0     H 1385   6.242   3.811   7.757 -1.1947  1.2652 -1.9993
  752MOL0     O 1386   7.188  10.016  11.319  0.1611  0.5647  1.2648
  752MOL0     C 1387   7.213   9.898  11.301  0.5854 -0.0573  0.3089
  752MOL0     O 1388   7.167   9.819  11.200 -0.0456 -0.2997  0.2205
  752MOL0     C 1389   7.048   9.844  11.130 -0.2821  0.4903  1.2977
  752MOL0     C 1390   6.960   9.940  11.169 -0.2573 -0.2601  0.9923
  752MOL0     C 1391   6.829   9.931  11.117 -0.2790  0.6288  0.8943
  752MOL0     C 1392   6.786   9.837  11.026  0.6831 -0.1751 -0.6066
  752MOL0     O 1393   6.655   9.822  10.985 -0.0683 -0.5730 -0.6160
  752MOL0     C 1394   6.553   9.867  11.081  0.0080  0.5716 -0.5060
  752MOL0     C 1395   6.498  10.008  11.057 -1.5152 -0.8236 -0.1206
  752MOL0     C 1396   6.401  10.039  11.170  0.1885  0.1770  1.5908
  752MOL0     C 1397   6.361  10.187  11.146  0.1011 -0.4802 -0.4022
  752MOL0     C 1398   6.229  10.219  11.226 -0.6238 -0.8020  0.0804
  752MOL0     C 1399   6.188  10.367  11.214  1.0105  0.0508  0.0205
  752MOL0     C 1400   6.286  10.483  11.220 -0.8572 -0.6131  0.9377
  752MOL0     C 1401   6.202  10.612  11.249 -0.2402 -0.0562  1.5316
  752MOL0     N 1402   6.282  10.726  11.278  0.3579 -0.2087 -0.2989
  752MOL0     C 1403   6.342  10.761  11.393 -0.6406  0.3622 -0.1733
  752MOL0     C 1404   6.438  10.854  11.358  0.4278 -0.1764 -0.4204
  752MOL0     C 1405   6.550  10.915  11.434  0.5892  0.9187 -0.1952
  752MOL0     C 1406   6.661  10.810  11.426  0.6076 -0.3999 -0.1601
  752MOL0     C 1407   6.801  10.868  11.401  0.0186 -0.0135  0.6839
  752MOL0     C 1408   6.864  10.939  11.522  0.4039  0.0481  0.8597
  752MOL0     O 1409   7.002  10.979  11.493  0.0313 -0.4070 -0.2027
  752MOL0     C 1410   7.086  10.988  11.598  1.0546  0.0899 -0.3888
  752MOL0     C 1411   7.221  10.982  11.569  0.2289  0.2901 -0.3074
  752MOL0     C 1412   7.314  11.001  11.671 -0.0982  0.2023  0.4590
  752MOL0     C 1413   7.461  11.026  11.630  0.5791 -0.1048  0.6720
  752MOL0     C 1414   7.276  11.008  11.810 -0.0204  0.7294 -0.5502
  752MOL0     C 1415   7.361  11.005  11.932 -0.5028 -0.0138 -0.1563
  752MOL0     O 1416   7.315  11.059  12.039 -0.0952 -0.1617  0.1456
  752MOL0     C 1417   7.395  11.109  12.151  0.2954 -0.4094  0.3665
  752MOL0     C 1418   7.514  11.053  12.186  0.3884 -0.0183 -0.4923
  752MOL0     C 1419   7.577  11.101  12.297 -0.7008  0.1310 -0.0181
  752MOL0     C 1420   7.544  11.206  12.372  0.6343 -0.1094  0.3887
  752MOL0     O 1421   7.627  11.253  12.466  0.2569  0.4265 -0.2925
  752MOL0     C 1422   7.585  11.360  12.559  0.3950  0.6087 -0.1552
  752MOL0     C 1423   7.694  11.390  12.660 -0.6460  0.0014  0.3278
  752MOL0     C 1424   7.847  11.388  12.616  0.1656  0.1215 -0.1614
  752MOL0     C 1425   7.944  11.387  12.732  0.3076  0.4801 -0.5446
  752MOL0     C 1426   8.089  11.388  12.673 -0.6919 -0.2766 -0.5308
  752MOL0     C 1427   8.184  11.344  12.784 -0.4054 -0.0856  0.5233
  752MOL0     C 1428   8.334  11.351  12.750 -1.1524 -1.2052 -0.3181
  752MOL0     C 1429   8.426  11.367  12.862 -0.2231 -0.0715  0.6174
  752MOL0    Cl 1430   8.389  11.226  12.975  0.3747 -0.2276  0.0030
  752MOL0     C 1431   7.407  11.256  12.348 -0.1705 -0.5240 -0.2433
  752MOL0     C 1432   7.342  11.219  12.229 -0.0403  0.0096  0.1675
  752MOL0     O 1433   7.477  10.960  11.919 -0.3697 -0.3103 -0.2212
  752MOL0     C 1434   7.135  10.998  11.837  0.7714 -0.3599  0.2966
  752MOL0     C 1435   7.041  11.004  11.727 -0.8392  0.8705  0.3489
  752MOL0     N 1436   6.418  10.892  11.226  0.4587  0.2393  0.1295
  752MOL0     N 1437   6.327  10.810  11.183 -0.2546  0.3532  0.2939
  752MOL0     C 1438   6.886   9.745  10.981 -0.9203  0.2158 -0.1183
  752MOL0     C 1439   7.016   9.739  11.041 -0.2135  0.2504  0.0171
  752MOL0     C 1440   7.297   9.830  11.406  0.2142 -0.2821 -0.1557
  752MOL0     C 1441   7.377   9.720  11.370  0.8991  0.6246 -0.8543
  752MOL0     C 1442   7.452   9.646  11.466  0.3864 -0.6018  0.2778
  752MOL0     C 1443   7.468   9.706  11.593  0.3640  0.5903  1.0819
  752MOL0     O 1444   7.543   9.657  11.697 -0.3221 -0.4572 -0.9544
  752MOL0     C 1445   7.577   9.511  11.702 -0.4105 -0.3464  1.0947
  752MOL0     C 1446   7.713   9.480  11.647  0.4719  0.7127  0.5145
  752MOL0     C 1447   7.796   9.367  11.718 -0.5815 -0.0238  0.2528
  752MOL0     C 1448   7.947   9.377  11.713 -0.4544  1.2328  0.5854
  752MOL0     C 1449   7.989   9.354  11.580  0.3604  0.2554 -0.7823
  752MOL0     C 1450   8.011   9.346  11.462 -0.9623  0.1269 -0.4841
  752MOL0     C 1451   7.398   9.826  11.622 -0.4083  0.4086  0.2895
  752MOL0     C 1452   7.326   9.886  11.531  0.0223 -1.3389 -0.7216
  752MOL0     H 1453   6.970  10.022  11.241  1.4017 -0.4772  1.0350
  752MOL0     H 1454   6.770  10.017  11.146  1.8949  1.8237  2.0745
  752MOL0     H 1455   6.472   9.794  11.068  1.7510 -1.4934 -0.4307
  752MOL0     H 1456   6.576   9.866  11.188 -3.6685  1.7579  0.4206
  752MOL0     H 1457   6.582  10.078  11.062 -1.8294 -0.4337 -0.1917
  752MOL0     H 1458   6.451  10.015  10.959  2.3268  3.4401 -2.0076
  752MOL0     H 1459   6.320   9.966  11.170  2.6597 -2.8093  0.1421
  752MOL0     H 1460   6.447  10.038  11.269 -0.9439 -3.9200  2.2644
  752MOL0     H 1461   6.429  10.252  11.202 -1.4165  0.2578  0.6773
  752MOL0     H 1462   6.350  10.202  11.038  0.6629  0.5171 -0.3310
  752MOL0     H 1463   6.144  10.159  11.191  2.2766 -3.4938 -2.9962
  752MOL0     H 1464   6.246  10.200  11.332  2.8041 -2.0164 -0.5661
  752MOL0     H 1465   6.160  10.372  11.108  0.8285 -2.2479 -0.0745
  752MOL0     H 1466   6.109  10.391  11.286  0.1321 -0.2487 -0.8172
  752MOL0     H 1467   6.361  10.465  11.298  1.3993 -4.7170 -1.8039
  752MOL0     H 1468   6.345  10.495  11.129 -0.2525 -2.1824  1.0814
  752MOL0     H 1469   6.139  10.602  11.338  0.6910 -2.2062  2.0021
  752MOL0     H 1470   6.139  10.627  11.161  0.4898 -4.2873  0.0641
  752MOL0     H 1471   6.306  10.739  11.494  0.3955 -0.0892  0.1149
  752MOL0     H 1472   6.584  11.007  11.385 -0.9166  1.3877 -0.4097
  752MOL0     H 1473   6.522  10.947  11.535 -1.4364  1.9747 -1.0374
  752MOL0     H 1474   6.633  10.724  11.364  1.3387 -0.8032  0.0672
  752MOL0     H 1475   6.671  10.764  11.524  2.5379 -0.4121 -0.3172
  752MOL0     H 1476   6.812  10.935  11.315 -1.5375 -1.3830 -0.6397
  752MOL0     H 1477   6.867  10.783  11.381 -0.4550 -0.2140 -0.0568
  752MOL0     H 1478   6.856  10.878  11.613 -0.5124 -0.3540  0.5160
  752MOL0     H 1479   6.802  11.027  11.542 -0.3904  0.6706 -3.4504
  752MOL0     H 1480   7.256  10.947  11.472  1.7082 -0.1260  0.3566
  752MOL0     H 1481   7.525  10.948  11.672 -0.0325 -0.2668  1.3117
  752MOL0     H 1482   7.485  11.030  11.524  0.6695 -0.2058  0.6881
  752MOL0     H 1483   7.506  11.118  11.670  0.7979  0.1017 -0.0479
  752MOL0     H 1484   7.558  10.969  12.134  0.4145 -2.9860  3.7843
  752MOL0     H 1485   7.671  11.051  12.320 -1.5478 -1.8222 -0.6251
  752MOL0     H 1486   7.568  11.449  12.499  2.5105  0.4831 -1.0119
  752MOL0     H 1487   7.504  11.332  12.627  1.0131  1.1972  0.8332
  752MOL0     H 1488   7.680  11.487  12.709 -0.7621  0.3015 -0.2890
  752MOL0     H 1489   7.689  11.323  12.746  3.2897 -0.8967  0.0671
  752MOL0     H 1490   7.863  11.466  12.541 -0.5432 -2.5260 -3.2715
  752MOL0     H 1491   7.871  11.293  12.568  0.5075 -0.6577  1.4617
  752MOL0     H 1492   7.914  11.463  12.805 -0.6785 -1.8167  1.6090
  752MOL0     H 1493   7.927  11.295  12.789 -1.4239  1.4924  0.7006
  752MOL0     H 1494   8.114  11.494  12.661  1.2242 -0.4438  1.3409
  752MOL0     H 1495   8.107  11.332  12.581  3.6474  1.4095 -0.9479
  752MOL0     H 1496   8.173  11.419  12.862 -4.4072 -2.5550  2.6534
  752MOL0     H 1497   8.148  11.247  12.821 -1.5372  0.0853 -0.0976
  752MOL0     H 1498   8.351  11.437  12.684  4.9901  0.6288  2.8715
  752MOL0     H 1499   8.353  11.255  12.701 -1.7292 -1.4440 -0.0858
  752MOL0     H 1500   8.406  11.463  12.909 -3.2761 -0.1888 -0.2612
  752MOL0     H 1501   8.524  11.361  12.814 -0.8392 -0.9466 -0.6002
  752MOL0     H 1502   7.360  11.337  12.403 -0.3172 -0.6445 -0.1920
  752MOL0     H 1503   7.256  11.278  12.200  1.1703  0.8365 -1.9055
  752MOL0     H 1504   7.094  11.013  11.937 -0.6591  2.3043 -0.5911
  752MOL0     H 1505   6.933  11.013  11.740 -0.7509  1.0639  0.9376
  752MOL0     H 1506   6.850   9.674  10.907  1.9717 -2.9160  1.1835
  752MOL0     H 1507   7.092   9.671  11.002 -0.3748 -1.3093  2.2092
  752MOL0     H 1508   7.377   9.691  11.265 -2.2726  2.2180 -1.4119
  752MOL0     H 1509   7.495   9.550  11.440  2.7850  0.7609 -1.1789
  752MOL0     H 1510   7.575   9.476  11.806  3.5253 -3.0656  0.4818
  752MOL0     H 1511   7.508   9.456  11.638 -0.5500  2.1327 -1.0617
  752MOL0     H 1512   7.764   9.576  11.663  1.6102  0.7800 -2.6427
  752MOL0     H 1513   7.718   9.476  11.538  1.1456  1.2534  0.5166
  752MOL0     H 1514   7.780   9.267  11.676  1.7584 -0.1253 -0.5183
  752MOL0     H 1515   7.763   9.362  11.823 -0.5432  0.6794  0.2999
  752MOL0     H 1516   7.988   9.296  11.773  0.2000  0.4016 -0.9445
  752MOL0     H 1517   7.964   9.476  11.758 -2.4847  0.7325  2.6479
  752MOL0     H 1518   8.031   9.343  11.357  0.0622  0.1464 -0.2933
  752MOL0     H 1519   7.399   9.854  11.726 -1.5532  2.5912 -0.2225
  752MOL0     H 1520   7.270   9.975  11.557  1.6716 -0.8218  1.3172
  753MOL0     O 1521   4.668   8.901   9.892  0.3886 -0.6804  0.0141
  753MOL0     C 1522   4.556   8.931   9.857  0.1192  0.3642 -0.3256
  753MOL0     O 1523   4.470   8.843   9.814 -0.3785 -0.0562  0.0593
  753MOL0     C 1524   4.363   8.872   9.737 -0.4233  0.1047  0.1631
  753MOL0     C 1525   4.256   8.785   9.747  0.1142  0.1088  1.0446
  753MOL0     C 1526   4.149   8.804   9.665  0.3167 -0.6156 -0.4082
  753MOL0     C 1527   4.149   8.906   9.567 -0.3534  0.5313  0.3162
  753MOL0     O 1528   4.055   8.890   9.470 -0.1365  0.5211  0.0441
  753MOL0     C 1529   4.035   8.991   9.367  0.1792 -0.7209 -0.0472
  753MOL0     C 1530   3.920   8.937   9.280 -0.4869 -0.0335  0.0913
  753MOL0     C 1531   3.787   8.939   9.352 -0.9344 -0.9354 -0.0691
  753MOL0     C 1532   3.690   9.030   9.282 -1.3883 -0.1136  0.1857
  753MOL0     C 1533   3.551   9.018   9.349  0.7747  0.0717 -0.3121
  753MOL0     C 1534   3.462   9.113   9.282 -0.0500 -0.3185 -0.0533
  753MOL0     C 1535   3.314   9.085   9.320 -1.1994  0.0638  0.3292
  753MOL0     C 1536   3.243   9.208   9.268  0.4421  0.5639  0.0217
  753MOL0     N 1537   3.101   9.178   9.258 -0.9612  0.2359  0.5599
  753MOL0     C 1538   3.001   9.157   9.349  0.3628 -0.3021 -0.2726
  753MOL0     C 1539   2.890   9.139   9.274  0.1043 -0.0316 -0.6552
  753MOL0     C 1540   2.734   9.138   9.317  0.0156  0.5113 -0.2039
  753MOL0     C 1541   2.710   9.070   9.451 -0.1109 -0.5317 -0.4318
  753MOL0     C 1542   2.565   9.018   9.475  0.8113 -0.8437  0.3853
  753MOL0     C 1543   2.453   9.124   9.435  0.0106  0.1352 -0.5137
  753MOL0     O 1544   2.498   9.257   9.467 -0.1548  0.0893 -0.1996
  753MOL0     C 1545   2.411   9.323   9.543  0.3823  0.5993  0.5932
  753MOL0     C 1546   2.457   9.361   9.668 -0.8446  0.3884  0.5934
  753MOL0     C 1547   2.391   9.461   9.741 -0.8077  0.2152 -1.2096
  753MOL0     C 1548   2.455   9.504   9.873  0.3316  0.1887 -0.5916
  753MOL0     C 1549   2.288   9.529   9.692  0.3271 -0.2999 -0.6520
  753MOL0     C 1550   2.220   9.649   9.743  0.6396 -0.3127 -1.2155
  753MOL0     O 1551   2.131   9.708   9.661 -0.9930 -0.3936  0.0957
  753MOL0     C 1552   2.058   9.805   9.723  0.5574  0.3788 -0.1141
  753MOL0     C 1553   2.088   9.941   9.706 -0.2755 -0.3024  0.2029
  753MOL0     C 1554   2.016  10.046   9.761  0.9250  0.4633 -0.5627
  753MOL0     C 1555   1.898  10.016   9.837  0.4530 -0.5781 -0.1837
  753MOL0     O 1556   1.828  10.115   9.913 -0.8431 -0.4916  0.8273
  753MOL0     C 1557   1.840  10.246   9.864 -0.9666  0.0707  0.6060
  753MOL0     C 1558   1.743  10.339   9.927  0.0314 -0.2151 -0.0946
  753MOL0     C 1559   1.601  10.297   9.883 -0.2908  0.2429 -0.7784
  753MOL0     C 1560   1.501  10.380   9.962 -0.8088 -0.4869  0.0732
  753MOL0     C 1561   1.360  10.349   9.937  0.2855  0.6138 -0.1826
  753MOL0     C 1562   1.260  10.440  10.017 -0.2018  0.8214  0.0274
  753MOL0     C 1563   1.117  10.430   9.958  0.0100 -0.4029 -0.2613
  753MOL0     C 1564   1.030  10.547  10.001  0.8770  0.0669  0.7883
  753MOL0    Cl 1565   1.059  10.602  10.163  0.9005  0.0528 -0.1499
  753MOL0     C 1566   1.860   9.879   9.849 -0.9515 -0.6983 -0.5030
  753MOL0     C 1567   1.936   9.775   9.792 -0.2798 -0.2696 -0.0577
  753MOL0     O 1568   2.245   9.692   9.855  0.1246 -0.5845  0.0712
  753MOL0     C 1569   2.238   9.479   9.567  0.9541 -0.5836 -0.4293
  753MOL0     C 1570   2.298   9.378   9.493  0.5051 -0.5549  0.4621
  753MOL0     N 1571   2.931   9.129   9.141  0.3200 -0.1693 -0.2164
  753MOL0     N 1572   3.050   9.146   9.135  0.1569 -0.1698 -0.7544
  753MOL0     C 1573   4.252   8.996   9.562  1.0727  0.4902  0.5364
  753MOL0     C 1574   4.358   8.976   9.647 -0.3449 -0.7669 -0.3880
  753MOL0     C 1575   4.508   9.070   9.892 -0.6344 -0.4220  0.0044
  753MOL0     C 1576   4.379   9.098   9.946 -0.1083  0.0299  0.1042
  753MOL0     C 1577   4.339   9.225   9.989  0.1769  0.1903  0.3443
  753MOL0     C 1578   4.430   9.334   9.996 -0.5305  0.3788  0.3881
  753MOL0     O 1579   4.379   9.445  10.043 -0.0662 -0.4417  0.4640
  753MOL0     C 1580   4.452   9.571  10.054  0.1804  0.0454 -0.6476
  753MOL0     C 1581   4.411   9.663  10.166  0.6066 -0.0216  0.0213
  753MOL0     C 1582   4.270   9.709  10.158  0.0700  0.4691  0.1971
  753MOL0     C 1583   4.218   9.794  10.277  0.3779  0.7183  0.0499
  753MOL0     C 1584   4.075   9.759  10.324 -0.1996 -0.2773  0.3291
  753MOL0     C 1585   3.958   9.744  10.355 -0.3173  0.3647 -1.0895
  753MOL0     C 1586   4.563   9.303   9.959 -0.2263 -1.1805 -0.5534
  753MOL0     C 1587   4.604   9.177   9.902 -0.0494 -0.8176  0.5156
  753MOL0     H 1588   4.253   8.694   9.805  0.1798 -0.1917  0.5845
  753MOL0     H 1589   4.075   8.725   9.662 -0.2500 -0.2785  2.3923
  753MOL0     H 1590   3.988   9.080   9.409  0.5297 -1.3304  1.6851
  753MOL0     H 1591   4.118   9.019   9.301  0.6806 -2.4951 -0.2202
  753MOL0     H 1592   3.921   8.988   9.183 -1.2094 -1.0006 -0.4497
  753MOL0     H 1593   3.967   8.839   9.264  2.7048  1.5559 -0.9949
  753MOL0     H 1594   3.741   8.841   9.371  0.1100 -1.1474  1.6161
  753MOL0     H 1595   3.797   8.983   9.452  2.4618 -0.0373 -0.6944
  753MOL0     H 1596   3.739   9.128   9.283  1.4393 -1.4470  0.1955
  753MOL0     H 1597   3.678   8.991   9.181 -1.6332 -2.7837  1.1658
  753MOL0     H 1598   3.499   8.923   9.331 -0.1116  0.6483 -0.8666
  753MOL0     H 1599   3.549   9.038   9.457  0.5527  0.2554 -0.3496
  753MOL0     H 1600   3.501   9.210   9.315  2.5921 -0.1838 -3.0202
  753MOL0     H 1601   3.493   9.119   9.177  1.1545  2.3432  0.3564
  753MOL0     H 1602   3.281   8.991   9.274  0.6366  0.0393 -1.0662
  753MOL0     H 1603   3.305   9.084   9.429  1.5260 -2.2240  0.6520
  753MOL0     H 1604   3.285   9.243   9.173  0.7737  2.1924  0.7438
  753MOL0     H 1605   3.262   9.292   9.335  1.7469  0.5127 -0.2735
  753MOL0     H 1606   3.014   9.174   9.455  0.1273  0.6993 -0.3896
  753MOL0     H 1607   2.704   9.242   9.330 -0.8813 -0.1371  4.4708
  753MOL0     H 1608   2.671   9.085   9.244 -0.4518  0.0415  0.5295
  753MOL0     H 1609   2.745   9.141   9.527  0.8581 -2.5794  1.1314
  753MOL0     H 1610   2.774   8.985   9.476  0.8976  0.4936  0.6316
  753MOL0     H 1611   2.551   8.997   9.581 -0.9670 -0.8292  0.1843
  753MOL0     H 1612   2.552   8.925   9.418  2.6667 -0.5278 -0.6435
  753MOL0     H 1613   2.363   9.082   9.481  2.2778 -3.1919  1.2746
  753MOL0     H 1614   2.454   9.131   9.325 -1.7054  0.9826 -0.5042
  753MOL0     H 1615   2.543   9.308   9.706 -0.3423  1.1268  0.5038
  753MOL0     H 1616   2.493   9.606   9.876 -1.7797  1.0759 -1.6042
  753MOL0     H 1617   2.381   9.490   9.953  1.8856  0.0498  0.8814
  753MOL0     H 1618   2.545   9.445   9.891  0.8170  0.2891 -2.4886
  753MOL0     H 1619   2.176   9.960   9.645  0.0679  1.1879  1.1101
  753MOL0     H 1620   2.041  10.148   9.733  0.8028  0.5333 -0.4188
  753MOL0     H 1621   1.938  10.291   9.879 -0.9100  0.7596 -1.4884
  753MOL0     H 1622   1.823  10.246   9.756  0.3732  1.8901  0.3486
  753MOL0     H 1623   1.749  10.336  10.036 -2.7099 -0.3564  0.1192
  753MOL0     H 1624   1.765  10.442   9.896 -0.6718 -0.1025 -0.2303
  753MOL0     H 1625   1.576  10.197   9.920 -1.0436  2.3242  5.4961
  753MOL0     H 1626   1.581  10.316   9.777  2.9033  0.1675 -1.5106
  753MOL0     H 1627   1.511  10.364  10.070 -2.8473  4.3638  1.2698
  753MOL0     H 1628   1.530  10.480   9.931 -0.0307 -0.4996  0.7299
  753MOL0     H 1629   1.332  10.248   9.969 -2.0154  0.6171 -1.9012
  753MOL0     H 1630   1.324  10.359   9.834 -1.2520  3.5550  0.5430
  753MOL0     H 1631   1.265  10.416  10.124 -0.1320 -0.7901 -0.3226
  753MOL0     H 1632   1.293  10.544  10.013  0.3268  0.6689  0.2979
  753MOL0     H 1633   1.074  10.334   9.988  0.8521 -0.1032  2.1524
  753MOL0     H 1634   1.134  10.437   9.850 -1.7599 -0.1796 -0.5656
  753MOL0     H 1635   0.926  10.518   9.987  0.5856  1.3012  0.2327
  753MOL0     H 1636   1.055  10.625   9.928  0.0851 -1.9167 -1.7108
  753MOL0     H 1637   1.773   9.857   9.910 -0.2807 -0.6576  0.4961
  753MOL0     H 1638   1.913   9.669   9.801 -0.1643 -0.3163 -0.3169
  753MOL0     H 1639   2.149   9.523   9.522  1.5224  1.3518  0.2421
  753MOL0     H 1640   2.264   9.347   9.395  2.0847 -1.5540  0.1908
  753MOL0     H 1641   4.249   9.085   9.499  1.2291  3.0549  3.8312
  753MOL0     H 1642   4.444   9.042   9.639 -0.6614 -0.1960  0.7625
  753MOL0     H 1643   4.316   9.014   9.972 -0.3459 -0.3636 -1.6201
  753MOL0     H 1644   4.242   9.229  10.037  0.3481  3.5965  0.6203
  753MOL0     H 1645   4.560   9.564  10.066  0.3601  1.9562 -0.8215
  753MOL0     H 1646   4.445   9.624   9.958  2.0387 -0.5421 -1.1536
  753MOL0     H 1647   4.481   9.746  10.177 -1.2279  1.4423  1.1856
  753MOL0     H 1648   4.412   9.615  10.265 -1.2629  3.6143  2.0342
  753MOL0     H 1649   4.210   9.619  10.143 -0.5541  0.6328  1.5128
  753MOL0     H 1650   4.260   9.758  10.061  0.4285 -3.2543 -1.8714
  753MOL0     H 1651   4.207   9.894  10.235 -2.3119  0.8366  0.8165
  753MOL0     H 1652   4.282   9.794  10.365 -1.6910  1.7610  1.6640
  753MOL0     H 1653   3.856   9.718  10.376  0.4137 -1.8018  0.1278
  753MOL0     H 1654   4.645   9.374   9.964  1.3126 -2.7612 -1.7522
  753MOL0     H 1655   4.697   9.127   9.875  0.2481 -0.7497  1.3962
  754MOL0     O 1656   6.397   8.150   5.009 -0.6951 -0.1119 -0.2492
  754MOL0     C 1657   6.357   8.032   5.018 -0.8539 -0.4293  0.2204
  754MOL0     O 1658   6.421   7.925   4.977 -1.6022  0.2027 -0.6441
  754MOL0     C 1659   6.511   7.925   4.868  0.4682  0.1038 -1.0187
  754MOL0     C 1660   6.489   7.837   4.758 -0.8910  0.5363 -0.3182
  754MOL0     C 1661   6.587   7.812   4.662  1.1397  0.7937 -0.5193
  754MOL0     C 1662   6.707   7.880   4.671  0.2519  0.5081  0.6981
  754MOL0     O 1663   6.796   7.857   4.567 -0.2628 -0.1360  0.0503
  754MOL0     C 1664   6.897   7.949   4.538  0.0290 -0.7999 -0.1386
  754MOL0     C 1665   6.947   7.909   4.404 -0.1625 -0.7342 -0.3654
  754MOL0     C 1666   6.845   7.914   4.290  0.3950 -0.3640  0.1466
  754MOL0     C 1667   6.911   7.890   4.155  0.8527  1.2819  0.5835
  754MOL0     C 1668   6.941   8.020   4.080 -0.4771  0.6415  0.6079
  754MOL0     C 1669   7.045   7.976   3.966  0.1725  0.3621  0.0481
  754MOL0     C 1670   7.122   8.098   3.929  0.0383 -0.2849 -0.6647
  754MOL0     C 1671   7.038   8.225   3.894 -0.9959 -0.5710  0.0393
  754MOL0     N 1672   6.950   8.201   3.777  0.7907 -0.3617  0.1508
  754MOL0     C 1673   6.816   8.206   3.770 -0.1827  0.3852  1.1396
  754MOL0     C 1674   6.778   8.200   3.644 -0.6380 -0.1245  0.1841
  754MOL0     C 1675   6.642   8.195   3.598 -0.2791  0.8826  0.1384
  754MOL0     C 1676   6.628   8.281   3.468  0.6876  0.3124 -0.1372
  754MOL0     C 1677   6.609   8.178   3.359  0.3279  0.3185  0.2538
  754MOL0     C 1678   6.612   8.230   3.218  0.2890  0.1031  0.5376
  754MOL0     O 1679   6.531   8.353   3.211 -0.7820 -0.1832 -0.5440
  754MOL0     C 1680   6.392   8.353   3.221  0.2359 -0.1640 -0.7889
  754MOL0     C 1681   6.344   8.481   3.216  0.2350 -0.0023  0.4413
  754MOL0     C 1682   6.207   8.506   3.210 -1.0271 -0.7626 -0.4554
  754MOL0     C 1683   6.165   8.641   3.236  0.0036 -0.2558  0.0497
  754MOL0     C 1684   6.117   8.393   3.205 -0.2493 -0.5672 -0.0120
  754MOL0     C 1685   5.968   8.406   3.181  0.1847  0.8476  0.0659
  754MOL0     O 1686   5.924   8.532   3.161 -0.4114 -1.1365 -0.0905
  754MOL0     C 1687   5.793   8.565   3.157 -0.1453  0.8880  0.8777
  754MOL0     C 1688   5.733   8.619   3.276  0.1508 -0.0720  0.5490
  754MOL0     C 1689   5.596   8.633   3.291  0.8404  0.1500 -0.0742
  754MOL0     C 1690   5.511   8.609   3.182 -0.4358 -0.0752  0.1379
  754MOL0     O 1691   5.370   8.623   3.188 -0.3383 -0.0990  0.4748
  754MOL0     C 1692   5.293   8.614   3.063  0.1705  0.5789 -0.1642
  754MOL0     C 1693   5.140   8.634   3.090  0.3241 -0.8167  0.8925
  754MOL0     C 1694   5.054   8.604   2.960 -0.1261 -0.0781 -0.2491
  754MOL0     C 1695   4.905   8.614   2.997 -0.6624  0.3851 -0.0511
  754MOL0     C 1696   4.808   8.618   2.877 -0.2362 -0.1411 -1.0344
  754MOL0     C 1697   4.677   8.699   2.903  0.7544  0.8109 -0.6846
  754MOL0     C 1698   4.602   8.694   2.764  1.3706  0.0838 -0.8203
  754MOL0     C 1699   4.450   8.715   2.775  0.2996  0.1836  0.3138
  754MOL0    Cl 1700   4.389   8.604   2.896  0.0044 -0.2130  0.3848
  754MOL0     C 1701   5.565   8.544   3.078 -0.8316  0.1798  0.0548
  754MOL0     C 1702   5.705   8.533   3.059 -0.0824  1.0852  0.5719
  754MOL0     O 1703   5.893   8.303   3.198  0.0404  0.4612 -0.4730
  754MOL0     C 1704   6.169   8.263   3.209 -0.3417 -0.3085 -0.3926
  754MOL0     C 1705   6.304   8.242   3.215 -0.1060 -1.5671  0.7949
  754MOL0     N 1706   6.890   8.188   3.572 -0.5607 -0.7836  0.2392
  754MOL0     N 1707   6.994   8.176   3.652  0.3424 -0.1095 -0.8744
  754MOL0     C 1708   6.734   7.972   4.771 -0.0840 -0.0518  0.1720
  754MOL0     C 1709   6.637   7.996   4.867  0.5016  0.2707  0.2254
  754MOL0     C 1710   6.233   8.003   5.088  0.5720  0.8074  0.0730
  754MOL0     C 1711   6.184   7.867   5.094 -0.3378 -0.3721 -0.3669
  754MOL0     C 1712   6.065   7.842   5.161 -0.8464 -0.2146 -1.1987
  754MOL0     C 1713   6.003   7.951   5.222 -0.8059 -0.4415  0.3609
  754MOL0     O 1714   5.879   7.950   5.280 -0.3594  1.1048  0.3094
  754MOL0     C 1715   5.828   7.819   5.313  0.0669 -0.1635 -0.8501
  754MOL0     C 1716   5.843   7.786   5.458  0.0232  0.4544  0.7009
  754MOL0     C 1717   5.809   7.906   5.549 -0.0772  0.5775  0.2394
  754MOL0     C 1718   5.913   7.908   5.674  0.2744 -0.1696  1.1950
  754MOL0     C 1719   5.876   7.833   5.796  0.3762 -0.1125  0.4282
  754MOL0     C 1720   5.867   7.790   5.906 -0.0999  0.6777  0.2776
  754MOL0     C 1721   6.049   8.080   5.217  0.5965  0.1244 -0.3194
  754MOL0     C 1722   6.158   8.108   5.146  0.1893 -0.3074 -0.7670
  754MOL0     H 1723   6.396   7.784   4.742  1.0670 -3.2226 -0.2033
  754MOL0     H 1724   6.554   7.750   4.580 -1.4230  1.1642  0.1476
  754MOL0     H 1725   6.864   8.053   4.532  0.9379 -0.5124 -0.3041
  754MOL0     H 1726   6.985   7.932   4.601  1.2642 -1.2167 -1.8912
  754MOL0     H 1727   7.023   7.983   4.377  0.2751 -1.1311 -0.2317
  754MOL0     H 1728   6.997   7.812   4.409 -1.3238 -1.3504 -0.2866
  754MOL0     H 1729   6.776   7.831   4.313  1.2393 -0.8261  1.0771
  754MOL0     H 1730   6.795   8.011   4.285 -0.2312 -0.6374  0.7475
  754MOL0     H 1731   6.998   7.826   4.172  0.1451  0.1771  0.1463
  754MOL0     H 1732   6.838   7.831   4.098  1.3748  1.1341  0.0604
  754MOL0     H 1733   6.852   8.067   4.038 -0.7076 -0.1428  0.1996
  754MOL0     H 1734   6.986   8.093   4.149 -0.1826 -1.9356  3.3480
  754MOL0     H 1735   7.115   7.901   4.005 -0.1173  0.5605  0.9725
  754MOL0     H 1736   6.983   7.938   3.885 -2.3378  0.4109  1.8264
  754MOL0     H 1737   7.177   8.128   4.019  1.6576  0.4752 -1.8537
  754MOL0     H 1738   7.190   8.088   3.844 -0.4375  0.0113 -1.0866
  754MOL0     H 1739   7.103   8.306   3.863 -2.6263  1.1805  1.0140
  754MOL0     H 1740   6.985   8.268   3.979  0.8387  1.8657  0.0575
  754MOL0     H 1741   6.750   8.219   3.855 -0.7444 -0.6946  0.8740
  754MOL0     H 1742   6.617   8.090   3.582  1.9055  0.2031  0.8180
  754MOL0     H 1743   6.570   8.237   3.669 -0.8919  2.3167 -1.2673
  754MOL0     H 1744   6.718   8.338   3.445  1.8408 -2.0552 -1.9537
  754MOL0     H 1745   6.545   8.349   3.488  1.5992  1.1616  0.8806
  754MOL0     H 1746   6.521   8.115   3.378  1.5473 -1.3295  0.6973
  754MOL0     H 1747   6.694   8.109   3.361  0.9403  0.8946 -2.0333
  754MOL0     H 1748   6.568   8.165   3.142  0.6916  0.5501 -0.0808
  754MOL0     H 1749   6.717   8.255   3.199  1.0139 -1.8217  1.6514
  754MOL0     H 1750   6.411   8.566   3.205 -1.3717  1.4356  1.3873
  754MOL0     H 1751   6.236   8.704   3.291 -0.4935  0.8029 -0.5060
  754MOL0     H 1752   6.153   8.686   3.137  2.3009  1.3276  0.4129
  754MOL0     H 1753   6.076   8.652   3.299 -1.1845 -0.0708 -1.6019
  754MOL0     H 1754   5.816   8.639   3.344 -1.7877  0.2920  2.9835
  754MOL0     H 1755   5.555   8.679   3.380 -0.9064 -1.3365 -0.0366
  754MOL0     H 1756   5.332   8.675   2.981 -1.0896  1.8685  0.1397
  754MOL0     H 1757   5.305   8.512   3.025  3.4189 -0.0637  2.2279
  754MOL0     H 1758   5.114   8.558   3.165 -1.1386 -0.4475  0.7958
  754MOL0     H 1759   5.110   8.736   3.117 -0.9317 -1.0539  0.4819
  754MOL0     H 1760   5.082   8.511   2.910 -0.2801 -0.0702 -0.3517
  754MOL0     H 1761   5.084   8.691   2.902 -0.7059 -1.1033 -2.1716
  754MOL0     H 1762   4.881   8.535   3.069  2.5903  0.3121  1.0975
  754MOL0     H 1763   4.876   8.707   3.048 -2.0653  1.8133 -3.1758
  754MOL0     H 1764   4.771   8.515   2.868  2.0925 -1.2370  0.9508
  754MOL0     H 1765   4.853   8.663   2.788  1.3166  0.2361 -0.0758
  754MOL0     H 1766   4.619   8.645   2.978 -1.2293 -1.3876 -3.5460
  754MOL0     H 1767   4.691   8.803   2.935  1.4643  0.6162 -0.3368
  754MOL0     H 1768   4.628   8.603   2.709  2.4854  2.3109 -4.3155
  754MOL0     H 1769   4.631   8.767   2.688 -0.8164  2.3465  0.3907
  754MOL0     H 1770   4.403   8.699   2.678 -0.0969  1.7147  0.2295
  754MOL0     H 1771   4.437   8.820   2.803 -1.3086  0.1899 -0.3801
  754MOL0     H 1772   5.519   8.485   2.999  0.1112 -0.5721  0.0332
  754MOL0     H 1773   5.741   8.471   2.977 -1.2505 -0.3459  1.0835
  754MOL0     H 1774   6.098   8.181   3.213 -1.1891  0.4509  0.5755
  754MOL0     H 1775   6.344   8.142   3.228  0.0105 -1.5235  0.7678
  754MOL0     H 1776   6.836   8.004   4.789  1.7039 -4.5545 -0.6252
  754MOL0     H 1777   6.670   8.047   4.957  4.5426  0.2745 -1.0666
  754MOL0     H 1778   6.231   7.790   5.034 -1.4919  0.3472 -2.3187
  754MOL0     H 1779   6.028   7.740   5.173  2.1262 -1.2799 -0.2976
  754MOL0     H 1780   5.721   7.833   5.297 -0.1547  1.7556  1.6355
  754MOL0     H 1781   5.859   7.727   5.262 -0.1954 -1.3551  1.0249
  754MOL0     H 1782   5.949   7.762   5.464 -0.4114 -1.8139  0.3515
  754MOL0     H 1783   5.780   7.700   5.482 -1.0949  1.2428  0.7015
  754MOL0     H 1784   5.704   7.899   5.576  0.0937 -2.4584  0.3869
  754MOL0     H 1785   5.835   7.999   5.497  2.5965 -1.2202 -1.9297
  754MOL0     H 1786   5.912   8.003   5.728 -0.1060 -1.2859  3.2688
  754MOL0     H 1787   6.016   7.880   5.648 -0.5237 -0.8509 -1.5584
  754MOL0     H 1788   5.887   7.769   6.009  2.0383  0.3998 -0.1296
  754MOL0     H 1789   5.997   8.159   5.269  2.8947 -0.2704  2.8338
  754MOL0     H 1790   6.199   8.209   5.154 -0.0599 -0.3465  3.3472
  755MOL0     O 1791   9.390   8.257   2.823  0.8489 -1.2335 -0.3965
  755MOL0     C 1792   9.417   8.195   2.724 -0.6314 -0.0892  0.3870
  755MOL0     O 1793   9.327   8.120   2.639 -0.2794  0.2021 -0.1284
  755MOL0     C 1794   9.205   8.098   2.689  0.6592 -0.5521  0.4590
  755MOL0     C 1795   9.093   8.175   2.643  0.3912 -0.3616 -0.4171
  755MOL0     C 1796   8.967   8.147   2.690  0.9597  0.4347 -0.4445
  755MOL0     C 1797   8.941   8.041   2.772 -0.0263  0.3349  0.7805
  755MOL0     O 1798   8.821   7.982   2.811 -0.8692  0.2153  0.0207
  755MOL0     C 1799   8.730   8.075   2.879 -0.1114  0.3220 -0.6218
  755MOL0     C 1800   8.641   7.984   2.956  0.7047  0.5030 -0.1552
  755MOL0     C 1801   8.558   7.886   2.880  0.6078  0.1453 -0.2338
  755MOL0     C 1802   8.439   7.836   2.968  0.1513 -0.3005 -0.7758
  755MOL0     C 1803   8.368   7.718   2.914  0.1444 -0.3706 -0.6881
  755MOL0     C 1804   8.289   7.749   2.778 -1.0204 -0.4526 -0.7227
  755MOL0     C 1805   8.256   7.619   2.719  0.0537 -0.2303 -0.3739
  755MOL0     C 1806   8.126   7.559   2.781  0.0272  0.0310  0.2016
  755MOL0     N 1807   8.060   7.462   2.690 -0.2097  0.5026 -0.1782
  755MOL0     C 1808   7.987   7.483   2.571 -0.0319  0.5929  0.0085
  755MOL0     C 1809   7.950   7.359   2.528 -0.6914 -1.3734 -0.0711
  755MOL0     C 1810   7.849   7.336   2.411  0.9547 -0.9053 -0.1066
  755MOL0     C 1811   7.728   7.434   2.409 -0.4914  0.1829 -1.0868
  755MOL0     C 1812   7.627   7.417   2.301  1.0795  0.9549  0.5981
  755MOL0     C 1813   7.522   7.317   2.335 -1.2281 -0.1697  0.3293
  755MOL0     O 1814   7.411   7.329   2.244 -0.6227  0.7351 -0.7489
  755MOL0     C 1815   7.284   7.346   2.291 -0.1035  0.1167  0.7305
  755MOL0     C 1816   7.236   7.328   2.422  0.4411  0.3009  0.1190
  755MOL0     C 1817   7.103   7.354   2.459 -0.7827  0.4670  0.1603
  755MOL0     C 1818   7.072   7.331   2.607 -0.5228  0.0018 -1.5925
  755MOL0     C 1819   7.002   7.399   2.369  0.6836  0.2242 -0.7261
  755MOL0     C 1820   6.855   7.431   2.402 -0.2928 -0.5714 -0.5790
  755MOL0     O 1821   6.769   7.425   2.293 -0.5589 -1.1085 -0.6766
  755MOL0     C 1822   6.652   7.497   2.287 -1.4079  0.6839  0.5631
  755MOL0     C 1823   6.657   7.628   2.248  0.1449 -0.4326  0.4491
  755MOL0     C 1824   6.539   7.705   2.253  0.3686 -0.9161  1.3409
  755MOL0     C 1825   6.412   7.647   2.279 -0.3198 -0.4587 -0.0590
  755MOL0     O 1826   6.301   7.726   2.264  1.3251 -0.6686 -0.3556
  755MOL0     C 1827   6.168   7.673   2.275 -0.2460  0.2374 -0.7252
  755MOL0     C 1828   6.074   7.778   2.194  0.0274 -0.0396  0.0848
  755MOL0     C 1829   5.932   7.711   2.155  0.2501 -0.7859  0.4537
  755MOL0     C 1830   5.948   7.629   2.028  0.2045 -0.3682 -0.0372
  755MOL0     C 1831   5.808   7.569   1.972 -0.0973 -1.0267 -0.0490
  755MOL0     C 1832   5.690   7.669   1.965 -1.1578  0.6442  0.2740
  755MOL0     C 1833   5.562   7.603   1.908 -0.2298 -0.2437  0.6917
  755MOL0     C 1834   5.452   7.569   2.011 -0.9164 -0.1663  0.2257
  755MOL0    Cl 1835   5.315   7.497   1.906  0.1250  0.3369 -0.1157
  755MOL0     C 1836   6.415   7.512   2.313 -0.1026  0.3037  0.4854
  755MOL0     C 1837   6.529   7.436   2.319  0.5496 -0.1072  0.0191
  755MOL0     O 1838   6.820   7.463   2.513  0.6863  0.8988 -0.1365
  755MOL0     C 1839   7.051   7.424   2.238 -0.1056  0.4305  0.3171
  755MOL0     C 1840   7.185   7.395   2.198  0.1959 -0.1922  0.1934
  755MOL0     N 1841   8.007   7.268   2.605  0.3374 -0.2947  0.6950
  755MOL0     N 1842   8.065   7.327   2.707 -1.4222 -0.0855 -0.4736
  755MOL0     C 1843   9.045   7.961   2.817 -0.6953 -1.2355 -0.3721
  755MOL0     C 1844   9.179   7.996   2.776  0.3203  0.4523 -1.2102
  755MOL0     C 1845   9.553   8.227   2.666  0.7641  0.4008  0.6787
  755MOL0     C 1846   9.589   8.165   2.556 -0.7586  0.3914 -0.0110
  755MOL0     C 1847   9.717   8.178   2.504 -0.3670  0.0336 -0.4393
  755MOL0     C 1848   9.817   8.250   2.578 -0.0057 -0.3037 -0.1542
  755MOL0     O 1849   9.940   8.274   2.510 -0.3974  0.2732 -0.4989
  755MOL0     C 1850  10.031   8.163   2.490  0.2553 -0.6515 -0.6204
  755MOL0     C 1851  10.167   8.190   2.543  0.5249  0.2389 -0.2298
  755MOL0     C 1852  10.272   8.082   2.501  0.6509 -0.3183  0.4781
  755MOL0     C 1853  10.424   8.115   2.527 -0.3366 -0.1845  1.1176
  755MOL0     C 1854  10.449   8.239   2.452 -0.3637  0.8933  0.0542
  755MOL0     C 1855  10.476   8.334   2.375 -0.4970 -0.5160  0.0835
  755MOL0     C 1856   9.786   8.313   2.696 -0.3950 -1.0950  0.2935
  755MOL0     C 1857   9.651   8.311   2.739  0.6927  0.1302  0.5022
  755MOL0     H 1858   9.108   8.247   2.563 -1.3563 -0.2007 -0.6459
  755MOL0     H 1859   8.878   8.197   2.654 -1.7493 -2.9998  0.8157
  755MOL0     H 1860   8.798   8.137   2.938  0.8764  1.1572 -2.5393
  755MOL0     H 1861   8.673   8.135   2.807 -3.6286 -1.0422  0.7920
  755MOL0     H 1862   8.704   7.927   3.026 -1.6011 -1.7191  0.2578
  755MOL0     H 1863   8.581   8.042   3.026 -1.6393  3.2612 -4.0516
  755MOL0     H 1864   8.507   7.943   2.801 -1.1008  0.8592  1.3270
  755MOL0     H 1865   8.614   7.804   2.836  3.6310  1.5878  0.6718
  755MOL0     H 1866   8.479   7.810   3.066 -0.9848  2.0256  0.3912
  755MOL0     H 1867   8.375   7.922   2.991 -0.7000 -0.6594 -1.7237
  755MOL0     H 1868   8.443   7.641   2.900  1.1937  0.1326  1.6741
  755MOL0     H 1869   8.290   7.697   2.989 -0.6427  3.5347 -0.1795
  755MOL0     H 1870   8.211   7.825   2.788 -0.2195  0.0534  3.7406
  755MOL0     H 1871   8.366   7.782   2.707  1.2136 -1.4395  1.1478
  755MOL0     H 1872   8.223   7.638   2.616 -0.0478 -1.3510 -0.5677
  755MOL0     H 1873   8.339   7.549   2.707  2.2554  2.4596 -1.9520
  755MOL0     H 1874   8.042   7.628   2.796 -2.6691 -2.8808 -0.5454
  755MOL0     H 1875   8.156   7.513   2.875  0.8110  0.3497  0.1126
  755MOL0     H 1876   7.953   7.579   2.535 -1.4605 -0.2098 -0.8940
  755MOL0     H 1877   7.909   7.343   2.319  3.0636 -0.6421  1.2337
  755MOL0     H 1878   7.810   7.234   2.411  3.1714 -1.8247 -0.9084
  755MOL0     H 1879   7.779   7.529   2.387  0.1908  0.3446  0.9563
  755MOL0     H 1880   7.684   7.428   2.509 -0.6827  1.9957 -1.0264
  755MOL0     H 1881   7.662   7.387   2.202 -2.5996 -1.4935 -0.1971
  755MOL0     H 1882   7.577   7.514   2.292  5.0847  3.0534 -2.1308
  755MOL0     H 1883   7.508   7.345   2.440  3.6177  0.9137  0.9193
  755MOL0     H 1884   7.562   7.216   2.333 -0.2437  0.1988  0.8316
  755MOL0     H 1885   7.312   7.322   2.499  1.1579  2.0458 -0.4077
  755MOL0     H 1886   7.145   7.257   2.642 -0.3406 -0.7585 -3.4844
  755MOL0     H 1887   7.068   7.423   2.666 -1.9105  0.1888 -1.9599
  755MOL0     H 1888   6.973   7.285   2.620 -0.4151 -0.2502 -1.6434
  755MOL0     H 1889   6.746   7.679   2.211  0.8860 -0.7771  1.6895
  755MOL0     H 1890   6.530   7.810   2.230  1.9506 -1.1641 -0.6113
  755MOL0     H 1891   6.162   7.574   2.230  2.4821  0.3431 -1.4581
  755MOL0     H 1892   6.144   7.671   2.381  1.3768  1.0580 -0.3240
  755MOL0     H 1893   6.045   7.860   2.260 -1.4637 -2.3384  2.5318
  755MOL0     H 1894   6.119   7.817   2.103 -2.3451  2.7567 -0.0300
  755MOL0     H 1895   5.852   7.786   2.151 -0.2897 -1.2477  1.8246
  755MOL0     H 1896   5.900   7.645   2.237  1.2326 -0.1089  1.4028
  755MOL0     H 1897   5.993   7.687   1.947 -0.9232 -1.6630 -1.6603
  755MOL0     H 1898   6.017   7.547   2.049  0.0819 -0.0226  1.9809
  755MOL0     H 1899   5.781   7.479   2.028  2.1609 -1.2963  0.7258
  755MOL0     H 1900   5.825   7.535   1.870 -1.7048  0.4107 -0.8451
  755MOL0     H 1901   5.659   7.697   2.067 -4.3955  2.2632 -1.0158
  755MOL0     H 1902   5.720   7.759   1.910 -1.9429  0.9513  0.3363
  755MOL0     H 1903   5.595   7.512   1.857 -1.0231  0.3130 -0.8723
  755MOL0     H 1904   5.522   7.670   1.832  1.2039 -1.5703 -1.3369
  755MOL0     H 1905   5.422   7.666   2.052 -0.0901  0.6730 -1.1069
  755MOL0     H 1906   5.483   7.501   2.091  0.3969  0.1313 -0.0150
  755MOL0     H 1907   6.321   7.462   2.337 -0.4028  0.5202 -0.2094
  755MOL0     H 1908   6.520   7.331   2.343 -1.6565 -0.2873 -1.2957
  755MOL0     H 1909   6.983   7.443   2.155  0.9545  1.9890 -0.2332
  755MOL0     H 1910   7.213   7.419   2.095  0.9052 -3.4780 -0.4995
  755MOL0     H 1911   9.011   7.888   2.890 -3.1433  0.0512 -0.1295
  755MOL0     H 1912   9.249   7.931   2.827 -0.8219 -0.3882 -0.6687
  755MOL0     H 1913   9.517   8.121   2.487 -1.2259  2.4149 -0.8971
  755MOL0     H 1914   9.750   8.141   2.407 -0.0170  3.3921 -1.7286
  755MOL0     H 1915   9.992   8.067   2.524 -0.9071 -0.1073 -0.3765
  755MOL0     H 1916  10.047   8.149   2.382  2.5883 -3.5951 -0.0099
  755MOL0     H 1917  10.148   8.187   2.651  6.3476 -1.4519  1.0961
  755MOL0     H 1918  10.199   8.288   2.508  2.1440  0.0064  0.4994
  755MOL0     H 1919  10.256   8.063   2.394  1.9685 -0.7114  0.3378
  755MOL0     H 1920  10.250   7.988   2.552 -3.8395 -1.0211 -2.2232
  755MOL0     H 1921  10.491   8.037   2.489 -0.6486 -0.1310  0.4396
  755MOL0     H 1922  10.445   8.131   2.633  0.2430  0.6823  0.8804
  755MOL0     H 1923  10.478   8.409   2.299 -2.8719  1.0659  1.4582
  755MOL0     H 1924   9.847   8.388   2.746 -0.3801 -0.3029 -0.8623
  755MOL0     H 1925   9.625   8.347   2.838 -1.5789 -0.5930  0.2111
  756MOL0     O 1926   5.855   4.018   9.786  0.1000 -0.4268  0.3046
  756MOL0     C 1927   5.763   3.982   9.707 -0.5695  0.5508 -0.2705
  756MOL0     O 1928   5.696   3.861   9.709 -0.5746  0.2053  0.5730
  756MOL0     C 1929   5.703   3.780   9.813  0.3231 -0.1680  0.1556
  756MOL0     C 1930   5.827   3.737   9.865  0.3054 -0.4335  0.5917
  756MOL0     C 1931   5.821   3.647   9.972 -0.4675 -0.7694 -0.9509
  756MOL0     C 1932   5.698   3.604  10.017  0.2028  0.7327  0.2840
  756MOL0     O 1933   5.707   3.493  10.104  0.5550  0.1503  0.1301
  756MOL0     C 1934   5.602   3.393  10.077 -0.7328  0.5066 -0.3312
  756MOL0     C 1935   5.646   3.265  10.162  0.2818 -0.2011  0.3672
  756MOL0     C 1936   5.793   3.235  10.171  0.1018  0.0585 -0.4286
  756MOL0     C 1937   5.840   3.130  10.278  0.9763  0.9087  0.6341
  756MOL0     C 1938   5.804   2.982  10.261  0.1176  0.1524  0.2209
  756MOL0     C 1939   5.658   2.953  10.310 -0.3727 -0.1950 -0.0906
  756MOL0     C 1940   5.600   2.824  10.240  0.0512 -0.4130 -0.7802
  756MOL0     C 1941   5.668   2.690  10.278  0.5956  0.4896 -0.2442
  756MOL0     N 1942   5.624   2.637  10.404  0.8429  0.1473 -0.4445
  756MOL0     C 1943   5.650   2.514  10.453  0.4164  0.3129 -0.0420
  756MOL0     C 1944   5.588   2.492  10.568  0.8927  0.3959 -0.2540
  756MOL0     C 1945   5.601   2.382  10.670  0.3396  0.3897  0.2321
  756MOL0     C 1946   5.603   2.238  10.615 -0.1760  0.4188  0.0963
  756MOL0     C 1947   5.467   2.197  10.555 -0.2478  0.1719  0.6105
  756MOL0     C 1948   5.419   2.057  10.587 -0.0570 -0.2846  0.0200
  756MOL0     O 1949   5.520   1.958  10.566  0.0743  0.1322 -0.4256
  756MOL0     C 1950   5.499   1.845  10.638 -0.2317 -0.4729  0.3223
  756MOL0     C 1951   5.539   1.828  10.762  0.1727 -0.8606 -0.0784
  756MOL0     C 1952   5.516   1.707  10.832 -0.5810 -0.3576 -0.2794
  756MOL0     C 1953   5.579   1.702  10.968 -1.2109 -0.0509 -0.8273
  756MOL0     C 1954   5.477   1.592  10.758 -0.3803  0.2951  1.0886
  756MOL0     C 1955   5.487   1.454  10.812 -0.3071 -0.3257 -0.0353
  756MOL0     O 1956   5.418   1.435  10.927 -1.3516  0.1121  0.2177
  756MOL0     C 1957   5.391   1.301  10.960 -0.0052 -0.3071 -0.1772
  756MOL0     C 1958   5.264   1.283  11.024 -0.3576  0.1183 -0.6888
  756MOL0     C 1959   5.227   1.158  11.076  0.2794  1.2394  0.4998
  756MOL0     C 1960   5.301   1.044  11.051  0.1377  0.6345  0.0858
  756MOL0     O 1961   5.263   0.915  11.094 -0.1912 -0.2742  0.3327
  756MOL0     C 1962   5.155   0.896  11.175  0.0698  0.1425 -0.6570
  756MOL0     C 1963   5.147   0.753  11.205  0.2100  0.0842  0.3104
  756MOL0     C 1964   5.018   0.707  11.270 -0.0354 -0.1537 -0.7414
  756MOL0     C 1965   4.999   0.767  11.409 -0.8097 -1.1091  0.0393
  756MOL0     C 1966   4.868   0.727  11.478  0.4405  0.6798 -0.9635
  756MOL0     C 1967   4.816   0.825  11.574  0.0633 -0.0389  0.2659
  756MOL0     C 1968   4.675   0.802  11.610  0.2793  0.2431  0.5436
  756MOL0     C 1969   4.640   0.675  11.679  0.0916  0.2941 -0.3075
  756MOL0    Cl 1970   4.763   0.644  11.816 -0.0273  0.2657 -0.1920
  756MOL0     C 1971   5.419   1.054  10.983 -0.6214 -0.1469 -0.5132
  756MOL0     C 1972   5.475   1.181  10.943 -0.5649 -0.0345 -0.0479
  756MOL0     O 1973   5.520   1.374  10.728 -0.3400  0.2476  0.0717
  756MOL0     C 1974   5.420   1.616  10.634 -0.4609  0.0483  0.8771
  756MOL0     C 1975   5.426   1.744  10.574 -0.4339  0.0946 -0.1043
  756MOL0     N 1976   5.519   2.606  10.594  0.2409  0.0438 -0.3907
  756MOL0     N 1977   5.541   2.695  10.496 -0.5436 -0.1177 -0.8437
  756MOL0     C 1978   5.573   3.657   9.967  0.1747  0.2911  0.0013
  756MOL0     C 1979   5.584   3.738   9.857 -0.4440  0.1763  0.3393
  756MOL0     C 1980   5.735   4.073   9.596 -0.4782 -1.5274  0.8440
  756MOL0     C 1981   5.627   4.045   9.513 -0.7118  0.3769 -1.1927
  756MOL0     C 1982   5.612   4.113   9.396 -0.5061  0.3071 -0.2570
  756MOL0     C 1983   5.693   4.223   9.364 -0.0055  0.2077  0.2531
  756MOL0     O 1984   5.683   4.311   9.255  0.2512  0.1474  0.1797
  756MOL0     C 1985   5.729   4.244   9.131  0.5135  0.5942 -0.2607
  756MOL0     C 1986   5.678   4.337   9.018 -0.0682  0.1301  0.6135
  756MOL0     C 1987   5.749   4.471   8.988  0.5279  0.1685  0.3683
  756MOL0     C 1988   5.674   4.579   9.073  0.0081 -0.3939 -0.2947
  756MOL0     C 1989   5.559   4.634   8.995 -0.9177  0.2030 -0.8282
  756MOL0     C 1990   5.485   4.658   8.899 -0.2037 -0.0319 -0.5128
  756MOL0     C 1991   5.799   4.258   9.447  0.5139  0.0378  0.2388
  756MOL0     C 1992   5.818   4.183   9.565  0.3898  0.6985  0.1120
  756MOL0     H 1993   5.916   3.757   9.806  1.1641 -0.4300  1.8543
  756MOL0     H 1994   5.902   3.595  10.022 -1.4279 -2.0787 -0.7007
  756MOL0     H 1995   5.508   3.435  10.112 -0.1009  1.7680 -0.0984
  756MOL0     H 1996   5.605   3.368   9.970  0.8314  0.2980 -0.2612
  756MOL0     H 1997   5.609   3.285  10.263  2.1828 -1.3336  1.3472
  756MOL0     H 1998   5.596   3.173  10.130  0.9009 -0.4799  0.1863
  756MOL0     H 1999   5.817   3.200  10.070 -1.5123  0.3832 -0.9598
  756MOL0     H 2000   5.847   3.329  10.186 -0.7378  0.6568 -1.0319
  756MOL0     H 2001   5.948   3.138  10.271  1.2854 -2.2528  0.2580
  756MOL0     H 2002   5.802   3.172  10.372  1.2146 -1.1205  1.6844
  756MOL0     H 2003   5.820   2.953  10.157  1.1830 -0.8875  0.6621
  756MOL0     H 2004   5.871   2.921  10.322 -1.2270 -1.4128  0.1989
  756MOL0     H 2005   5.655   2.940  10.418 -0.2133 -1.7237 -0.2447
  756MOL0     H 2006   5.587   3.030  10.279 -1.4536 -1.4779 -0.9759
  756MOL0     H 2007   5.494   2.803  10.262  0.2945 -0.7242  0.1584
  756MOL0     H 2008   5.604   2.848  10.134  0.6960  3.0396 -0.0916
  756MOL0     H 2009   5.777   2.703  10.278  0.9035 -1.3451  1.8403
  756MOL0     H 2010   5.630   2.618  10.206  1.4825 -0.5659  0.3105
  756MOL0     H 2011   5.713   2.434  10.415  0.7965  1.5226 -2.1652
  756MOL0     H 2012   5.691   2.404  10.729 -0.0868  1.9349  0.3435
  756MOL0     H 2013   5.511   2.392  10.732 -0.8603  0.8540 -1.5218
  756MOL0     H 2014   5.623   2.175  10.702  1.3070 -0.9435 -1.1746
  756MOL0     H 2015   5.682   2.218  10.542 -1.9586 -2.0077 -1.3500
  756MOL0     H 2016   5.472   2.202  10.446  1.1465  1.3040  0.7004
  756MOL0     H 2017   5.391   2.267  10.591  2.3495  1.3518  4.4634
  756MOL0     H 2018   5.340   2.035  10.515  0.2265 -2.3178  0.2630
  756MOL0     H 2019   5.385   2.052  10.691 -1.9026 -0.5277 -0.5600
  756MOL0     H 2020   5.568   1.914  10.821 -3.2864  0.6253 -0.2886
  756MOL0     H 2021   5.592   1.804  11.006  1.9212 -0.9411  0.9028
  756MOL0     H 2022   5.514   1.640  11.030  1.1581 -2.1023 -0.2599
  756MOL0     H 2023   5.676   1.651  10.971 -0.9811  0.3792  1.7569
  756MOL0     H 2024   5.201   1.371  11.036  1.9741  1.8957 -0.6877
  756MOL0     H 2025   5.141   1.138  11.139 -0.3950  1.4231 -0.3519
  756MOL0     H 2026   5.149   0.942  11.274  0.7601 -0.1492 -0.4768
  756MOL0     H 2027   5.066   0.921  11.117  0.2412  2.3115 -0.0846
  756MOL0     H 2028   5.148   0.693  11.114 -0.3989 -0.8732  0.9166
  756MOL0     H 2029   5.240   0.719  11.253  2.8775  2.1986 -2.8752
  756MOL0     H 2030   5.036   0.600  11.278 -2.4378 -0.5237  0.8714
  756MOL0     H 2031   4.938   0.737  11.202  0.2406 -1.9596 -1.9097
  756MOL0     H 2032   5.080   0.735  11.475  0.9963  1.9581 -0.5041
  756MOL0     H 2033   5.018   0.874  11.403  2.5103 -1.6331 -0.9756
  756MOL0     H 2034   4.870   0.632  11.532 -0.6389  1.5625  0.7118
  756MOL0     H 2035   4.798   0.708  11.396  2.9374 -0.6287 -2.9228
  756MOL0     H 2036   4.880   0.851  11.658 -2.8386 -1.1317  3.0099
  756MOL0     H 2037   4.811   0.918  11.517 -0.7487  1.0834  2.0990
  756MOL0     H 2038   4.613   0.797  11.520 -0.9388 -1.2544  1.4217
  756MOL0     H 2039   4.650   0.885  11.677  1.0261  2.1765 -1.4474
  756MOL0     H 2040   4.647   0.588  11.613 -0.6313  1.0726 -1.4311
  756MOL0     H 2041   4.538   0.678  11.718 -0.4062 -2.6117 -1.1475
  756MOL0     H 2042   5.476   0.963  10.965 -0.2379  0.2549 -1.3992
  756MOL0     H 2043   5.572   1.178  10.895 -1.6705  1.8881 -2.6632
  756MOL0     H 2044   5.371   1.531  10.586  0.1662  0.2406 -0.1192
  756MOL0     H 2045   5.386   1.750  10.473 -0.1208 -3.1391 -0.5087
  756MOL0     H 2046   5.475   3.629  10.005 -0.7409 -0.4807 -2.7354
  756MOL0     H 2047   5.493   3.772   9.810 -2.0790 -2.1844  1.5499
  756MOL0     H 2048   5.562   3.959   9.529 -0.3751 -0.1845 -2.6583
  756MOL0     H 2049   5.533   4.086   9.327 -0.9028  1.0662 -0.1097
  756MOL0     H 2050   5.838   4.236   9.136  0.6069  1.0249 -1.2059
  756MOL0     H 2051   5.690   4.142   9.136  0.8457  0.5452  2.3699
  756MOL0     H 2052   5.570   4.353   9.016  0.0915  1.4980  1.4042
  756MOL0     H 2053   5.710   4.279   8.930  0.7593 -1.8390  2.1382
  756MOL0     H 2054   5.760   4.499   8.883  1.1266 -0.1676  0.3372
  756MOL0     H 2055   5.849   4.460   9.030  0.4895 -0.0282  0.4081
  756MOL0     H 2056   5.742   4.661   9.096 -1.8756  0.8776  1.0233
  756MOL0     H 2057   5.636   4.541   9.169 -2.2285 -0.1281 -1.0365
  756MOL0     H 2058   5.426   4.673   8.811  0.0553  0.8211 -0.5404
  756MOL0     H 2059   5.855   4.348   9.425  2.7414 -0.9707  1.4415
  756MOL0     H 2060   5.893   4.196   9.643  1.1055 -1.5456 -0.1184
  757MOL0     O 2061  10.533   6.660   9.754 -0.0896  0.4016 -0.0551
  757MOL0     C 2062  10.430   6.715   9.716  0.0111  0.5670 -0.6799
  757MOL0     O 2063  10.332   6.656   9.648 -0.7945  0.4935  0.4764
  757MOL0     C 2064  10.365   6.549   9.570  0.5942  0.3210  0.0981
  757MOL0     C 2065  10.364   6.424   9.619  0.1401  0.0909  0.4679
  757MOL0     C 2066  10.419   6.316   9.545 -0.3384 -0.8747 -0.3885
  757MOL0     C 2067  10.469   6.332   9.416  0.3179  0.2897 -0.2505
  757MOL0     O 2068  10.518   6.224   9.347 -0.2132  0.5991 -0.1449
  757MOL0     C 2069  10.632   6.244   9.265 -0.0475 -1.0690 -0.0136
  757MOL0     C 2070  10.618   6.228   9.110 -0.5698 -1.3211 -0.1929
  757MOL0     C 2071  10.634   6.076   9.089  0.1440 -0.3612  0.5509
  757MOL0     C 2072  10.544   6.031   8.978 -0.0852  0.2694 -0.2067
  757MOL0     C 2073  10.592   6.086   8.835 -0.0060  1.2432 -0.4925
  757MOL0     C 2074  10.487   6.039   8.725 -0.4296  1.1002 -0.0314
  757MOL0     C 2075  10.498   5.884   8.709  0.5985 -0.9228 -0.0448
  757MOL0     C 2076  10.396   5.867   8.590 -0.2407 -0.5883  0.1397
  757MOL0     N 2077  10.464   5.889   8.457  0.5548  0.6903 -0.6172
  757MOL0     C 2078  10.530   5.782   8.404 -0.5815  0.3836 -0.3272
  757MOL0     C 2079  10.530   5.808   8.269 -0.7229  0.0690  0.0085
  757MOL0     C 2080  10.586   5.701   8.173  0.0504 -0.3046  1.1729
  757MOL0     C 2081  10.467   5.645   8.090 -0.2275 -0.2985 -0.5607
  757MOL0     C 2082  10.404   5.752   7.993 -0.1477 -0.0033 -0.0250
  757MOL0     C 2083  10.303   5.691   7.895 -0.5051 -0.4062  0.8032
  757MOL0     O 2084  10.380   5.618   7.801  0.1491  0.7609 -0.7107
  757MOL0     C 2085  10.348   5.480   7.784 -0.6736  0.9347  1.2065
  757MOL0     C 2086  10.445   5.406   7.713 -0.7204  0.8041  0.3781
  757MOL0     C 2087  10.431   5.268   7.689  0.2061 -0.6687  0.5477
  757MOL0     C 2088  10.526   5.200   7.596 -0.3381 -0.1492 -0.1386
  757MOL0     C 2089  10.313   5.205   7.741  0.3115  0.6992  0.6623
  757MOL0     C 2090  10.290   5.057   7.733  0.7437 -0.0937  0.5890
  757MOL0     O 2091  10.187   5.007   7.817  0.0315 -0.0387  0.2993
  757MOL0     C 2092  10.196   4.869   7.849 -0.2665 -0.8253  0.1590
  757MOL0     C 2093  10.088   4.792   7.819 -0.0771 -0.1139  0.1292
  757MOL0     C 2094  10.091   4.661   7.853  0.2714  0.2678 -0.1947
  757MOL0     C 2095  10.205   4.604   7.920  0.4917 -0.3828  0.5127
  757MOL0     O 2096  10.197   4.475   7.959  0.5040 -0.1258 -0.0003
  757MOL0     C 2097  10.167   4.380   7.851  0.1897 -0.6115  0.3376
  757MOL0     C 2098  10.169   4.241   7.903  0.5862 -0.9118  0.4523
  757MOL0     C 2099  10.166   4.137   7.790 -0.1130 -0.2045  0.7545
  757MOL0     C 2100  10.191   4.004   7.855  0.2541 -0.2316  0.0621
  757MOL0     C 2101  10.307   3.936   7.788  0.3245 -1.0146 -0.1903
  757MOL0     C 2102  10.439   4.008   7.812 -0.3777  0.4388 -0.0411
  757MOL0     C 2103  10.565   3.938   7.757 -0.0168  0.1959 -0.3048
  757MOL0     C 2104  10.623   3.987   7.628  0.1755 -0.4338 -0.0255
  757MOL0    Cl 2105  10.517   3.958   7.486 -0.1721 -0.2769  0.2997
  757MOL0     C 2106  10.310   4.681   7.940 -0.0170 -1.0680 -0.9420
  757MOL0     C 2107  10.304   4.816   7.909 -0.3375  0.0927  0.8963
  757MOL0     O 2108  10.353   4.980   7.654  0.2764 -0.1507  0.4236
  757MOL0     C 2109  10.216   5.277   7.809 -0.0946 -0.9178  0.3593
  757MOL0     C 2110  10.230   5.415   7.835  0.5378 -0.2360  0.3687
  757MOL0     N 2111  10.476   5.931   8.244  0.2476 -0.2993 -0.2777
  757MOL0     N 2112  10.440   5.986   8.359 -0.3977  0.2759 -0.3439
  757MOL0     C 2113  10.474   6.463   9.370  0.1304 -0.2942  0.4778
  757MOL0     C 2114  10.413   6.573   9.442 -0.2905 -0.8647  0.4934
  757MOL0     C 2115  10.418   6.858   9.757 -0.7476 -0.2964 -0.0052
  757MOL0     C 2116  10.531   6.927   9.809 -0.4476  0.1236 -0.4240
  757MOL0     C 2117  10.524   7.068   9.823  0.2869  0.2017 -0.4085
  757MOL0     C 2118  10.398   7.133   9.803 -0.3397 -0.4861  0.7033
  757MOL0     O 2119  10.406   7.270   9.818  1.7819 -0.1469 -0.1792
  757MOL0     C 2120  10.287   7.349   9.810 -0.5674 -0.2883 -1.0800
  757MOL0     C 2121  10.338   7.481   9.757  0.0705  0.7414 -0.5911
  757MOL0     C 2122  10.213   7.553   9.721 -0.6565 -0.2710 -0.5089
  757MOL0     C 2123  10.206   7.568   9.565 -0.5693 -1.2690  0.2324
  757MOL0     C 2124  10.180   7.438   9.504  0.4160 -1.0094 -0.0219
  757MOL0     C 2125  10.131   7.335   9.455  0.0441  0.0842  1.0453
  757MOL0     C 2126  10.288   7.059   9.773 -0.3572 -0.9092  0.0687
  757MOL0     C 2127  10.301   6.922   9.746 -0.4129 -0.0893  0.4044
  757MOL0     H 2128  10.332   6.398   9.719 -0.2304 -2.8868 -0.3071
  757MOL0     H 2129  10.439   6.215   9.579 -1.5894 -0.4904  1.6002
  757MOL0     H 2130  10.679   6.342   9.280  1.0711 -1.5176 -0.4227
  757MOL0     H 2131  10.722   6.190   9.298  3.0716  5.0701  3.2493
  757MOL0     H 2132  10.517   6.258   9.081 -0.4161 -1.5388 -0.9855
  757MOL0     H 2133  10.689   6.287   9.052 -0.2759 -0.1838  1.2966
  757MOL0     H 2134  10.736   6.041   9.071  0.2878  1.3680 -2.6202
  757MOL0     H 2135  10.595   6.014   9.171 -0.0293 -2.2881 -0.9128
  757MOL0     H 2136  10.563   5.924   8.983  0.7944  0.4409  0.3156
  757MOL0     H 2137  10.442   6.069   8.988  0.0004  0.7800 -1.1444
  757MOL0     H 2138  10.592   6.195   8.828 -2.3745  1.4973  1.8258
  757MOL0     H 2139  10.694   6.054   8.814  0.8760  1.1762  3.2117
  757MOL0     H 2140  10.388   6.070   8.759  0.3659  2.8777  0.8431
  757MOL0     H 2141  10.505   6.095   8.633 -0.6488  1.1163 -0.0637
  757MOL0     H 2142  10.598   5.843   8.688  0.6882 -0.7648  0.0724
  757MOL0     H 2143  10.455   5.829   8.794 -1.0825 -2.6256 -1.9091
  757MOL0     H 2144  10.306   5.929   8.600 -0.2369  0.2091 -3.2941
  757MOL0     H 2145  10.366   5.762   8.589 -1.0911 -0.4335 -3.3320
  757MOL0     H 2146  10.562   5.695   8.460 -3.9071 -0.2813  0.7522
  757MOL0     H 2147  10.657   5.747   8.104 -3.1336 -4.0350 -5.5267
  757MOL0     H 2148  10.624   5.610   8.220  0.2585 -2.1719 -2.3392
  757MOL0     H 2149  10.380   5.626   8.154  0.1890 -0.3346  0.0032
  757MOL0     H 2150  10.485   5.553   8.033  0.1354 -0.9681  0.6025
  757MOL0     H 2151  10.488   5.809   7.952  0.6443  0.9482  2.7375
  757MOL0     H 2152  10.357   5.829   8.055  0.8911 -0.8765  1.9224
  757MOL0     H 2153  10.242   5.767   7.846 -0.7472 -1.0029  0.1544
  757MOL0     H 2154  10.234   5.634   7.959  0.6245 -0.3960  2.0705
  757MOL0     H 2155  10.536   5.454   7.679 -0.2817  1.3708  2.2241
  757MOL0     H 2156  10.572   5.272   7.528  0.0373  1.2347  1.5205
  757MOL0     H 2157  10.603   5.141   7.645  1.3126 -0.4536 -2.8501
  757MOL0     H 2158  10.465   5.147   7.522  1.0060 -1.0059 -0.6727
  757MOL0     H 2159  10.004   4.831   7.763 -1.2722  1.6376  2.9273
  757MOL0     H 2160   9.993   4.615   7.843  1.0453 -1.3774 -0.4693
  757MOL0     H 2161  10.073   4.409   7.805  0.9661  0.6560 -0.5333
  757MOL0     H 2162  10.240   4.387   7.769 -0.7350 -3.6093 -0.8476
  757MOL0     H 2163  10.258   4.243   7.966  3.0935  1.9697 -2.7501
  757MOL0     H 2164  10.088   4.220   7.974  1.4192  1.0511  2.0913
  757MOL0     H 2165  10.242   4.156   7.713 -1.8532  0.8483 -0.7851
  757MOL0     H 2166  10.065   4.133   7.747  0.4058 -2.3354 -0.4227
  757MOL0     H 2167  10.195   4.010   7.964 -0.0568 -0.0451  0.0642
  757MOL0     H 2168  10.108   3.933   7.849  0.1789 -0.1637  0.3101
  757MOL0     H 2169  10.287   3.935   7.680  2.2235  1.0414 -0.6406
  757MOL0     H 2170  10.301   3.831   7.820  2.5017 -1.8801 -2.2716
  757MOL0     H 2171  10.441   4.115   7.789 -0.9947  0.4638 -0.0009
  757MOL0     H 2172  10.449   4.004   7.921  1.1370  2.3420 -0.0494
  757MOL0     H 2173  10.530   3.835   7.743  0.7075 -0.3048  1.2583
  757MOL0     H 2174  10.646   3.921   7.829 -1.2643  2.8667  1.9252
  757MOL0     H 2175  10.721   3.938   7.621  1.7257  2.0679  2.3988
  757MOL0     H 2176  10.640   4.095   7.625  2.1355 -0.6303  1.6768
  757MOL0     H 2177  10.404   4.647   7.983  1.0433  2.0001 -0.5705
  757MOL0     H 2178  10.381   4.887   7.936  0.4868 -0.2078 -0.5473
  757MOL0     H 2179  10.126   5.230   7.846 -2.7098 -0.0350 -4.0725
  757MOL0     H 2180  10.160   5.459   7.905  0.6916 -0.2384  0.5220
  757MOL0     H 2181  10.520   6.480   9.273  1.8960  0.8382  1.4629
  757MOL0     H 2182  10.383   6.670   9.405 -3.1252 -1.6401  0.5183
  757MOL0     H 2183  10.626   6.878   9.830 -1.0159 -0.8729 -0.1014
  757MOL0     H 2184  10.609   7.129   9.851 -1.0986  1.3068  1.5956
  757MOL0     H 2185  10.211   7.306   9.745 -0.1165 -1.6745 -0.7276
  757MOL0     H 2186  10.244   7.371   9.908 -2.3247  2.5807 -2.3512
  757MOL0     H 2187  10.403   7.467   9.670  0.8048  0.7739 -0.0546
  757MOL0     H 2188  10.401   7.528   9.833 -0.9967  2.6674 -0.8565
  757MOL0     H 2189  10.211   7.650   9.772  2.5368 -0.2598 -0.2168
  757MOL0     H 2190  10.119   7.505   9.750 -0.6019  1.1003  2.2296
  757MOL0     H 2191  10.298   7.619   9.535 -1.2515 -0.1375  0.0096
  757MOL0     H 2192  10.128   7.640   9.539  1.1595  1.0697  1.1722
  757MOL0     H 2193  10.090   7.249   9.408 -2.2025  2.0178 -0.8089
  757MOL0     H 2194  10.192   7.109   9.779 -0.5469 -1.4664  3.5013
  757MOL0     H 2195  10.199   6.892   9.724 -0.3926 -0.4893  0.8411
  758MOL0     O 2196   9.367   1.939   2.300 -0.2986 -0.3739  0.0208
  758MOL0     C 2197   9.259   1.991   2.270  0.3267 -0.8590 -1.6805
  758MOL0     O 2198   9.193   2.088   2.339 -0.4235 -0.2307 -0.2106
  758MOL0     C 2199   9.228   2.108   2.469  0.2914 -0.4755  0.2799
  758MOL0     C 2200   9.236   2.243   2.513  0.2666 -0.8043 -1.2009
  758MOL0     C 2201   9.292   2.271   2.642 -0.1431  0.0821 -1.1633
  758MOL0     C 2202   9.331   2.162   2.722 -0.0881 -0.4606 -0.5330
  758MOL0     O 2203   9.367   2.180   2.850 -0.1805  0.7043 -0.2966
  758MOL0     C 2204   9.390   2.311   2.897 -0.2050  0.2918 -0.2265
  758MOL0     C 2205   9.449   2.297   3.032 -0.0449 -0.3846 -0.2587
  758MOL0     C 2206   9.535   2.430   3.059 -0.8246  0.4941 -1.2954
  758MOL0     C 2207   9.544   2.451   3.213 -0.1616  0.8411  0.5465
  758MOL0     C 2208   9.661   2.545   3.264 -0.9890  0.3984  0.2339
  758MOL0     C 2209   9.602   2.668   3.342  0.0517  0.4363  0.0947
  758MOL0     C 2210   9.697   2.749   3.415 -0.1799 -0.2461  0.1607
  758MOL0     C 2211   9.801   2.681   3.510 -0.9934 -0.3591 -1.0932
  758MOL0     N 2212   9.737   2.627   3.626 -0.3153 -0.9204  0.2328
  758MOL0     C 2213   9.669   2.694   3.729  0.6596 -0.7581 -0.5517
  758MOL0     C 2214   9.648   2.602   3.831  0.5366 -0.4708  0.3960
  758MOL0     C 2215   9.613   2.648   3.969  0.3463  0.0548 -0.0598
  758MOL0     C 2216   9.492   2.572   4.016  0.5571  1.2577  0.4101
  758MOL0     C 2217   9.440   2.621   4.153  0.7458 -0.0705 -0.1813
  758MOL0     C 2218   9.309   2.557   4.191  0.0638 -0.1812  0.2259
  758MOL0     O 2219   9.273   2.629   4.316 -0.6236 -0.3976  0.0861
  758MOL0     C 2220   9.146   2.612   4.370 -0.3306 -0.2370  0.1833
  758MOL0     C 2221   9.108   2.692   4.485 -0.4508  0.0736  0.6248
  758MOL0     C 2222   8.987   2.678   4.547 -0.4783 -0.6107  0.5370
  758MOL0     C 2223   8.978   2.761   4.669 -0.7197  1.1309  0.0373
  758MOL0     C 2224   8.888   2.603   4.498 -0.4190 -0.1349 -0.2034
  758MOL0     C 2225   8.750   2.612   4.542 -0.9101 -0.3839 -0.0323
  758MOL0     O 2226   8.659   2.555   4.452 -0.4708  0.4331 -0.2250
  758MOL0     C 2227   8.524   2.587   4.458 -0.0187  0.3018 -1.4393
  758MOL0     C 2228   8.446   2.586   4.567 -0.5303 -0.1923 -0.6527
  758MOL0     C 2229   8.309   2.609   4.561 -0.4851  0.0869  0.0362
  758MOL0     C 2230   8.246   2.629   4.442 -0.2249 -0.3239  1.3665
  758MOL0     O 2231   8.111   2.653   4.416 -0.0168 -0.0888 -0.0470
  758MOL0     C 2232   8.035   2.702   4.532  0.5955 -0.3589  0.4262
  758MOL0     C 2233   8.064   2.842   4.584 -0.7849 -0.1590  1.0234
  758MOL0     C 2234   7.990   2.887   4.703  0.1854 -0.6083  0.4287
  758MOL0     C 2235   8.062   2.823   4.835 -0.6345 -0.3352 -0.4145
  758MOL0     C 2236   7.971   2.828   4.955  1.1151 -0.2030 -0.0357
  758MOL0     C 2237   8.053   2.882   5.075 -1.0004  0.7287 -0.6986
  758MOL0     C 2238   8.172   2.787   5.111  0.7728  0.6649 -1.1393
  758MOL0     C 2239   8.255   2.836   5.231  0.1568  0.4623 -0.0959
  758MOL0    Cl 2240   8.146   2.833   5.378 -0.3523  0.1283 -0.1024
  758MOL0     C 2241   8.325   2.614   4.328  0.4178 -0.3631  0.1754
  758MOL0     C 2242   8.461   2.597   4.330 -0.0690 -0.0876 -0.9052
  758MOL0     O 2243   8.718   2.661   4.651 -0.0166 -0.0921 -0.3278
  758MOL0     C 2244   8.920   2.520   4.384 -0.3091  0.2122 -0.4345
  758MOL0     C 2245   9.048   2.525   4.326 -0.0634  0.2233  0.8982
  758MOL0     N 2246   9.705   2.483   3.787  0.6492  1.2299  0.0772
  758MOL0     N 2247   9.762   2.494   3.671 -0.0692 -0.4355 -0.0822
  758MOL0     C 2248   9.324   2.037   2.670  0.6770 -0.8313  0.5503
  758MOL0     C 2249   9.262   2.010   2.551 -0.7353  0.4006  0.1883
  758MOL0     C 2250   9.203   1.955   2.143 -0.1714  0.2092 -0.6100
  758MOL0     C 2251   9.266   1.858   2.056 -0.3480  0.3015  0.1626
  758MOL0     C 2252   9.203   1.814   1.931  0.2387  0.5191  0.0052
  758MOL0     C 2253   9.078   1.859   1.884 -0.8544 -0.3715  0.0635
  758MOL0     O 2254   9.023   1.826   1.756  0.1296 -0.0141 -0.7037
  758MOL0     C 2255   8.947   1.706   1.769  0.1860 -0.2898  0.5426
  758MOL0     C 2256   8.796   1.715   1.747 -0.2085 -0.2969 -0.3010
  758MOL0     C 2257   8.721   1.604   1.798  0.8208 -0.0239 -0.1137
  758MOL0     C 2258   8.726   1.478   1.703  0.0352 -0.3670 -0.9885
  758MOL0     C 2259   8.639   1.367   1.755 -0.6186 -0.4032 -0.2075
  758MOL0     C 2260   8.562   1.277   1.775  0.4289  0.4429  0.7095
  758MOL0     C 2261   9.015   1.946   1.977 -0.3641  0.2808 -0.0294
  758MOL0     C 2262   9.077   1.992   2.094  0.3584 -1.1745 -0.4316
  758MOL0     H 2263   9.199   2.320   2.446 -0.8204 -1.7661 -1.7304
  758MOL0     H 2264   9.282   2.369   2.686  1.0232 -0.2683 -0.0643
  758MOL0     H 2265   9.457   2.360   2.825  1.9349 -0.9361  0.8084
  758MOL0     H 2266   9.301   2.374   2.906  0.0653  0.7146 -0.5091
  758MOL0     H 2267   9.364   2.287   3.100 -1.9916  2.4340 -2.0283
  758MOL0     H 2268   9.513   2.210   3.040 -0.5285 -0.7356 -0.1718
  758MOL0     H 2269   9.634   2.429   3.013  0.9427 -1.2718  2.2069
  758MOL0     H 2270   9.484   2.513   3.008  0.0548  0.4858 -2.2050
  758MOL0     H 2271   9.446   2.482   3.250 -0.1697 -0.4913  1.7060
  758MOL0     H 2272   9.553   2.354   3.262  2.9141  0.1805 -1.1066
  758MOL0     H 2273   9.711   2.486   3.341 -0.1067  0.8746  0.0315
  758MOL0     H 2274   9.733   2.578   3.189 -1.3496  0.0112 -0.2869
  758MOL0     H 2275   9.559   2.741   3.273  4.2108  0.3150 -2.9855
  758MOL0     H 2276   9.537   2.615   3.413  1.9132 -1.7464  0.2992
  758MOL0     H 2277   9.759   2.793   3.336 -0.1544  3.3795  1.9806
  758MOL0     H 2278   9.646   2.828   3.471  1.6861 -0.1490  1.8407
  758MOL0     H 2279   9.876   2.755   3.540 -0.4034 -1.0647 -0.7936
  758MOL0     H 2280   9.859   2.599   3.466 -0.5061 -0.6050 -0.0133
  758MOL0     H 2281   9.648   2.800   3.734 -3.1232 -1.4236  0.9642
  758MOL0     H 2282   9.698   2.623   4.033  0.4326  1.2074  0.2814
  758MOL0     H 2283   9.593   2.755   3.978  0.8724 -0.0208  3.0775
  758MOL0     H 2284   9.516   2.466   4.022  0.3354  1.2781  3.5927
  758MOL0     H 2285   9.417   2.592   3.939  1.5042 -0.1555 -0.9345
  758MOL0     H 2286   9.423   2.728   4.143  2.8672  0.3244  0.0910
  758MOL0     H 2287   9.517   2.608   4.229 -0.0076 -0.5469  0.5304
  758MOL0     H 2288   9.312   2.448   4.201 -2.2936 -0.5437 -2.0618
  758MOL0     H 2289   9.237   2.572   4.111 -0.7243  4.3073  1.4634
  758MOL0     H 2290   9.180   2.766   4.519  0.5526 -1.2602  1.5451
  758MOL0     H 2291   8.925   2.854   4.646 -1.6315  0.4476 -0.6934
  758MOL0     H 2292   8.925   2.724   4.757  1.9968  1.6557  2.0005
  758MOL0     H 2293   9.080   2.784   4.702  1.3744 -2.8033 -2.7692
  758MOL0     H 2294   8.496   2.558   4.659 -1.0163  0.6142 -0.1317
  758MOL0     H 2295   8.255   2.617   4.655 -3.6105  2.1969 -1.7664
  758MOL0     H 2296   7.927   2.708   4.513  0.2606  2.6055  2.5489
  758MOL0     H 2297   8.052   2.630   4.612  0.3027 -0.8598  0.0460
  758MOL0     H 2298   8.172   2.837   4.600  0.0264 -0.3234 -3.2563
  758MOL0     H 2299   8.051   2.907   4.497  0.1767 -0.6135  0.5308
  758MOL0     H 2300   7.890   2.844   4.686  0.4705 -0.7989 -0.8888
  758MOL0     H 2301   7.994   2.996   4.713 -0.5376 -0.7840  3.7709
  758MOL0     H 2302   8.084   2.716   4.825  0.0127 -0.6957  3.3470
  758MOL0     H 2303   8.160   2.867   4.853  1.0473 -4.0917  0.7138
  758MOL0     H 2304   7.925   2.732   4.981  0.5248  0.5015  1.5986
  758MOL0     H 2305   7.886   2.896   4.946  0.1832 -0.9970  2.0995
  758MOL0     H 2306   8.093   2.980   5.048 -2.8085  0.7287 -3.7964
  758MOL0     H 2307   7.996   2.894   5.168  2.6433  4.8582  1.4112
  758MOL0     H 2308   8.233   2.763   5.023 -1.9382 -0.0115 -2.9859
  758MOL0     H 2309   8.121   2.696   5.144 -2.2961  3.4851  2.8623
  758MOL0     H 2310   8.308   2.932   5.232  0.2300  0.5038  3.4348
  758MOL0     H 2311   8.339   2.767   5.236 -0.5428 -0.3536  0.7334
  758MOL0     H 2312   8.287   2.621   4.227 -1.3492  2.0974  0.8950
  758MOL0     H 2313   8.517   2.585   4.238 -1.1985 -0.8248 -1.5299
  758MOL0     H 2314   8.857   2.452   4.327  0.1999  0.6006 -1.4850
  758MOL0     H 2315   9.074   2.465   4.238 -0.2911 -0.5513  1.3472
  758MOL0     H 2316   9.354   1.955   2.735  3.2433  0.7089  1.4649
  758MOL0     H 2317   9.259   1.903   2.532 -0.6075  0.1924  1.2502
  758MOL0     H 2318   9.358   1.801   2.066 -0.8110 -0.8028 -1.4886
  758MOL0     H 2319   9.245   1.734   1.872 -0.1198  2.1635 -2.6312
  758MOL0     H 2320   8.991   1.639   1.695  0.1833  2.4199 -2.1214
  758MOL0     H 2321   8.959   1.656   1.866 -2.5937 -0.7757  0.7115
  758MOL0     H 2322   8.772   1.721   1.640  0.9777 -1.9952 -0.7001
  758MOL0     H 2323   8.772   1.810   1.795  0.0838 -0.0479 -0.6420
  758MOL0     H 2324   8.613   1.620   1.799  0.6520 -0.8828 -1.6398
  758MOL0     H 2325   8.750   1.603   1.903  1.5104 -0.8991 -0.3027
  758MOL0     H 2326   8.825   1.432   1.700 -0.1786 -0.9986  0.7069
  758MOL0     H 2327   8.704   1.506   1.599 -0.5337  2.1936 -0.2550
  758MOL0     H 2328   8.484   1.206   1.789 -1.3164  1.8337 -1.2870
  758MOL0     H 2329   8.920   1.995   1.955  0.1984  0.7466 -1.6034
  758MOL0     H 2330   9.022   2.063   2.154  1.6327 -0.1333 -0.4528
  759MOL0     O 2331   2.596   8.766   9.136 -0.4016 -0.0991 -0.0190
  759MOL0     C 2332   2.629   8.715   9.247  0.1733  0.2124 -0.0531
  759MOL0     O 2333   2.560   8.621   9.316 -0.2608  0.0269  0.4767
  759MOL0     C 2334   2.451   8.570   9.257  0.0947  0.1175  0.8158
  759MOL0     C 2335   2.329   8.625   9.293 -0.5454 -0.3250  0.3361
  759MOL0     C 2336   2.218   8.563   9.239  0.1512  0.3523  0.1488
  759MOL0     C 2337   2.226   8.453   9.149  0.2932  0.8258  0.1903
  759MOL0     O 2338   2.109   8.424   9.080 -0.5198  0.4026  0.0578
  759MOL0     C 2339   2.100   8.291   9.026  0.3028  0.7200 -0.1733
  759MOL0     C 2340   1.962   8.264   8.972 -0.1597 -0.3343 -0.4956
  759MOL0     C 2341   1.848   8.291   9.078  0.1734 -0.2133  0.2172
  759MOL0     C 2342   1.716   8.235   9.024 -0.2055 -0.6446 -0.4476
  759MOL0     C 2343   1.612   8.216   9.133  0.0248  1.1092  0.8197
  759MOL0     C 2344   1.595   8.340   9.219  1.3981  0.2629 -0.4933
  759MOL0     C 2345   1.452   8.339   9.291 -0.0043  1.0792  0.0098
  759MOL0     C 2346   1.450   8.407   9.428  0.5502 -0.0869 -0.1467
  759MOL0     N 2347   1.317   8.399   9.497  0.8572 -0.2416 -0.6231
  759MOL0     C 2348   1.195   8.437   9.438 -0.0112 -0.3560  0.1481
  759MOL0     C 2349   1.097   8.392   9.516  0.2791 -0.7043  0.2931
  759MOL0     C 2350   0.953   8.416   9.482  0.6149  1.1666 -0.7629
  759MOL0     C 2351   0.858   8.303   9.527 -0.4438 -0.1353  0.9774
  759MOL0     C 2352   0.713   8.351   9.537  0.0480  0.2332 -0.4261
  759MOL0     C 2353   0.648   8.368   9.405 -0.6012  0.6980  0.0199
  759MOL0     O 2354   0.511   8.386   9.424  0.2371  0.4614 -0.0677
  759MOL0     C 2355   0.458   8.513   9.442 -0.3161  0.3869  0.6124
  759MOL0     C 2356   0.530   8.629   9.429 -0.3084 -0.3783  0.2214
  759MOL0     C 2357   0.474   8.756   9.451  0.2584 -0.1574 -0.4668
  759MOL0     C 2358   0.571   8.869   9.439 -0.0735  0.2458 -0.4905
  759MOL0     C 2359   0.333   8.763   9.480 -0.1987  0.1480  0.0904
  759MOL0     C 2360   0.255   8.885   9.513 -0.4931  0.8980 -0.0595
  759MOL0     O 2361   0.118   8.875   9.513 -0.0039  0.1617 -0.5375
  759MOL0     C 2362   0.054   8.993   9.551 -0.4702  0.0463  0.3975
  759MOL0     C 2363   0.074   9.114   9.473  0.1910  0.0141 -0.0120
  759MOL0     C 2364   0.012   9.239   9.513 -0.4328 -0.7000 -0.0588
  759MOL0     C 2365  -0.070   9.245   9.623 -0.0581  0.8329 -0.0987
  759MOL0     O 2366  -0.132   9.357   9.680  0.1026  0.1488  0.8386
  759MOL0     C 2367  -0.112   9.487   9.617  1.4418 -0.3742 -0.2389
  759MOL0     C 2368   0.004   9.569   9.651 -0.6095 -0.3787 -0.7196
  759MOL0     C 2369   0.003   9.620   9.798 -0.6231  0.8080 -0.3145
  759MOL0     C 2370   0.129   9.679   9.864  0.4949 -0.2142 -0.2499
  759MOL0     C 2371   0.218   9.750   9.756  0.1971  0.6231 -0.4406
  759MOL0     C 2372   0.329   9.824   9.819  0.7655 -0.1647  0.2503
  759MOL0     C 2373   0.390   9.764   9.946 -0.3733 -0.2237  0.6541
  759MOL0     C 2374   0.435   9.880  10.039 -0.9121  0.8560 -0.5494
  759MOL0    Cl 2375   0.577   9.958   9.964 -0.1216 -0.0104 -0.0970
  759MOL0     C 2376  -0.084   9.131   9.697  0.6635 -0.2788  0.2337
  759MOL0     C 2377  -0.028   9.008   9.664 -0.3230  0.0247 -0.7052
  759MOL0     O 2378   0.322   8.989   9.520 -0.5193 -0.0684 -0.1264
  759MOL0     C 2379   0.251   8.643   9.497 -1.2066 -0.1454  0.4312
  759MOL0     C 2380   0.319   8.522   9.469 -0.3019  0.4744  0.5775
  759MOL0     N 2381   1.162   8.331   9.622 -0.5047 -0.2340 -0.3643
  759MOL0     N 2382   1.294   8.338   9.611 -0.1053 -0.0202  0.1689
  759MOL0     C 2383   2.350   8.396   9.126  0.1704 -0.0019  0.2330
  759MOL0     C 2384   2.458   8.453   9.182 -0.3177  0.4519  0.3261
  759MOL0     C 2385   2.758   8.757   9.313  0.0228  0.3723 -0.1567
  759MOL0     C 2386   2.792   8.713   9.438  0.4376  0.1664 -0.1279
  759MOL0     C 2387   2.913   8.735   9.498 -1.4555 -0.6155  0.2644
  759MOL0     C 2388   3.017   8.793   9.424 -0.7271 -0.0296 -0.4586
  759MOL0     O 2389   3.141   8.820   9.486 -0.2006  0.2407 -0.1219
  759MOL0     C 2390   3.162   8.772   9.618  0.3215 -0.4983  0.2680
  759MOL0     C 2391   3.305   8.804   9.662  0.4125  0.0709  0.3316
  759MOL0     C 2392   3.410   8.703   9.621  0.3124  0.0758 -0.0045
  759MOL0     C 2393   3.551   8.762   9.639  0.2365  0.1880 -0.2676
  759MOL0     C 2394   3.650   8.663   9.599 -0.4554  0.5408  0.6678
  759MOL0     C 2395   3.752   8.595   9.586  0.4465 -0.5936  0.1993
  759MOL0     C 2396   2.992   8.841   9.296 -0.4524  0.5081 -0.4954
  759MOL0     C 2397   2.864   8.820   9.241 -0.4539  0.0499 -0.3794
  759MOL0     H 2398   2.320   8.724   9.336  0.9320  0.2900 -0.6826
  759MOL0     H 2399   2.127   8.616   9.265  2.5200  2.6043  5.3757
  759MOL0     H 2400   2.172   8.293   8.944  0.0493  1.7700 -0.3850
  759MOL0     H 2401   2.116   8.210   9.099 -2.5084  2.0279  2.0991
  759MOL0     H 2402   1.935   8.333   8.892 -0.9289 -0.4202 -0.3195
  759MOL0     H 2403   1.967   8.162   8.932  1.1646 -1.7748  2.9607
  759MOL0     H 2404   1.866   8.235   9.170 -0.4202 -3.7313 -1.6049
  759MOL0     H 2405   1.836   8.399   9.089 -0.7016  0.0041 -2.2929
  759MOL0     H 2406   1.677   8.309   8.954 -3.8853 -2.4672 -0.5519
  759MOL0     H 2407   1.732   8.139   8.974  0.8952 -0.0873 -1.2172
  759MOL0     H 2408   1.515   8.175   9.102  2.0385 -5.5420  1.7870
  759MOL0     H 2409   1.642   8.131   9.195 -0.1759 -0.3937 -1.0458
  759MOL0     H 2410   1.673   8.326   9.294 -2.6191 -3.8724  3.5789
  759MOL0     H 2411   1.593   8.438   9.170 -1.9540  0.3941 -0.3358
  759MOL0     H 2412   1.377   8.386   9.227 -0.3115  1.6821  0.7931
  759MOL0     H 2413   1.411   8.238   9.298 -0.1609  1.0515 -1.0911
  759MOL0     H 2414   1.469   8.515   9.423 -0.2431  0.1297  0.9956
  759MOL0     H 2415   1.529   8.366   9.491  1.7009  2.4653  0.2368
  759MOL0     H 2416   1.179   8.478   9.339  0.5652  1.6676  0.8469
  759MOL0     H 2417   0.908   8.504   9.528  1.4699  1.2502 -0.0580
  759MOL0     H 2418   0.959   8.418   9.373 -0.0166  0.4496 -0.8224
  759MOL0     H 2419   0.895   8.278   9.627  0.8301  0.8727  0.7806
  759MOL0     H 2420   0.870   8.223   9.453  3.8134  2.0913 -1.0841
  759MOL0     H 2421   0.703   8.451   9.581  0.1708 -0.8769  2.2884
  759MOL0     H 2422   0.642   8.297   9.601  0.2549  0.6693  0.1815
  759MOL0     H 2423   0.671   8.282   9.342  0.8126  0.9789  0.1356
  759MOL0     H 2424   0.687   8.449   9.343 -0.5816 -0.3885 -1.4452
  759MOL0     H 2425   0.638   8.619   9.428 -0.2133  0.3656  1.1280
  759MOL0     H 2426   0.535   8.938   9.362  1.3050  0.5799 -0.8584
  759MOL0     H 2427   0.569   8.909   9.541 -0.9028  1.2299 -0.8750
  759MOL0     H 2428   0.674   8.835   9.422  0.1184 -1.9594  3.8473
  759MOL0     H 2429   0.132   9.086   9.385 -0.7380 -0.3255 -0.5297
  759MOL0     H 2430   0.043   9.321   9.449  0.1822 -0.9524 -0.0880
  759MOL0     H 2431  -0.118   9.476   9.508 -1.8509 -1.9065 -0.0210
  759MOL0     H 2432  -0.205   9.542   9.637  1.7271 -0.4605  1.4833
  759MOL0     H 2433   0.078   9.493   9.626 -2.1628 -1.6316 -1.7157
  759MOL0     H 2434   0.019   9.656   9.586  2.2898  1.8258  2.5227
  759MOL0     H 2435  -0.032   9.534   9.857 -0.4709  1.7372  1.1711
  759MOL0     H 2436  -0.065   9.705   9.804  3.0413  4.0971 -1.5730
  759MOL0     H 2437   0.108   9.746   9.948  4.7057  1.4382 -0.2894
  759MOL0     H 2438   0.175   9.590   9.907 -1.1185 -0.7981  0.3608
  759MOL0     H 2439   0.160   9.824   9.700 -3.5811  0.3094  2.6685
  759MOL0     H 2440   0.265   9.674   9.694  0.9236 -1.0148  2.0036
  759MOL0     H 2441   0.405   9.851   9.745  1.0031 -2.7485 -0.5527
  759MOL0     H 2442   0.282   9.919   9.842 -0.8495 -0.6637 -0.7776
  759MOL0     H 2443   0.473   9.696   9.924 -0.4515  0.0933 -0.6659
  759MOL0     H 2444   0.312   9.719  10.009 -1.9825  1.3919 -0.1003
  759MOL0     H 2445   0.473   9.840  10.133  1.5890  3.0206 -0.5322
  759MOL0     H 2446   0.362   9.954  10.073 -2.0543  0.0059 -1.0635
  759MOL0     H 2447  -0.159   9.121   9.776  0.3821  0.3212  0.0467
  759MOL0     H 2448  -0.028   8.922   9.730 -1.4363 -0.1467 -0.9144
  759MOL0     H 2449   0.143   8.635   9.509 -1.0072 -1.4467  1.4535
  759MOL0     H 2450   0.258   8.433   9.475 -0.0046  0.1287 -1.1344
  759MOL0     H 2451   2.369   8.317   9.054 -1.5226 -0.2431 -0.0047
  759MOL0     H 2452   2.562   8.424   9.166  0.2308  2.5875 -0.3489
  759MOL0     H 2453   2.706   8.675   9.492  0.4035 -2.0477 -1.5750
  759MOL0     H 2454   2.922   8.712   9.604  0.2036  2.9829  1.0384
  759MOL0     H 2455   3.110   8.841   9.685 -0.3857 -1.2024  0.4494
  759MOL0     H 2456   3.141   8.666   9.634 -3.5644  0.0198 -0.4366
  759MOL0     H 2457   3.301   8.821   9.770 -2.1609  2.7601 -0.0874
  759MOL0     H 2458   3.336   8.900   9.622  0.9163 -0.2255 -0.0018
  759MOL0     H 2459   3.420   8.690   9.512  0.7894  2.6866 -0.3346
  759MOL0     H 2460   3.394   8.606   9.669  0.9283  0.6024  1.2983
  759MOL0     H 2461   3.556   8.800   9.742  1.6928  1.4722 -0.7653
  759MOL0     H 2462   3.562   8.853   9.579 -1.2027  0.8835  0.4876
  759MOL0     H 2463   3.841   8.538   9.567 -0.0157 -0.7684 -1.7023
  759MOL0     H 2464   3.081   8.885   9.251  1.1428  1.3124  3.0894
  759MOL0     H 2465   2.866   8.855   9.138  3.5277 -1.3634 -0.9710
  760MOL0     O 2466   8.148   5.449   9.853  0.1007  0.3343  0.3044
  760MOL0     C 2467   8.266   5.438   9.833  0.2562  0.3717 -0.0411
  760MOL0     O 2468   8.325   5.427   9.710  0.3229 -0.0661 -0.3365
  760MOL0     C 2469   8.245   5.416   9.596  0.9460  0.2681 -0.0552
  760MOL0     C 2470   8.325   5.384   9.491  0.9023  0.1694  0.3307
  760MOL0     C 2471   8.276   5.378   9.359  0.3777 -0.6273  0.5790
  760MOL0     C 2472   8.144   5.404   9.333  0.9923 -1.0168  0.0192
  760MOL0     O 2473   8.101   5.390   9.204  0.4172 -0.3391  0.2361
  760MOL0     C 2474   7.981   5.327   9.178  0.6059 -0.6960  0.7600
  760MOL0     C 2475   7.943   5.339   9.027 -1.0224 -0.5526 -0.9749
  760MOL0     C 2476   7.811   5.274   9.006  0.3851 -0.2700  0.0835
  760MOL0     C 2477   7.762   5.285   8.859 -0.7512  0.4224  0.7095
  760MOL0     C 2478   7.622   5.227   8.834 -0.4785 -0.3438  0.0718
  760MOL0     C 2479   7.588   5.205   8.687 -0.1857  0.6057  0.3938
  760MOL0     C 2480   7.447   5.147   8.662  0.4883  0.8541 -0.6900
  760MOL0     C 2481   7.420   5.094   8.520 -0.7232 -0.2918 -0.4072
  760MOL0     N 2482   7.478   4.966   8.495 -0.0147  0.3545 -0.1319
  760MOL0     C 2483   7.428   4.843   8.541 -0.5520  0.9347 -0.8040
  760MOL0     C 2484   7.511   4.756   8.482 -0.2799  0.4077  0.1303
  760MOL0     C 2485   7.490   4.600   8.492 -0.3395 -0.7042 -0.5345
  760MOL0     C 2486   7.626   4.533   8.464 -0.3176  0.3192 -0.1045
  760MOL0     C 2487   7.758   4.559   8.541 -0.6500 -0.3149  0.3228
  760MOL0     C 2488   7.756   4.532   8.685 -0.1992  0.2531 -0.3408
  760MOL0     O 2489   7.667   4.632   8.741  0.4206 -0.6781  0.5074
  760MOL0     C 2490   7.677   4.654   8.878 -0.4311  0.0854  0.5428
  760MOL0     C 2491   7.583   4.757   8.918 -0.6906 -0.0063 -0.2152
  760MOL0     C 2492   7.578   4.809   9.048 -0.4466  0.5216 -0.3807
  760MOL0     C 2493   7.467   4.899   9.077  0.7145 -0.1742  0.8013
  760MOL0     C 2494   7.684   4.768   9.136 -1.0225 -0.2381 -0.6911
  760MOL0     C 2495   7.712   4.826   9.273 -0.7264  0.1500 -0.2313
  760MOL0     O 2496   7.664   4.945   9.310  0.2514 -0.4592  0.0664
  760MOL0     C 2497   7.706   4.996   9.435 -1.4444 -1.1467  0.0518
  760MOL0     C 2498   7.678   4.934   9.552 -0.3973  0.7297 -0.4850
  760MOL0     C 2499   7.699   4.993   9.673 -0.7281  0.0622  0.3720
  760MOL0     C 2500   7.761   5.119   9.685  0.2150  0.5420 -0.4670
  760MOL0     O 2501   7.773   5.161   9.816  0.8649 -0.4900  0.0446
  760MOL0     C 2502   7.834   5.288   9.833 -0.5594  0.3234  0.7259
  760MOL0     C 2503   7.863   5.311   9.986  0.2722 -1.0982 -0.0098
  760MOL0     C 2504   7.952   5.211  10.058 -0.6228 -0.0983  0.1899
  760MOL0     C 2505   7.980   5.262  10.205  0.3459  0.7871  0.9307
  760MOL0     C 2506   8.078   5.169  10.256  0.1146  0.0770  0.4949
  760MOL0     C 2507   8.165   5.238  10.366 -0.2579 -0.1535 -0.6318
  760MOL0     C 2508   8.236   5.142  10.459 -1.1270  0.1882  0.1341
  760MOL0     C 2509   8.337   5.234  10.541  0.2870  0.7871 -0.3684
  760MOL0    Cl 2510   8.486   5.272  10.447  0.0566  0.0428  0.3302
  760MOL0     C 2511   7.781   5.187   9.564  0.0714  0.4391  1.0546
  760MOL0     C 2512   7.773   5.121   9.434  0.0629  0.4843 -0.1609
  760MOL0     O 2513   7.779   4.753   9.346  0.5752  0.4458  0.7999
  760MOL0     C 2514   7.778   4.666   9.095 -0.4751  0.0623  0.3025
  760MOL0     C 2515   7.766   4.609   8.964 -0.7086 -0.1824 -0.3058
  760MOL0     N 2516   7.610   4.829   8.417  0.0153  0.5597 -0.1401
  760MOL0     N 2517   7.593   4.953   8.427  0.5657 -0.2272 -0.2189
  760MOL0     C 2518   8.053   5.438   9.442 -0.0713 -1.3401  0.0801
  760MOL0     C 2519   8.102   5.457   9.572  0.6150  0.0747 -0.5791
  760MOL0     C 2520   8.361   5.455   9.945 -0.5160  0.0856 -0.3113
  760MOL0     C 2521   8.500   5.477   9.921 -0.0732 -0.2983  0.1619
  760MOL0     C 2522   8.579   5.509  10.029  0.3293 -0.2725 -0.1967
  760MOL0     C 2523   8.529   5.522  10.164  0.3862  0.8913 -0.3171
  760MOL0     O 2524   8.609   5.561  10.266  0.1666  0.1082  0.0524
  760MOL0     C 2525   8.753   5.575  10.252 -0.2717  0.0639  0.1982
  760MOL0     C 2526   8.809   5.613  10.392 -0.5971 -0.0962  0.6490
  760MOL0     C 2527   8.933   5.704  10.385  1.3638  0.4857  0.3471
  760MOL0     C 2528   8.892   5.841  10.382 -1.0982 -0.4184 -0.0292
  760MOL0     C 2529   9.003   5.937  10.350 -0.2795  0.0649 -0.1218
  760MOL0     C 2530   9.108   5.995  10.315 -0.1547 -1.4883  0.1448
  760MOL0     C 2531   8.388   5.504  10.183 -0.5026  0.8094 -0.6175
  760MOL0     C 2532   8.315   5.455  10.074  0.2326  0.2072 -0.0370
  760MOL0     H 2533   8.429   5.371   9.518  1.0192 -0.5825 -0.4470
  760MOL0     H 2534   8.340   5.355   9.274 -0.7837 -2.1014  0.0798
  760MOL0     H 2535   7.998   5.224   9.208 -2.7437 -1.1919  1.3332
  760MOL0     H 2536   7.899   5.364   9.241 -0.2284 -1.3699  0.0984
  760MOL0     H 2537   7.936   5.446   9.008  1.0999  0.1387  1.5121
  760MOL0     H 2538   8.028   5.305   8.966 -0.7119  1.0172 -1.4574
  760MOL0     H 2539   7.804   5.166   9.026 -0.8217  0.0912  1.8009
  760MOL0     H 2540   7.735   5.314   9.074  0.2562 -4.9883  3.2530
  760MOL0     H 2541   7.753   5.391   8.837 -0.1100  0.4277  0.4492
  760MOL0     H 2542   7.839   5.248   8.790 -0.6498  0.7822  0.6306
  760MOL0     H 2543   7.619   5.128   8.881  3.5022 -0.1503  1.0705
  760MOL0     H 2544   7.545   5.293   8.876  0.1197  0.4143 -0.0064
  760MOL0     H 2545   7.605   5.301   8.637  0.3686 -1.3546 -3.6031
  760MOL0     H 2546   7.655   5.128   8.646  1.1548  1.8162  0.2125
  760MOL0     H 2547   7.421   5.075   8.740  3.1624  2.1684  1.5940
  760MOL0     H 2548   7.374   5.226   8.683  1.6344  1.5949  0.7285
  760MOL0     H 2549   7.453   5.170   8.449 -1.8751  1.3934  0.8141
  760MOL0     H 2550   7.312   5.078   8.522 -0.9910  0.8849 -2.3629
  760MOL0     H 2551   7.331   4.817   8.582  0.6496 -4.4663 -0.6613
  760MOL0     H 2552   7.452   4.570   8.590  2.7221  1.4642  1.4748
  760MOL0     H 2553   7.416   4.579   8.415 -0.5178  1.2715 -0.9493
  760MOL0     H 2554   7.660   4.539   8.360  0.4711 -3.1676 -0.1823
  760MOL0     H 2555   7.609   4.425   8.466 -1.1907  0.3649 -2.1696
  760MOL0     H 2556   7.784   4.664   8.528 -1.0689 -0.1568  0.7251
  760MOL0     H 2557   7.835   4.503   8.487 -2.1268 -2.3770  0.2209
  760MOL0     H 2558   7.859   4.549   8.715  0.6200  1.8913 -3.6335
  760MOL0     H 2559   7.723   4.431   8.712 -0.3503  0.6232  0.9269
  760MOL0     H 2560   7.509   4.786   8.844 -0.9139 -1.7118 -0.7011
  760MOL0     H 2561   7.502   5.002   9.067  2.0908 -0.5695  1.2876
  760MOL0     H 2562   7.388   4.887   9.002  1.8726  0.2050 -0.5154
  760MOL0     H 2563   7.424   4.896   9.177  1.8974  2.0468  1.4352
  760MOL0     H 2564   7.636   4.835   9.566  0.1409  0.3878 -1.2579
  760MOL0     H 2565   7.667   4.939   9.761  1.8225  1.5987  2.3719
  760MOL0     H 2566   7.928   5.282   9.777 -0.0048 -1.9400  1.7762
  760MOL0     H 2567   7.768   5.366   9.795 -0.1187 -0.4452 -1.7963
  760MOL0     H 2568   7.910   5.409   9.996 -1.4480 -0.1624 -0.6203
  760MOL0     H 2569   7.777   5.331  10.051  0.3696 -1.6594  0.2978
  760MOL0     H 2570   8.046   5.204  10.003  1.3320  1.9955  2.9785
  760MOL0     H 2571   7.900   5.115  10.048  1.0334 -0.9238 -0.9151
  760MOL0     H 2572   8.024   5.362  10.197  1.2637  0.3659  0.5963
  760MOL0     H 2573   7.887   5.269  10.263 -0.2042  1.3911  0.0113
  760MOL0     H 2574   8.150   5.152  10.175 -1.3715  1.1904 -1.1394
  760MOL0     H 2575   8.031   5.077  10.291  1.2685  0.2506  2.6888
  760MOL0     H 2576   8.235   5.310  10.322 -0.4712 -0.6983 -1.9123
  760MOL0     H 2577   8.104   5.299  10.433  1.7230 -0.6791  1.8286
  760MOL0     H 2578   8.295   5.073  10.398  1.6524  2.7764 -0.3190
  760MOL0     H 2579   8.164   5.086  10.521 -2.2457  1.8421  0.3952
  760MOL0     H 2580   8.361   5.179  10.632 -2.1441  1.2043  0.6076
  760MOL0     H 2581   8.286   5.327  10.567  1.3942  1.8871 -1.9807
  760MOL0     H 2582   7.786   5.295   9.577 -2.9750  0.4811  2.7957
  760MOL0     H 2583   7.783   5.169   9.337 -3.8495 -1.4239 -1.7389
  760MOL0     H 2584   7.865   4.641   9.155 -0.8190  1.1564  1.3138
  760MOL0     H 2585   7.845   4.541   8.932  0.4253  1.6712 -1.6247
  760MOL0     H 2586   7.952   5.477   9.436  1.2702  2.5752  0.1869
  760MOL0     H 2587   8.035   5.502   9.645  0.7236  2.1751 -1.7054
  760MOL0     H 2588   8.545   5.478   9.823 -0.6382 -0.9833 -0.1115
  760MOL0     H 2589   8.686   5.524  10.014 -0.2244  0.9983 -3.8553
  760MOL0     H 2590   8.792   5.476  10.228 -0.4456  0.4820 -1.9895
  760MOL0     H 2591   8.780   5.648  10.175 -0.3884 -0.8764 -0.7542
  760MOL0     H 2592   8.838   5.519  10.440  0.6956 -0.1912 -0.2617
  760MOL0     H 2593   8.744   5.660  10.466  0.3621  0.1698  1.3453
  760MOL0     H 2594   8.990   5.664  10.300  0.1322 -2.7720  0.8780
  760MOL0     H 2595   8.987   5.686  10.478 -0.1651  0.3658  1.2459
  760MOL0     H 2596   8.860   5.872  10.482  1.1040  1.0353  0.2843
  760MOL0     H 2597   8.802   5.860  10.322 -1.2024  2.2191  0.8376
  760MOL0     H 2598   9.197   6.042  10.278 -0.5083  2.0441  3.2258
  760MOL0     H 2599   8.346   5.527  10.281 -0.8824 -0.0465 -0.5670
  760MOL0     H 2600   8.210   5.429  10.088  0.5999 -2.1272 -1.1125
  761MOL0     O 2601   7.300   6.564   8.609 -0.4812 -0.0583 -0.4614
  761MOL0     C 2602   7.378   6.604   8.518  0.7438  0.5423 -0.3085
  761MOL0     O 2603   7.410   6.531   8.399 -0.4831  0.6651 -0.6225
  761MOL0     C 2604   7.367   6.401   8.386  1.1445 -0.3247 -0.0030
  761MOL0     C 2605   7.376   6.296   8.477 -0.4317 -0.4372  0.1197
  761MOL0     C 2606   7.310   6.174   8.438  0.9360  0.1657  0.0897
  761MOL0     C 2607   7.261   6.148   8.305  0.8997  1.3177  0.3082
  761MOL0     O 2608   7.214   6.020   8.268  0.0583 -0.2725 -0.2955
  761MOL0     C 2609   7.328   5.930   8.288 -0.5295 -0.5184 -0.1448
  761MOL0     C 2610   7.345   5.824   8.176 -0.0953  0.4961  0.2537
  761MOL0     C 2611   7.372   5.900   8.040  0.2959  0.1796 -0.5254
  761MOL0     C 2612   7.428   5.783   7.946  0.5010 -0.4944  1.8620
  761MOL0     C 2613   7.436   5.834   7.795  0.3695  0.4771 -0.0480
  761MOL0     C 2614   7.455   5.710   7.696 -0.9726 -0.5844 -0.9309
  761MOL0     C 2615   7.374   5.726   7.568  0.4022 -0.0773 -0.0207
  761MOL0     C 2616   7.373   5.592   7.493  0.1903  0.4807  1.0656
  761MOL0     N 2617   7.452   5.599   7.373  0.3524 -0.2023  0.6310
  761MOL0     C 2618   7.584   5.545   7.362  0.5270  0.7295  0.2379
  761MOL0     C 2619   7.632   5.608   7.252 -0.0618 -0.2286  0.1835
  761MOL0     C 2620   7.769   5.574   7.195 -0.2382  0.1194 -0.0238
  761MOL0     C 2621   7.765   5.419   7.162  1.6330 -0.2003 -0.3592
  761MOL0     C 2622   7.882   5.378   7.071  1.2863 -0.6595 -0.2432
  761MOL0     C 2623   8.017   5.437   7.113  0.0852 -0.3719  0.0962
  761MOL0     O 2624   8.109   5.392   7.007  0.7216 -0.2442  0.1457
  761MOL0     C 2625   8.232   5.360   7.053 -0.2045  0.4596 -0.2621
  761MOL0     C 2626   8.278   5.228   7.073 -0.6997  0.1477  0.4697
  761MOL0     C 2627   8.412   5.209   7.101 -0.6743 -0.2087  1.1445
  761MOL0     C 2628   8.459   5.064   7.122  0.1777 -0.8098  0.1168
  761MOL0     C 2629   8.497   5.315   7.142 -1.0331 -0.5159 -0.2737
  761MOL0     C 2630   8.643   5.301   7.181 -0.4531  0.9168  0.9133
  761MOL0     O 2631   8.726   5.411   7.159  0.2665  0.0573 -0.0900
  761MOL0     C 2632   8.857   5.413   7.207 -0.7771  0.6271  0.2238
  761MOL0     C 2633   8.925   5.330   7.295  0.8701 -0.2689 -0.2998
  761MOL0     C 2634   9.061   5.351   7.331 -0.1805  0.0757  0.4624
  761MOL0     C 2635   9.131   5.465   7.280  0.4571 -0.5671 -0.7804
  761MOL0     O 2636   9.253   5.495   7.327 -0.6012 -0.5410  0.7287
  761MOL0     C 2637   9.270   5.633   7.378  0.4440 -0.2286  0.3827
  761MOL0     C 2638   9.382   5.710   7.298  0.3206  0.3785 -0.4219
  761MOL0     C 2639   9.515   5.653   7.342 -0.2294 -0.6006  0.1969
  761MOL0     C 2640   9.618   5.762   7.337  0.9833 -0.7770  0.2793
  761MOL0     C 2641   9.712   5.744   7.212 -0.3799  0.3873 -0.6002
  761MOL0     C 2642   9.643   5.746   7.074 -0.6750 -0.3037 -0.9813
  761MOL0     C 2643   9.760   5.757   6.965 -0.0492 -0.5105  0.0645
  761MOL0     C 2644   9.679   5.725   6.837 -0.4440 -0.5162  0.8160
  761MOL0    Cl 2645   9.548   5.845   6.804  0.3119 -0.1932  0.5040
  761MOL0     C 2646   9.058   5.543   7.192 -0.4069  0.8803 -0.4218
  761MOL0     C 2647   8.928   5.528   7.162 -0.1762  0.6221 -0.8768
  761MOL0     O 2648   8.677   5.196   7.238  1.5877  0.2975 -0.0795
  761MOL0     C 2649   8.451   5.451   7.129 -0.1152 -0.5728  0.0732
  761MOL0     C 2650   8.310   5.466   7.083 -0.9539  0.7303 -0.1945
  761MOL0     N 2651   7.536   5.700   7.206 -0.2525 -0.3509  0.3993
  761MOL0     N 2652   7.440   5.698   7.284 -0.0558 -0.6320  0.1692
  761MOL0     C 2653   7.261   6.258   8.218  0.2132 -0.8047  0.2833
  761MOL0     C 2654   7.309   6.383   8.262  0.4335 -0.5769  0.9832
  761MOL0     C 2655   7.418   6.748   8.528 -0.0555  0.6405  0.6235
  761MOL0     C 2656   7.354   6.835   8.622 -0.6908  0.2076  0.2785
  761MOL0     C 2657   7.392   6.971   8.623 -0.9353 -0.0010  0.2978
  761MOL0     C 2658   7.494   7.023   8.540 -0.2282 -0.0786 -0.6834
  761MOL0     O 2659   7.519   7.153   8.521 -0.6955  0.0022 -0.1924
  761MOL0     C 2660   7.424   7.255   8.566 -0.5028  0.1426  0.7603
  761MOL0     C 2661   7.489   7.387   8.539 -0.2099 -0.2980  0.2803
  761MOL0     C 2662   7.611   7.419   8.627  0.1380  0.6366  0.7490
  761MOL0     C 2663   7.620   7.566   8.665 -0.8857  0.1893  0.0091
  761MOL0     C 2664   7.615   7.655   8.552 -0.0858 -0.0858 -0.5537
  761MOL0     C 2665   7.597   7.732   8.462  0.0400 -1.3728 -1.3910
  761MOL0     C 2666   7.556   6.931   8.456  0.0850  0.4506 -0.1844
  761MOL0     C 2667   7.515   6.799   8.448 -0.0438  0.2041 -0.2573
  761MOL0     H 2668   7.426   6.314   8.572  0.5830  3.7668 -1.0424
  761MOL0     H 2669   7.307   6.098   8.515  2.0996  0.0418  0.0225
  761MOL0     H 2670   7.420   5.983   8.313  0.6064 -0.8841 -3.1678
  761MOL0     H 2671   7.311   5.870   8.378 -1.0486  0.1583  0.2277
  761MOL0     H 2672   7.425   5.754   8.204  0.3404  0.5947 -0.7045
  761MOL0     H 2673   7.250   5.770   8.180  0.7123 -0.9164  1.2043
  761MOL0     H 2674   7.283   5.930   7.983  0.7687  2.1260 -0.3067
  761MOL0     H 2675   7.439   5.986   8.046  0.4375  0.0592 -0.3714
  761MOL0     H 2676   7.527   5.750   7.979  0.5068 -3.4520 -0.5749
  761MOL0     H 2677   7.364   5.695   7.954 -1.8224  0.7490 -1.0031
  761MOL0     H 2678   7.346   5.891   7.773  0.2859  0.5891  0.5800
  761MOL0     H 2679   7.514   5.910   7.782  0.4082  0.6575  1.1310
  761MOL0     H 2680   7.560   5.689   7.673 -0.9417 -1.4209 -0.0741
  761MOL0     H 2681   7.418   5.624   7.752  0.6579 -0.5466  0.2729
  761MOL0     H 2682   7.276   5.761   7.601  0.8049  0.9473  0.1061
  761MOL0     H 2683   7.403   5.796   7.490  5.5977 -0.4182  1.2233
  761MOL0     H 2684   7.273   5.560   7.461  0.1564  1.5893 -0.0039
  761MOL0     H 2685   7.409   5.511   7.558  1.3820  1.2112  1.3535
  761MOL0     H 2686   7.622   5.466   7.427  0.9103 -1.1097 -2.0986
  761MOL0     H 2687   7.799   5.624   7.103 -0.3929  0.1285 -0.0702
  761MOL0     H 2688   7.853   5.587   7.264  0.6136  1.7909 -1.3079
  761MOL0     H 2689   7.671   5.398   7.110  0.9282 -0.0254  0.8217
  761MOL0     H 2690   7.746   5.358   7.250 -3.6588  2.0075  0.4334
  761MOL0     H 2691   7.848   5.419   6.976  1.9855  3.7181  1.1951
  761MOL0     H 2692   7.877   5.271   7.047 -0.2334 -0.3034 -1.7249
  761MOL0     H 2693   8.055   5.384   7.201  0.3452  0.1775  0.3164
  761MOL0     H 2694   8.023   5.546   7.111 -0.0013 -0.3714 -0.7022
  761MOL0     H 2695   8.214   5.142   7.058  0.0885 -0.9113  2.7696
  761MOL0     H 2696   8.374   4.997   7.105 -0.6409  0.7155 -2.5371
  761MOL0     H 2697   8.539   5.047   7.050 -2.5446  0.7827 -3.6729
  761MOL0     H 2698   8.481   5.049   7.228 -1.4339  2.7404  1.1160
  761MOL0     H 2699   8.885   5.237   7.335 -0.8622  0.0742 -1.1414
  761MOL0     H 2700   9.117   5.289   7.399  1.1053  1.6861  0.9424
  761MOL0     H 2701   9.177   5.690   7.372 -2.0438 -4.0300 -1.5256
  761MOL0     H 2702   9.295   5.631   7.485 -0.5198  1.2889  0.6561
  761MOL0     H 2703   9.373   5.710   7.189  0.1137 -2.7796 -0.5020
  761MOL0     H 2704   9.361   5.812   7.332 -3.9435 -0.4139 -0.0901
  761MOL0     H 2705   9.543   5.566   7.282  0.0587 -2.3749  2.6962
  761MOL0     H 2706   9.509   5.627   7.449 -1.5786 -0.9802  0.0522
  761MOL0     H 2707   9.590   5.867   7.320  0.1931 -1.3885 -2.7459
  761MOL0     H 2708   9.667   5.755   7.434 -1.8166 -2.2757  1.6650
  761MOL0     H 2709   9.771   5.653   7.230  1.4831  1.4298 -1.1530
  761MOL0     H 2710   9.788   5.823   7.213  0.2960 -0.2538 -0.1730
  761MOL0     H 2711   9.579   5.660   7.053  1.0778 -1.0747 -3.7102
  761MOL0     H 2712   9.596   5.844   7.067 -0.5588 -0.1034  0.6925
  761MOL0     H 2713   9.844   5.690   6.982  1.2968  1.4211  1.4626
  761MOL0     H 2714   9.798   5.859   6.977  0.7438 -0.9988  2.0610
  761MOL0     H 2715   9.642   5.623   6.828  2.8811 -1.6766 -1.7691
  761MOL0     H 2716   9.750   5.729   6.754 -2.2185  0.6680 -0.7219
  761MOL0     H 2717   9.103   5.631   7.146  2.1905  0.6733  1.5050
  761MOL0     H 2718   8.879   5.599   7.096  0.7126 -1.6991 -4.3221
  761MOL0     H 2719   8.515   5.534   7.158 -2.6609  0.8570  2.0859
  761MOL0     H 2720   8.258   5.561   7.073  0.0914  1.5394  1.6221
  761MOL0     H 2721   7.225   6.253   8.116 -4.4103  0.9566  1.5970
  761MOL0     H 2722   7.309   6.469   8.196 -3.8079 -0.8956  0.2678
  761MOL0     H 2723   7.271   6.797   8.680 -1.1600  0.3231 -0.3044
  761MOL0     H 2724   7.342   7.039   8.691 -3.1812 -1.6193  0.3602
  761MOL0     H 2725   7.332   7.249   8.506 -1.1878  1.5353  1.6288
  761MOL0     H 2726   7.419   7.249   8.675  0.5865  2.0460  0.9509
  761MOL0     H 2727   7.410   7.460   8.563  0.8465 -0.0633  3.4574
  761MOL0     H 2728   7.510   7.388   8.431  2.7526  5.0878  0.5561
  761MOL0     H 2729   7.712   7.394   8.593  0.3566 -0.8530  2.3700
  761MOL0     H 2730   7.598   7.364   8.721  0.8083 -2.9385 -1.0959
  761MOL0     H 2731   7.716   7.590   8.712 -1.2502  2.1000 -0.1750
  761MOL0     H 2732   7.543   7.593   8.738  1.2210  1.2053  1.9867
  761MOL0     H 2733   7.613   7.802   8.383  0.8986 -1.9556 -1.7417
  761MOL0     H 2734   7.640   6.966   8.397 -0.3523  0.2273 -0.9638
  761MOL0     H 2735   7.555   6.736   8.370 -5.1141  0.4020 -3.5360
  762MOL0     O 2736   9.166   2.148   5.041  0.9769  0.0702 -1.0496
  762MOL0     C 2737   9.267   2.126   4.975  1.0277 -1.1562 -0.0288
  762MOL0     O 2738   9.397   2.167   5.018 -0.6379  0.0090 -1.0049
  762MOL0     C 2739   9.418   2.218   5.144 -0.4046 -0.7588 -0.2817
  762MOL0     C 2740   9.419   2.358   5.170  0.2399  0.1452  0.5521
  762MOL0     C 2741   9.451   2.399   5.302  0.4479 -0.8550 -0.8662
  762MOL0     C 2742   9.477   2.307   5.408 -0.5793 -0.0899 -0.1247
  762MOL0     O 2743   9.539   2.355   5.520  0.2271 -0.4165  0.6709
  762MOL0     C 2744   9.525   2.294   5.646 -0.2960  0.0999  0.5217
  762MOL0     C 2745   9.521   2.392   5.761 -0.6713 -0.9137  0.6730
  762MOL0     C 2746   9.666   2.440   5.791  0.4826  0.0792  0.1859
  762MOL0     C 2747   9.678   2.528   5.923  0.2422  0.4942 -0.0239
  762MOL0     C 2748   9.822   2.609   5.948  0.2116  1.4391  0.1562
  762MOL0     C 2749   9.925   2.512   5.986 -0.3269 -1.1961  0.2572
  762MOL0     C 2750  10.060   2.588   6.001  0.1749 -0.0968 -0.1279
  762MOL0     C 2751  10.137   2.604   5.876 -0.2869 -0.2983  0.0645
  762MOL0     N 2752  10.174   2.471   5.821  0.1254 -1.4051 -0.0431
  762MOL0     C 2753  10.240   2.378   5.889 -0.1329 -0.4866  0.1633
  762MOL0     C 2754  10.247   2.268   5.803 -0.1277  0.2898  0.4709
  762MOL0     C 2755  10.288   2.129   5.842 -0.4011  0.8285 -0.2294
  762MOL0     C 2756  10.360   2.125   5.978 -0.4948  0.2777  1.2516
  762MOL0     C 2757  10.434   1.987   5.992  0.5025  0.5943  0.3891
  762MOL0     C 2758  10.532   1.997   6.105  0.3174  1.3599  0.2956
  762MOL0     O 2759  10.586   1.858   6.112  0.0143  0.1476  0.0703
  762MOL0     C 2760  10.526   1.772   6.208 -0.2949  0.0637  0.2217
  762MOL0     C 2761  10.452   1.809   6.323  1.2046 -0.5424 -0.6921
  762MOL0     C 2762  10.392   1.708   6.403  0.1044  0.6295 -0.2392
  762MOL0     C 2763  10.293   1.751   6.508 -0.7411 -0.2547  0.5731
  762MOL0     C 2764  10.421   1.571   6.383 -0.6223  0.7635  1.1399
  762MOL0     C 2765  10.377   1.472   6.476  1.0614 -0.5309  0.3312
  762MOL0     O 2766  10.260   1.400   6.457  0.1449 -0.0605 -0.4284
  762MOL0     C 2767  10.166   1.437   6.363 -0.3806  1.2983 -0.5681
  762MOL0     C 2768  10.060   1.505   6.393 -0.1261 -0.0815 -0.1096
  762MOL0     C 2769   9.959   1.523   6.293 -0.0506 -0.1402 -0.5359
  762MOL0     C 2770   9.967   1.464   6.167 -0.4388 -0.4110 -0.8377
  762MOL0     O 2771   9.862   1.492   6.079 -0.2866  0.1276  0.2090
  762MOL0     C 2772   9.872   1.455   5.939  0.4173  0.4890  0.0376
  762MOL0     C 2773   9.756   1.497   5.851  0.5259 -1.0618  0.2496
  762MOL0     C 2774   9.622   1.447   5.920  0.3903  0.4730  0.3366
  762MOL0     C 2775   9.501   1.517   5.846 -0.8437 -0.1709 -0.0732
  762MOL0     C 2776   9.362   1.499   5.913 -0.8371 -0.7107 -0.3454
  762MOL0     C 2777   9.249   1.567   5.829  0.3302  0.0213  0.2280
  762MOL0     C 2778   9.133   1.610   5.918  1.1268 -0.6403  0.4879
  762MOL0     C 2779   9.007   1.614   5.834  0.6689 -0.3085  0.0309
  762MOL0    Cl 2780   8.865   1.646   5.934  0.2758  0.2344  0.1871
  762MOL0     C 2781  10.082   1.393   6.135  0.3067 -0.0083 -0.3416
  762MOL0     C 2782  10.175   1.377   6.236  0.2556  0.9156  0.0987
  762MOL0     O 2783  10.450   1.451   6.570 -0.0410 -0.7300 -0.1719
  762MOL0     C 2784  10.508   1.533   6.279  0.0154 -0.2485  0.1207
  762MOL0     C 2785  10.557   1.636   6.192  0.3863 -0.1065 -0.4629
  762MOL0     N 2786  10.178   2.295   5.688 -0.5833 -0.1760 -0.1732
  762MOL0     N 2787  10.136   2.421   5.698  0.3250  0.2666 -0.5189
  762MOL0     C 2788   9.470   2.173   5.380  0.7634 -0.9992  0.0576
  762MOL0     C 2789   9.436   2.131   5.254  0.4914 -0.2131  0.3250
  762MOL0     C 2790   9.238   2.058   4.847  0.4479  0.3248 -0.5209
  762MOL0     C 2791   9.346   2.004   4.778 -0.2662 -0.6081 -0.8302
  762MOL0     C 2792   9.322   1.929   4.658  0.3715  0.0787 -0.1994
  762MOL0     C 2793   9.197   1.901   4.610 -0.7525  0.5965 -0.1629
  762MOL0     O 2794   9.187   1.829   4.498  0.2552  0.9804  0.3023
  762MOL0     C 2795   9.112   1.881   4.388  0.2446 -0.0516 -0.4177
  762MOL0     C 2796   9.144   1.785   4.280 -0.5289 -0.0584  0.4109
  762MOL0     C 2797   9.043   1.665   4.279  0.1681  0.4048 -0.4284
  762MOL0     C 2798   9.067   1.583   4.153 -0.2029 -0.4348 -0.6372
  762MOL0     C 2799   9.180   1.482   4.176  0.7829  0.1124 -0.5828
  762MOL0     C 2800   9.265   1.402   4.192  0.5340 -0.3754  0.0121
  762MOL0     C 2801   9.086   1.945   4.686 -0.5907 -0.1180 -0.7843
  762MOL0     C 2802   9.108   2.017   4.812  0.1290 -0.4436  0.1647
  762MOL0     H 2803   9.410   2.421   5.082 -0.6256 -0.4118  0.2317
  762MOL0     H 2804   9.461   2.507   5.310 -1.2091 -0.1959 -4.9672
  762MOL0     H 2805   9.435   2.234   5.658  0.9638 -1.5756  2.1337
  762MOL0     H 2806   9.602   2.218   5.657 -0.1816 -0.2173 -1.9314
  762MOL0     H 2807   9.446   2.467   5.732 -1.6247 -1.5051  1.5230
  762MOL0     H 2808   9.491   2.335   5.850  1.5484 -0.0332  2.0884
  762MOL0     H 2809   9.735   2.355   5.797 -0.3666 -0.5283  1.7483
  762MOL0     H 2810   9.698   2.500   5.705 -1.4636 -0.2365 -0.8190
  762MOL0     H 2811   9.598   2.603   5.917  0.7894  1.4381  2.9733
  762MOL0     H 2812   9.668   2.460   6.009  3.1474  1.4745  1.2092
  762MOL0     H 2813   9.830   2.648   5.846 -5.0903 -0.2228 -1.2326
  762MOL0     H 2814   9.804   2.687   6.023 -0.2832  0.3266  1.2413
  762MOL0     H 2815   9.894   2.466   6.081  1.8143  0.1189  1.6983
  762MOL0     H 2816   9.928   2.433   5.910  1.1329  0.8772 -1.9750
  762MOL0     H 2817  10.048   2.689   6.041  2.7351 -0.1120  0.9048
  762MOL0     H 2818  10.119   2.529   6.073 -0.7160  0.8584  1.4509
  762MOL0     H 2819  10.229   2.661   5.887 -0.0865  0.1530 -2.9167
  762MOL0     H 2820  10.084   2.664   5.801 -0.4582  2.8264  2.4898
  762MOL0     H 2821  10.277   2.386   5.991 -0.0617 -1.3524  0.2106
  762MOL0     H 2822  10.199   2.066   5.856  0.4119  0.1624  2.7333
  762MOL0     H 2823  10.358   2.089   5.768 -0.7206 -0.2775  0.0413
  762MOL0     H 2824  10.285   2.135   6.056 -1.4633 -1.6684  0.6429
  762MOL0     H 2825  10.438   2.202   5.984  1.1396 -0.7760 -2.8168
  762MOL0     H 2826  10.494   1.968   5.902  1.4682  1.4774  0.8379
  762MOL0     H 2827  10.358   1.908   6.002  2.8101 -1.9032 -0.5677
  762MOL0     H 2828  10.499   2.048   6.195 -1.9967  2.3369 -1.0145
  762MOL0     H 2829  10.619   2.047   6.062 -0.6055  0.9544 -2.2025
  762MOL0     H 2830  10.435   1.913   6.350 -0.2943 -0.7112 -0.8796
  762MOL0     H 2831  10.282   1.671   6.582 -1.3410  0.8466  1.7165
  762MOL0     H 2832  10.323   1.843   6.558  0.0621 -1.1353  1.7683
  762MOL0     H 2833  10.197   1.772   6.460 -0.0412  0.2835 -0.6343
  762MOL0     H 2834  10.035   1.538   6.493 -2.4236  0.1654 -0.7012
  762MOL0     H 2835   9.862   1.564   6.322  0.4488  0.3492  0.5287
  762MOL0     H 2836   9.967   1.490   5.898  0.5511 -0.3027 -0.3402
  762MOL0     H 2837   9.878   1.346   5.941 -0.5984  0.4089 -0.6800
  762MOL0     H 2838   9.767   1.605   5.842  0.0304 -0.9679  0.6918
  762MOL0     H 2839   9.770   1.450   5.753 -2.4180  0.2532 -0.9211
  762MOL0     H 2840   9.620   1.460   6.029 -2.6932 -1.1606  0.5768
  762MOL0     H 2841   9.619   1.338   5.908 -1.8870  0.4972  0.2678
  762MOL0     H 2842   9.527   1.623   5.843  3.0270 -0.9031  1.0102
  762MOL0     H 2843   9.493   1.467   5.749 -0.8853  1.7518 -1.1153
  762MOL0     H 2844   9.364   1.553   6.008 -4.4406 -2.0023  0.6034
  762MOL0     H 2845   9.332   1.395   5.932 -1.1543 -0.8925 -1.7777
  762MOL0     H 2846   9.286   1.653   5.773  2.0391 -0.3030  0.8123
  762MOL0     H 2847   9.217   1.495   5.752  1.1261  1.4358 -1.4913
  762MOL0     H 2848   9.142   1.709   5.964 -0.2005 -0.7064  0.9365
  762MOL0     H 2849   9.115   1.525   5.984 -2.7869  0.4300  1.0921
  762MOL0     H 2850   8.997   1.522   5.776  0.7609  0.6166 -1.5136
  762MOL0     H 2851   9.011   1.691   5.755 -1.1345  1.4516  1.5545
  762MOL0     H 2852  10.093   1.351   6.035  0.2740 -2.4525  0.6124
  762MOL0     H 2853  10.260   1.314   6.213  1.0581  1.0908  2.2692
  762MOL0     H 2854  10.536   1.428   6.272 -0.1437 -0.2781 -0.0883
  762MOL0     H 2855  10.629   1.613   6.114 -0.1399  1.0821 -1.3229
  762MOL0     H 2856   9.499   2.100   5.455  0.8358 -0.6575  0.3648
  762MOL0     H 2857   9.428   2.024   5.246 -0.1418 -0.0448 -1.6647
  762MOL0     H 2858   9.448   2.015   4.814 -0.5690  0.4852 -0.2509
  762MOL0     H 2859   9.406   1.871   4.619 -0.2353 -2.3524  1.8302
  762MOL0     H 2860   9.004   1.872   4.404  0.4762 -1.2876  0.6399
  762MOL0     H 2861   9.140   1.985   4.370 -3.1394  1.4943  2.1918
  762MOL0     H 2862   9.250   1.759   4.286 -0.6062 -0.1510  1.6372
  762MOL0     H 2863   9.123   1.841   4.188  1.8820 -2.3486 -1.7293
  762MOL0     H 2864   8.940   1.701   4.272 -0.2627  0.7811  4.4364
  762MOL0     H 2865   9.043   1.591   4.360 -1.5877  0.6001 -0.2255
  762MOL0     H 2866   9.086   1.647   4.067  1.0386  2.4534  1.6245
  762MOL0     H 2867   8.974   1.526   4.146 -0.5837  0.1906 -0.8106
  762MOL0     H 2868   9.340   1.332   4.225 -1.5524 -3.1497 -0.6847
  762MOL0     H 2869   8.989   1.931   4.641 -1.3436  0.1442  0.6965
  762MOL0     H 2870   9.018   2.055   4.860 -0.1885  1.4746 -1.7729
  763MOL0     O 2871   0.372   6.340   3.765 -0.0111  0.3156 -0.6605
  763MOL0     C 2872   0.474   6.402   3.788 -0.2867  0.2464 -0.4663
  763MOL0     O 2873   0.567   6.368   3.882  0.9563 -0.1102  0.3417
  763MOL0     C 2874   0.531   6.310   4.003  0.2241 -0.1736 -0.0102
  763MOL0     C 2875   0.543   6.371   4.130 -0.2246 -0.3313  0.4730
  763MOL0     C 2876   0.533   6.303   4.251  0.4017  0.0682  0.4916
  763MOL0     C 2877   0.485   6.168   4.260 -1.0494 -0.4548 -0.5426
  763MOL0     O 2878   0.463   6.119   4.387 -0.1196 -0.2210  0.1604
  763MOL0     C 2879   0.438   5.977   4.409 -0.8309  0.3645 -0.7727
  763MOL0     C 2880   0.391   5.954   4.552  0.1980  0.6253  1.2422
  763MOL0     C 2881   0.502   5.980   4.660  0.2912  0.1808 -0.1627
  763MOL0     C 2882   0.450   5.951   4.800 -1.0479 -0.4115  1.0241
  763MOL0     C 2883   0.534   5.998   4.909 -0.5383 -0.8951  0.1960
  763MOL0     C 2884   0.542   6.151   4.932  0.0043 -0.4016  0.1002
  763MOL0     C 2885   0.637   6.190   5.050 -0.4429 -0.0753  0.0038
  763MOL0     C 2886   0.629   6.337   5.081  0.4616 -1.3283 -0.1859
  763MOL0     N 2887   0.662   6.371   5.220 -0.2313  0.2631  0.6877
  763MOL0     C 2888   0.591   6.356   5.336 -0.6366  0.0428 -0.3871
  763MOL0     C 2889   0.676   6.402   5.430  0.3295  0.1698 -0.0900
  763MOL0     C 2890   0.664   6.399   5.574  0.6569 -1.1859 -0.3048
  763MOL0     C 2891   0.561   6.502   5.611  0.4699 -0.3177 -0.2998
  763MOL0     C 2892   0.588   6.642   5.584  0.6418  0.6566 -0.4603
  763MOL0     C 2893   0.492   6.734   5.672  0.4867 -0.6634 -0.0959
  763MOL0     O 2894   0.541   6.865   5.654  0.2446 -0.7511  0.4977
  763MOL0     C 2895   0.496   6.968   5.739  0.3654 -0.4995  0.8954
  763MOL0     C 2896   0.566   7.088   5.734  0.3343 -0.0610 -0.2528
  763MOL0     C 2897   0.548   7.190   5.823  0.9638  0.1581 -0.6420
  763MOL0     C 2898   0.623   7.317   5.791 -0.8979 -0.6154  0.9811
  763MOL0     C 2899   0.447   7.181   5.927 -0.0079 -0.1818 -0.8521
  763MOL0     C 2900   0.429   7.291   6.024  0.6608 -0.6262  0.1824
  763MOL0     O 2901   0.310   7.289   6.094 -0.2004 -0.2923  0.3345
  763MOL0     C 2902   0.276   7.379   6.199 -0.1074 -0.2254  1.3051
  763MOL0     C 2903   0.217   7.307   6.302 -0.3665 -0.0978  0.1664
  763MOL0     C 2904   0.183   7.375   6.420 -0.7352  1.1242  0.5309
  763MOL0     C 2905   0.196   7.516   6.436  0.4553  0.3998  0.8602
  763MOL0     O 2906   0.169   7.597   6.547  0.4465  0.2788  0.3645
  763MOL0     C 2907   0.160   7.534   6.673  0.5411 -0.0461 -0.4399
  763MOL0     C 2908   0.300   7.518   6.738  0.5458  1.2634  0.0703
  763MOL0     C 2909   0.294   7.449   6.877  0.4721 -0.6416 -0.3956
  763MOL0     C 2910   0.227   7.306   6.885  0.3588  0.3569  0.4816
  763MOL0     C 2911   0.300   7.200   6.811  0.1933 -0.3869  0.6622
  763MOL0     C 2912   0.251   7.059   6.823 -0.7166  0.5614 -0.4631
  763MOL0     C 2913   0.334   6.963   6.737  0.1137 -0.4585  0.6922
  763MOL0     C 2914   0.476   6.949   6.785  0.5217 -0.0496  0.3437
  763MOL0    Cl 2915   0.553   6.835   6.677 -0.3168 -0.1835 -0.3486
  763MOL0     C 2916   0.253   7.585   6.333 -0.4880 -0.3737 -0.2354
  763MOL0     C 2917   0.290   7.521   6.209  0.5848  0.1225  0.3200
  763MOL0     O 2918   0.521   7.369   6.051  0.0701 -0.1619 -0.1166
  763MOL0     C 2919   0.384   7.057   5.940 -0.5877  0.4720  0.9982
  763MOL0     C 2920   0.400   6.951   5.842 -0.1134  0.3288 -0.5996
  763MOL0     N 2921   0.789   6.440   5.368  0.4632  0.4613  0.8186
  763MOL0     N 2922   0.787   6.416   5.240  0.9652  0.0695 -0.8762
  763MOL0     C 2923   0.474   6.094   4.140  0.3129  0.8167 -0.5124
  763MOL0     C 2924   0.499   6.172   4.019  0.0677 -0.3244  0.1995
  763MOL0     C 2925   0.532   6.493   3.678 -1.0066  0.1329 -0.1297
  763MOL0     C 2926   0.461   6.530   3.567  0.4807  0.2531  1.0890
  763MOL0     C 2927   0.524   6.596   3.453 -0.0679 -0.0655 -0.4705
  763MOL0     C 2928   0.654   6.633   3.454 -0.4799  0.1119 -1.0780
  763MOL0     O 2929   0.722   6.686   3.346 -0.7511  0.2923 -0.0334
  763MOL0     C 2930   0.687   6.823   3.320 -0.1572 -0.7761  0.2884
  763MOL0     C 2931   0.799   6.891   3.240 -0.4570 -0.3393  0.0583
  763MOL0     C 2932   0.823   7.039   3.268 -0.7642  0.1137  0.1688
  763MOL0     C 2933   0.886   7.076   3.390  0.1411  0.2203  0.3955
  763MOL0     C 2934   0.852   7.215   3.436 -0.1674 -0.9973  0.4302
  763MOL0     C 2935   0.859   7.331   3.468  0.5650  0.9030  0.1496
  763MOL0     C 2936   0.735   6.595   3.566  0.6917  0.4330 -0.1267
  763MOL0     C 2937   0.672   6.529   3.673  0.5414  0.3323 -0.2129
  763MOL0     H 2938   0.577   6.474   4.125 -0.1097 -0.4308 -2.4974
  763MOL0     H 2939   0.552   6.348   4.348 -0.3344  0.1657  0.6022
  763MOL0     H 2940   0.368   5.926   4.341  0.4568 -1.6176 -0.6852
  763MOL0     H 2941   0.528   5.916   4.403  0.5182  2.0465  1.1257
  763MOL0     H 2942   0.308   6.023   4.569 -0.4538 -0.8064  4.7594
  763MOL0     H 2943   0.366   5.848   4.558  0.6464 -0.1142 -4.4562
  763MOL0     H 2944   0.599   5.933   4.640 -0.2468 -1.2020  0.3231
  763MOL0     H 2945   0.512   6.088   4.650 -3.4704  0.7153  0.4203
  763MOL0     H 2946   0.355   6.004   4.815 -0.3013  0.6476  2.2148
  763MOL0     H 2947   0.433   5.846   4.822 -1.0380 -0.6271  0.0397
  763MOL0     H 2948   0.495   5.952   5.000 -3.4968  0.5946 -0.2182
  763MOL0     H 2949   0.639   5.969   4.895 -0.6244 -0.9796 -0.2933
  763MOL0     H 2950   0.575   6.210   4.847  1.0386  0.5447  1.1216
  763MOL0     H 2951   0.439   6.176   4.959 -0.2473 -2.1921  0.9721
  763MOL0     H 2952   0.609   6.121   5.130 -0.0892 -1.9921 -1.4555
  763MOL0     H 2953   0.737   6.161   5.019 -0.0414 -0.5989  1.7073
  763MOL0     H 2954   0.530   6.382   5.069  1.1480  0.4481  0.5264
  763MOL0     H 2955   0.697   6.396   5.019 -0.8481  2.4107  1.5821
  763MOL0     H 2956   0.492   6.312   5.346 -0.0699 -2.1313 -2.9633
  763MOL0     H 2957   0.628   6.303   5.611 -0.8619  0.0759  1.7658
  763MOL0     H 2958   0.752   6.433   5.630  0.4176  0.7014 -0.9882
  763MOL0     H 2959   0.545   6.491   5.719  0.0298  0.2190 -0.3027
  763MOL0     H 2960   0.458   6.482   5.577 -1.2274  1.7371  3.0898
  763MOL0     H 2961   0.584   6.655   5.476  2.1089 -2.7677 -1.0472
  763MOL0     H 2962   0.694   6.658   5.603  1.4263 -3.3415 -0.6391
  763MOL0     H 2963   0.502   6.710   5.779 -1.2794  1.6081  0.6599
  763MOL0     H 2964   0.391   6.725   5.631  0.2378  1.8284 -0.1800
  763MOL0     H 2965   0.643   7.100   5.658  1.8168  2.1502  1.4580
  763MOL0     H 2966   0.567   7.408   5.815 -1.0854  0.2812 -2.3280
  763MOL0     H 2967   0.725   7.316   5.830 -0.8361  1.9542  1.0026
  763MOL0     H 2968   0.621   7.325   5.682  0.4027  0.8167  1.0308
  763MOL0     H 2969   0.204   7.200   6.290  0.7445 -0.0437 -1.9928
  763MOL0     H 2970   0.150   7.310   6.500 -1.5395 -0.9150 -1.3648
  763MOL0     H 2971   0.100   7.596   6.740  1.9438  2.5148 -1.4006
  763MOL0     H 2972   0.118   7.433   6.672  0.8156 -0.2030  1.0591
  763MOL0     H 2973   0.363   7.472   6.661 -2.3036  0.3416 -1.8728
  763MOL0     H 2974   0.345   7.616   6.758 -2.1791  2.2792  1.8591
  763MOL0     H 2975   0.231   7.520   6.931  0.0045  0.7250 -2.5849
  763MOL0     H 2976   0.397   7.443   6.913  0.4536 -2.9613 -0.6074
  763MOL0     H 2977   0.235   7.283   6.991 -0.6279 -0.1386  0.4623
  763MOL0     H 2978   0.120   7.312   6.861  0.1012  0.1980  1.5655
  763MOL0     H 2979   0.396   7.207   6.862  0.4925  0.6113 -0.0142
  763MOL0     H 2980   0.300   7.240   6.709  5.1954 -0.8551  0.2406
  763MOL0     H 2981   0.260   7.033   6.929 -0.0679  6.3341  1.2053
  763MOL0     H 2982   0.147   7.041   6.795 -1.7220  0.9785  2.6798
  763MOL0     H 2983   0.340   7.003   6.636 -0.5097  1.1095  1.2414
  763MOL0     H 2984   0.281   6.867   6.739 -0.8392 -0.0068 -0.9242
  763MOL0     H 2985   0.477   6.906   6.886 -1.8595 -1.4317 -0.1415
  763MOL0     H 2986   0.523   7.046   6.797  1.6599 -0.7303  1.6256
  763MOL0     H 2987   0.290   7.687   6.331  2.0734 -1.1459 -4.4952
  763MOL0     H 2988   0.347   7.576   6.134  1.2426 -2.9150 -1.5941
  763MOL0     H 2989   0.317   7.035   6.023 -0.7070 -0.1624  0.7467
  763MOL0     H 2990   0.346   6.858   5.859  0.6425  0.1757  1.0552
  763MOL0     H 2991   0.447   5.989   4.136  1.6538  0.3661  1.1382
  763MOL0     H 2992   0.498   6.112   3.929  2.3014 -0.8862  0.4761
  763MOL0     H 2993   0.358   6.496   3.561  0.5899  0.1762 -1.7503
  763MOL0     H 2994   0.472   6.634   3.366  0.8601 -2.3312 -2.1058
  763MOL0     H 2995   0.600   6.830   3.253  0.0858  2.1999  0.1372
  763MOL0     H 2996   0.659   6.863   3.417  2.0982 -0.7767  0.9889
  763MOL0     H 2997   0.798   6.880   3.131  3.1967  0.7041 -0.2307
  763MOL0     H 2998   0.896   6.843   3.257 -0.8736 -1.1868  0.0810
  763MOL0     H 2999   0.724   7.083   3.258 -0.5809  0.1666 -1.7986
  763MOL0     H 3000   0.881   7.084   3.187  3.2455 -2.2775  1.4005
  763MOL0     H 3001   0.994   7.080   3.370  0.0131  0.3466 -0.2660
  763MOL0     H 3002   0.866   7.007   3.473 -0.7300  0.5028  0.4229
  763MOL0     H 3003   0.868   7.437   3.487 -2.2134  1.1032  0.7961
  763MOL0     H 3004   0.841   6.615   3.578  1.3708 -2.9223  0.5159
  763MOL0     H 3005   0.731   6.515   3.762  0.7536  0.6294 -0.3068
  764MOL0     O 3006   6.739   9.264   2.128  0.2540 -0.0133  0.5814
  764MOL0     C 3007   6.696   9.370   2.100  0.2044 -0.7866  0.1712
  764MOL0     O 3008   6.770   9.468   2.016  0.9412 -0.0320  0.2697
  764MOL0     C 3009   6.883   9.437   1.954  0.7864  0.2382  0.5124
  764MOL0     C 3010   6.981   9.360   2.011 -0.8334 -0.0467 -0.3380
  764MOL0     C 3011   7.084   9.314   1.933  0.0068 -0.2371  1.2152
  764MOL0     C 3012   7.087   9.324   1.792  0.4167 -0.1846  0.7988
  764MOL0     O 3013   7.188   9.263   1.730 -0.5855  0.2063  0.0263
  764MOL0     C 3014   7.193   9.270   1.580 -0.1788  0.0558 -0.5765
  764MOL0     C 3015   7.323   9.199   1.541  1.1154 -0.1109  0.2476
  764MOL0     C 3016   7.326   9.055   1.569  1.2619 -0.5009 -0.4223
  764MOL0     C 3017   7.451   8.987   1.520  0.3926  0.2071  0.4125
  764MOL0     C 3018   7.465   8.839   1.557  0.0860  0.3264 -0.5793
  764MOL0     C 3019   7.594   8.809   1.496 -0.7884 -0.0492  0.2016
  764MOL0     C 3020   7.634   8.656   1.499 -1.0643 -0.4710 -0.7263
  764MOL0     C 3021   7.729   8.614   1.609 -0.1771  0.6222 -0.5094
  764MOL0     N 3022   7.672   8.603   1.743 -0.7372 -0.7816  0.6707
  764MOL0     C 3023   7.595   8.511   1.801  0.2003 -1.2596  0.4398
  764MOL0     C 3024   7.595   8.548   1.932  0.3441  1.4429  0.0392
  764MOL0     C 3025   7.511   8.479   2.039 -0.4096  0.5566  0.8817
  764MOL0     C 3026   7.401   8.570   2.104  0.4234  0.9160  0.3633
  764MOL0     C 3027   7.272   8.585   2.024 -0.1603  0.4743 -0.3900
  764MOL0     C 3028   7.178   8.693   2.099  0.9159  0.0978 -0.3111
  764MOL0     O 3029   7.150   8.637   2.225  0.2010 -0.0163 -0.8057
  764MOL0     C 3030   7.080   8.718   2.314  0.1791 -0.3286 -0.1860
  764MOL0     C 3031   6.990   8.829   2.282 -0.2543  0.4789  1.1501
  764MOL0     C 3032   6.902   8.877   2.381 -0.1798 -0.1359  0.6787
  764MOL0     C 3033   6.805   8.990   2.331  0.1399  0.4324 -0.0387
  764MOL0     C 3034   6.906   8.820   2.506 -0.8802 -0.5289 -0.3259
  764MOL0     C 3035   6.812   8.851   2.614  0.9139 -0.7157 -0.5366
  764MOL0     O 3036   6.743   8.751   2.668  0.4503  0.2238  0.1192
  764MOL0     C 3037   6.710   8.766   2.802  0.1021  0.7725 -0.2271
  764MOL0     C 3038   6.794   8.837   2.896  0.5005 -0.3482 -0.0302
  764MOL0     C 3039   6.760   8.828   3.036 -0.4515 -1.1475 -0.1987
  764MOL0     C 3040   6.654   8.750   3.081 -0.2904  0.0556  0.2591
  764MOL0     O 3041   6.611   8.736   3.213 -0.0102  0.2284 -0.8541
  764MOL0     C 3042   6.686   8.822   3.303  0.1393 -0.0296  0.1146
  764MOL0     C 3043   6.624   8.787   3.438 -0.8919 -0.7123 -0.4413
  764MOL0     C 3044   6.704   8.859   3.552 -0.2027 -0.5982  0.0637
  764MOL0     C 3045   6.696   8.775   3.678  0.0786  0.3901  0.0086
  764MOL0     C 3046   6.783   8.841   3.794  0.7844  0.1381  0.6024
  764MOL0     C 3047   6.798   8.750   3.916 -0.1820 -0.5507 -0.3054
  764MOL0     C 3048   6.882   8.817   4.033  0.1413  0.3441  0.8890
  764MOL0     C 3049   6.865   8.759   4.178 -0.7458  0.9151 -0.2462
  764MOL0    Cl 3050   6.862   8.576   4.171 -0.3135 -0.1995 -0.0324
  764MOL0     C 3051   6.590   8.666   2.988  0.5178  0.5908  0.0953
  764MOL0     C 3052   6.605   8.692   2.850 -0.3016 -0.0551 -0.2079
  764MOL0     O 3053   6.803   8.969   2.649 -0.2448  0.7888 -0.8183
  764MOL0     C 3054   6.997   8.724   2.539  0.6017  0.3583  0.8080
  764MOL0     C 3055   7.084   8.674   2.444 -0.0058 -0.1006  0.3590
  764MOL0     N 3056   7.672   8.658   1.962  0.0292  0.1568  0.4808
  764MOL0     N 3057   7.721   8.688   1.843 -0.1080  0.8536 -0.0648
  764MOL0     C 3058   6.972   9.383   1.730 -1.0792  0.6515 -0.7234
  764MOL0     C 3059   6.878   9.447   1.813 -0.0367  0.2402 -0.3314
  764MOL0     C 3060   6.560   9.406   2.136 -0.7791  0.3291 -0.2126
  764MOL0     C 3061   6.515   9.542   2.131 -0.7521 -0.1749  0.9051
  764MOL0     C 3062   6.381   9.565   2.157 -0.7137 -0.7633  0.2465
  764MOL0     C 3063   6.294   9.468   2.200 -0.2364 -0.2829  0.1518
  764MOL0     O 3064   6.162   9.498   2.228  0.8799  0.0227 -0.3820
  764MOL0     C 3065   6.112   9.631   2.184 -0.5047  0.2672 -0.6371
  764MOL0     C 3066   5.959   9.624   2.188 -0.4608  0.1950 -1.0860
  764MOL0     C 3067   5.903   9.760   2.217  0.3380  0.4585  0.4089
  764MOL0     C 3068   5.758   9.765   2.201  0.5681 -0.5215  0.7138
  764MOL0     C 3069   5.717   9.903   2.169  0.1929 -0.5357  0.8346
  764MOL0     C 3070   5.678  10.019   2.155  0.1384  0.7037  0.5202
  764MOL0     C 3071   6.342   9.342   2.221  0.3701  0.4496  0.1340
  764MOL0     C 3072   6.471   9.309   2.197  0.7654 -0.1505  1.1447
  764MOL0     H 3073   6.977   9.322   2.112 -0.8149 -0.0360 -0.3333
  764MOL0     H 3074   7.152   9.242   1.978 -2.3471 -1.7564  2.5775
  764MOL0     H 3075   7.112   9.209   1.539 -0.1982  0.0861 -0.5824
  764MOL0     H 3076   7.194   9.376   1.554 -1.3344  0.2323  0.0323
  764MOL0     H 3077   7.343   9.210   1.434  0.8077 -1.0803  0.0818
  764MOL0     H 3078   7.405   9.257   1.585  0.9660 -0.7739  1.4168
  764MOL0     H 3079   7.314   9.033   1.675 -2.0675 -1.4527 -0.8820
  764MOL0     H 3080   7.228   9.019   1.538  1.3744 -1.9407  0.7631
  764MOL0     H 3081   7.475   9.003   1.414  2.2437  2.6388  1.0969
  764MOL0     H 3082   7.535   9.029   1.576  1.3039  0.4280 -1.0533
  764MOL0     H 3083   7.463   8.818   1.664  3.2695  1.5618 -0.1915
  764MOL0     H 3084   7.387   8.778   1.509 -0.8061  1.0529 -0.0820
  764MOL0     H 3085   7.601   8.843   1.392 -1.2607  1.3642  0.6132
  764MOL0     H 3086   7.681   8.855   1.543  1.2926 -0.7962 -2.6198
  764MOL0     H 3087   7.540   8.601   1.499 -2.0253  1.1330 -1.2396
  764MOL0     H 3088   7.686   8.635   1.404 -1.8812 -0.1533 -1.2537
  764MOL0     H 3089   7.818   8.678   1.610  0.1983  0.1894  2.5138
  764MOL0     H 3090   7.767   8.514   1.586 -0.4532  0.8575 -2.1357
  764MOL0     H 3091   7.545   8.430   1.748  0.3992 -0.5965 -0.7880
  764MOL0     H 3092   7.464   8.390   1.996  4.8244 -0.6633 -3.5654
  764MOL0     H 3093   7.586   8.434   2.106  1.0890 -0.1215 -1.1331
  764MOL0     H 3094   7.441   8.670   2.117 -0.1995  1.0882  1.0445
  764MOL0     H 3095   7.360   8.529   2.198  0.1399 -1.5679 -0.7467
  764MOL0     H 3096   7.219   8.490   2.035  1.2792 -0.3922 -0.8278
  764MOL0     H 3097   7.296   8.597   1.918 -0.1360 -3.8719 -1.0471
  764MOL0     H 3098   7.084   8.700   2.044  0.2767 -1.0193  0.6059
  764MOL0     H 3099   7.221   8.794   2.099 -0.2683  0.6212 -1.2942
  764MOL0     H 3100   6.984   8.872   2.183 -1.2456  0.1072  1.0422
  764MOL0     H 3101   6.871   9.066   2.287  2.3102 -2.1348 -1.4961
  764MOL0     H 3102   6.747   8.934   2.257  0.0341 -1.5249  1.4641
  764MOL0     H 3103   6.736   9.035   2.403 -0.7212  2.0887 -1.7790
  764MOL0     H 3104   6.884   8.883   2.858  2.5231 -3.3974  0.6459
  764MOL0     H 3105   6.817   8.892   3.102 -0.8850 -1.8155  0.8584
  764MOL0     H 3106   6.792   8.793   3.304  0.3011  0.4863 -0.8664
  764MOL0     H 3107   6.684   8.929   3.280  1.3793  0.0523  0.2759
  764MOL0     H 3108   6.522   8.827   3.442  0.4553  3.4992 -2.6509
  764MOL0     H 3109   6.613   8.679   3.457 -1.6386 -0.9076 -1.8981
  764MOL0     H 3110   6.642   8.948   3.564 -2.2311 -1.9708  0.3452
  764MOL0     H 3111   6.806   8.887   3.527 -0.6041  1.1671  0.2714
  764MOL0     H 3112   6.595   8.774   3.720  0.2867  1.3761  0.5517
  764MOL0     H 3113   6.737   8.677   3.650  4.0228  1.3274  1.8213
  764MOL0     H 3114   6.738   8.937   3.821  0.1274 -0.4105  1.5144
  764MOL0     H 3115   6.880   8.873   3.754  0.1533  0.5842 -0.6174
  764MOL0     H 3116   6.700   8.744   3.965  0.2153  2.8636  1.1786
  764MOL0     H 3117   6.846   8.659   3.877  0.6954  1.2878 -3.9361
  764MOL0     H 3118   6.851   8.922   4.033  1.9978  0.9428  1.5094
  764MOL0     H 3119   6.988   8.822   4.003  0.2915  0.5935  1.4541
  764MOL0     H 3120   6.772   8.789   4.227 -0.2241  1.0580  0.6724
  764MOL0     H 3121   6.946   8.796   4.242 -0.7064 -1.2670  1.0599
  764MOL0     H 3122   6.512   8.599   3.023  4.3815 -3.9386  1.0708
  764MOL0     H 3123   6.556   8.631   2.775  1.7961 -1.6766 -0.3403
  764MOL0     H 3124   6.999   8.678   2.638  2.2263 -0.4814  0.4156
  764MOL0     H 3125   7.149   8.589   2.461 -3.6013 -3.0128  0.9752
  764MOL0     H 3126   6.964   9.376   1.622  1.5802  0.2339 -0.9576
  764MOL0     H 3127   6.797   9.510   1.777  0.6404 -0.5571 -3.5485
  764MOL0     H 3128   6.589   9.612   2.095  0.5441 -3.2892 -3.3387
  764MOL0     H 3129   6.357   9.671   2.150  2.8682  0.0974 -2.1502
  764MOL0     H 3130   6.152   9.711   2.247 -1.9310 -0.5925  1.4746
  764MOL0     H 3131   6.149   9.649   2.082 -0.3817 -1.7943 -1.0164
  764MOL0     H 3132   5.928   9.549   2.262  1.6098  1.1986  0.8928
  764MOL0     H 3133   5.917   9.583   2.096  0.9998 -1.3896 -1.1015
  764MOL0     H 3134   5.941   9.838   2.150  1.7051  0.4712  1.1508
  764MOL0     H 3135   5.926   9.784   2.321 -2.0068 -2.6432  1.8107
  764MOL0     H 3136   5.709   9.721   2.288 -2.0933  1.7709  0.4767
  764MOL0     H 3137   5.733   9.697   2.118 -1.4674 -0.3573  1.1487
  764MOL0     H 3138   5.649  10.121   2.170 -1.0708  0.6953 -1.3987
  764MOL0     H 3139   6.277   9.266   2.264  1.8125 -3.4157 -3.7721
  764MOL0     H 3140   6.498   9.204   2.210  1.4521 -0.1025  0.2753
  765MOL0     O 3141  10.356   7.019   2.117 -0.1799 -0.0368 -0.2499
  765MOL0     C 3142  10.423   7.116   2.120 -0.3575 -0.7353  0.5227
  765MOL0     O 3143  10.559   7.126   2.126 -0.3900 -0.0060  0.0797
  765MOL0     C 3144  10.643   7.019   2.098 -1.0144 -0.1375 -0.4329
  765MOL0     C 3145  10.772   7.041   2.138  0.4376 -0.3719  0.0193
  765MOL0     C 3146  10.880   6.953   2.102  1.0792 -1.6354  0.3487
  765MOL0     C 3147  10.852   6.833   2.035  0.2358  1.2313  0.0201
  765MOL0     O 3148  10.946   6.730   2.015 -0.1828 -0.6174  0.9697
  765MOL0     C 3149  11.075   6.748   2.075  0.0139  0.2859  0.1280
  765MOL0     C 3150  11.170   6.637   2.038 -0.2799  0.1218  0.2471
  765MOL0     C 3151  11.108   6.498   2.060  0.0441 -0.1224 -0.5470
  765MOL0     C 3152  11.206   6.390   2.007  0.1466  0.0146 -0.1325
  765MOL0     C 3153  11.201   6.356   1.854 -0.2786  0.0665  0.8956
  765MOL0     C 3154  11.290   6.245   1.823  0.6948 -0.1471  0.5276
  765MOL0     C 3155  11.342   6.261   1.676  0.6149 -0.3679 -0.2086
  765MOL0     C 3156  11.434   6.145   1.630  0.2828 -0.3352  0.2199
  765MOL0     N 3157  11.539   6.129   1.730 -0.1599 -1.2831  0.3403
  765MOL0     C 3158  11.633   6.227   1.744 -1.1067 -0.1196  0.2236
  765MOL0     C 3159  11.708   6.180   1.837  0.6492 -0.2747 -0.0228
  765MOL0     C 3160  11.837   6.236   1.890 -0.2242 -0.3914  0.0018
  765MOL0     C 3161  11.967   6.172   1.838  0.4029  0.1575  0.3753
  765MOL0     C 3162  11.956   6.084   1.717  0.0680 -0.1744 -0.4705
  765MOL0     C 3163  12.089   6.021   1.669  0.1603 -1.2065  0.3615
  765MOL0     O 3164  12.178   6.131   1.623  0.2542  0.7662  0.0208
  765MOL0     C 3165  12.291   6.101   1.556  0.7049  1.1213  0.8426
  765MOL0     C 3166  12.328   5.974   1.504 -0.7406 -0.2961  0.3357
  765MOL0     C 3167  12.439   5.952   1.417  0.1559  0.3593 -0.5089
  765MOL0     C 3168  12.452   5.814   1.367  0.1007  0.3945  0.1981
  765MOL0     C 3169  12.526   6.067   1.396  0.0742  0.0566  0.5247
  765MOL0     C 3170  12.651   6.058   1.318 -0.5822 -0.7464  0.0470
  765MOL0     O 3171  12.702   6.181   1.291  0.1149 -0.1039  0.4476
  765MOL0     C 3172  12.816   6.190   1.219  0.5801  0.0667  0.2605
  765MOL0     C 3173  12.940   6.154   1.280  0.0859  0.0372 -0.0964
  765MOL0     C 3174  13.054   6.144   1.202  1.0803 -0.0926 -0.7472
  765MOL0     C 3175  13.047   6.170   1.064 -0.2229  0.1240 -0.1429
  765MOL0     O 3176  13.157   6.136   0.990 -0.3754  0.5542  0.3327
  765MOL0     C 3177  13.151   6.141   0.842  0.3646  1.4629 -0.1505
  765MOL0     C 3178  13.191   6.275   0.801 -0.7510  0.5713 -0.1924
  765MOL0     C 3179  13.215   6.294   0.646  1.2382  0.3194  0.0762
  765MOL0     C 3180  13.241   6.433   0.605  0.0987  0.1114  0.8523
  765MOL0     C 3181  13.257   6.434   0.455 -0.1903 -0.9784 -0.5603
  765MOL0     C 3182  13.321   6.561   0.395 -0.6387  0.3610  0.2460
  765MOL0     C 3183  13.342   6.528   0.242  0.3120 -0.4667 -0.2689
  765MOL0     C 3184  13.396   6.647   0.169  0.9044 -0.4497 -0.2012
  765MOL0    Cl 3185  13.255   6.744   0.130 -0.5333  0.0405  0.3357
  765MOL0     C 3186  12.926   6.217   1.003 -0.4507 -0.5848 -0.1489
  765MOL0     C 3187  12.813   6.229   1.088  1.2812  0.2979 -0.2085
  765MOL0     O 3188  12.705   5.951   1.291 -0.3324  0.3458  0.5147
  765MOL0     C 3189  12.490   6.190   1.455  0.0205 -0.2215 -0.4089
  765MOL0     C 3190  12.378   6.208   1.543 -0.3170 -0.2862  0.4033
  765MOL0     N 3191  11.659   6.063   1.896  0.2392 -0.2137  0.6792
  765MOL0     N 3192  11.551   6.042   1.830 -0.2005 -0.5476 -0.0291
  765MOL0     C 3193  10.719   6.801   2.012  0.2191 -0.4085  0.1575
  765MOL0     C 3194  10.619   6.896   2.041 -0.3433  0.1863 -0.2863
  765MOL0     C 3195  10.337   7.240   2.154  1.2154  0.2944 -0.2611
  765MOL0     C 3196  10.190   7.242   2.153 -0.4126 -0.0905 -0.1426
  765MOL0     C 3197  10.117   7.358   2.181 -0.2029 -0.0837 -0.4157
  765MOL0     C 3198  10.187   7.481   2.207  0.8384 -0.5817  0.9833
  765MOL0     O 3199  10.117   7.603   2.228  0.3737  0.6723  0.6822
  765MOL0     C 3200   9.976   7.597   2.252  0.0487  0.0867 -0.6011
  765MOL0     C 3201   9.896   7.725   2.231  0.4571  0.6461 -0.4797
  765MOL0     C 3202   9.750   7.717   2.266  0.5960  0.4161  0.0099
  765MOL0     C 3203   9.680   7.829   2.209 -0.6411 -0.2937  0.4474
  765MOL0     C 3204   9.567   7.861   2.294 -0.7384  0.6627 -0.3474
  765MOL0     C 3205   9.494   7.878   2.385 -0.1674  0.0570  0.2265
  765MOL0     C 3206  10.325   7.473   2.207  0.2132  0.1001 -0.3062
  765MOL0     C 3207  10.396   7.357   2.181 -0.2224  0.3555  0.1490
  765MOL0     H 3208  10.799   7.139   2.178  1.4878 -0.1859 -1.0741
  765MOL0     H 3209  10.982   6.983   2.122  1.2237 -0.1857 -2.1198
  765MOL0     H 3210  11.107   6.843   2.032  0.0562  0.0667 -0.3261
  765MOL0     H 3211  11.064   6.768   2.182  1.6796  2.9161 -0.0998
  765MOL0     H 3212  11.204   6.649   1.935  1.8502  1.2309  1.0168
  765MOL0     H 3213  11.255   6.645   2.108  0.7204 -0.8050 -0.8252
  765MOL0     H 3214  11.105   6.484   2.169 -2.2909  3.5504  0.0458
  765MOL0     H 3215  11.005   6.493   2.022  0.6101  0.0404 -2.1378
  765MOL0     H 3216  11.309   6.418   2.029  1.5285 -4.8699  0.9312
  765MOL0     H 3217  11.183   6.295   2.057  2.9117 -0.1390  1.0164
  765MOL0     H 3218  11.098   6.344   1.818  0.6923  1.1295 -2.7017
  765MOL0     H 3219  11.236   6.450   1.810  3.7719 -1.4982  0.3365
  765MOL0     H 3220  11.367   6.244   1.900 -0.7326  2.3338  2.1178
  765MOL0     H 3221  11.222   6.160   1.828 -1.7940  1.6503 -0.5457
  765MOL0     H 3222  11.263   6.280   1.603 -0.3954  1.0817  1.1939
  765MOL0     H 3223  11.397   6.356   1.677 -1.2396  0.8574  3.7117
  765MOL0     H 3224  11.472   6.175   1.531 -1.1852  0.1992 -0.1990
  765MOL0     H 3225  11.377   6.052   1.633  1.3104 -0.9662  2.1901
  765MOL0     H 3226  11.647   6.315   1.682 -1.7539  2.7330  3.7716
  765MOL0     H 3227  11.836   6.343   1.868 -0.3339 -0.7216 -1.7503
  765MOL0     H 3228  11.841   6.223   1.999  3.3147  2.3087  0.3784
  765MOL0     H 3229  12.017   6.111   1.914 -0.6586 -2.2393 -0.7450
  765MOL0     H 3230  12.040   6.250   1.815 -2.2704  1.7436 -3.8244
  765MOL0     H 3231  11.907   6.129   1.630  1.2394 -1.6743 -1.9540
  765MOL0     H 3232  11.890   5.999   1.739 -0.4809 -0.3500 -2.6366
  765MOL0     H 3233  12.064   5.959   1.583  0.0417  2.3032 -2.3791
  765MOL0     H 3234  12.132   5.962   1.751  2.8740  1.8248  1.3238
  765MOL0     H 3235  12.260   5.889   1.513 -1.9869  0.3342 -2.2944
  765MOL0     H 3236  12.505   5.741   1.428 -0.9671 -3.6991 -3.2691
  765MOL0     H 3237  12.355   5.770   1.340 -0.4461  0.6197  1.6866
  765MOL0     H 3238  12.488   5.814   1.264  0.7396 -3.7018  0.2418
  765MOL0     H 3239  12.937   6.114   1.381 -0.6108  0.8347  0.2126
  765MOL0     H 3240  13.141   6.096   1.246 -1.1615 -2.5498  1.4221
  765MOL0     H 3241  13.230   6.069   0.821 -1.1156  0.0395 -1.0463
  765MOL0     H 3242  13.063   6.100   0.791 -2.4378  4.8517  1.5173
  765MOL0     H 3243  13.114   6.343   0.838  1.3131  1.6573  2.4687
  765MOL0     H 3244  13.294   6.293   0.833 -0.0559  0.0194 -2.0076
  765MOL0     H 3245  13.126   6.257   0.595  0.0007  0.3095  2.1384
  765MOL0     H 3246  13.294   6.225   0.616  2.7535  1.6217  0.9250
  765MOL0     H 3247  13.146   6.481   0.631 -1.3839 -2.1120 -0.1522
  765MOL0     H 3248  13.322   6.488   0.653  0.9182  0.5388 -0.9254
  765MOL0     H 3249  13.159   6.419   0.407 -0.5261  0.6484 -0.4423
  765MOL0     H 3250  13.319   6.349   0.424  0.0480 -0.0025 -3.0029
  765MOL0     H 3251  13.257   6.649   0.400  0.1113  1.5085 -4.9673
  765MOL0     H 3252  13.413   6.590   0.448 -1.3592  1.3367  1.0050
  765MOL0     H 3253  13.251   6.485   0.198 -0.4503 -0.2531  1.0374
  765MOL0     H 3254  13.417   6.448   0.236 -0.0363 -1.0192  1.8294
  765MOL0     H 3255  13.460   6.614   0.086  0.0093  2.8649 -2.3821
  765MOL0     H 3256  13.450   6.705   0.244 -1.6852  0.3313  1.1788
  765MOL0     H 3257  12.928   6.245   0.898  0.7615  0.1941  0.0618
  765MOL0     H 3258  12.722   6.262   1.038  1.7419 -1.0580 -2.0409
  765MOL0     H 3259  12.551   6.278   1.436  0.1166  0.0194  0.9153
  765MOL0     H 3260  12.348   6.308   1.575  1.4001 -0.4239  2.7017
  765MOL0     H 3261  10.690   6.713   1.956 -4.5083 -1.6206  3.8544
  765MOL0     H 3262  10.522   6.868   2.001 -2.0645  0.6772  3.2222
  765MOL0     H 3263  10.143   7.148   2.127 -0.2233  0.4471 -2.6344
  765MOL0     H 3264  10.009   7.354   2.188 -0.2951  0.8876 -1.0243
  765MOL0     H 3265   9.916   7.526   2.194  0.3526 -1.3358  0.7664
  765MOL0     H 3266   9.957   7.569   2.356 -0.1740 -1.2405 -0.9715
  765MOL0     H 3267   9.912   7.749   2.125  0.6048 -0.3422 -0.6868
  765MOL0     H 3268   9.944   7.807   2.285 -0.8501 -1.0807  3.6330
  765MOL0     H 3269   9.736   7.707   2.374  0.1659 -3.0511 -0.2377
  765MOL0     H 3270   9.704   7.625   2.227  0.7191  1.0642 -1.7731
  765MOL0     H 3271   9.638   7.801   2.113 -3.5493 -4.0434  2.5278
  765MOL0     H 3272   9.746   7.917   2.203  0.2547 -1.0443 -1.6240
  765MOL0     H 3273   9.442   7.890   2.478  0.2701 -0.7745  0.5889
  765MOL0     H 3274  10.380   7.561   2.237 -0.3567 -0.2416  1.9227
  765MOL0     H 3275  10.504   7.368   2.187 -0.0614  3.1808 -4.0094
  766MOL0     O 3276   6.551   1.163   9.849 -0.2146  0.6756  0.8053
  766MOL0     C 3277   6.611   1.102   9.934 -0.0726 -0.4641 -0.0352
  766MOL0     O 3278   6.686   1.164  10.035  0.5993  0.0943  0.1825
  766MOL0     C 3279   6.813   1.172  10.011  0.2731  0.0124  0.3051
  766MOL0     C 3280   6.893   1.191  10.119 -0.1534 -0.1473  0.3278
  766MOL0     C 3281   7.034   1.193  10.108  0.1088  0.2060 -1.0381
  766MOL0     C 3282   7.096   1.196   9.975  0.4164 -0.2425 -0.4693
  766MOL0     O 3283   7.231   1.190   9.957 -0.2687 -0.1513 -0.7349
  766MOL0     C 3284   7.332   1.183  10.061  0.5192 -0.0171  0.4454
  766MOL0     C 3285   7.476   1.184  10.014 -1.2761 -0.0356  0.2796
  766MOL0     C 3286   7.515   1.073   9.908 -0.6714  0.1504  0.3195
  766MOL0     C 3287   7.664   1.037   9.911  0.3667  0.0134 -0.0716
  766MOL0     C 3288   7.738   1.162   9.865 -0.8897  0.0845  0.6617
  766MOL0     C 3289   7.892   1.143   9.884 -0.0352 -0.1607  0.8650
  766MOL0     C 3290   7.994   1.250   9.835  0.0366  1.0392 -0.7814
  766MOL0     C 3291   7.998   1.292   9.692  0.5285  0.7364  0.9470
  766MOL0     N 3292   8.065   1.194   9.614 -0.2959 -0.3979 -0.1959
  766MOL0     C 3293   8.189   1.138   9.621 -0.2765  0.5353  0.1177
  766MOL0     C 3294   8.199   1.047   9.527 -0.4167 -0.2244  0.4582
  766MOL0     C 3295   8.326   0.970   9.498  0.0264  0.7995 -0.0965
  766MOL0     C 3296   8.377   0.885   9.607  0.6269  0.1452 -0.1710
  766MOL0     C 3297   8.536   0.894   9.618 -0.1920 -0.2670  0.2846
  766MOL0     C 3298   8.573   1.038   9.662  0.8306 -0.0707 -0.0414
  766MOL0     O 3299   8.713   1.037   9.646 -0.3069  0.5107  0.1172
  766MOL0     C 3300   8.783   1.154   9.675 -0.6193 -0.2028 -0.1729
  766MOL0     C 3301   8.752   1.240   9.782 -0.1805 -0.4242  0.1521
  766MOL0     C 3302   8.831   1.348   9.818  0.1582 -0.1209 -0.2837
  766MOL0     C 3303   8.784   1.438   9.936 -0.1653  0.3070 -0.0730
  766MOL0     C 3304   8.961   1.359   9.756 -0.8618  0.4304 -0.3566
  766MOL0     C 3305   9.081   1.440   9.805 -0.4432 -1.0464 -0.7401
  766MOL0     O 3306   9.211   1.409   9.770 -0.7962 -0.3785  0.0977
  766MOL0     C 3307   9.307   1.492   9.828  0.8187 -1.1712  0.3748
  766MOL0     C 3308   9.346   1.476   9.959  0.5866  0.2293 -0.3364
  766MOL0     C 3309   9.461   1.538  10.009 -0.7266  0.5436 -0.3253
  766MOL0     C 3310   9.544   1.616   9.923 -0.4647  0.0329 -0.0631
  766MOL0     O 3311   9.671   1.663   9.958  0.2151 -0.0937  0.5407
  766MOL0     C 3312   9.685   1.744  10.078 -0.0748  0.5656 -0.8123
  766MOL0     C 3313   9.759   1.871  10.050  0.4600 -0.7082  0.6473
  766MOL0     C 3314   9.705   1.967   9.942  0.1097 -1.0218  0.5921
  766MOL0     C 3315   9.798   2.088   9.908 -0.7180 -0.3373  0.2508
  766MOL0     C 3316   9.816   2.193  10.029 -0.7266 -0.1711  0.9649
  766MOL0     C 3317   9.711   2.298  10.026  0.4699 -0.0619  0.6751
  766MOL0     C 3318   9.716   2.383  10.156 -0.7456  0.1707 -0.5965
  766MOL0     C 3319   9.621   2.510  10.154 -0.3514 -0.5298 -0.7865
  766MOL0    Cl 3320   9.456   2.457  10.155 -0.0500 -0.0568 -0.7314
  766MOL0     C 3321   9.497   1.630   9.789  0.0410 -0.3386  1.2740
  766MOL0     C 3322   9.381   1.577   9.740  0.0121  0.6003  0.2505
  766MOL0     O 3323   9.056   1.530   9.878  0.0156  0.0483 -0.2857
  766MOL0     C 3324   8.993   1.270   9.648  0.5577 -0.4997  0.6289
  766MOL0     C 3325   8.904   1.175   9.603 -0.0542 -0.7178  0.0786
  766MOL0     N 3326   8.079   1.057   9.456 -0.2891 -0.5169 -0.2328
  766MOL0     N 3327   7.998   1.137   9.517  0.2168 -0.1607 -0.5941
  766MOL0     C 3328   7.012   1.192   9.869 -0.2482 -0.3338  0.1906
  766MOL0     C 3329   6.869   1.181   9.884 -0.2355 -0.6198  0.1734
  766MOL0     C 3330   6.622   0.953   9.906 -0.0109  0.5017  1.6265
  766MOL0     C 3331   6.591   0.897   9.781 -0.3840  0.8244  0.1986
  766MOL0     C 3332   6.614   0.760   9.756  0.1971  1.0367 -0.5402
  766MOL0     C 3333   6.650   0.670   9.862  0.4191 -0.6542  0.1009
  766MOL0     O 3334   6.644   0.543   9.837 -0.0009  0.2857 -0.1392
  766MOL0     C 3335   6.761   0.473   9.886 -0.3552 -0.4804 -0.4390
  766MOL0     C 3336   6.834   0.386   9.775  0.8563 -0.5770 -1.1820
  766MOL0     C 3337   6.875   0.463   9.653 -0.2207 -0.0193 -0.8018
  766MOL0     C 3338   7.008   0.539   9.660 -0.5624  0.1402  0.7292
  766MOL0     C 3339   7.124   0.450   9.659 -0.4725 -0.4639  0.5838
  766MOL0     C 3340   7.222   0.377   9.656  0.0680 -0.1324  0.0063
  766MOL0     C 3341   6.671   0.722   9.998  0.3587  0.1130  1.5740
  766MOL0     C 3342   6.666   0.866  10.005  0.1437  0.4224  0.1778
  766MOL0     H 3343   6.854   1.189  10.220  0.2424 -1.9401  0.4774
  766MOL0     H 3344   7.084   1.204  10.203  0.2307  2.5137 -1.3076
  766MOL0     H 3345   7.315   1.261  10.135  0.2133  0.5911 -0.2440
  766MOL0     H 3346   7.304   1.090  10.111  0.8997  0.3997  1.4438
  766MOL0     H 3347   7.490   1.286   9.976  0.6763 -1.2532 -2.6038
  766MOL0     H 3348   7.545   1.168  10.097  0.4742 -1.5947 -1.3700
  766MOL0     H 3349   7.459   0.981   9.927 -0.6586 -0.4298 -2.1378
  766MOL0     H 3350   7.480   1.106   9.810 -0.8523  2.6016  1.1400
  766MOL0     H 3351   7.704   1.018  10.010  1.9538 -1.6710 -0.9793
  766MOL0     H 3352   7.691   0.960   9.839  2.1015  0.5237 -0.0008
  766MOL0     H 3353   7.720   1.174   9.757 -1.8632 -3.2880  0.3240
  766MOL0     H 3354   7.702   1.255   9.909 -0.5696  1.7191 -2.2736
  766MOL0     H 3355   7.915   1.130   9.990  3.2672 -2.0915  0.0577
  766MOL0     H 3356   7.928   1.052   9.835 -0.6340  0.0188  0.0624
  766MOL0     H 3357   7.975   1.340   9.894 -1.2280 -0.2760  0.9113
  766MOL0     H 3358   8.095   1.216   9.859  0.0737  1.1991 -0.7118
  766MOL0     H 3359   8.060   1.382   9.690  0.6879  0.7228  3.0381
  766MOL0     H 3360   7.896   1.305   9.654  0.5118  1.2760  1.1571
  766MOL0     H 3361   8.266   1.164   9.694  0.9646  1.6215 -1.5019
  766MOL0     H 3362   8.310   0.918   9.403  1.2698  0.8979 -0.3765
  766MOL0     H 3363   8.400   1.043   9.465 -1.2620  0.5179 -4.1808
  766MOL0     H 3364   8.344   0.783   9.588 -2.1669  0.6987  1.1809
  766MOL0     H 3365   8.332   0.921   9.700 -1.1798  1.9688 -1.6640
  766MOL0     H 3366   8.585   0.869   9.524 -0.8665 -0.1458 -0.1056
  766MOL0     H 3367   8.575   0.830   9.698  2.2331  1.1087  0.3009
  766MOL0     H 3368   8.541   1.044   9.766 -3.2007 -0.3533 -1.1202
  766MOL0     H 3369   8.525   1.115   9.601 -0.4924 -0.9116 -0.1043
  766MOL0     H 3370   8.672   1.221   9.854 -0.3937 -2.6041 -0.5813
  766MOL0     H 3371   8.828   1.403  10.030 -0.2699 -0.0356 -0.1513
  766MOL0     H 3372   8.817   1.542   9.923  1.1534 -0.3081 -2.0427
  766MOL0     H 3373   8.677   1.451   9.953  0.1139  2.5928  0.3636
  766MOL0     H 3374   9.284   1.416  10.025  1.4759 -0.9976 -0.5859
  766MOL0     H 3375   9.490   1.508  10.109 -1.3728 -1.6703 -0.7524
  766MOL0     H 3376   9.587   1.763  10.122 -0.8562 -0.9575 -1.8029
  766MOL0     H 3377   9.749   1.692  10.150 -0.3387  1.9392  0.4777
  766MOL0     H 3378   9.773   1.916  10.149 -2.4231 -0.0475  0.8390
  766MOL0     H 3379   9.860   1.838  10.024  0.9137 -0.6145  2.1851
  766MOL0     H 3380   9.606   2.000   9.975  1.3869  3.1027  0.8098
  766MOL0     H 3381   9.684   1.912   9.850 -2.7900 -1.0992  1.1994
  766MOL0     H 3382   9.896   2.056   9.874 -0.0835  2.1555 -0.4663
  766MOL0     H 3383   9.750   2.137   9.823  1.9967  0.3353 -0.9673
  766MOL0     H 3384   9.910   2.248  10.025 -0.2235 -0.6126  4.0336
  766MOL0     H 3385   9.815   2.143  10.126  0.0450  0.0086  1.0729
  766MOL0     H 3386   9.738   2.375   9.952  1.7761  1.6901  2.8392
  766MOL0     H 3387   9.609   2.264  10.007  0.3721  0.0879  0.9296
  766MOL0     H 3388   9.820   2.414  10.168  0.2600 -2.7080 -1.0481
  766MOL0     H 3389   9.685   2.315  10.236 -1.2608  3.2287  2.0101
  766MOL0     H 3390   9.636   2.576  10.068  1.5554  0.2386  0.0784
  766MOL0     H 3391   9.645   2.570  10.242  2.9592 -1.4076 -0.9617
  766MOL0     H 3392   9.554   1.680   9.712  1.2436  1.6986  3.3609
  766MOL0     H 3393   9.351   1.598   9.638  0.4193  3.2805  0.6132
  766MOL0     H 3394   9.089   1.289   9.600  0.7174  2.4624  1.8874
  766MOL0     H 3395   8.928   1.117   9.515 -2.9230 -1.1709 -0.5098
  766MOL0     H 3396   7.055   1.191   9.769 -0.3105 -3.5472  0.0967
  766MOL0     H 3397   6.814   1.174   9.791 -0.8941  1.4987  0.3513
  766MOL0     H 3398   6.568   0.970   9.703 -0.6699  0.7369  0.2009
  766MOL0     H 3399   6.587   0.711   9.664 -2.3249  0.5707  0.3620
  766MOL0     H 3400   6.840   0.539   9.922 -2.1427  0.5461  1.8413
  766MOL0     H 3401   6.733   0.407   9.968  0.4953 -0.2971  0.0172
  766MOL0     H 3402   6.758   0.311   9.750 -0.0310  0.2281 -0.9836
  766MOL0     H 3403   6.919   0.330   9.814  0.2517 -0.5776  0.2360
  766MOL0     H 3404   6.790   0.524   9.622 -0.4227 -0.8614 -1.9857
  766MOL0     H 3405   6.894   0.385   9.577  0.6742 -1.0564  0.4326
  766MOL0     H 3406   7.003   0.604   9.748 -1.7296  2.1933 -0.7700
  766MOL0     H 3407   7.013   0.604   9.572  0.4696 -0.2738  0.4690
  766MOL0     H 3408   7.318   0.335   9.631  2.5935  4.6953  0.4237
  766MOL0     H 3409   6.685   0.661  10.087  0.7841 -3.4663 -0.7515
  766MOL0     H 3410   6.690   0.920  10.096  1.2588  0.9358 -0.4067
  767MOL0     O 3411   8.431   1.280   8.380 -0.3952 -0.3534  0.4912
  767MOL0     C 3412   8.494   1.172   8.391  0.3737 -0.3614 -1.4592
  767MOL0     O 3413   8.440   1.054   8.426 -0.2283 -0.0062 -0.2486
  767MOL0     C 3414   8.310   1.044   8.456  0.4821 -0.1350  0.4634
  767MOL0     C 3415   8.206   1.116   8.388  0.1852  0.0716 -0.9539
  767MOL0     C 3416   8.073   1.081   8.426 -0.7965 -1.0619 -0.2141
  767MOL0     C 3417   8.050   0.996   8.526  0.5666  0.3893 -0.4460
  767MOL0     O 3418   7.925   0.971   8.566 -0.6672  0.0494 -0.2386
  767MOL0     C 3419   7.816   0.965   8.479 -0.6995  0.1398  0.4240
  767MOL0     C 3420   7.695   0.939   8.561 -0.4426  1.1782 -0.3246
  767MOL0     C 3421   7.560   0.951   8.481 -0.4596  0.1463 -0.1198
  767MOL0     C 3422   7.525   0.822   8.397 -1.3491 -0.1936 -0.0658
  767MOL0     C 3423   7.462   0.704   8.478  0.3456 -0.4242 -1.0128
  767MOL0     C 3424   7.323   0.749   8.508  0.1128  0.0345 -0.3129
  767MOL0     C 3425   7.231   0.745   8.394  0.2314 -0.4957  0.6907
  767MOL0     C 3426   7.082   0.736   8.428  0.1944 -0.1302 -0.3453
  767MOL0     N 3427   7.048   0.829   8.535 -0.8663 -0.4398  0.9005
  767MOL0     C 3428   7.005   0.958   8.523 -0.2530 -0.4951  0.0436
  767MOL0     C 3429   6.994   1.004   8.649  0.1895  0.3931  0.9273
  767MOL0     C 3430   6.966   1.148   8.680  0.7218 -1.0095 -0.4174
  767MOL0     C 3431   7.093   1.232   8.681  0.4215 -0.2958 -0.7050
  767MOL0     C 3432   7.068   1.388   8.678 -0.6117  0.0172 -0.6739
  767MOL0     C 3433   7.208   1.455   8.679  0.0614  1.3030 -0.2016
  767MOL0     O 3434   7.185   1.593   8.714 -0.8400 -0.2345 -0.1001
  767MOL0     C 3435   7.145   1.627   8.841 -0.5504  0.1221  0.9260
  767MOL0     C 3436   7.202   1.573   8.954 -0.4633  1.0392 -0.1180
  767MOL0     C 3437   7.145   1.588   9.082  0.4509  0.2224  0.0799
  767MOL0     C 3438   7.207   1.505   9.196 -0.1164 -0.3657 -0.0026
  767MOL0     C 3439   7.046   1.687   9.105  0.5839  0.7380 -0.0203
  767MOL0     C 3440   6.972   1.704   9.235 -0.2112 -0.3862 -0.0458
  767MOL0     O 3441   6.863   1.786   9.226 -0.4965  0.3117 -0.2254
  767MOL0     C 3442   6.756   1.780   9.318  0.5959  0.2875  0.6530
  767MOL0     C 3443   6.686   1.895   9.358 -0.2115 -0.5459 -0.8447
  767MOL0     C 3444   6.600   1.890   9.470 -0.2038 -0.6648 -0.5983
  767MOL0     C 3445   6.544   1.767   9.508 -0.2194  0.1450  0.0264
  767MOL0     O 3446   6.437   1.772   9.586  0.7135 -0.3403 -0.4121
  767MOL0     C 3447   6.356   1.650   9.594  0.5509  0.2630  0.8734
  767MOL0     C 3448   6.219   1.679   9.651  0.3857 -0.9932 -0.4534
  767MOL0     C 3449   6.216   1.759   9.787 -0.2999 -0.0087  1.1674
  767MOL0     C 3450   6.077   1.763   9.852  0.1035 -0.2965 -0.6701
  767MOL0     C 3451   6.057   1.629   9.905  1.1757 -0.3949  0.3107
  767MOL0     C 3452   5.959   1.631  10.029 -0.8914  0.5020 -0.2625
  767MOL0     C 3453   5.818   1.682   9.999 -0.2913  0.2189 -0.0611
  767MOL0     C 3454   5.717   1.633  10.108 -0.2970  0.2111  0.1387
  767MOL0    Cl 3455   5.542   1.650  10.041 -0.5602 -0.1065 -0.4414
  767MOL0     C 3456   6.612   1.653   9.457  0.6391  0.2389  0.5505
  767MOL0     C 3457   6.716   1.655   9.372  0.4316 -0.3993  0.3157
  767MOL0     O 3458   7.004   1.650   9.337 -0.2592  0.0375 -0.5514
  767MOL0     C 3459   7.005   1.764   8.985  0.5827 -0.7121 -0.0409
  767MOL0     C 3460   7.058   1.743   8.860 -0.0410  0.4666  0.0595
  767MOL0     N 3461   7.044   0.906   8.735  0.3626  0.5462 -0.5519
  767MOL0     N 3462   7.067   0.805   8.669  0.1021  0.3406  0.4324
  767MOL0     C 3463   8.152   0.917   8.578 -0.3740 -1.2778  0.3704
  767MOL0     C 3464   8.284   0.949   8.549  0.8545 -0.0862 -0.2678
  767MOL0     C 3465   8.645   1.184   8.370  0.0262  0.7068  0.8911
  767MOL0     C 3466   8.735   1.084   8.389 -0.3738  0.1945  0.8832
  767MOL0     C 3467   8.868   1.102   8.364 -0.0057  0.0819 -0.3013
  767MOL0     C 3468   8.919   1.231   8.330  0.2337  0.2308 -0.5041
  767MOL0     O 3469   9.057   1.240   8.293 -0.2061  0.2529  0.2066
  767MOL0     C 3470   9.103   1.373   8.259  0.4680  0.1726  0.9095
  767MOL0     C 3471   9.256   1.366   8.238 -1.4320 -0.2479  0.7884
  767MOL0     C 3472   9.319   1.335   8.370 -1.6522 -0.5422  0.8791
  767MOL0     C 3473   9.465   1.378   8.378  0.3842  0.9570 -0.0429
  767MOL0     C 3474   9.547   1.291   8.291 -0.1240 -0.4504  0.8657
  767MOL0     C 3475   9.614   1.238   8.204  0.0888 -0.0493  1.3489
  767MOL0     C 3476   8.830   1.341   8.330 -0.9141  0.9794 -0.0898
  767MOL0     C 3477   8.696   1.313   8.336  0.1763  0.0491  0.0566
  767MOL0     H 3478   8.224   1.195   8.315  0.1030  1.6894  0.6873
  767MOL0     H 3479   7.990   1.137   8.383 -0.6127 -0.5446  0.1043
  767MOL0     H 3480   7.787   1.064   8.441 -4.1675  0.1872  2.7155
  767MOL0     H 3481   7.820   0.900   8.392  1.0628  2.3301 -1.2667
  767MOL0     H 3482   7.697   0.833   8.590  0.6668  0.7652 -1.7643
  767MOL0     H 3483   7.689   1.015   8.638 -2.2019  0.8683 -0.1053
  767MOL0     H 3484   7.484   0.969   8.558  2.1507 -0.7262  2.8689
  767MOL0     H 3485   7.564   1.039   8.416  2.9214  0.2523  0.0520
  767MOL0     H 3486   7.473   0.848   8.304  0.1897  3.3074 -0.1093
  767MOL0     H 3487   7.611   0.774   8.351 -0.7427  0.1194  0.7208
  767MOL0     H 3488   7.472   0.610   8.424  1.4024 -1.1018  0.2956
  767MOL0     H 3489   7.507   0.688   8.577 -1.8835  0.2244  0.1764
  767MOL0     H 3490   7.292   0.680   8.587  1.1208 -0.1276 -0.0502
  767MOL0     H 3491   7.326   0.843   8.564  5.0018  1.1501 -2.0123
  767MOL0     H 3492   7.247   0.824   8.320  1.5242 -0.9976  0.4221
  767MOL0     H 3493   7.236   0.648   8.344  0.9629 -0.4624  0.6936
  767MOL0     H 3494   7.070   0.639   8.477  2.8960  1.4611  4.1016
  767MOL0     H 3495   7.015   0.745   8.342 -0.1755  2.3827  0.1379
  767MOL0     H 3496   6.988   1.027   8.440  3.2048 -0.1987 -0.5586
  767MOL0     H 3497   6.879   1.176   8.619 -0.1498 -2.9625 -0.1575
  767MOL0     H 3498   6.926   1.143   8.782  0.2766 -2.5594 -0.6376
  767MOL0     H 3499   7.151   1.210   8.591 -1.3671 -0.0086 -1.9832
  767MOL0     H 3500   7.146   1.210   8.774 -0.2484  0.4975 -0.1131
  767MOL0     H 3501   7.019   1.404   8.775  1.2846 -4.8022  1.3921
  767MOL0     H 3502   7.006   1.410   8.590  1.0546 -2.9861 -2.7643
  767MOL0     H 3503   7.250   1.438   8.579  1.5644 -2.9150  0.9424
  767MOL0     H 3504   7.277   1.399   8.742  2.6516  2.3254 -1.9674
  767MOL0     H 3505   7.278   1.499   8.932  1.8049  3.1468  0.2078
  767MOL0     H 3506   7.261   1.570   9.265 -1.1291  1.0862 -0.5217
  767MOL0     H 3507   7.119   1.456   9.239  0.1582  0.1854  1.2183
  767MOL0     H 3508   7.275   1.423   9.171  0.3098 -0.2460  0.7520
  767MOL0     H 3509   6.705   1.990   9.310  2.0629 -1.9375 -2.9480
  767MOL0     H 3510   6.552   1.982   9.502  0.3928 -1.0921  1.7166
  767MOL0     H 3511   6.360   1.597   9.498  4.2311 -4.3580  3.1477
  767MOL0     H 3512   6.399   1.592   9.675 -1.9453 -2.9467  0.1026
  767MOL0     H 3513   6.150   1.739   9.591 -0.1330  1.7952  2.6427
  767MOL0     H 3514   6.161   1.586   9.660 -2.3588  0.7969  3.0749
  767MOL0     H 3515   6.249   1.861   9.765  0.6556 -0.4377  0.5003
  767MOL0     H 3516   6.300   1.726   9.848  1.0503 -1.9512 -1.5176
  767MOL0     H 3517   6.076   1.831   9.938 -3.1806 -1.2826  0.2436
  767MOL0     H 3518   5.995   1.798   9.789  1.7288  0.2123 -2.5895
  767MOL0     H 3519   6.145   1.578   9.944  0.3084 -0.8164  1.7826
  767MOL0     H 3520   6.013   1.568   9.826  1.2659  1.1859 -1.0080
  767MOL0     H 3521   5.962   1.534  10.079  2.6434  0.9249  0.5735
  767MOL0     H 3522   6.004   1.701  10.100  2.7088  0.1277 -1.9433
  767MOL0     H 3523   5.796   1.644   9.899  0.0885 -1.8355  0.5770
  767MOL0     H 3524   5.810   1.791  10.001 -1.0755  0.1607  1.7377
  767MOL0     H 3525   5.724   1.687  10.203 -1.3794 -0.1225  0.4143
  767MOL0     H 3526   5.743   1.529  10.133 -1.8716  0.2993  2.4014
  767MOL0     H 3527   6.575   1.555   9.481  0.9313 -0.1483 -0.5285
  767MOL0     H 3528   6.770   1.570   9.330 -1.0034 -1.1587 -0.0497
  767MOL0     H 3529   6.933   1.845   8.982  1.6520  0.2237 -2.1519
  767MOL0     H 3530   7.035   1.808   8.776 -0.8084  1.9316  1.3573
  767MOL0     H 3531   8.137   0.841   8.654  0.7202 -1.2580  0.6216
  767MOL0     H 3532   8.365   0.896   8.598  2.6246  2.3157 -0.4308
  767MOL0     H 3533   8.697   0.990   8.428  1.1176 -0.3654  1.0271
  767MOL0     H 3534   8.928   1.013   8.381 -2.2490 -1.7058 -1.2468
  767MOL0     H 3535   9.044   1.423   8.181  1.5517  3.7105  2.1256
  767MOL0     H 3536   9.092   1.449   8.337 -0.6113 -1.0303  1.9596
  767MOL0     H 3537   9.293   1.459   8.196  0.0827 -0.1493  2.2689
  767MOL0     H 3538   9.273   1.274   8.181 -1.9182 -3.1936  4.9649
  767MOL0     H 3539   9.316   1.232   8.406 -0.8799 -1.1163 -0.6006
  767MOL0     H 3540   9.262   1.382   8.450 -1.7862 -1.0726  1.1023
  767MOL0     H 3541   9.496   1.383   8.483 -4.6000  1.4840  1.6722
  767MOL0     H 3542   9.465   1.480   8.339 -0.7865  0.5543 -1.1568
  767MOL0     H 3543   9.684   1.189   8.139 -0.3402  3.3301 -2.0080
  767MOL0     H 3544   8.867   1.440   8.303  2.2167  0.8957  3.1567
  767MOL0     H 3545   8.645   1.408   8.333 -0.6378 -0.2045 -6.3116
  768MOL0     O 3546   8.243   9.213   4.400  0.3483 -0.1376  0.3517
  768MOL0     C 3547   8.217   9.122   4.318 -0.0941 -0.3389 -0.7949
  768MOL0     O 3548   8.268   9.115   4.188  0.2255 -0.4861  1.3614
  768MOL0     C 3549   8.359   9.206   4.143 -0.4613  0.0842  0.7102
  768MOL0     C 3550   8.484   9.225   4.204  0.4828 -0.4430  0.4883
  768MOL0     C 3551   8.561   9.337   4.162  0.5133  0.0993  0.3873
  768MOL0     C 3552   8.524   9.426   4.060  0.6565  0.1807  0.0189
  768MOL0     O 3553   8.614   9.526   4.043 -0.7250  0.0894 -0.3729
  768MOL0     C 3554   8.558   9.653   3.987  0.4618 -0.3997  0.2975
  768MOL0     C 3555   8.606   9.680   3.851 -0.0250 -0.5424  0.0907
  768MOL0     C 3556   8.582   9.826   3.803 -0.6037 -0.3883  0.2427
  768MOL0     C 3557   8.695   9.879   3.703  0.1590 -0.7400 -0.1140
  768MOL0     C 3558   8.686   9.824   3.569 -0.4168  0.8524 -0.2793
  768MOL0     C 3559   8.756   9.921   3.473  0.1329 -0.4565  0.4858
  768MOL0     C 3560   8.708   9.884   3.332 -0.6351  0.6765 -0.2873
  768MOL0     C 3561   8.568   9.946   3.308 -0.4264 -0.9484  0.1285
  768MOL0     N 3562   8.579  10.087   3.266  0.3408 -0.1235  0.8488
  768MOL0     C 3563   8.510  10.192   3.325  0.3354 -0.1087  0.8878
  768MOL0     C 3564   8.524  10.295   3.238 -1.3140 -0.4067  0.5287
  768MOL0     C 3565   8.455  10.426   3.241  1.0682  0.6188  0.0776
  768MOL0     C 3566   8.556  10.526   3.288 -0.1925 -0.9486 -0.0707
  768MOL0     C 3567   8.512  10.671   3.328 -0.4747  0.4402 -0.2666
  768MOL0     C 3568   8.625  10.744   3.402  0.0755 -0.1484  0.2730
  768MOL0     O 3569   8.756  10.751   3.327 -0.6850 -0.3784  0.1957
  768MOL0     C 3570   8.866  10.814   3.385  0.2001 -0.0605  0.0010
  768MOL0     C 3571   8.854  10.921   3.471  0.1375  0.2579 -0.4255
  768MOL0     C 3572   8.968  10.968   3.534 -0.2150 -0.0322  0.2031
  768MOL0     C 3573   8.942  11.079   3.633 -1.4393  0.0989 -1.0621
  768MOL0     C 3574   9.094  10.912   3.494  0.2706  0.1132  0.3342
  768MOL0     C 3575   9.229  10.967   3.545 -0.8417 -0.0299  0.2632
  768MOL0     O 3576   9.235  11.089   3.599  0.3777 -0.2120  0.3815
  768MOL0     C 3577   9.351  11.148   3.652  0.6660  0.7054  0.7945
  768MOL0     C 3578   9.468  11.162   3.577  0.2192 -0.0952  0.5236
  768MOL0     C 3579   9.581  11.219   3.624 -0.1587 -1.8557  0.9286
  768MOL0     C 3580   9.574  11.287   3.749  0.0798  0.2372 -1.0373
  768MOL0     O 3581   9.686  11.353   3.810 -0.4129 -0.4089 -0.3475
  768MOL0     C 3582   9.676  11.399   3.947  0.6674  0.4484 -0.0890
  768MOL0     C 3583   9.821  11.445   3.981 -0.4581  0.4137  0.0962
  768MOL0     C 3584   9.860  11.574   3.925  0.1936  0.3801  0.9846
  768MOL0     C 3585   9.951  11.652   4.025  0.2259 -0.4954  1.0678
  768MOL0     C 3586   9.994  11.785   3.951 -0.5733 -0.0750 -0.6286
  768MOL0     C 3587  10.067  11.754   3.822 -0.0628 -0.1695 -0.1816
  768MOL0     C 3588  10.157  11.872   3.767  0.2433 -0.5517 -0.2091
  768MOL0     C 3589  10.262  11.941   3.849 -0.2245  0.3902  0.8132
  768MOL0    Cl 3590  10.335  12.074   3.752  0.2445 -0.1168 -0.1624
  768MOL0     C 3591   9.445  11.299   3.819 -0.2495  0.7840  0.4270
  768MOL0     C 3592   9.341  11.221   3.771 -0.0407  0.3686  0.0007
  768MOL0     O 3593   9.329  10.897   3.545 -0.6856 -0.3740 -0.0830
  768MOL0     C 3594   9.098  10.799   3.403  0.5336 -0.0422 -0.7613
  768MOL0     C 3595   8.981  10.749   3.352 -0.2619  0.0404 -0.9784
  768MOL0     N 3596   8.620  10.257   3.141 -0.4814  0.1188  0.8066
  768MOL0     N 3597   8.645  10.137   3.158 -0.4027  0.1615  0.0903
  768MOL0     C 3598   8.399   9.401   3.995 -0.7710  0.3062 -0.5650
  768MOL0     C 3599   8.318   9.287   4.030  0.1733  0.3059 -0.2658
  768MOL0     C 3600   8.132   9.005   4.356  0.4706  1.1016 -0.1101
  768MOL0     C 3601   8.060   8.929   4.259 -0.7114  0.0911  0.5180
  768MOL0     C 3602   7.973   8.833   4.297 -0.2176 -0.6009 -0.0149
  768MOL0     C 3603   7.955   8.789   4.432 -0.3134 -0.1238 -0.3730
  768MOL0     O 3604   7.879   8.695   4.496 -0.2367 -0.4287  0.6277
  768MOL0     C 3605   7.784   8.622   4.407 -1.2282 -0.1471  0.1464
  768MOL0     C 3606   7.749   8.490   4.473  0.8133  0.1400  0.0455
  768MOL0     C 3607   7.669   8.509   4.602 -0.2402 -0.0995  1.2395
  768MOL0     C 3608   7.608   8.379   4.652  0.3668  0.1689 -0.6511
  768MOL0     C 3609   7.720   8.289   4.684  0.9178  0.5674 -0.4209
  768MOL0     C 3610   7.814   8.218   4.710 -0.7955  0.3055  0.7390
  768MOL0     C 3611   8.030   8.870   4.525  0.0604 -0.1793 -0.3472
  768MOL0     C 3612   8.119   8.971   4.487 -0.0109  1.1146  0.4433
  768MOL0     H 3613   8.526   9.165   4.285  0.6401  0.7546  1.3237
  768MOL0     H 3614   8.661   9.343   4.204  1.6570 -0.6575 -2.0576
  768MOL0     H 3615   8.449   9.649   3.989  0.3698 -2.3750 -2.3397
  768MOL0     H 3616   8.599   9.737   4.043  2.2950  0.6453 -2.3942
  768MOL0     H 3617   8.712   9.652   3.853 -0.4685 -2.3474 -0.4045
  768MOL0     H 3618   8.556   9.615   3.779  1.3634 -0.8695 -0.6187
  768MOL0     H 3619   8.488   9.827   3.746 -1.1808  4.3610  0.8595
  768MOL0     H 3620   8.564   9.897   3.884  1.4637  1.4913 -0.8531
  768MOL0     H 3621   8.675   9.985   3.686  0.1891 -1.0492 -2.3060
  768MOL0     H 3622   8.793   9.863   3.750 -0.6371 -2.0980  1.1691
  768MOL0     H 3623   8.733   9.726   3.574  2.7197  2.2521  0.7099
  768MOL0     H 3624   8.582   9.815   3.538 -1.0436 -1.0481  2.1048
  768MOL0     H 3625   8.729  10.025   3.495 -3.7403 -1.6566  2.1309
  768MOL0     H 3626   8.864   9.907   3.481 -0.2793 -2.9710  3.5256
  768MOL0     H 3627   8.770   9.925   3.251 -1.1000  0.8642 -0.5489
  768MOL0     H 3628   8.699   9.775   3.330  1.1221  0.3655  2.6604
  768MOL0     H 3629   8.499   9.939   3.392  0.1002  0.5672  0.7161
  768MOL0     H 3630   8.522   9.888   3.227  2.1772 -1.8833 -0.8187
  768MOL0     H 3631   8.450  10.181   3.415 -0.5948 -0.7900  0.2076
  768MOL0     H 3632   8.419  10.454   3.142 -1.7151 -1.2692  0.4414
  768MOL0     H 3633   8.369  10.419   3.308 -2.2033  0.9746 -3.7145
  768MOL0     H 3634   8.630  10.525   3.208  0.1749 -2.1174  0.2651
  768MOL0     H 3635   8.603  10.480   3.376  3.2998  0.4363 -1.0384
  768MOL0     H 3636   8.426  10.681   3.395 -0.0011 -0.9811  0.5960
  768MOL0     H 3637   8.470  10.723   3.242  0.9973  2.9885  0.4465
  768MOL0     H 3638   8.656  10.693   3.494 -1.8972 -1.4060  0.3020
  768MOL0     H 3639   8.584  10.840   3.433 -2.6662 -1.7504  2.0031
  768MOL0     H 3640   8.756  10.958   3.500  0.6666 -1.1362  3.8627
  768MOL0     H 3641   8.836  11.099   3.648 -1.0940  0.9638  0.3626
  768MOL0     H 3642   8.991  11.056   3.728  0.7350  3.5320 -1.1799
  768MOL0     H 3643   8.985  11.172   3.595 -2.4907  0.6081 -1.0495
  768MOL0     H 3644   9.465  11.116   3.478  0.1378  1.0615 -0.0216
  768MOL0     H 3645   9.676  11.216   3.572 -0.1883  1.5009  0.4398
  768MOL0     H 3646   9.603  11.480   3.954  0.4277  0.3961 -1.5531
  768MOL0     H 3647   9.646  11.319   4.016  1.3894  2.5802  2.8790
  768MOL0     H 3648   9.841  11.455   4.088  0.6306  2.5847 -0.2453
  768MOL0     H 3649   9.879  11.358   3.949 -3.0391 -0.2291 -3.5016
  768MOL0     H 3650   9.765  11.626   3.909 -0.2575 -0.8157 -0.3373
  768MOL0     H 3651   9.906  11.558   3.827 -0.8885  2.0421  0.1707
  768MOL0     H 3652   9.898  11.691   4.112  0.7737 -1.3221  1.7899
  768MOL0     H 3653  10.048  11.610   4.054  0.2399 -2.8459 -1.8926
  768MOL0     H 3654  10.072  11.829   4.014 -1.0341  2.1468 -1.5161
  768MOL0     H 3655   9.911  11.855   3.944  0.2403  1.2899  2.0445
  768MOL0     H 3656  10.135  11.669   3.828  0.4381  0.2351 -0.0982
  768MOL0     H 3657   9.997  11.728   3.742  1.7628 -1.0319 -1.5696
  768MOL0     H 3658  10.086  11.953   3.749 -2.5341 -2.7301  0.2841
  768MOL0     H 3659  10.212  11.839   3.678  0.5641 -0.5284 -0.0233
  768MOL0     H 3660  10.332  11.874   3.900 -0.0997 -1.4979 -1.6159
  768MOL0     H 3661  10.209  11.990   3.931  3.0289  0.5630  3.0235
  768MOL0     H 3662   9.437  11.353   3.912 -2.6488  0.0466  0.7085
  768MOL0     H 3663   9.248  11.214   3.827  0.8737  0.3952  1.5863
  768MOL0     H 3664   9.196  10.765   3.371  0.7158  0.8002 -1.1057
  768MOL0     H 3665   8.986  10.673   3.275 -1.2582 -2.0847  0.9509
  768MOL0     H 3666   8.357   9.466   3.918  0.9893  0.4439 -1.4530
  768MOL0     H 3667   8.231   9.268   3.968  0.6899 -2.1259 -0.3679
  768MOL0     H 3668   8.070   8.974   4.160  2.7561  0.0920  0.7407
  768MOL0     H 3669   7.929   8.760   4.229  0.1200 -0.7195 -0.1061
  768MOL0     H 3670   7.694   8.677   4.374 -0.0561  0.1848 -2.8223
  768MOL0     H 3671   7.829   8.584   4.315 -0.3991  1.5409 -0.1826
  768MOL0     H 3672   7.839   8.434   4.497 -0.0190 -2.1747 -1.8665
  768MOL0     H 3673   7.693   8.430   4.401  0.7988 -2.1226  1.8568
  768MOL0     H 3674   7.592   8.585   4.588 -3.4995 -3.1355  1.3243
  768MOL0     H 3675   7.737   8.537   4.683 -1.1893  2.2760  1.2895
  768MOL0     H 3676   7.526   8.352   4.585 -1.7133  0.6539  1.5118
  768MOL0     H 3677   7.556   8.405   4.746  1.0546  1.2618 -0.5468
  768MOL0     H 3678   7.885   8.138   4.711  1.5615  2.2478 -0.2201
  768MOL0     H 3679   8.016   8.856   4.632 -0.5557  2.4696 -0.0101
  768MOL0     H 3680   8.175   9.015   4.569 -0.3599 -1.4426  2.1791
  769MOL0     O 3681   4.965   5.352   8.311 -0.8950 -0.3920 -0.3069
  769MOL0     C 3682   5.043   5.331   8.410  0.5685  1.0029 -0.8402
  769MOL0     O 3683   5.153   5.241   8.407 -0.1359  0.2543  0.2987
  769MOL0     C 3684   5.188   5.160   8.303  0.1061 -0.1495 -0.4695
  769MOL0     C 3685   5.317   5.115   8.317 -0.8037 -0.3498  0.2418
  769MOL0     C 3686   5.376   5.026   8.234  0.1284  0.1182  0.1829
  769MOL0     C 3687   5.307   4.975   8.126 -0.1863 -0.6071 -0.3972
  769MOL0     O 3688   5.354   4.879   8.043 -0.6289  0.1447  0.1342
  769MOL0     C 3689   5.475   4.805   8.071  0.3615 -0.2065 -0.4436
  769MOL0     C 3690   5.495   4.698   7.964 -0.5859  0.0139 -0.6365
  769MOL0     C 3691   5.369   4.607   7.950 -0.0102  0.0321 -0.4258
  769MOL0     C 3692   5.347   4.518   8.072  0.5930  0.0388 -0.2251
  769MOL0     C 3693   5.215   4.435   8.071 -0.0867 -0.4890 -0.9587
  769MOL0     C 3694   5.185   4.347   7.948 -0.3835 -0.2110 -0.5105
  769MOL0     C 3695   5.074   4.251   7.990 -0.1180  0.3006  0.0660
  769MOL0     C 3696   5.028   4.165   7.868 -0.3836 -0.5319  0.9362
  769MOL0     N 3697   5.128   4.058   7.854 -0.1261 -0.4202  0.2064
  769MOL0     C 3698   5.232   4.072   7.771 -0.4011  0.1687 -0.2395
  769MOL0     C 3699   5.258   3.944   7.747  0.0141 -0.1532 -0.2062
  769MOL0     C 3700   5.372   3.903   7.658  0.0522 -0.4741  1.1936
  769MOL0     C 3701   5.465   3.815   7.735  0.4619  0.4028 -1.0799
  769MOL0     C 3702   5.557   3.744   7.638  0.3312 -0.7881 -0.1722
  769MOL0     C 3703   5.687   3.820   7.629 -0.5350 -0.3683  0.3786
  769MOL0     O 3704   5.696   3.900   7.511  0.6922  0.2330 -0.1816
  769MOL0     C 3705   5.805   3.970   7.481  0.6613 -0.0540 -1.1768
  769MOL0     C 3706   5.807   4.040   7.358 -0.3709  0.3210  0.1607
  769MOL0     C 3707   5.916   4.112   7.310  0.1973  0.4775  0.3453
  769MOL0     C 3708   5.896   4.174   7.169 -0.3414  0.4146 -0.3040
  769MOL0     C 3709   6.036   4.130   7.387 -0.8556 -0.6085  0.5102
  769MOL0     C 3710   6.153   4.202   7.338 -0.5585 -0.4448  0.7851
  769MOL0     O 3711   6.139   4.298   7.244  0.4645 -1.2128  0.5316
  769MOL0     C 3712   6.244   4.396   7.230 -0.7026  0.0391 -0.1690
  769MOL0     C 3713   6.299   4.454   7.346 -0.0700 -0.2505  0.6047
  769MOL0     C 3714   6.401   4.554   7.337 -0.5688  0.4164 -0.3703
  769MOL0     C 3715   6.440   4.599   7.216 -0.2411  0.2988  0.1510
  769MOL0     O 3716   6.534   4.704   7.203 -0.2514  0.6508 -0.6615
  769MOL0     C 3717   6.669   4.667   7.222  0.1179 -0.4515 -0.2100
  769MOL0     C 3718   6.718   4.586   7.109 -0.0932 -0.1218 -0.4802
  769MOL0     C 3719   6.877   4.574   7.133  0.7843  0.5657  0.1142
  769MOL0     C 3720   6.935   4.453   7.062 -0.0043  0.0358 -0.9182
  769MOL0     C 3721   6.920   4.464   6.910  0.9439 -0.6148  0.2752
  769MOL0     C 3722   6.968   4.344   6.836 -0.4170  0.5009  0.1134
  769MOL0     C 3723   6.855   4.268   6.771 -0.0561  0.4316 -0.6385
  769MOL0     C 3724   6.879   4.114   6.747 -0.4061  0.7124 -0.8694
  769MOL0    Cl 3725   6.879   4.027   6.909  0.2351 -0.4094  0.1743
  769MOL0     C 3726   6.375   4.552   7.104 -0.0417  0.8752  0.1621
  769MOL0     C 3727   6.290   4.447   7.110 -0.0349  0.3687  0.6080
  769MOL0     O 3728   6.255   4.177   7.401  0.1194  0.4024  0.4913
  769MOL0     C 3729   6.023   4.075   7.517 -0.1699  0.4332  0.1266
  769MOL0     C 3730   5.912   3.996   7.564 -0.9331  0.4001 -0.2988
  769MOL0     N 3731   5.179   3.863   7.809  0.0075  0.7902  0.3246
  769MOL0     N 3732   5.094   3.926   7.874 -0.7667 -0.4732 -0.7462
  769MOL0     C 3733   5.183   5.034   8.101  0.0847 -0.5709 -0.8444
  769MOL0     C 3734   5.127   5.133   8.183 -0.2533  0.9272 -0.5375
  769MOL0     C 3735   5.022   5.404   8.538  0.6616  0.7352 -0.2847
  769MOL0     C 3736   5.073   5.352   8.659 -1.1200  0.3038  0.0828
  769MOL0     C 3737   5.037   5.429   8.770 -0.4266  0.2294  0.5901
  769MOL0     C 3738   4.940   5.527   8.773  0.6324 -0.7775 -0.5701
  769MOL0     O 3739   4.903   5.569   8.902  0.4656 -0.3457  0.6295
  769MOL0     C 3740   4.797   5.661   8.916 -0.0078 -0.7121 -0.2737
  769MOL0     C 3741   4.776   5.685   9.066  0.2348 -0.4508  0.3425
  769MOL0     C 3742   4.906   5.703   9.149  0.6138  0.6772  0.7143
  769MOL0     C 3743   4.889   5.758   9.284 -0.0647 -1.0422  0.1209
  769MOL0     C 3744   5.020   5.753   9.345  0.0574 -0.9815  0.0232
  769MOL0     C 3745   5.136   5.759   9.383 -0.6122 -0.2441  0.0422
  769MOL0     C 3746   4.871   5.566   8.651 -0.3616 -0.2161 -0.0471
  769MOL0     C 3747   4.923   5.507   8.529 -0.6934  0.5743  0.5391
  769MOL0     H 3748   5.378   5.155   8.397 -0.4464 -1.3108  0.4681
  769MOL0     H 3749   5.477   4.996   8.262 -0.2452 -1.5946 -0.1971
  769MOL0     H 3750   5.559   4.875   8.075 -0.2212  0.4345  2.0986
  769MOL0     H 3751   5.472   4.764   8.172  0.4174 -0.2210 -0.4474
  769MOL0     H 3752   5.529   4.743   7.870 -0.6319  0.3623 -0.4865
  769MOL0     H 3753   5.576   4.633   7.999 -0.4435  2.0856  3.5017
  769MOL0     H 3754   5.279   4.658   7.913 -0.2303  0.3148  0.4836
  769MOL0     H 3755   5.400   4.531   7.878  0.1607 -0.5771  0.2787
  769MOL0     H 3756   5.429   4.451   8.097 -0.9731 -1.9022  0.0074
  769MOL0     H 3757   5.346   4.588   8.157 -0.4004  0.0816 -0.2604
  769MOL0     H 3758   5.214   4.377   8.164  2.9560  1.5963  0.5467
  769MOL0     H 3759   5.127   4.499   8.081 -0.1269 -0.2189 -2.7149
  769MOL0     H 3760   5.164   4.410   7.860 -0.1048  2.5102  1.2628
  769MOL0     H 3761   5.269   4.283   7.920  0.9626  0.6447  1.3888
  769MOL0     H 3762   5.113   4.185   8.068 -0.4552 -0.9321 -0.7860
  769MOL0     H 3763   4.989   4.303   8.036 -0.5682  1.7597 -2.2721
  769MOL0     H 3764   5.002   4.207   7.770 -2.0197 -2.1977  0.6134
  769MOL0     H 3765   4.940   4.110   7.901 -0.2958 -1.1716  0.1426
  769MOL0     H 3766   5.276   4.162   7.729 -1.8984  1.4222  0.7936
  769MOL0     H 3767   5.325   3.862   7.568 -1.0277  3.1296 -0.0872
  769MOL0     H 3768   5.437   3.982   7.621  2.1352 -1.9581  1.5378
  769MOL0     H 3769   5.411   3.742   7.796  4.1201 -1.2546  0.4938
  769MOL0     H 3770   5.527   3.857   7.815  4.1710  0.6151 -3.7996
  769MOL0     H 3771   5.516   3.730   7.537  2.4873  2.2064 -1.5961
  769MOL0     H 3772   5.581   3.646   7.679  3.2721  0.2214  0.7393
  769MOL0     H 3773   5.765   3.743   7.628 -2.0367 -1.9856  1.7706
  769MOL0     H 3774   5.703   3.884   7.717 -1.9718 -2.5257  2.3353
  769MOL0     H 3775   5.723   4.029   7.289 -1.5347 -1.0929  1.7173
  769MOL0     H 3776   5.799   4.153   7.123 -0.7950 -0.8006  1.1682
  769MOL0     H 3777   5.905   4.283   7.168  0.2222  0.3956  0.9869
  769MOL0     H 3778   5.968   4.120   7.106 -1.0577  2.0168 -2.6803
  769MOL0     H 3779   6.264   4.427   7.445 -2.0072  0.1735  0.0761
  769MOL0     H 3780   6.455   4.595   7.422 -0.1067 -1.1262  0.1170
  769MOL0     H 3781   6.717   4.765   7.217 -1.6968  0.6222  1.6519
  769MOL0     H 3782   6.701   4.619   7.315 -0.4631 -2.7969 -1.1560
  769MOL0     H 3783   6.680   4.484   7.117 -3.1042  1.0114  5.8833
  769MOL0     H 3784   6.693   4.628   7.011 -1.3742 -1.9304 -0.9820
  769MOL0     H 3785   6.908   4.565   7.237 -1.7398 -1.2104  0.8242
  769MOL0     H 3786   6.915   4.669   7.094  0.7649  1.6180  2.5077
  769MOL0     H 3787   7.043   4.446   7.077  0.3188 -0.8791 -3.2245
  769MOL0     H 3788   6.887   4.357   7.080 -0.0196  0.4776  1.8011
  769MOL0     H 3789   6.982   4.547   6.876  1.0827 -1.3447 -1.3682
  769MOL0     H 3790   6.817   4.489   6.879  1.0955  1.6401  1.4047
  769MOL0     H 3791   7.038   4.393   6.768  4.3905 -1.5495  3.0326
  769MOL0     H 3792   7.029   4.280   6.901  0.3210  3.3852  2.4970
  769MOL0     H 3793   6.843   4.322   6.677  0.5884  3.6897  0.9984
  769MOL0     H 3794   6.769   4.270   6.839  2.2590 -3.5669  2.9678
  769MOL0     H 3795   6.966   4.090   6.685  0.4692  1.5326  0.0000
  769MOL0     H 3796   6.791   4.084   6.689 -1.3753 -0.3779  1.0504
  769MOL0     H 3797   6.414   4.583   7.008  1.6177 -4.9650 -1.4716
  769MOL0     H 3798   6.270   4.404   7.012 -1.3457  1.4337  0.3790
  769MOL0     H 3799   6.111   4.100   7.576  0.2269 -1.2417  0.3196
  769MOL0     H 3800   5.900   3.981   7.670 -0.7678  2.7387  0.1023
  769MOL0     H 3801   5.115   4.997   8.024 -2.0576  0.7662  0.3167
  769MOL0     H 3802   5.028   5.170   8.160 -0.5404  0.1921 -0.5069
  769MOL0     H 3803   5.137   5.265   8.665 -2.2048 -0.8570 -2.8899
  769MOL0     H 3804   5.072   5.402   8.869 -0.7918  1.6546  1.1420
  769MOL0     H 3805   4.824   5.758   8.872  2.1565 -1.2566 -0.2771
  769MOL0     H 3806   4.705   5.629   8.866  0.8558  0.0919 -2.4753
  769MOL0     H 3807   4.719   5.598   9.099  1.5518 -0.8280  1.7488
  769MOL0     H 3808   4.714   5.774   9.077 -0.0631 -0.4469 -1.1556
  769MOL0     H 3809   4.972   5.771   9.095 -0.6269  1.1114 -0.3079
  769MOL0     H 3810   4.956   5.606   9.155 -0.2526  0.1252 -0.5569
  769MOL0     H 3811   4.811   5.694   9.327  1.2138 -1.9676  1.1502
  769MOL0     H 3812   4.857   5.862   9.276  2.9574  0.0478  0.8781
  769MOL0     H 3813   5.239   5.749   9.410 -0.2093 -0.4279 -1.4771
  769MOL0     H 3814   4.784   5.630   8.639  0.0715 -0.0992 -3.4595
  769MOL0     H 3815   4.875   5.551   8.442 -2.5303 -4.8054 -1.5506
  770MOL0     O 3816   2.772   2.571   6.090  0.3882 -1.1254  0.0308
  770MOL0     C 3817   2.798   2.454   6.062  0.3495  0.3444  0.0936
  770MOL0     O 3818   2.890   2.413   5.969 -0.5744 -0.7586  0.3937
  770MOL0     C 3819   2.954   2.518   5.915 -0.4960  0.3057 -0.1334
  770MOL0     C 3820   3.080   2.566   5.958  0.1495  0.9867 -0.7241
  770MOL0     C 3821   3.145   2.671   5.883 -0.6968 -0.0799  1.0780
  770MOL0     C 3822   3.093   2.723   5.772  0.0295 -0.6962  0.4374
  770MOL0     O 3823   3.149   2.838   5.718 -0.7806  0.2366  0.1520
  770MOL0     C 3824   3.057   2.929   5.660 -0.2890  0.1670 -0.1911
  770MOL0     C 3825   3.120   3.067   5.663 -0.2818 -0.7539  0.0588
  770MOL0     C 3826   3.165   3.122   5.798 -0.2971 -1.4900 -0.0392
  770MOL0     C 3827   3.042   3.118   5.888  0.0177 -0.6186  0.0316
  770MOL0     C 3828   3.056   3.179   6.029 -0.2443  0.4728  0.5173
  770MOL0     C 3829   3.133   3.094   6.132 -0.3864  1.4594 -0.4002
  770MOL0     C 3830   3.077   2.953   6.159  0.0961 -0.4811  0.3010
  770MOL0     C 3831   3.124   2.886   6.295  0.3677  0.8915 -0.3806
  770MOL0     N 3832   3.266   2.914   6.342 -0.0369  0.3464  0.0123
  770MOL0     C 3833   3.308   3.043   6.380 -0.3149  0.0800 -0.4073
  770MOL0     C 3834   3.439   3.055   6.328  0.3876 -0.2147  0.1587
  770MOL0     C 3835   3.530   3.182   6.351  0.0646  0.5713 -0.0478
  770MOL0     C 3836   3.464   3.291   6.276 -0.0767  0.1557  0.5320
  770MOL0     C 3837   3.553   3.419   6.250 -0.1122  0.8322 -0.4922
  770MOL0     C 3838   3.608   3.491   6.363 -0.6145 -0.0551 -0.6439
  770MOL0     O 3839   3.709   3.414   6.431 -0.3392  0.3995  0.0418
  770MOL0     C 3840   3.808   3.469   6.499  0.4898 -0.2219 -0.5102
  770MOL0     C 3841   3.811   3.603   6.541  0.3085 -0.3103  0.6946
  770MOL0     C 3842   3.919   3.664   6.595 -0.3815  0.4596 -0.2977
  770MOL0     C 3843   3.912   3.806   6.633 -0.5433  0.2111  0.0246
  770MOL0     C 3844   4.036   3.591   6.611  0.4655 -0.4676  0.3581
  770MOL0     C 3845   4.159   3.633   6.678 -0.9453 -0.7036 -1.2806
  770MOL0     O 3846   4.274   3.635   6.609  0.4869 -0.1156  0.0623
  770MOL0     C 3847   4.395   3.659   6.668  0.6477  1.1484 -0.3090
  770MOL0     C 3848   4.441   3.636   6.801  0.0181  0.5195 -0.2283
  770MOL0     C 3849   4.560   3.692   6.855 -0.4907  1.0509 -0.4475
  770MOL0     C 3850   4.646   3.745   6.758 -0.2046 -1.0626 -0.8876
  770MOL0     O 3851   4.772   3.787   6.814  0.3660  0.8810 -0.0167
  770MOL0     C 3852   4.882   3.817   6.721 -0.5761 -0.4520 -0.4983
  770MOL0     C 3853   4.906   3.966   6.728 -0.0875 -0.8049  0.5475
  770MOL0     C 3854   5.025   4.033   6.794 -0.4498  0.6761  1.2777
  770MOL0     C 3855   5.012   4.001   6.942 -0.0911 -0.7838  0.5216
  770MOL0     C 3856   5.142   4.048   7.020  0.1013  0.0546 -0.8296
  770MOL0     C 3857   5.270   3.957   7.017 -0.5509  0.4010  0.6575
  770MOL0     C 3858   5.342   3.989   7.145 -0.1313  0.8837  0.1250
  770MOL0     C 3859   5.438   3.882   7.190 -0.8658 -0.6529 -0.2124
  770MOL0    Cl 3860   5.575   3.876   7.071 -0.5064 -0.7192  0.7891
  770MOL0     C 3861   4.611   3.762   6.622  0.1396 -0.3105 -0.3329
  770MOL0     C 3862   4.487   3.720   6.582  0.3345  0.1592 -0.4116
  770MOL0     O 3863   4.143   3.679   6.792  0.8345 -0.4065 -0.6381
  770MOL0     C 3864   4.042   3.457   6.565  1.1411  0.4188  0.2452
  770MOL0     C 3865   3.931   3.397   6.507  0.2380 -0.3489  0.3801
  770MOL0     N 3866   3.479   2.931   6.280  0.4236 -0.4077 -0.2409
  770MOL0     N 3867   3.374   2.856   6.277  0.6644  0.0378 -0.1437
  770MOL0     C 3868   2.966   2.668   5.728  0.3263 -0.5183  0.2939
  770MOL0     C 3869   2.893   2.576   5.807  0.4134 -0.3340 -0.2620
  770MOL0     C 3870   2.712   2.345   6.125  0.3433 -1.5561  0.1575
  770MOL0     C 3871   2.571   2.372   6.153  0.3846  0.6642 -0.3887
  770MOL0     C 3872   2.493   2.260   6.207 -0.0516  0.6614 -0.1528
  770MOL0     C 3873   2.554   2.143   6.248  0.2919 -0.4006 -0.6803
  770MOL0     O 3874   2.473   2.045   6.313 -0.0438 -0.2677 -0.5894
  770MOL0     C 3875   2.532   1.934   6.361  0.2036  0.1327 -0.7990
  770MOL0     C 3876   2.431   1.859   6.467 -1.0241  0.2252 -0.3135
  770MOL0     C 3877   2.488   1.724   6.506  0.2001  0.3410  0.1312
  770MOL0     C 3878   2.642   1.723   6.527 -0.0583  0.0844 -0.0900
  770MOL0     C 3879   2.679   1.600   6.601 -0.0446  0.1942  0.6131
  770MOL0     C 3880   2.693   1.491   6.661 -0.2705  0.3423  0.6634
  770MOL0     C 3881   2.690   2.117   6.210  0.0158  0.0437 -0.0330
  770MOL0     C 3882   2.773   2.215   6.156  0.1972 -1.0107  0.3954
  770MOL0     H 3883   3.132   2.530   6.046  0.2372 -2.4419 -2.0355
  770MOL0     H 3884   3.231   2.714   5.933 -0.3453  1.0504 -0.4215
  770MOL0     H 3885   3.030   2.889   5.561 -0.2107 -2.2437  0.6855
  770MOL0     H 3886   2.961   2.938   5.712 -0.5324 -1.2041 -0.3399
  770MOL0     H 3887   3.204   3.066   5.593 -0.4479 -0.4676 -0.1435
  770MOL0     H 3888   3.047   3.138   5.623  0.9228  1.1367  1.0311
  770MOL0     H 3889   3.240   3.058   5.845  1.6415  1.0784  0.6268
  770MOL0     H 3890   3.209   3.222   5.793 -3.4795  0.2908  2.8326
  770MOL0     H 3891   2.953   3.156   5.837 -0.5717  0.2004  1.5995
  770MOL0     H 3892   3.022   3.011   5.899 -1.7281 -0.8929 -4.0272
  770MOL0     H 3893   3.120   3.267   6.022  0.0275  0.2186 -0.2489
  770MOL0     H 3894   2.954   3.199   6.063 -1.1266 -1.3107 -0.9262
  770MOL0     H 3895   3.233   3.081   6.089 -1.1508 -0.8538 -1.6739
  770MOL0     H 3896   3.135   3.139   6.231  2.3703  1.7787 -0.5295
  770MOL0     H 3897   2.968   2.955   6.158 -0.0421 -0.6499 -4.4120
  770MOL0     H 3898   3.114   2.890   6.077 -3.1650 -4.0195  1.2194
  770MOL0     H 3899   3.106   2.778   6.297  1.8995  0.6092  1.6374
  770MOL0     H 3900   3.060   2.931   6.371  0.2591 -1.2652  0.8801
  770MOL0     H 3901   3.251   3.118   6.433 -1.4715 -0.8073 -0.3730
  770MOL0     H 3902   3.550   3.208   6.455  2.7420  0.9960 -0.5888
  770MOL0     H 3903   3.627   3.156   6.307  0.6222  1.5154  0.5962
  770MOL0     H 3904   3.371   3.326   6.322  0.3562  3.6081 -0.9583
  770MOL0     H 3905   3.440   3.254   6.176  0.2690  0.7024  0.2470
  770MOL0     H 3906   3.495   3.499   6.203  0.5106  2.4226  1.3312
  770MOL0     H 3907   3.632   3.381   6.184 -1.0808  0.1623 -1.3076
  770MOL0     H 3908   3.531   3.522   6.433  0.2682 -1.0606  0.8287
  770MOL0     H 3909   3.667   3.569   6.314  0.5969 -0.2307  0.4822
  770MOL0     H 3910   3.723   3.664   6.522  0.9227  1.0638  2.0956
  770MOL0     H 3911   3.821   3.855   6.598  0.0275  2.8154  1.8796
  770MOL0     H 3912   3.920   3.812   6.742  1.6740 -1.2886  0.0004
  770MOL0     H 3913   4.002   3.859   6.600 -0.6397  1.4515  1.6568
  770MOL0     H 3914   4.373   3.591   6.873 -0.0731 -0.7593 -1.0786
  770MOL0     H 3915   4.585   3.668   6.958  1.4309  4.0709 -0.0831
  770MOL0     H 3916   4.970   3.764   6.758  0.5627  1.3479 -0.4978
  770MOL0     H 3917   4.858   3.784   6.620 -1.1074 -0.2942 -0.4275
  770MOL0     H 3918   4.904   4.005   6.626 -1.2691 -1.4897  0.2855
  770MOL0     H 3919   4.818   4.016   6.771  0.0083 -0.5644  0.4672
  770MOL0     H 3920   5.043   4.136   6.762 -0.7576  0.7481  1.3293
  770MOL0     H 3921   5.121   3.991   6.763  0.4274  2.4504  1.4290
  770MOL0     H 3922   4.925   4.054   6.982 -1.3956 -1.0092 -1.8657
  770MOL0     H 3923   4.983   3.900   6.974 -1.0779 -0.2402  1.3923
  770MOL0     H 3924   5.105   4.040   7.123  2.0383 -0.0397 -0.0835
  770MOL0     H 3925   5.157   4.155   7.004  0.0463  0.0513 -0.9043
  770MOL0     H 3926   5.248   3.850   7.016  2.7528 -0.3881  0.1996
  770MOL0     H 3927   5.328   3.976   6.927 -0.0012 -0.1595  0.8871
  770MOL0     H 3928   5.263   3.991   7.222 -2.6607  1.2390 -2.3343
  770MOL0     H 3929   5.387   4.089   7.140  1.4811  0.1875  0.1030
  770MOL0     H 3930   5.371   3.795   7.189 -2.0227  0.1270 -3.1834
  770MOL0     H 3931   5.472   3.902   7.291 -2.1784  0.2405  0.0812
  770MOL0     H 3932   4.668   3.816   6.548  0.6564  0.1073  0.3527
  770MOL0     H 3933   4.454   3.745   6.482 -1.2780  3.0201  0.7369
  770MOL0     H 3934   4.136   3.402   6.567  0.1907 -1.7470 -3.8312
  770MOL0     H 3935   3.927   3.296   6.468 -2.8678 -1.5559  3.3486
  770MOL0     H 3936   2.908   2.707   5.645  2.7278  2.1052 -0.2940
  770MOL0     H 3937   2.797   2.536   5.775 -0.2709  1.8529 -1.1722
  770MOL0     H 3938   2.520   2.467   6.139 -3.0695 -1.3034 -2.5126
  770MOL0     H 3939   2.389   2.275   6.235 -0.2931  1.0420 -1.1783
  770MOL0     H 3940   2.552   1.859   6.284 -1.4947 -0.5739 -0.6103
  770MOL0     H 3941   2.625   1.957   6.413  0.7401 -1.2587 -1.1134
  770MOL0     H 3942   2.330   1.841   6.431 -1.9530  4.2360 -0.1188
  770MOL0     H 3943   2.418   1.935   6.544 -0.7101 -0.8314  0.8135
  770MOL0     H 3944   2.483   1.657   6.419  2.3766 -2.5700  2.0596
  770MOL0     H 3945   2.439   1.680   6.593  1.6325 -3.5262 -0.7966
  770MOL0     H 3946   2.677   1.802   6.594  0.6473 -0.9037  0.7345
  770MOL0     H 3947   2.708   1.726   6.440  0.8623 -1.2785  0.5268
  770MOL0     H 3948   2.713   1.402   6.716  2.5905 -0.3187 -1.2487
  770MOL0     H 3949   2.751   2.034   6.245 -1.3728 -0.0530  2.3801
  770MOL0     H 3950   2.881   2.212   6.149  0.5610  2.9193  1.8565
  771MOL0     O 3951   7.939   4.179   7.749 -0.3854  0.1608 -0.5604
  771MOL0     C 3952   8.038   4.236   7.696 -1.3516  0.2803  0.4578
  771MOL0     O 3953   8.167   4.188   7.694 -0.2797 -0.3370 -0.4970
  771MOL0     C 3954   8.195   4.079   7.770 -0.4024 -0.4330 -1.1048
  771MOL0     C 3955   8.239   3.964   7.707  0.1065  0.4674 -0.3979
  771MOL0     C 3956   8.296   3.846   7.775 -0.0545  0.7979  0.2442
  771MOL0     C 3957   8.322   3.850   7.915 -0.4281 -0.3732 -0.1240
  771MOL0     O 3958   8.372   3.753   7.999  0.1787  0.5193 -0.5337
  771MOL0     C 3959   8.349   3.621   7.957  0.2509  0.3571  0.5411
  771MOL0     C 3960   8.403   3.535   8.068  0.7009  0.8533  0.0392
  771MOL0     C 3961   8.460   3.401   8.020 -0.1882 -0.3303  0.0868
  771MOL0     C 3962   8.512   3.311   8.140 -0.2187 -1.2225 -0.1288
  771MOL0     C 3963   8.593   3.189   8.107 -0.2856 -0.2783 -0.6284
  771MOL0     C 3964   8.622   3.152   7.963 -0.2659 -0.7975  0.4630
  771MOL0     C 3965   8.726   3.036   7.970 -0.9135 -0.2029  0.9568
  771MOL0     C 3966   8.865   3.061   8.037 -0.3716  0.0318  0.1592
  771MOL0     N 3967   8.939   3.181   7.993  0.1588  0.2046 -0.7711
  771MOL0     C 3968   9.064   3.221   8.053  0.6574 -0.5768  0.4689
  771MOL0     C 3969   9.091   3.329   7.970  0.2775  0.2013  0.2455
  771MOL0     C 3970   9.212   3.424   7.988 -0.0704 -0.4164  0.1010
  771MOL0     C 3971   9.179   3.576   8.024 -0.5296 -0.5860  0.4810
  771MOL0     C 3972   9.088   3.652   7.920 -0.4163 -0.2003 -0.5728
  771MOL0     C 3973   9.137   3.791   7.920  0.0038  0.4519 -0.1473
  771MOL0     O 3974   9.066   3.864   7.823 -0.4992  0.5643 -0.4655
  771MOL0     C 3975   9.094   4.001   7.803 -0.3805  0.2709 -0.8818
  771MOL0     C 3976   9.180   4.083   7.875 -0.3434 -0.4895  0.7888
  771MOL0     C 3977   9.197   4.222   7.842  0.0324  0.1325  0.1283
  771MOL0     C 3978   9.279   4.306   7.935  0.3186 -0.0591 -0.0754
  771MOL0     C 3979   9.128   4.269   7.729 -0.0994  1.1395 -0.3274
  771MOL0     C 3980   9.136   4.411   7.703 -0.1989  0.3530 -0.5649
  771MOL0     O 3981   9.022   4.472   7.648  1.0282 -0.1057  0.0555
  771MOL0     C 3982   9.011   4.609   7.656  0.3343 -0.8608 -0.2526
  771MOL0     C 3983   9.044   4.693   7.552  0.3297 -0.3442 -0.7272
  771MOL0     C 3984   9.020   4.831   7.556 -0.3376  0.6951  0.0751
  771MOL0     C 3985   8.970   4.887   7.672  1.2936 -0.3986 -0.4371
  771MOL0     O 3986   8.937   5.015   7.688 -0.4654  0.3541 -0.0985
  771MOL0     C 3987   9.044   5.090   7.749 -0.4435  0.3580 -0.2356
  771MOL0     C 3988   9.165   5.109   7.661 -0.8272  0.5532 -0.1547
  771MOL0     C 3989   9.279   5.197   7.735  0.0915 -0.1119  1.0995
  771MOL0     C 3990   9.372   5.282   7.637 -0.0970  0.1946  0.6718
  771MOL0     C 3991   9.480   5.363   7.704 -0.1859 -0.2336  0.1842
  771MOL0     C 3992   9.579   5.285   7.781 -0.1270 -0.3054  0.2579
  771MOL0     C 3993   9.716   5.296   7.703 -0.7386  0.9121 -0.8355
  771MOL0     C 3994   9.818   5.190   7.735 -1.0046 -0.0237 -0.4362
  771MOL0    Cl 3995   9.767   5.040   7.652 -0.3082 -0.2423  0.2192
  771MOL0     C 3996   8.934   4.806   7.781 -0.2805  0.5527 -0.3695
  771MOL0     C 3997   8.956   4.668   7.766 -0.3721  0.3395 -0.6256
  771MOL0     O 3998   9.241   4.469   7.711 -0.4895  0.3484  0.0007
  771MOL0     C 3999   9.053   4.184   7.645  0.0164  0.0465  0.8509
  771MOL0     C 4000   9.030   4.052   7.686 -0.0682 -0.2934 -0.4434
  771MOL0     N 4001   8.999   3.332   7.868  0.0748 -0.4163  0.6853
  771MOL0     N 4002   8.907   3.245   7.884  0.1329 -0.7277 -0.1304
  771MOL0     C 4003   8.296   3.979   7.975  1.5232  0.8101  0.0797
  771MOL0     C 4004   8.239   4.092   7.902 -0.0467 -0.2004 -0.4713
  771MOL0     C 4005   8.003   4.341   7.593  0.6599 -0.0557  0.0041
  771MOL0     C 4006   8.094   4.347   7.489 -0.3822 -0.0030 -1.2795
  771MOL0     C 4007   8.082   4.452   7.399 -0.3133 -0.3969  0.3285
  771MOL0     C 4008   7.975   4.552   7.399 -0.4054  0.6195  0.3153
  771MOL0     O 4009   7.948   4.649   7.293 -0.2108 -0.1890 -0.5752
  771MOL0     C 4010   8.061   4.708   7.223 -0.3616  0.4898 -0.7262
  771MOL0     C 4011   8.053   4.858   7.229 -0.0424  0.3462 -0.4326
  771MOL0     C 4012   8.044   4.910   7.361 -0.2043  0.1889 -0.4778
  771MOL0     C 4013   8.091   5.054   7.357  0.2264 -0.2692  0.2878
  771MOL0     C 4014   8.031   5.145   7.455  0.0149 -0.0255 -0.3169
  771MOL0     C 4015   7.961   5.209   7.529 -0.5662 -0.1883 -0.6752
  771MOL0     C 4016   7.892   4.535   7.509  0.7851  0.4971 -0.3889
  771MOL0     C 4017   7.895   4.428   7.601 -0.7010 -0.2032 -1.3222
  771MOL0     H 4018   8.220   3.951   7.601  0.1149 -3.4984 -0.0757
  771MOL0     H 4019   8.317   3.761   7.710 -3.0021 -0.4497  0.7966
  771MOL0     H 4020   8.243   3.599   7.942  1.0654 -2.5038 -1.9682
  771MOL0     H 4021   8.404   3.595   7.866  1.1893 -1.8121  1.6376
  771MOL0     H 4022   8.499   3.578   8.097  1.1510  1.5049 -2.2307
  771MOL0     H 4023   8.338   3.529   8.156  0.4931  1.5100 -0.0694
  771MOL0     H 4024   8.393   3.346   7.952 -0.5713  1.8738 -1.4159
  771MOL0     H 4025   8.551   3.417   7.962  3.7337 -0.9575  5.3231
  771MOL0     H 4026   8.566   3.365   8.219  3.7725 -2.1018 -2.0472
  771MOL0     H 4027   8.429   3.270   8.198 -0.4430 -2.0991 -1.0493
  771MOL0     H 4028   8.684   3.196   8.167 -1.8562 -0.2581  1.9097
  771MOL0     H 4029   8.554   3.095   8.146  0.6343 -0.4946 -0.2013
  771MOL0     H 4030   8.537   3.112   7.908  0.0120 -0.5820 -0.1382
  771MOL0     H 4031   8.666   3.236   7.908  0.3787 -2.4153 -1.6425
  771MOL0     H 4032   8.679   2.946   8.011  1.8558 -2.2750 -0.0931
  771MOL0     H 4033   8.748   2.995   7.871  0.3082  0.1635  1.0667
  771MOL0     H 4034   8.925   2.973   8.012  1.6050  1.2953  0.2696
  771MOL0     H 4035   8.860   3.070   8.146  1.2406 -0.4136  0.3026
  771MOL0     H 4036   9.121   3.178   8.135 -0.2913 -1.3542  0.7303
  771MOL0     H 4037   9.271   3.381   8.070 -3.1490 -4.9585  0.2918
  771MOL0     H 4038   9.277   3.407   7.902  0.5585 -1.4036  0.7460
  771MOL0     H 4039   9.278   3.621   8.038 -0.7043  0.6053 -1.6952
  771MOL0     H 4040   9.124   3.585   8.118  2.5484 -2.3633  2.6851
  771MOL0     H 4041   8.982   3.644   7.943 -1.3874 -1.2435 -4.5284
  771MOL0     H 4042   9.107   3.619   7.817 -1.3251 -0.0339 -0.8064
  771MOL0     H 4043   9.242   3.794   7.891  0.5640 -0.7820  1.5892
  771MOL0     H 4044   9.133   3.833   8.020  0.3613 -0.0185  0.0679
  771MOL0     H 4045   9.226   4.040   7.964 -1.5280 -4.3547 -0.2759
  771MOL0     H 4046   9.375   4.338   7.893  0.8765  0.8362  1.7868
  771MOL0     H 4047   9.219   4.394   7.962 -0.4944 -0.5337 -0.3124
  771MOL0     H 4048   9.308   4.257   8.028  3.5543  0.2354 -0.8237
  771MOL0     H 4049   9.104   4.647   7.473  0.9403  0.5749 -0.8136
  771MOL0     H 4050   9.059   4.896   7.479 -1.6468  1.9272  0.4085
  771MOL0     H 4051   9.011   5.190   7.778  1.9947  1.9068 -2.4629
  771MOL0     H 4052   9.084   5.039   7.838  2.7084 -1.1581 -2.3410
  771MOL0     H 4053   9.206   5.011   7.638 -0.4891 -0.0979  2.7885
  771MOL0     H 4054   9.138   5.166   7.571  0.4292  0.0284 -0.8816
  771MOL0     H 4055   9.347   5.132   7.791 -1.7968 -0.4070  3.1733
  771MOL0     H 4056   9.225   5.250   7.814 -2.4776 -0.0338 -0.5987
  771MOL0     H 4057   9.422   5.214   7.568  0.2598  1.3388 -0.2301
  771MOL0     H 4058   9.308   5.346   7.575 -1.3404  0.0751  1.7744
  771MOL0     H 4059   9.431   5.441   7.763  0.5949  1.6704 -1.6139
  771MOL0     H 4060   9.531   5.417   7.625 -0.1597 -0.2698  0.1761
  771MOL0     H 4061   9.604   5.329   7.878 -2.3453  0.2910  0.6273
  771MOL0     H 4062   9.546   5.182   7.798 -1.4683  0.2224  1.0626
  771MOL0     H 4063   9.749   5.391   7.746  2.0634 -0.2118 -0.2898
  771MOL0     H 4064   9.713   5.308   7.594 -3.3874 -4.4160 -1.6991
  771MOL0     H 4065   9.826   5.169   7.842  0.2544 -2.6531 -0.9526
  771MOL0     H 4066   9.914   5.223   7.693 -0.6207 -1.2392 -0.5573
  771MOL0     H 4067   8.889   4.837   7.874 -1.7614  0.3622 -0.9876
  771MOL0     H 4068   8.918   4.601   7.842  0.3369  1.4418  0.7334
  771MOL0     H 4069   9.016   4.210   7.547 -0.5557 -0.2494  0.9882
  771MOL0     H 4070   8.967   3.983   7.630  1.8054 -0.7687 -2.1228
  771MOL0     H 4071   8.321   3.988   8.080  0.8454  1.6723  0.1750
  771MOL0     H 4072   8.213   4.184   7.952  2.7949  0.6250 -0.3726
  771MOL0     H 4073   8.177   4.277   7.481 -0.2445 -0.3845  2.1421
  771MOL0     H 4074   8.154   4.467   7.319  1.0523  3.5670  2.0382
  771MOL0     H 4075   8.158   4.679   7.265  0.0179 -1.6961 -2.9134
  771MOL0     H 4076   8.051   4.667   7.122 -1.0220 -0.3129 -0.3480
  771MOL0     H 4077   7.972   4.890   7.163 -1.3769  0.9035  1.4076
  771MOL0     H 4078   8.150   4.893   7.191  1.4513 -2.3631  0.5772
  771MOL0     H 4079   8.104   4.853   7.432 -1.2702  0.2101  0.4799
  771MOL0     H 4080   7.940   4.904   7.397  0.1278  1.0137  0.6986
  771MOL0     H 4081   8.063   5.103   7.263 -1.3428  3.8301  2.6246
  771MOL0     H 4082   8.200   5.053   7.364  0.1903 -0.6369  0.8070
  771MOL0     H 4083   7.906   5.276   7.592  1.5707  1.6251 -0.6355
  771MOL0     H 4084   7.809   4.606   7.514 -0.2543 -0.7035 -0.1157
  771MOL0     H 4085   7.823   4.411   7.681  0.3998  4.8302  1.1471
  772MOL0     O 4086   9.762   9.169   9.086 -0.8078  0.6057 -0.4130
  772MOL0     C 4087   9.772   9.199   9.211 -1.1774 -0.7620  0.5902
  772MOL0     O 4088   9.691   9.300   9.266  0.0215 -0.5274 -0.4262
  772MOL0     C 4089   9.596   9.354   9.180  0.0632  0.2250 -0.7704
  772MOL0     C 4090   9.476   9.291   9.160  0.5094  0.6984  0.4144
  772MOL0     C 4091   9.390   9.351   9.061  0.2412 -0.0012  0.1064
  772MOL0     C 4092   9.417   9.481   9.005 -1.2521 -0.2625 -0.3147
  772MOL0     O 4093   9.341   9.558   8.920  0.4375 -0.2444  0.1340
  772MOL0     C 4094   9.244   9.506   8.831  0.3633  0.5014  0.0315
  772MOL0     C 4095   9.315   9.450   8.701 -0.4305  0.2610 -0.1978
  772MOL0     C 4096   9.422   9.540   8.639 -0.4944 -0.4181  0.1753
  772MOL0     C 4097   9.507   9.488   8.520  0.0235 -0.1717 -0.5226
  772MOL0     C 4098   9.577   9.603   8.457 -0.8388 -1.0150  0.6216
  772MOL0     C 4099   9.679   9.562   8.350 -0.4014 -0.0782 -0.1478
  772MOL0     C 4100   9.752   9.683   8.293 -0.8661 -0.0209  0.3286
  772MOL0     C 4101   9.879   9.626   8.230 -0.3809 -0.3072 -1.0475
  772MOL0     N 4102   9.956   9.746   8.195 -0.3164 -0.1952  0.4613
  772MOL0     C 4103  10.044   9.819   8.271  0.3218  0.3951 -0.3698
  772MOL0     C 4104  10.090   9.919   8.188 -0.4409 -0.2960 -0.0017
  772MOL0     C 4105  10.194  10.016   8.233 -0.8583 -0.0933 -0.0516
  772MOL0     C 4106  10.212  10.126   8.133  0.3609  0.5898  0.4177
  772MOL0     C 4107  10.340  10.207   8.170 -0.3845 -0.0251 -0.4159
  772MOL0     C 4108  10.369  10.308   8.058  0.0177  0.2405  0.0409
  772MOL0     O 4109  10.446  10.265   7.944 -0.4998 -0.4486 -0.6496
  772MOL0     C 4110  10.583  10.263   7.964  0.4622 -0.2120 -1.0622
  772MOL0     C 4111  10.649  10.144   7.962  0.1203  0.0527 -0.7502
  772MOL0     C 4112  10.787  10.136   7.977  0.3245  0.9225  0.7321
  772MOL0     C 4113  10.853   9.998   7.965  0.6382  0.2554 -0.1784
  772MOL0     C 4114  10.867  10.255   7.996  0.5547  0.2948 -0.4995
  772MOL0     C 4115  11.010  10.253   8.010  0.4653 -0.3934  0.4879
  772MOL0     O 4116  11.074  10.338   8.095 -0.1106 -0.1263  0.6408
  772MOL0     C 4117  11.202  10.365   8.074 -0.8863 -0.2656 -0.4641
  772MOL0     C 4118  11.270  10.369   8.191  0.5791 -0.3246 -0.6250
  772MOL0     C 4119  11.410  10.392   8.180 -0.1125 -0.7101 -0.5941
  772MOL0     C 4120  11.480  10.421   8.062  0.2400  0.2963 -0.4871
  772MOL0     O 4121  11.617  10.457   8.072 -1.0033 -0.3409  0.5082
  772MOL0     C 4122  11.690  10.469   7.953 -0.0399 -0.4330 -0.3299
  772MOL0     C 4123  11.831  10.527   7.966  0.1158 -0.0350  0.6451
  772MOL0     C 4124  11.842  10.683   8.004  0.1059 -0.2003  0.5328
  772MOL0     C 4125  11.967  10.752   7.957  0.4214 -0.1490  0.9514
  772MOL0     C 4126  11.955  10.906   7.987  0.1016  0.6842 -0.5099
  772MOL0     C 4127  12.083  10.989   7.940 -0.5570 -0.4189 -0.2988
  772MOL0     C 4128  12.102  10.989   7.788 -0.8320 -0.6960  0.1382
  772MOL0     C 4129  12.227  10.907   7.750 -0.2660  0.3880  0.3400
  772MOL0    Cl 4130  12.263  10.934   7.571 -0.0941  0.3320 -0.1867
  772MOL0     C 4131  11.402  10.418   7.946  0.3200 -0.6777 -0.5308
  772MOL0     C 4132  11.266  10.395   7.956  0.9669  0.1229  0.3310
  772MOL0     O 4133  11.061  10.192   7.914 -0.1377 -0.0109  0.2940
  772MOL0     C 4134  10.787  10.375   8.014 -0.4769  0.5230 -0.0976
  772MOL0     C 4135  10.652  10.382   7.997  0.4795 -1.0161 -0.2172
  772MOL0     N 4136  10.022   9.913   8.074 -1.3456 -0.1665 -0.6155
  772MOL0     N 4137   9.957   9.797   8.066 -0.3890 -0.6438  0.3194
  772MOL0     C 4138   9.537   9.536   9.032 -0.7872 -0.2291 -0.3238
  772MOL0     C 4139   9.631   9.477   9.123  1.0719  0.3914  0.7792
  772MOL0     C 4140   9.880   9.137   9.288  1.1674 -0.8806 -0.1447
  772MOL0     C 4141   9.879   9.152   9.429  0.0480  0.3214 -0.0698
  772MOL0     C 4142   9.978   9.088   9.503  0.2100  0.2530 -0.0097
  772MOL0     C 4143  10.066   9.003   9.445  0.1753  0.1847  0.3404
  772MOL0     O 4144  10.158   8.934   9.514 -1.1075  0.3226  0.1908
  772MOL0     C 4145  10.135   8.880   9.642  0.3363  0.5403  0.0056
  772MOL0     C 4146  10.197   8.750   9.686  1.3754 -0.1453  0.0052
  772MOL0     C 4147  10.291   8.687   9.583  0.7854  0.3569 -0.0153
  772MOL0     C 4148  10.387   8.575   9.650 -0.7094  0.2606 -0.4850
  772MOL0     C 4149  10.304   8.462   9.692 -1.3983  0.1876  0.4955
  772MOL0     C 4150  10.250   8.371   9.751 -0.2950 -0.2181  0.3023
  772MOL0     C 4151  10.073   8.992   9.306  1.0644  0.1242  0.7520
  772MOL0     C 4152   9.979   9.060   9.227  0.5651  0.2566 -0.0619
  772MOL0     H 4153   9.439   9.206   9.217  2.1306 -1.5469 -1.6643
  772MOL0     H 4154   9.299   9.301   9.030  1.1477 -1.5045 -0.2474
  772MOL0     H 4155   9.168   9.439   8.873 -1.8953  2.9134  0.0709
  772MOL0     H 4156   9.186   9.590   8.791 -0.7413 -0.5031 -0.5626
  772MOL0     H 4157   9.374   9.360   8.723  0.1471  0.1166 -2.1320
  772MOL0     H 4158   9.236   9.420   8.632 -1.8290  1.4989  0.7994
  772MOL0     H 4159   9.380   9.638   8.618  1.3147  0.3818  0.0693
  772MOL0     H 4160   9.497   9.562   8.716  1.8970 -0.4478 -1.9750
  772MOL0     H 4161   9.582   9.414   8.551 -0.3998 -0.5660 -0.4230
  772MOL0     H 4162   9.430   9.442   8.458 -0.7397  0.6920 -0.2261
  772MOL0     H 4163   9.501   9.669   8.415  1.1950 -0.3383 -2.2735
  772MOL0     H 4164   9.615   9.662   8.541 -4.4401 -0.3913  1.9820
  772MOL0     H 4165   9.749   9.498   8.406 -0.2109  2.3668  2.6859
  772MOL0     H 4166   9.638   9.502   8.268  1.0510  1.7110 -2.2947
  772MOL0     H 4167   9.700   9.733   8.211  1.4139  1.5876 -0.2381
  772MOL0     H 4168   9.781   9.749   8.375 -2.1222 -2.5294  2.9533
  772MOL0     H 4169   9.869   9.552   8.149 -1.2155 -0.3039 -0.9594
  772MOL0     H 4170   9.935   9.585   8.314 -0.7867  4.1380  1.7234
  772MOL0     H 4171  10.070   9.809   8.376 -1.2564  1.0651  0.1084
  772MOL0     H 4172  10.188  10.049   8.337  1.5435  1.8979 -0.4657
  772MOL0     H 4173  10.286   9.957   8.228 -1.8760 -1.6437 -3.1504
  772MOL0     H 4174  10.125  10.191   8.139 -2.6557 -3.1982  1.9970
  772MOL0     H 4175  10.228  10.091   8.031 -0.0156 -1.3024  0.9694
  772MOL0     H 4176  10.414  10.126   8.174 -2.5315 -2.1935 -1.4963
  772MOL0     H 4177  10.333  10.262   8.264 -1.0023 -3.0103  1.4337
  772MOL0     H 4178  10.412  10.400   8.098  2.8407 -2.4448  3.9460
  772MOL0     H 4179  10.271  10.334   8.018  1.2841  1.5409 -2.4509
  772MOL0     H 4180  10.583  10.059   7.948  1.2702 -0.9303 -0.3599
  772MOL0     H 4181  10.943   9.998   8.027  1.0989  3.0675 -0.7133
  772MOL0     H 4182  10.782   9.921   7.997  0.4630 -0.3365 -1.8856
  772MOL0     H 4183  10.885   9.979   7.862  0.8579  0.5484 -0.1677
  772MOL0     H 4184  11.228  10.357   8.290  2.2773  0.8860  0.2962
  772MOL0     H 4185  11.464  10.398   8.275 -3.1711  0.2242  1.2186
  772MOL0     H 4186  11.689  10.377   7.894 -0.0256  0.5233 -1.8694
  772MOL0     H 4187  11.635  10.535   7.886  0.6416 -0.2465 -0.7201
  772MOL0     H 4188  11.889  10.468   8.037  1.0814 -0.6215 -0.5978
  772MOL0     H 4189  11.881  10.515   7.869 -2.5416 -0.4489 -0.7750
  772MOL0     H 4190  11.829  10.707   8.110  4.5465  4.5175  0.4305
  772MOL0     H 4191  11.755  10.730   7.957 -0.3797  0.4030  1.9866
  772MOL0     H 4192  12.058  10.712   8.004 -1.9825 -3.2447  3.3640
  772MOL0     H 4193  11.975  10.747   7.848  1.9292  1.7747  0.9214
  772MOL0     H 4194  11.951  10.914   8.096  2.3037 -0.5400 -0.2652
  772MOL0     H 4195  11.860  10.943   7.950 -1.1426 -0.5392  1.2990
  772MOL0     H 4196  12.063  11.089   7.981 -0.3581 -1.5423  2.7567
  772MOL0     H 4197  12.169  10.947   7.993  0.5272  0.2250 -1.4843
  772MOL0     H 4198  12.113  11.091   7.749 -2.2976 -0.0733  1.2122
  772MOL0     H 4199  12.008  10.959   7.740  0.2933 -0.9866 -1.9704
  772MOL0     H 4200  12.206  10.800   7.758 -1.9655  0.5104 -1.5923
  772MOL0     H 4201  12.318  10.930   7.805  1.4358 -0.8743 -1.7982
  772MOL0     H 4202  11.441  10.455   7.851 -1.9433  0.3892 -1.1150
  772MOL0     H 4203  11.205  10.403   7.866 -0.0254  3.9946  1.1446
  772MOL0     H 4204  10.838  10.468   8.037  0.2927 -0.0315  0.5024
  772MOL0     H 4205  10.599  10.474   8.016 -0.2670 -1.8149  1.8588
  772MOL0     H 4206   9.553   9.638   8.998 -1.2344 -0.1102 -0.1818
  772MOL0     H 4207   9.724   9.533   9.132  0.8945  0.7422  0.4207
  772MOL0     H 4208   9.810   9.217   9.483 -1.5322 -2.8184  1.9764
  772MOL0     H 4209   9.977   9.100   9.611 -5.0228 -0.1169  0.2347
  772MOL0     H 4210  10.183   8.957   9.704 -2.0650  1.7927  0.4135
  772MOL0     H 4211  10.031   8.875   9.675 -0.3206  3.9707 -1.2054
  772MOL0     H 4212  10.110   8.684   9.692 -1.4998  3.0762 -2.1246
  772MOL0     H 4213  10.248   8.763   9.781 -1.2449  0.1840  1.4720
  772MOL0     H 4214  10.365   8.758   9.546 -0.1712  1.2910 -0.1848
  772MOL0     H 4215  10.238   8.637   9.502 -0.2287  0.3099  0.6478
  772MOL0     H 4216  10.447   8.610   9.734  0.2109 -3.1120  0.4169
  772MOL0     H 4217  10.457   8.539   9.574 -0.3938 -0.9500  0.3458
  772MOL0     H 4218  10.203   8.283   9.789  2.2305 -1.6699  0.2793
  772MOL0     H 4219  10.150   8.936   9.255  1.5677  1.5084 -0.0682
  772MOL0     H 4220   9.978   9.042   9.120  3.0837  0.4525 -0.1775
  773MOL0     O 4221  10.031   1.279   4.749  0.3621 -0.0989 -0.7489
  773MOL0     C 4222  10.061   1.202   4.664 -1.3033 -0.4780  0.9914
  773MOL0     O 4223  10.146   1.229   4.555 -0.4179 -0.2355  0.2795
  773MOL0     C 4224  10.229   1.337   4.556  0.2474 -0.6839 -0.8569
  773MOL0     C 4225  10.250   1.408   4.436  0.5830  2.1302 -0.7415
  773MOL0     C 4226  10.348   1.507   4.419  0.1595  0.5905 -0.0007
  773MOL0     C 4227  10.418   1.544   4.532  0.1871 -0.6675  1.1972
  773MOL0     O 4228  10.509   1.647   4.528 -0.6755  0.1709 -0.2961
  773MOL0     C 4229  10.572   1.676   4.402 -1.4531 -0.5567  0.2735
  773MOL0     C 4230  10.706   1.751   4.423 -0.1374  0.5779  0.8578
  773MOL0     C 4231  10.699   1.852   4.541 -0.0526  0.0091  0.2642
  773MOL0     C 4232  10.829   1.936   4.556 -0.1077 -0.1675  0.5279
  773MOL0     C 4233  10.818   2.019   4.685  0.1696 -0.3581  0.0521
  773MOL0     C 4234  10.965   2.038   4.729  0.1288 -0.1996 -0.5072
  773MOL0     C 4235  10.975   2.093   4.876  0.2081  0.2821  0.2602
  773MOL0     C 4236  11.111   2.149   4.910 -0.0312 -0.3367 -0.0710
  773MOL0     N 4237  11.213   2.049   4.883  0.4309 -0.3520  0.0546
  773MOL0     C 4238  11.250   1.951   4.974 -0.5684  0.0973 -0.5050
  773MOL0     C 4239  11.340   1.877   4.911  0.1107  0.0680  0.6962
  773MOL0     C 4240  11.403   1.745   4.960  0.0858  0.0848 -0.2027
  773MOL0     C 4241  11.358   1.616   4.886 -0.6985  0.1039 -0.2666
  773MOL0     C 4242  11.392   1.485   4.961 -0.0756 -0.4054 -0.1132
  773MOL0     C 4243  11.351   1.367   4.874  0.3441  0.6311 -0.0242
  773MOL0     O 4244  11.218   1.326   4.892  0.2371  0.5880  0.6566
  773MOL0     C 4245  11.175   1.227   4.810  0.1304  0.2119  0.1645
  773MOL0     C 4246  11.044   1.182   4.825 -0.3251  1.3085  0.1251
  773MOL0     C 4247  10.983   1.082   4.750 -1.2973  0.0029 -0.2695
  773MOL0     C 4248  10.837   1.046   4.778 -0.7454 -0.3917 -0.1238
  773MOL0     C 4249  11.061   1.024   4.644  0.0399  0.3484 -1.0056
  773MOL0     C 4250  11.012   0.908   4.558  0.5750 -0.5937 -0.5826
  773MOL0     O 4251  11.107   0.862   4.473 -0.0455 -0.6816 -0.3574
  773MOL0     C 4252  11.078   0.772   4.378  1.2016  0.6300  0.2641
  773MOL0     C 4253  11.050   0.648   4.426 -0.4148  0.1403  0.6436
  773MOL0     C 4254  11.040   0.546   4.321 -0.5279  0.3175  0.3520
  773MOL0     C 4255  11.044   0.574   4.180  0.3369 -0.4685  1.2214
  773MOL0     O 4256  11.041   0.475   4.080 -0.3513  0.0896  0.4841
  773MOL0     C 4257  10.957   0.369   4.099 -0.2383  0.2833  0.2554
  773MOL0     C 4258  11.045   0.246   4.129 -0.2808 -0.4052  0.2944
  773MOL0     C 4259  10.970   0.116   4.170 -0.1121 -0.3727 -0.3867
  773MOL0     C 4260  10.876   0.137   4.294  0.6190 -0.3755 -0.0307
  773MOL0     C 4261  10.814  -0.001   4.335  0.0459  1.2563  0.7155
  773MOL0     C 4262  10.747   0.012   4.467 -2.1234  0.7377 -0.0475
  773MOL0     C 4263  10.678  -0.128   4.496 -1.6301 -0.1670  0.2007
  773MOL0     C 4264  10.776  -0.236   4.528 -0.8346  0.1540 -0.7900
  773MOL0    Cl 4265  10.868  -0.192   4.675  0.1417  0.5452  0.5511
  773MOL0     C 4266  11.085   0.703   4.149  0.9739 -0.6674  0.4357
  773MOL0     C 4267  11.094   0.803   4.244  0.4789 -0.5778  0.2115
  773MOL0     O 4268  10.900   0.858   4.569  0.4039 -0.0570  0.3134
  773MOL0     C 4269  11.193   1.062   4.631  0.1185 -0.2732 -1.1718
  773MOL0     C 4270  11.249   1.158   4.717 -1.1013 -0.2786  1.2387
  773MOL0     N 4271  11.361   1.932   4.784 -0.5387  0.4983 -0.3453
  773MOL0     N 4272  11.287   2.034   4.774  0.3570  1.0706  0.0899
  773MOL0     C 4273  10.400   1.475   4.652  0.2544 -0.5092 -0.8270
  773MOL0     C 4274  10.317   1.366   4.663  1.2841  0.0315 -1.1997
  773MOL0     C 4275  10.004   1.064   4.688  0.0719 -0.3749  0.3708
  773MOL0     C 4276   9.904   1.031   4.783 -0.9264 -0.7046  0.3106
  773MOL0     C 4277   9.856   0.899   4.786  0.2926 -0.2150 -0.7339
  773MOL0     C 4278   9.894   0.798   4.698  0.3418 -0.6422  0.7885
  773MOL0     O 4279   9.843   0.670   4.701 -0.5116 -1.0649 -0.0745
  773MOL0     C 4280   9.720   0.639   4.768 -0.0661  0.7249  0.6544
  773MOL0     C 4281   9.705   0.481   4.770 -0.1703  0.6891  0.1822
  773MOL0     C 4282   9.702   0.429   4.622 -0.6652 -0.7943 -0.1713
  773MOL0     C 4283   9.715   0.272   4.615  0.0660  0.1859  0.1553
  773MOL0     C 4284   9.707   0.231   4.472 -0.1752  0.1308 -0.8553
  773MOL0     C 4285   9.708   0.178   4.363  1.0264  0.9210 -1.0183
  773MOL0     C 4286   9.994   0.829   4.608  0.8751 -0.3372  1.1716
  773MOL0     C 4287  10.046   0.954   4.602  1.2324 -0.4157  0.5964
  773MOL0     H 4288  10.188   1.385   4.351 -1.8669 -0.1812  1.4792
  773MOL0     H 4289  10.352   1.558   4.323 -3.0867  0.9534 -0.0674
  773MOL0     H 4290  10.607   1.583   4.356  0.6969  0.8945 -1.2927
  773MOL0     H 4291  10.504   1.732   4.338 -0.5850 -0.6146 -0.7341
  773MOL0     H 4292  10.789   1.681   4.434  0.7490  1.5500  0.4524
  773MOL0     H 4293  10.729   1.817   4.339 -3.3298  0.0262 -0.6152
  773MOL0     H 4294  10.604   1.906   4.540 -0.9897 -1.5129 -2.0731
  773MOL0     H 4295  10.693   1.788   4.629  0.2228 -3.0300 -1.7610
  773MOL0     H 4296  10.922   1.880   4.547  2.2580  3.0037  2.9545
  773MOL0     H 4297  10.835   2.001   4.468 -3.1869 -0.2954  0.1246
  773MOL0     H 4298  10.786   2.121   4.663 -0.1043  0.1721  2.6238
  773MOL0     H 4299  10.770   1.967   4.769  1.1271  0.1579  0.9513
  773MOL0     H 4300  11.018   1.942   4.729 -0.0340 -0.2990  0.4643
  773MOL0     H 4301  11.015   2.111   4.665 -0.4119  1.3032  0.7408
  773MOL0     H 4302  10.900   2.167   4.905 -1.4271 -0.8047 -1.0568
  773MOL0     H 4303  10.958   2.007   4.941 -2.2375 -0.3222 -1.0352
  773MOL0     H 4304  11.107   2.169   5.017  1.5737  0.5974 -0.1584
  773MOL0     H 4305  11.121   2.244   4.856  1.0684 -0.1424  0.4553
  773MOL0     H 4306  11.218   1.933   5.076  0.3685 -3.1913 -0.6878
  773MOL0     H 4307  11.512   1.743   4.964  0.3263  1.6169 -3.4556
  773MOL0     H 4308  11.350   1.733   5.055 -2.4469  0.9120 -1.4298
  773MOL0     H 4309  11.405   1.622   4.787  0.2762 -0.4587  0.1483
  773MOL0     H 4310  11.251   1.627   4.867 -0.6454 -2.0430 -2.3318
  773MOL0     H 4311  11.340   1.478   5.057  0.0102  0.2856 -0.0175
  773MOL0     H 4312  11.500   1.481   4.976 -0.4856 -3.0049  3.3478
  773MOL0     H 4313  11.412   1.281   4.902 -1.3185 -1.0234 -1.2303
  773MOL0     H 4314  11.370   1.388   4.768 -0.5554 -0.1587 -0.3543
  773MOL0     H 4315  10.986   1.219   4.909  0.8271  2.2052  0.5669
  773MOL0     H 4316  10.837   0.947   4.826 -0.2691 -1.7211 -2.7049
  773MOL0     H 4317  10.768   1.118   4.823 -1.7521 -0.7824 -0.9890
  773MOL0     H 4318  10.795   1.031   4.679  2.6036 -1.7591 -1.5011
  773MOL0     H 4319  11.035   0.625   4.531 -2.8550  1.3819  0.6399
  773MOL0     H 4320  11.029   0.444   4.354 -0.2226  0.4132  0.7545
  773MOL0     H 4321  10.882   0.384   4.178  0.2070  0.4924  0.6458
  773MOL0     H 4322  10.896   0.357   4.009 -2.2714 -2.0269  1.7869
  773MOL0     H 4323  11.106   0.232   4.040  1.0701  0.8202  0.9768
  773MOL0     H 4324  11.106   0.280   4.213  0.0776 -1.3890  0.4435
  773MOL0     H 4325  11.048   0.041   4.189 -0.9452 -1.0192  0.5448
  773MOL0     H 4326  10.908   0.088   4.085  2.1484 -0.8181 -1.9905
  773MOL0     H 4327  10.929   0.175   4.381 -0.6325  2.0580 -0.2419
  773MOL0     H 4328  10.793   0.207   4.278 -0.1522 -1.2805 -0.1156
  773MOL0     H 4329  10.894  -0.072   4.360 -0.0873  1.5848  2.1892
  773MOL0     H 4330  10.747  -0.048   4.263 -1.3541  1.0433  2.1129
  773MOL0     H 4331  10.823   0.041   4.540 -2.4021  2.0968 -0.2595
  773MOL0     H 4332  10.673   0.092   4.453 -0.9802  1.9073  0.3173
  773MOL0     H 4333  10.615  -0.153   4.410 -0.9983 -1.3573  0.0620
  773MOL0     H 4334  10.617  -0.118   4.586 -1.9723 -1.3037  0.1077
  773MOL0     H 4335  10.849  -0.257   4.449 -1.2417  1.6883 -1.6075
  773MOL0     H 4336  10.721  -0.329   4.548  0.8505 -0.3742  1.8830
  773MOL0     H 4337  11.100   0.736   4.047  4.2651  0.4868  1.1768
  773MOL0     H 4338  11.110   0.903   4.205 -4.4737  0.2067 -0.4486
  773MOL0     H 4339  11.257   1.003   4.566  1.1584 -1.3523  0.7486
  773MOL0     H 4340  11.356   1.177   4.711 -0.8360 -1.8378  0.6715
  773MOL0     H 4341  10.462   1.504   4.736 -0.4006  2.2982 -1.2046
  773MOL0     H 4342  10.319   1.297   4.746 -2.7059 -0.6847 -1.4977
  773MOL0     H 4343   9.870   1.100   4.859 -0.8332 -1.2721  0.8712
  773MOL0     H 4344   9.783   0.872   4.862 -0.9229  0.1259 -1.7433
  773MOL0     H 4345   9.731   0.677   4.870  0.2503  1.7924  0.2382
  773MOL0     H 4346   9.640   0.692   4.715  2.2878  1.7610 -2.1084
  773MOL0     H 4347   9.609   0.444   4.807 -0.7604 -0.2717 -2.1519
  773MOL0     H 4348   9.790   0.436   4.823  0.9773 -2.2523 -3.7035
  773MOL0     H 4349   9.777   0.478   4.558  0.8486 -2.4861  0.2417
  773MOL0     H 4350   9.606   0.448   4.573 -0.9126 -3.1979 -0.7486
  773MOL0     H 4351   9.633   0.244   4.681  1.1414 -0.8106  1.0996
  773MOL0     H 4352   9.811   0.247   4.662 -0.3689  0.6238  1.2999
  773MOL0     H 4353   9.712   0.149   4.260 -0.0654 -3.2526 -0.0716
  773MOL0     H 4354  10.033   0.762   4.531  0.8695 -2.2761  2.7578
  773MOL0     H 4355  10.114   0.971   4.520  0.2618 -0.6175 -0.2695
  774MOL0     O 4356   7.924   6.475   2.502 -0.5718 -0.2674  0.0792
  774MOL0     C 4357   7.814   6.422   2.474 -0.2010 -0.3237 -0.2686
  774MOL0     O 4358   7.798   6.308   2.400 -0.1417  0.4698 -0.4005
  774MOL0     C 4359   7.911   6.239   2.360  0.3975  0.6982  0.7738
  774MOL0     C 4360   7.966   6.260   2.230 -0.3604  0.3847  0.2380
  774MOL0     C 4361   8.092   6.203   2.184  0.9991 -0.3848  0.0056
  774MOL0     C 4362   8.175   6.142   2.272 -0.7443 -0.6442 -0.2503
  774MOL0     O 4363   8.297   6.088   2.231 -0.1771 -0.1802 -0.4786
  774MOL0     C 4364   8.396   6.190   2.227 -0.1091  0.3584 -1.1607
  774MOL0     C 4365   8.530   6.117   2.258 -0.2085 -0.1693 -0.1431
  774MOL0     C 4366   8.650   6.214   2.257  0.5458  0.0673 -0.4997
  774MOL0     C 4367   8.782   6.157   2.304  0.9168  0.5017 -0.3521
  774MOL0     C 4368   8.824   6.042   2.213  0.4122  0.1826  0.3053
  774MOL0     C 4369   8.953   5.983   2.257 -0.0724 -1.1706 -0.2853
  774MOL0     C 4370   9.012   5.912   2.131 -0.1886 -0.2995  0.3071
  774MOL0     C 4371   9.161   5.882   2.151  0.0094 -0.2055  0.2860
  774MOL0     N 4372   9.242   5.991   2.103 -0.1543  0.2942  0.5282
  774MOL0     C 4373   9.278   6.105   2.173  0.0637 -1.1779  0.3253
  774MOL0     C 4374   9.341   6.182   2.082 -0.2783 -0.6850 -0.2656
  774MOL0     C 4375   9.387   6.326   2.113 -0.4849 -0.2654  0.0307
  774MOL0     C 4376   9.528   6.362   2.051 -1.0041 -0.0438 -0.6868
  774MOL0     C 4377   9.586   6.496   2.103  0.3783  0.0595  0.1968
  774MOL0     C 4378   9.716   6.533   2.041  0.9794 -0.3283 -0.1287
  774MOL0     O 4379   9.792   6.422   2.026 -0.2328 -0.3262  0.8598
  774MOL0     C 4380   9.848   6.380   1.905  0.4970 -0.7706  0.4778
  774MOL0     C 4381   9.962   6.313   1.911 -0.1695  0.4583 -0.2362
  774MOL0     C 4382  10.025   6.269   1.795 -0.1659  0.3503  0.7113
  774MOL0     C 4383  10.158   6.211   1.811  0.4675  0.1554  0.9559
  774MOL0     C 4384   9.962   6.291   1.669  0.4105 -1.4792 -0.7128
  774MOL0     C 4385  10.018   6.257   1.538 -0.5028 -0.9544  0.2380
  774MOL0     O 4386   9.970   6.325   1.430  0.0559 -0.6983  0.1157
  774MOL0     C 4387  10.022   6.277   1.312 -0.2517  0.1887 -0.5183
  774MOL0     C 4388   9.969   6.169   1.243 -0.4741  0.3893 -0.1692
  774MOL0     C 4389  10.035   6.116   1.141 -0.0169  0.5935 -0.4078
  774MOL0     C 4390  10.156   6.175   1.095  0.0072  0.5821 -0.0659
  774MOL0     O 4391  10.218   6.116   0.990 -0.0682  0.6199  0.0540
  774MOL0     C 4392  10.316   6.196   0.926 -0.1774  0.1699 -0.4380
  774MOL0     C 4393  10.364   6.112   0.811 -0.2879  0.3323 -0.1074
  774MOL0     C 4394  10.511   6.154   0.767  0.2925 -0.1193  0.1747
  774MOL0     C 4395  10.587   6.057   0.672 -0.2856  0.1214 -0.9110
  774MOL0     C 4396  10.743   6.084   0.648  0.3659 -0.1597  0.4991
  774MOL0     C 4397  10.813   5.951   0.625  0.1777 -0.7424 -0.7851
  774MOL0     C 4398  10.962   5.991   0.594  0.5679  0.1016 -0.0467
  774MOL0     C 4399  11.054   5.866   0.593 -0.3221  0.5325  0.8470
  774MOL0    Cl 4400  11.229   5.912   0.591  0.1980 -0.1176 -0.4781
  774MOL0     C 4401  10.204   6.296   1.161  0.6001  0.1995  0.1997
  774MOL0     C 4402  10.130   6.353   1.263  0.9519 -0.1928 -0.0215
  774MOL0     O 4403  10.100   6.165   1.529  1.1393 -0.8985  0.7104
  774MOL0     C 4404   9.846   6.371   1.669 -0.1100  0.1468  0.4670
  774MOL0     C 4405   9.790   6.407   1.789  0.5030 -0.2419  0.9164
  774MOL0     N 4406   9.354   6.119   1.962 -0.3065  0.0476  0.2789
  774MOL0     N 4407   9.289   6.019   1.977 -0.0445  0.1517  0.0380
  774MOL0     C 4408   8.122   6.122   2.404 -0.3579  0.3974 -0.2484
  774MOL0     C 4409   7.994   6.163   2.440  0.2515  0.1219  0.2252
  774MOL0     C 4410   7.694   6.501   2.519  0.3780 -0.3832  0.1057
  774MOL0     C 4411   7.716   6.606   2.608 -0.0043 -0.4299  0.3620
  774MOL0     C 4412   7.612   6.674   2.668  0.4837  0.1256  0.7804
  774MOL0     C 4413   7.486   6.644   2.628 -0.0831  0.9142  0.1081
  774MOL0     O 4414   7.378   6.706   2.688 -0.9734 -0.2338 -0.4828
  774MOL0     C 4415   7.351   6.650   2.819 -0.7635  1.1700  0.0575
  774MOL0     C 4416   7.207   6.645   2.826 -0.5605  0.8754 -0.7222
  774MOL0     C 4417   7.157   6.606   2.962 -0.8266 -0.6655  0.3504
  774MOL0     C 4418   7.217   6.666   3.092  0.5366  0.2863 -0.1592
  774MOL0     C 4419   7.161   6.587   3.201 -0.2857  0.3633  0.0966
  774MOL0     C 4420   7.111   6.523   3.292  0.8005  0.1297 -0.4507
  774MOL0     C 4421   7.459   6.535   2.534 -0.6141 -0.3599 -0.0027
  774MOL0     C 4422   7.563   6.472   2.477  0.8762  0.1934  0.9167
  774MOL0     H 4423   7.898   6.311   2.163 -2.0552 -2.5353 -0.4728
  774MOL0     H 4424   8.122   6.226   2.082 -3.7727 -0.4977 -1.6562
  774MOL0     H 4425   8.401   6.228   2.124  0.2308 -1.4962 -1.8620
  774MOL0     H 4426   8.381   6.266   2.304  2.5227  0.7863 -0.9936
  774MOL0     H 4427   8.527   6.069   2.356 -1.1523  4.6336  2.4590
  774MOL0     H 4428   8.553   6.047   2.177  2.7467  1.0847 -0.5211
  774MOL0     H 4429   8.665   6.261   2.159  2.8305 -1.0453 -0.7482
  774MOL0     H 4430   8.619   6.295   2.324  2.4977 -0.6183  1.3425
  774MOL0     H 4431   8.856   6.238   2.310 -0.1785  1.4501  1.2367
  774MOL0     H 4432   8.775   6.101   2.398  1.6699  0.2411 -0.4439
  774MOL0     H 4433   8.747   5.965   2.214  1.0270 -0.4690 -0.8037
  774MOL0     H 4434   8.824   6.085   2.113  1.5964 -0.5744 -0.0369
  774MOL0     H 4435   9.018   6.068   2.278 -0.7208 -0.4262 -1.2182
  774MOL0     H 4436   8.939   5.915   2.342 -3.3974 -0.1355  0.1118
  774MOL0     H 4437   8.960   5.816   2.132  2.1538 -1.6748 -1.3321
  774MOL0     H 4438   8.996   5.963   2.036 -1.1905 -1.2980 -0.0849
  774MOL0     H 4439   9.187   5.790   2.096 -0.0856  0.1182 -0.3156
  774MOL0     H 4440   9.182   5.858   2.255 -0.4586 -1.3306  0.1343
  774MOL0     H 4441   9.238   6.141   2.268 -0.9711 -0.8797 -0.2060
  774MOL0     H 4442   9.307   6.394   2.080  1.9058  1.6746 -2.1801
  774MOL0     H 4443   9.412   6.335   2.219  0.1625 -1.4107 -0.0097
  774MOL0     H 4444   9.536   6.370   1.942 -1.6258  0.6774 -0.6832
  774MOL0     H 4445   9.594   6.283   2.088  1.6260  1.5696 -1.5847
  774MOL0     H 4446   9.587   6.513   2.211 -1.1997 -0.5269  0.3169
  774MOL0     H 4447   9.516   6.562   2.051  0.7310  1.3331  1.2689
  774MOL0     H 4448   9.780   6.606   2.091  2.2782 -1.5140 -0.0050
  774MOL0     H 4449   9.691   6.576   1.943  1.1931  0.7332  0.2747
  774MOL0     H 4450  10.011   6.294   2.006  0.2558  3.8713  0.3595
  774MOL0     H 4451  10.232   6.277   1.764  0.2055 -2.5540 -4.0810
  774MOL0     H 4452  10.180   6.199   1.917 -3.0620  0.9908  1.8825
  774MOL0     H 4453  10.165   6.119   1.751  0.4105  1.2582 -0.8285
  774MOL0     H 4454   9.884   6.120   1.289  0.4244  0.9222  2.2520
  774MOL0     H 4455   9.998   6.017   1.117  0.9358  0.2006 -0.3258
  774MOL0     H 4456  10.284   6.296   0.895  1.5709  0.4113 -1.6219
  774MOL0     H 4457  10.406   6.210   0.988  1.8594 -1.2664 -2.8875
  774MOL0     H 4458  10.372   6.016   0.862 -2.6435 -0.1580 -0.5807
  774MOL0     H 4459  10.301   6.110   0.721 -1.6609 -0.9531  0.8545
  774MOL0     H 4460  10.571   6.163   0.858  1.4372 -3.2309 -0.1210
  774MOL0     H 4461  10.497   6.252   0.722  1.5713  0.4984  1.0594
  774MOL0     H 4462  10.579   5.960   0.723  1.5734  0.4475  0.0991
  774MOL0     H 4463  10.534   6.062   0.577  4.0168  1.0770 -3.5192
  774MOL0     H 4464  10.775   6.136   0.739 -1.2949  0.9700  0.4921
  774MOL0     H 4465  10.752   6.161   0.571 -0.9595 -1.5331 -1.1013
  774MOL0     H 4466  10.809   5.889   0.715  0.5361 -3.1350 -2.3245
  774MOL0     H 4467  10.762   5.897   0.545 -1.6599 -0.7141  0.3161
  774MOL0     H 4468  10.983   6.067   0.670  0.6776 -1.1282  1.1711
  774MOL0     H 4469  10.957   6.036   0.494  0.0180  0.6112  0.2002
  774MOL0     H 4470  11.035   5.790   0.517  0.9659 -2.4959  3.3028
  774MOL0     H 4471  11.034   5.813   0.687 -1.1449 -1.7761 -0.5492
  774MOL0     H 4472  10.299   6.344   1.141  0.4151 -0.0883 -1.5465
  774MOL0     H 4473  10.160   6.444   1.314  2.3737 -1.3421  1.2926
  774MOL0     H 4474   9.798   6.391   1.574  0.9672 -0.3562 -0.2113
  774MOL0     H 4475   9.693   6.457   1.781  0.3255 -0.7929 -1.0623
  774MOL0     H 4476   8.177   6.064   2.478 -1.8905 -1.1379 -0.2578
  774MOL0     H 4477   7.948   6.148   2.537 -1.3673  1.0342 -0.3620
  774MOL0     H 4478   7.814   6.642   2.636  0.5189 -1.5011 -0.0305
  774MOL0     H 4479   7.634   6.752   2.739  2.9323 -1.5218  1.9587
  774MOL0     H 4480   7.405   6.555   2.827  0.7233  1.7093 -2.4574
  774MOL0     H 4481   7.390   6.709   2.902 -0.3229 -0.6506  1.1913
  774MOL0     H 4482   7.175   6.570   2.752  0.3048 -0.1341 -0.1049
  774MOL0     H 4483   7.161   6.743   2.809  0.9704  1.8699  0.6113
  774MOL0     H 4484   7.191   6.503   2.970 -0.2458 -0.4488  0.7601
  774MOL0     H 4485   7.047   6.605   2.957 -0.8083 -3.3549 -1.1461
  774MOL0     H 4486   7.190   6.772   3.106 -0.1497 -0.0218  1.0297
  774MOL0     H 4487   7.326   6.663   3.096  0.5034  0.4117  1.5023
  774MOL0     H 4488   7.055   6.478   3.372  0.7272  0.7394 -0.1516
  774MOL0     H 4489   7.356   6.505   2.519 -0.8440 -1.1852  2.6836
  774MOL0     H 4490   7.537   6.390   2.411 -0.9078  0.9758  0.5971
  775MOL0     O 4491   9.867   0.500   6.909  0.2625  0.8726  0.7929
  775MOL0     C 4492   9.801   0.599   6.925  0.5882 -0.0105 -0.3684
  775MOL0     O 4493   9.852   0.726   6.955  0.5326 -1.0544  0.1112
  775MOL0     C 4494   9.986   0.738   6.992  0.5186  0.4173 -0.7229
  775MOL0     C 4495  10.093   0.694   6.914  0.2750  0.1175  0.3855
  775MOL0     C 4496  10.229   0.730   6.956  1.6884 -0.0913 -0.4416
  775MOL0     C 4497  10.252   0.806   7.073  0.6102 -0.1399  0.4602
  775MOL0     O 4498  10.387   0.832   7.112 -0.1083 -0.0208 -0.1884
  775MOL0     C 4499  10.405   0.939   7.202 -0.8814 -0.1019  0.1885
  775MOL0     C 4500  10.555   0.914   7.242  0.2200 -0.0304 -0.2762
  775MOL0     C 4501  10.665   0.985   7.163 -0.0979  0.0426 -0.0381
  775MOL0     C 4502  10.803   1.006   7.232  1.1425  0.1799  0.0864
  775MOL0     C 4503  10.905   1.083   7.146  0.3236  0.4369  0.5198
  775MOL0     C 4504  11.042   1.077   7.213  0.0786  0.4480 -0.3679
  775MOL0     C 4505  11.142   1.139   7.122  0.8372 -0.1615  1.2493
  775MOL0     C 4506  11.121   1.289   7.072 -0.6942 -0.4275  0.0755
  775MOL0     N 4507  11.163   1.390   7.165  0.6719 -0.3490 -0.2763
  775MOL0     C 4508  11.073   1.455   7.249 -0.7613  0.8393 -0.0212
  775MOL0     C 4509  11.150   1.532   7.325  0.2432  0.2026 -0.0816
  775MOL0     C 4510  11.111   1.638   7.428 -1.0320  0.1367 -0.7582
  775MOL0     C 4511  11.192   1.770   7.431 -0.2214 -0.2351 -0.2531
  775MOL0     C 4512  11.176   1.875   7.322 -0.4603  0.9657 -0.2996
  775MOL0     C 4513  11.176   1.820   7.177  0.1747 -0.3964 -0.6807
  775MOL0     O 4514  11.185   1.930   7.090  0.5379  0.1613 -0.5903
  775MOL0     C 4515  11.065   1.978   7.045 -0.4328 -0.3762  0.3862
  775MOL0     C 4516  10.935   1.924   7.054 -0.4301 -0.5696  0.4731
  775MOL0     C 4517  10.821   1.995   7.024 -0.0598  0.6641 -0.3418
  775MOL0     C 4518  10.692   1.920   7.032  0.1299 -0.6200  0.2873
  775MOL0     C 4519  10.833   2.125   6.975 -0.5605  0.4266 -0.3002
  775MOL0     C 4520  10.718   2.210   6.947 -0.4876 -0.0362 -0.2526
  775MOL0     O 4521  10.597   2.163   6.983 -0.8186 -0.4930  0.5340
  775MOL0     C 4522  10.483   2.242   6.976  0.4627 -0.0232  0.4992
  775MOL0     C 4523  10.465   2.379   6.937 -0.6756  0.7654  0.8792
  775MOL0     C 4524  10.350   2.451   6.967  0.6582 -0.1270  0.0219
  775MOL0     C 4525  10.234   2.378   7.009  0.0324  0.1967  0.1837
  775MOL0     O 4526  10.115   2.439   7.021  0.2744  0.2176  0.3108
  775MOL0     C 4527  10.030   2.411   7.145 -0.3441  0.7416  1.0519
  775MOL0     C 4528  10.102   2.461   7.270 -0.3899 -0.6785  0.5607
  775MOL0     C 4529  10.121   2.617   7.284  0.1490 -0.1649  0.0054
  775MOL0     C 4530  10.135   2.631   7.440  0.8314 -0.0038  0.0785
  775MOL0     C 4531  10.168   2.779   7.477  0.8841 -0.7325 -0.2338
  775MOL0     C 4532  10.290   2.839   7.406 -0.1633 -1.1605 -0.0880
  775MOL0     C 4533  10.422   2.755   7.394 -0.5663 -0.1739  0.0357
  775MOL0     C 4534  10.510   2.813   7.285  0.1522 -0.6007  0.6078
  775MOL0    Cl 4535  10.442   2.812   7.122 -0.0952  0.3374  0.0185
  775MOL0     C 4536  10.248   2.242   7.023  0.6347  0.8607 -0.2290
  775MOL0     C 4537  10.369   2.174   7.011  0.2671  0.7193  0.8877
  775MOL0     O 4538  10.734   2.320   6.896  0.2493  0.3065 -0.1047
  775MOL0     C 4539  10.959   2.181   6.951 -1.0710  0.4791 -1.0856
  775MOL0     C 4540  11.080   2.109   6.990  0.2813  0.1981  0.3330
  775MOL0     N 4541  11.289   1.511   7.281 -0.6710  0.0814  0.0440
  775MOL0     N 4542  11.291   1.431   7.180 -0.6876  0.1463 -0.3796
  775MOL0     C 4543  10.134   0.841   7.147 -0.1514 -0.2025 -0.8819
  775MOL0     C 4544  10.004   0.817   7.111 -0.0259  0.6679  1.1814
  775MOL0     C 4545   9.653   0.594   6.890  0.1087 -0.0147 -0.2995
  775MOL0     C 4546   9.595   0.467   6.831  0.5973  0.2370 -0.7482
  775MOL0     C 4547   9.460   0.458   6.814  0.2889  1.3067  0.3399
  775MOL0     C 4548   9.372   0.566   6.826 -0.2224  0.5537 -0.1241
  775MOL0     O 4549   9.238   0.566   6.794  1.9247  0.3676  0.1309
  775MOL0     C 4550   9.190   0.460   6.718  1.1128 -0.3845  0.3120
  775MOL0     C 4551   9.048   0.490   6.670  0.6243 -0.1164  1.0282
  775MOL0     C 4552   8.949   0.521   6.781  0.1414  0.3724  0.8923
  775MOL0     C 4553   8.800   0.527   6.723 -0.7968  0.1519  0.1496
  775MOL0     C 4554   8.754   0.649   6.660  0.5474 -0.1257 -0.8040
  775MOL0     C 4555   8.720   0.757   6.615 -0.2547 -0.6122 -0.9330
  775MOL0     C 4556   9.421   0.681   6.889  0.2438  1.1469 -0.6796
  775MOL0     C 4557   9.560   0.700   6.920 -0.1338 -1.2523  0.0190
  775MOL0     H 4558  10.087   0.648   6.816  1.3258  1.0412 -0.1236
  775MOL0     H 4559  10.316   0.698   6.899  0.5283  2.4376 -4.0342
  775MOL0     H 4560  10.400   1.042   7.164 -1.2258 -0.5865 -1.1393
  775MOL0     H 4561  10.344   0.933   7.292 -0.8957 -1.0274  0.1310
  775MOL0     H 4562  10.572   0.942   7.346  0.4710  0.4330 -0.4379
  775MOL0     H 4563  10.574   0.806   7.243 -2.0687 -0.4773  1.1479
  775MOL0     H 4564  10.673   0.930   7.068 -0.9938 -0.6958  0.2996
  775MOL0     H 4565  10.626   1.081   7.127 -1.5141 -1.4595 -2.8057
  775MOL0     H 4566  10.790   1.063   7.324 -0.2715 -0.2387  0.1632
  775MOL0     H 4567  10.839   0.904   7.253 -2.4842 -0.9971  1.3715
  775MOL0     H 4568  10.909   1.035   7.048  0.7379  1.0402  0.2325
  775MOL0     H 4569  10.879   1.189   7.151  2.6704  1.0473  1.2804
  775MOL0     H 4570  11.034   1.126   7.310 -2.3510  3.3455 -1.8500
  775MOL0     H 4571  11.075   0.976   7.240  2.2254  1.7001  2.1759
  775MOL0     H 4572  11.233   1.139   7.183  1.3568  1.4765  0.5291
  775MOL0     H 4573  11.157   1.081   7.031 -0.2955 -0.2700  1.1206
  775MOL0     H 4574  11.017   1.302   7.039 -0.9046 -5.6219 -2.1681
  775MOL0     H 4575  11.183   1.304   6.983  0.7283  3.8528  1.5100
  775MOL0     H 4576  10.967   1.472   7.234 -1.1767  0.3694  2.0453
  775MOL0     H 4577  11.006   1.666   7.416 -0.9250 -0.4455 -3.9271
  775MOL0     H 4578  11.133   1.601   7.529 -3.3513 -2.1904 -1.0081
  775MOL0     H 4579  11.297   1.738   7.428  0.4169  1.5831  1.0474
  775MOL0     H 4580  11.170   1.832   7.518 -0.6506  1.1133 -1.2827
  775MOL0     H 4581  11.267   1.935   7.328 -0.6365  1.3620 -1.4383
  775MOL0     H 4582  11.084   1.933   7.338  0.0571  1.6363  0.3002
  775MOL0     H 4583  11.095   1.750   7.154 -0.4354 -0.6839  1.9844
  775MOL0     H 4584  11.260   1.749   7.177 -2.3376 -3.6593  0.9959
  775MOL0     H 4585  10.919   1.824   7.092 -1.2412 -0.4762  0.3848
  775MOL0     H 4586  10.707   1.819   7.072  1.8368 -1.9863 -3.3264
  775MOL0     H 4587  10.629   1.967   7.108  2.3870  0.4348  1.6244
  775MOL0     H 4588  10.653   1.913   6.930 -1.7078  0.0990  0.9056
  775MOL0     H 4589  10.533   2.439   6.877 -2.1373  0.5515 -1.1257
  775MOL0     H 4590  10.339   2.559   6.957 -1.7824 -0.1500  1.6833
  775MOL0     H 4591   9.941   2.469   7.117  0.5523  2.3489  1.4277
  775MOL0     H 4592   9.999   2.306   7.151  3.0390 -0.4499  0.1657
  775MOL0     H 4593  10.032   2.427   7.347 -0.3220 -0.7855  0.5753
  775MOL0     H 4594  10.197   2.409   7.280  0.4590  0.2772 -1.8075
  775MOL0     H 4595  10.041   2.672   7.233  0.0327 -2.0742 -2.0433
  775MOL0     H 4596  10.218   2.650   7.245 -0.1944  0.2301 -0.5332
  775MOL0     H 4597  10.039   2.610   7.487  0.7351  0.7723  0.2375
  775MOL0     H 4598  10.208   2.556   7.470  0.4821 -1.3771 -2.2223
  775MOL0     H 4599  10.178   2.807   7.582  1.9436  0.9396 -0.7282
  775MOL0     H 4600  10.083   2.844   7.453 -1.1494 -2.3451  2.1210
  775MOL0     H 4601  10.251   2.862   7.307 -1.0934  1.2487  0.7714
  775MOL0     H 4602  10.306   2.935   7.455 -3.9321  0.6411 -1.9794
  775MOL0     H 4603  10.397   2.651   7.375 -3.0111  0.6336 -1.5225
  775MOL0     H 4604  10.478   2.756   7.488 -0.3805  1.7093 -0.0603
  775MOL0     H 4605  10.606   2.762   7.275  0.7012  0.5742 -0.3238
  775MOL0     H 4606  10.535   2.917   7.307  2.7646 -0.8785 -0.6922
  775MOL0     H 4607  10.156   2.188   7.041  1.0175 -0.1320 -1.1619
  775MOL0     H 4608  10.359   2.071   7.046 -3.1895  0.7984  0.4914
  775MOL0     H 4609  10.975   2.281   6.914  0.6409  0.7361  0.1925
  775MOL0     H 4610  11.175   2.161   6.979  0.9905 -0.6719  1.9787
  775MOL0     H 4611  10.148   0.885   7.245 -0.2505  0.1146 -1.0089
  775MOL0     H 4612   9.918   0.851   7.168 -0.4011  1.7882 -0.0008
  775MOL0     H 4613   9.661   0.382   6.820 -0.7068 -0.6501 -2.0320
  775MOL0     H 4614   9.434   0.368   6.759  0.6255  0.0524  2.1299
  775MOL0     H 4615   9.241   0.447   6.622 -3.1864 -0.7501 -2.1986
  775MOL0     H 4616   9.195   0.368   6.777  3.8135 -0.5752 -0.1155
  775MOL0     H 4617   9.017   0.401   6.615  1.0927  1.2904 -1.6707
  775MOL0     H 4618   9.039   0.565   6.592  1.4626 -2.2591 -1.2525
  775MOL0     H 4619   8.970   0.611   6.838  1.7154  1.2822 -1.0034
  775MOL0     H 4620   8.967   0.438   6.850  2.3191  0.7505  0.8539
  775MOL0     H 4621   8.720   0.494   6.790  0.1990 -2.0770  0.3229
  775MOL0     H 4622   8.795   0.450   6.645 -2.3143  0.9323 -0.5617
  775MOL0     H 4623   8.688   0.854   6.584 -3.3259 -0.0962  3.0790
  775MOL0     H 4624   9.350   0.762   6.907 -0.6367  0.6426 -1.7301
  775MOL0     H 4625   9.605   0.790   6.961  1.1286 -0.8785 -2.0542
  776MOL0     O 4626  10.038   4.326   6.463 -1.0270 -0.1752  0.6188
  776MOL0     C 4627   9.952   4.406   6.426 -0.5230 -0.1268  0.0590
  776MOL0     O 4628   9.978   4.538   6.400  0.2562  0.5324  0.2404
  776MOL0     C 4629  10.109   4.586   6.409  0.8336 -1.4843 -0.0706
  776MOL0     C 4630  10.203   4.536   6.322 -0.3386 -0.5074  0.9237
  776MOL0     C 4631  10.325   4.606   6.314  0.5502  1.3821  0.2007
  776MOL0     C 4632  10.348   4.723   6.382 -0.3584  1.0517 -0.1899
  776MOL0     O 4633  10.475   4.774   6.365 -0.3844 -0.1702  0.0282
  776MOL0     C 4634  10.513   4.877   6.453  0.0308  0.0171  0.6682
  776MOL0     C 4635  10.646   4.936   6.421 -0.2993 -0.4908 -0.9388
  776MOL0     C 4636  10.637   5.012   6.291  0.3034  0.4328  0.2542
  776MOL0     C 4637  10.752   5.082   6.221  0.1099  0.2614 -0.5829
  776MOL0     C 4638  10.814   5.187   6.318  0.2490  0.1320  0.0059
  776MOL0     C 4639  10.914   5.282   6.242  0.2147 -0.6439 -0.6801
  776MOL0     C 4640  10.968   5.374   6.353 -0.1899 -0.5107  0.3018
  776MOL0     C 4641  11.065   5.475   6.293 -0.6663 -0.1066 -0.6495
  776MOL0     N 4642  11.121   5.545   6.419 -0.3377 -0.2295  0.0664
  776MOL0     C 4643  11.091   5.676   6.470  1.0227  0.6667  0.4912
  776MOL0     C 4644  11.192   5.711   6.560 -0.0653  0.1263  0.7575
  776MOL0     C 4645  11.205   5.857   6.610  0.1451 -0.1703 -0.0677
  776MOL0     C 4646  11.083   5.933   6.655 -0.1171  0.7189 -0.0728
  776MOL0     C 4647  11.128   6.073   6.710  0.0279 -0.3778 -0.0581
  776MOL0     C 4648  11.005   6.154   6.768  0.7291  0.1401 -0.3795
  776MOL0     O 4649  10.904   6.183   6.672 -0.0974 -0.1543  0.4685
  776MOL0     C 4650  10.917   6.303   6.611  0.2945 -0.2976  0.0919
  776MOL0     C 4651  10.810   6.352   6.540 -1.0998 -0.2523 -0.5849
  776MOL0     C 4652  10.803   6.483   6.489  0.5018  0.3037  0.7098
  776MOL0     C 4653  10.680   6.519   6.404 -0.2881  0.7538  1.4759
  776MOL0     C 4654  10.913   6.573   6.507  0.0459  0.3473 -0.7026
  776MOL0     C 4655  10.926   6.701   6.460 -0.9914  0.0229 -0.3365
  776MOL0     O 4656  11.048   6.765   6.489 -0.1788  0.0266  0.0467
  776MOL0     C 4657  11.080   6.865   6.402 -0.5462 -0.5570 -0.3687
  776MOL0     C 4658  11.160   6.842   6.290 -0.0953  0.3822 -0.8037
  776MOL0     C 4659  11.214   6.950   6.217  0.2841 -0.8919 -0.1124
  776MOL0     C 4660  11.201   7.084   6.267  1.3529 -0.0599 -0.1356
  776MOL0     O 4661  11.259   7.189   6.200  0.0901 -0.4924 -0.0265
  776MOL0     C 4662  11.217   7.212   6.071 -0.8952 -1.0850  0.2960
  776MOL0     C 4663  11.314   7.303   5.995  0.9777  0.5069 -0.5490
  776MOL0     C 4664  11.443   7.228   5.968 -0.7792 -1.0087 -0.2550
  776MOL0     C 4665  11.430   7.129   5.852 -1.9685 -0.8476  1.2955
  776MOL0     C 4666  11.573   7.110   5.775  0.5099  0.1144  0.1886
  776MOL0     C 4667  11.560   7.069   5.631 -0.2566 -0.4173  0.2858
  776MOL0     C 4668  11.463   6.960   5.604 -0.6197 -0.0451 -0.6866
  776MOL0     C 4669  11.487   6.871   5.482 -0.2849  0.1528  0.5724
  776MOL0    Cl 4670  11.539   6.963   5.340  0.3670  0.0584 -0.2599
  776MOL0     C 4671  11.122   7.108   6.376  0.3646  0.0784  0.8860
  776MOL0     C 4672  11.071   7.001   6.451 -0.2467 -1.0775  0.4682
  776MOL0     O 4673  10.839   6.752   6.390 -0.3682 -0.6194  0.5750
  776MOL0     C 4674  11.028   6.511   6.567  0.1135  0.2110 -0.4589
  776MOL0     C 4675  11.027   6.385   6.623  0.0552 -0.1494  0.4365
  776MOL0     N 4676  11.284   5.608   6.553  0.1207 -0.2099  0.2144
  776MOL0     N 4677  11.240   5.512   6.481 -0.0354 -0.7739 -0.5811
  776MOL0     C 4678  10.251   4.772   6.462  0.7582 -0.0267 -0.8859
  776MOL0     C 4679  10.134   4.705   6.476 -0.3532 -0.1179  0.3441
  776MOL0     C 4680   9.812   4.355   6.427 -0.4272 -0.4648 -0.0644
  776MOL0     C 4681   9.767   4.222   6.405 -0.5281  0.0130  1.0241
  776MOL0     C 4682   9.643   4.174   6.401  1.0530 -0.2834  1.1133
  776MOL0     C 4683   9.541   4.273   6.416  0.1237  0.2487 -0.2189
  776MOL0     O 4684   9.403   4.225   6.412 -0.1534 -0.9083  0.2752
  776MOL0     C 4685   9.304   4.276   6.504 -0.6043 -0.2712  0.2307
  776MOL0     C 4686   9.354   4.215   6.641 -0.2711 -0.3618 -0.4816
  776MOL0     C 4687   9.240   4.211   6.754 -1.0257 -0.4206  1.5039
  776MOL0     C 4688   9.148   4.078   6.759 -0.3425 -0.2108  0.2402
  776MOL0     C 4689   9.022   4.104   6.834 -0.2728  0.7431  0.0687
  776MOL0     C 4690   8.948   4.116   6.925  0.8545 -0.1774 -0.5533
  776MOL0     C 4691   9.574   4.406   6.441 -0.3193 -0.6454  0.7026
  776MOL0     C 4692   9.709   4.447   6.445  0.7168  0.6141  1.1746
  776MOL0     H 4693  10.184   4.447   6.263 -0.5511  1.1624 -1.6960
  776MOL0     H 4694  10.401   4.563   6.249  0.4833 -0.4028  1.2437
  776MOL0     H 4695  10.443   4.961   6.448 -2.7919 -2.1962 -3.3743
  776MOL0     H 4696  10.513   4.840   6.556 -2.0005  1.1658  1.1358
  776MOL0     H 4697  10.669   5.009   6.499 -1.5468 -0.4652 -0.5866
  776MOL0     H 4698  10.735   4.873   6.412  2.1516  2.1592  2.2506
  776MOL0     H 4699  10.588   4.946   6.219 -0.8844 -0.6729  1.9812
  776MOL0     H 4700  10.561   5.086   6.321 -1.8769 -0.3943 -2.7938
  776MOL0     H 4701  10.827   5.004   6.208  1.1500  1.2081 -0.3745
  776MOL0     H 4702  10.712   5.134   6.134 -1.5625  1.7130  0.9663
  776MOL0     H 4703  10.735   5.256   6.347 -1.9442 -1.3049 -2.1358
  776MOL0     H 4704  10.873   5.132   6.392  2.2702  0.4215 -1.2966
  776MOL0     H 4705  10.983   5.216   6.190 -1.0050 -0.5381 -2.5154
  776MOL0     H 4706  10.859   5.342   6.168 -1.7574 -2.1461 -0.4984
  776MOL0     H 4707  10.878   5.422   6.391 -1.5775 -4.0371  1.9134
  776MOL0     H 4708  11.023   5.318   6.429  1.3079  2.1160  1.2892
  776MOL0     H 4709  11.021   5.559   6.239  1.5983  2.2657  0.9090
  776MOL0     H 4710  11.146   5.426   6.239 -2.6541 -2.2738 -1.8192
  776MOL0     H 4711  10.994   5.720   6.449 -0.3502 -2.7847 -1.2504
  776MOL0     H 4712  11.282   5.867   6.687 -2.1494 -1.1697  2.5265
  776MOL0     H 4713  11.242   5.908   6.520 -1.6709  0.7068 -0.3859
  776MOL0     H 4714  11.042   5.878   6.740  1.0296  0.0084  0.0340
  776MOL0     H 4715  11.015   5.949   6.571  2.0558  0.8059 -1.9083
  776MOL0     H 4716  11.172   6.113   6.619  1.0054 -2.8671 -0.7553
  776MOL0     H 4717  11.197   6.081   6.794 -3.1792  1.5473  2.6602
  776MOL0     H 4718  11.047   6.237   6.825 -0.0002 -0.3042  0.8286
  776MOL0     H 4719  10.951   6.093   6.841 -0.6626  3.3508  1.4798
  776MOL0     H 4720  10.723   6.288   6.526 -0.1189 -1.5185 -1.0545
  776MOL0     H 4721  10.646   6.622   6.421  0.3703  1.2083  0.1633
  776MOL0     H 4722  10.717   6.519   6.301  0.8174 -2.6290  1.7516
  776MOL0     H 4723  10.604   6.440   6.406  1.1478 -0.8256 -1.0005
  776MOL0     H 4724  11.187   6.742   6.257  2.9454  1.1009 -0.7928
  776MOL0     H 4725  11.283   6.935   6.135 -0.6600 -1.0334 -0.9022
  776MOL0     H 4726  11.186   7.118   6.024 -2.8739 -1.3153  1.9309
  776MOL0     H 4727  11.126   7.271   6.065  0.4884  1.0483 -4.3417
  776MOL0     H 4728  11.278   7.337   5.897 -0.0886 -0.3701 -0.4690
  776MOL0     H 4729  11.333   7.389   6.060 -1.2896  0.6388  0.0095
  776MOL0     H 4730  11.477   7.175   6.057  0.0716  0.0828  0.0894
  776MOL0     H 4731  11.511   7.307   5.934 -4.0771  1.6784 -1.2379
  776MOL0     H 4732  11.394   7.035   5.895 -0.1070 -0.8417  2.9950
  776MOL0     H 4733  11.359   7.174   5.782  0.9142  3.8630  1.0080
  776MOL0     H 4734  11.638   7.037   5.825  0.0915  0.1720  0.8249
  776MOL0     H 4735  11.625   7.206   5.764 -0.5562  0.8996  1.7157
  776MOL0     H 4736  11.549   7.146   5.555  0.3120 -1.4221 -0.8625
  776MOL0     H 4737  11.654   7.020   5.603 -1.5059 -1.1023 -3.1530
  776MOL0     H 4738  11.365   7.005   5.586 -0.3489 -0.0872 -2.4472
  776MOL0     H 4739  11.457   6.908   5.701  2.8916  1.1188  0.2898
  776MOL0     H 4740  11.415   6.796   5.447  1.9071 -2.2001  0.7988
  776MOL0     H 4741  11.571   6.804   5.504 -1.4722 -1.3459  0.7725
  776MOL0     H 4742  11.103   7.212   6.400 -0.4933  0.0845  0.2113
  776MOL0     H 4743  11.005   7.034   6.531 -1.0870  0.4273 -0.7877
  776MOL0     H 4744  11.123   6.563   6.557  0.5006 -0.9878 -4.8808
  776MOL0     H 4745  11.122   6.340   6.652 -0.5286 -0.7109  1.5334
  776MOL0     H 4746  10.263   4.865   6.516  2.5980  0.2842 -1.7743
  776MOL0     H 4747  10.049   4.734   6.536 -1.7112 -2.3067 -0.4153
  776MOL0     H 4748   9.836   4.138   6.399 -2.4879 -1.6933  1.1266
  776MOL0     H 4749   9.621   4.070   6.380  1.5516 -0.9223  3.5020
  776MOL0     H 4750   9.296   4.385   6.502 -1.4418 -0.3290 -0.4261
  776MOL0     H 4751   9.203   4.235   6.493 -0.4909 -0.4650 -0.1134
  776MOL0     H 4752   9.442   4.272   6.674 -1.7532  0.0410  3.2991
  776MOL0     H 4753   9.385   4.110   6.637 -1.9829 -0.8444 -1.9109
  776MOL0     H 4754   9.184   4.305   6.747  3.4999  2.7715  2.9088
  776MOL0     H 4755   9.295   4.213   6.849  0.3844  2.4949  0.7394
  776MOL0     H 4756   9.203   3.994   6.802 -1.0371 -0.7240  0.1471
  776MOL0     H 4757   9.116   4.041   6.661 -0.1487 -0.6689  0.3481
  776MOL0     H 4758   8.874   4.134   7.001 -0.6575 -0.4079 -1.9306
  776MOL0     H 4759   9.493   4.476   6.457  1.2984  1.7973 -1.1140
  776MOL0     H 4760   9.740   4.550   6.459  2.0795 -0.0024  3.1174
  777MOL0     O 4761   7.252   4.307   0.805  0.1054  0.0537 -0.1737
  777MOL0     C 4762   7.346   4.369   0.754 -0.4182  0.0767  0.3159
  777MOL0     O 4763   7.361   4.393   0.617 -0.2519  0.6053 -0.5730
  777MOL0     C 4764   7.250   4.363   0.538  0.3792  1.1113 -1.0083
  777MOL0     C 4765   7.255   4.297   0.417 -0.3618 -0.1305  0.0721
  777MOL0     C 4766   7.155   4.268   0.333  0.3932  0.3245  0.3553
  777MOL0     C 4767   7.023   4.304   0.369  0.2322 -0.8895 -0.0889
  777MOL0     O 4768   6.900   4.272   0.303  0.3564 -0.7019 -0.1374
  777MOL0     C 4769   6.905   4.194   0.183  0.4420  0.6185  0.5857
  777MOL0     C 4770   6.772   4.108   0.187  0.0316 -0.2479  0.2398
  777MOL0     C 4771   6.653   4.209   0.178  0.6673 -0.9163  0.4934
  777MOL0     C 4772   6.514   4.135   0.208 -0.2264 -0.2052 -0.5135
  777MOL0     C 4773   6.467   4.057   0.087 -0.1620 -0.4792  0.3210
  777MOL0     C 4774   6.313   4.025   0.087 -0.1243 -1.1922 -0.0291
  777MOL0     C 4775   6.228   4.155   0.073 -0.2678 -0.2131  0.1092
  777MOL0     C 4776   6.097   4.124  -0.005  0.7703 -0.4979 -0.2439
  777MOL0     N 4777   6.000   4.060   0.088 -0.3279  0.2280 -0.0608
  777MOL0     C 4778   5.869   4.087   0.116 -0.8974 -0.7004  0.8760
  777MOL0     C 4779   5.811   3.978   0.147  0.6816  0.1575 -0.7802
  777MOL0     C 4780   5.665   3.955   0.186 -0.4720 -0.6753 -0.4095
  777MOL0     C 4781   5.586   3.878   0.083  0.8308  0.3223 -0.0499
  777MOL0     C 4782   5.590   3.920  -0.067 -0.8347  0.1001  0.0724
  777MOL0     C 4783   5.505   3.834  -0.168 -0.4937 -1.0608 -0.9665
  777MOL0     O 4784   5.542   3.887  -0.290  0.4365  0.4244  0.4420
  777MOL0     C 4785   5.445   3.884  -0.384 -0.2829 -0.5407 -0.3954
  777MOL0     C 4786   5.310   3.864  -0.367 -0.1041  0.2651  0.7223
  777MOL0     C 4787   5.223   3.870  -0.477  0.3813  0.4300  1.1467
  777MOL0     C 4788   5.082   3.811  -0.445 -0.3542 -0.9287 -0.3781
  777MOL0     C 4789   5.267   3.897  -0.605  0.4012 -0.1165  1.1588
  777MOL0     C 4790   5.186   3.891  -0.727 -0.8376  1.1270  0.0377
  777MOL0     O 4791   5.249   3.905  -0.847  0.4474 -0.3646  0.3769
  777MOL0     C 4792   5.164   3.909  -0.959 -0.5398 -0.7170 -0.0946
  777MOL0     C 4793   5.167   4.022  -1.031  0.5988 -0.0050  0.6392
  777MOL0     C 4794   5.082   4.034  -1.146 -0.4190  0.4556 -0.1832
  777MOL0     C 4795   4.993   3.929  -1.188  0.3895 -0.0585  0.2431
  777MOL0     O 4796   4.894   3.945  -1.284 -0.2762  0.2957 -0.0129
  777MOL0     C 4797   4.897   4.045  -1.379  0.2169 -0.3936 -1.1590
  777MOL0     C 4798   4.766   4.130  -1.352  0.5890  0.2115  0.0847
  777MOL0     C 4799   4.640   4.046  -1.382  0.2184  0.2083 -0.0270
  777MOL0     C 4800   4.584   4.055  -1.533 -0.3200  0.1066 -0.3418
  777MOL0     C 4801   4.451   3.990  -1.543  0.0191  0.0209  0.5249
  777MOL0     C 4802   4.363   4.029  -1.666 -0.1137 -0.9629 -0.0928
  777MOL0     C 4803   4.229   3.970  -1.662 -0.0230 -0.4224  0.4580
  777MOL0     C 4804   4.151   3.980  -1.802  0.2228  0.2703  0.3700
  777MOL0    Cl 4805   4.120   4.154  -1.841 -0.5996  0.5154 -0.3576
  777MOL0     C 4806   5.001   3.814  -1.113 -0.3479 -0.2795 -0.2269
  777MOL0     C 4807   5.096   3.797  -1.006  0.2020  0.2825  0.2569
  777MOL0     O 4808   5.066   3.889  -0.716  0.5267 -0.1578 -0.6751
  777MOL0     C 4809   5.407   3.924  -0.612 -0.3070 -0.2018  0.7188
  777MOL0     C 4810   5.490   3.918  -0.505  0.4776  0.1353  0.1843
  777MOL0     N 4811   5.907   3.874   0.155 -0.3883 -0.4619  0.3904
  777MOL0     N 4812   6.015   3.929   0.108  0.3405  0.2598  1.4220
  777MOL0     C 4813   7.007   4.366   0.497  0.2198 -0.5831  0.5478
  777MOL0     C 4814   7.117   4.402   0.574 -0.5926 -0.4328 -0.3615
  777MOL0     C 4815   7.468   4.399   0.829  0.0101  1.1353  1.0015
  777MOL0     C 4816   7.544   4.518   0.800 -0.4073  0.7137  1.1653
  777MOL0     C 4817   7.667   4.530   0.867  0.5399 -0.5181 -0.2731
  777MOL0     C 4818   7.724   4.434   0.942 -0.1009  0.4883  0.5185
  777MOL0     O 4819   7.851   4.436   0.989 -0.1460 -0.4220  0.2208
  777MOL0     C 4820   7.956   4.392   0.906 -0.7343 -0.0905 -0.4904
  777MOL0     C 4821   8.012   4.256   0.957  0.4695  0.8900 -0.0832
  777MOL0     C 4822   8.140   4.212   0.892  1.3914  0.4610 -0.1920
  777MOL0     C 4823   8.128   4.168   0.741  1.0141  0.1656  0.8448
  777MOL0     C 4824   8.254   4.105   0.691  0.7061 -0.5125  0.1472
  777MOL0     C 4825   8.363   4.066   0.665 -0.0852  0.4942  0.4904
  777MOL0     C 4826   7.649   4.318   0.970 -0.2425  0.6177 -0.2250
  777MOL0     C 4827   7.519   4.308   0.917  1.0371  0.7330  0.2546
  777MOL0     H 4828   7.351   4.260   0.381 -1.7919 -1.1637 -3.0719
  777MOL0     H 4829   7.178   4.212   0.243  0.6412  3.8460 -1.9862
  777MOL0     H 4830   6.904   4.243   0.085 -3.4314 -0.1119  0.0899
  777MOL0     H 4831   6.984   4.118   0.189  0.7724  1.0004  1.0934
  777MOL0     H 4832   6.777   4.032   0.108  2.7930  1.6369 -1.5922
  777MOL0     H 4833   6.767   4.059   0.284 -1.2154  1.2158  0.9688
  777MOL0     H 4834   6.658   4.277   0.263  1.2892  0.4971 -0.6424
  777MOL0     H 4835   6.639   4.279   0.096 -1.3883  1.0517  2.3754
  777MOL0     H 4836   6.527   4.068   0.294 -0.0582 -1.4489 -1.4835
  777MOL0     H 4837   6.448   4.221   0.219  2.3870  1.8198  0.3380
  777MOL0     H 4838   6.495   4.127   0.008  1.6600 -0.3828  1.0049
  777MOL0     H 4839   6.530   3.970   0.066 -3.0578 -2.7829  0.5858
  777MOL0     H 4840   6.298   3.960   0.000 -4.2259 -1.1873  0.4784
  777MOL0     H 4841   6.289   3.972   0.180 -1.0902  1.1294  1.1264
  777MOL0     H 4842   6.201   4.201   0.168  1.3380 -0.7955  0.8796
  777MOL0     H 4843   6.285   4.222   0.008 -0.0848  0.0152  0.5003
  777MOL0     H 4844   6.125   4.060  -0.089  1.5034 -0.3160 -0.1500
  777MOL0     H 4845   6.050   4.215  -0.044 -0.2170 -1.6819 -1.9125
  777MOL0     H 4846   5.820   4.184   0.108 -0.7166 -0.6378  0.5015
  777MOL0     H 4847   5.664   3.891   0.276 -0.0598 -2.0823 -1.3674
  777MOL0     H 4848   5.632   4.054   0.219  1.1131 -0.6071  1.0932
  777MOL0     H 4849   5.479   3.878   0.110  0.6383  1.1223 -0.7777
  777MOL0     H 4850   5.625   3.776   0.088 -1.0768 -0.6010 -2.1121
  777MOL0     H 4851   5.692   3.922  -0.104 -0.7981 -1.6368 -0.0261
  777MOL0     H 4852   5.558   4.024  -0.079 -1.2130 -0.0487 -0.2296
  777MOL0     H 4853   5.404   3.860  -0.135 -1.1047 -1.0173 -2.7757
  777MOL0     H 4854   5.533   3.729  -0.160  0.9318 -0.9899 -3.7145
  777MOL0     H 4855   5.264   3.840  -0.272  0.8726  0.3054  1.2131
  777MOL0     H 4856   5.016   3.895  -0.468  0.1840 -0.0011  1.2271
  777MOL0     H 4857   5.070   3.720  -0.504  5.1113 -1.9144 -0.5386
  777MOL0     H 4858   5.063   3.784  -0.341  0.1322  1.7170  0.4787
  777MOL0     H 4859   5.231   4.101  -0.994  0.2590 -0.3390  2.0144
  777MOL0     H 4860   5.094   4.132  -1.193  5.1319 -0.5514 -1.5954
  777MOL0     H 4861   4.981   4.115  -1.386 -0.9143  0.8709 -4.4801
  777MOL0     H 4862   4.889   3.998  -1.478  1.7330  0.4998 -1.7454
  777MOL0     H 4863   4.760   4.166  -1.249  0.9164  1.1685 -0.2181
  777MOL0     H 4864   4.762   4.226  -1.404 -1.3540  2.7950  4.4065
  777MOL0     H 4865   4.560   4.080  -1.315  1.9216 -0.5276  2.5254
  777MOL0     H 4866   4.655   3.945  -1.343 -0.7187  0.0667 -0.0093
  777MOL0     H 4867   4.573   4.162  -1.553  2.3500  0.1900 -1.9072
  777MOL0     H 4868   4.665   4.011  -1.592  0.3599 -0.5809  1.0463
  777MOL0     H 4869   4.389   4.002  -1.454 -0.4750  0.5804  0.1169
  777MOL0     H 4870   4.469   3.882  -1.555 -1.7090 -0.2786  0.4236
  777MOL0     H 4871   4.355   4.138  -1.658  0.7359 -0.9656  1.1432
  777MOL0     H 4872   4.402   3.997  -1.763 -0.1938  2.3486 -1.3598
  777MOL0     H 4873   4.166   4.021  -1.588  0.1485 -1.7352  1.5497
  777MOL0     H 4874   4.241   3.866  -1.630 -0.6970 -0.7666 -0.3787
  777MOL0     H 4875   4.057   3.925  -1.802 -0.5859  1.5819  1.8077
  777MOL0     H 4876   4.206   3.930  -1.882 -0.1271  0.7706 -0.1937
  777MOL0     H 4877   4.935   3.731  -1.135 -0.5693 -0.5788  1.4825
  777MOL0     H 4878   5.103   3.695  -0.970 -3.5508  0.4783  2.0847
  777MOL0     H 4879   5.457   3.947  -0.706 -0.3689 -2.1070  0.1849
  777MOL0     H 4880   5.596   3.937  -0.522  0.5333 -0.5152 -0.2475
  777MOL0     H 4881   6.908   4.395   0.533  0.1444 -2.0367  1.5922
  777MOL0     H 4882   7.106   4.471   0.658  2.4379  0.4545 -0.5851
  777MOL0     H 4883   7.508   4.590   0.727 -0.9020  1.1915  1.8590
  777MOL0     H 4884   7.716   4.623   0.838 -0.1922 -0.2502 -0.6838
  777MOL0     H 4885   7.918   4.381   0.804 -2.2574  0.0697  0.0298
  777MOL0     H 4886   8.027   4.474   0.894 -3.9821  2.9210 -0.8059
  777MOL0     H 4887   7.944   4.170   0.957  1.6865 -0.1209  1.2024
  777MOL0     H 4888   8.033   4.269   1.064 -0.0166 -1.9891  0.4704
  777MOL0     H 4889   8.171   4.118   0.939 -2.4119 -1.4995 -1.2057
  777MOL0     H 4890   8.218   4.287   0.909  1.5449  0.1734  0.3947
  777MOL0     H 4891   8.113   4.260   0.682  0.6117 -2.5217 -3.7046
  777MOL0     H 4892   8.052   4.090   0.733  0.4633  0.6153  1.5272
  777MOL0     H 4893   8.464   4.040   0.641 -0.2417  0.3389  0.0130
  777MOL0     H 4894   7.700   4.243   1.029  1.0106  1.9186  0.4083
  777MOL0     H 4895   7.444   4.233   0.944  2.7653 -1.5880 -0.9982
  778MOL0     O 4896   9.946   4.528   6.836  0.3234 -0.0088 -0.2942
  778MOL0     C 4897   9.978   4.429   6.911 -1.0124  0.1844  0.3347
  778MOL0     O 4898  10.096   4.423   6.979  0.1066  0.6247  0.2203
  778MOL0     C 4899  10.176   4.530   6.991  0.1322  0.8772  0.7846
  778MOL0     C 4900  10.260   4.586   6.896  1.0550  0.2923 -0.0612
  778MOL0     C 4901  10.326   4.711   6.924  0.2933  0.9538 -0.4023
  778MOL0     C 4902  10.339   4.755   7.056  0.5928  0.5536  0.4823
  778MOL0     O 4903  10.423   4.856   7.083 -0.6795 -0.2892 -0.0674
  778MOL0     C 4904  10.497   4.927   6.980 -0.2957 -1.1086  0.3613
  778MOL0     C 4905  10.562   5.035   7.055  0.2938 -0.8375 -0.0258
  778MOL0     C 4906  10.623   5.147   6.969 -0.6270  0.2277 -0.5222
  778MOL0     C 4907  10.727   5.090   6.880 -0.6867 -0.0705 -0.3781
  778MOL0     C 4908  10.836   5.190   6.826  0.1222  0.0795  0.0444
  778MOL0     C 4909  10.777   5.327   6.783  0.3634  0.8312  0.6687
  778MOL0     C 4910  10.891   5.434   6.745 -0.3103 -0.3195  0.5417
  778MOL0     C 4911  10.838   5.577   6.747 -0.1287 -0.2444 -0.7641
  778MOL0     N 4912  10.734   5.608   6.649 -0.7343  0.5070 -0.3899
  778MOL0     C 4913  10.606   5.582   6.674 -0.4509  0.0516  0.1283
  778MOL0     C 4914  10.535   5.598   6.553  0.2027  0.4690 -0.2655
  778MOL0     C 4915  10.383   5.582   6.538 -0.0322  0.3941  0.6226
  778MOL0     C 4916  10.351   5.443   6.501  0.0406 -0.8840 -0.0533
  778MOL0     C 4917  10.210   5.443   6.444  0.1285  0.8359  1.0197
  778MOL0     C 4918  10.152   5.303   6.434  0.9775  0.2898  0.0004
  778MOL0     O 4919  10.171   5.225   6.553  0.1675 -0.1727 -0.3376
  778MOL0     C 4920  10.092   5.114   6.579  0.1059 -0.8364  0.8793
  778MOL0     C 4921  10.108   5.058   6.701  0.3041  0.1879 -0.6588
  778MOL0     C 4922  10.012   4.965   6.744 -0.7123  0.3622  0.1742
  778MOL0     C 4923  10.045   4.878   6.864 -0.4062  0.2295 -0.2741
  778MOL0     C 4924   9.904   4.928   6.658 -1.4556  0.6293  0.7547
  778MOL0     C 4925   9.791   4.833   6.703  0.4152  0.6613  0.3217
  778MOL0     O 4926   9.728   4.757   6.612  0.1672 -0.1328  0.5775
  778MOL0     C 4927   9.611   4.698   6.654  0.3185  0.8960  0.1477
  778MOL0     C 4928   9.599   4.587   6.740 -0.8984  0.1383 -0.1495
  778MOL0     C 4929   9.470   4.536   6.765  0.2397  0.4558 -0.1843
  778MOL0     C 4930   9.354   4.590   6.701 -1.0563 -0.2268 -0.3722
  778MOL0     O 4931   9.238   4.539   6.761 -0.4825  0.3422 -0.1799
  778MOL0     C 4932   9.121   4.616   6.778  0.4851  1.2228 -0.9397
  778MOL0     C 4933   9.005   4.534   6.822  0.0428 -0.3481 -0.8828
  778MOL0     C 4934   8.916   4.476   6.701 -0.0715 -0.3593  0.0688
  778MOL0     C 4935   8.761   4.510   6.701  0.7079  0.5835 -1.4121
  778MOL0     C 4936   8.736   4.639   6.633 -0.0694  0.6553 -0.4963
  778MOL0     C 4937   8.587   4.669   6.650 -0.4174  0.6818 -0.1227
  778MOL0     C 4938   8.494   4.573   6.573  0.0714 -0.1887 -0.1222
  778MOL0     C 4939   8.373   4.639   6.518 -0.7902 -0.2513  0.6059
  778MOL0    Cl 4940   8.272   4.690   6.655 -0.1980 -0.2297  0.2989
  778MOL0     C 4941   9.368   4.690   6.607  0.4497  0.9925 -0.2087
  778MOL0     C 4942   9.496   4.732   6.572  0.5067  0.7675 -0.5949
  778MOL0     O 4943   9.753   4.845   6.818  0.2149 -0.0066  0.9926
  778MOL0     C 4944   9.908   4.979   6.528 -0.7054 -0.0105  0.0641
  778MOL0     C 4945  10.005   5.066   6.491  0.1188  0.2774  0.6365
  778MOL0     N 4946  10.631   5.641   6.467  0.0070  0.2140  1.1867
  778MOL0     N 4947  10.749   5.649   6.521  0.3975  0.3129  0.2170
  778MOL0     C 4948  10.273   4.682   7.159  0.2341 -0.9232 -0.1348
  778MOL0     C 4949  10.191   4.573   7.119  0.2923  1.0322 -0.9994
  778MOL0     C 4950   9.891   4.310   6.924  0.5691  0.1829  0.1339
  778MOL0     C 4951   9.801   4.284   6.819 -0.1057 -0.8226 -0.2997
  778MOL0     C 4952   9.713   4.176   6.823 -0.1922 -0.4279 -0.6140
  778MOL0     C 4953   9.698   4.099   6.934 -0.5601  0.4902 -0.2768
  778MOL0     O 4954   9.589   4.013   6.936 -0.3369 -0.6178 -0.3626
  778MOL0     C 4955   9.556   3.927   7.049 -0.4858 -0.5169 -0.0968
  778MOL0     C 4956   9.420   3.860   7.055  0.8794 -0.1599  1.1888
  778MOL0     C 4957   9.392   3.776   6.923  0.0180 -0.5582 -1.0561
  778MOL0     C 4958   9.253   3.725   6.904  0.1057  0.1519  0.1196
  778MOL0     C 4959   9.224   3.607   6.975  0.7037 -0.1066 -0.1489
  778MOL0     C 4960   9.208   3.510   7.045 -0.3544 -0.5293  0.2032
  778MOL0     C 4961   9.785   4.130   7.040 -0.5742 -0.1040 -0.8942
  778MOL0     C 4962   9.877   4.229   7.037 -1.3942 -0.1413 -0.6342
  778MOL0     H 4963  10.270   4.550   6.794 -1.4878 -0.2711 -0.1751
  778MOL0     H 4964  10.372   4.767   6.843 -1.5962 -3.7440 -5.2940
  778MOL0     H 4965  10.576   4.869   6.931  0.0278 -0.3581 -0.0266
  778MOL0     H 4966  10.432   4.973   6.905 -3.4858 -0.7930  3.0409
  778MOL0     H 4967  10.490   5.085   7.121  1.0901 -0.2531  0.4369
  778MOL0     H 4968  10.633   4.990   7.125  1.4828  1.2902  0.2434
  778MOL0     H 4969  10.546   5.192   6.907 -2.3649 -1.3322  0.4232
  778MOL0     H 4970  10.668   5.219   7.038 -0.1359 -0.2720 -0.3040
  778MOL0     H 4971  10.784   5.006   6.922  1.0502  0.9566 -0.5800
  778MOL0     H 4972  10.672   5.062   6.790  1.3544 -1.3536 -1.2981
  778MOL0     H 4973  10.921   5.194   6.895  3.2061  0.3540 -3.4665
  778MOL0     H 4974  10.877   5.151   6.733 -1.0199  3.1599 -1.8947
  778MOL0     H 4975  10.706   5.307   6.702  0.1708  2.1506  0.4958
  778MOL0     H 4976  10.722   5.378   6.863  0.0207  3.4176 -1.1023
  778MOL0     H 4977  10.982   5.431   6.806  0.5253  2.4733 -0.3654
  778MOL0     H 4978  10.943   5.433   6.649 -2.8378 -1.8014 -0.8953
  778MOL0     H 4979  10.921   5.648   6.745  1.7100 -2.2771 -0.8667
  778MOL0     H 4980  10.800   5.604   6.846  2.6988 -2.7559  1.2057
  778MOL0     H 4981  10.563   5.570   6.773  1.6247 -0.3919  1.0226
  778MOL0     H 4982  10.321   5.596   6.627  0.9042  2.1210  1.0346
  778MOL0     H 4983  10.344   5.647   6.459  1.6214 -1.8790 -2.3023
  778MOL0     H 4984  10.364   5.377   6.588  4.3180  0.2320  0.3382
  778MOL0     H 4985  10.420   5.401   6.428 -0.9954 -1.9563 -0.4607
  778MOL0     H 4986  10.217   5.491   6.346 -2.0253  3.4720  2.0229
  778MOL0     H 4987  10.142   5.510   6.497 -0.4065  0.9979  0.1545
  778MOL0     H 4988  10.209   5.256   6.354 -2.0638 -0.5562 -1.8337
  778MOL0     H 4989  10.049   5.309   6.399  1.7401 -0.3982 -2.6046
  778MOL0     H 4990  10.195   5.088   6.758 -0.7855  1.5447  0.3825
  778MOL0     H 4991  10.028   4.773   6.837  2.9649 -0.2370 -1.0147
  778MOL0     H 4992  10.143   4.888   6.913 -0.8815  0.8789  0.5693
  778MOL0     H 4993   9.980   4.922   6.939  0.8234  3.0276 -0.7150
  778MOL0     H 4994   9.686   4.545   6.789 -2.6368  0.0632  3.1671
  778MOL0     H 4995   9.455   4.454   6.834 -0.3515 -0.0784 -0.9280
  778MOL0     H 4996   9.156   4.692   6.850  1.6926 -0.9209  0.8673
  778MOL0     H 4997   9.091   4.666   6.686 -0.6636 -1.7424 -2.2749
  778MOL0     H 4998   9.054   4.453   6.878 -0.9380  0.6825  1.6123
  778MOL0     H 4999   8.955   4.609   6.883  0.4671 -0.0642 -0.8767
  778MOL0     H 5000   8.931   4.369   6.691  0.5789 -0.3757  1.1138
  778MOL0     H 5001   8.958   4.518   6.609  1.9442  0.6346  1.3775
  778MOL0     H 5002   8.706   4.424   6.664  0.7774 -0.3470  0.5103
  778MOL0     H 5003   8.725   4.522   6.804  3.1570 -0.7058 -0.3079
  778MOL0     H 5004   8.758   4.632   6.526  1.9352  0.7538 -0.1330
  778MOL0     H 5005   8.798   4.718   6.675  1.6084  0.0106 -1.6359
  778MOL0     H 5006   8.567   4.678   6.757  2.7563  1.0976  0.5331
  778MOL0     H 5007   8.587   4.774   6.619  0.8145  0.9692  0.7670
  778MOL0     H 5008   8.454   4.498   6.642  0.4452  0.8339  1.2487
  778MOL0     H 5009   8.549   4.522   6.494 -0.6875 -0.4386 -0.5052
  778MOL0     H 5010   8.313   4.570   6.457 -0.7039  1.3155 -1.3317
  778MOL0     H 5011   8.408   4.725   6.461 -2.8064  2.0570  2.6331
  778MOL0     H 5012   9.278   4.740   6.572  0.3330 -0.2779 -1.8765
  778MOL0     H 5013   9.520   4.797   6.488 -0.0215 -1.7169 -2.7642
  778MOL0     H 5014   9.825   4.967   6.460  0.2656  1.4129 -1.4479
  778MOL0     H 5015  10.009   5.086   6.384 -2.2445  1.8960  0.7902
  778MOL0     H 5016  10.282   4.734   7.254 -3.0899  4.5670 -2.3264
  778MOL0     H 5017  10.140   4.522   7.201  2.3078  2.7947  1.5177
  778MOL0     H 5018   9.806   4.340   6.726  0.2899 -0.3447  0.0066
  778MOL0     H 5019   9.646   4.148   6.742  0.0648  0.6936 -1.2390
  778MOL0     H 5020   9.634   3.851   7.060 -1.8742 -2.0155 -0.1825
  778MOL0     H 5021   9.548   3.994   7.134 -2.6130  1.3270 -1.6258
  778MOL0     H 5022   9.335   3.929   7.060 -1.2164 -2.0895 -2.9454
  778MOL0     H 5023   9.423   3.781   7.130 -0.0548  0.3269  1.7519
  778MOL0     H 5024   9.459   3.690   6.927 -0.0425 -0.5569  1.3873
  778MOL0     H 5025   9.421   3.849   6.847  3.2175 -0.6662 -0.0697
  778MOL0     H 5026   9.245   3.691   6.800  0.3617 -0.2795  0.2373
  778MOL0     H 5027   9.183   3.809   6.907 -2.6462 -1.7275 -3.3409
  778MOL0     H 5028   9.192   3.422   7.103  1.3005 -0.6018  0.5796
  778MOL0     H 5029   9.791   4.050   7.112  2.9285 -1.4837 -2.4799
  778MOL0     H 5030   9.947   4.239   7.119 -1.9218  0.8196 -0.2802
  779MOL0     O 5031   5.908   7.644   8.894  0.4803 -0.7161 -0.2315
  779MOL0     C 5032   5.789   7.628   8.927 -1.2010 -0.8465 -0.0289
  779MOL0     O 5033   5.729   7.663   9.051  0.1292  0.4480 -0.0345
  779MOL0     C 5034   5.804   7.671   9.163  0.1301  0.2068 -0.3186
  779MOL0     C 5035   5.946   7.663   9.174  0.1580 -0.0094 -0.3670
  779MOL0     C 5036   6.004   7.700   9.299 -0.1459  0.5735 -1.0252
  779MOL0     C 5037   5.938   7.748   9.411 -0.4082  0.1621 -1.0706
  779MOL0     O 5038   6.001   7.776   9.527  0.2001 -0.1128 -0.2227
  779MOL0     C 5039   6.130   7.733   9.552 -0.6582 -0.4822 -0.3138
  779MOL0     C 5040   6.194   7.799   9.677 -1.2248 -0.5396  0.2191
  779MOL0     C 5041   6.334   7.745   9.700 -0.4491 -0.3575  0.2675
  779MOL0     C 5042   6.410   7.808   9.832  0.2563 -0.1957  0.8075
  779MOL0     C 5043   6.561   7.818   9.822  0.0426 -0.1013 -0.2430
  779MOL0     C 5044   6.647   7.693   9.832 -0.7987 -0.1537  0.3371
  779MOL0     C 5045   6.632   7.582   9.728 -1.4951 -0.0214  1.3201
  779MOL0     C 5046   6.692   7.595   9.586  0.5336  0.8353  0.7081
  779MOL0     N 5047   6.655   7.480   9.509  0.1815 -0.4893 -0.4741
  779MOL0     C 5048   6.535   7.464   9.444  0.1405  0.3061  0.7886
  779MOL0     C 5049   6.562   7.357   9.357  0.0648 -0.3977  0.0265
  779MOL0     C 5050   6.460   7.301   9.263 -0.2917  0.4101 -0.2041
  779MOL0     C 5051   6.444   7.156   9.272 -0.3340 -0.0979 -0.4310
  779MOL0     C 5052   6.548   7.070   9.192  0.0663 -0.0953  0.1720
  779MOL0     C 5053   6.593   7.121   9.063 -0.8222 -0.2892 -0.1458
  779MOL0     O 5054   6.483   7.146   8.977  0.1445 -0.1957  0.1485
  779MOL0     C 5055   6.515   7.201   8.848 -0.3056  0.6522 -0.3380
  779MOL0     C 5056   6.412   7.195   8.747  0.7878 -0.2695  0.4675
  779MOL0     C 5057   6.429   7.268   8.627  0.3480  1.3693 -0.5154
  779MOL0     C 5058   6.324   7.244   8.516  0.0473  1.0335 -0.1784
  779MOL0     C 5059   6.525   7.366   8.604  0.7977  0.3928  0.5210
  779MOL0     C 5060   6.545   7.449   8.486  0.4515  0.4811 -0.2696
  779MOL0     O 5061   6.656   7.528   8.482 -1.0326 -0.0449  0.0797
  779MOL0     C 5062   6.662   7.614   8.375 -0.9476  1.2154  0.2831
  779MOL0     C 5063   6.687   7.560   8.246  0.1192 -0.7511 -0.7899
  779MOL0     C 5064   6.711   7.644   8.136  0.6536 -0.1805  0.2905
  779MOL0     C 5065   6.702   7.788   8.165  0.8781 -0.4383 -0.2085
  779MOL0     O 5066   6.748   7.876   8.069 -0.1675 -0.5018  0.8110
  779MOL0     C 5067   6.713   7.851   7.933 -0.0615  0.1670  0.5664
  779MOL0     C 5068   6.777   7.962   7.853 -0.3938 -0.5898  0.6819
  779MOL0     C 5069   6.767   8.108   7.908 -0.0821 -1.4575  0.7350
  779MOL0     C 5070   6.827   8.209   7.803 -0.1877 -0.6458  0.9157
  779MOL0     C 5071   6.725   8.304   7.735  0.2971 -0.0311 -0.6338
  779MOL0     C 5072   6.775   8.428   7.665 -0.2845  0.3066  0.4437
  779MOL0     C 5073   6.769   8.551   7.760  0.3125 -0.1691  0.6287
  779MOL0     C 5074   6.889   8.633   7.744 -0.5643 -0.5338  0.7088
  779MOL0    Cl 5075   6.914   8.714   7.580  0.1023  0.0010 -0.4167
  779MOL0     C 5076   6.673   7.834   8.294  0.2390 -0.1547  0.0386
  779MOL0     C 5077   6.645   7.746   8.400  0.7094 -0.2412 -0.1108
  779MOL0     O 5078   6.479   7.417   8.393 -0.7084  0.6726  0.1085
  779MOL0     C 5079   6.621   7.372   8.703 -0.8518 -0.7744  0.1783
  779MOL0     C 5080   6.622   7.289   8.818  0.3659 -0.1557 -0.8132
  779MOL0     N 5081   6.688   7.315   9.382  0.3968  0.0265  0.4775
  779MOL0     N 5082   6.746   7.382   9.476 -0.0406 -0.6944 -0.1225
  779MOL0     C 5083   5.800   7.763   9.401 -0.1650  0.7098  0.7463
  779MOL0     C 5084   5.736   7.723   9.280 -0.1463  0.3964 -0.1661
  779MOL0     C 5085   5.696   7.564   8.837  0.5140 -0.2258 -0.8519
  779MOL0     C 5086   5.705   7.580   8.700  0.3284  0.5083  0.7768
  779MOL0     C 5087   5.626   7.496   8.611  0.0160 -1.1957 -0.2053
  779MOL0     C 5088   5.535   7.414   8.656 -1.1892  0.3031 -0.1443
  779MOL0     O 5089   5.448   7.335   8.587  0.2663 -0.2558 -0.3386
  779MOL0     C 5090   5.389   7.392   8.470  0.5746 -0.5465  0.6161
  779MOL0     C 5091   5.351   7.275   8.381 -0.8416  0.6871 -0.0431
  779MOL0     C 5092   5.461   7.160   8.364  0.7535  0.2727 -0.1098
  779MOL0     C 5093   5.405   7.055   8.265  0.4274  0.1452 -0.1434
  779MOL0     C 5094   5.479   6.932   8.273 -0.8323 -0.0052 -0.6253
  779MOL0     C 5095   5.553   6.843   8.258  0.1603 -0.3923 -0.4303
  779MOL0     C 5096   5.522   7.414   8.798  0.1226  0.8055  1.3858
  779MOL0     C 5097   5.597   7.483   8.887 -0.7565  0.1991  0.5375
  779MOL0     H 5098   6.018   7.638   9.097 -0.0990 -1.1189 -0.2692
  779MOL0     H 5099   6.112   7.688   9.302  0.0006  0.7678 -3.3367
  779MOL0     H 5100   6.127   7.623   9.551 -0.3806 -0.5308  1.4125
  779MOL0     H 5101   6.190   7.765   9.466  0.4959  0.5824  0.8563
  779MOL0     H 5102   6.211   7.906   9.659  2.0499 -0.1245  4.3699
  779MOL0     H 5103   6.136   7.790   9.769  2.3343 -1.5752  2.5616
  779MOL0     H 5104   6.340   7.636   9.696 -1.5685 -0.3968 -0.8829
  779MOL0     H 5105   6.389   7.785   9.614 -1.2680  0.9435  0.3138
  779MOL0     H 5106   6.375   7.910   9.851 -1.2909 -0.6994  0.8101
  779MOL0     H 5107   6.374   7.745   9.913 -1.6276  0.9679  0.9353
  779MOL0     H 5108   6.588   7.866   9.728  2.6860  3.6984  2.1494
  779MOL0     H 5109   6.588   7.889   9.901 -4.1504 -0.5844  1.9210
  779MOL0     H 5110   6.754   7.718   9.836  0.2968 -3.9023 -0.8971
  779MOL0     H 5111   6.625   7.645   9.927  0.6133 -1.1785  0.1906
  779MOL0     H 5112   6.695   7.500   9.764 -2.5215 -0.3591  2.4241
  779MOL0     H 5113   6.527   7.551   9.738 -1.9890  1.2207  0.2064
  779MOL0     H 5114   6.801   7.589   9.599  0.5650  1.7042  0.9723
  779MOL0     H 5115   6.649   7.685   9.541  1.0428  0.1173 -1.3147
  779MOL0     H 5116   6.444   7.520   9.462  0.7637  1.3177  0.9125
  779MOL0     H 5117   6.364   7.343   9.291  1.3486  2.5707  2.7121
  779MOL0     H 5118   6.480   7.341   9.163  1.5242 -0.7514 -0.3551
  779MOL0     H 5119   6.340   7.132   9.246 -0.1294  1.0992 -2.6081
  779MOL0     H 5120   6.459   7.128   9.377  0.2572  0.8152 -0.2606
  779MOL0     H 5121   6.507   6.972   9.168 -1.2239 -0.6430  3.8760
  779MOL0     H 5122   6.641   7.054   9.247 -1.1709  2.2622  3.2722
  779MOL0     H 5123   6.665   7.052   9.019 -0.3464  0.0783  0.0418
  779MOL0     H 5124   6.649   7.212   9.087  2.7423 -2.8692  2.4078
  779MOL0     H 5125   6.327   7.128   8.755 -0.8385  1.6868  0.4577
  779MOL0     H 5126   6.263   7.334   8.502  2.0397  2.2988 -1.2341
  779MOL0     H 5127   6.371   7.221   8.420  0.2028 -1.3633  0.4075
  779MOL0     H 5128   6.251   7.169   8.547 -0.2533  1.2174 -0.4355
  779MOL0     H 5129   6.677   7.453   8.236 -2.0352 -0.5796 -1.0826
  779MOL0     H 5130   6.747   7.597   8.045  0.7574 -2.1749  1.3189
  779MOL0     H 5131   6.746   7.754   7.896 -0.0192  0.6091 -0.6066
  779MOL0     H 5132   6.605   7.860   7.915 -0.3997  3.5101  3.1424
  779MOL0     H 5133   6.886   7.948   7.853  0.2090  3.0826  1.8771
  779MOL0     H 5134   6.750   7.959   7.747  0.9529 -1.2234  0.3340
  779MOL0     H 5135   6.803   8.123   8.010  0.7179 -0.0132  0.2721
  779MOL0     H 5136   6.661   8.135   7.915  0.6211  1.5256  1.5646
  779MOL0     H 5137   6.916   8.263   7.837 -1.0548  2.0687 -0.7638
  779MOL0     H 5138   6.864   8.144   7.723  0.6446  0.0117  0.7585
  779MOL0     H 5139   6.657   8.344   7.810 -1.0577  1.3184 -2.4768
  779MOL0     H 5140   6.663   8.244   7.667  0.9574 -3.3939  1.4973
  779MOL0     H 5141   6.873   8.410   7.620  1.2314  1.5243  2.9708
  779MOL0     H 5142   6.700   8.438   7.587  1.1936 -3.1273 -1.6269
  779MOL0     H 5143   6.770   8.533   7.868 -1.4168  0.1841  0.7330
  779MOL0     H 5144   6.681   8.612   7.738  0.7168  0.2832  0.2530
  779MOL0     H 5145   6.969   8.561   7.762 -0.3538 -1.0367 -1.8431
  779MOL0     H 5146   6.899   8.711   7.821  2.5061  0.8401 -0.8956
  779MOL0     H 5147   6.656   7.941   8.307 -1.8716 -0.3155 -0.9350
  779MOL0     H 5148   6.608   7.792   8.491 -0.0940 -1.7077  0.3312
  779MOL0     H 5149   6.707   7.438   8.693 -0.5479 -0.9873  1.2751
  779MOL0     H 5150   6.706   7.305   8.885  0.2726  3.1016 -1.3110
  779MOL0     H 5151   5.738   7.801   9.481  1.8284 -0.0277  2.7455
  779MOL0     H 5152   5.628   7.736   9.285 -0.2335  0.1695 -1.1367
  779MOL0     H 5153   5.789   7.639   8.663 -0.5449  0.0625 -2.0959
  779MOL0     H 5154   5.669   7.496   8.511  3.5029 -3.0573  1.1177
  779MOL0     H 5155   5.300   7.451   8.498  1.0539  0.6818 -0.3512
  779MOL0     H 5156   5.454   7.455   8.409 -0.9861 -1.0427 -1.6872
  779MOL0     H 5157   5.322   7.317   8.285  1.7714  0.6792 -0.9164
  779MOL0     H 5158   5.261   7.228   8.420 -0.6455  0.7293  0.4755
  779MOL0     H 5159   5.469   7.108   8.460 -1.4133 -1.1104 -0.6109
  779MOL0     H 5160   5.557   7.210   8.345  0.0431  0.8217 -2.6552
  779MOL0     H 5161   5.410   7.096   8.164  1.8386  1.1814  0.3117
  779MOL0     H 5162   5.308   7.022   8.303  1.0237  0.8071  2.0732
  779MOL0     H 5163   5.627   6.771   8.228  2.8778  2.1739 -0.3877
  779MOL0     H 5164   5.445   7.345   8.831 -0.2906 -0.7795 -2.3539
  779MOL0     H 5165   5.581   7.471   8.994 -1.2275 -1.2043  0.3387
  780MOL0     O 5166   9.018   6.784   6.502  0.1155 -0.0125  0.8660
  780MOL0     C 5167   9.031   6.781   6.383 -0.6712 -0.8399  0.1251
  780MOL0     O 5168   8.967   6.853   6.293  0.3403 -0.3195  0.8509
  780MOL0     C 5169   8.892   6.962   6.327  0.5424 -0.1193  0.9134
  780MOL0     C 5170   8.869   7.030   6.451 -0.0163 -0.0345 -0.0242
  780MOL0     C 5171   8.804   7.156   6.460  0.1439  0.3199 -0.6923
  780MOL0     C 5172   8.759   7.212   6.345  0.0431  1.1414 -0.5493
  780MOL0     O 5173   8.698   7.335   6.344  0.4700  0.2298 -0.4773
  780MOL0     C 5174   8.751   7.445   6.416 -0.9591  1.4123  0.1111
  780MOL0     C 5175   8.721   7.578   6.343 -0.1254 -0.9282 -0.0864
  780MOL0     C 5176   8.571   7.605   6.328  0.6932  0.2501  0.0491
  780MOL0     C 5177   8.524   7.557   6.201 -0.4116  0.0504  0.1560
  780MOL0     C 5178   8.374   7.561   6.203  0.3029  0.5303  0.2900
  780MOL0     C 5179   8.323   7.552   6.052 -0.1286 -0.2904  0.2673
  780MOL0     C 5180   8.337   7.684   5.979  0.5484 -1.0461 -0.3511
  780MOL0     C 5181   8.282   7.664   5.834 -0.4263  0.0259  0.2803
  780MOL0     N 5182   8.323   7.771   5.748  0.2526 -0.5457 -0.0059
  780MOL0     C 5183   8.267   7.900   5.746  0.3371 -0.4379  0.3976
  780MOL0     C 5184   8.361   7.974   5.685  0.0851 -1.2124  0.2806
  780MOL0     C 5185   8.346   8.120   5.640 -0.0917  0.3958  0.0825
  780MOL0     C 5186   8.391   8.208   5.766 -0.4173  0.0957 -0.2477
  780MOL0     C 5187   8.388   8.365   5.719 -0.7446 -0.0771 -0.5674
  780MOL0     C 5188   8.445   8.444   5.838  0.1854  0.8704  0.1900
  780MOL0     O 5189   8.431   8.587   5.833 -0.3615  0.1586  0.8226
  780MOL0     C 5190   8.495   8.664   5.738 -1.0205  1.2622  0.1955
  780MOL0     C 5191   8.606   8.613   5.657 -0.0847 -0.1124 -0.7070
  780MOL0     C 5192   8.672   8.696   5.569 -0.2431 -0.5159  1.4472
  780MOL0     C 5193   8.785   8.632   5.485  0.9946 -0.2896 -0.3280
  780MOL0     C 5194   8.634   8.835   5.567  0.7702  0.4069 -0.2738
  780MOL0     C 5195   8.692   8.948   5.481 -0.2358  0.4712  1.0418
  780MOL0     O 5196   8.818   8.919   5.432  0.4019 -0.6922 -0.5588
  780MOL0     C 5197   8.869   9.013   5.340 -0.6552  0.3865 -0.1310
  780MOL0     C 5198   8.916   9.137   5.388 -0.0914  0.9584 -0.0607
  780MOL0     C 5199   8.968   9.226   5.297 -0.3643  0.3789 -0.6201
  780MOL0     C 5200   8.981   9.192   5.162 -0.6888 -1.2023 -0.4754
  780MOL0     O 5201   9.047   9.278   5.086 -0.9412  0.5084 -0.0407
  780MOL0     C 5202   9.091   9.262   4.949  0.5059 -0.2024  0.3027
  780MOL0     C 5203   9.153   9.396   4.898  0.4575  0.1274 -0.2545
  780MOL0     C 5204   9.048   9.507   4.917  0.0884 -1.0906 -0.6038
  780MOL0     C 5205   9.087   9.637   4.837  1.1449 -0.3287 -0.8191
  780MOL0     C 5206   8.985   9.755   4.878  1.3209 -0.3903 -0.3226
  780MOL0     C 5207   8.850   9.741   4.810  0.1011  0.3068  0.8220
  780MOL0     C 5208   8.751   9.855   4.802  0.1188 -0.2367 -0.1537
  780MOL0     C 5209   8.603   9.804   4.792 -1.6908 -1.0797  0.4506
  780MOL0    Cl 5210   8.561   9.708   4.942  0.7337  0.0624  0.2863
  780MOL0     C 5211   8.916   9.082   5.108 -0.3467 -0.0620 -0.3492
  780MOL0     C 5212   8.861   8.990   5.200  0.3001 -0.6427  0.2523
  780MOL0     O 5213   8.621   9.042   5.441 -0.2678 -0.2993  1.0915
  780MOL0     C 5214   8.542   8.883   5.661  0.4753  0.2294 -1.1847
  780MOL0     C 5215   8.471   8.794   5.745  0.5173  0.4905  0.4108
  780MOL0     N 5216   8.469   7.898   5.651  0.5330  0.5253  0.6210
  780MOL0     N 5217   8.447   7.777   5.683  0.3538  0.1298  0.3749
  780MOL0     C 5218   8.756   7.135   6.229  0.6983  0.4311  1.0905
  780MOL0     C 5219   8.834   7.021   6.220 -0.5012  1.1026  0.1839
  780MOL0     C 5220   9.133   6.686   6.335  0.6787  0.0359  0.0432
  780MOL0     C 5221   9.205   6.609   6.427  0.2675 -0.6631 -0.4266
  780MOL0     C 5222   9.320   6.548   6.381 -0.2345  0.0184  0.2353
  780MOL0     C 5223   9.364   6.549   6.247 -0.0842  0.7804  0.6591
  780MOL0     O 5224   9.469   6.475   6.191 -0.1793 -0.7144  0.5262
  780MOL0     C 5225   9.548   6.383   6.265 -0.8784 -0.2521  1.0336
  780MOL0     C 5226   9.682   6.346   6.203 -0.4041 -0.5216 -0.3430
  780MOL0     C 5227   9.667   6.222   6.115  0.9394 -0.2879 -0.2846
  780MOL0     C 5228   9.614   6.098   6.193  0.7246  0.2872 -0.4672
  780MOL0     C 5229   9.675   5.980   6.137 -0.7069  0.1311  0.7164
  780MOL0     C 5230   9.721   5.882   6.092  0.3500  0.0406 -0.1286
  780MOL0     C 5231   9.291   6.624   6.160 -0.5967  0.3649  0.6515
  780MOL0     C 5232   9.176   6.697   6.201  0.1024  0.5749 -0.6132
  780MOL0     H 5233   8.898   6.986   6.546  1.2679 -0.8421 -0.7602
  780MOL0     H 5234   8.791   7.215   6.551 -1.9034 -1.9009  0.5636
  780MOL0     H 5235   8.730   7.437   6.523  1.9551 -1.6574  0.5952
  780MOL0     H 5236   8.859   7.436   6.404 -1.1918  0.1248 -1.2622
  780MOL0     H 5237   8.768   7.666   6.386  0.4002 -1.4997  0.5300
  780MOL0     H 5238   8.764   7.584   6.242 -0.5266  0.8886 -0.1730
  780MOL0     H 5239   8.514   7.573   6.416  0.6877  2.2493  0.8324
  780MOL0     H 5240   8.549   7.712   6.333 -2.6084 -0.2660 -1.0053
  780MOL0     H 5241   8.565   7.622   6.123 -0.3799  0.7870  0.7747
  780MOL0     H 5242   8.547   7.452   6.184  0.0626  0.2090 -0.2044
  780MOL0     H 5243   8.343   7.479   6.268  0.7147  2.1632  2.6712
  780MOL0     H 5244   8.343   7.654   6.251 -1.4808  0.4721 -0.6378
  780MOL0     H 5245   8.386   7.478   6.001  4.1229  2.3945  1.1278
  780MOL0     H 5246   8.217   7.522   6.053 -0.8212  1.9402  0.9919
  780MOL0     H 5247   8.282   7.768   6.021 -0.1980 -2.2190  1.1022
  780MOL0     H 5248   8.439   7.722   5.976 -0.8409  3.6687  2.6009
  780MOL0     H 5249   8.173   7.658   5.837 -0.4122  0.0963  2.5343
  780MOL0     H 5250   8.330   7.577   5.790 -1.1256  0.3233 -1.1175
  780MOL0     H 5251   8.177   7.931   5.798 -0.0267 -2.3984  1.0294
  780MOL0     H 5252   8.419   8.140   5.561 -0.5734 -1.9179 -1.0394
  780MOL0     H 5253   8.242   8.135   5.607 -0.7570  0.3132  2.0141
  780MOL0     H 5254   8.489   8.174   5.800  1.4777  2.9422 -2.3482
  780MOL0     H 5255   8.317   8.198   5.846  0.8706 -0.2815  0.9199
  780MOL0     H 5256   8.288   8.398   5.691 -0.2287 -1.3574 -4.4925
  780MOL0     H 5257   8.462   8.372   5.639  2.0058 -1.5366  1.6368
  780MOL0     H 5258   8.541   8.406   5.875 -1.0610 -2.8599 -0.0182
  780MOL0     H 5259   8.385   8.400   5.918 -0.2093  0.2455 -0.4434
  780MOL0     H 5260   8.647   8.513   5.659  0.2557 -0.0234 -2.1150
  780MOL0     H 5261   8.732   8.541   5.455  1.5444 -0.7228 -0.0045
  780MOL0     H 5262   8.812   8.685   5.393 -1.8607  0.2438 -0.9431
  780MOL0     H 5263   8.877   8.616   5.541  0.9517 -1.4634 -0.5545
  780MOL0     H 5264   8.927   9.153   5.495 -1.8966 -3.6144  1.0344
  780MOL0     H 5265   9.011   9.318   5.334 -0.9793  0.4033  0.0436
  780MOL0     H 5266   9.168   9.185   4.939 -0.0979 -0.8920  0.8228
  780MOL0     H 5267   8.998   9.238   4.896 -0.2196 -3.8844  2.8512
  780MOL0     H 5268   9.243   9.427   4.951  0.2584  4.3988 -2.0656
  780MOL0     H 5269   9.178   9.390   4.792 -4.3166  1.9201 -1.7316
  780MOL0     H 5270   9.043   9.551   5.017 -0.1640  1.1418 -1.5369
  780MOL0     H 5271   8.951   9.472   4.883  0.7032 -2.7699 -0.7334
  780MOL0     H 5272   9.193   9.665   4.845  0.7772  1.4467 -1.6508
  780MOL0     H 5273   9.073   9.617   4.730  0.9464 -2.5843 -0.4287
  780MOL0     H 5274   9.023   9.851   4.842 -0.2220  0.4336  0.1674
  780MOL0     H 5275   8.981   9.753   4.987  2.3511 -0.7306 -0.2743
  780MOL0     H 5276   8.877   9.710   4.709 -0.6082 -0.3585  0.8265
  780MOL0     H 5277   8.792   9.661   4.856 -1.0786 -0.3187 -1.6107
  780MOL0     H 5278   8.781   9.921   4.719  1.2534  0.4779  0.7839
  780MOL0     H 5279   8.756   9.919   4.890  0.7890 -0.4934  0.0032
  780MOL0     H 5280   8.588   9.747   4.700 -0.5031  0.5606 -0.8293
  780MOL0     H 5281   8.530   9.884   4.783 -2.1823 -1.5466  0.2622
  780MOL0     H 5282   8.923   9.063   5.001 -0.8121 -2.7431  0.0363
  780MOL0     H 5283   8.824   8.893   5.168 -0.4552 -0.5519  0.8259
  780MOL0     H 5284   8.529   8.988   5.685  0.0230 -0.3224  1.1930
  780MOL0     H 5285   8.402   8.820   5.825 -1.3407 -1.0908 -0.6122
  780MOL0     H 5286   8.722   7.175   6.133  2.4063 -1.6012 -0.4583
  780MOL0     H 5287   8.852   6.972   6.125 -0.9931  1.7569 -0.2539
  780MOL0     H 5288   9.174   6.602   6.530 -1.8004  4.5960 -0.3474
  780MOL0     H 5289   9.367   6.485   6.456 -1.3998  1.4138  2.2176
  780MOL0     H 5290   9.582   6.438   6.353  2.3465 -0.0534 -0.2014
  780MOL0     H 5291   9.485   6.298   6.294  2.3003 -2.9935  0.5157
  780MOL0     H 5292   9.760   6.326   6.277  0.1166 -0.1281 -0.7732
  780MOL0     H 5293   9.720   6.434   6.152  3.7183 -0.3015  2.5619
  780MOL0     H 5294   9.763   6.198   6.068  1.0474 -2.5066  0.9438
  780MOL0     H 5295   9.595   6.239   6.035 -0.4337  0.2043  1.0181
  780MOL0     H 5296   9.506   6.081   6.198  1.1108 -2.1307  1.9771
  780MOL0     H 5297   9.650   6.103   6.296 -0.0598 -1.9997 -0.0272
  780MOL0     H 5298   9.771   5.792   6.063  1.6569  0.3582  0.9798
  780MOL0     H 5299   9.327   6.640   6.059  2.9089  3.1583  2.1401
  780MOL0     H 5300   9.131   6.771   6.135 -2.1523  0.3513  0.5670
  781MOL0     O 5301   7.524   8.456   6.557  0.7203  0.2578  0.3739
  781MOL0     C 5302   7.484   8.335   6.563 -0.0973  0.9061 -1.1698
  781MOL0     O 5303   7.357   8.288   6.527 -0.3345  0.1429 -0.0145
  781MOL0     C 5304   7.263   8.382   6.489 -1.0066 -0.2419 -1.3441
  781MOL0     C 5305   7.257   8.433   6.360 -0.3100  0.7040  0.5008
  781MOL0     C 5306   7.154   8.518   6.321 -0.0553  0.0066 -0.3409
  781MOL0     C 5307   7.059   8.561   6.418 -0.0874 -0.0821  0.4778
  781MOL0     O 5308   6.951   8.634   6.381  0.2204 -0.6503 -1.3582
  781MOL0     C 5309   6.971   8.722   6.262  0.1822 -0.7276 -0.2239
  781MOL0     C 5310   6.872   8.834   6.246  0.8514 -0.0768  0.0117
  781MOL0     C 5311   6.741   8.782   6.177 -0.4539 -0.5649 -0.5758
  781MOL0     C 5312   6.635   8.892   6.172 -0.7140  0.1298 -0.3395
  781MOL0     C 5313   6.502   8.858   6.104  0.2981  0.3536  0.7477
  781MOL0     C 5314   6.518   8.768   5.973 -0.7869  0.4055 -0.6081
  781MOL0     C 5315   6.383   8.734   5.904 -0.4379  0.7219  0.0664
  781MOL0     C 5316   6.319   8.591   5.933 -0.6065 -0.0774  0.4077
  781MOL0     N 5317   6.324   8.551   6.078  0.4667 -0.0097 -0.1961
  781MOL0     C 5318   6.289   8.625   6.187  0.0496 -0.2753 -0.1042
  781MOL0     C 5319   6.347   8.565   6.300  0.1610  0.4191  0.0475
  781MOL0     C 5320   6.319   8.584   6.440  0.0142  0.0469 -1.1240
  781MOL0     C 5321   6.421   8.680   6.493 -1.1154 -0.9688 -1.0769
  781MOL0     C 5322   6.553   8.601   6.526 -0.4222  0.3552 -0.7762
  781MOL0     C 5323   6.669   8.686   6.576  0.4633 -0.2097 -0.8827
  781MOL0     O 5324   6.638   8.722   6.717 -0.5162 -0.6275 -0.0611
  781MOL0     C 5325   6.737   8.783   6.789 -0.0572 -0.1039  0.5080
  781MOL0     C 5326   6.706   8.808   6.923 -0.1225  0.3303  0.9166
  781MOL0     C 5327   6.790   8.862   7.019  0.7174  0.2042 -0.5697
  781MOL0     C 5328   6.728   8.879   7.163 -0.1273 -0.1630  0.1062
  781MOL0     C 5329   6.920   8.906   6.976 -0.2657 -0.0057 -0.2826
  781MOL0     C 5330   7.010   8.980   7.062 -0.3964 -0.2693 -0.1929
  781MOL0     O 5331   6.975   8.990   7.191 -0.4106 -0.3665  0.3039
  781MOL0     C 5332   7.069   9.006   7.289 -0.5945  0.1944 -0.2826
  781MOL0     C 5333   7.121   9.128   7.316  0.6160 -1.5185  0.2147
  781MOL0     C 5334   7.228   9.146   7.407  0.6393 -0.9474  0.0120
  781MOL0     C 5335   7.285   9.034   7.475 -0.0796 -0.6094 -0.7183
  781MOL0     O 5336   7.401   9.061   7.552  0.3031 -0.3068  0.3134
  781MOL0     C 5337   7.443   8.975   7.656 -0.0895 -0.3594  0.1629
  781MOL0     C 5338   7.589   8.984   7.673 -0.0988  0.6581 -0.0024
  781MOL0     C 5339   7.660   8.908   7.567  0.7371 -0.1663 -0.3765
  781MOL0     C 5340   7.810   8.898   7.580 -0.5572  0.1509  0.1854
  781MOL0     C 5341   7.888   8.838   7.463 -0.2580  0.3099 -0.0123
  781MOL0     C 5342   8.040   8.811   7.499  0.2705  0.2115 -0.5386
  781MOL0     C 5343   8.114   8.933   7.564 -0.7947  0.6510  0.2243
  781MOL0     C 5344   8.262   8.913   7.589  0.6588 -0.7145  0.5605
  781MOL0    Cl 5345   8.298   8.795   7.712 -0.2981  0.3952 -0.1845
  781MOL0     C 5346   7.212   8.907   7.462  0.1992 -0.0370  0.3485
  781MOL0     C 5347   7.114   8.895   7.360  0.1816  1.1603  0.2199
  781MOL0     O 5348   7.116   9.018   7.019  0.5545  0.2698 -0.5392
  781MOL0     C 5349   6.955   8.869   6.845  0.7263  0.0271  0.0382
  781MOL0     C 5350   6.867   8.818   6.752  0.1303  0.3527  0.1377
  781MOL0     N 5351   6.418   8.458   6.249  0.4947 -1.0235  0.7071
  781MOL0     N 5352   6.413   8.461   6.117  0.3100 -0.2371 -0.9192
  781MOL0     C 5353   7.067   8.516   6.551 -0.0459  0.2262  0.1155
  781MOL0     C 5354   7.171   8.430   6.591  0.8851 -0.6248  0.0583
  781MOL0     C 5355   7.578   8.233   6.620  0.4627 -0.1298 -0.0026
  781MOL0     C 5356   7.546   8.093   6.624  0.1931 -0.6801  0.5429
  781MOL0     C 5357   7.623   8.006   6.698  0.5770 -0.1842 -0.3821
  781MOL0     C 5358   7.747   8.051   6.743  0.0798  0.8715  0.1383
  781MOL0     O 5359   7.814   7.984   6.840  0.5666 -0.0501  0.5557
  781MOL0     C 5360   7.787   7.852   6.880  0.4169 -0.0122  0.0584
  781MOL0     C 5361   7.841   7.763   6.760 -0.3613  0.1929 -0.1599
  781MOL0     C 5362   7.988   7.801   6.720  0.7904 -0.2347 -0.2331
  781MOL0     C 5363   8.052   7.685   6.653  0.1265  0.9948  0.1316
  781MOL0     C 5364   8.164   7.722   6.557 -0.0089 -1.0801  0.1393
  781MOL0     C 5365   8.256   7.791   6.509  0.2720 -1.0854  0.5263
  781MOL0     C 5366   7.790   8.174   6.713  0.3891 -0.2186 -0.3961
  781MOL0     C 5367   7.707   8.268   6.666  1.1046 -0.0792  0.5610
  781MOL0     H 5368   7.330   8.406   6.284 -0.5400  1.1220  0.1239
  781MOL0     H 5369   7.152   8.556   6.219 -0.1353  0.6528 -0.1060
  781MOL0     H 5370   7.064   8.778   6.272 -0.5973  0.7423 -0.9314
  781MOL0     H 5371   6.968   8.662   6.170  1.2706  0.9777 -1.4363
  781MOL0     H 5372   6.852   8.880   6.343 -1.5428 -1.1058  0.0542
  781MOL0     H 5373   6.920   8.909   6.181  1.1040 -0.6194 -0.4336
  781MOL0     H 5374   6.768   8.745   6.078 -0.2234 -0.6886 -0.4693
  781MOL0     H 5375   6.709   8.704   6.246 -0.6035 -0.6737 -0.7682
  781MOL0     H 5376   6.616   8.933   6.272  1.0859 -1.6584  0.8240
  781MOL0     H 5377   6.684   8.964   6.106 -1.4152 -0.2001 -1.2362
  781MOL0     H 5378   6.453   8.803   6.185  0.0436  0.8102  0.9148
  781MOL0     H 5379   6.448   8.954   6.095 -0.7616 -0.2882  0.0332
  781MOL0     H 5380   6.579   8.830   5.906  1.3755 -0.3919  0.5598
  781MOL0     H 5381   6.573   8.677   5.997 -2.5099 -1.4873 -3.2979
  781MOL0     H 5382   6.314   8.815   5.930 -0.2745  1.4256 -1.6131
  781MOL0     H 5383   6.388   8.737   5.795  1.1882 -0.2255  0.0838
  781MOL0     H 5384   6.378   8.518   5.878 -1.6069  0.0087 -0.8494
  781MOL0     H 5385   6.216   8.583   5.895 -0.3971  0.5504 -0.3124
  781MOL0     H 5386   6.224   8.712   6.185  2.9518  2.1952  2.0691
  781MOL0     H 5387   6.213   8.610   6.448 -0.0206 -0.6538  1.5243
  781MOL0     H 5388   6.318   8.487   6.488  4.6570 -0.6967 -2.1215
  781MOL0     H 5389   6.382   8.723   6.585  0.3906 -0.9242 -0.4343
  781MOL0     H 5390   6.426   8.764   6.423 -2.1578 -0.9012 -1.0749
  781MOL0     H 5391   6.583   8.558   6.430 -2.7473 -1.0113 -0.9618
  781MOL0     H 5392   6.531   8.517   6.592 -1.7874  1.4508  0.2384
  781MOL0     H 5393   6.676   8.766   6.502 -3.7852 -0.1321 -1.4521
  781MOL0     H 5394   6.764   8.633   6.581  1.1947  1.1595  2.2680
  781MOL0     H 5395   6.601   8.796   6.949 -0.5470  0.5411 -0.6092
  781MOL0     H 5396   6.630   8.830   7.166 -0.4246  0.2958 -1.3645
  781MOL0     H 5397   6.795   8.836   7.239  0.8951 -0.2217 -0.8059
  781MOL0     H 5398   6.716   8.984   7.191 -1.2315 -0.0094 -0.8801
  781MOL0     H 5399   7.080   9.211   7.261  1.2605 -2.2307 -1.3982
  781MOL0     H 5400   7.259   9.250   7.410 -0.8415 -0.4203 -1.4482
  781MOL0     H 5401   7.381   9.013   7.738  0.1571 -1.9532  1.1292
  781MOL0     H 5402   7.409   8.872   7.641 -0.2012 -0.2423 -0.4075
  781MOL0     H 5403   7.605   9.092   7.671 -2.8884  1.1352 -0.6979
  781MOL0     H 5404   7.604   8.942   7.773  0.3527  3.3758  1.1693
  781MOL0     H 5405   7.650   8.956   7.469 -3.1456  1.4458  0.6386
  781MOL0     H 5406   7.629   8.802   7.568 -0.2944  0.0715 -2.0808
  781MOL0     H 5407   7.855   8.992   7.612 -0.6379 -0.3607  1.8906
  781MOL0     H 5408   7.825   8.825   7.661 -2.2363  1.1246  1.4502
  781MOL0     H 5409   7.885   8.910   7.381 -0.8489 -0.6837 -0.8860
  781MOL0     H 5410   7.841   8.743   7.434  0.6726 -0.7280  1.6830
  781MOL0     H 5411   8.029   8.732   7.575 -3.3672  0.5073 -0.5817
  781MOL0     H 5412   8.091   8.772   7.411  0.4018 -0.5517 -0.1415
  781MOL0     H 5413   8.070   8.937   7.664 -0.1053  0.7310  0.5325
  781MOL0     H 5414   8.117   9.025   7.503  0.6098  1.2830  1.1840
  781MOL0     H 5415   8.307   9.008   7.618 -2.2622  0.9270  0.0150
  781MOL0     H 5416   8.308   8.875   7.497 -0.0178 -1.8114  0.6593
  781MOL0     H 5417   7.235   8.811   7.508 -2.3771 -1.4227 -1.0321
  781MOL0     H 5418   7.072   8.796   7.345  2.0070 -0.0389  2.3483
  781MOL0     H 5419   7.060   8.883   6.820  0.9608 -1.5872 -0.0490
  781MOL0     H 5420   6.880   8.808   6.645 -2.6338 -0.4175 -0.2095
  781MOL0     H 5421   6.994   8.537   6.628 -1.1547  0.0311 -0.8424
  781MOL0     H 5422   7.166   8.382   6.688 -3.1342  2.1238  1.4989
  781MOL0     H 5423   7.454   8.059   6.579  0.9850  1.1868 -2.8731
  781MOL0     H 5424   7.597   7.901   6.709  0.6687  0.0704  4.6785
  781MOL0     H 5425   7.841   7.827   6.972 -2.0025  0.1562  1.6086
  781MOL0     H 5426   7.683   7.849   6.912  0.2489  0.0902 -0.4704
  781MOL0     H 5427   7.791   7.774   6.663  0.6762 -2.0665 -1.0376
  781MOL0     H 5428   7.826   7.659   6.792  2.1292 -0.3675 -0.5519
  781MOL0     H 5429   8.053   7.817   6.807  0.4478 -0.2236  0.0230
  781MOL0     H 5430   7.991   7.894   6.662 -3.7741  0.1879 -0.1962
  781MOL0     H 5431   7.973   7.650   6.586 -3.7383  2.6945  3.4016
  781MOL0     H 5432   8.081   7.596   6.710  3.0587 -0.7520 -3.6155
  781MOL0     H 5433   8.335   7.850   6.465 -2.7526  1.0827 -2.5791
  781MOL0     H 5434   7.892   8.198   6.743  1.9798 -1.0560 -4.5544
  781MOL0     H 5435   7.733   8.374   6.672 -0.0870  0.2989 -0.5912
  782MOL0     O 5436   4.264  10.875   9.995 -0.0957 -0.8389 -0.4398
  782MOL0     C 5437   4.193  10.877  10.095 -0.8755 -0.5731 -0.0161
  782MOL0     O 5438   4.070  10.812  10.122  0.1966 -0.6601  0.2820
  782MOL0     C 5439   4.011  10.740  10.019 -0.6143  0.0166 -0.4704
  782MOL0     C 5440   4.018  10.779   9.886  0.3272  0.4372  1.0812
  782MOL0     C 5441   3.934  10.717   9.793 -0.0320 -0.0186 -0.4849
  782MOL0     C 5442   3.855  10.604   9.823 -0.3127 -0.4574  0.6888
  782MOL0     O 5443   3.755  10.554   9.752 -0.2554 -0.6089  0.0973
  782MOL0     C 5444   3.724  10.602   9.618  0.5487 -0.4099  0.1434
  782MOL0     C 5445   3.819  10.556   9.505  1.2441  0.3064 -1.1032
  782MOL0     C 5446   3.757  10.563   9.365  0.0518  0.1228  0.8506
  782MOL0     C 5447   3.856  10.506   9.261 -1.1086  1.0702 -0.2034
  782MOL0     C 5448   3.785  10.466   9.129 -0.0660  0.1794 -0.7802
  782MOL0     C 5449   3.730  10.588   9.054 -0.0518 -0.8326 -0.1124
  782MOL0     C 5450   3.693  10.546   8.911  0.2207 -0.4833 -0.1728
  782MOL0     C 5451   3.662  10.659   8.815  0.4481 -0.0947 -0.2003
  782MOL0     N 5452   3.585  10.628   8.696 -0.4325  0.1673 -0.0248
  782MOL0     C 5453   3.641  10.571   8.584 -0.5163 -0.3324 -0.4317
  782MOL0     C 5454   3.540  10.572   8.493 -1.1132  0.1421 -0.3725
  782MOL0     C 5455   3.546  10.496   8.363  0.8805 -0.6245 -0.9562
  782MOL0     C 5456   3.656  10.561   8.267 -0.6470  0.2429  0.3230
  782MOL0     C 5457   3.804  10.504   8.301  0.0343  0.1763  0.4551
  782MOL0     C 5458   3.884  10.515   8.166  0.0119  0.3060  0.5016
  782MOL0     O 5459   3.893  10.659   8.126 -0.0706 -0.7476 -0.0420
  782MOL0     C 5460   3.857  10.712   7.995  0.4464  0.6989  1.0716
  782MOL0     C 5461   3.867  10.854   7.971  0.2263  1.3398 -0.7054
  782MOL0     C 5462   3.846  10.912   7.847  0.4563 -1.2496 -0.4384
  782MOL0     C 5463   3.852  11.069   7.851 -0.3948  0.6033  0.2244
  782MOL0     C 5464   3.793  10.834   7.746 -0.2580 -0.3377 -0.5531
  782MOL0     C 5465   3.744  10.886   7.617 -0.5086  0.2001 -1.1098
  782MOL0     O 5466   3.680  10.796   7.536  0.4345 -0.3425 -0.4469
  782MOL0     C 5467   3.659  10.820   7.401 -0.2953 -0.1909  0.1180
  782MOL0     C 5468   3.568  10.924   7.347 -0.2160 -0.4139 -0.1660
  782MOL0     C 5469   3.527  10.909   7.216  0.4058 -0.5118 -1.1952
  782MOL0     C 5470   3.568  10.812   7.132  0.4405  0.3830  0.0427
  782MOL0     O 5471   3.511  10.823   7.002 -0.1188  0.2107 -0.2110
  782MOL0     C 5472   3.579  10.752   6.900  0.3522 -0.1214  0.7058
  782MOL0     C 5473   3.495  10.750   6.768 -1.2291 -0.3564 -0.3168
  782MOL0     C 5474   3.379  10.659   6.778  0.7479  0.3170 -0.3287
  782MOL0     C 5475   3.403  10.517   6.743 -0.0317  0.5802 -0.5387
  782MOL0     C 5476   3.279  10.434   6.751  0.9198  0.5703 -0.4121
  782MOL0     C 5477   3.303  10.292   6.691 -0.1773  0.9036  0.2042
  782MOL0     C 5478   3.174  10.203   6.667  0.7574 -0.5315 -0.2636
  782MOL0     C 5479   3.216  10.064   6.605  0.2015 -0.0940  0.0303
  782MOL0    Cl 5480   3.329   9.969   6.705 -0.2796  0.2277  0.1547
  782MOL0     C 5481   3.655  10.714   7.191 -0.4448  0.4126  0.3352
  782MOL0     C 5482   3.693  10.718   7.322 -0.6442  0.2520  1.2611
  782MOL0     O 5483   3.749  11.004   7.595  0.4333  0.0234 -0.2402
  782MOL0     C 5484   3.788  10.691   7.767 -0.3846 -0.4283  0.2167
  782MOL0     C 5485   3.819  10.632   7.889  0.3407 -0.2133  0.2233
  782MOL0     N 5486   3.427  10.644   8.546 -0.0256  0.4281 -0.0273
  782MOL0     N 5487   3.461  10.673   8.669 -0.1815 -0.1280  0.5279
  782MOL0     C 5488   3.869  10.554   9.951 -0.1743 -0.2729  0.9087
  782MOL0     C 5489   3.935  10.621  10.051 -0.2256 -0.1399  0.4039
  782MOL0     C 5490   4.248  10.963  10.205  0.7657  0.0835  0.3923
  782MOL0     C 5491   4.185  10.971  10.330 -0.0741 -0.2459  0.4967
  782MOL0     C 5492   4.238  11.057  10.429 -0.2663  0.1791 -0.2694
  782MOL0     C 5493   4.356  11.127  10.403  0.0992  0.9905 -0.4350
  782MOL0     O 5494   4.398  11.197  10.512  0.8474 -0.3759  0.3293
  782MOL0     C 5495   4.497  11.289  10.484 -0.0747  0.4683  0.6281
  782MOL0     C 5496   4.510  11.380  10.607 -0.5912  0.0374 -0.1895
  782MOL0     C 5497   4.385  11.445  10.642  0.0847 -0.3839  0.0763
  782MOL0     C 5498   4.408  11.550  10.746 -0.5476 -1.0969 -0.5076
  782MOL0     C 5499   4.282  11.617  10.778  0.0384  0.7115 -0.4485
  782MOL0     C 5500   4.171  11.655  10.798  0.2794  0.6940 -0.6788
  782MOL0     C 5501   4.424  11.114  10.276  0.4096 -0.6231  0.4973
  782MOL0     C 5502   4.370  11.028  10.181 -0.1117 -0.5065 -0.1899
  782MOL0     H 5503   4.086  10.859   9.857  0.7682 -0.2504  0.1323
  782MOL0     H 5504   3.935  10.754   9.691  0.5382  1.2688 -0.0362
  782MOL0     H 5505   3.622  10.572   9.594  0.7024 -0.5857 -0.3077
  782MOL0     H 5506   3.723  10.711   9.619 -2.5568 -0.3458  0.0827
  782MOL0     H 5507   3.893  10.636   9.517 -2.2452  3.4817  1.6054
  782MOL0     H 5508   3.860  10.456   9.525 -1.4923 -0.5098  1.1181
  782MOL0     H 5509   3.665  10.504   9.374  1.2503 -1.7550  1.3898
  782MOL0     H 5510   3.741  10.667   9.336  0.8241  0.0379  0.0790
  782MOL0     H 5511   3.929  10.587   9.251  0.8887 -0.2289  2.5325
  782MOL0     H 5512   3.911  10.423   9.306  2.7282  2.0816 -2.5301
  782MOL0     H 5513   3.861  10.421   9.065  1.5834  2.5517 -0.6028
  782MOL0     H 5514   3.707  10.393   9.156  1.9660 -1.0633  2.3406
  782MOL0     H 5515   3.645  10.641   9.098 -1.0331 -1.7261 -0.8889
  782MOL0     H 5516   3.813  10.659   9.045  0.1666 -1.1687 -0.7588
  782MOL0     H 5517   3.773  10.490   8.862  0.7450  0.4950 -0.4343
  782MOL0     H 5518   3.603  10.482   8.915  0.1144 -0.2953  0.4157
  782MOL0     H 5519   3.751  10.716   8.786  3.1181 -5.0295 -3.0161
  782MOL0     H 5520   3.601  10.733   8.867  1.8305  0.6480  0.4219
  782MOL0     H 5521   3.739  10.525   8.577  1.8968  3.3816  3.3617
  782MOL0     H 5522   3.568  10.391   8.382 -1.8257 -1.0359  0.5649
  782MOL0     H 5523   3.445  10.490   8.320  0.7487 -0.1223 -0.7288
  782MOL0     H 5524   3.642  10.668   8.249 -0.3704  0.2181 -0.0621
  782MOL0     H 5525   3.622  10.518   8.173 -3.5274  1.0382  0.9257
  782MOL0     H 5526   3.812  10.409   8.354 -2.9706  1.3188  3.2844
  782MOL0     H 5527   3.859  10.561   8.375  4.9583 -1.4913 -1.5361
  782MOL0     H 5528   3.830  10.441   8.107  1.4446 -1.6285  1.5209
  782MOL0     H 5529   3.984  10.471   8.166 -0.2295 -0.3397 -1.4908
  782MOL0     H 5530   3.888  10.916   8.058 -0.8563  0.5933  0.1232
  782MOL0     H 5531   3.756  11.116   7.875 -1.5019 -2.0493  1.4632
  782MOL0     H 5532   3.922  11.103   7.928 -0.7798  6.0447 -1.4194
  782MOL0     H 5533   3.902  11.104   7.761  2.2569  2.1366  2.1649
  782MOL0     H 5534   3.539  11.005   7.413  0.7045 -0.0028 -0.2640
  782MOL0     H 5535   3.471  10.996   7.180  1.5101  0.0630 -1.5789
  782MOL0     H 5536   3.670  10.812   6.890 -0.7386  1.7970  1.7397
  782MOL0     H 5537   3.596  10.648   6.929  1.3116  0.3746  2.0348
  782MOL0     H 5538   3.475  10.854   6.740 -0.1511 -0.1570 -0.4007
  782MOL0     H 5539   3.549  10.709   6.682  0.2217 -1.1965  0.9577
  782MOL0     H 5540   3.304  10.700   6.710  0.1405 -0.8043 -0.3660
  782MOL0     H 5541   3.343  10.663   6.881 -3.5536  1.8428 -1.6621
  782MOL0     H 5542   3.448  10.505   6.644 -1.9560  0.7783 -1.4736
  782MOL0     H 5543   3.482  10.474   6.805  0.5231 -0.4655 -1.9243
  782MOL0     H 5544   3.203  10.479   6.687 -0.4781  0.5973  1.2189
  782MOL0     H 5545   3.255  10.435   6.858  2.9238  1.4272  0.0860
  782MOL0     H 5546   3.364  10.286   6.600  0.5761 -1.0603  0.7791
  782MOL0     H 5547   3.351  10.241   6.775 -1.1383  0.1594  0.3229
  782MOL0     H 5548   3.107  10.257   6.600  2.6399 -0.2721 -2.0097
  782MOL0     H 5549   3.105  10.184   6.750 -0.5572  0.1305 -1.1737
  782MOL0     H 5550   3.266  10.084   6.510  1.0079  0.2276  0.5147
  782MOL0     H 5551   3.120  10.011   6.595 -0.3983  0.7698  1.0081
  782MOL0     H 5552   3.695  10.635   7.128  0.1894  2.1578 -1.5648
  782MOL0     H 5553   3.746  10.639   7.375  2.3117  0.4187 -1.1351
  782MOL0     H 5554   3.757  10.620   7.691  1.8664 -0.1286 -1.0784
  782MOL0     H 5555   3.810  10.525   7.904  1.5443 -0.7883 -2.5611
  782MOL0     H 5556   3.806  10.469   9.974 -0.9548 -0.1039 -0.4720
  782MOL0     H 5557   3.918  10.578  10.149  0.6285 -1.5897 -0.0445
  782MOL0     H 5558   4.092  10.917  10.342  0.3155 -0.7197  1.5111
  782MOL0     H 5559   4.188  11.056  10.525 -2.1621 -1.3461 -1.1871
  782MOL0     H 5560   4.597  11.243  10.477  1.7139  4.2000 -0.9393
  782MOL0     H 5561   4.490  11.340  10.388  0.0260 -1.7257 -0.6154
  782MOL0     H 5562   4.586  11.453  10.578  1.8652 -2.6619 -1.0515
  782MOL0     H 5563   4.554  11.338  10.698  2.4258 -2.4216 -2.5135
  782MOL0     H 5564   4.321  11.363  10.674  2.2377 -0.9982  3.3031
  782MOL0     H 5565   4.342  11.502  10.559 -0.5923 -0.3268  0.4624
  782MOL0     H 5566   4.480  11.619  10.699 -1.8407  0.7683  0.1583
  782MOL0     H 5567   4.461  11.509  10.832  0.9401  0.1827 -0.7550
  782MOL0     H 5568   4.073  11.695  10.811 -1.4178 -2.2874 -2.9181
  782MOL0     H 5569   4.522  11.158  10.260  0.0407 -0.0682 -0.3293
  782MOL0     H 5570   4.430  11.009  10.092 -0.3559  0.0867 -0.4884
  783MOL0     O 5571  10.152   0.467   6.117  0.3852 -0.0595 -1.1058
  783MOL0     C 5572  10.117   0.497   6.000 -0.1858  0.3517  0.1979
  783MOL0     O 5573  10.192   0.473   5.887 -0.0696 -0.1001  0.3145
  783MOL0     C 5574  10.314   0.408   5.903 -0.4280  0.1297  0.0634
  783MOL0     C 5575  10.422   0.482   5.862 -0.5929  0.0823  0.4312
  783MOL0     C 5576  10.553   0.431   5.879 -0.6335 -0.0488  0.1414
  783MOL0     C 5577  10.573   0.313   5.943 -0.1487  0.4021 -0.6665
  783MOL0     O 5578  10.691   0.261   5.974  0.8595  0.3252  0.2731
  783MOL0     C 5579  10.821   0.320   5.956  0.0400 -0.2449  1.0648
  783MOL0     C 5580  10.925   0.206   5.945 -0.6254 -0.9820 -0.3643
  783MOL0     C 5581  11.054   0.235   5.860  0.9240 -0.2229  0.3670
  783MOL0     C 5582  11.145   0.356   5.919 -0.6603 -0.1692 -0.4630
  783MOL0     C 5583  11.281   0.312   5.879 -0.4947 -0.4492  0.4309
  783MOL0     C 5584  11.391   0.401   5.946 -0.1521 -0.1219 -0.1635
  783MOL0     C 5585  11.531   0.358   5.910 -0.5221 -0.0358 -0.1548
  783MOL0     C 5586  11.634   0.423   6.002 -0.0097  0.1114  0.1439
  783MOL0     N 5587  11.622   0.378   6.146 -0.4882  0.1051  1.4078
  783MOL0     C 5588  11.589   0.252   6.186  0.5553  0.7832 -0.1854
  783MOL0     C 5589  11.566   0.272   6.314 -0.2221 -0.7662  0.6074
  783MOL0     C 5590  11.517   0.179   6.412 -0.0508 -0.3104  0.5312
  783MOL0     C 5591  11.373   0.202   6.453  0.4696  0.2503 -0.5313
  783MOL0     C 5592  11.284   0.199   6.348  0.1269 -0.4447  0.1101
  783MOL0     C 5593  11.145   0.214   6.419 -0.3799  0.1977 -0.1887
  783MOL0     O 5594  11.050   0.255   6.321  0.3927 -0.6136  0.6908
  783MOL0     C 5595  10.922   0.230   6.363 -0.3811 -0.0885 -0.3939
  783MOL0     C 5596  10.862   0.123   6.296 -0.2137 -0.6466 -0.0788
  783MOL0     C 5597  10.730   0.078   6.322  0.5939  0.4152  0.3300
  783MOL0     C 5598  10.689  -0.055   6.245  0.6895  0.5293 -0.3327
  783MOL0     C 5599  10.644   0.156   6.405  0.1296 -0.0461  0.0406
  783MOL0     C 5600  10.505   0.119   6.419  1.0233 -0.0891 -1.5259
  783MOL0     O 5601  10.438   0.093   6.301  0.0735 -0.0751 -0.0122
  783MOL0     C 5602  10.306   0.074   6.305  0.5600 -0.3013 -0.8510
  783MOL0     C 5603  10.215   0.179   6.321 -0.8534  0.3561  0.5133
  783MOL0     C 5604  10.078   0.144   6.317 -0.4360  0.2867  0.6927
  783MOL0     C 5605  10.035   0.009   6.304 -0.0066  0.5479  0.4259
  783MOL0     O 5606   9.904  -0.029   6.312 -0.3265 -0.1545 -0.3849
  783MOL0     C 5607   9.797   0.061   6.267  0.1038  0.2932 -0.2804
  783MOL0     C 5608   9.798   0.052   6.117  0.2482  0.3698 -0.4591
  783MOL0     C 5609   9.708   0.157   6.050 -0.6245 -0.4959  0.0550
  783MOL0     C 5610   9.772   0.171   5.906 -0.1792  0.5100 -0.1854
  783MOL0     C 5611   9.672   0.226   5.810 -0.1105  0.7417  0.5054
  783MOL0     C 5612   9.598   0.115   5.720  0.2196  0.1522  0.5140
  783MOL0     C 5613   9.534   0.168   5.595 -0.1655 -0.0606  0.2190
  783MOL0     C 5614   9.635   0.207   5.486 -0.7947  0.0689  0.4161
  783MOL0    Cl 5615   9.709   0.076   5.390 -0.6452 -0.4118  0.0739
  783MOL0     C 5616  10.128  -0.092   6.307  0.2221  0.2371 -0.0998
  783MOL0     C 5617  10.263  -0.058   6.304 -1.1612  1.0240  1.2028
  783MOL0     O 5618  10.452   0.135   6.537  0.4836 -0.0631  0.1048
  783MOL0     C 5619  10.705   0.270   6.471  0.5488 -1.1116  0.5479
  783MOL0     C 5620  10.842   0.298   6.455  0.3415  0.4156 -0.5473
  783MOL0     N 5621  11.576   0.404   6.349  0.4162  0.2833 -0.4152
  783MOL0     N 5622  11.621   0.472   6.247  0.6202 -0.3664  0.7555
  783MOL0     C 5623  10.467   0.234   5.984 -0.3923 -0.9293  0.1760
  783MOL0     C 5624  10.338   0.281   5.971  0.4650 -0.1331  0.3670
  783MOL0     C 5625   9.980   0.556   5.983  0.2076  0.2585 -0.3363
  783MOL0     C 5626   9.876   0.539   6.083  0.0787  1.7568  0.2823
  783MOL0     C 5627   9.752   0.582   6.039 -1.1513 -0.5859  0.8321
  783MOL0     C 5628   9.735   0.652   5.919 -0.2268 -0.4321 -0.0816
  783MOL0     O 5629   9.614   0.708   5.892 -0.4016  0.1930 -0.0917
  783MOL0     C 5630   9.495   0.691   5.963 -0.3651 -0.3976 -1.4229
  783MOL0     C 5631   9.375   0.777   5.899 -1.1716 -0.4644  0.9207
  783MOL0     C 5632   9.276   0.804   5.998 -0.2855 -0.3202  0.1549
  783MOL0     C 5633   9.175   0.692   6.011  0.0216  0.5071  0.0505
  783MOL0     C 5634   9.090   0.659   5.892  1.3965 -0.0564  0.7028
  783MOL0     C 5635   9.022   0.616   5.801  0.3732 -0.3459  0.2669
  783MOL0     C 5636   9.828   0.675   5.825 -0.2411  0.7165 -0.7007
  783MOL0     C 5637   9.957   0.619   5.860  0.3516  0.1322  0.7091
  783MOL0     H 5638  10.401   0.579   5.819 -0.6421  0.3680  1.0881
  783MOL0     H 5639  10.633   0.501   5.861 -1.1189 -0.1238 -2.7363
  783MOL0     H 5640  10.819   0.376   5.862  1.3483 -1.9314 -0.0156
  783MOL0     H 5641  10.854   0.384   6.038 -0.9461  0.6295  0.8073
  783MOL0     H 5642  10.972   0.177   6.039  1.9890  2.0969 -0.5453
  783MOL0     H 5643  10.876   0.122   5.895  2.7897 -3.8043  0.5997
  783MOL0     H 5644  11.099   0.136   5.852  0.9672 -0.1062 -0.9973
  783MOL0     H 5645  11.030   0.266   5.758  1.6796 -1.5041 -0.2223
  783MOL0     H 5646  11.109   0.447   5.870 -1.1134  2.0358  3.4855
  783MOL0     H 5647  11.130   0.370   6.027  0.2034  0.8245 -0.4498
  783MOL0     H 5648  11.306   0.212   5.914  0.6562 -0.9791 -1.7212
  783MOL0     H 5649  11.293   0.311   5.770  1.3356 -1.9393  0.5937
  783MOL0     H 5650  11.369   0.508   5.934 -0.2007 -0.0199  0.6988
  783MOL0     H 5651  11.383   0.393   6.055 -0.1602 -3.1500 -0.3248
  783MOL0     H 5652  11.527   0.249   5.922  0.2307 -0.2339 -1.4607
  783MOL0     H 5653  11.547   0.379   5.803 -1.3745 -3.5415 -1.1009
  783MOL0     H 5654  11.616   0.531   5.991 -1.2047 -0.3000 -3.4241
  783MOL0     H 5655  11.736   0.416   5.964  0.1750 -0.1441  0.6861
  783MOL0     H 5656  11.578   0.157   6.136 -1.0734  0.7686  0.1549
  783MOL0     H 5657  11.537   0.078   6.373 -0.5763  0.4162 -1.8017
  783MOL0     H 5658  11.579   0.185   6.501  1.4672 -2.1455 -0.3301
  783MOL0     H 5659  11.347   0.293   6.507 -3.0305 -0.6560 -0.4506
  783MOL0     H 5660  11.344   0.127   6.527 -0.1562  0.7938 -0.2213
  783MOL0     H 5661  11.293   0.106   6.291 -3.9174 -0.8607 -0.0987
  783MOL0     H 5662  11.311   0.281   6.282 -1.1022  0.9453  1.2834
  783MOL0     H 5663  11.144   0.288   6.500  2.3602  0.4590 -0.3200
  783MOL0     H 5664  11.123   0.117   6.463 -0.7287  0.0514 -0.6813
  783MOL0     H 5665  10.920   0.069   6.222 -1.6513 -1.4283 -0.6709
  783MOL0     H 5666  10.677  -0.036   6.138 -1.4303 -4.2165 -1.1891
  783MOL0     H 5667  10.764  -0.134   6.260  1.4885  1.5412  1.3377
  783MOL0     H 5668  10.589  -0.089   6.274  0.3172 -0.0067 -2.1256
  783MOL0     H 5669  10.260   0.278   6.313 -0.7699  0.4094  1.4714
  783MOL0     H 5670  10.011   0.230   6.319  0.2812  0.8660  0.3888
  783MOL0     H 5671   9.700   0.036   6.310 -1.6842  3.5453 -2.0313
  783MOL0     H 5672   9.818   0.167   6.286  5.4891 -0.3164 -1.1520
  783MOL0     H 5673   9.900   0.063   6.080  0.3686  1.9002  0.2819
  783MOL0     H 5674   9.772  -0.053   6.097  1.6770 -0.4842  1.7339
  783MOL0     H 5675   9.691   0.253   6.101 -1.7467 -1.6270  1.9267
  783MOL0     H 5676   9.607   0.120   6.035 -1.3849  0.6490  2.0083
  783MOL0     H 5677   9.858   0.240   5.907 -1.2828  1.9744  1.7580
  783MOL0     H 5678   9.814   0.075   5.877  3.5251  2.3153 -1.4797
  783MOL0     H 5679   9.722   0.284   5.732  1.1243  0.8401  1.3434
  783MOL0     H 5680   9.603   0.294   5.861 -0.0558  2.2373 -1.3063
  783MOL0     H 5681   9.675   0.041   5.697  0.1633 -0.4813  2.2324
  783MOL0     H 5682   9.526   0.061   5.783  0.5768 -0.9108  0.0284
  783MOL0     H 5683   9.467   0.249   5.626 -2.0005 -2.0971  1.8383
  783MOL0     H 5684   9.468   0.091   5.555 -0.8169  0.4549  0.2916
  783MOL0     H 5685   9.722   0.253   5.535 -0.4279  2.2498 -2.0900
  783MOL0     H 5686   9.607   0.285   5.416 -0.3925  0.4149  0.6347
  783MOL0     H 5687  10.121  -0.201   6.307  0.2510  0.1848 -2.3157
  783MOL0     H 5688  10.332  -0.138   6.281  0.1782  1.9718  1.8056
  783MOL0     H 5689  10.634   0.326   6.531 -1.2102 -0.4727 -2.0019
  783MOL0     H 5690  10.875   0.380   6.518  1.7772 -1.5766  1.4680
  783MOL0     H 5691  10.481   0.139   6.034 -1.8505 -3.0065 -2.9907
  783MOL0     H 5692  10.255   0.219   6.005 -0.7550  1.2491  0.0270
  783MOL0     H 5693   9.894   0.485   6.175 -1.4296 -0.6102 -0.7420
  783MOL0     H 5694   9.675   0.560   6.112 -1.2433 -0.1844  0.8612
  783MOL0     H 5695   9.480   0.583   5.972 -1.2203 -0.1162  1.5823
  783MOL0     H 5696   9.518   0.725   6.065  1.2502 -3.9337 -0.4512
  783MOL0     H 5697   9.335   0.710   5.823  2.1404  0.1156 -1.5380
  783MOL0     H 5698   9.406   0.870   5.850  1.2935 -1.2615  0.8577
  783MOL0     H 5699   9.225   0.893   5.960 -1.3775 -0.7882  0.4807
  783MOL0     H 5700   9.327   0.824   6.093  0.2280  2.4000 -0.6142
  783MOL0     H 5701   9.105   0.715   6.092 -0.5783  1.4414 -0.7143
  783MOL0     H 5702   9.222   0.596   6.032 -2.1285 -0.4353  0.8231
  783MOL0     H 5703   8.972   0.582   5.713 -0.4619  1.7870 -0.1434
  783MOL0     H 5704   9.829   0.732   5.732 -1.6281 -2.2129 -2.6702
  783MOL0     H 5705  10.035   0.648   5.790 -2.0170 -2.4531 -3.4134
  784MOL0     O 5706   0.817   5.794  10.063  0.4083 -0.0836  0.3409
  784MOL0     C 5707   0.724   5.723  10.025  0.2891 -0.2709  0.1798
  784MOL0     O 5708   0.611   5.753   9.956 -0.3032  0.7251 -0.0238
  784MOL0     C 5709   0.589   5.873   9.895  0.3616 -0.7329  0.5548
  784MOL0     C 5710   0.692   5.955   9.847 -0.3778 -0.4492  1.1991
  784MOL0     C 5711   0.659   6.072   9.782  0.4942  0.3631  0.1379
  784MOL0     C 5712   0.526   6.118   9.769  0.6454  0.1447 -0.4994
  784MOL0     O 5713   0.496   6.240   9.709  0.6808  0.5461 -0.5413
  784MOL0     C 5714   0.573   6.267   9.591  0.1448 -0.1352 -0.8138
  784MOL0     C 5715   0.485   6.377   9.504 -0.0886 -1.0684 -0.4025
  784MOL0     C 5716   0.574   6.508   9.490 -0.4461  0.6068 -0.1464
  784MOL0     C 5717   0.689   6.492   9.388 -0.1907 -0.7336 -0.3437
  784MOL0     C 5718   0.742   6.626   9.336 -0.5239  0.0697 -0.4717
  784MOL0     C 5719   0.854   6.615   9.234 -1.0638  0.2945 -1.0393
  784MOL0     C 5720   0.880   6.743   9.156  0.6388  0.5703 -1.1141
  784MOL0     C 5721   0.909   6.861   9.243  0.2489  0.6086 -0.8989
  784MOL0     N 5722   1.010   6.840   9.349 -0.3142  0.2657  0.3520
  784MOL0     C 5723   1.134   6.892   9.337 -0.0786 -0.3342  0.2969
  784MOL0     C 5724   1.200   6.887   9.454  0.7427  0.8091 -0.5099
  784MOL0     C 5725   1.336   6.937   9.482 -0.2281  0.1022 -0.4994
  784MOL0     C 5726   1.333   6.989   9.625 -0.3087  0.5916  0.8367
  784MOL0     C 5727   1.476   7.049   9.651 -0.4369  0.0307  0.9484
  784MOL0     C 5728   1.487   7.198   9.646  0.2436 -0.6401  0.7241
  784MOL0     O 5729   1.625   7.232   9.694 -0.1848  0.6020  0.7221
  784MOL0     C 5730   1.653   7.242   9.826 -0.6645  0.5375 -0.1002
  784MOL0     C 5731   1.561   7.222   9.924  0.1762 -0.1720 -0.0970
  784MOL0     C 5732   1.590   7.242  10.061  0.5932 -0.1178 -0.1823
  784MOL0     C 5733   1.474   7.240  10.153 -0.7661  0.4615  0.8101
  784MOL0     C 5734   1.723   7.274  10.091  0.5992 -0.2129 -0.1072
  784MOL0     C 5735   1.757   7.322  10.225 -0.7460  0.4107  0.5921
  784MOL0     O 5736   1.707   7.254  10.332  0.0595 -0.8308 -0.8552
  784MOL0     C 5737   1.725   7.298  10.464 -0.1616  0.0678 -0.6599
  784MOL0     C 5738   1.857   7.333  10.512  0.0183  0.8912 -0.2804
  784MOL0     C 5739   1.878   7.378  10.640  0.2726 -0.0098  0.5679
  784MOL0     C 5740   1.766   7.393  10.726  0.9201  0.7375  0.1952
  784MOL0     O 5741   1.787   7.436  10.852 -0.1512 -0.3755 -0.2745
  784MOL0     C 5742   1.747   7.572  10.878  0.0758 -0.1892  0.4456
  784MOL0     C 5743   1.864   7.664  10.922  0.4922 -0.7910  0.1384
  784MOL0     C 5744   1.973   7.594  10.990 -0.4213  0.5399 -0.0421
  784MOL0     C 5745   2.108   7.676  11.017  0.5570  0.7316  0.0525
  784MOL0     C 5746   2.222   7.587  11.087 -0.0637  0.3645  0.3121
  784MOL0     C 5747   2.356   7.655  11.102 -0.6658 -0.1279 -0.1589
  784MOL0     C 5748   2.430   7.585  11.220 -0.2840  0.4785 -0.4006
  784MOL0     C 5749   2.576   7.608  11.206 -0.4972  0.0644 -0.4115
  784MOL0    Cl 5750   2.630   7.758  11.299  0.6727  0.0969 -0.2442
  784MOL0     C 5751   1.634   7.347  10.674  0.8813  0.1539  0.4283
  784MOL0     C 5752   1.613   7.311  10.543  0.5661 -0.1989  0.2398
  784MOL0     O 5753   1.817   7.424  10.223 -0.8205  0.5414  0.1108
  784MOL0     C 5754   1.831   7.285   9.992 -0.0213  0.3412  0.4514
  784MOL0     C 5755   1.793   7.275   9.860 -0.7901 -0.0465 -0.0164
  784MOL0     N 5756   1.109   6.828   9.541  0.1286  0.3516  0.0567
  784MOL0     N 5757   0.992   6.812   9.480 -0.1530  0.3281 -0.4029
  784MOL0     C 5758   0.422   6.037   9.820 -0.3183 -0.3057 -0.0530
  784MOL0     C 5759   0.454   5.906   9.877 -0.8475 -0.7237  0.1015
  784MOL0     C 5760   0.720   5.576  10.072  0.0663  0.0229  0.8331
  784MOL0     C 5761   0.771   5.549  10.202  0.6477 -0.1428  0.1987
  784MOL0     C 5762   0.754   5.426  10.258  0.3450 -0.0480 -0.4961
  784MOL0     C 5763   0.701   5.318  10.186  1.0825 -0.6376  0.8930
  784MOL0     O 5764   0.673   5.191  10.225  0.1594 -0.8728 -0.7504
  784MOL0     C 5765   0.529   5.188  10.261  1.0069 -0.8728 -0.4571
  784MOL0     C 5766   0.499   5.226  10.407  0.4826  0.1555 -0.3340
  784MOL0     C 5767   0.595   5.137  10.496 -0.5820  0.3961 -0.6663
  784MOL0     C 5768   0.546   5.138  10.642 -0.0029 -0.8903 -0.3128
  784MOL0     C 5769   0.564   5.275  10.691 -0.2836  0.8061 -0.5361
  784MOL0     C 5770   0.581   5.396  10.720 -0.6140 -0.0872 -0.7230
  784MOL0     C 5771   0.658   5.345  10.049 -0.4177  0.0961 -0.6244
  784MOL0     C 5772   0.673   5.471   9.989  0.1546  0.3320 -0.6942
  784MOL0     H 5773   0.796   5.921   9.850 -0.8882 -2.0521  3.3911
  784MOL0     H 5774   0.740   6.127   9.735 -0.1353 -2.1588 -4.5004
  784MOL0     H 5775   0.670   6.307   9.622 -1.5135  1.0400  3.5712
  784MOL0     H 5776   0.593   6.178   9.530  0.1440  0.2960 -1.4536
  784MOL0     H 5777   0.452   6.343   9.405  0.5851 -0.2302 -0.9339
  784MOL0     H 5778   0.404   6.402   9.572 -3.2956 -0.0959 -4.2374
  784MOL0     H 5779   0.506   6.585   9.452  1.2481  1.4771 -1.5700
  784MOL0     H 5780   0.604   6.541   9.590 -1.6063  0.5323  0.2414
  784MOL0     H 5781   0.768   6.441   9.444 -0.1146  1.7801  2.0290
  784MOL0     H 5782   0.661   6.425   9.306  1.0630 -1.7512  0.0175
  784MOL0     H 5783   0.663   6.683   9.288  0.0342  0.9008 -0.4302
  784MOL0     H 5784   0.777   6.692   9.416 -2.0330  0.7657 -0.3626
  784MOL0     H 5785   0.944   6.579   9.285 -1.0666  4.5707  2.5402
  784MOL0     H 5786   0.821   6.540   9.161 -0.0620 -0.9655 -0.2412
  784MOL0     H 5787   0.966   6.721   9.092  1.9617  0.2835  0.6858
  784MOL0     H 5788   0.797   6.774   9.091  0.3753  1.3128 -0.4400
  784MOL0     H 5789   0.814   6.889   9.290  0.1116 -0.1193 -0.7269
  784MOL0     H 5790   0.944   6.950   9.191 -0.6771  1.5148 -0.0303
  784MOL0     H 5791   1.183   6.945   9.256 -0.2226 -0.4207  0.1511
  784MOL0     H 5792   1.398   6.846   9.484 -1.2978 -0.6444 -0.5363
  784MOL0     H 5793   1.372   7.008   9.406 -0.1958  0.8011  0.1640
  784MOL0     H 5794   1.328   6.905   9.695 -0.1158  0.0483  0.2069
  784MOL0     H 5795   1.253   7.059   9.653  0.1758  1.7662 -0.6134
  784MOL0     H 5796   1.545   7.017   9.572 -0.3442  0.9813  0.6362
  784MOL0     H 5797   1.513   6.999   9.741 -1.5832 -0.0773  1.3770
  784MOL0     H 5798   1.409   7.247   9.705 -1.9297 -1.3930 -1.3726
  784MOL0     H 5799   1.468   7.246   9.550  0.5503  0.7972  1.3548
  784MOL0     H 5800   1.463   7.184   9.896 -1.5665  2.3148  2.2097
  784MOL0     H 5801   1.494   7.157  10.222  0.5277 -0.2826 -0.3925
  784MOL0     H 5802   1.478   7.325  10.222  1.8408  0.6460  0.5265
  784MOL0     H 5803   1.384   7.242  10.092  0.3390  1.6411 -0.8540
  784MOL0     H 5804   1.937   7.308  10.443 -0.1111  2.7168 -1.1572
  784MOL0     H 5805   1.977   7.388  10.683  1.1495  1.4968 -1.6094
  784MOL0     H 5806   1.689   7.623  10.801 -0.4202  1.4083  1.8321
  784MOL0     H 5807   1.682   7.574  10.966  1.4818 -0.0671  1.5041
  784MOL0     H 5808   1.906   7.704  10.829  3.4530 -0.6536  1.4357
  784MOL0     H 5809   1.835   7.758  10.970 -1.6486  0.1051 -2.6005
  784MOL0     H 5810   1.997   7.510  10.924  2.7957  1.3408 -0.0682
  784MOL0     H 5811   1.924   7.543  11.074 -1.0297 -1.3903 -1.4952
  784MOL0     H 5812   2.136   7.710  10.917  0.0103 -0.9529 -0.6941
  784MOL0     H 5813   2.088   7.767  11.075  0.1149 -0.1888  1.3933
  784MOL0     H 5814   2.245   7.513  11.010  1.3346  1.3680 -0.2884
  784MOL0     H 5815   2.186   7.546  11.182 -1.9278 -0.0661 -0.5328
  784MOL0     H 5816   2.404   7.649  11.004 -0.6643  1.1960 -0.2510
  784MOL0     H 5817   2.326   7.758  11.123 -1.2247 -0.3172 -0.0190
  784MOL0     H 5818   2.424   7.476  11.214  3.1284  0.2025 -1.0913
  784MOL0     H 5819   2.386   7.622  11.313  1.5670  2.9861 -0.4150
  784MOL0     H 5820   2.599   7.608  11.100 -2.9789  2.6952 -1.0939
  784MOL0     H 5821   2.637   7.524  11.240 -1.7060  0.2135  2.5160
  784MOL0     H 5822   1.554   7.351  10.746  1.5362  0.3588  1.1553
  784MOL0     H 5823   1.515   7.273  10.516  1.4389 -2.1988 -0.2945
  784MOL0     H 5824   1.925   7.330  10.023 -0.5585  2.8933 -1.2623
  784MOL0     H 5825   1.871   7.278   9.785  0.7066 -0.7313  1.4499
  784MOL0     H 5826   0.323   6.083   9.825  0.6070  1.7799  0.1927
  784MOL0     H 5827   0.382   5.835   9.916 -0.1722 -0.7930  1.2659
  784MOL0     H 5828   0.804   5.626  10.270 -4.5143  2.3270  0.3759
  784MOL0     H 5829   0.776   5.405  10.362 -0.8710 -4.0409 -0.8739
  784MOL0     H 5830   0.478   5.250  10.187  0.2422 -0.2338  0.5737
  784MOL0     H 5831   0.489   5.088  10.244  0.3875 -1.1574  2.2382
  784MOL0     H 5832   0.393   5.202  10.417  0.0375  0.3380 -3.4900
  784MOL0     H 5833   0.509   5.334  10.427 -2.7260  0.4899  0.1069
  784MOL0     H 5834   0.700   5.166  10.501 -0.8669  1.2667  2.7794
  784MOL0     H 5835   0.588   5.034  10.460  0.7865  1.2759 -3.8776
  784MOL0     H 5836   0.605   5.072  10.707  3.1851  0.1273 -1.9614
  784MOL0     H 5837   0.440   5.111  10.642 -0.8856  2.0640 -2.3546
  784MOL0     H 5838   0.603   5.500  10.733 -1.1816  0.3561 -2.8528
  784MOL0     H 5839   0.615   5.265   9.989 -3.1156 -0.4020  1.7779
  784MOL0     H 5840   0.636   5.479   9.887 -0.6083 -1.8588 -0.6475
  785MOL0     O 5841   6.713   0.215   0.908 -0.0857  0.5061 -0.1746
  785MOL0     C 5842   6.689   0.335   0.923 -0.1054  0.9346 -0.7710
  785MOL0     O 5843   6.586   0.375   0.990  0.7946 -0.6795  0.1552
  785MOL0     C 5844   6.520   0.290   1.071  0.1630  0.2589  0.3317
  785MOL0     C 5845   6.509   0.323   1.205  0.3199  0.1918 -0.3903
  785MOL0     C 5846   6.444   0.248   1.302  0.1609 -0.5462 -0.5809
  785MOL0     C 5847   6.385   0.129   1.259  0.8550 -0.1646  0.3318
  785MOL0     O 5848   6.299   0.051   1.328 -0.0144 -0.1072  0.9368
  785MOL0     C 5849   6.244   0.111   1.447  0.4029 -0.1710  0.0703
  785MOL0     C 5850   6.150   0.012   1.517 -0.7107 -1.0866 -0.2139
  785MOL0     C 5851   6.029  -0.029   1.432  0.5267 -0.3174  0.7099
  785MOL0     C 5852   5.964  -0.151   1.495 -0.3784  0.0782 -0.7211
  785MOL0     C 5853   5.825  -0.185   1.437 -0.1138  0.8160  0.7649
  785MOL0     C 5854   5.761  -0.316   1.513 -0.2505  0.0609  0.5468
  785MOL0     C 5855   5.637  -0.365   1.433 -0.4343  0.1547 -0.5602
  785MOL0     C 5856   5.647  -0.520   1.410  0.4641  0.2711  0.4978
  785MOL0     N 5857   5.603  -0.604   1.520 -0.3842 -0.3174  0.3590
  785MOL0     C 5858   5.630  -0.586   1.650  0.2104  1.3960  0.8335
  785MOL0     C 5859   5.558  -0.686   1.717 -0.1119  0.3844 -0.3862
  785MOL0     C 5860   5.560  -0.720   1.860 -0.0918  0.3295  0.2944
  785MOL0     C 5861   5.705  -0.704   1.926 -0.1338 -0.9238  0.3141
  785MOL0     C 5862   5.807  -0.791   1.872  0.1248  0.9256 -0.3050
  785MOL0     C 5863   5.920  -0.797   1.963 -0.5588  0.3394 -0.2616
  785MOL0     O 5864   6.050  -0.833   1.902  0.5018 -0.2917  0.0898
  785MOL0     C 5865   6.057  -0.973   1.888 -0.3890 -0.2956 -0.3009
  785MOL0     C 5866   5.986  -1.076   1.953 -0.1942 -0.3655 -0.5385
  785MOL0     C 5867   6.014  -1.210   1.921 -0.2048 -0.1765  0.6757
  785MOL0     C 5868   5.922  -1.312   1.994  0.5349  0.7846  0.5929
  785MOL0     C 5869   6.101  -1.246   1.811  0.3878  0.8956 -0.7211
  785MOL0     C 5870   6.127  -1.382   1.768 -0.3691 -1.5649  0.2357
  785MOL0     O 5871   6.234  -1.393   1.681  0.1450  0.4639 -0.5137
  785MOL0     C 5872   6.283  -1.524   1.652  0.8058  0.3943 -0.5271
  785MOL0     C 5873   6.308  -1.622   1.751 -0.2132 -0.4358 -0.3488
  785MOL0     C 5874   6.388  -1.740   1.722 -0.0067  0.2271  0.1020
  785MOL0     C 5875   6.430  -1.765   1.594 -0.5170 -0.3267 -0.2457
  785MOL0     O 5876   6.494  -1.880   1.570 -0.1013 -0.0173 -0.3166
  785MOL0     C 5877   6.468  -1.964   1.458 -0.4544 -0.5232  0.0930
  785MOL0     C 5878   6.549  -2.088   1.443  0.2091 -0.0514 -0.5285
  785MOL0     C 5879   6.698  -2.061   1.429  1.1412  0.5661 -0.2129
  785MOL0     C 5880   6.768  -2.194   1.426 -0.2800  0.4446 -0.0295
  785MOL0     C 5881   6.745  -2.269   1.297  0.0530 -0.1189 -0.9707
  785MOL0     C 5882   6.727  -2.426   1.328 -0.2694 -0.2101  0.2466
  785MOL0     C 5883   6.857  -2.509   1.316 -0.3720  0.0903  0.1954
  785MOL0     C 5884   6.846  -2.643   1.380  0.2855  0.2035 -0.4874
  785MOL0    Cl 5885   6.719  -2.738   1.318  0.1886  0.0348  0.0798
  785MOL0     C 5886   6.411  -1.669   1.493  0.5711  0.0281 -0.7239
  785MOL0     C 5887   6.327  -1.548   1.521 -0.6592  0.6865  0.0832
  785MOL0     O 5888   6.069  -1.473   1.813  0.3058  0.4510 -0.6460
  785MOL0     C 5889   6.172  -1.145   1.757  0.3051  0.2356  0.3489
  785MOL0     C 5890   6.158  -1.008   1.799 -0.5921  0.4282  0.2088
  785MOL0     N 5891   5.471  -0.732   1.622  0.7573  0.3921  0.4211
  785MOL0     N 5892   5.511  -0.701   1.502  0.1439  0.6807 -0.1974
  785MOL0     C 5893   6.399   0.087   1.125 -0.0733  0.5318  0.4075
  785MOL0     C 5894   6.466   0.170   1.034 -0.8799 -1.0445  0.2215
  785MOL0     C 5895   6.774   0.433   0.858 -1.4842 -0.4033 -0.7338
  785MOL0     C 5896   6.899   0.402   0.792 -0.5674 -0.9089 -0.9346
  785MOL0     C 5897   6.981   0.502   0.748  0.6101 -0.5868  1.4754
  785MOL0     C 5898   6.940   0.640   0.760  0.1018 -0.1421 -0.2747
  785MOL0     O 5899   7.021   0.742   0.728  0.5117 -0.2520  0.5293
  785MOL0     C 5900   7.005   0.873   0.775 -0.3432 -0.6188  0.1638
  785MOL0     C 5901   7.105   0.958   0.691 -0.2693  0.0576  0.6123
  785MOL0     C 5902   7.067   1.109   0.701  0.0166  0.6015  0.0102
  785MOL0     C 5903   7.185   1.199   0.654  0.5985  0.2040  0.7383
  785MOL0     C 5904   7.121   1.331   0.653 -0.0586  0.3053  0.2880
  785MOL0     C 5905   7.081   1.447   0.653  0.5734 -0.3857 -0.2646
  785MOL0     C 5906   6.812   0.669   0.826  0.0448 -0.6532 -0.0536
  785MOL0     C 5907   6.731   0.570   0.870  0.0162 -0.5562 -0.5246
  785MOL0     H 5908   6.545   0.424   1.223 -0.6028 -0.0451  3.5780
  785MOL0     H 5909   6.429   0.286   1.403  0.5999 -1.3127 -0.2153
  785MOL0     H 5910   6.325   0.129   1.519  1.4165 -1.1224 -0.7905
  785MOL0     H 5911   6.189   0.201   1.419 -0.0928 -0.2781  0.6858
  785MOL0     H 5912   6.224  -0.063   1.544  0.8920  1.1431  2.1255
  785MOL0     H 5913   6.125   0.056   1.615  2.9065 -3.4892  2.0371
  785MOL0     H 5914   5.962   0.056   1.416  1.4208  0.9355  3.1096
  785MOL0     H 5915   6.073  -0.066   1.339  2.5058 -1.3268  1.9821
  785MOL0     H 5916   6.027  -0.240   1.486  0.7126  0.7183  0.3314
  785MOL0     H 5917   5.940  -0.139   1.601 -0.2821  2.1358 -0.8891
  785MOL0     H 5918   5.743  -0.112   1.439 -2.4663 -1.4186 -2.7582
  785MOL0     H 5919   5.834  -0.204   1.330  2.3068  2.7068  0.5492
  785MOL0     H 5920   5.845  -0.386   1.512 -0.4605 -0.1857  0.0089
  785MOL0     H 5921   5.738  -0.310   1.619 -1.3347  0.1119  0.3201
  785MOL0     H 5922   5.545  -0.331   1.482 -1.7746 -0.7394 -2.3438
  785MOL0     H 5923   5.633  -0.319   1.334 -0.6343  1.2374 -0.0655
  785MOL0     H 5924   5.746  -0.559   1.382 -0.1614 -1.7284  0.8726
  785MOL0     H 5925   5.588  -0.548   1.323  1.4602  0.9266 -0.4129
  785MOL0     H 5926   5.707  -0.526   1.697  1.9642  0.9952 -1.3550
  785MOL0     H 5927   5.504  -0.640   1.910  1.7028  1.9625 -0.1964
  785MOL0     H 5928   5.503  -0.812   1.874  0.3967 -0.0764 -0.3514
  785MOL0     H 5929   5.715  -0.709   2.035  1.7688 -0.0414  0.2251
  785MOL0     H 5930   5.748  -0.605   1.906  0.7467 -0.9657  1.7852
  785MOL0     H 5931   5.835  -0.744   1.777 -2.6729  1.4834 -0.9570
  785MOL0     H 5932   5.768  -0.893   1.870 -0.4523  1.1278  0.3076
  785MOL0     H 5933   5.898  -0.859   2.051 -0.6837 -1.0303 -1.2269
  785MOL0     H 5934   5.934  -0.702   2.016  0.2434 -2.4004  5.2335
  785MOL0     H 5935   5.921  -1.058   2.038 -0.0891  2.8131 -1.0310
  785MOL0     H 5936   5.863  -1.379   1.930  1.8789 -0.6150  0.7595
  785MOL0     H 5937   5.974  -1.373   2.069 -1.0312 -1.6658 -0.1675
  785MOL0     H 5938   5.851  -1.255   2.053  0.9609  2.0568 -0.0970
  785MOL0     H 5939   6.271  -1.603   1.851 -0.2127 -0.7055 -0.2957
  785MOL0     H 5940   6.408  -1.818   1.795 -2.0095 -0.7228 -0.2905
  785MOL0     H 5941   6.363  -1.996   1.458 -0.6705  0.1563  0.3219
  785MOL0     H 5942   6.490  -1.899   1.373 -0.3623 -0.7042 -0.0211
  785MOL0     H 5943   6.532  -2.153   1.530 -0.4027 -0.4064 -0.9025
  785MOL0     H 5944   6.519  -2.145   1.354  1.2845 -1.5558  0.0224
  785MOL0     H 5945   6.721  -1.999   1.516 -0.3106 -0.8254  1.2427
  785MOL0     H 5946   6.718  -2.010   1.335  1.6022  1.9337  0.6047
  785MOL0     H 5947   6.876  -2.179   1.421  0.0723 -1.6431  0.3731
  785MOL0     H 5948   6.746  -2.249   1.517  2.0245 -0.4855  0.0293
  785MOL0     H 5949   6.823  -2.241   1.225 -0.5230  1.4464 -1.0281
  785MOL0     H 5950   6.651  -2.239   1.251 -0.3449  0.0665 -0.0527
  785MOL0     H 5951   6.665  -2.443   1.417 -3.7078 -2.1222 -2.2832
  785MOL0     H 5952   6.656  -2.455   1.250 -2.2031 -0.0474  1.8657
  785MOL0     H 5953   6.936  -2.455   1.368  2.6782 -3.1733 -0.6424
  785MOL0     H 5954   6.882  -2.520   1.210 -1.3994 -0.5310 -0.0052
  785MOL0     H 5955   6.840  -2.634   1.489 -3.5314 -1.0302 -0.4558
  785MOL0     H 5956   6.944  -2.685   1.353  0.6510  1.7438 -1.7152
  785MOL0     H 5957   6.465  -1.685   1.401  1.5533  0.4253 -0.2349
  785MOL0     H 5958   6.303  -1.474   1.445 -0.1378  1.2836  0.4872
  785MOL0     H 5959   6.251  -1.157   1.683  0.0777  1.2973 -0.0900
  785MOL0     H 5960   6.229  -0.940   1.753  0.8742 -1.0575  0.1534
  785MOL0     H 5961   6.346  -0.004   1.099  1.3853 -0.9579  2.3521
  785MOL0     H 5962   6.484   0.139   0.931  0.6195 -0.0925  0.1611
  785MOL0     H 5963   6.948   0.305   0.791  4.6277  1.4077 -2.0500
  785MOL0     H 5964   7.085   0.487   0.718  0.2345 -1.3194  0.4900
  785MOL0     H 5965   6.905   0.904   0.741  0.0015  1.1152  0.6133
  785MOL0     H 5966   7.005   0.888   0.883 -1.6079 -0.2400  0.1300
  785MOL0     H 5967   7.099   0.934   0.585 -1.3886 -0.1749  0.7171
  785MOL0     H 5968   7.206   0.945   0.731  0.7374  4.8424  0.2523
  785MOL0     H 5969   7.038   1.138   0.802  0.8674  1.4712  0.0221
  785MOL0     H 5970   6.980   1.126   0.637  1.5241  0.1733 -2.3073
  785MOL0     H 5971   7.212   1.170   0.552 -1.3419  0.8512 -0.0078
  785MOL0     H 5972   7.271   1.203   0.721  0.9465  2.8730  0.2501
  785MOL0     H 5973   7.040   1.545   0.638  1.6035  0.0455 -0.3340
  785MOL0     H 5974   6.767   0.766   0.845 -0.6694 -0.8868 -0.4934
  785MOL0     H 5975   6.635   0.584   0.920  0.8367 -4.8314  2.9531
  786MOL0     O 5976   6.496   3.941   1.170 -0.5685 -0.3849  0.1478
  786MOL0     C 5977   6.465   3.925   1.050 -0.1692  0.2059 -0.5282
  786MOL0     O 5978   6.518   3.987   0.943  0.9096 -0.3320 -0.9034
  786MOL0     C 5979   6.606   4.089   0.981 -0.0771 -0.6093  0.9438
  786MOL0     C 5980   6.562   4.225   0.981 -1.2070 -0.1403 -0.8207
  786MOL0     C 5981   6.655   4.323   1.016 -0.3887 -0.4600 -0.7036
  786MOL0     C 5982   6.785   4.290   1.056  0.0912 -0.2151 -0.6004
  786MOL0     O 5983   6.872   4.393   1.060 -0.3196 -0.7231 -0.0966
  786MOL0     C 5984   7.005   4.388   1.113 -0.8213 -0.2360 -0.0125
  786MOL0     C 5985   7.056   4.536   1.132  0.2950 -1.1116 -0.1194
  786MOL0     C 5986   7.202   4.547   1.140  0.2389  0.5655  0.2934
  786MOL0     C 5987   7.244   4.698   1.172  0.3917  0.0218  1.1070
  786MOL0     C 5988   7.393   4.739   1.183  0.2784 -0.4509 -0.4954
  786MOL0     C 5989   7.467   4.687   1.316 -0.5815 -0.3056  0.0790
  786MOL0     C 5990   7.622   4.701   1.326 -0.1765  1.4762  0.2739
  786MOL0     C 5991   7.706   4.621   1.219 -0.6746  0.0093  0.0172
  786MOL0     N 5992   7.841   4.663   1.186 -0.3110  0.2194  0.2229
  786MOL0     C 5993   7.952   4.615   1.246 -0.7365 -0.1241  0.0699
  786MOL0     C 5994   8.060   4.647   1.170  0.0565 -0.2279 -0.2866
  786MOL0     C 5995   8.208   4.609   1.191  0.4334  0.5167 -0.0893
  786MOL0     C 5996   8.292   4.735   1.182  0.1340 -0.6581  0.5362
  786MOL0     C 5997   8.436   4.709   1.226  0.2823 -0.4358 -0.2015
  786MOL0     C 5998   8.521   4.830   1.186 -0.1788  0.5262  0.2848
  786MOL0     O 5999   8.639   4.838   1.271 -0.3957 -0.3239 -0.9333
  786MOL0     C 6000   8.754   4.898   1.230  0.4421 -0.6273  0.7812
  786MOL0     C 6001   8.777   4.955   1.106 -0.6306  0.2397 -0.9540
  786MOL0     C 6002   8.905   4.995   1.064 -0.3153  0.2258  0.2217
  786MOL0     C 6003   8.923   5.050   0.926 -0.1070 -0.6784  0.2950
  786MOL0     C 6004   9.013   4.973   1.152 -0.2804 -0.2545  0.4050
  786MOL0     C 6005   9.152   5.020   1.116  0.2179 -0.0533 -0.4436
  786MOL0     O 6006   9.258   4.932   1.143  0.3843 -0.4685  1.0136
  786MOL0     C 6007   9.372   4.948   1.075 -0.2700  0.0239 -0.6315
  786MOL0     C 6008   9.427   4.830   1.044 -0.0745  0.3087 -0.1815
  786MOL0     C 6009   9.541   4.817   0.962 -0.5772  0.9171 -0.1585
  786MOL0     C 6010   9.594   4.932   0.905  0.0444  0.2456 -0.3412
  786MOL0     O 6011   9.701   4.946   0.818  0.1274  0.0376 -0.4500
  786MOL0     C 6012   9.745   4.821   0.774 -0.9167 -0.3556 -0.2209
  786MOL0     C 6013   9.805   4.847   0.635  0.6036  0.0560  0.3913
  786MOL0     C 6014   9.704   4.882   0.523  0.5373 -0.9583 -0.5170
  786MOL0     C 6015   9.636   4.757   0.459 -0.0560  0.5683  0.2290
  786MOL0     C 6016   9.510   4.793   0.396  0.1239 -0.1849 -0.2987
  786MOL0     C 6017   9.515   4.908   0.286  0.5285 -0.0191 -0.7007
  786MOL0     C 6018   9.389   4.986   0.275  0.1334 -0.0117  0.2690
  786MOL0     C 6019   9.408   5.082   0.163  0.6463 -0.1183  0.1599
  786MOL0    Cl 6020   9.519   5.221   0.193  0.1788 -0.2812 -0.3727
  786MOL0     C 6021   9.551   5.060   0.953  0.3732  0.4981  0.6000
  786MOL0     C 6022   9.443   5.067   1.040 -0.2756  0.0416 -0.0422
  786MOL0     O 6023   9.165   5.141   1.080  0.3213 -0.3257 -0.2300
  786MOL0     C 6024   8.995   4.913   1.279 -0.3927  0.0421  0.7194
  786MOL0     C 6025   8.862   4.873   1.313 -0.1712  0.6966 -0.6696
  786MOL0     N 6026   8.005   4.727   1.071 -0.0372 -0.8590 -0.0930
  786MOL0     N 6027   7.880   4.735   1.078  0.1168 -0.5568 -1.1576
  786MOL0     C 6028   6.821   4.157   1.052 -0.3381  0.4159 -0.7999
  786MOL0     C 6029   6.734   4.062   1.022  0.2231  0.9971 -0.0268
  786MOL0     C 6030   6.340   3.848   1.023 -0.5556 -0.2434  0.5399
  786MOL0     C 6031   6.336   3.749   0.924 -0.4356  0.1903  0.0586
  786MOL0     C 6032   6.217   3.668   0.904 -0.1727 -0.3483 -1.1603
  786MOL0     C 6033   6.107   3.697   0.980  0.2135 -0.2781 -0.5692
  786MOL0     O 6034   5.987   3.635   0.941  0.1527 -0.4872 -0.3760
  786MOL0     C 6035   5.860   3.687   0.978  0.4021  0.8441  0.5956
  786MOL0     C 6036   5.751   3.646   0.881 -0.1376 -0.3437  0.3901
  786MOL0     C 6037   5.733   3.494   0.893 -0.0795 -0.3740 -0.4248
  786MOL0     C 6038   5.842   3.414   0.820  0.6075  0.0331  0.3271
  786MOL0     C 6039   5.771   3.305   0.743 -0.1888  0.1326 -0.0733
  786MOL0     C 6040   5.711   3.226   0.676  0.2045  0.1789 -0.2071
  786MOL0     C 6041   6.105   3.798   1.071 -0.1171  0.6237  1.1100
  786MOL0     C 6042   6.225   3.868   1.099  0.9837 -0.4138 -0.8968
  786MOL0     H 6043   6.457   4.249   0.969 -1.3831 -0.3648  0.1991
  786MOL0     H 6044   6.639   4.430   1.012 -1.0203 -0.5900 -1.9682
  786MOL0     H 6045   7.012   4.335   1.208  0.3946 -0.1667 -0.0556
  786MOL0     H 6046   7.061   4.331   1.039 -1.2534 -0.6025 -0.0607
  786MOL0     H 6047   7.041   4.596   1.042 -0.6960 -2.5094 -0.9312
  786MOL0     H 6048   7.011   4.580   1.222  2.1160 -0.3572  0.4539
  786MOL0     H 6049   7.228   4.484   1.225 -2.1909  1.5566  1.8860
  786MOL0     H 6050   7.245   4.512   1.045 -0.7368 -0.4210  0.1867
  786MOL0     H 6051   7.212   4.764   1.091  1.6861  0.7149  1.1439
  786MOL0     H 6052   7.185   4.727   1.260 -1.6630  0.1713 -0.2446
  786MOL0     H 6053   7.451   4.703   1.098  3.9893 -0.4000  1.7785
  786MOL0     H 6054   7.407   4.847   1.172  0.8550 -0.7406 -3.4663
  786MOL0     H 6055   7.424   4.742   1.400  1.9784 -0.1409  1.3781
  786MOL0     H 6056   7.436   4.583   1.331 -2.1022  0.5383  4.0293
  786MOL0     H 6057   7.646   4.807   1.320 -1.3219  1.7164 -0.3761
  786MOL0     H 6058   7.649   4.683   1.430  1.3127  0.6907 -0.2134
  786MOL0     H 6059   7.649   4.631   1.127  1.6604  2.6775 -1.3207
  786MOL0     H 6060   7.706   4.517   1.253 -1.4870  1.1327  4.1219
  786MOL0     H 6061   7.953   4.548   1.331  1.1611 -0.3103 -0.0715
  786MOL0     H 6062   8.230   4.554   1.283 -0.0904 -0.1222 -0.3373
  786MOL0     H 6063   8.224   4.536   1.110 -1.8053 -2.6727  2.0936
  786MOL0     H 6064   8.262   4.817   1.247  1.9210  2.0908 -1.8469
  786MOL0     H 6065   8.280   4.772   1.080 -0.3139 -2.1413  0.0161
  786MOL0     H 6066   8.471   4.612   1.190  1.5321  0.5391 -1.7509
  786MOL0     H 6067   8.438   4.702   1.335 -0.0924 -3.4725 -0.2906
  786MOL0     H 6068   8.462   4.922   1.185  1.3051  1.7875  4.9373
  786MOL0     H 6069   8.545   4.819   1.080  0.5773 -0.0430  0.5088
  786MOL0     H 6070   8.696   4.967   1.035  1.8462  1.9207 -3.7587
  786MOL0     H 6071   8.975   4.983   0.857  0.4087 -0.1315  0.1456
  786MOL0     H 6072   8.828   5.088   0.887  0.3290  2.2377  1.8018
  786MOL0     H 6073   8.976   5.146   0.925  0.4971 -1.0039  0.5449
  786MOL0     H 6074   9.383   4.742   1.090  0.5826  0.6299  1.1066
  786MOL0     H 6075   9.560   4.712   0.941 -4.6819 -0.2295  0.9016
  786MOL0     H 6076   9.823   4.774   0.834 -0.7605 -0.0579 -0.1891
  786MOL0     H 6077   9.661   4.752   0.759 -0.9056 -0.4493  0.1316
  786MOL0     H 6078   9.863   4.939   0.648 -0.5333  1.3479 -2.6669
  786MOL0     H 6079   9.874   4.767   0.609  1.5342 -0.1092  3.1016
  786MOL0     H 6080   9.750   4.953   0.453 -1.6633  2.2758  1.0449
  786MOL0     H 6081   9.622   4.929   0.579  1.8244  2.0575 -0.9828
  786MOL0     H 6082   9.701   4.716   0.382 -0.3966 -2.5160  1.4400
  786MOL0     H 6083   9.624   4.668   0.522  3.2155 -1.4525 -1.7248
  786MOL0     H 6084   9.443   4.833   0.473 -1.0489  0.4555 -1.5976
  786MOL0     H 6085   9.465   4.695   0.377  2.3666 -2.3357  4.0927
  786MOL0     H 6086   9.600   4.976   0.286 -1.4079  2.6233 -2.8450
  786MOL0     H 6087   9.536   4.850   0.196  0.3544 -1.4442  0.1399
  786MOL0     H 6088   9.382   5.035   0.373 -0.1576 -0.3929  0.4411
  786MOL0     H 6089   9.309   4.916   0.248  0.4641 -0.1783 -0.2878
  786MOL0     H 6090   9.312   5.130   0.143  0.3883 -0.0137  1.5594
  786MOL0     H 6091   9.433   5.033   0.068 -2.0222  1.2796 -1.3770
  786MOL0     H 6092   9.591   5.153   0.913 -2.9404  1.9197  0.2657
  786MOL0     H 6093   9.417   5.166   1.075  2.8129  1.1273 -0.4714
  786MOL0     H 6094   9.079   4.892   1.344 -0.8276 -0.0355  1.2668
  786MOL0     H 6095   8.854   4.805   1.398  0.5197 -1.2592 -2.0936
  786MOL0     H 6096   6.926   4.139   1.071  0.2012  2.1999 -1.8616
  786MOL0     H 6097   6.747   3.956   1.040 -2.4255  0.6620  0.3928
  786MOL0     H 6098   6.416   3.722   0.855  0.6080 -0.2607  1.3996
  786MOL0     H 6099   6.224   3.582   0.838  3.3747 -2.0580  1.0834
  786MOL0     H 6100   5.838   3.639   1.073  2.8935 -2.5475 -0.3314
  786MOL0     H 6101   5.846   3.795   0.975 -1.9771  0.5721 -0.4546
  786MOL0     H 6102   5.787   3.676   0.782 -0.1883 -1.7157 -0.0721
  786MOL0     H 6103   5.656   3.697   0.898 -0.6215 -0.1767 -2.3067
  786MOL0     H 6104   5.646   3.466   0.832 -0.0662  1.7057 -1.4835
  786MOL0     H 6105   5.725   3.464   0.998 -0.8596 -0.6858 -0.5714
  786MOL0     H 6106   5.916   3.370   0.887  1.4839 -1.9279 -1.7889
  786MOL0     H 6107   5.898   3.467   0.743 -0.3820 -3.8992 -3.5156
  786MOL0     H 6108   5.647   3.165   0.616  0.4038  1.4338 -1.7677
  786MOL0     H 6109   6.013   3.832   1.117  0.8181  0.5226  3.1421
  786MOL0     H 6110   6.228   3.941   1.180 -0.1873 -1.0260 -0.2763
  787MOL0     O 6111   7.305   7.580   0.992 -0.3315  0.1985 -0.1329
  787MOL0     C 6112   7.343   7.507   1.079  0.8791 -1.3193  0.5260
  787MOL0     O 6113   7.284   7.494   1.205 -0.6810 -0.0815  0.5211
  787MOL0     C 6114   7.162   7.546   1.234 -0.1655 -0.0841 -0.2446
  787MOL0     C 6115   7.056   7.576   1.143  0.7381 -0.4106 -0.2925
  787MOL0     C 6116   6.935   7.620   1.188 -0.1052 -0.6462 -0.7220
  787MOL0     C 6117   6.911   7.636   1.324  0.0829  0.3203  0.3277
  787MOL0     O 6118   6.801   7.683   1.379 -0.1640  0.2373  0.2596
  787MOL0     C 6119   6.676   7.710   1.302  0.0235  0.1072 -0.2197
  787MOL0     C 6120   6.595   7.819   1.369 -0.0353 -0.3748 -0.3117
  787MOL0     C 6121   6.678   7.951   1.395 -0.8695  0.2524  0.6036
  787MOL0     C 6122   6.660   8.053   1.279  0.1149 -0.1349  0.5115
  787MOL0     C 6123   6.752   8.177   1.288  0.7724 -0.8003  0.3571
  787MOL0     C 6124   6.676   8.286   1.362 -0.3245 -0.2385 -0.3849
  787MOL0     C 6125   6.761   8.408   1.388  0.5271  0.5503  0.7276
  787MOL0     C 6126   6.888   8.380   1.467  0.1435  0.2691 -0.0972
  787MOL0     N 6127   6.959   8.499   1.494 -1.2202 -1.0719  0.0500
  787MOL0     C 6128   6.961   8.559   1.617 -0.2383  0.7684 -0.0698
  787MOL0     C 6129   7.055   8.651   1.604  0.2674 -1.0703  0.3244
  787MOL0     C 6130   7.100   8.744   1.712 -0.4203  0.8338  0.0402
  787MOL0     C 6131   6.991   8.848   1.743 -0.2110 -0.2133 -0.8543
  787MOL0     C 6132   7.024   8.950   1.849 -0.2631  0.5191 -0.8478
  787MOL0     C 6133   6.895   9.033   1.878 -0.5035  0.2577 -0.5418
  787MOL0     O 6134   6.778   8.943   1.901  0.6457 -0.3432 -0.6897
  787MOL0     C 6135   6.652   8.994   1.927 -0.0504  0.1927  0.1476
  787MOL0     C 6136   6.599   9.111   1.865  0.1228 -0.1611 -0.1542
  787MOL0     C 6137   6.462   9.150   1.872  0.2700 -0.9709 -0.3262
  787MOL0     C 6138   6.407   9.275   1.797 -0.4820  0.2734 -0.1916
  787MOL0     C 6139   6.377   9.065   1.957 -0.5304 -0.3650  1.0455
  787MOL0     C 6140   6.232   9.093   1.955 -0.5830 -0.7536 -0.4296
  787MOL0     O 6141   6.184   9.213   1.945 -0.9311  0.0275  1.0761
  787MOL0     C 6142   6.059   9.252   1.969  0.5357  0.8902 -0.5533
  787MOL0     C 6143   6.009   9.358   1.896 -0.9984 -0.4139 -0.3912
  787MOL0     C 6144   5.881   9.412   1.923  0.0825 -0.7591  0.1209
  787MOL0     C 6145   5.788   9.356   2.008  0.0663 -0.4122 -0.5790
  787MOL0     O 6146   5.656   9.400   2.016 -0.0717 -0.3876 -0.3021
  787MOL0     C 6147   5.559   9.321   2.079 -1.0399 -0.1513  0.1344
  787MOL0     C 6148   5.409   9.359   2.053 -0.2970  0.4011  0.1149
  787MOL0     C 6149   5.308   9.247   2.084 -0.7486  1.0503  0.6530
  787MOL0     C 6150   5.169   9.302   2.061 -0.1742  0.1486 -0.1705
  787MOL0     C 6151   5.079   9.188   2.084 -0.1828  0.3733 -1.0192
  787MOL0     C 6152   4.927   9.208   2.041  0.6792  0.1434 -0.9394
  787MOL0     C 6153   4.875   9.135   1.916 -0.3903 -0.1801  0.6565
  787MOL0     C 6154   4.827   8.991   1.945  0.6227 -0.2537  0.2813
  787MOL0    Cl 6155   4.717   8.992   2.078  0.3276  0.0373 -0.1336
  787MOL0     C 6156   5.843   9.246   2.083 -0.4490  0.5883 -0.0688
  787MOL0     C 6157   5.975   9.195   2.065 -0.2159  0.3499 -0.3142
  787MOL0     O 6158   6.172   8.987   1.952  0.0317  0.1228  0.2575
  787MOL0     C 6159   6.435   8.956   2.022 -0.6198 -0.0338  0.1533
  787MOL0     C 6160   6.568   8.920   2.003  0.6582  0.3087  0.3473
  787MOL0     N 6161   7.113   8.642   1.484  0.6733 -0.1918 -0.3986
  787MOL0     N 6162   7.054   8.553   1.411 -0.3351 -0.0893 -0.2553
  787MOL0     C 6163   7.016   7.600   1.409 -1.2124 -0.1680  0.3754
  787MOL0     C 6164   7.140   7.565   1.367  0.4909  0.7662  0.5426
  787MOL0     C 6165   7.442   7.409   1.042 -0.7269 -0.2277  0.3220
  787MOL0     C 6166   7.507   7.399   0.919  0.8306  0.1845 -0.1449
  787MOL0     C 6167   7.619   7.315   0.897  0.4601  1.0684  0.2575
  787MOL0     C 6168   7.664   7.234   1.004 -0.0404  0.2828  0.8138
  787MOL0     O 6169   7.772   7.160   0.972  0.7071 -0.6007  0.0427
  787MOL0     C 6170   7.871   7.130   1.074  0.6613  0.6761  0.4083
  787MOL0     C 6171   7.986   7.225   1.095  0.7298 -0.7751 -0.0675
  787MOL0     C 6172   7.926   7.368   1.124  1.1074  0.8884  0.3200
  787MOL0     C 6173   8.027   7.477   1.135  0.7870 -0.0674 -0.7157
  787MOL0     C 6174   8.105   7.497   1.009 -0.4656 -0.0153 -0.6835
  787MOL0     C 6175   8.160   7.495   0.897 -0.2827 -0.5219  0.2824
  787MOL0     C 6176   7.595   7.231   1.123 -0.3344 -0.2975  0.3999
  787MOL0     C 6177   7.487   7.317   1.140 -0.1852  0.3804  0.4647
  787MOL0     H 6178   7.075   7.550   1.039  1.5244 -0.5887 -0.1079
  787MOL0     H 6179   6.861   7.662   1.120 -1.0889 -1.4084 -0.1700
  787MOL0     H 6180   6.712   7.746   1.204  0.9159 -3.4607 -1.3602
  787MOL0     H 6181   6.607   7.628   1.281 -1.9208  1.8986 -1.2794
  787MOL0     H 6182   6.513   7.838   1.299  0.3338  3.6786  0.1103
  787MOL0     H 6183   6.561   7.787   1.468  0.1974  3.2473  1.0848
  787MOL0     H 6184   6.644   7.986   1.493 -3.3776 -0.4143  0.0542
  787MOL0     H 6185   6.786   7.935   1.395 -0.5025  2.4927  0.5439
  787MOL0     H 6186   6.688   8.016   1.180 -0.3599 -1.2689  0.7855
  787MOL0     H 6187   6.554   8.082   1.273  0.1543 -0.1116 -0.1423
  787MOL0     H 6188   6.852   8.153   1.326  2.0945  1.9930 -1.0150
  787MOL0     H 6189   6.764   8.216   1.186  1.1869 -0.7302  0.4318
  787MOL0     H 6190   6.585   8.319   1.312  0.6783  1.9787 -0.8648
  787MOL0     H 6191   6.651   8.253   1.463 -0.2834  0.8436 -0.0141
  787MOL0     H 6192   6.790   8.437   1.286 -0.2266  1.2058  0.6793
  787MOL0     H 6193   6.695   8.486   1.429 -0.0988  0.2986  0.2276
  787MOL0     H 6194   6.961   8.319   1.413  2.0893  2.8422 -0.5818
  787MOL0     H 6195   6.859   8.339   1.564 -2.2702  2.7764  0.3754
  787MOL0     H 6196   6.900   8.522   1.699  0.3189 -0.6346 -0.2652
  787MOL0     H 6197   7.129   8.687   1.801  3.5132 -1.6775 -2.4895
  787MOL0     H 6198   7.192   8.795   1.680 -1.0678  1.5436 -0.7275
  787MOL0     H 6199   6.910   8.776   1.759  0.3606 -0.7069 -0.1650
  787MOL0     H 6200   6.971   8.909   1.654 -0.5761 -1.9143 -1.9736
  787MOL0     H 6201   7.103   9.018   1.817  2.7165 -1.6203  1.3004
  787MOL0     H 6202   7.068   8.904   1.939 -0.0440  1.9577 -0.1816
  787MOL0     H 6203   6.877   9.109   1.802 -0.1145 -0.2261 -1.1282
  787MOL0     H 6204   6.918   9.082   1.972  2.8458 -0.9745 -0.5685
  787MOL0     H 6205   6.673   9.182   1.830  3.3846 -2.2843  1.8262
  787MOL0     H 6206   6.323   9.263   1.728  0.4084  0.1139 -1.2780
  787MOL0     H 6207   6.373   9.351   1.868 -0.6587  0.4893 -0.5058
  787MOL0     H 6208   6.491   9.325   1.747  1.1875  0.3229  2.5179
  787MOL0     H 6209   6.080   9.399   1.825  0.0788 -2.1307 -0.3577
  787MOL0     H 6210   5.861   9.499   1.861 -1.6124  1.1669  3.1194
  787MOL0     H 6211   5.579   9.217   2.054  0.6520 -0.8375  3.6229
  787MOL0     H 6212   5.570   9.315   2.188 -1.9008 -1.0870  0.1761
  787MOL0     H 6213   5.373   9.442   2.115 -0.0506  1.5428 -1.2411
  787MOL0     H 6214   5.389   9.395   1.952 -0.8569  1.2802  0.5258
  787MOL0     H 6215   5.327   9.205   2.183  0.6388  0.1657  0.0398
  787MOL0     H 6216   5.324   9.161   2.018 -1.3597  0.4023  1.3336
  787MOL0     H 6217   5.141   9.396   2.108 -0.4886  0.6709 -1.3722
  787MOL0     H 6218   5.167   9.319   1.953  1.2953  0.9659 -0.0915
  787MOL0     H 6219   5.089   9.158   2.189  4.1847  1.6078 -0.8973
  787MOL0     H 6220   5.102   9.098   2.026 -3.5120  1.9338 -5.2344
  787MOL0     H 6221   4.863   9.207   2.130 -1.1972  0.8682 -2.2030
  787MOL0     H 6222   4.923   9.312   2.006  1.0748 -0.5470 -3.2221
  787MOL0     H 6223   4.953   9.114   1.843 -1.3413  0.4459 -0.5899
  787MOL0     H 6224   4.793   9.190   1.869 -1.7058 -3.9396 -1.9080
  787MOL0     H 6225   4.907   8.917   1.956  1.0728 -0.0302 -1.2219
  787MOL0     H 6226   4.774   8.951   1.858 -0.3559 -0.1660  0.8216
  787MOL0     H 6227   5.782   9.187   2.150  1.0522  0.2162  1.0219
  787MOL0     H 6228   6.006   9.110   2.124  1.1308  1.0885  0.0774
  787MOL0     H 6229   6.376   8.885   2.080  1.6602 -0.9006  1.5607
  787MOL0     H 6230   6.609   8.845   2.071 -1.2163  0.5084  1.7793
  787MOL0     H 6231   7.006   7.603   1.517 -0.5771  1.7905  0.4274
  787MOL0     H 6232   7.218   7.535   1.437  0.0116 -1.2690  0.2704
  787MOL0     H 6233   7.478   7.445   0.825  2.0550 -1.2663 -1.2842
  787MOL0     H 6234   7.671   7.325   0.802  0.2343 -2.1703 -0.3148
  787MOL0     H 6235   7.812   7.097   1.160  0.1809 -1.2637 -0.6015
  787MOL0     H 6236   7.922   7.039   1.039 -0.6487  0.3554 -0.7620
  787MOL0     H 6237   8.047   7.209   1.006 -2.5829 -2.5443 -2.1996
  787MOL0     H 6238   8.044   7.197   1.184  3.0159 -0.0301 -1.2504
  787MOL0     H 6239   7.874   7.367   1.221  1.3173  2.2327  0.4606
  787MOL0     H 6240   7.857   7.400   1.045  1.2089  0.1477 -0.0811
  787MOL0     H 6241   8.089   7.445   1.220  1.4405 -0.9936 -1.5116
  787MOL0     H 6242   7.981   7.566   1.178 -0.3925 -1.1524  0.3459
  787MOL0     H 6243   8.209   7.508   0.803 -0.4456 -1.2434  0.0916
  787MOL0     H 6244   7.622   7.150   1.189 -0.3375 -1.1127 -0.5827
  787MOL0     H 6245   7.449   7.317   1.242 -1.8052 -0.3243 -0.1087
  788MOL0     O 6246   2.982   2.281   7.446 -0.4833 -0.1617 -0.3254
  788MOL0     C 6247   3.026   2.394   7.468  0.1625 -0.4266  0.2759
  788MOL0     O 6248   2.950   2.506   7.457 -0.3137  1.2027  0.5256
  788MOL0     C 6249   2.812   2.494   7.454 -0.1305 -0.0740 -0.2465
  788MOL0     C 6250   2.738   2.548   7.345 -0.5268 -0.2830 -0.9256
  788MOL0     C 6251   2.602   2.554   7.338 -1.1328 -0.5221 -0.0365
  788MOL0     C 6252   2.533   2.497   7.439  0.0327 -0.4203  0.0775
  788MOL0     O 6253   2.395   2.498   7.437 -0.5839 -0.1302  0.1068
  788MOL0     C 6254   2.328   2.610   7.385  0.3243  0.0254 -0.9753
  788MOL0     C 6255   2.184   2.595   7.429 -0.7287 -0.8406  0.6821
  788MOL0     C 6256   2.151   2.661   7.569  0.0753  1.3124 -0.5487
  788MOL0     C 6257   2.253   2.625   7.684 -0.1097  0.1753 -0.4430
  788MOL0     C 6258   2.198   2.640   7.826  0.3069 -0.6018 -0.7312
  788MOL0     C 6259   2.297   2.610   7.933  0.4322 -0.3665  0.6652
  788MOL0     C 6260   2.421   2.706   7.930  0.7796  0.0167  0.8649
  788MOL0     C 6261   2.511   2.679   8.051  0.8114 -0.2584  0.1801
  788MOL0     N 6262   2.511   2.801   8.126 -0.3044  0.7233  0.0030
  788MOL0     C 6263   2.412   2.842   8.206 -0.1967 -0.0368 -0.1853
  788MOL0     C 6264   2.433   2.969   8.237  0.8626 -0.2729  0.3409
  788MOL0     C 6265   2.346   3.033   8.341  0.1757 -0.5379 -0.7391
  788MOL0     C 6266   2.397   3.175   8.379 -0.7392  0.9228  1.2767
  788MOL0     C 6267   2.412   3.268   8.255  0.0686 -0.9537 -0.0436
  788MOL0     C 6268   2.277   3.336   8.205 -1.2384 -0.2623  0.5546
  788MOL0     O 6269   2.184   3.238   8.148  0.5485 -0.1470  0.6766
  788MOL0     C 6270   2.048   3.268   8.136  0.6397  0.5731  0.3513
  788MOL0     C 6271   1.966   3.154   8.116  0.6104  0.2147 -1.4287
  788MOL0     C 6272   1.824   3.169   8.118 -0.0256 -0.9192 -0.1973
  788MOL0     C 6273   1.741   3.040   8.116 -0.7560 -0.2425  0.5444
  788MOL0     C 6274   1.767   3.301   8.118  0.9378  0.1601  0.5928
  788MOL0     C 6275   1.615   3.330   8.103 -0.2013  0.9805 -0.0206
  788MOL0     O 6276   1.582   3.464   8.085 -0.3799 -1.1003 -0.4671
  788MOL0     C 6277   1.450   3.507   8.051 -0.0051 -0.5757 -0.5363
  788MOL0     C 6278   1.427   3.641   8.094 -0.6410 -0.1935  0.8726
  788MOL0     C 6279   1.295   3.691   8.072 -0.6810  0.1648  0.3221
  788MOL0     C 6280   1.198   3.618   7.995 -0.7995  0.1628  0.0751
  788MOL0     O 6281   1.073   3.666   7.957 -0.0850 -0.1360  0.3803
  788MOL0     C 6282   1.021   3.801   7.949 -0.7128 -0.3849  0.4745
  788MOL0     C 6283   0.968   3.822   7.808  0.0786  0.1784 -0.0378
  788MOL0     C 6284   0.905   3.967   7.791  0.6809  1.7232  1.0445
  788MOL0     C 6285   0.826   3.980   7.662  0.4749 -0.3084  0.6397
  788MOL0     C 6286   0.764   4.113   7.654  0.6749 -0.3405  0.3818
  788MOL0     C 6287   0.679   4.114   7.526 -1.0399 -0.2362 -1.4880
  788MOL0     C 6288   0.586   4.240   7.514 -0.5818  0.5452 -0.0537
  788MOL0     C 6289   0.538   4.268   7.372  0.1981 -0.1020  0.1803
  788MOL0    Cl 6290   0.411   4.140   7.352  0.2751 -0.0884  0.0311
  788MOL0     C 6291   1.225   3.482   7.952 -0.4357 -0.7291 -0.0834
  788MOL0     C 6292   1.355   3.432   7.990  0.4755 -0.4022  0.0091
  788MOL0     O 6293   1.532   3.240   8.117  0.2539  0.4498 -0.0325
  788MOL0     C 6294   1.850   3.410   8.115 -0.5138  0.1285 -0.8892
  788MOL0     C 6295   1.989   3.392   8.127  0.3408  0.2533  0.3122
  788MOL0     N 6296   2.552   3.002   8.178 -0.7005  0.0935 -0.1910
  788MOL0     N 6297   2.605   2.896   8.121  0.5765 -0.1868  0.2146
  788MOL0     C 6298   2.598   2.435   7.554 -0.2057 -0.3094  0.9683
  788MOL0     C 6299   2.740   2.437   7.560 -0.0307  0.7922  0.6853
  788MOL0     C 6300   3.170   2.417   7.457 -0.6047  0.2794  0.1465
  788MOL0     C 6301   3.221   2.540   7.427 -0.1743 -0.1918 -0.6602
  788MOL0     C 6302   3.359   2.568   7.419 -0.1662  0.5957  1.1853
  788MOL0     C 6303   3.450   2.460   7.443  0.4882  0.8816  0.3754
  788MOL0     O 6304   3.590   2.477   7.439  0.0758  0.0955  0.7099
  788MOL0     C 6305   3.643   2.589   7.362  0.2112  0.6664 -0.1613
  788MOL0     C 6306   3.617   2.568   7.209  0.2200  0.8670  0.0950
  788MOL0     C 6307   3.669   2.427   7.158  0.0540 -1.3972 -0.1690
  788MOL0     C 6308   3.670   2.417   7.008 -0.0166  0.4342 -0.7414
  788MOL0     C 6309   3.717   2.284   6.970  0.8259  0.1546 -0.2461
  788MOL0     C 6310   3.751   2.175   6.938  0.3530 -0.0189 -0.2599
  788MOL0     C 6311   3.399   2.333   7.460  0.3958 -0.2542 -1.1350
  788MOL0     C 6312   3.262   2.307   7.476  0.3012 -0.8749 -0.1474
  788MOL0     H 6313   2.801   2.593   7.268  0.5616  0.4491  0.3383
  788MOL0     H 6314   2.556   2.602   7.253 -1.0352  0.5080  0.4749
  788MOL0     H 6315   2.359   2.702   7.436 -3.5107  1.3392 -0.7248
  788MOL0     H 6316   2.331   2.615   7.276 -1.1011 -1.6165 -1.1307
  788MOL0     H 6317   2.104   2.621   7.359  1.0817 -0.3543 -1.3163
  788MOL0     H 6318   2.165   2.487   7.432  1.3932 -1.3738 -1.5551
  788MOL0     H 6319   2.143   2.770   7.566 -0.8481  1.2307 -1.8137
  788MOL0     H 6320   2.058   2.613   7.599  1.1879 -0.1967  0.6782
  788MOL0     H 6321   2.281   2.520   7.684 -0.1853  0.1361 -1.4942
  788MOL0     H 6322   2.350   2.675   7.680  0.1645 -0.0475  1.9015
  788MOL0     H 6323   2.158   2.741   7.842  0.0885 -0.9127  0.8759
  788MOL0     H 6324   2.113   2.574   7.846  2.1403 -2.2842  2.1912
  788MOL0     H 6325   2.253   2.622   8.032 -0.2793  4.6066 -0.0324
  788MOL0     H 6326   2.336   2.508   7.929 -1.7380 -1.2141 -0.9345
  788MOL0     H 6327   2.484   2.695   7.841 -1.1451  0.5700 -0.6565
  788MOL0     H 6328   2.380   2.808   7.933 -1.2514 -0.6310 -1.4778
  788MOL0     H 6329   2.611   2.658   8.011  0.1370  0.5202 -2.0389
  788MOL0     H 6330   2.483   2.588   8.106  1.5766 -0.7978 -0.2954
  788MOL0     H 6331   2.331   2.778   8.240 -1.6426  2.2532  0.9385
  788MOL0     H 6332   2.240   3.048   8.322 -0.4868 -1.4702  1.8011
  788MOL0     H 6333   2.351   2.961   8.423 -0.3399  0.3642  0.1056
  788MOL0     H 6334   2.491   3.153   8.431 -0.6398 -0.0214  0.7195
  788MOL0     H 6335   2.331   3.218   8.455 -0.6698 -2.9230  3.7786
  788MOL0     H 6336   2.470   3.219   8.176  1.0925 -0.1676  0.1982
  788MOL0     H 6337   2.474   3.356   8.274  1.3368 -2.2550  2.2949
  788MOL0     H 6338   2.307   3.414   8.135 -1.0416 -1.2493 -0.4748
  788MOL0     H 6339   2.237   3.382   8.296 -0.1425 -0.5195  1.1859
  788MOL0     H 6340   2.009   3.056   8.103  2.4481  1.0693 -2.0967
  788MOL0     H 6341   1.668   3.046   8.035 -2.4316  3.8614  2.0961
  788MOL0     H 6342   1.805   2.951   8.113 -0.5667 -0.0933  0.2220
  788MOL0     H 6343   1.690   3.039   8.213 -1.4258  0.6631  0.2182
  788MOL0     H 6344   1.509   3.698   8.137 -1.5455  0.2809  2.0247
  788MOL0     H 6345   1.286   3.793   8.108  1.2855  0.0603  1.2282
  788MOL0     H 6346   0.940   3.816   8.022  0.7632  0.1715  2.0818
  788MOL0     H 6347   1.095   3.879   7.966 -0.3886  0.0655 -2.5681
  788MOL0     H 6348   1.055   3.802   7.745 -0.7295  0.2936 -1.2349
  788MOL0     H 6349   0.895   3.744   7.786  0.4709 -1.0054  2.4967
  788MOL0     H 6350   0.981   4.039   7.822  1.7496 -0.5240  4.1384
  788MOL0     H 6351   0.824   3.979   7.863  0.4958 -0.0159  1.1691
  788MOL0     H 6352   0.890   3.966   7.574 -0.7618  1.5080 -0.6259
  788MOL0     H 6353   0.740   3.913   7.651 -1.7575  2.3486  0.8935
  788MOL0     H 6354   0.838   4.193   7.649 -0.3383  0.6252  0.5147
  788MOL0     H 6355   0.697   4.137   7.737  0.3226 -0.3513  0.1025
  788MOL0     H 6356   0.743   4.093   7.440  1.5734 -1.8029  0.6815
  788MOL0     H 6357   0.610   4.029   7.530  0.1379 -1.1739  0.6319
  788MOL0     H 6358   0.640   4.330   7.545  0.3725 -0.6088  1.8860
  788MOL0     H 6359   0.504   4.233   7.585  0.2847 -0.4309  0.9025
  788MOL0     H 6360   0.613   4.261   7.293  0.0781  3.6777 -0.4406
  788MOL0     H 6361   0.493   4.367   7.366  1.0786  0.2123 -2.5805
  788MOL0     H 6362   1.142   3.428   7.908 -0.0114 -1.7992  0.3730
  788MOL0     H 6363   1.381   3.332   7.960  2.2005 -0.0690  0.2963
  788MOL0     H 6364   1.805   3.509   8.109 -2.4200 -0.8079 -3.6572
  788MOL0     H 6365   2.048   3.483   8.127 -3.9332  3.4213 -2.5232
  788MOL0     H 6366   2.538   2.405   7.639  0.5495 -2.0611  0.9219
  788MOL0     H 6367   2.793   2.400   7.647  3.0449  0.2871 -1.2240
  788MOL0     H 6368   3.156   2.625   7.403  0.3658  0.5094  0.3082
  788MOL0     H 6369   3.402   2.666   7.404  1.8064 -0.1088  1.9883
  788MOL0     H 6370   3.592   2.680   7.397 -2.6969  0.5328 -3.5226
  788MOL0     H 6371   3.751   2.598   7.378  0.4550 -1.4464 -0.4073
  788MOL0     H 6372   3.679   2.645   7.162  5.2318 -1.5537  1.9894
  788MOL0     H 6373   3.510   2.585   7.192  0.0706 -0.1787 -0.0814
  788MOL0     H 6374   3.613   2.347   7.207  0.5379 -1.9518 -0.5083
  788MOL0     H 6375   3.768   2.402   7.195  1.3629 -0.7673 -2.9912
  788MOL0     H 6376   3.743   2.490   6.972  2.0643 -1.9803 -1.7275
  788MOL0     H 6377   3.569   2.419   6.966 -0.6119 -0.6807  0.5321
  788MOL0     H 6378   3.792   2.077   6.924  1.1181  0.0079  1.6131
  788MOL0     H 6379   3.467   2.249   7.470 -1.6512 -2.6969 -5.2612
  788MOL0     H 6380   3.233   2.208   7.509 -0.0191 -1.4080 -1.9034
  789MOL0     O 6381   6.550   0.850   7.937  0.0597 -0.3594 -0.0805
  789MOL0     C 6382   6.475   0.883   7.848 -0.4851  0.7802 -0.5064
  789MOL0     O 6383   6.515   0.972   7.751  0.3130 -0.1383 -0.2598
  789MOL0     C 6384   6.650   1.003   7.754  0.3205  0.2656  0.8601
  789MOL0     C 6385   6.739   0.925   7.684  0.0650  0.7947  0.3099
  789MOL0     C 6386   6.875   0.956   7.679 -0.1319 -0.3316  0.2167
  789MOL0     C 6387   6.929   1.066   7.753 -0.2092  1.0837  0.0000
  789MOL0     O 6388   7.069   1.081   7.756  1.1146 -0.4091  0.3945
  789MOL0     C 6389   7.123   1.199   7.816 -0.1158 -0.2627  1.0971
  789MOL0     C 6390   7.279   1.191   7.825  0.7740  0.3721  0.2944
  789MOL0     C 6391   7.330   1.167   7.687  0.6227  0.5353 -0.5090
  789MOL0     C 6392   7.471   1.224   7.655  0.2498 -0.9058 -0.6952
  789MOL0     C 6393   7.566   1.139   7.744  0.3953 -0.1567  0.3335
  789MOL0     C 6394   7.609   1.190   7.889 -0.2425 -0.0100  0.0673
  789MOL0     C 6395   7.645   1.067   7.981 -0.2194  1.0373  0.3614
  789MOL0     C 6396   7.693   1.111   8.126  0.7454 -0.1558  0.3596
  789MOL0     N 6397   7.809   1.194   8.130  0.3002  0.2124 -0.5795
  789MOL0     C 6398   7.803   1.327   8.151  0.7493  0.5392 -0.6286
  789MOL0     C 6399   7.932   1.363   8.175 -0.0357  0.2332  0.7612
  789MOL0     C 6400   8.001   1.499   8.213  0.0876 -0.4147  0.7806
  789MOL0     C 6401   7.916   1.628   8.201 -0.8660  0.5750 -0.7915
  789MOL0     C 6402   7.906   1.678   8.054  0.6286  0.0700 -0.0052
  789MOL0     C 6403   7.808   1.798   8.038  0.2982  1.1977 -0.2001
  789MOL0     O 6404   7.676   1.779   8.098  0.1685  0.0256  0.0099
  789MOL0     C 6405   7.568   1.729   8.027  0.1753 -0.9223 -0.4810
  789MOL0     C 6406   7.446   1.780   8.066 -0.0371  0.9435 -0.7519
  789MOL0     C 6407   7.325   1.738   8.018  0.8267 -0.2488  0.5952
  789MOL0     C 6408   7.195   1.810   8.066 -0.8110  0.3122  0.0628
  789MOL0     C 6409   7.329   1.647   7.913  0.4345  0.8327 -0.9739
  789MOL0     C 6410   7.209   1.586   7.841  0.2475 -0.2729  0.0350
  789MOL0     O 6411   7.094   1.572   7.904 -0.5692 -0.3057 -0.0642
  789MOL0     C 6412   6.966   1.538   7.849 -0.1049 -0.6520  0.1093
  789MOL0     C 6413   6.933   1.523   7.711 -0.1432  0.0299  0.8469
  789MOL0     C 6414   6.807   1.480   7.669 -0.6054  0.0954  0.8417
  789MOL0     C 6415   6.709   1.459   7.752  0.9869  0.0447  1.2573
  789MOL0     O 6416   6.585   1.421   7.711  0.3133  0.0164 -0.9402
  789MOL0     C 6417   6.549   1.373   7.575 -0.3486 -0.0821 -0.6178
  789MOL0     C 6418   6.424   1.299   7.597  0.1172  0.0525 -0.1175
  789MOL0     C 6419   6.303   1.390   7.610  0.5481 -0.1098  0.7154
  789MOL0     C 6420   6.172   1.307   7.635  0.0215  0.2877  0.3661
  789MOL0     C 6421   6.136   1.219   7.518  0.2389  0.5668  0.1711
  789MOL0     C 6422   6.141   1.077   7.562  0.1724  0.4361  0.7600
  789MOL0     C 6423   6.148   0.984   7.433 -0.2103 -0.0379  0.9822
  789MOL0     C 6424   6.007   0.971   7.371  0.1378 -0.6130  1.0484
  789MOL0    Cl 6425   5.969   0.797   7.315 -0.1112 -0.1782  0.2155
  789MOL0     C 6426   6.735   1.475   7.888  0.4627  0.6584 -0.4873
  789MOL0     C 6427   6.860   1.506   7.938 -0.1344 -0.0779 -0.6460
  789MOL0     O 6428   7.224   1.552   7.720 -0.6739  0.2929 -0.3748
  789MOL0     C 6429   7.453   1.589   7.872  0.2433 -0.6592  0.3329
  789MOL0     C 6430   7.571   1.628   7.930 -0.3773 -0.1155  0.7893
  789MOL0     N 6431   8.009   1.259   8.145 -0.1331 -0.0862 -0.0790
  789MOL0     N 6432   7.941   1.153   8.116  1.0156 -0.0445 -0.9056
  789MOL0     C 6433   6.838   1.142   7.833 -0.3812 -0.4324  0.0300
  789MOL0     C 6434   6.699   1.114   7.826 -0.4386 -0.2414 -0.9451
  789MOL0     C 6435   6.335   0.841   7.844  0.0248  0.6585 -0.1683
  789MOL0     C 6436   6.268   0.848   7.720  0.0585  0.0481 -0.5249
  789MOL0     C 6437   6.132   0.806   7.720  0.0657  0.2021  1.2291
  789MOL0     C 6438   6.069   0.755   7.839 -0.1830 -0.4064  0.0947
  789MOL0     O 6439   5.933   0.716   7.833 -0.5195 -0.1130  0.3328
  789MOL0     C 6440   5.844   0.703   7.947 -0.2498  0.5011 -0.1645
  789MOL0     C 6441   5.781   0.828   7.995 -0.0709 -0.7952 -0.4384
  789MOL0     C 6442   5.696   0.808   8.119 -0.6269  0.6602 -0.5595
  789MOL0     C 6443   5.726   0.904   8.237  0.2249 -0.7745 -1.1419
  789MOL0     C 6444   5.877   0.904   8.274 -0.3219 -0.0650  0.1211
  789MOL0     C 6445   5.996   0.893   8.301  0.3512 -0.3374  0.2985
  789MOL0     C 6446   6.144   0.741   7.960  0.2300 -0.4314  0.9088
  789MOL0     C 6447   6.277   0.783   7.960  0.4104 -0.9573  1.0698
  789MOL0     H 6448   6.708   0.833   7.635  0.9648  1.5002 -1.7069
  789MOL0     H 6449   6.955   0.901   7.631  0.5540 -1.5690  2.6665
  789MOL0     H 6450   7.096   1.297   7.777  0.0742 -0.8812 -0.6639
  789MOL0     H 6451   7.099   1.196   7.923 -0.5285 -2.2328  0.9879
  789MOL0     H 6452   7.312   1.286   7.866 -0.4660  0.3727  1.3618
  789MOL0     H 6453   7.306   1.111   7.894 -0.2178  0.6918  1.0876
  789MOL0     H 6454   7.330   1.060   7.661  0.0975  0.1112  1.1339
  789MOL0     H 6455   7.264   1.220   7.618 -0.3306  1.9484  1.4144
  789MOL0     H 6456   7.500   1.195   7.553  2.4149 -0.6405 -0.1993
  789MOL0     H 6457   7.488   1.330   7.677  1.3792 -0.9713 -1.1859
  789MOL0     H 6458   7.514   1.045   7.761  1.0102 -0.2391  1.9780
  789MOL0     H 6459   7.663   1.120   7.698  0.6639  0.1340  0.7690
  789MOL0     H 6460   7.693   1.260   7.880  0.5984 -0.8025  1.4075
  789MOL0     H 6461   7.532   1.250   7.939  0.8622 -1.1717  3.4753
  789MOL0     H 6462   7.552   1.011   7.994 -3.1081  5.6200  1.8251
  789MOL0     H 6463   7.719   1.003   7.931  0.0246  0.1063  1.8480
  789MOL0     H 6464   7.716   1.019   8.180 -0.6551  0.8507  2.8111
  789MOL0     H 6465   7.609   1.155   8.180 -1.0656 -0.5078 -1.9954
  789MOL0     H 6466   7.718   1.391   8.172  0.9982  0.7593 -0.2638
  789MOL0     H 6467   8.046   1.496   8.313  5.3612  2.4048 -1.1353
  789MOL0     H 6468   8.088   1.507   8.147 -2.0764 -1.9423 -2.5151
  789MOL0     H 6469   7.955   1.705   8.269  1.3764 -2.4596  1.6205
  789MOL0     H 6470   7.818   1.598   8.240 -0.0401  0.4558  1.3330
  789MOL0     H 6471   7.865   1.604   7.986 -0.0472  0.3937  0.0320
  789MOL0     H 6472   8.008   1.705   8.028  0.1834 -0.7452 -2.9648
  789MOL0     H 6473   7.790   1.814   7.931 -2.0457  2.1404  0.2846
  789MOL0     H 6474   7.857   1.889   8.075  0.0694  1.6026 -0.8741
  789MOL0     H 6475   7.438   1.840   8.157 -1.9417 -0.0052 -0.2511
  789MOL0     H 6476   7.106   1.748   8.059 -1.9071  1.3639  2.8914
  789MOL0     H 6477   7.203   1.836   8.173 -0.8822 -0.4246  0.2522
  789MOL0     H 6478   7.187   1.906   8.014  1.1934  1.2599  1.3368
  789MOL0     H 6479   7.008   1.538   7.634 -0.3854 -3.9031 -0.3608
  789MOL0     H 6480   6.792   1.465   7.562  2.5232  3.2872 -0.2477
  789MOL0     H 6481   6.515   1.455   7.510 -3.0143  0.8555  1.7394
  789MOL0     H 6482   6.633   1.312   7.542 -0.2846  0.3581 -1.2909
  789MOL0     H 6483   6.415   1.239   7.506 -2.5283 -0.2053  0.2357
  789MOL0     H 6484   6.416   1.227   7.678 -3.6655  0.1485 -0.2448
  789MOL0     H 6485   6.298   1.445   7.515  1.3422 -1.8229 -0.3763
  789MOL0     H 6486   6.313   1.464   7.690  0.2747 -0.0769  0.7221
  789MOL0     H 6487   6.177   1.249   7.728 -3.4068  0.9914  1.1145
  789MOL0     H 6488   6.088   1.375   7.650 -1.6702 -1.0214 -2.4554
  789MOL0     H 6489   6.201   1.245   7.434 -2.0604  2.1554 -1.2530
  789MOL0     H 6490   6.032   1.238   7.488  0.0454  0.0056  0.4849
  789MOL0     H 6491   6.228   1.070   7.628 -1.1722 -2.6087  2.4245
  789MOL0     H 6492   6.058   1.051   7.628  2.1321 -2.4547  2.3480
  789MOL0     H 6493   6.185   0.884   7.458 -3.2777 -1.1238  1.5519
  789MOL0     H 6494   6.217   1.019   7.355 -0.3486 -3.0931 -0.6484
  789MOL0     H 6495   6.009   1.040   7.286  2.8549 -1.5618  0.2645
  789MOL0     H 6496   5.921   1.007   7.429  0.1185  1.0136  0.0784
  789MOL0     H 6497   6.655   1.463   7.961 -0.1705  4.3919 -0.3899
  789MOL0     H 6498   6.874   1.521   8.045 -1.9979  0.7714 -0.4827
  789MOL0     H 6499   7.464   1.513   7.796  4.8282 -0.2995  0.3761
  789MOL0     H 6500   7.671   1.610   7.892  0.1134  1.8603  1.0205
  789MOL0     H 6501   6.869   1.234   7.883  1.5425 -0.2655 -1.3556
  789MOL0     H 6502   6.632   1.182   7.878  0.8238 -0.4966  1.1505
  789MOL0     H 6503   6.318   0.876   7.628 -0.1162  2.8587  0.1152
  789MOL0     H 6504   6.064   0.828   7.638  0.3730 -1.8220  0.3940
  789MOL0     H 6505   5.765   0.633   7.917  0.7788  0.2394 -2.5413
  789MOL0     H 6506   5.902   0.674   8.035  0.1086  4.4987  1.1023
  789MOL0     H 6507   5.710   0.861   7.918  1.1274 -0.0448 -1.2639
  789MOL0     H 6508   5.857   0.905   8.012  0.3407 -1.4968  1.0120
  789MOL0     H 6509   5.709   0.704   8.150  0.3205  1.1640  0.8697
  789MOL0     H 6510   5.592   0.812   8.085 -0.8817 -1.4128 -0.1610
  789MOL0     H 6511   5.681   0.861   8.327  1.8099 -0.1943 -0.0208
  789MOL0     H 6512   5.682   1.002   8.219 -0.6645 -1.3935 -2.6110
  789MOL0     H 6513   6.099   0.882   8.329  0.0790 -0.4843  1.3155
  789MOL0     H 6514   6.102   0.713   8.056 -2.0257  3.7335  1.3961
  789MOL0     H 6515   6.343   0.782   8.046  2.1725 -1.1014 -0.2232
  790MOL0     O 6516   9.696   5.409   1.310 -0.3757 -0.4073 -0.1233
  790MOL0     C 6517   9.777   5.353   1.376 -0.3866  0.5040  1.0640
  790MOL0     O 6518   9.863   5.416   1.471  0.3518  0.7294  0.6276
  790MOL0     C 6519   9.835   5.548   1.505 -0.2907 -0.9445 -0.1268
  790MOL0     C 6520   9.707   5.576   1.568 -0.6429  0.1666  0.0570
  790MOL0     C 6521   9.672   5.698   1.602 -0.4633 -1.2889 -0.5030
  790MOL0     C 6522   9.764   5.802   1.577  0.1377  0.5402  0.1496
  790MOL0     O 6523   9.738   5.932   1.610  0.2521 -0.1271 -0.0450
  790MOL0     C 6524   9.785   5.963   1.735  0.7309  0.7192  0.1903
  790MOL0     C 6525   9.686   5.942   1.849  0.0330 -0.0837  0.4706
  790MOL0     C 6526   9.748   5.954   1.983 -0.1975  0.9446  1.2184
  790MOL0     C 6527   9.643   5.933   2.097  0.5900  0.3495  0.4706
  790MOL0     C 6528   9.705   5.944   2.229 -0.0786  0.8564 -0.3693
  790MOL0     C 6529   9.599   5.942   2.344  0.0265 -0.1221  0.1288
  790MOL0     C 6530   9.647   5.937   2.498 -0.7218  0.7512  1.0195
  790MOL0     C 6531   9.547   5.878   2.593 -1.1001 -0.0216 -0.0348
  790MOL0     N 6532   9.413   5.938   2.576 -0.3360 -0.2840  0.9289
  790MOL0     C 6533   9.370   6.038   2.658  0.4707  0.5865  0.2883
  790MOL0     C 6534   9.246   6.064   2.618  0.4706 -1.6712 -0.8848
  790MOL0     C 6535   9.160   6.178   2.672 -0.0996 -0.2665 -0.2221
  790MOL0     C 6536   9.220   6.317   2.702  1.3140  0.1237  0.5405
  790MOL0     C 6537   9.284   6.370   2.567 -0.7891 -0.1731  0.0591
  790MOL0     C 6538   9.362   6.498   2.574  0.2706  0.1291  0.7491
  790MOL0     O 6539   9.478   6.490   2.645 -0.2168  0.9446  0.0742
  790MOL0     C 6540   9.591   6.451   2.588 -0.1840  0.1159  0.4124
  790MOL0     C 6541   9.706   6.460   2.673  0.6622 -0.3054 -0.3797
  790MOL0     C 6542   9.840   6.424   2.630  0.4788 -0.1680  0.3769
  790MOL0     C 6543   9.956   6.456   2.721  0.4441  0.2390 -0.1677
  790MOL0     C 6544   9.860   6.351   2.502 -0.3198  0.0180 -0.3181
  790MOL0     C 6545   9.991   6.292   2.450  0.5072 -0.0122  0.5370
  790MOL0     O 6546   9.997   6.271   2.319 -0.4207  0.8890  0.0461
  790MOL0     C 6547  10.103   6.187   2.277 -0.9777  0.4359 -0.1377
  790MOL0     C 6548  10.093   6.043   2.264 -0.3012  0.4039 -0.6622
  790MOL0     C 6549  10.200   5.968   2.219 -1.0641  1.3237 -0.0024
  790MOL0     C 6550  10.321   6.023   2.194 -0.8494 -0.6177  0.8427
  790MOL0     O 6551  10.437   5.963   2.153  0.2285 -0.6038 -0.8392
  790MOL0     C 6552  10.423   5.826   2.128  0.4347  0.5952 -0.4120
  790MOL0     C 6553  10.534   5.752   2.048  0.1927 -0.2879  0.6944
  790MOL0     C 6554  10.658   5.744   2.129 -0.8528  0.7960 -0.0911
  790MOL0     C 6555  10.767   5.673   2.053  0.2711  0.8843 -0.2752
  790MOL0     C 6556  10.784   5.524   2.092  0.6321  0.1123  0.5421
  790MOL0     C 6557  10.919   5.448   2.055 -0.0342  0.0661 -0.9624
  790MOL0     C 6558  10.992   5.502   1.931  0.0581  0.6774 -0.1123
  790MOL0     C 6559  11.119   5.422   1.906  0.3017 -0.8814  0.0268
  790MOL0    Cl 6560  11.079   5.258   1.838  0.3484 -0.0559 -0.4060
  790MOL0     C 6561  10.337   6.161   2.200  0.0908  0.0091  0.5437
  790MOL0     C 6562  10.228   6.242   2.250  0.2840  0.2530  0.5861
  790MOL0     O 6563  10.085   6.272   2.528 -0.2411  0.5948  0.3679
  790MOL0     C 6564   9.741   6.332   2.426  0.6154 -0.3809  0.6067
  790MOL0     C 6565   9.606   6.378   2.467 -0.5971 -0.2604  0.8878
  790MOL0     N 6566   9.215   5.987   2.505 -0.1172 -0.2258  0.0339
  790MOL0     N 6567   9.316   5.906   2.484 -0.6220 -0.4919 -0.1400
  790MOL0     C 6568   9.869   5.781   1.493  0.0968 -0.2504  0.2937
  790MOL0     C 6569   9.909   5.655   1.463 -0.3001  0.6075 -0.3096
  790MOL0     C 6570   9.808   5.208   1.349 -0.4401 -0.7893  0.2696
  790MOL0     C 6571   9.892   5.137   1.440 -1.0793 -0.3574 -0.1593
  790MOL0     C 6572   9.960   5.026   1.387  0.4079 -0.5038  0.6217
  790MOL0     C 6573   9.937   4.973   1.254 -0.8384  0.6469  0.2002
  790MOL0     O 6574  10.010   4.869   1.204 -0.2311 -0.3977  0.5296
  790MOL0     C 6575  10.132   4.824   1.272 -0.1235 -0.0246  0.1080
  790MOL0     C 6576  10.217   4.732   1.188 -0.1600  0.6048 -0.2160
  790MOL0     C 6577  10.332   4.675   1.268  0.8682  1.0803 -0.8606
  790MOL0     C 6578  10.378   4.548   1.180  0.0917 -0.2408  0.2385
  790MOL0     C 6579  10.463   4.575   1.058  0.1697 -0.4535 -0.4283
  790MOL0     C 6580  10.550   4.585   0.974  0.7033 -0.2537  0.2429
  790MOL0     C 6581   9.833   5.032   1.184 -0.4497 -0.2378 -0.5579
  790MOL0     C 6582   9.768   5.141   1.229 -0.2423  0.1731  0.3178
  790MOL0     H 6583   9.645   5.493   1.600 -0.1394 -0.1898  0.1204
  790MOL0     H 6584   9.576   5.706   1.652  0.2496 -3.2665  1.3613
  790MOL0     H 6585   9.879   5.914   1.762  0.4501 -0.1662 -0.3827
  790MOL0     H 6586   9.794   6.072   1.737 -2.1760  1.0417  3.3138
  790MOL0     H 6587   9.603   6.012   1.843  2.0543  2.7460  2.8978
  790MOL0     H 6588   9.635   5.845   1.847 -0.5555  0.2204 -1.9806
  790MOL0     H 6589   9.820   5.873   1.991 -2.0231 -0.9334 -0.0756
  790MOL0     H 6590   9.799   6.050   1.987  0.5661  0.7938 -2.1657
  790MOL0     H 6591   9.556   5.996   2.078 -0.3808 -1.3554 -1.0982
  790MOL0     H 6592   9.604   5.831   2.094 -0.5216  0.7860 -0.4101
  790MOL0     H 6593   9.765   5.853   2.231 -2.5341 -0.8396  1.3538
  790MOL0     H 6594   9.772   6.031   2.232  1.8268 -0.4946 -1.3466
  790MOL0     H 6595   9.534   6.028   2.325  1.8494  0.8800 -2.0790
  790MOL0     H 6596   9.544   5.852   2.316 -2.8617  0.7085  2.6364
  790MOL0     H 6597   9.729   5.865   2.506  0.6296  1.9131 -1.3028
  790MOL0     H 6598   9.683   6.036   2.526  2.6907 -0.3402  0.9318
  790MOL0     H 6599   9.590   5.904   2.690  1.2615 -1.6085 -0.5788
  790MOL0     H 6600   9.548   5.769   2.586 -0.7646 -0.4283  3.9493
  790MOL0     H 6601   9.417   6.094   2.739  0.3531  0.4245  0.4692
  790MOL0     H 6602   9.082   6.190   2.597  0.9383 -1.2077 -1.5212
  790MOL0     H 6603   9.115   6.145   2.766 -0.4701  1.3847  0.2024
  790MOL0     H 6604   9.289   6.308   2.786  1.6192  0.4372  0.3255
  790MOL0     H 6605   9.135   6.382   2.725 -0.6239 -2.6713  1.9073
  790MOL0     H 6606   9.209   6.391   2.491 -1.1666  0.6378  0.6427
  790MOL0     H 6607   9.348   6.296   2.516  2.6476  0.4950  2.9653
  790MOL0     H 6608   9.311   6.571   2.639  0.6705 -0.5947  1.9182
  790MOL0     H 6609   9.366   6.543   2.474 -1.6526 -1.3410 -0.0427
  790MOL0     H 6610   9.695   6.509   2.769 -1.6924 -1.4719 -0.0030
  790MOL0     H 6611   9.917   6.520   2.800 -0.6176  1.1847 -1.4009
  790MOL0     H 6612   9.994   6.365   2.768  0.7728  0.5858  0.2350
  790MOL0     H 6613  10.029   6.511   2.662  0.7563  0.6749  0.6080
  790MOL0     H 6614   9.997   5.996   2.281 -1.7030  3.0804 -0.7072
  790MOL0     H 6615  10.171   5.864   2.212  3.9473 -0.3945  0.7761
  790MOL0     H 6616  10.402   5.774   2.222 -1.0823 -3.2668 -2.6261
  790MOL0     H 6617  10.330   5.807   2.074 -1.8096 -0.5764  3.4754
  790MOL0     H 6618  10.510   5.648   2.024  0.0206 -0.0702 -0.1004
  790MOL0     H 6619  10.550   5.798   1.950 -2.7583  0.5589  0.5224
  790MOL0     H 6620  10.648   5.685   2.221  2.1853  1.3913  0.7480
  790MOL0     H 6621  10.691   5.846   2.150  1.5411  0.4865 -1.9070
  790MOL0     H 6622  10.749   5.669   1.945 -0.8549 -4.8008 -0.1980
  790MOL0     H 6623  10.864   5.718   2.077  1.6973 -2.3766  0.6285
  790MOL0     H 6624  10.705   5.469   2.038  1.5790  0.9700 -1.8641
  790MOL0     H 6625  10.768   5.507   2.199  3.3121  0.9263  1.1431
  790MOL0     H 6626  10.979   5.459   2.146 -1.9035  1.4737  0.1888
  790MOL0     H 6627  10.908   5.340   2.049  2.1262 -0.4381  1.8361
  790MOL0     H 6628  11.022   5.606   1.949 -0.4396  0.6358  1.0858
  790MOL0     H 6629  10.926   5.503   1.844  0.0930  1.0805 -0.1405
  790MOL0     H 6630  11.180   5.419   1.997 -0.1277 -0.1844  0.3496
  790MOL0     H 6631  11.183   5.470   1.832  0.6124 -0.8922  0.2857
  790MOL0     H 6632  10.429   6.216   2.179 -0.6964  0.8512 -0.8349
  790MOL0     H 6633  10.252   6.348   2.254  0.0854  0.3438 -0.3997
  790MOL0     H 6634   9.750   6.288   2.327  0.0853 -1.5101  1.0491
  790MOL0     H 6635   9.519   6.368   2.404  2.0956 -0.6104 -3.1570
  790MOL0     H 6636   9.947   5.841   1.447  1.1564  0.8487  3.2887
  790MOL0     H 6637   9.992   5.644   1.394 -0.4328  3.1315 -0.9857
  790MOL0     H 6638   9.911   5.184   1.536 -0.0040 -0.2963 -0.3961
  790MOL0     H 6639  10.038   4.991   1.454 -1.4135  0.3407  3.3909
  790MOL0     H 6640  10.193   4.912   1.295 -1.6361  1.3508 -0.9278
  790MOL0     H 6641  10.114   4.767   1.364  1.3036 -3.9806 -1.8170
  790MOL0     H 6642  10.261   4.775   1.098 -3.6662  1.7474 -1.5478
  790MOL0     H 6643  10.145   4.653   1.165 -2.0144  0.3065  5.0896
  790MOL0     H 6644  10.304   4.649   1.371 -0.2177  0.7517 -1.2262
  790MOL0     H 6645  10.420   4.740   1.275  4.1961 -2.6762 -3.1245
  790MOL0     H 6646  10.286   4.494   1.156 -1.0285  1.4816  0.4971
  790MOL0     H 6647  10.432   4.472   1.237 -0.4021 -1.3197 -0.7028
  790MOL0     H 6648  10.631   4.590   0.903  1.4179 -1.1144  0.9721
  790MOL0     H 6649   9.796   4.997   1.089 -1.2923 -1.2312  0.1144
  790MOL0     H 6650   9.693   5.187   1.166  0.5439 -1.3706 -1.8806
  791MOL0     O 6651   8.795   2.027   9.545  0.3089 -0.4146  0.2441
  791MOL0     C 6652   8.831   2.134   9.593  0.3508 -0.2336 -0.9890
  791MOL0     O 6653   8.747   2.239   9.623  0.6382  0.4620  0.5197
  791MOL0     C 6654   8.611   2.219   9.605 -0.4045 -0.0131  0.0372
  791MOL0     C 6655   8.541   2.325   9.547 -1.2155 -0.3369 -0.0854
  791MOL0     C 6656   8.412   2.321   9.541  1.0302  0.0965 -0.4427
  791MOL0     C 6657   8.338   2.208   9.574 -0.6134 -1.1962 -0.5520
  791MOL0     O 6658   8.204   2.183   9.541  0.5508 -0.5666 -1.1830
  791MOL0     C 6659   8.140   2.271   9.445 -0.2416 -0.7877 -0.1393
  791MOL0     C 6660   7.998   2.209   9.417  0.2445 -0.1092  0.2228
  791MOL0     C 6661   7.903   2.208   9.534  0.5595  0.2320 -0.5751
  791MOL0     C 6662   7.756   2.197   9.489  0.3646  0.5766 -0.7236
  791MOL0     C 6663   7.668   2.109   9.581 -0.1647 -0.1600 -0.1747
  791MOL0     C 6664   7.541   2.055   9.510  0.5475  0.2682 -0.3459
  791MOL0     C 6665   7.446   1.999   9.620 -0.4675  0.9380 -0.0346
  791MOL0     C 6666   7.334   2.091   9.659 -0.7951 -0.4272 -1.3507
  791MOL0     N 6667   7.222   2.023   9.715  0.5387  0.5548 -0.4876
  791MOL0     C 6668   7.150   1.938   9.644 -0.3985 -0.0456  0.5745
  791MOL0     C 6669   7.051   1.900   9.733 -0.0443 -1.1707  0.5067
  791MOL0     C 6670   6.948   1.795   9.713  0.4110  0.4403  0.0077
  791MOL0     C 6671   6.952   1.688   9.838  1.0127  0.6172  0.1522
  791MOL0     C 6672   6.836   1.577   9.826 -0.1005  0.6328  0.2009
  791MOL0     C 6673   6.701   1.641   9.839  0.2801 -0.8799 -0.6145
  791MOL0     O 6674   6.593   1.541   9.818 -0.0390 -0.0967 -0.2248
  791MOL0     C 6675   6.551   1.473   9.934  0.1524  0.4706 -0.1871
  791MOL0     C 6676   6.605   1.470  10.062  0.0682 -0.4900 -0.1247
  791MOL0     C 6677   6.539   1.403  10.172 -0.3439 -0.3526  0.7892
  791MOL0     C 6678   6.608   1.416  10.308 -0.8370 -0.2067 -0.6963
  791MOL0     C 6679   6.410   1.352  10.153  0.5986  0.1951 -0.5728
  791MOL0     C 6680   6.331   1.299  10.262  1.0763  0.2108  0.5354
  791MOL0     O 6681   6.298   1.169  10.253  0.4063 -0.1587  0.2988
  791MOL0     C 6682   6.248   1.099  10.359 -0.0554 -0.1355  0.2796
  791MOL0     C 6683   6.174   0.987  10.328 -0.4055  0.0433 -0.0604
  791MOL0     C 6684   6.123   0.903  10.427 -1.2758 -0.3403  0.4439
  791MOL0     C 6685   6.155   0.935  10.559 -0.4741  1.3067 -0.5069
  791MOL0     O 6686   6.111   0.843  10.647 -0.8742  0.1774  0.2800
  791MOL0     C 6687   6.142   0.851  10.786 -0.1328 -0.2977 -1.1160
  791MOL0     C 6688   6.125   0.720  10.857  0.5891 -0.5902 -0.5199
  791MOL0     C 6689   6.156   0.590  10.771 -0.4756 -0.6253  0.3841
  791MOL0     C 6690   6.218   0.475  10.850 -0.6773 -0.0428 -0.2555
  791MOL0     C 6691   6.204   0.329  10.809  0.0229  0.0737 -0.0149
  791MOL0     C 6692   6.272   0.223  10.901  0.5520  0.2303  0.4659
  791MOL0     C 6693   6.195   0.205  11.032  0.5975  0.5919 -0.3618
  791MOL0     C 6694   6.249   0.069  11.103  0.2590 -0.5356  0.1446
  791MOL0    Cl 6695   6.153   0.056  11.257  0.1511 -0.1052  0.3643
  791MOL0     C 6696   6.217   1.048  10.593  0.4635  0.7455  0.2173
  791MOL0     C 6697   6.271   1.132  10.494 -0.1675 -0.0030 -0.7636
  791MOL0     O 6698   6.287   1.381  10.345  0.2479 -0.2315  0.1377
  791MOL0     C 6699   6.363   1.343  10.023 -0.0526  0.1579  0.2666
  791MOL0     C 6700   6.423   1.413   9.920 -0.1891 -0.5052  0.6102
  791MOL0     N 6701   7.063   1.969   9.859  0.6405 -0.2402  0.0243
  791MOL0     N 6702   7.168   2.040   9.840  0.2822  0.4875 -0.3574
  791MOL0     C 6703   8.407   2.112   9.640 -0.0114  0.0703 -0.7458
  791MOL0     C 6704   8.539   2.116   9.672  0.1695 -0.2757 -0.2347
  791MOL0     C 6705   8.977   2.147   9.605  0.1246 -0.5729  0.0830
  791MOL0     C 6706   9.068   2.081   9.516 -0.0946 -0.1405 -0.0640
  791MOL0     C 6707   9.201   2.114   9.509 -0.0350 -0.6944 -0.1539
  791MOL0     C 6708   9.261   2.204   9.603 -0.9778 -0.3059  0.1501
  791MOL0     O 6709   9.396   2.228   9.584 -0.7326  0.9989 -0.6960
  791MOL0     C 6710   9.478   2.321   9.660  0.8633  1.1067 -0.8540
  791MOL0     C 6711   9.616   2.309   9.606 -1.1045 -0.1396  0.3131
  791MOL0     C 6712   9.699   2.432   9.650 -0.2898 -0.7127  0.1888
  791MOL0     C 6713   9.853   2.410   9.631  0.0470 -0.7923  0.6665
  791MOL0     C 6714   9.932   2.504   9.713  0.4521  0.1816 -0.2158
  791MOL0     C 6715  10.011   2.579   9.771  0.4142  0.1335 -0.5174
  791MOL0     C 6716   9.178   2.273   9.694  0.1394 -0.3590 -0.1567
  791MOL0     C 6717   9.040   2.239   9.696  0.6572  0.5090 -0.4639
  791MOL0     H 6718   8.591   2.411   9.504 -0.3436 -0.8224 -0.0684
  791MOL0     H 6719   8.359   2.410   9.509  0.3396  0.7188  2.1532
  791MOL0     H 6720   8.132   2.371   9.489  0.4650 -1.4216  1.5070
  791MOL0     H 6721   8.195   2.279   9.350 -0.3608 -0.3160 -0.1707
  791MOL0     H 6722   7.958   2.257   9.327  4.4150 -1.2349 -2.5089
  791MOL0     H 6723   8.008   2.108   9.377  0.4516  0.4767 -1.2785
  791MOL0     H 6724   7.924   2.121   9.597  3.5245 -0.2222 -2.0316
  791MOL0     H 6725   7.914   2.298   9.597 -0.9762 -0.1773  0.3273
  791MOL0     H 6726   7.708   2.295   9.480 -3.0084 -0.7608  0.7862
  791MOL0     H 6727   7.754   2.147   9.392  3.8881  1.1179 -1.1990
  791MOL0     H 6728   7.729   2.025   9.615  2.3457  1.4553 -0.4100
  791MOL0     H 6729   7.638   2.171   9.666 -2.3472  0.5145 -1.3428
  791MOL0     H 6730   7.493   2.127   9.443  0.1538  0.7093  0.3946
  791MOL0     H 6731   7.578   1.976   9.444  4.7736  1.6899  0.0679
  791MOL0     H 6732   7.402   1.912   9.570 -0.1468  1.4398 -1.2241
  791MOL0     H 6733   7.499   1.975   9.713 -0.0703  0.7604 -0.3006
  791MOL0     H 6734   7.303   2.159   9.578 -2.0920  1.1401  0.3828
  791MOL0     H 6735   7.383   2.167   9.721 -0.6407 -0.0441 -1.9226
  791MOL0     H 6736   7.159   1.911   9.539  1.8407  1.1502  0.3858
  791MOL0     H 6737   6.846   1.834   9.717  1.4589  3.5096 -0.6155
  791MOL0     H 6738   6.967   1.738   9.622 -0.6974  0.7459 -0.4246
  791MOL0     H 6739   6.949   1.732   9.938  1.1822  2.1314 -0.4917
  791MOL0     H 6740   7.045   1.631   9.842 -0.0597 -1.6525 -2.9524
  791MOL0     H 6741   6.847   1.500   9.903 -1.7409 -0.2074 -0.3553
  791MOL0     H 6742   6.848   1.520   9.734 -0.0763 -0.0139  0.5958
  791MOL0     H 6743   6.679   1.731   9.781 -1.3348  0.4249  1.8187
  791MOL0     H 6744   6.693   1.699   9.932  1.2198  1.0880 -1.7134
  791MOL0     H 6745   6.699   1.523  10.070  0.2151 -0.6618 -0.6136
  791MOL0     H 6746   6.598   1.322  10.363  5.4704 -0.2562  1.1943
  791MOL0     H 6747   6.713   1.446  10.310  0.1427 -3.3165 -0.9595
  791MOL0     H 6748   6.553   1.492  10.366  1.1284 -0.9215  2.3588
  791MOL0     H 6749   6.155   0.990  10.221 -4.0204  1.1900  0.4964
  791MOL0     H 6750   6.069   0.817  10.388 -1.0500 -0.0806 -0.4503
  791MOL0     H 6751   6.249   0.871  10.783 -0.2198  0.2567 -0.6568
  791MOL0     H 6752   6.085   0.931  10.834  0.8610 -0.4830  0.4424
  791MOL0     H 6753   6.177   0.733  10.953 -0.3859  2.3471 -0.2750
  791MOL0     H 6754   6.016   0.723  10.866  0.4510 -0.7156 -1.9351
  791MOL0     H 6755   6.232   0.613  10.696 -0.4945 -1.7206  0.0107
  791MOL0     H 6756   6.059   0.561  10.729 -0.9709  1.6062 -0.1350
  791MOL0     H 6757   6.327   0.484  10.855 -0.8139  1.4943  0.7071
  791MOL0     H 6758   6.184   0.481  10.954  0.3655 -2.3714  0.2837
  791MOL0     H 6759   6.239   0.306  10.708  1.2801 -0.7900  0.5947
  791MOL0     H 6760   6.096   0.311  10.812 -0.4238  2.4870  0.5362
  791MOL0     H 6761   6.278   0.131  10.842  0.7760  0.4279  0.1762
  791MOL0     H 6762   6.374   0.240  10.937  0.4216 -1.4673  1.7699
  791MOL0     H 6763   6.089   0.193  11.012  0.7089  0.9563 -1.2559
  791MOL0     H 6764   6.206   0.289  11.101  0.4664 -0.4364  0.9425
  791MOL0     H 6765   6.356   0.086  11.119  0.5501 -2.0620 -0.0459
  791MOL0     H 6766   6.227  -0.015  11.036 -1.0349 -0.8748  0.9567
  791MOL0     H 6767   6.235   1.073  10.697 -2.6341  1.4742  0.6780
  791MOL0     H 6768   6.333   1.214  10.527 -0.8113  0.1112  0.2106
  791MOL0     H 6769   6.262   1.311  10.000  0.1697 -2.0011  1.8913
  791MOL0     H 6770   6.367   1.402   9.827  1.9090  0.3358 -0.8233
  791MOL0     H 6771   8.350   2.032   9.685 -0.2944  0.6050 -0.1385
  791MOL0     H 6772   8.585   2.040   9.734  2.5419 -0.5880 -2.1777
  791MOL0     H 6773   9.031   2.016   9.439 -0.3496  0.2732 -0.2955
  791MOL0     H 6774   9.275   2.061   9.451 -0.7605 -1.6063 -0.2746
  791MOL0     H 6775   9.438   2.422   9.648  0.8921  1.2375  0.0772
  791MOL0     H 6776   9.484   2.282   9.763 -2.9224 -0.7072 -1.1434
  791MOL0     H 6777   9.602   2.324   9.498 -2.4330  1.4888  0.6736
  791MOL0     H 6778   9.657   2.210   9.629  1.7747  0.5549 -1.2972
  791MOL0     H 6779   9.680   2.446   9.757 -0.9143 -1.5294  0.2024
  791MOL0     H 6780   9.674   2.521   9.591 -1.2463  0.2362  1.9281
  791MOL0     H 6781   9.874   2.437   9.527 -0.4297  1.0739  1.0073
  791MOL0     H 6782   9.880   2.306   9.653  0.8738 -0.9613 -1.0183
  791MOL0     H 6783  10.069   2.649   9.828 -0.9310  0.2611  0.7696
  791MOL0     H 6784   9.213   2.356   9.755 -1.3227 -0.0203  0.2712
  791MOL0     H 6785   8.978   2.285   9.773 -2.0817 -0.7585 -1.7552
  792MOL0     O 6786   0.127  10.869   4.216  0.2058 -0.8555  0.2801
  792MOL0     C 6787   0.137  10.912   4.327  0.5170 -0.0171 -0.2541
  792MOL0     O 6788   0.030  10.956   4.413 -0.6774  0.0433 -0.2618
  792MOL0     C 6789  -0.102  10.970   4.384  0.7539 -0.3176 -0.3491
  792MOL0     C 6790  -0.176  11.070   4.448  0.3459  0.2439  0.6232
  792MOL0     C 6791  -0.305  11.107   4.403  0.7555 -0.1493  0.1318
  792MOL0     C 6792  -0.363  11.036   4.300  0.0562 -1.2077 -0.9798
  792MOL0     O 6793  -0.484  11.068   4.255  0.1123 -0.5187  0.1842
  792MOL0     C 6794  -0.477  11.139   4.130 -0.2847 -0.3084 -0.4418
  792MOL0     C 6795  -0.622  11.149   4.066  0.2178 -0.0571  0.1293
  792MOL0     C 6796  -0.705  11.024   4.082  0.4911  0.8954 -0.1917
  792MOL0     C 6797  -0.792  11.042   4.206  0.4233  0.3037  0.1513
  792MOL0     C 6798  -0.916  10.956   4.199 -0.8920  0.3573  0.4232
  792MOL0     C 6799  -0.893  10.801   4.178  0.1074  0.4137 -0.1329
  792MOL0     C 6800  -1.023  10.723   4.163 -0.4882  0.4034  0.2009
  792MOL0     C 6801  -1.127  10.757   4.053 -0.1487 -0.7072  0.3393
  792MOL0     N 6802  -1.268  10.719   4.096 -0.5891 -0.4506  0.4457
  792MOL0     C 6803  -1.281  10.594   4.155  0.1154  0.3137  0.0611
  792MOL0     C 6804  -1.412  10.565   4.159  0.8404  0.1050  0.6737
  792MOL0     C 6805  -1.488  10.437   4.188  0.7079  0.0877 -0.3228
  792MOL0     C 6806  -1.650  10.436   4.192  0.3516 -0.7845 -0.1972
  792MOL0     C 6807  -1.686  10.288   4.203 -0.2293  0.1491 -0.0869
  792MOL0     C 6808  -1.833  10.269   4.252 -0.5472 -0.2876 -0.4525
  792MOL0     O 6809  -1.868  10.137   4.231  0.2538  0.0544  0.1744
  792MOL0     C 6810  -2.002  10.104   4.250 -0.5276  0.1957 -0.3056
  792MOL0     C 6811  -2.107  10.186   4.298  0.5153  0.5314 -0.1384
  792MOL0     C 6812  -2.230  10.135   4.334 -0.1967  0.4603 -0.5981
  792MOL0     C 6813  -2.312  10.227   4.411 -1.2385  0.7995  0.6093
  792MOL0     C 6814  -2.257   9.990   4.326 -0.4416 -0.5924  0.0359
  792MOL0     C 6815  -2.377   9.910   4.361  1.4759 -0.8403  0.2752
  792MOL0     O 6816  -2.387   9.774   4.337  0.2089  0.4477  0.3818
  792MOL0     C 6817  -2.514   9.712   4.368  0.1896 -0.1801 -0.8029
  792MOL0     C 6818  -2.510   9.598   4.456 -0.1266  0.0691  0.0594
  792MOL0     C 6819  -2.620   9.536   4.502 -0.4953 -0.0824 -0.5327
  792MOL0     C 6820  -2.743   9.573   4.449  0.1372 -0.0812  1.2555
  792MOL0     O 6821  -2.863   9.515   4.478 -0.4282  0.7730  0.3912
  792MOL0     C 6822  -2.866   9.392   4.546 -0.8402 -0.6033 -0.0571
  792MOL0     C 6823  -2.912   9.405   4.696 -0.8218 -0.0253 -0.4921
  792MOL0     C 6824  -2.880   9.284   4.778  0.1197  0.3881  0.3968
  792MOL0     C 6825  -2.958   9.285   4.908 -0.2599  0.1278 -0.0836
  792MOL0     C 6826  -2.906   9.167   5.002 -0.4335  0.0083  0.3404
  792MOL0     C 6827  -2.996   9.114   5.113  0.8955 -0.4557 -0.2694
  792MOL0     C 6828  -3.147   9.099   5.072 -0.2845  0.3010  0.8640
  792MOL0     C 6829  -3.180   8.985   4.981 -0.7791  0.5292 -0.7581
  792MOL0    Cl 6830  -3.346   8.951   4.951  0.1060 -0.5859 -0.2287
  792MOL0     C 6831  -2.755   9.681   4.361 -0.0602 -0.8322  0.2186
  792MOL0     C 6832  -2.640   9.754   4.322  0.2281 -0.0103  0.0664
  792MOL0     O 6833  -2.473   9.980   4.399  0.1516  0.1265  0.0756
  792MOL0     C 6834  -2.146   9.916   4.289 -0.2230  0.0597 -0.0169
  792MOL0     C 6835  -2.024   9.967   4.247 -0.5341 -0.4255  0.8147
  792MOL0     N 6836  -1.479  10.668   4.096  0.8583  0.1500  0.9773
  792MOL0     N 6837  -1.397  10.757   4.064 -0.7395 -0.2699 -0.5264
  792MOL0     C 6838  -0.297  10.927   4.249 -0.4902 -0.4826  0.2772
  792MOL0     C 6839  -0.164  10.902   4.286  0.1112 -0.4939 -0.2655
  792MOL0     C 6840   0.266  10.898   4.393 -1.2397 -0.1518 -0.1561
  792MOL0     C 6841   0.344  10.783   4.380 -0.4803 -0.6402 -0.1800
  792MOL0     C 6842   0.460  10.782   4.466 -1.0280  0.4997  0.2284
  792MOL0     C 6843   0.485  10.870   4.569 -0.1278 -0.6424  0.2917
  792MOL0     O 6844   0.591  10.836   4.656  0.4153  0.5665  0.4123
  792MOL0     C 6845   0.656  10.931   4.736 -0.4890  0.3405 -0.2061
  792MOL0     C 6846   0.735  11.040   4.663  0.2718 -0.0784  0.5203
  792MOL0     C 6847   0.876  10.998   4.623 -0.6542 -0.0016  0.5247
  792MOL0     C 6848   0.952  11.112   4.542 -0.4062  0.1060 -0.4831
  792MOL0     C 6849   1.049  11.192   4.622 -0.0319  0.1287  0.1956
  792MOL0     C 6850   1.122  11.273   4.677 -0.0250  0.1148 -0.4954
  792MOL0     C 6851   0.400  10.978   4.586  0.0041 -0.7362  1.2448
  792MOL0     C 6852   0.291  10.997   4.497 -0.5489  0.6769  0.4134
  792MOL0     H 6853  -0.118  11.121   4.525  0.3781  1.2655 -0.0580
  792MOL0     H 6854  -0.350  11.194   4.450  1.2124  1.1133 -1.6596
  792MOL0     H 6855  -0.428  11.236   4.135 -0.3865  0.0175 -3.6188
  792MOL0     H 6856  -0.423  11.076   4.059  1.5654  3.5387 -2.7435
  792MOL0     H 6857  -0.675  11.233   4.113 -2.3549 -2.4033  1.7428
  792MOL0     H 6858  -0.605  11.162   3.959 -1.4313  2.5591  0.0986
  792MOL0     H 6859  -0.773  11.017   3.997  0.3014 -0.2200  0.0304
  792MOL0     H 6860  -0.641  10.935   4.079  0.8299  0.8527  3.5853
  792MOL0     H 6861  -0.728  11.026   4.294 -0.5231  0.5975  0.9135
  792MOL0     H 6862  -0.826  11.145   4.217  2.1029  0.6372  3.2352
  792MOL0     H 6863  -0.969  10.978   4.293  1.0597  2.1353  1.1851
  792MOL0     H 6864  -0.988  10.985   4.123 -0.1162  0.0091 -0.4666
  792MOL0     H 6865  -0.841  10.783   4.083  0.6686  4.1505 -0.6698
  792MOL0     H 6866  -0.838  10.753   4.259 -0.8473 -1.4013 -0.4916
  792MOL0     H 6867  -1.005  10.618   4.141 -0.9112  0.6501 -1.4205
  792MOL0     H 6868  -1.070  10.738   4.261  0.9536 -2.4480  1.4352
  792MOL0     H 6869  -1.103  10.687   3.972 -0.9564 -0.7271  0.1049
  792MOL0     H 6870  -1.133  10.856   4.007 -1.3119 -2.1406 -2.9659
  792MOL0     H 6871  -1.206  10.519   4.178 -2.0673 -1.1358  3.2450
  792MOL0     H 6872  -1.446  10.356   4.126 -1.6085 -0.5540 -1.1540
  792MOL0     H 6873  -1.456  10.391   4.282 -1.1379 -1.3186 -0.3243
  792MOL0     H 6874  -1.695  10.483   4.104 -2.9813 -0.2870  1.6199
  792MOL0     H 6875  -1.684  10.499   4.275  0.5970 -1.2871  0.2936
  792MOL0     H 6876  -1.628  10.243   4.284 -0.8626  1.5269  1.1903
  792MOL0     H 6877  -1.668  10.234   4.109 -4.4861 -1.4727 -0.2183
  792MOL0     H 6878  -1.903  10.331   4.196 -0.4059  0.3911  0.1091
  792MOL0     H 6879  -1.841  10.294   4.358  0.9317 -0.9142 -0.1573
  792MOL0     H 6880  -2.068  10.286   4.318  1.3113  0.2261 -0.1219
  792MOL0     H 6881  -2.279  10.329   4.394 -1.0506  0.7073  0.4233
  792MOL0     H 6882  -2.419  10.231   4.389 -0.8109  4.5983 -1.6741
  792MOL0     H 6883  -2.312  10.210   4.520  1.2711  0.1504  0.5688
  792MOL0     H 6884  -2.409   9.575   4.489 -0.0039 -1.6996 -1.3820
  792MOL0     H 6885  -2.617   9.453   4.572 -3.4415  1.5297  1.7228
  792MOL0     H 6886  -2.951   9.344   4.496 -1.3092  0.9853 -0.8337
  792MOL0     H 6887  -2.771   9.342   4.526 -0.6750  0.4510 -2.0685
  792MOL0     H 6888  -2.859   9.494   4.734 -1.3267  0.1060 -0.0873
  792MOL0     H 6889  -3.019   9.427   4.701 -0.6803  0.5859  0.0272
  792MOL0     H 6890  -2.776   9.278   4.810 -0.1103  1.5853  1.4434
  792MOL0     H 6891  -2.903   9.197   4.716  2.0481  0.1380 -0.0241
  792MOL0     H 6892  -2.950   9.384   4.954  1.6115 -0.5410  1.1339
  792MOL0     H 6893  -3.062   9.271   4.877  0.3735 -1.0934 -1.8703
  792MOL0     H 6894  -2.812   9.191   5.054 -1.2573 -1.8687  2.9266
  792MOL0     H 6895  -2.885   9.075   4.947  0.2511  0.1173  0.4030
  792MOL0     H 6896  -2.946   9.027   5.156 -0.0382  0.3212  2.6304
  792MOL0     H 6897  -3.005   9.192   5.189  1.3581  0.1121 -0.7882
  792MOL0     H 6898  -3.196   9.185   5.025 -1.8521 -0.3287  1.2547
  792MOL0     H 6899  -3.202   9.076   5.164 -0.3915 -0.6500  0.5715
  792MOL0     H 6900  -3.134   8.892   5.017 -1.5001 -0.6282 -2.6658
  792MOL0     H 6901  -3.121   9.005   4.891  0.9029  2.9702  0.7899
  792MOL0     H 6902  -2.853   9.703   4.319 -0.7900 -2.4191  1.0006
  792MOL0     H 6903  -2.650   9.829   4.243 -1.9533  1.7185  1.8612
  792MOL0     H 6904  -2.155   9.809   4.303  2.7649 -0.1824  0.6926
  792MOL0     H 6905  -1.939   9.900   4.247  1.6877  2.1589  3.1843
  792MOL0     H 6906  -0.326  10.865   4.164  1.4510 -1.5596  0.3498
  792MOL0     H 6907  -0.115  10.819   4.237 -1.0659 -1.3139 -0.0982
  792MOL0     H 6908   0.306  10.711   4.309 -1.1772 -1.0225  0.5634
  792MOL0     H 6909   0.522  10.694   4.450 -0.4587  1.0356 -0.6261
  792MOL0     H 6910   0.587  10.980   4.806 -0.2440 -0.2237  0.4456
  792MOL0     H 6911   0.737  10.887   4.795  0.5166  2.5538  0.1723
  792MOL0     H 6912   0.753  11.130   4.723  3.0321  0.1794 -0.5397
  792MOL0     H 6913   0.686  11.073   4.571  1.1816  1.2971  0.4869
  792MOL0     H 6914   0.867  10.906   4.565 -0.2590  1.3169 -1.7176
  792MOL0     H 6915   0.936  10.960   4.706  0.5405 -4.0192 -1.8874
  792MOL0     H 6916   0.885  11.187   4.499 -0.0659 -1.3842 -4.0072
  792MOL0     H 6917   1.001  11.065   4.456  0.2027  2.5558 -1.5860
  792MOL0     H 6918   1.174  11.356   4.719 -0.1164 -1.2709  2.6765
  792MOL0     H 6919   0.426  11.042   4.669  2.6529  2.5213 -1.7360
  792MOL0     H 6920   0.236  11.090   4.506  2.4582  2.5734  0.6831
  793MOL0     O 6921   0.775   6.898   4.381  0.0137 -0.4620 -0.1285
  793MOL0     C 6922   0.837   6.990   4.342 -0.6998 -0.4091  0.3289
  793MOL0     O 6923   0.964   6.989   4.292 -0.2408 -0.4384 -0.3781
  793MOL0     C 6924   1.012   6.874   4.249  0.2270  0.2276  0.0115
  793MOL0     C 6925   0.949   6.803   4.145  1.0107 -0.7123 -0.2506
  793MOL0     C 6926   1.004   6.679   4.112 -0.2555 -0.1982  0.3784
  793MOL0     C 6927   1.108   6.623   4.180 -0.7300 -0.0145  0.3353
  793MOL0     O 6928   1.193   6.522   4.148 -1.3266 -0.2508 -0.0413
  793MOL0     C 6929   1.144   6.436   4.046  0.2210 -0.8934 -0.0970
  793MOL0     C 6930   1.233   6.306   4.027 -0.5495  0.6241 -0.0862
  793MOL0     C 6931   1.231   6.204   4.146  0.8783 -0.4772  0.3679
  793MOL0     C 6932   1.263   6.069   4.085  0.8970  0.2340  0.5291
  793MOL0     C 6933   1.417   6.047   4.091 -0.1389 -1.2125 -0.0112
  793MOL0     C 6934   1.433   5.895   4.069 -0.5962  0.3176 -0.7675
  793MOL0     C 6935   1.579   5.858   4.070 -0.4912  1.0434 -0.8011
  793MOL0     C 6936   1.624   5.706   4.044 -0.3032 -0.2736 -0.2171
  793MOL0     N 6937   1.574   5.650   3.916  0.2219  0.7720  0.4525
  793MOL0     C 6938   1.575   5.706   3.795  0.1964 -0.4010 -0.1299
  793MOL0     C 6939   1.514   5.604   3.714  0.2278 -0.7746  0.2353
  793MOL0     C 6940   1.464   5.615   3.574 -0.3467  0.1452 -0.5703
  793MOL0     C 6941   1.306   5.600   3.557 -0.1522  0.4488 -0.1107
  793MOL0     C 6942   1.234   5.704   3.638 -0.5319  0.1069  0.0213
  793MOL0     C 6943   1.203   5.672   3.775 -0.2388  0.0936  0.1814
  793MOL0     O 6944   1.135   5.791   3.822  0.2026  0.9827 -0.0783
  793MOL0     C 6945   1.081   5.783   3.948 -1.0006 -0.5451  1.2234
  793MOL0     C 6946   0.974   5.857   3.986  0.8563 -0.2061 -0.2335
  793MOL0     C 6947   0.919   5.863   4.116  0.6707  1.2157  0.5973
  793MOL0     C 6948   0.810   5.960   4.126  0.4095 -0.6972  0.1159
  793MOL0     C 6949   0.984   5.790   4.220  0.2392 -0.8282  0.0903
  793MOL0     C 6950   0.935   5.775   4.361 -0.2276 -0.2757 -0.6408
  793MOL0     O 6951   1.020   5.719   4.453 -0.1035  0.1804  0.8118
  793MOL0     C 6952   0.984   5.711   4.586  0.5339 -0.9288  0.5404
  793MOL0     C 6953   0.915   5.601   4.632 -0.4744  0.0768 -0.2348
  793MOL0     C 6954   0.885   5.593   4.766  0.0161  0.5691  0.3437
  793MOL0     C 6955   0.904   5.701   4.848  0.2586  0.0745 -0.3223
  793MOL0     O 6956   0.871   5.703   4.975 -0.8634 -0.1284 -0.3697
  793MOL0     C 6957   0.745   5.682   5.032  0.1386 -0.2832  0.1562
  793MOL0     C 6958   0.755   5.541   5.095 -0.1095 -0.0772 -0.1538
  793MOL0     C 6959   0.617   5.489   5.113  0.0719 -0.3597 -0.4841
  793MOL0     C 6960   0.554   5.561   5.237 -1.4011 -0.7903 -0.4516
  793MOL0     C 6961   0.417   5.509   5.274  0.4252  0.5355 -0.0811
  793MOL0     C 6962   0.326   5.468   5.155 -1.0038 -0.3761  0.2837
  793MOL0     C 6963   0.185   5.422   5.201  0.0056  1.0197 -0.5894
  793MOL0     C 6964   0.094   5.384   5.075 -0.1973  0.0805 -0.1449
  793MOL0    Cl 6965   0.134   5.265   4.959  0.1820  0.2364  0.1649
  793MOL0     C 6966   0.980   5.802   4.803 -1.1800 -0.2010  0.3273
  793MOL0     C 6967   1.026   5.814   4.672  0.8958  0.5707  0.2949
  793MOL0     O 6968   0.818   5.811   4.385  0.1120 -0.5369 -0.3930
  793MOL0     C 6969   1.105   5.722   4.189  0.1600 -0.8516 -0.3387
  793MOL0     C 6970   1.151   5.711   4.054 -0.2039 -0.2759 -0.3730
  793MOL0     N 6971   1.484   5.499   3.792 -0.4000  0.0775  0.1765
  793MOL0     N 6972   1.520   5.521   3.912 -0.0871 -0.0700  0.2984
  793MOL0     C 6973   1.165   6.694   4.287 -0.0239 -0.0576 -0.1155
  793MOL0     C 6974   1.120   6.815   4.320  0.2461  0.6557  0.4535
  793MOL0     C 6975   0.773   7.126   4.360 -0.0190  0.5635 -0.0945
  793MOL0     C 6976   0.829   7.240   4.302 -0.2731 -0.6005  0.1328
  793MOL0     C 6977   0.765   7.363   4.302  0.0544  0.4268  0.1376
  793MOL0     C 6978   0.636   7.381   4.361 -0.0272 -0.5847 -0.4077
  793MOL0     O 6979   0.564   7.498   4.369  0.7087  0.5838 -0.5073
  793MOL0     C 6980   0.613   7.618   4.302 -0.3514  1.1303 -1.0261
  793MOL0     C 6981   0.725   7.689   4.394 -0.1741 -0.1462 -1.0845
  793MOL0     C 6982   0.832   7.765   4.311 -1.1337  0.5097  0.0301
  793MOL0     C 6983   0.779   7.877   4.219  0.9041 -0.0002  0.2269
  793MOL0     C 6984   0.776   7.822   4.076 -0.0140 -0.1321  0.2260
  793MOL0     C 6985   0.761   7.789   3.963 -0.6684 -0.4922  0.9897
  793MOL0     C 6986   0.594   7.272   4.436 -0.4526  0.4159  0.7229
  793MOL0     C 6987   0.658   7.145   4.438 -0.0666 -0.4473  0.6117
  793MOL0     H 6988   0.874   6.864   4.094  1.0441 -1.7582 -1.6076
  793MOL0     H 6989   0.968   6.640   4.017 -0.2980 -0.6158  0.5638
  793MOL0     H 6990   1.043   6.402   4.068  0.0847 -1.1393 -1.0504
  793MOL0     H 6991   1.139   6.497   3.955  0.4960  0.4346  0.7467
  793MOL0     H 6992   1.193   6.260   3.936 -0.3636  0.3276 -0.0206
  793MOL0     H 6993   1.334   6.339   4.002 -0.6221 -0.0020 -1.2481
  793MOL0     H 6994   1.303   6.232   4.224  0.7581  1.6843 -0.2351
  793MOL0     H 6995   1.129   6.207   4.188  2.0760  3.0106  3.5931
  793MOL0     H 6996   1.219   5.994   4.152 -0.2226 -0.1222 -0.5626
  793MOL0     H 6997   1.218   6.044   3.989 -0.2700 -2.9787  1.7546
  793MOL0     H 6998   1.459   6.106   4.009 -1.3409  0.3516  0.4447
  793MOL0     H 6999   1.445   6.087   4.189 -2.0394  2.1335 -0.6550
  793MOL0     H 7000   1.379   5.841   4.148  0.7371  0.6181  0.3956
  793MOL0     H 7001   1.397   5.864   3.970 -1.1815 -1.3667 -0.0706
  793MOL0     H 7002   1.628   5.925   3.999 -0.0611  1.7251  0.1100
  793MOL0     H 7003   1.612   5.887   4.170 -0.7674  1.2542 -0.7687
  793MOL0     H 7004   1.589   5.639   4.123 -2.8408 -0.4705 -1.4126
  793MOL0     H 7005   1.734   5.706   4.047 -0.2281  1.0234 -1.6991
  793MOL0     H 7006   1.605   5.807   3.769 -0.3365 -0.8104 -2.6871
  793MOL0     H 7007   1.491   5.715   3.540 -1.8324  1.6513  2.2789
  793MOL0     H 7008   1.500   5.530   3.516 -0.9802 -0.5068 -0.0342
  793MOL0     H 7009   1.279   5.499   3.590 -1.8046  1.2203  1.0420
  793MOL0     H 7010   1.280   5.611   3.451 -1.3209 -1.1495 -0.0351
  793MOL0     H 7011   1.137   5.721   3.589 -1.3260 -4.8729 -0.6077
  793MOL0     H 7012   1.288   5.798   3.622 -0.7059 -0.2404 -3.5204
  793MOL0     H 7013   1.292   5.652   3.835  0.0974 -0.4328 -0.4764
  793MOL0     H 7014   1.151   5.576   3.788  1.5528 -1.2210 -1.6884
  793MOL0     H 7015   0.943   5.928   3.910  0.6957 -0.2671 -0.2276
  793MOL0     H 7016   0.839   6.048   4.185 -1.1620 -1.0111  1.4422
  793MOL0     H 7017   0.766   5.999   4.034  0.0684 -0.4140  0.3945
  793MOL0     H 7018   0.731   5.911   4.184 -0.3748  0.9708  0.5107
  793MOL0     H 7019   0.899   5.517   4.566  0.7233 -2.3080  2.3013
  793MOL0     H 7020   0.827   5.505   4.793  2.6597 -1.8358 -1.2583
  793MOL0     H 7021   0.718   5.750   5.113  0.0485  1.7644 -1.5055
  793MOL0     H 7022   0.667   5.693   4.957  1.6584 -0.6849 -1.5719
  793MOL0     H 7023   0.813   5.462   5.046  1.9654 -1.4637  4.0411
  793MOL0     H 7024   0.806   5.554   5.192  1.0471  3.3053 -1.0759
  793MOL0     H 7025   0.612   5.381   5.131  0.2117 -0.0110  1.9872
  793MOL0     H 7026   0.556   5.517   5.027  0.0140  0.7371 -0.1006
  793MOL0     H 7027   0.624   5.551   5.320 -1.2439 -2.0093 -0.7073
  793MOL0     H 7028   0.549   5.669   5.222  0.3966 -0.3439  1.6976
  793MOL0     H 7029   0.348   5.579   5.322 -1.6908 -1.6953  0.3112
  793MOL0     H 7030   0.420   5.430   5.349  0.5722  1.0751  0.4954
  793MOL0     H 7031   0.314   5.555   5.090  2.3286 -1.0361 -1.4583
  793MOL0     H 7032   0.385   5.394   5.099 -1.5245 -1.5848  1.2858
  793MOL0     H 7033   0.128   5.494   5.262 -1.3864 -0.8411  0.4109
  793MOL0     H 7034   0.201   5.331   5.259 -0.1332  0.4794 -1.3909
  793MOL0     H 7035   0.085   5.478   5.019 -0.8371  0.3274  0.3705
  793MOL0     H 7036   0.003   5.341   5.117  0.3977 -2.2223 -1.0897
  793MOL0     H 7037   0.999   5.884   4.872 -2.2593  1.2433 -1.0285
  793MOL0     H 7038   1.085   5.897   4.634  2.8220 -0.8966 -0.0458
  793MOL0     H 7039   1.168   5.653   4.243  1.6224 -0.9074 -2.0382
  793MOL0     H 7040   1.242   5.654   4.036  0.4751  0.9433 -0.9638
  793MOL0     H 7041   1.250   6.663   4.348 -0.3419 -0.0963  0.3168
  793MOL0     H 7042   1.157   6.879   4.399  0.3426  0.2982  0.6964
  793MOL0     H 7043   0.925   7.227   4.252  0.7004  2.7604  0.8603
  793MOL0     H 7044   0.811   7.438   4.238 -0.3619  0.9991  0.5044
  793MOL0     H 7045   0.646   7.585   4.203 -0.7462 -1.5210 -0.3355
  793MOL0     H 7046   0.533   7.693   4.294 -1.4085 -0.0301 -1.6793
  793MOL0     H 7047   0.777   7.620   4.460  2.8546  3.4015  0.6161
  793MOL0     H 7048   0.664   7.762   4.449 -2.0650 -0.3508 -2.7722
  793MOL0     H 7049   0.891   7.693   4.254 -0.6545 -0.1518  1.3160
  793MOL0     H 7050   0.904   7.804   4.383  1.5640  0.5329 -2.5017
  793MOL0     H 7051   0.836   7.971   4.213  1.0236 -0.0111  1.0456
  793MOL0     H 7052   0.678   7.896   4.256  0.0392 -4.2692  0.5646
  793MOL0     H 7053   0.764   7.774   3.857 -0.6611  5.4583 -0.1748
  793MOL0     H 7054   0.499   7.282   4.487  0.6900 -0.1564  3.0805
  793MOL0     H 7055   0.623   7.059   4.495  4.8401 -1.9114  1.8559
  794MOL0     O 7056   0.065   0.459   1.434  0.6836 -1.2707 -0.4439
  794MOL0     C 7057   0.119   0.389   1.511 -0.0978 -0.8204  0.8116
  794MOL0     O 7058   0.182   0.273   1.474  0.7149 -0.2502 -0.0660
  794MOL0     C 7059   0.163   0.211   1.358  0.0174  0.0325 -0.3490
  794MOL0     C 7060   0.047   0.194   1.277  0.7071  0.0087  0.7270
  794MOL0     C 7061   0.055   0.108   1.158  0.0428  0.2384  0.6894
  794MOL0     C 7062   0.176   0.049   1.121  0.9111  0.0827  0.0078
  794MOL0     O 7063   0.200  -0.020   1.010 -0.6630 -0.5014  1.0710
  794MOL0     C 7064   0.097  -0.051   0.919  0.1959 -0.7430  0.1910
  794MOL0     C 7065   0.158  -0.135   0.813  0.7361  0.1352  0.7878
  794MOL0     C 7066   0.163  -0.280   0.868 -0.3797 -0.3861  0.5015
  794MOL0     C 7067   0.240  -0.370   0.773 -0.2036  2.2008  0.0476
  794MOL0     C 7068   0.296  -0.500   0.838  0.0116  0.2451 -0.5492
  794MOL0     C 7069   0.422  -0.473   0.918  1.3019 -0.7339 -0.7125
  794MOL0     C 7070   0.452  -0.606   0.998 -0.1185 -0.0924 -0.2220
  794MOL0     C 7071   0.473  -0.716   0.907  0.4126  0.6909  0.8826
  794MOL0     N 7072   0.529  -0.833   0.974 -0.3511  0.5966 -0.2715
  794MOL0     C 7073   0.659  -0.846   1.024  0.4575 -0.4730  0.1704
  794MOL0     C 7074   0.670  -0.972   1.076  0.6807  0.7607 -0.1009
  794MOL0     C 7075   0.797  -1.029   1.138  1.5158 -0.0554 -0.3775
  794MOL0     C 7076   0.782  -1.122   1.263 -0.0084 -0.1105 -0.0408
  794MOL0     C 7077   0.718  -1.060   1.386  0.1989 -0.0172 -0.9030
  794MOL0     C 7078   0.730  -1.147   1.508  0.2293 -0.5857 -0.2319
  794MOL0     O 7079   0.872  -1.169   1.536 -0.5007  0.1467  0.2078
  794MOL0     C 7080   0.905  -1.233   1.654 -0.8592 -0.6774  0.5604
  794MOL0     C 7081   0.821  -1.320   1.726 -0.2847  0.2410 -0.1314
  794MOL0     C 7082   0.853  -1.377   1.851  0.5327  0.6577 -0.0811
  794MOL0     C 7083   0.746  -1.472   1.911  0.3720  0.6791  0.5963
  794MOL0     C 7084   0.988  -1.360   1.897  1.0180 -0.2687 -0.0925
  794MOL0     C 7085   1.046  -1.426   2.008 -0.1916 -0.3902  0.3253
  794MOL0     O 7086   0.964  -1.482   2.096 -0.1390 -0.0674  0.0371
  794MOL0     C 7087   0.985  -1.505   2.233  0.6429  0.6226  0.3194
  794MOL0     C 7088   0.876  -1.583   2.291 -0.0096  0.5841 -0.5441
  794MOL0     C 7089   0.869  -1.589   2.430  0.6175  0.8145  0.6148
  794MOL0     C 7090   0.966  -1.539   2.518  0.3694  0.3724  0.7350
  794MOL0     O 7091   0.937  -1.541   2.656 -0.2940 -0.6394  0.4806
  794MOL0     C 7092   1.011  -1.440   2.727 -1.2288 -0.0442  0.7617
  794MOL0     C 7093   0.986  -1.467   2.874 -0.9799  0.1242 -0.4919
  794MOL0     C 7094   1.032  -1.604   2.928  1.0690  0.8041  0.1707
  794MOL0     C 7095   0.971  -1.638   3.071  0.0542  0.5000 -0.3504
  794MOL0     C 7096   1.073  -1.602   3.185  0.3677 -0.0621 -0.1469
  794MOL0     C 7097   1.017  -1.597   3.329  0.8999 -0.4665 -0.1675
  794MOL0     C 7098   0.938  -1.726   3.358  0.1296  0.5226 -0.7792
  794MOL0     C 7099   0.912  -1.743   3.511  0.4414  0.5044 -0.2179
  794MOL0    Cl 7100   0.887  -1.926   3.518  0.3468 -0.4379  0.0561
  794MOL0     C 7101   1.074  -1.471   2.462  0.7711  0.6156 -0.9974
  794MOL0     C 7102   1.082  -1.448   2.323  0.2770  1.0584  0.0406
  794MOL0     O 7103   1.167  -1.432   2.014 -0.3995 -0.4487 -0.8833
  794MOL0     C 7104   1.066  -1.264   1.834 -0.2646  0.7704  0.4731
  794MOL0     C 7105   1.026  -1.207   1.712  0.4656 -0.1881 -0.1214
  794MOL0     N 7106   0.547  -1.038   1.050  0.4085 -0.5974  0.3536
  794MOL0     N 7107   0.471  -0.956   0.982 -0.0555 -0.5513 -1.3731
  794MOL0     C 7108   0.287   0.071   1.204  0.7413  0.6156 -0.0650
  794MOL0     C 7109   0.279   0.144   1.326 -0.5112  0.5056  1.3459
  794MOL0     C 7110   0.129   0.434   1.654  0.2299  0.1589 -0.4345
  794MOL0     C 7111   0.145   0.343   1.754 -0.4465 -0.5935  0.1702
  794MOL0     C 7112   0.131   0.379   1.886 -0.6850  0.0436 -0.6196
  794MOL0     C 7113   0.125   0.509   1.930 -0.9497 -0.6856  0.0810
  794MOL0     O 7114   0.128   0.542   2.071  1.1025 -0.2573  1.0312
  794MOL0     C 7115   0.050   0.468   2.163  0.3826 -0.6433  0.2501
  794MOL0     C 7116  -0.098   0.504   2.154  0.0988  1.3905  0.1531
  794MOL0     C 7117  -0.131   0.650   2.189  0.1048 -0.1852 -0.5756
  794MOL0     C 7118  -0.268   0.685   2.129  0.5696  0.6052 -0.1055
  794MOL0     C 7119  -0.303   0.820   2.170 -0.2345 -0.1999 -0.2703
  794MOL0     C 7120  -0.320   0.932   2.192  0.0641 -0.8516  0.3324
  794MOL0     C 7121   0.102   0.603   1.832  0.3299 -0.3152 -0.0885
  794MOL0     C 7122   0.110   0.567   1.699  0.2918 -0.4206 -0.0774
  794MOL0     H 7123  -0.046   0.244   1.302  0.1437  0.5880 -2.1700
  794MOL0     H 7124  -0.043   0.089   1.116  1.1388  1.4317 -2.8158
  794MOL0     H 7125   0.020  -0.111   0.970 -0.8211  1.6629  1.6721
  794MOL0     H 7126   0.061   0.044   0.878  1.0262 -1.2985 -1.9600
  794MOL0     H 7127   0.096  -0.133   0.723  1.0278 -0.8188  0.5580
  794MOL0     H 7128   0.256  -0.093   0.788  2.4212 -3.5735  0.4207
  794MOL0     H 7129   0.208  -0.283   0.968 -0.6588  0.4086  0.6571
  794MOL0     H 7130   0.064  -0.326   0.857  0.5214 -2.4271  0.4146
  794MOL0     H 7131   0.170  -0.413   0.701  1.5810 -0.3043 -0.3288
  794MOL0     H 7132   0.308  -0.312   0.711  0.9168  1.9349  0.9887
  794MOL0     H 7133   0.219  -0.556   0.891  1.4155 -0.3903  0.9348
  794MOL0     H 7134   0.340  -0.548   0.750 -1.2821 -0.9584 -0.5651
  794MOL0     H 7135   0.502  -0.443   0.850  0.5362  2.7898 -0.2968
  794MOL0     H 7136   0.398  -0.393   0.989 -3.6519  1.0845 -3.9236
  794MOL0     H 7137   0.540  -0.595   1.063 -0.4888  4.6550 -0.1293
  794MOL0     H 7138   0.370  -0.620   1.069 -0.6354 -0.7569 -0.9456
  794MOL0     H 7139   0.533  -0.693   0.818 -1.0834  0.0363 -0.3464
  794MOL0     H 7140   0.372  -0.743   0.875 -0.2794  2.2278  1.6213
  794MOL0     H 7141   0.735  -0.768   1.018 -2.3389  2.3665 -1.8974
  794MOL0     H 7142   0.844  -1.094   1.064  0.5583  1.1221 -2.0781
  794MOL0     H 7143   0.865  -0.947   1.166  3.1001 -1.1491 -0.8556
  794MOL0     H 7144   0.886  -1.151   1.284  0.1552  0.4505 -0.0629
  794MOL0     H 7145   0.728  -1.214   1.237 -1.2399 -0.5609  3.5234
  794MOL0     H 7146   0.612  -1.044   1.360  0.8480 -1.3216 -5.0368
  794MOL0     H 7147   0.774  -0.968   1.402  0.7177 -0.0901 -2.1812
  794MOL0     H 7148   0.679  -1.243   1.492 -0.8070 -0.3559  1.4630
  794MOL0     H 7149   0.673  -1.110   1.593 -2.2444  0.1704 -2.1100
  794MOL0     H 7150   0.725  -1.333   1.677 -0.3158  1.1482 -0.3188
  794MOL0     H 7151   0.671  -1.500   1.837  0.8791 -0.6838  0.5829
  794MOL0     H 7152   0.801  -1.562   1.937 -0.6977 -0.1001  0.2472
  794MOL0     H 7153   0.712  -1.410   1.995  1.7218 -0.9186  2.4161
  794MOL0     H 7154   0.802  -1.630   2.227 -1.2407 -1.0397  1.9247
  794MOL0     H 7155   0.787  -1.650   2.468  1.3165  0.7342  2.0980
  794MOL0     H 7156   1.119  -1.427   2.713 -0.7656 -1.0480  2.9299
  794MOL0     H 7157   0.966  -1.347   2.692 -0.5302 -0.6509 -2.0297
  794MOL0     H 7158   1.043  -1.393   2.932 -0.1470 -1.5402  0.9105
  794MOL0     H 7159   0.877  -1.466   2.883 -1.2032  1.1832 -2.6735
  794MOL0     H 7160   1.141  -1.611   2.930  1.2242 -0.9374 -3.9159
  794MOL0     H 7161   1.009  -1.676   2.849  1.7309  1.1321 -0.3322
  794MOL0     H 7162   0.880  -1.579   3.085 -0.6574 -0.9004  1.1701
  794MOL0     H 7163   0.946  -1.743   3.089  0.0920  0.7094  1.0267
  794MOL0     H 7164   1.137  -1.514   3.172  2.9380 -1.5582  1.6198
  794MOL0     H 7165   1.142  -1.686   3.186  2.0585  1.1195  4.1752
  794MOL0     H 7166   1.098  -1.587   3.402 -0.6715 -1.2035  1.7609
  794MOL0     H 7167   0.952  -1.511   3.347  0.0817 -0.8905 -1.0356
  794MOL0     H 7168   1.000  -1.807   3.319  2.3108  0.9162  1.6104
  794MOL0     H 7169   0.843  -1.714   3.304 -0.8277 -0.1934  0.6619
  794MOL0     H 7170   0.822  -1.691   3.545 -0.4944 -0.5023 -1.0840
  794MOL0     H 7171   0.992  -1.716   3.581 -0.0959 -0.5911  0.8653
  794MOL0     H 7172   1.158  -1.439   2.523  0.8247 -2.2711  0.5959
  794MOL0     H 7173   1.153  -1.377   2.280 -0.0555  0.2971 -1.8410
  794MOL0     H 7174   1.159  -1.235   1.882  0.9009 -3.4405  1.1217
  794MOL0     H 7175   1.099  -1.136   1.673 -0.4791  0.6373 -0.4122
  794MOL0     H 7176   0.382   0.025   1.178 -0.9316 -3.3947  0.1502
  794MOL0     H 7177   0.365   0.167   1.388 -0.2884  3.1325  0.2181
  794MOL0     H 7178   0.152   0.236   1.735 -0.0953 -0.3322 -1.3759
  794MOL0     H 7179   0.144   0.305   1.965  2.2397  0.8076 -0.2619
  794MOL0     H 7180   0.063   0.360   2.146  3.1524 -0.3125 -0.1689
  794MOL0     H 7181   0.084   0.487   2.265  2.4629  0.5745 -0.6123
  794MOL0     H 7182  -0.159   0.435   2.213  1.6941 -0.5476 -0.3437
  794MOL0     H 7183  -0.121   0.482   2.049  3.7889 -2.8076 -0.0813
  794MOL0     H 7184  -0.069   0.730   2.147 -3.0321  2.1768 -1.0515
  794MOL0     H 7185  -0.139   0.667   2.296 -2.4914 -1.7178 -0.4383
  794MOL0     H 7186  -0.347   0.613   2.152  0.0073  1.9881  2.6610
  794MOL0     H 7187  -0.266   0.684   2.019 -1.4357  2.2492 -0.1991
  794MOL0     H 7188  -0.346   1.032   2.220  1.1337 -1.3718  3.6509
  794MOL0     H 7189   0.085   0.704   1.868  2.6236 -0.2702  1.0639
  794MOL0     H 7190   0.100   0.639   1.619  0.3821 -0.5570 -0.2102
  795MOL0     O 7191   8.428   7.141  10.188  0.3635 -0.3434  0.6443
  795MOL0     C 7192   8.372   7.094  10.280  0.2172  0.0273 -0.4902
  795MOL0     O 7193   8.351   7.156  10.402 -0.5780 -0.4303  0.2304
  795MOL0     C 7194   8.387   7.288  10.415  0.4612  0.0112  0.0157
  795MOL0     C 7195   8.464   7.313  10.527  0.7996 -0.0888 -0.6064
  795MOL0     C 7196   8.501   7.441  10.561  0.2139 -0.5551 -0.4257
  795MOL0     C 7197   8.468   7.549  10.484  1.3526 -0.4726  0.2255
  795MOL0     O 7198   8.492   7.675  10.545 -0.3158  0.4136 -0.1701
  795MOL0     C 7199   8.492   7.793  10.469 -0.2714 -0.2503 -0.7451
  795MOL0     C 7200   8.548   7.892  10.566  1.1019  0.0459 -0.5647
  795MOL0     C 7201   8.702   7.894  10.559 -0.2277  0.1513  0.3188
  795MOL0     C 7202   8.756   7.977  10.680 -0.9952 -0.0169  0.3765
  795MOL0     C 7203   8.909   7.974  10.667  0.8001 -0.1161 -0.4198
  795MOL0     C 7204   8.969   8.112  10.717  0.8656  0.2296 -0.2416
  795MOL0     C 7205   8.931   8.239  10.636 -1.1096 -0.3729 -0.1369
  795MOL0     C 7206   8.991   8.227  10.495 -0.5393 -0.6613  1.5332
  795MOL0     N 7207   8.906   8.174  10.395  0.0363 -0.3311  0.0492
  795MOL0     C 7208   8.776   8.199  10.380  0.2194 -0.4954  0.0273
  795MOL0     C 7209   8.738   8.150  10.269 -0.2519 -0.5368 -0.3826
  795MOL0     C 7210   8.602   8.154  10.220 -0.5027 -0.4553  0.7762
  795MOL0     C 7211   8.575   8.280  10.118 -0.9018  0.2196  0.2961
  795MOL0     C 7212   8.435   8.284  10.060  0.4260  0.1564  0.0717
  795MOL0     C 7213   8.387   8.167   9.970  0.6806  0.2286  1.1145
  795MOL0     O 7214   8.415   8.163   9.824 -0.0481  0.5821  0.3996
  795MOL0     C 7215   8.358   8.248   9.735  0.0443  0.5716  0.5991
  795MOL0     C 7216   8.240   8.331   9.762 -0.4817 -0.6578  0.5272
  795MOL0     C 7217   8.186   8.415   9.654 -0.5715 -0.5209 -0.6704
  795MOL0     C 7218   8.071   8.501   9.703 -0.0386 -0.4340  0.5592
  795MOL0     C 7219   8.258   8.432   9.535 -0.0421 -1.1033  0.8299
  795MOL0     C 7220   8.208   8.508   9.425  0.4522 -0.0085  0.2856
  795MOL0     O 7221   8.282   8.511   9.313  0.1540 -0.0536  0.2582
  795MOL0     C 7222   8.247   8.587   9.215  0.1421 -0.3947 -0.2226
  795MOL0     C 7223   8.313   8.712   9.189 -0.5703 -0.1430  0.2087
  795MOL0     C 7224   8.298   8.775   9.065 -0.0804 -0.0400 -0.2176
  795MOL0     C 7225   8.216   8.732   8.967  1.2853  0.1777 -0.6055
  795MOL0     O 7226   8.212   8.808   8.848 -0.2927  0.0004 -0.5968
  795MOL0     C 7227   8.233   8.738   8.728 -0.0058  0.4131  1.0039
  795MOL0     C 7228   8.203   8.834   8.621 -0.1357 -0.1095  0.3432
  795MOL0     C 7229   8.208   8.769   8.477 -0.0744 -0.0833  0.4912
  795MOL0     C 7230   8.348   8.779   8.424  0.8483 -0.0741  0.1906
  795MOL0     C 7231   8.363   8.722   8.278  0.3322  0.2290 -0.1655
  795MOL0     C 7232   8.246   8.779   8.187  0.7300 -0.8158  0.5820
  795MOL0     C 7233   8.261   8.926   8.149 -0.2828 -0.7167  0.0583
  795MOL0     C 7234   8.199   8.957   8.013  0.2967  0.2963 -0.6801
  795MOL0    Cl 7235   8.019   8.921   8.006  0.4937  0.4197  0.0458
  795MOL0     C 7236   8.139   8.614   8.998 -0.2076 -0.4178 -1.3153
  795MOL0     C 7237   8.162   8.538   9.114 -0.2915 -0.3649 -0.0223
  795MOL0     O 7238   8.101   8.564   9.436 -0.0943  0.1642  0.3325
  795MOL0     C 7239   8.372   8.356   9.516 -0.2049  0.5973 -0.0704
  795MOL0     C 7240   8.417   8.255   9.608 -0.0629 -0.1403  0.1481
  795MOL0     N 7241   8.842   8.074  10.223  0.3510  0.4164  1.0048
  795MOL0     N 7242   8.942   8.098  10.293 -0.0064  1.0114 -0.4046
  795MOL0     C 7243   8.390   7.527  10.365 -0.4883  0.1593 -0.1899
  795MOL0     C 7244   8.353   7.397  10.330 -0.3962 -0.1576  0.2651
  795MOL0     C 7245   8.299   6.967  10.268  0.9370 -0.9341  0.3790
  795MOL0     C 7246   8.197   6.927  10.360  0.3626  0.1887  0.8378
  795MOL0     C 7247   8.126   6.808  10.334  0.5646 -0.4569 -0.6580
  795MOL0     C 7248   8.153   6.738  10.227 -0.0428 -0.2383 -0.1091
  795MOL0     O 7249   8.084   6.620  10.200  0.8510 -0.2155  0.6423
  795MOL0     C 7250   7.938   6.592  10.221 -0.5260 -0.9203 -0.2042
  795MOL0     C 7251   7.839   6.673  10.136  0.1580 -0.3338 -0.3856
  795MOL0     C 7252   7.696   6.626  10.165  0.5309  0.9187  0.0018
  795MOL0     C 7253   7.592   6.729  10.123 -0.1717 -1.0011  0.1269
  795MOL0     C 7254   7.577   6.836  10.224  0.1921  0.0097  0.0731
  795MOL0     C 7255   7.557   6.920  10.311  0.5413 -0.5616 -0.6547
  795MOL0     C 7256   8.247   6.781  10.128  0.0064 -0.1565 -0.5811
  795MOL0     C 7257   8.319   6.894  10.148  0.1729 -0.9530 -0.1442
  795MOL0     H 7258   8.492   7.230  10.590 -0.1224 -0.0663 -0.1603
  795MOL0     H 7259   8.551   7.467  10.654  2.5073  0.0653 -1.7707
  795MOL0     H 7260   8.552   7.790  10.378  2.8373  1.3092  1.0950
  795MOL0     H 7261   8.388   7.826  10.459  0.1448  1.4793  0.1249
  795MOL0     H 7262   8.495   7.982  10.534 -2.3249 -1.5817  0.0718
  795MOL0     H 7263   8.507   7.883  10.667  1.4633  1.6759 -0.2522
  795MOL0     H 7264   8.742   7.793  10.569  2.9219  1.1298 -1.0396
  795MOL0     H 7265   8.732   7.946  10.468  0.3284  0.0255  0.4226
  795MOL0     H 7266   8.709   8.075  10.674  0.8322  0.9358  0.7287
  795MOL0     H 7267   8.728   7.930  10.774  1.3913 -1.2064  0.5931
  795MOL0     H 7268   8.945   7.906  10.744  2.0695 -1.2599 -1.9733
  795MOL0     H 7269   8.961   7.952  10.574  0.0539 -2.6937 -0.2860
  795MOL0     H 7270   8.953   8.127  10.824 -2.1260 -1.2866 -0.3888
  795MOL0     H 7271   9.077   8.106  10.696  1.0427  0.7354  0.5049
  795MOL0     H 7272   8.822   8.253  10.638 -1.6475 -3.7561 -0.4612
  795MOL0     H 7273   8.978   8.326  10.682 -2.7490  1.0572 -1.0204
  795MOL0     H 7274   9.084   8.169  10.488 -0.9581 -1.6872  3.6114
  795MOL0     H 7275   9.026   8.327  10.469 -2.1023 -0.1963  1.1296
  795MOL0     H 7276   8.715   8.246  10.457  1.2526 -1.8219  1.7235
  795MOL0     H 7277   8.579   8.062  10.166 -2.2699  0.3365  0.0864
  795MOL0     H 7278   8.536   8.160  10.307 -2.2303 -1.1128 -0.4365
  795MOL0     H 7279   8.645   8.271  10.035  0.5551  0.8666  1.4198
  795MOL0     H 7280   8.588   8.377  10.167  1.7869  2.1667 -3.6490
  795MOL0     H 7281   8.431   8.378  10.005 -0.1456 -0.4332 -0.9145
  795MOL0     H 7282   8.368   8.279  10.147  0.3953 -3.4643  0.0218
  795MOL0     H 7283   8.278   8.171   9.981  0.6259 -1.1267  1.2755
  795MOL0     H 7284   8.409   8.068  10.012  0.5576 -1.2376 -2.0159
  795MOL0     H 7285   8.187   8.335   9.857  0.6588 -1.8213  1.2500
  795MOL0     H 7286   7.985   8.483   9.638 -3.9000  1.3300  4.7153
  795MOL0     H 7287   8.068   8.494   9.812  0.7473  0.5572  0.6639
  795MOL0     H 7288   8.093   8.607   9.687  1.2975 -0.1826  3.4831
  795MOL0     H 7289   8.374   8.759   9.264  1.1629  0.4298 -1.4809
  795MOL0     H 7290   8.346   8.872   9.053 -4.6344  2.8060  2.0929
  795MOL0     H 7291   8.333   8.694   8.719 -1.3141 -2.6585 -0.1733
  795MOL0     H 7292   8.157   8.659   8.720  1.1001 -0.7907  2.0030
  795MOL0     H 7293   8.100   8.872   8.629 -0.7254 -1.4129 -0.6635
  795MOL0     H 7294   8.279   8.912   8.619 -0.3447  0.1130  0.9365
  795MOL0     H 7295   8.137   8.829   8.420 -0.3416  0.1552  1.0771
  795MOL0     H 7296   8.172   8.667   8.462  2.0364 -0.5127 -2.9636
  795MOL0     H 7297   8.371   8.886   8.415  0.8664 -0.1358 -0.5751
  795MOL0     H 7298   8.417   8.729   8.492 -0.8925 -3.6031 -0.4574
  795MOL0     H 7299   8.344   8.614   8.269  1.8230  0.0867 -2.3378
  795MOL0     H 7300   8.464   8.749   8.245  0.5230 -0.6047 -0.2910
  795MOL0     H 7301   8.261   8.722   8.095  1.9127  2.2849 -1.2700
  795MOL0     H 7302   8.146   8.749   8.223 -0.0854  1.9937  0.8619
  795MOL0     H 7303   8.369   8.943   8.157 -0.2913 -0.7154  0.1871
  795MOL0     H 7304   8.205   8.993   8.214  0.5359 -0.5339  0.5941
  795MOL0     H 7305   8.251   8.909   7.929 -0.3603 -0.4177 -0.6888
  795MOL0     H 7306   8.202   9.065   7.999 -0.7800  0.2552 -1.4024
  795MOL0     H 7307   8.063   8.568   8.936 -3.5319  0.8180  1.5228
  795MOL0     H 7308   8.099   8.450   9.128  0.0425 -1.4364 -4.0241
  795MOL0     H 7309   8.423   8.349   9.420  0.2051 -3.0927  0.2816
  795MOL0     H 7310   8.508   8.197   9.600 -0.2375 -1.3254  4.4310
  795MOL0     H 7311   8.358   7.619  10.318  3.6667  2.0782  0.2247
  795MOL0     H 7312   8.298   7.399  10.236 -0.6008 -0.0543  0.3871
  795MOL0     H 7313   8.185   6.971  10.458 -2.1660 -1.5507  1.3938
  795MOL0     H 7314   8.061   6.766  10.410 -0.4963  1.8224 -0.2074
  795MOL0     H 7315   7.921   6.484  10.214 -3.1381 -0.6453  0.8025
  795MOL0     H 7316   7.905   6.615  10.323 -0.2069 -1.1657 -0.0427
  795MOL0     H 7317   7.874   6.667  10.033 -2.9226  0.8776 -1.6102
  795MOL0     H 7318   7.842   6.779  10.163 -2.4186 -0.7226  1.8570
  795MOL0     H 7319   7.681   6.602  10.271  3.2831  1.1588  0.5128
  795MOL0     H 7320   7.689   6.537  10.102  0.1915  1.1677 -0.3194
  795MOL0     H 7321   7.494   6.681  10.115  0.2422 -1.5140 -2.6023
  795MOL0     H 7322   7.622   6.778  10.030  1.5946  0.1258  1.2344
  795MOL0     H 7323   7.537   6.984  10.395  0.5827 -1.7532  0.2931
  795MOL0     H 7324   8.257   6.719  10.039  0.2816 -0.8292 -0.0954
  795MOL0     H 7325   8.390   6.921  10.070 -0.1746  1.0592  0.1787
  796MOL0     O 7326   7.270   0.950   8.100  0.6246  0.6647  0.8936
  796MOL0     C 7327   7.154   0.965   8.124  0.0358  0.4462 -0.5644
  796MOL0     O 7328   7.102   1.094   8.160 -0.1620  1.0640  0.6719
  796MOL0     C 7329   7.181   1.192   8.212  0.5605 -0.0677 -0.7809
  796MOL0     C 7330   7.169   1.322   8.170 -0.6192 -0.1252  0.6333
  796MOL0     C 7331   7.258   1.418   8.221  1.0997  0.3165  0.1955
  796MOL0     C 7332   7.346   1.382   8.326 -0.2343 -0.8081  0.6083
  796MOL0     O 7333   7.418   1.489   8.372  0.6428  0.8279 -0.6194
  796MOL0     C 7334   7.539   1.466   8.454 -0.0676 -0.6389  0.4793
  796MOL0     C 7335   7.536   1.534   8.590 -0.7907 -0.5447 -0.0373
  796MOL0     C 7336   7.571   1.686   8.571 -0.3942 -0.4023 -0.3776
  796MOL0     C 7337   7.727   1.722   8.557  0.6266  0.9519 -1.0175
  796MOL0     C 7338   7.742   1.875   8.584 -0.2714  0.3246 -0.0535
  796MOL0     C 7339   7.895   1.924   8.586 -0.4380 -0.5077  0.1689
  796MOL0     C 7340   7.972   1.899   8.461  0.4660 -0.0926  0.1808
  796MOL0     C 7341   8.122   1.949   8.462  0.3830 -0.7024  0.4550
  796MOL0     N 7342   8.199   1.880   8.357  0.5218 -0.6629  0.2222
  796MOL0     C 7343   8.284   1.779   8.382 -0.1553  0.7375  0.2618
  796MOL0     C 7344   8.316   1.722   8.263  0.5105 -0.4465 -0.5429
  796MOL0     C 7345   8.428   1.612   8.241 -0.2932 -0.0786  0.0906
  796MOL0     C 7346   8.557   1.676   8.281  0.0380  0.1991  0.1531
  796MOL0     C 7347   8.619   1.803   8.216  0.4028  0.0027 -0.0664
  796MOL0     C 7348   8.735   1.856   8.289  0.1036 -0.4882 -1.0977
  796MOL0     O 7349   8.827   1.893   8.190 -0.5884  0.1126 -0.0069
  796MOL0     C 7350   8.958   1.882   8.218  1.0377  0.4700  1.4246
  796MOL0     C 7351   9.031   1.999   8.230 -0.5068  0.0382  0.8280
  796MOL0     C 7352   9.166   2.003   8.256  0.2789 -0.0882 -0.8340
  796MOL0     C 7353   9.222   2.146   8.267 -0.2810 -0.5025 -0.1007
  796MOL0     C 7354   9.244   1.883   8.258  0.2540  0.4762  0.7142
  796MOL0     C 7355   9.397   1.861   8.272 -0.6573 -0.2464 -0.3827
  796MOL0     O 7356   9.437   1.730   8.292 -0.0915 -0.4635 -0.0440
  796MOL0     C 7357   9.570   1.711   8.283  1.6662  0.6986 -0.2395
  796MOL0     C 7358   9.613   1.667   8.153 -0.1425 -0.2317  0.1587
  796MOL0     C 7359   9.746   1.632   8.138 -0.8854 -0.1525 -0.2110
  796MOL0     C 7360   9.835   1.636   8.241 -0.1488 -0.8629  0.2936
  796MOL0     O 7361   9.967   1.586   8.246  0.1695 -0.3097 -0.5873
  796MOL0     C 7362  10.042   1.614   8.129  0.8459  0.7590 -0.2512
  796MOL0     C 7363  10.103   1.490   8.063 -0.8537  0.1434 -0.0065
  796MOL0     C 7364  10.014   1.380   8.025  0.5286  0.5271  0.6607
  796MOL0     C 7365  10.080   1.272   7.946 -0.3050  0.0074  0.0197
  796MOL0     C 7366   9.985   1.160   7.901 -0.0201  0.0323 -0.3533
  796MOL0     C 7367  10.050   1.029   7.862  0.1472 -0.1345  0.4211
  796MOL0     C 7368  10.148   0.962   7.961  0.5084  0.5159  0.8283
  796MOL0     C 7369  10.148   0.815   7.941 -0.0955 -0.1639  0.7160
  796MOL0    Cl 7370  10.168   0.756   7.780 -0.1876 -0.3702 -0.0243
  796MOL0     C 7371   9.789   1.686   8.361  0.5324  1.0326  1.0419
  796MOL0     C 7372   9.664   1.730   8.384 -0.9542  0.8970 -0.4432
  796MOL0     O 7373   9.472   1.960   8.265  0.4598  0.3019 -0.1230
  796MOL0     C 7374   9.168   1.761   8.258 -0.2585 -0.6995  0.6898
  796MOL0     C 7375   9.031   1.766   8.236  0.7273 -0.9637  1.0540
  796MOL0     N 7376   8.259   1.803   8.167  0.3017 -1.6472  0.6730
  796MOL0     N 7377   8.183   1.893   8.227  0.1139 -1.2336  0.0521
  796MOL0     C 7378   7.343   1.254   8.379 -0.0552 -1.8163  0.1149
  796MOL0     C 7379   7.253   1.163   8.323 -0.4559  0.5894 -1.0521
  796MOL0     C 7380   7.069   0.853   8.100 -0.2415 -0.3208 -0.5660
  796MOL0     C 7381   7.129   0.732   8.086  0.0827 -0.2810  0.5552
  796MOL0     C 7382   7.052   0.619   8.080 -0.1451 -0.3500  0.2487
  796MOL0     C 7383   6.912   0.633   8.080 -0.0033  0.6366  0.2234
  796MOL0     O 7384   6.817   0.540   8.067 -0.2283 -0.3792  0.5111
  796MOL0     C 7385   6.857   0.407   8.062  0.6053  0.6296  0.1070
  796MOL0     C 7386   6.732   0.307   8.071 -0.1581  0.0729 -0.5920
  796MOL0     C 7387   6.761   0.164   8.121 -0.0473 -0.1963 -0.2548
  796MOL0     C 7388   6.645   0.062   8.089 -0.5633  0.3326 -0.2317
  796MOL0     C 7389   6.519   0.104   8.136 -1.2027 -0.1340  0.2438
  796MOL0     C 7390   6.425   0.156   8.197 -0.5274 -0.3542  0.0465
  796MOL0     C 7391   6.846   0.760   8.082 -0.0226 -0.1026 -0.9429
  796MOL0     C 7392   6.926   0.866   8.103  0.8234  0.3222 -1.0788
  796MOL0     H 7393   7.103   1.360   8.092 -0.8390  0.4373  1.0822
  796MOL0     H 7394   7.245   1.519   8.182 -0.5407 -0.5943 -1.8417
  796MOL0     H 7395   7.560   1.361   8.477 -1.7772 -0.7559  1.6553
  796MOL0     H 7396   7.625   1.501   8.396 -1.2018  0.6101 -0.5288
  796MOL0     H 7397   7.440   1.526   8.642 -0.2732  0.0588  1.0421
  796MOL0     H 7398   7.610   1.486   8.653 -0.0055 -1.9326 -1.9137
  796MOL0     H 7399   7.518   1.725   8.483 -2.1901 -0.8995  0.4333
  796MOL0     H 7400   7.526   1.738   8.655  0.8720  1.0127 -0.5325
  796MOL0     H 7401   7.777   1.661   8.633  0.4796  4.1195  1.8752
  796MOL0     H 7402   7.781   1.691   8.466  1.1907 -3.9306  0.6879
  796MOL0     H 7403   7.673   1.922   8.513 -2.0103  0.9986  2.0002
  796MOL0     H 7404   7.692   1.891   8.680  0.1693  1.1202  0.0500
  796MOL0     H 7405   7.904   2.031   8.605  0.6153 -0.3294 -1.2212
  796MOL0     H 7406   7.934   1.863   8.669 -1.9793  0.1218  1.4202
  796MOL0     H 7407   7.976   1.793   8.434 -1.5042 -0.1159 -0.1458
  796MOL0     H 7408   7.923   1.957   8.382  2.6148  3.0629  0.9764
  796MOL0     H 7409   8.149   1.927   8.565 -0.3908 -0.2173  0.7690
  796MOL0     H 7410   8.124   2.058   8.451  3.3842 -0.8513 -1.9969
  796MOL0     H 7411   8.317   1.741   8.478  0.0927 -1.4816 -0.6382
  796MOL0     H 7412   8.408   1.521   8.298 -0.1247  0.3911  0.9234
  796MOL0     H 7413   8.424   1.582   8.136 -0.3160 -1.5266  0.4853
  796MOL0     H 7414   8.623   1.590   8.277 -2.3349 -1.7335  0.3669
  796MOL0     H 7415   8.550   1.703   8.387  3.1149  1.2892  0.1772
  796MOL0     H 7416   8.544   1.882   8.216  0.2410 -0.1459  0.6640
  796MOL0     H 7417   8.644   1.783   8.111 -2.1850 -0.0090 -0.7496
  796MOL0     H 7418   8.770   1.778   8.357 -1.0644  0.4089  0.5967
  796MOL0     H 7419   8.708   1.946   8.344  0.6749 -1.2811  0.5501
  796MOL0     H 7420   8.975   2.091   8.223 -2.5373 -0.9354  2.9137
  796MOL0     H 7421   9.142   2.215   8.296 -1.3214 -1.7829  0.2274
  796MOL0     H 7422   9.293   2.145   8.350 -2.2155  2.1221  1.7451
  796MOL0     H 7423   9.276   2.182   8.179 -0.0772 -1.4987 -0.3929
  796MOL0     H 7424   9.538   1.654   8.076 -1.9625 -1.1259  2.0020
  796MOL0     H 7425   9.774   1.589   8.042  1.9367  0.2540  0.3406
  796MOL0     H 7426   9.985   1.666   8.051  1.4200  0.6563 -0.7501
  796MOL0     H 7427  10.124   1.679   8.161  0.6687 -0.4179  2.9872
  796MOL0     H 7428  10.146   1.525   7.969  0.8970  1.5762  1.2421
  796MOL0     H 7429  10.182   1.453   8.129 -2.8117 -0.6499  2.0250
  796MOL0     H 7430   9.926   1.419   7.972  0.5332 -2.1942 -1.6104
  796MOL0     H 7431   9.973   1.334   8.116  0.3448  2.8230  1.8238
  796MOL0     H 7432  10.116   1.317   7.853 -1.8383 -0.4300 -0.8223
  796MOL0     H 7433  10.168   1.248   8.006  1.2055  0.4697 -1.8826
  796MOL0     H 7434   9.927   1.194   7.815 -0.2445 -0.2020 -0.2968
  796MOL0     H 7435   9.921   1.147   7.989  1.3828  0.2288  0.7225
  796MOL0     H 7436   9.968   0.957   7.861  0.2267 -0.2268  0.5461
  796MOL0     H 7437  10.084   1.027   7.758 -1.1113 -2.7164 -0.0228
  796MOL0     H 7438  10.128   0.994   8.064  0.8826  0.8438  0.7992
  796MOL0     H 7439  10.247   0.993   7.926  0.0279 -0.4122 -1.5378
  796MOL0     H 7440  10.057   0.769   7.980 -1.1595  1.0849 -0.1742
  796MOL0     H 7441  10.231   0.769   7.995 -1.1117 -2.0600  0.7474
  796MOL0     H 7442   9.862   1.682   8.440  3.9171 -0.2156 -1.8806
  796MOL0     H 7443   9.639   1.767   8.483 -0.8531 -2.3234  0.9220
  796MOL0     H 7444   9.204   1.659   8.263  1.4651 -0.0502  3.8704
  796MOL0     H 7445   8.975   1.674   8.224 -0.1938 -0.2829  0.0045
  796MOL0     H 7446   7.411   1.237   8.462  0.5604 -3.6215 -0.7260
  796MOL0     H 7447   7.264   1.060   8.355  1.4501 -0.1441 -3.6697
  796MOL0     H 7448   7.234   0.709   8.076 -0.1872 -1.6112  0.4897
  796MOL0     H 7449   7.105   0.526   8.060  1.0958  0.2471  0.6764
  796MOL0     H 7450   6.911   0.390   7.968  1.3649  1.4773  0.3721
  796MOL0     H 7451   6.925   0.390   8.146  1.6933  0.3770 -0.8034
  796MOL0     H 7452   6.690   0.306   7.970  0.9011  2.0988 -1.1002
  796MOL0     H 7453   6.653   0.351   8.132  0.8947  2.0753 -0.5624
  796MOL0     H 7454   6.767   0.165   8.230 -0.6775 -1.6820 -0.1839
  796MOL0     H 7455   6.857   0.121   8.091 -0.2341 -1.8012  1.2954
  796MOL0     H 7456   6.674  -0.036   8.130  1.1795 -0.0752 -2.2414
  796MOL0     H 7457   6.644   0.039   7.982  1.0516 -0.7514 -0.0549
  796MOL0     H 7458   6.346   0.188   8.262 -1.3365 -0.9489 -0.6299
  796MOL0     H 7459   6.738   0.772   8.093  0.0357 -1.2260  1.6211
  796MOL0     H 7460   6.884   0.964   8.124 -0.3678  0.0870 -2.2239
  797MOL0     O 7461  10.183  10.498   8.269  0.2294  0.4427  0.4656
  797MOL0     C 7462  10.061  10.516   8.260 -0.2880 -0.2609 -0.1733
  797MOL0     O 7463   9.999  10.622   8.201 -0.0564 -0.0761 -0.4663
  797MOL0     C 7464  10.070  10.713   8.135  0.1836  0.4456 -0.4493
  797MOL0     C 7465  10.130  10.683   8.010  0.4920 -1.2382  0.1044
  797MOL0     C 7466  10.180  10.786   7.933 -0.1948 -0.4974 -0.2717
  797MOL0     C 7467  10.184  10.920   7.986 -0.6123 -0.1440  0.1278
  797MOL0     O 7468  10.247  11.022   7.923  0.3375  1.2719  0.7375
  797MOL0     C 7469  10.299  11.004   7.785 -0.7177 -0.5332 -0.3516
  797MOL0     C 7470  10.334  11.143   7.729 -0.2971  0.1447  0.5856
  797MOL0     C 7471  10.390  11.231   7.848 -0.1546  0.4180 -0.2550
  797MOL0     C 7472  10.472  11.340   7.783  0.1352 -0.0384 -0.0994
  797MOL0     C 7473  10.531  11.436   7.885 -0.0351 -0.2540  0.1169
  797MOL0     C 7474  10.663  11.503   7.845  0.5090  0.6938 -1.6794
  797MOL0     C 7475  10.634  11.594   7.715 -0.0615 -0.3376 -0.3692
  797MOL0     C 7476  10.764  11.671   7.681  0.2418  0.4667 -0.8374
  797MOL0     N 7477  10.744  11.764   7.578 -1.2300  0.7867 -0.7043
  797MOL0     C 7478  10.724  11.898   7.586 -1.0543 -0.7272  0.3148
  797MOL0     C 7479  10.700  11.937   7.465  0.4412  0.7572  0.6530
  797MOL0     C 7480  10.656  12.079   7.430  0.4902 -0.8125 -0.4453
  797MOL0     C 7481  10.524  12.120   7.492 -0.0628  0.1762  0.0274
  797MOL0     C 7482  10.401  12.028   7.464  0.2098  0.2218  0.4288
  797MOL0     C 7483  10.269  12.107   7.420 -1.2551  0.6298  0.7411
  797MOL0     O 7484  10.189  11.998   7.369  0.1952 -0.1757 -0.5166
  797MOL0     C 7485  10.054  12.004   7.367  0.3269 -0.2283 -0.5472
  797MOL0     C 7486   9.985  12.031   7.489 -0.7863  0.4717  0.4553
  797MOL0     C 7487   9.842  12.030   7.501 -0.2462 -0.0064 -0.6033
  797MOL0     C 7488   9.781  12.031   7.642 -0.7538 -0.4533 -0.1149
  797MOL0     C 7489   9.771  12.006   7.380  0.3370 -0.2049  0.1941
  797MOL0     C 7490   9.623  12.011   7.371  0.3044  0.0402 -0.2919
  797MOL0     O 7491   9.568  11.969   7.247 -0.3316 -0.0570 -0.5639
  797MOL0     C 7492   9.435  11.945   7.235  0.2431  0.5342 -0.2210
  797MOL0     C 7493   9.343  12.035   7.185  1.2396  0.1695 -0.1378
  797MOL0     C 7494   9.202  11.996   7.171 -0.8090 -0.3403  0.0061
  797MOL0     C 7495   9.157  11.875   7.221 -0.3891  0.7453 -0.5466
  797MOL0     O 7496   9.032  11.824   7.217  0.2667 -0.4069  0.3748
  797MOL0     C 7497   8.930  11.915   7.177  0.1665 -0.2984  0.0320
  797MOL0     C 7498   8.795  11.863   7.229 -0.9315  0.7393  0.9513
  797MOL0     C 7499   8.682  11.898   7.125 -1.0372 -0.4652 -0.4685
  797MOL0     C 7500   8.552  11.834   7.175  0.4068 -0.6852  0.2106
  797MOL0     C 7501   8.451  11.860   7.065  0.2968  0.1223  0.0933
  797MOL0     C 7502   8.304  11.834   7.114 -0.4619 -0.4190  0.3163
  797MOL0     C 7503   8.208  11.908   7.019 -0.7528  0.2657 -0.0925
  797MOL0     C 7504   8.054  11.896   7.058 -0.4350  1.0578  1.0004
  797MOL0    Cl 7505   8.014  11.957   7.222 -0.1669  0.1872 -0.2529
  797MOL0     C 7506   9.251  11.796   7.282  0.0093  0.3215  0.4017
  797MOL0     C 7507   9.386  11.823   7.284  0.3872 -0.0450 -0.3614
  797MOL0     O 7508   9.558  12.053   7.474  0.0075 -0.6839  0.3275
  797MOL0     C 7509   9.841  11.992   7.260  0.2414 -0.4554  0.1052
  797MOL0     C 7510   9.978  11.984   7.258 -0.3873 -0.2472  0.2058
  797MOL0     N 7511  10.701  11.834   7.380 -0.0099 -0.1485  0.1207
  797MOL0     N 7512  10.747  11.736   7.446 -0.7159 -0.2345 -0.4474
  797MOL0     C 7513  10.145  10.943   8.122  0.8014 -0.1210 -0.6649
  797MOL0     C 7514  10.081  10.837   8.194  0.0227 -0.6504  0.4812
  797MOL0     C 7515   9.972  10.426   8.328 -0.4075 -0.0312  1.0375
  797MOL0     C 7516  10.022  10.314   8.390  0.0361 -0.3550  0.2647
  797MOL0     C 7517   9.939  10.223   8.457  0.5306 -0.0601  1.0016
  797MOL0     C 7518   9.794  10.237   8.453 -1.0228 -0.6845  0.0474
  797MOL0     O 7519   9.739  10.131   8.516 -0.3933 -0.4171 -0.4070
  797MOL0     C 7520   9.598  10.139   8.530  0.9872 -0.3533 -0.5889
  797MOL0     C 7521   9.564  10.219   8.663 -0.2954 -0.2706  0.3021
  797MOL0     C 7522   9.647  10.173   8.784  1.6964 -0.2335  0.5484
  797MOL0     C 7523   9.625  10.027   8.830  0.2614 -0.4276  0.9489
  797MOL0     C 7524   9.667  10.015   8.965  0.1692 -0.4486  0.8987
  797MOL0     C 7525   9.709  10.013   9.084 -1.0623  0.8111  0.5685
  797MOL0     C 7526   9.740  10.359   8.396  1.2720  0.5920 -0.0674
  797MOL0     C 7527   9.825  10.452   8.339 -0.4913 -0.2141  0.8093
  797MOL0     H 7528  10.136  10.584   7.967  4.7272 -2.1260  2.1963
  797MOL0     H 7529  10.229  10.768   7.839 -0.0850 -1.7061  0.0017
  797MOL0     H 7530  10.387  10.940   7.790 -0.4525 -0.0677  1.9605
  797MOL0     H 7531  10.229  10.952   7.719  0.7096 -1.4786 -1.1611
  797MOL0     H 7532  10.406  11.131   7.648 -2.3833  1.1970 -1.5542
  797MOL0     H 7533  10.240  11.191   7.700  0.4846 -0.0797 -2.7507
  797MOL0     H 7534  10.305  11.265   7.907  0.3114 -2.4103  2.2475
  797MOL0     H 7535  10.456  11.177   7.916  1.5532 -1.1404 -2.9854
  797MOL0     H 7536  10.548  11.289   7.722  0.2925  1.7408 -1.4665
  797MOL0     H 7537  10.405  11.398   7.719 -0.1388  3.6529  3.2105
  797MOL0     H 7538  10.464  11.520   7.903  1.9530  1.0208  2.1801
  797MOL0     H 7539  10.542  11.388   7.983 -0.9836 -2.4201 -0.7723
  797MOL0     H 7540  10.713  11.549   7.931  0.2473 -0.1106 -1.0798
  797MOL0     H 7541  10.733  11.424   7.815  0.3756 -0.5868  1.0621
  797MOL0     H 7542  10.605  11.535   7.628  1.5640  0.3728 -1.4444
  797MOL0     H 7543  10.556  11.661   7.752 -2.8994 -2.6702 -1.7134
  797MOL0     H 7544  10.844  11.597   7.667  0.4399  0.3897  0.5856
  797MOL0     H 7545  10.802  11.722   7.770 -0.2056 -1.3597  0.4745
  797MOL0     H 7546  10.716  11.960   7.675 -1.0821  1.0332 -0.8638
  797MOL0     H 7547  10.732  12.147   7.468  0.2261 -1.7256  1.8431
  797MOL0     H 7548  10.655  12.083   7.320  3.1142  0.1317 -0.5036
  797MOL0     H 7549  10.488  12.211   7.443  0.8691 -0.4589 -1.9381
  797MOL0     H 7550  10.546  12.126   7.599  1.6649  1.3930 -0.3435
  797MOL0     H 7551  10.368  11.982   7.557  0.3808  1.0295  0.8994
  797MOL0     H 7552  10.428  11.964   7.379 -3.0715 -1.0707  0.1841
  797MOL0     H 7553  10.292  12.187   7.349 -3.2611  0.6235  0.0312
  797MOL0     H 7554  10.227  12.153   7.510  1.2283  2.4713  1.0647
  797MOL0     H 7555  10.042  12.038   7.581 -1.3677  0.8094  0.7954
  797MOL0     H 7556   9.860  12.053   7.714 -2.1936  1.9260  0.8763
  797MOL0     H 7557   9.701  12.102   7.667  1.2342  0.6870  3.6929
  797MOL0     H 7558   9.746  11.929   7.661 -0.5683 -0.5748 -0.4130
  797MOL0     H 7559   9.385  12.127   7.146 -1.0436  1.2645 -0.1784
  797MOL0     H 7560   9.145  12.070   7.116 -1.3518 -0.8833 -0.1786
  797MOL0     H 7561   8.937  12.016   7.220  3.7599 -1.0399  1.5749
  797MOL0     H 7562   8.926  11.919   7.068  1.8605 -1.1923 -0.1041
  797MOL0     H 7563   8.809  11.755   7.237 -0.4652  0.9291  3.3696
  797MOL0     H 7564   8.764  11.909   7.323 -4.2455  0.6620  0.0069
  797MOL0     H 7565   8.712  11.851   7.031  1.6863  0.0563  0.0661
  797MOL0     H 7566   8.672  12.004   7.102  0.9725 -0.2533 -0.5927
  797MOL0     H 7567   8.559  11.726   7.193 -1.7005 -0.4788  2.9801
  797MOL0     H 7568   8.516  11.880   7.267 -0.9051 -2.3002  0.5627
  797MOL0     H 7569   8.464  11.812   6.968 -1.3316 -2.0340  0.8431
  797MOL0     H 7570   8.446  11.967   7.046 -0.7592 -0.0655 -0.7636
  797MOL0     H 7571   8.280  11.728   7.125 -0.6815 -0.9033 -3.4363
  797MOL0     H 7572   8.295  11.877   7.214 -0.9549  1.8994 -0.6699
  797MOL0     H 7573   8.238  11.871   6.921 -1.9690  1.1252 -0.8049
  797MOL0     H 7574   8.232  12.014   7.032 -0.2493 -0.1847  3.9548
  797MOL0     H 7575   8.025  11.791   7.056  1.2665  0.5811  0.3211
  797MOL0     H 7576   7.996  11.942   6.976  1.1681 -2.5305 -2.4511
  797MOL0     H 7577   9.218  11.709   7.337 -3.7709  1.2267 -0.1410
  797MOL0     H 7578   9.447  11.749   7.333  2.9446  2.2492  0.1378
  797MOL0     H 7579   9.784  11.980   7.168  1.3663  1.6773 -0.9548
  797MOL0     H 7580  10.037  11.962   7.169 -1.4923 -5.5235  0.4347
  797MOL0     H 7581  10.161  11.036   8.174  2.1767  0.2458 -1.7073
  797MOL0     H 7582  10.043  10.849   8.295  0.6102 -2.1684  0.9080
  797MOL0     H 7583  10.126  10.284   8.397 -0.1222 -1.0367 -0.1482
  797MOL0     H 7584   9.982  10.134   8.501  3.8297  1.3633  0.9265
  797MOL0     H 7585   9.549  10.173   8.438 -0.0512 -1.2777 -0.3976
  797MOL0     H 7586   9.569  10.034   8.537  2.1004 -0.8177 -2.3302
  797MOL0     H 7587   9.457  10.193   8.669 -0.3367 -1.1007 -2.4025
  797MOL0     H 7588   9.573  10.326   8.642  1.0178 -0.4391 -0.0809
  797MOL0     H 7589   9.632  10.239   8.870 -0.3081 -0.6753  0.5859
  797MOL0     H 7590   9.754  10.173   8.761  1.2381  1.2132 -1.9819
  797MOL0     H 7591   9.668   9.953   8.762  0.6377 -1.4417  2.2722
  797MOL0     H 7592   9.517  10.013   8.840  0.3370  0.8051  4.9856
  797MOL0     H 7593   9.753   9.995   9.180  1.8991 -0.2154 -0.8420
  797MOL0     H 7594   9.634  10.378   8.394  0.6028 -2.6593 -2.1259
  797MOL0     H 7595   9.791  10.542   8.288  0.9404 -0.4538 -0.6589
  798MOL0     O 7596   1.020   1.023  10.532  0.2105  0.1221  0.2655
  798MOL0     C 7597   0.952   1.021  10.643  0.7899  0.0565  0.3241
  798MOL0     O 7598   0.863   0.917  10.677  0.1390  0.3683 -0.6843
  798MOL0     C 7599   0.745   0.900  10.600 -0.7375  1.5910  0.5375
  798MOL0     C 7600   0.723   0.958  10.477  0.6126  0.5380 -0.3610
  798MOL0     C 7601   0.605   0.933  10.398 -0.5474 -0.3962 -0.8943
  798MOL0     C 7602   0.526   0.831  10.437  0.1673  0.3242  0.1689
  798MOL0     O 7603   0.418   0.780  10.377 -0.0961  0.6542 -0.5512
  798MOL0     C 7604   0.353   0.859  10.275 -0.1214  0.1513  0.7006
  798MOL0     C 7605   0.242   0.774  10.216 -0.5314 -0.5874 -0.5375
  798MOL0     C 7606   0.317   0.667  10.134  0.6136 -0.1593 -0.4939
  798MOL0     C 7607   0.206   0.584  10.060  0.0371  0.1167 -0.0065
  798MOL0     C 7608   0.278   0.452  10.024 -0.5210 -0.7074 -0.3302
  798MOL0     C 7609   0.200   0.367   9.927 -0.0130 -0.4876  0.7670
  798MOL0     C 7610   0.279   0.249   9.864  0.0474  0.1631 -0.5115
  798MOL0     C 7611   0.198   0.196   9.748  0.7961  1.3168  0.0453
  798MOL0     N 7612   0.208   0.051   9.722  0.0997  1.0809 -0.3269
  798MOL0     C 7613   0.323  -0.028   9.701 -0.2738 -0.4485 -0.1346
  798MOL0     C 7614   0.276  -0.147   9.671  0.0622 -0.6924 -0.2925
  798MOL0     C 7615   0.353  -0.269   9.645  0.1083 -0.0977  0.0392
  798MOL0     C 7616   0.441  -0.301   9.758 -1.0721 -0.2851  0.6048
  798MOL0     C 7617   0.370  -0.353   9.884  0.7884 -0.7001  0.1340
  798MOL0     C 7618   0.441  -0.323  10.014  0.6488  0.9704 -0.1880
  798MOL0     O 7619   0.355  -0.353  10.131  0.5985 -0.1774 -0.3819
  798MOL0     C 7620   0.411  -0.350  10.253  1.1532 -0.0548 -0.3251
  798MOL0     C 7621   0.323  -0.356  10.353 -0.0656 -0.0597 -0.4144
  798MOL0     C 7622   0.357  -0.375  10.491  0.1705 -0.2462 -0.0060
  798MOL0     C 7623   0.251  -0.398  10.596 -0.0449 -0.8146  0.7555
  798MOL0     C 7624   0.491  -0.364  10.533 -0.3228  0.4291  0.1858
  798MOL0     C 7625   0.553  -0.365  10.666 -0.4597 -0.2943  0.1327
  798MOL0     O 7626   0.688  -0.381  10.676  0.0699  0.0390 -0.3317
  798MOL0     C 7627   0.759  -0.392  10.795 -0.1445  0.3485 -0.3270
  798MOL0     C 7628   0.871  -0.479  10.796  0.5182 -0.4860 -0.0537
  798MOL0     C 7629   0.953  -0.494  10.912  0.4737  0.6422 -0.6067
  798MOL0     C 7630   0.939  -0.417  11.022 -0.3821  0.2452  0.2824
  798MOL0     O 7631   1.041  -0.419  11.119  0.5475 -0.8013 -0.0092
  798MOL0     C 7632   1.006  -0.346  11.241  0.3525  0.3832 -0.6380
  798MOL0     C 7633   1.121  -0.349  11.341  0.4083 -0.2448 -0.0433
  798MOL0     C 7634   1.115  -0.475  11.425 -0.2942  0.0228 -0.2932
  798MOL0     C 7635   1.255  -0.483  11.507 -0.1304  1.0946 -0.0315
  798MOL0     C 7636   1.283  -0.612  11.582  0.0828  0.1278 -0.1434
  798MOL0     C 7637   1.271  -0.741  11.506  0.2400  0.6910  0.0086
  798MOL0     C 7638   1.399  -0.761  11.434  0.1388 -0.0881 -0.5399
  798MOL0     C 7639   1.376  -0.850  11.307  0.2681 -0.3149 -0.1428
  798MOL0    Cl 7640   1.547  -0.867  11.256  0.1264  0.1846  0.0856
  798MOL0     C 7641   0.817  -0.340  11.022 -0.8510 -0.3402  0.0743
  798MOL0     C 7642   0.729  -0.331  10.918  0.2356  0.5152  0.1489
  798MOL0     O 7643   0.484  -0.361  10.764 -0.1235  0.7287 -0.5770
  798MOL0     C 7644   0.579  -0.342  10.424  0.6272  0.9224 -0.7609
  798MOL0     C 7645   0.546  -0.335  10.297 -0.4597  0.6949 -0.4572
  798MOL0     N 7646   0.140  -0.141   9.657 -0.5265 -0.5138 -0.3389
  798MOL0     N 7647   0.101  -0.015   9.684 -0.6582 -0.3331 -0.9855
  798MOL0     C 7648   0.552   0.764  10.558 -0.3753  0.1104 -0.3164
  798MOL0     C 7649   0.657   0.809  10.646  1.0337  0.0367  1.0334
  798MOL0     C 7650   0.969   1.116  10.750 -0.5617 -0.7540  0.0649
  798MOL0     C 7651   0.899   1.111  10.868 -0.7294 -0.4693  0.3469
  798MOL0     C 7652   0.907   1.212  10.967 -0.1823  0.1939  0.6571
  798MOL0     C 7653   1.001   1.318  10.949 -0.0487  0.6743  0.0348
  798MOL0     O 7654   1.007   1.408  11.049 -0.5912 -0.4067 -0.6992
  798MOL0     C 7655   1.108   1.499  11.061 -0.4745 -1.1598  0.2375
  798MOL0     C 7656   1.225   1.426  11.136 -0.8234  0.7227 -0.9495
  798MOL0     C 7657   1.321   1.518  11.230  0.3100 -0.7992  0.4616
  798MOL0     C 7658   1.430   1.443  11.308  0.3692 -0.7335 -0.0760
  798MOL0     C 7659   1.500   1.354  11.217 -0.6204  0.2192  0.0813
  798MOL0     C 7660   1.573   1.294  11.141  0.6326 -0.0090 -0.4602
  798MOL0     C 7661   1.091   1.307  10.840  0.5787  0.0783 -0.1755
  798MOL0     C 7662   1.083   1.205  10.746  0.0813 -0.1664  0.9129
  798MOL0     H 7663   0.797   1.031  10.445  1.6964  0.8497  2.5255
  798MOL0     H 7664   0.590   0.997  10.311 -0.4454  1.2012  0.2137
  798MOL0     H 7665   0.322   0.945  10.335  4.7471 -0.1854  4.2893
  798MOL0     H 7666   0.427   0.892  10.201  1.0709 -0.8605  1.4094
  798MOL0     H 7667   0.180   0.741  10.300  2.1580  1.8492  2.7027
  798MOL0     H 7668   0.178   0.837  10.155  1.2800  1.4195 -0.4847
  798MOL0     H 7669   0.394   0.711  10.070  1.9256 -0.1754  1.0142
  798MOL0     H 7670   0.367   0.604  10.208 -0.5867 -0.4973  0.0551
  798MOL0     H 7671   0.117   0.567  10.120 -1.7448 -1.8334 -2.9563
  798MOL0     H 7672   0.176   0.637   9.969 -1.9990 -2.0999 -0.7367
  798MOL0     H 7673   0.375   0.477   9.979  0.8090 -0.9514  2.2206
  798MOL0     H 7674   0.302   0.405  10.119  0.5322  0.2201 -0.1179
  798MOL0     H 7675   0.112   0.324   9.975 -0.5404  0.9459  1.1082
  798MOL0     H 7676   0.156   0.428   9.848 -0.2616  1.5829  2.4072
  798MOL0     H 7677   0.372   0.279   9.816 -0.0645 -2.0267 -2.2509
  798MOL0     H 7678   0.294   0.180   9.948 -1.4634  2.5878  1.9239
  798MOL0     H 7679   0.239   0.225   9.651 -1.6696 -2.4704 -2.3909
  798MOL0     H 7680   0.094   0.223   9.767  0.2505 -0.6871  0.0743
  798MOL0     H 7681   0.431  -0.013   9.700 -0.3270  0.0699 -2.0351
  798MOL0     H 7682   0.280  -0.348   9.624  1.0663 -1.1852  0.6967
  798MOL0     H 7683   0.406  -0.240   9.554  0.4962 -2.4151 -0.5367
  798MOL0     H 7684   0.503  -0.218   9.793 -2.0388 -0.1099  1.9805
  798MOL0     H 7685   0.511  -0.380   9.729  0.3059  1.1224 -0.0920
  798MOL0     H 7686   0.376  -0.461   9.867 -1.2345 -0.9515  0.7574
  798MOL0     H 7687   0.263  -0.332   9.889  0.6670 -1.4483  0.7971
  798MOL0     H 7688   0.460  -0.216  10.018 -1.2673  1.4448 -1.9248
  798MOL0     H 7689   0.537  -0.376  10.017  0.9859  1.5723 -0.0579
  798MOL0     H 7690   0.221  -0.346  10.317 -0.0009  0.1551 -0.5410
  798MOL0     H 7691   0.267  -0.487  10.657  2.3362 -1.7246 -1.0437
  798MOL0     H 7692   0.220  -0.305  10.644 -0.8126  0.0725 -1.3340
  798MOL0     H 7693   0.161  -0.416  10.535  1.8468 -1.2578 -2.1121
  798MOL0     H 7694   0.895  -0.531  10.704 -1.4057 -1.9763  0.2173
  798MOL0     H 7695   1.040  -0.558  10.904  2.0182  2.7177 -1.1272
  798MOL0     H 7696   0.986  -0.242  11.215 -0.3855 -0.0015 -1.6895
  798MOL0     H 7697   0.916  -0.388  11.285  1.1605 -2.2061 -1.2614
  798MOL0     H 7698   1.220  -0.340  11.294  0.8925  1.8764  1.2203
  798MOL0     H 7699   1.115  -0.259  11.403  0.8406 -0.1565 -0.1223
  798MOL0     H 7700   1.104  -0.560  11.358 -1.9500 -0.5993  0.6964
  798MOL0     H 7701   1.032  -0.468  11.496  0.2207  1.8938  0.1776
  798MOL0     H 7702   1.342  -0.467  11.443 -1.0281  2.3863 -0.9673
  798MOL0     H 7703   1.243  -0.406  11.583 -2.8131 -0.6889  1.5527
  798MOL0     H 7704   1.213  -0.621  11.665 -1.5110 -1.0993 -1.5501
  798MOL0     H 7705   1.383  -0.606  11.628  0.8683 -1.6774 -1.4628
  798MOL0     H 7706   1.255  -0.828  11.571  2.0391 -2.4525 -3.3695
  798MOL0     H 7707   1.184  -0.744  11.439  0.7430 -2.4785 -0.6615
  798MOL0     H 7708   1.463  -0.806  11.510  1.1045  0.6163 -0.9254
  798MOL0     H 7709   1.453  -0.668  11.411  1.9149 -0.6470  1.1678
  798MOL0     H 7710   1.306  -0.805  11.235 -1.9723 -1.4815  1.1803
  798MOL0     H 7711   1.338  -0.948  11.336 -2.6324  0.1023 -2.0285
  798MOL0     H 7712   0.785  -0.283  11.109 -2.4702 -2.5216  0.9858
  798MOL0     H 7713   0.637  -0.279  10.941 -0.4758 -0.2845 -0.8154
  798MOL0     H 7714   0.683  -0.342  10.452  0.5601 -1.9060 -0.1496
  798MOL0     H 7715   0.613  -0.307  10.216 -0.2308  1.9683  0.1416
  798MOL0     H 7716   0.483   0.684  10.581 -1.0110  1.6453  4.0550
  798MOL0     H 7717   0.654   0.766  10.745  0.0308 -1.4438  0.4092
  798MOL0     H 7718   0.838   1.022  10.883 -0.9625 -0.3187  0.2851
  798MOL0     H 7719   0.857   1.207  11.063 -2.7540 -0.3032 -0.6079
  798MOL0     H 7720   1.140   1.542  10.965 -1.9587 -2.4817 -0.9055
  798MOL0     H 7721   1.064   1.585  11.113  0.0230  0.3854 -1.7445
  798MOL0     H 7722   1.290   1.377  11.063 -0.2385 -0.0660  0.0704
  798MOL0     H 7723   1.174   1.349  11.194  0.5245  0.2585 -0.3472
  798MOL0     H 7724   1.246   1.555  11.301 -1.2806  0.5861 -1.8355
  798MOL0     H 7725   1.367   1.595  11.167  0.3548 -2.8418 -2.1732
  798MOL0     H 7726   1.377   1.377  11.378 -0.6853 -2.9467 -2.7752
  798MOL0     H 7727   1.489   1.515  11.365  0.9793 -0.2075 -1.3299
  798MOL0     H 7728   1.641   1.234  11.083 -2.1254 -4.2596  0.2627
  798MOL0     H 7729   1.162   1.387  10.817  0.0643  0.1190 -1.7169
  798MOL0     H 7730   1.149   1.201  10.660 -0.4616 -2.9567  0.5348
  799MOL0     O 7731   2.081   9.678   5.988  0.0136  0.0289 -0.5471
  799MOL0     C 7732   2.027   9.736   6.078 -0.7078  0.3310 -0.2797
  799MOL0     O 7733   1.890   9.746   6.105 -0.5638  0.5656  0.0402
  799MOL0     C 7734   1.808   9.648   6.043  0.4324 -0.5496 -1.0898
  799MOL0     C 7735   1.759   9.675   5.916 -0.2959 -0.0291 -0.2310
  799MOL0     C 7736   1.673   9.587   5.852 -0.6546  0.7900  0.3205
  799MOL0     C 7737   1.636   9.471   5.915  0.1530 -0.8977 -0.2970
  799MOL0     O 7738   1.555   9.388   5.850  0.4104  0.4653  0.3575
  799MOL0     C 7739   1.627   9.264   5.795  0.0210  0.5838  0.1735
  799MOL0     C 7740   1.539   9.144   5.795  0.7335 -0.5233 -0.5090
  799MOL0     C 7741   1.490   9.125   5.946 -0.3885  0.3606 -0.8533
  799MOL0     C 7742   1.414   8.985   5.949  0.6334 -0.5638  0.6299
  799MOL0     C 7743   1.375   8.952   6.088  1.3099 -0.1941  0.1334
  799MOL0     C 7744   1.304   8.821   6.089 -0.1598  0.5439 -0.2448
  799MOL0     C 7745   1.401   8.704   6.081  0.8923  0.5003 -0.4035
  799MOL0     C 7746   1.304   8.587   6.113 -0.3516  0.4980  0.3655
  799MOL0     N 7747   1.363   8.454   6.091 -0.1105  0.6993 -0.6114
  799MOL0     C 7748   1.296   8.352   6.054  0.3397  0.8222  0.6741
  799MOL0     C 7749   1.374   8.241   6.087  0.0593  0.4040 -0.3377
  799MOL0     C 7750   1.341   8.091   6.071  0.2032 -0.4816  0.4991
  799MOL0     C 7751   1.192   8.075   6.076 -0.4173 -0.7628  1.0666
  799MOL0     C 7752   1.149   7.936   6.139 -0.8962 -0.1689  0.1918
  799MOL0     C 7753   1.167   7.816   6.056 -0.7320 -0.9965 -0.0734
  799MOL0     O 7754   1.089   7.711   6.120 -0.2693 -0.5913  0.0611
  799MOL0     C 7755   1.102   7.587   6.073 -0.0825  0.3220 -0.1827
  799MOL0     C 7756   1.002   7.499   6.112  0.1206 -0.1739  0.1856
  799MOL0     C 7757   0.989   7.368   6.057  0.8550 -0.0239  0.3621
  799MOL0     C 7758   0.859   7.301   6.095  0.5865  1.0933  0.7944
  799MOL0     C 7759   1.096   7.316   5.971 -0.1226 -0.9250  0.0403
  799MOL0     C 7760   1.097   7.186   5.897  0.0343 -0.3836  0.4038
  799MOL0     O 7761   1.016   7.086   5.945  0.5193 -0.4612  0.7050
  799MOL0     C 7762   1.025   6.955   5.894  0.3733 -0.3019  0.5424
  799MOL0     C 7763   0.979   6.922   5.763 -0.4464  0.8313  0.8112
  799MOL0     C 7764   0.976   6.787   5.722 -0.7504 -0.2055 -0.1568
  799MOL0     C 7765   1.020   6.689   5.806 -0.3667  0.8940 -0.7729
  799MOL0     O 7766   1.029   6.554   5.767 -0.5557 -0.5276 -0.1446
  799MOL0     C 7767   1.161   6.525   5.717  1.0156 -0.0969 -0.2179
  799MOL0     C 7768   1.171   6.374   5.694 -0.2714  1.0750 -0.0537
  799MOL0     C 7769   1.133   6.282   5.819 -0.2228 -0.2566 -0.0583
  799MOL0     C 7770   1.153   6.140   5.789 -0.1770 -0.3860 -0.2537
  799MOL0     C 7771   1.124   6.061   5.912  0.0137 -0.2643 -0.6820
  799MOL0     C 7772   1.170   5.911   5.905 -0.8785 -0.5007 -0.2075
  799MOL0     C 7773   1.325   5.883   5.894  0.0102  0.2865 -0.3493
  799MOL0     C 7774   1.358   5.798   5.774 -0.3849 -0.0904  0.2861
  799MOL0    Cl 7775   1.375   5.903   5.632  0.3110 -0.3512 -0.1803
  799MOL0     C 7776   1.072   6.721   5.939 -0.1978  0.9234  0.4497
  799MOL0     C 7777   1.074   6.851   5.976  0.7684  0.2215  0.0494
  799MOL0     O 7778   1.153   7.184   5.785  0.7228 -0.3292 -0.0029
  799MOL0     C 7779   1.205   7.410   5.948 -0.6243  0.1245  0.7001
  799MOL0     C 7780   1.208   7.535   5.995  0.8428 -0.6126 -0.0933
  799MOL0     N 7781   1.486   8.287   6.154 -0.0486 -0.7004  0.0576
  799MOL0     N 7782   1.476   8.415   6.150 -0.5408 -0.3150  1.0452
  799MOL0     C 7783   1.670   9.446   6.047  0.1714 -0.2117 -0.0127
  799MOL0     C 7784   1.755   9.536   6.109  0.5184  0.9950 -0.1825
  799MOL0     C 7785   2.113   9.792   6.193 -0.0005  0.4484 -0.6953
  799MOL0     C 7786   2.055   9.863   6.296  0.6630 -0.5877  0.4581
  799MOL0     C 7787   2.126   9.917   6.401 -0.0850  0.4420 -0.0302
  799MOL0     C 7788   2.263   9.898   6.418  0.1350  0.6292  0.6558
  799MOL0     O 7789   2.333   9.936   6.525  0.0019  0.6392 -0.8896
  799MOL0     C 7790   2.265   9.913   6.651  0.3119 -0.4982  0.0327
  799MOL0     C 7791   2.369   9.888   6.758 -0.4033 -0.5601 -0.1141
  799MOL0     C 7792   2.316   9.795   6.868 -0.5271  0.4604 -0.7106
  799MOL0     C 7793   2.383   9.797   7.013 -0.1894  0.1301 -0.6011
  799MOL0     C 7794   2.379   9.923   7.099 -0.2866  0.2967 -0.0031
  799MOL0     C 7795   2.377  10.023   7.165  0.2888  0.6228 -0.1388
  799MOL0     C 7796   2.323   9.847   6.306 -0.4030 -0.5068 -0.5616
  799MOL0     C 7797   2.251   9.784   6.200 -0.5632  0.0198  0.0558
  799MOL0     H 7798   1.801   9.757   5.858 -0.4688  2.4005  2.8471
  799MOL0     H 7799   1.657   9.615   5.749  3.3333  0.7975 -0.4793
  799MOL0     H 7800   1.648   9.283   5.690  0.3354 -0.5857  0.0153
  799MOL0     H 7801   1.709   9.233   5.861 -1.1992  0.0274  1.4909
  799MOL0     H 7802   1.449   9.152   5.732  0.1546  0.3852  0.3909
  799MOL0     H 7803   1.596   9.057   5.763  0.6233 -1.3345  1.4082
  799MOL0     H 7804   1.572   9.144   6.017 -1.2197 -1.4275  0.6784
  799MOL0     H 7805   1.411   9.196   5.969 -1.1194 -0.4951 -0.6773
  799MOL0     H 7806   1.329   8.981   5.880 -0.8344  0.7758  2.2676
  799MOL0     H 7807   1.479   8.907   5.909 -0.3066 -0.4853 -1.1475
  799MOL0     H 7808   1.467   8.954   6.146  1.5347  1.1505 -0.2540
  799MOL0     H 7809   1.310   9.026   6.135  0.0057 -2.0533  1.4272
  799MOL0     H 7810   1.242   8.829   6.179 -2.0447  0.9692 -1.5300
  799MOL0     H 7811   1.236   8.817   6.004 -1.0241 -0.6143  0.4786
  799MOL0     H 7812   1.443   8.689   5.981 -1.6417  0.3831 -1.5304
  799MOL0     H 7813   1.470   8.712   6.166 -0.2298  0.5383  0.5247
  799MOL0     H 7814   1.211   8.606   6.059 -0.5544 -0.2202  0.4563
  799MOL0     H 7815   1.278   8.588   6.219  3.8394 -2.4737  1.6847
  799MOL0     H 7816   1.207   8.349   5.991  1.7200 -1.2479 -1.3391
  799MOL0     H 7817   1.364   8.056   5.970 -2.3123  0.4871 -0.4720
  799MOL0     H 7818   1.396   8.042   6.152 -2.1962 -1.8178  1.4067
  799MOL0     H 7819   1.155   8.090   5.974  2.1062 -1.7990 -0.0759
  799MOL0     H 7820   1.166   8.159   6.141  1.5707  1.4702 -0.8404
  799MOL0     H 7821   1.042   7.929   6.160 -0.6057 -0.5350  1.6778
  799MOL0     H 7822   1.207   7.917   6.230 -1.2522 -4.3759 -0.2662
  799MOL0     H 7823   1.272   7.786   6.059 -0.7367 -0.9792  1.9753
  799MOL0     H 7824   1.120   7.831   5.959 -0.3380  3.1794  0.1971
  799MOL0     H 7825   0.922   7.550   6.164  1.2812  2.1885 -0.2079
  799MOL0     H 7826   0.873   7.247   6.189  2.8822 -3.0251 -1.6024
  799MOL0     H 7827   0.782   7.379   6.099  1.1373  1.8412 -1.5279
  799MOL0     H 7828   0.836   7.222   6.023  1.7342  3.3992 -2.3239
  799MOL0     H 7829   0.948   7.003   5.698  0.0361  0.0752 -0.3978
  799MOL0     H 7830   0.936   6.757   5.626 -2.5829 -3.7637  1.5008
  799MOL0     H 7831   1.177   6.589   5.630  1.3957 -1.1203 -0.9189
  799MOL0     H 7832   1.236   6.549   5.792  1.0236 -1.1131  0.1213
  799MOL0     H 7833   1.110   6.340   5.610  1.9301 -2.1916 -0.4855
  799MOL0     H 7834   1.278   6.353   5.684 -0.2707  0.7757  0.5447
  799MOL0     H 7835   1.029   6.306   5.844 -0.7312 -2.3665  0.0471
  799MOL0     H 7836   1.196   6.307   5.904  3.2666  0.4898 -2.6473
  799MOL0     H 7837   1.085   6.104   5.711  1.0062 -3.0864 -0.1455
  799MOL0     H 7838   1.258   6.117   5.768  0.4336 -0.2799  2.2891
  799MOL0     H 7839   1.018   6.080   5.931 -0.0996  0.1601 -1.6659
  799MOL0     H 7840   1.180   6.090   6.002  1.6265 -0.4302 -1.5933
  799MOL0     H 7841   1.149   5.867   6.003  1.6797 -0.5165  0.4196
  799MOL0     H 7842   1.119   5.862   5.821  1.0782  1.8892 -2.9701
  799MOL0     H 7843   1.357   5.838   5.989  0.5967 -1.5595 -1.3822
  799MOL0     H 7844   1.389   5.970   5.878  1.9835 -0.8774  0.8611
  799MOL0     H 7845   1.278   5.728   5.748  1.2569 -0.8963 -3.1303
  799MOL0     H 7846   1.447   5.735   5.777  0.3171  0.8630 -0.0306
  799MOL0     H 7847   1.116   6.653   6.012 -1.1140 -0.5435 -0.3063
  799MOL0     H 7848   1.111   6.878   6.074 -0.4864 -1.4733  1.0478
  799MOL0     H 7849   1.289   7.375   5.889  0.7136  1.2392  1.8916
  799MOL0     H 7850   1.282   7.606   5.960 -1.1050  0.9301 -1.2816
  799MOL0     H 7851   1.637   9.357   6.099  0.7096  0.5260  1.6681
  799MOL0     H 7852   1.794   9.523   6.210  0.3576 -2.7483 -0.4727
  799MOL0     H 7853   1.951   9.893   6.286  1.1788  0.5250 -2.5576
  799MOL0     H 7854   2.059   9.972   6.467 -1.3872  0.9886 -1.7389
  799MOL0     H 7855   2.216  10.009   6.669  2.8903  0.7706  0.7859
  799MOL0     H 7856   2.187   9.836   6.652 -1.4573  1.0380 -3.3049
  799MOL0     H 7857   2.386   9.982   6.810 -0.6090  0.6600 -2.1649
  799MOL0     H 7858   2.457   9.842   6.712 -1.8192 -4.1567  0.4115
  799MOL0     H 7859   2.344   9.695   6.833  2.5234  0.4757  1.3098
  799MOL0     H 7860   2.207   9.787   6.870 -0.4785 -0.1652  0.1204
  799MOL0     H 7861   2.484   9.760   6.995 -0.5230 -0.6563 -0.8785
  799MOL0     H 7862   2.334   9.735   7.089 -1.2859  0.2820 -1.1661
  799MOL0     H 7863   2.399  10.112   7.220 -0.8472  1.1049 -0.4400
  799MOL0     H 7864   2.431   9.835   6.318 -0.4776  1.2828  3.1653
  799MOL0     H 7865   2.306   9.731   6.123 -0.8579  0.2961 -0.3435
  800MOL0     O 7866   8.886   4.677   8.409 -0.4031  0.0916  0.0778
  800MOL0     C 7867   8.806   4.660   8.319  0.1163  0.1535 -0.8363
  800MOL0     O 7868   8.694   4.738   8.295  0.0530 -0.1166  0.3135
  800MOL0     C 7869   8.663   4.852   8.368 -0.0208 -0.0711 -0.0269
  800MOL0     C 7870   8.645   4.971   8.289 -0.5534  0.2064 -0.6919
  800MOL0     C 7871   8.632   5.095   8.355  0.6096  0.3163 -0.3258
  800MOL0     C 7872   8.623   5.098   8.496 -0.5549 -0.5727 -0.2911
  800MOL0     O 7873   8.606   5.203   8.579 -1.0531 -0.1168  0.0407
  800MOL0     C 7874   8.526   5.315   8.529 -0.6972 -0.7491 -0.7184
  800MOL0     C 7875   8.611   5.434   8.488  0.7244  0.8907 -0.4960
  800MOL0     C 7876   8.698   5.492   8.605  0.2787  0.6972 -0.0924
  800MOL0     C 7877   8.741   5.630   8.575 -0.6190 -0.4497  0.8737
  800MOL0     C 7878   8.671   5.743   8.645 -0.7617 -0.0234 -0.3100
  800MOL0     C 7879   8.716   5.754   8.789 -0.2860 -0.4539 -0.2314
  800MOL0     C 7880   8.841   5.844   8.808 -0.2865  0.2704 -0.4977
  800MOL0     C 7881   8.832   5.984   8.746  0.6780  0.6070 -1.0243
  800MOL0     N 7882   8.943   6.060   8.806  0.0571 -0.5666  0.0792
  800MOL0     C 7883   8.912   6.141   8.914  0.5954  1.2897  0.7741
  800MOL0     C 7884   9.023   6.204   8.941  0.6357 -0.4283 -0.0302
  800MOL0     C 7885   9.035   6.312   9.047  0.1612 -0.4377  1.0687
  800MOL0     C 7886   8.942   6.432   9.009 -0.0442  0.2818 -0.2708
  800MOL0     C 7887   8.996   6.523   8.896 -0.0521 -0.5432 -0.5279
  800MOL0     C 7888   8.891   6.626   8.838  0.3200 -0.0465  0.1280
  800MOL0     O 7889   8.834   6.709   8.939 -0.7358  0.0210 -0.5832
  800MOL0     C 7890   8.810   6.837   8.906  0.2930 -0.2633  0.3136
  800MOL0     C 7891   8.776   6.890   8.780 -0.7883 -0.5458 -1.0266
  800MOL0     C 7892   8.750   7.022   8.760 -0.2057 -0.0779  1.2055
  800MOL0     C 7893   8.722   7.053   8.616  0.0591 -0.1208  0.4575
  800MOL0     C 7894   8.776   7.118   8.855 -0.0853 -0.2481 -0.4363
  800MOL0     C 7895   8.769   7.265   8.851 -0.0105 -0.8861  0.2944
  800MOL0     O 7896   8.817   7.334   8.965  0.0430  0.3732 -0.1333
  800MOL0     C 7897   8.790   7.460   9.010 -0.1029 -0.1260 -0.0982
  800MOL0     C 7898   8.876   7.569   9.015  0.7339 -0.3867 -0.1349
  800MOL0     C 7899   8.847   7.696   9.061 -0.2292  0.0218 -0.8160
  800MOL0     C 7900   8.721   7.716   9.122 -0.1873 -0.1752  0.6223
  800MOL0     O 7901   8.708   7.839   9.173 -0.5670  0.1436 -0.1649
  800MOL0     C 7902   8.656   7.855   9.300 -0.5611 -0.4024 -0.1334
  800MOL0     C 7903   8.505   7.880   9.295  0.5245 -0.2050 -0.3752
  800MOL0     C 7904   8.459   8.018   9.247 -0.5020  0.0305  0.3800
  800MOL0     C 7905   8.315   8.020   9.216 -0.7893 -0.2143 -0.0821
  800MOL0     C 7906   8.279   8.170   9.184  0.2294 -0.9495 -0.5227
  800MOL0     C 7907   8.324   8.238   9.049  0.1836 -0.0931  0.4927
  800MOL0     C 7908   8.442   8.330   9.074  0.4313  0.1891  0.6997
  800MOL0     C 7909   8.460   8.422   8.950 -0.5513  0.0180 -0.8598
  800MOL0    Cl 7910   8.571   8.320   8.844  0.1628 -0.0472  0.5056
  800MOL0     C 7911   8.631   7.611   9.109 -0.4330  0.6370 -0.1211
  800MOL0     C 7912   8.658   7.483   9.057 -0.1537  0.0219 -0.0855
  800MOL0     O 7913   8.718   7.326   8.754  0.4784 -0.4065  0.1496
  800MOL0     C 7914   8.809   7.063   8.982  0.0933  0.4161  0.4888
  800MOL0     C 7915   8.829   6.930   9.011  0.3750  0.0045  0.5034
  800MOL0     N 7916   9.117   6.183   8.840  0.1664 -0.4465 -0.0539
  800MOL0     N 7917   9.062   6.100   8.753 -0.4343  0.3148 -0.3727
  800MOL0     C 7918   8.629   4.975   8.568  0.2879  0.1351  0.6309
  800MOL0     C 7919   8.644   4.853   8.502 -0.1112  0.4478  0.1142
  800MOL0     C 7920   8.826   4.539   8.247  0.5636 -0.2406  0.3809
  800MOL0     C 7921   8.723   4.511   8.155 -0.1570  0.1675 -0.3681
  800MOL0     C 7922   8.717   4.387   8.095 -0.0641  0.6234 -0.9827
  800MOL0     C 7923   8.805   4.283   8.130  0.0511  0.1141  0.6594
  800MOL0     O 7924   8.798   4.164   8.061 -0.1228  0.3725 -0.0234
  800MOL0     C 7925   8.673   4.092   8.067  0.1536  0.8178  0.0577
  800MOL0     C 7926   8.703   3.935   8.081  0.4549 -0.7173  0.3708
  800MOL0     C 7927   8.750   3.913   8.226 -0.7448  1.3004 -0.2848
  800MOL0     C 7928   8.704   3.773   8.273 -0.0817 -0.2340 -0.4415
  800MOL0     C 7929   8.783   3.663   8.210  1.0262 -0.6389  0.5071
  800MOL0     C 7930   8.848   3.579   8.160  0.2467 -0.2121  0.1624
  800MOL0     C 7931   8.915   4.318   8.207 -0.8598  0.6058  0.2783
  800MOL0     C 7932   8.932   4.442   8.270 -0.0393  0.6113  0.0901
  800MOL0     H 7933   8.660   4.969   8.182  1.0917 -2.3951 -0.4995
  800MOL0     H 7934   8.640   5.193   8.309  1.4542 -0.2496 -1.4402
  800MOL0     H 7935   8.466   5.284   8.443  0.6049 -0.1600 -1.8602
  800MOL0     H 7936   8.461   5.346   8.612  1.7638  1.8938  0.3504
  800MOL0     H 7937   8.664   5.399   8.398  1.7953 -1.3204  0.8974
  800MOL0     H 7938   8.532   5.507   8.467 -1.1416 -1.3441 -1.7435
  800MOL0     H 7939   8.648   5.491   8.702  0.0430  1.0902 -0.2097
  800MOL0     H 7940   8.780   5.420   8.615 -2.2941 -2.1890  1.9070
  800MOL0     H 7941   8.843   5.629   8.613  0.3814 -0.0313 -1.6066
  800MOL0     H 7942   8.745   5.644   8.467  2.9117  1.2580  1.1042
  800MOL0     H 7943   8.695   5.834   8.589  1.1657  0.8257  1.7327
  800MOL0     H 7944   8.562   5.739   8.650 -0.6787 -1.3203  2.7091
  800MOL0     H 7945   8.641   5.804   8.852 -0.8363  2.8029 -3.1185
  800MOL0     H 7946   8.728   5.658   8.839 -3.3213  1.0169  3.9964
  800MOL0     H 7947   8.845   5.852   8.917 -1.1513  1.6548 -0.5432
  800MOL0     H 7948   8.936   5.799   8.779  2.0201  2.3878  3.0187
  800MOL0     H 7949   8.740   6.036   8.776  0.8483 -0.7771  2.3756
  800MOL0     H 7950   8.835   5.996   8.638 -2.6661  1.6464 -1.1430
  800MOL0     H 7951   8.821   6.137   8.972 -1.3915  0.1647 -2.2204
  800MOL0     H 7952   9.006   6.270   9.143  2.8274  1.4812  2.8728
  800MOL0     H 7953   9.140   6.341   9.055  0.4425 -1.4445  1.0855
  800MOL0     H 7954   8.940   6.505   9.091 -1.0829 -2.3176  2.1575
  800MOL0     H 7955   8.839   6.397   8.999 -0.0250 -0.4808  1.7131
  800MOL0     H 7956   9.038   6.464   8.814  1.3362  0.4346 -0.5434
  800MOL0     H 7957   9.068   6.593   8.939 -1.3279  0.1728  0.5408
  800MOL0     H 7958   8.812   6.572   8.785 -1.4946  1.6317  0.9615
  800MOL0     H 7959   8.943   6.689   8.766 -3.2339  0.9487 -1.8221
  800MOL0     H 7960   8.764   6.815   8.701 -1.3384 -2.3387  0.6803
  800MOL0     H 7961   8.701   6.963   8.558 -0.4127 -0.2377  0.8059
  800MOL0     H 7962   8.640   7.123   8.595  1.0147  1.4931  1.8625
  800MOL0     H 7963   8.815   7.096   8.578  0.0874 -0.3989  0.2038
  800MOL0     H 7964   8.976   7.550   8.976  2.7857  2.7337  3.0804
  800MOL0     H 7965   8.912   7.783   9.057 -0.9739  0.8233  2.0726
  800MOL0     H 7966   8.672   7.774   9.372  1.7152 -2.8285 -3.1258
  800MOL0     H 7967   8.700   7.950   9.331  3.5126 -2.1304  0.0042
  800MOL0     H 7968   8.454   7.798   9.242  0.3896 -1.1571  1.1824
  800MOL0     H 7969   8.459   7.870   9.393  1.0627  3.6035  0.4133
  800MOL0     H 7970   8.526   8.029   9.161  1.8755 -0.6494  2.0249
  800MOL0     H 7971   8.485   8.092   9.324  0.0485 -0.3188  0.5408
  800MOL0     H 7972   8.300   7.949   9.134  2.3447 -1.8312  0.5612
  800MOL0     H 7973   8.266   7.995   9.310 -1.7297 -1.2466 -0.8138
  800MOL0     H 7974   8.290   8.242   9.266 -1.7820 -1.1072 -0.0620
  800MOL0     H 7975   8.170   8.168   9.172  0.0945 -0.8509  0.5730
  800MOL0     H 7976   8.368   8.168   8.977 -0.5960  0.4893 -0.5897
  800MOL0     H 7977   8.237   8.274   8.994 -0.6950 -1.5003  0.9029
  800MOL0     H 7978   8.524   8.263   9.101 -1.7409 -3.2373 -0.6106
  800MOL0     H 7979   8.413   8.394   9.158 -4.2694 -1.5407  0.6529
  800MOL0     H 7980   8.512   8.514   8.981 -0.0636 -1.1103  1.9837
  800MOL0     H 7981   8.369   8.440   8.893 -1.5581  2.7091  1.3810
  800MOL0     H 7982   8.529   7.618   9.144 -0.0217  2.1197  0.8417
  800MOL0     H 7983   8.581   7.407   9.047  0.9315 -0.9642 -1.3022
  800MOL0     H 7984   8.819   7.134   9.063  1.0803  2.1214 -1.0321
  800MOL0     H 7985   8.856   6.890   9.108  1.8057  0.9949  0.5439
  800MOL0     H 7986   8.619   4.972   8.677 -1.5719  2.7759  0.6461
  800MOL0     H 7987   8.651   4.762   8.560  2.3416 -1.1810 -2.4100
  800MOL0     H 7988   8.648   4.586   8.131 -1.6879 -0.7131  1.4418
  800MOL0     H 7989   8.645   4.372   8.014  1.6987 -0.6820 -2.3970
  800MOL0     H 7990   8.612   4.122   8.153 -1.7474  0.9769 -1.2920
  800MOL0     H 7991   8.616   4.101   7.974  1.6409 -3.3427 -1.5007
  800MOL0     H 7992   8.782   3.903   8.012 -1.5412 -3.6586 -0.7352
  800MOL0     H 7993   8.611   3.883   8.055  0.8849 -0.9307 -0.7872
  800MOL0     H 7994   8.703   3.984   8.294 -0.0324  0.0350  1.6328
  800MOL0     H 7995   8.858   3.929   8.222 -0.4446 -0.2906  0.5224
  800MOL0     H 7996   8.597   3.758   8.252 -0.0408 -0.1319 -0.7368
  800MOL0     H 7997   8.717   3.764   8.381  1.8728  0.9137 -0.5366
  800MOL0     H 7998   8.905   3.494   8.127  1.2914 -0.5033  2.5093
  800MOL0     H 7999   8.983   4.234   8.204  2.5795  3.0359  2.8424
  800MOL0     H 8000   9.017   4.457   8.335 -0.1511  0.0804  0.3701
  801MOL0     O 8001   6.994   9.133   8.594  0.1163 -0.8630  0.6365
  801MOL0     C 8002   6.962   9.033   8.658 -0.3098 -0.1841  0.4485
  801MOL0     O 8003   6.861   8.952   8.626  0.1765 -0.0865 -0.3241
  801MOL0     C 8004   6.798   8.946   8.509  0.9136  0.2160  0.5700
  801MOL0     C 8005   6.858   8.970   8.381  0.7143 -0.6399 -0.0876
  801MOL0     C 8006   6.784   8.975   8.260  0.5433  0.7545  0.5608
  801MOL0     C 8007   6.650   8.937   8.263 -0.4754 -0.6393  0.9894
  801MOL0     O 8008   6.581   8.944   8.143  0.6846  0.5662 -0.6811
  801MOL0     C 8009   6.609   8.834   8.052 -0.7126  0.7232  0.0588
  801MOL0     C 8010   6.485   8.736   8.030 -0.6956 -0.5006  0.0975
  801MOL0     C 8011   6.366   8.807   7.971 -0.7206 -0.3969 -1.1749
  801MOL0     C 8012   6.243   8.719   7.984  1.0163 -0.0750  0.7098
  801MOL0     C 8013   6.136   8.789   7.888  0.0172 -0.4219 -0.8978
  801MOL0     C 8014   6.012   8.703   7.906 -0.4578  0.1837 -0.1420
  801MOL0     C 8015   5.891   8.746   7.821  0.0373 -0.4825  0.6907
  801MOL0     C 8016   5.764   8.658   7.838  0.3879 -1.3087  0.4462
  801MOL0     N 8017   5.640   8.727   7.801  0.1853  0.8030 -0.6729
  801MOL0     C 8018   5.607   8.757   7.669  0.5558  0.4897  0.5415
  801MOL0     C 8019   5.502   8.846   7.671 -0.9851  0.4556 -0.3277
  801MOL0     C 8020   5.443   8.921   7.556 -0.4280 -0.3508 -0.2378
  801MOL0     C 8021   5.468   9.073   7.576 -0.0803  0.2429  0.9141
  801MOL0     C 8022   5.504   9.148   7.452 -0.4849  0.6129 -0.1299
  801MOL0     C 8023   5.648   9.124   7.398 -0.1781  0.7659 -0.0326
  801MOL0     O 8024   5.641   9.007   7.312  0.4738 -0.3879 -0.9968
  801MOL0     C 8025   5.720   8.896   7.347  0.0416 -0.9217 -0.1611
  801MOL0     C 8026   5.678   8.764   7.324  0.3389 -0.1837 -0.3626
  801MOL0     C 8027   5.753   8.655   7.368 -0.3583 -0.1156  0.7269
  801MOL0     C 8028   5.682   8.529   7.358  0.1777  0.1686 -0.4579
  801MOL0     C 8029   5.874   8.666   7.430 -0.3930 -0.1832  0.5019
  801MOL0     C 8030   5.969   8.547   7.469  0.6583 -0.3640 -0.3825
  801MOL0     O 8031   6.088   8.582   7.540  0.1290  0.0410 -0.0904
  801MOL0     C 8032   6.147   8.484   7.618 -0.3409 -0.8240  0.7684
  801MOL0     C 8033   6.072   8.396   7.696 -0.2228  0.4599 -0.0074
  801MOL0     C 8034   6.142   8.317   7.789 -0.2247  0.9159  0.0105
  801MOL0     C 8035   6.278   8.327   7.808  0.7101 -0.1787  0.4549
  801MOL0     O 8036   6.350   8.245   7.896 -0.6957 -0.2411  0.3677
  801MOL0     C 8037   6.296   8.247   8.035 -0.6387  0.1347 -0.3246
  801MOL0     C 8038   6.421   8.249   8.131 -0.3795  0.2820 -0.1568
  801MOL0     C 8039   6.491   8.382   8.143 -0.1716  0.1052 -0.0184
  801MOL0     C 8040   6.605   8.371   8.250  0.0407  1.0374 -0.0406
  801MOL0     C 8041   6.668   8.499   8.272 -0.4517  0.2561 -0.1708
  801MOL0     C 8042   6.769   8.495   8.390  0.2228 -0.0147  0.5728
  801MOL0     C 8043   6.830   8.630   8.420  0.6303 -0.1032 -0.1062
  801MOL0     C 8044   6.975   8.648   8.360 -0.1800 -0.5433 -0.2250
  801MOL0    Cl 8045   6.961   8.656   8.182 -0.1606 -0.1138  0.1653
  801MOL0     C 8046   6.349   8.419   7.739 -0.2322  0.8154 -0.1672
  801MOL0     C 8047   6.288   8.505   7.645  0.3100  0.6402 -0.3895
  801MOL0     O 8048   5.930   8.437   7.447 -0.1409 -0.1178 -0.1735
  801MOL0     C 8049   5.925   8.801   7.448  0.8263 -0.2996  0.1660
  801MOL0     C 8050   5.850   8.913   7.406  0.7065  0.4768  0.1486
  801MOL0     N 8051   5.476   8.867   7.805 -0.3998 -0.7770 -0.0034
  801MOL0     N 8052   5.558   8.802   7.884  0.7111  0.2640  0.8665
  801MOL0     C 8053   6.588   8.904   8.388  0.7163  0.1969 -0.3659
  801MOL0     C 8054   6.670   8.900   8.511 -0.0264 -0.9230 -0.0745
  801MOL0     C 8055   7.038   9.006   8.782 -0.8528  0.2348 -0.4562
  801MOL0     C 8056   7.026   8.886   8.860 -0.9252 -0.6360  0.0131
  801MOL0     C 8057   7.088   8.872   8.993 -0.3577  0.0930  0.1638
  801MOL0     C 8058   7.169   8.985   9.040  1.8065 -0.1978 -0.2044
  801MOL0     O 8059   7.227   8.953   9.164 -0.6235  0.4679  0.6491
  801MOL0     C 8060   7.338   9.035   9.207 -0.4845 -0.0524  0.2337
  801MOL0     C 8061   7.381   8.980   9.347 -0.7790  0.1535 -0.1278
  801MOL0     C 8062   7.510   9.031   9.418 -0.2607 -0.1467 -1.1705
  801MOL0     C 8063   7.529   9.180   9.399 -0.5677  0.4748  0.4643
  801MOL0     C 8064   7.632   9.197   9.290 -1.8367  0.2547 -0.1923
  801MOL0     C 8065   7.708   9.211   9.192  0.8224  0.1840 -1.0009
  801MOL0     C 8066   7.186   9.092   8.965  0.1634 -0.3100 -0.1691
  801MOL0     C 8067   7.118   9.106   8.842 -0.1949 -0.5699  0.1974
  801MOL0     H 8068   6.964   8.993   8.394  0.8771 -1.6239  0.4759
  801MOL0     H 8069   6.833   9.000   8.166  0.4912  2.1459  0.8728
  801MOL0     H 8070   6.652   8.868   7.957 -0.2576 -2.2732 -0.9308
  801MOL0     H 8071   6.688   8.770   8.093 -0.9241  1.8130  2.2715
  801MOL0     H 8072   6.507   8.641   7.981 -1.5658 -0.9019  0.4567
  801MOL0     H 8073   6.455   8.700   8.129 -0.6763 -1.7400 -0.3301
  801MOL0     H 8074   6.363   8.909   8.012  1.5568 -0.1946 -1.3838
  801MOL0     H 8075   6.391   8.836   7.868  3.6310 -1.0195 -0.4747
  801MOL0     H 8076   6.249   8.618   7.944  1.3476  1.1545 -2.6722
  801MOL0     H 8077   6.206   8.728   8.086 -2.5703 -1.6830 -0.2931
  801MOL0     H 8078   6.103   8.886   7.925  0.3181 -1.0084  0.9816
  801MOL0     H 8079   6.162   8.797   7.781 -0.0247 -0.5002 -0.9139
  801MOL0     H 8080   6.037   8.598   7.892  0.7615  0.5742 -1.1438
  801MOL0     H 8081   5.987   8.718   8.011  1.0454  2.7440 -0.0577
  801MOL0     H 8082   5.862   8.846   7.857 -0.5798 -0.4094  0.0221
  801MOL0     H 8083   5.919   8.756   7.716  0.2612  0.4026  0.8265
  801MOL0     H 8084   5.756   8.616   7.939 -0.3205 -3.5242 -0.4750
  801MOL0     H 8085   5.787   8.581   7.764 -0.8460  2.1296 -3.8998
  801MOL0     H 8086   5.648   8.727   7.573  0.8969 -0.6154  1.0234
  801MOL0     H 8087   5.479   8.871   7.465 -2.0783 -1.3487 -0.3803
  801MOL0     H 8088   5.339   8.890   7.545  0.4741 -3.7188 -0.6401
  801MOL0     H 8089   5.544   9.092   7.652 -1.6900  1.5458  2.2715
  801MOL0     H 8090   5.376   9.117   7.618 -0.5809 -1.1134  1.3083
  801MOL0     H 8091   5.497   9.255   7.475  3.8894  1.3438 -1.3452
  801MOL0     H 8092   5.431   9.124   7.374 -0.9025  1.5828 -0.0554
  801MOL0     H 8093   5.716   9.118   7.484  0.9412 -0.6217 -0.9669
  801MOL0     H 8094   5.670   9.217   7.347  1.9286 -0.1320 -0.8689
  801MOL0     H 8095   5.578   8.750   7.284 -0.3915  1.7825  0.6410
  801MOL0     H 8096   5.742   8.464   7.295  0.7393 -0.5665  0.7917
  801MOL0     H 8097   5.665   8.499   7.462 -3.6523  2.4996 -0.2133
  801MOL0     H 8098   5.586   8.538   7.305  0.4838 -1.4899 -1.3400
  801MOL0     H 8099   5.965   8.376   7.692  0.5497 -5.2235 -0.6395
  801MOL0     H 8100   6.083   8.247   7.846 -2.2297  1.5977 -1.1090
  801MOL0     H 8101   6.232   8.335   8.046 -1.6929 -0.6051 -0.4089
  801MOL0     H 8102   6.227   8.167   8.061 -0.8222  1.0417  2.2156
  801MOL0     H 8103   6.382   8.232   8.232 -0.8682  1.9093 -0.0430
  801MOL0     H 8104   6.484   8.170   8.089 -2.0495 -1.1929  0.0316
  801MOL0     H 8105   6.433   8.470   8.173 -0.8794 -1.1054  2.4129
  801MOL0     H 8106   6.546   8.400   8.050 -1.4229 -0.9624 -0.9999
  801MOL0     H 8107   6.571   8.336   8.348 -0.2684  0.4503 -0.3504
  801MOL0     H 8108   6.682   8.299   8.218 -0.3988 -0.3875  1.8859
  801MOL0     H 8109   6.594   8.579   8.283  2.9356  3.8391 -0.8897
  801MOL0     H 8110   6.726   8.536   8.187  2.0630 -2.1057  0.3737
  801MOL0     H 8111   6.713   8.451   8.473 -0.8778 -0.3748 -0.3221
  801MOL0     H 8112   6.857   8.432   8.372 -0.2159 -0.9960  1.7026
  801MOL0     H 8113   6.833   8.648   8.528 -1.6359 -0.5807  0.0904
  801MOL0     H 8114   6.761   8.699   8.371 -0.7385 -2.3666 -1.5319
  801MOL0     H 8115   7.044   8.572   8.397  0.9490  1.1528  1.3526
  801MOL0     H 8116   7.016   8.742   8.398  0.3203 -0.7780 -0.1770
  801MOL0     H 8117   6.457   8.410   7.743 -0.1608 -0.1780 -2.6993
  801MOL0     H 8118   6.351   8.573   7.587  0.4820  0.2699 -0.6421
  801MOL0     H 8119   6.018   8.809   7.502  0.6375 -1.0659  0.6191
  801MOL0     H 8120   5.891   9.013   7.416 -0.3515  0.7083  6.7970
  801MOL0     H 8121   6.481   8.892   8.397  0.5982  1.0225 -0.5675
  801MOL0     H 8122   6.622   8.886   8.607 -3.0123 -2.0181 -1.6098
  801MOL0     H 8123   6.972   8.804   8.813 -0.9907  0.1467 -1.3538
  801MOL0     H 8124   7.089   8.789   9.063 -1.6401 -0.4636 -0.4518
  801MOL0     H 8125   7.424   9.030   9.140  0.4080  1.0190  1.2480
  801MOL0     H 8126   7.300   9.137   9.221  3.0430  1.3636  0.6223
  801MOL0     H 8127   7.391   8.872   9.335 -1.5445  0.1149 -0.4616
  801MOL0     H 8128   7.286   8.989   9.400 -0.5168 -1.1090  0.6094
  801MOL0     H 8129   7.604   8.982   9.394  0.4743  0.6288  0.0112
  801MOL0     H 8130   7.494   9.001   9.522 -0.4987  2.5545 -0.3515
  801MOL0     H 8131   7.545   9.233   9.493  0.2721  1.9946 -0.4960
  801MOL0     H 8132   7.447   9.248   9.372  0.9607  2.0315 -0.4262
  801MOL0     H 8133   7.783   9.208   9.116  3.0334 -3.6903  1.0284
  801MOL0     H 8134   7.263   9.165   8.988 -0.7907  1.0263 -1.0596
  801MOL0     H 8135   7.138   9.197   8.785 -0.1924 -1.3405 -1.0744
  802MOL0     O 8136   2.322   6.714   3.755  0.2709  0.4665  0.4075
  802MOL0     C 8137   2.360   6.834   3.765 -0.3852  0.0913  1.1119
  802MOL0     O 8138   2.366   6.918   3.658  0.9861  0.2227  0.2361
  802MOL0     C 8139   2.301   6.883   3.543 -0.6954  0.2869  0.1501
  802MOL0     C 8140   2.160   6.897   3.528  0.5999  0.6955 -0.0638
  802MOL0     C 8141   2.092   6.855   3.418 -0.0375  1.0085  0.7755
  802MOL0     C 8142   2.166   6.840   3.300  0.0108  0.1756 -0.3854
  802MOL0     O 8143   2.096   6.825   3.182  0.4208 -0.4042 -0.4401
  802MOL0     C 8144   2.071   6.688   3.149  0.0098  0.2729  0.9621
  802MOL0     C 8145   2.003   6.671   3.020  0.0995  0.3447 -0.2053
  802MOL0     C 8146   1.897   6.781   2.989 -1.9815 -0.2091  0.0185
  802MOL0     C 8147   1.778   6.746   2.896 -0.6830  0.8940 -1.2518
  802MOL0     C 8148   1.735   6.860   2.815 -0.7464 -0.0955 -0.3027
  802MOL0     C 8149   1.834   6.905   2.696 -1.0769  0.5885 -0.5177
  802MOL0     C 8150   1.778   7.019   2.612 -0.3596  0.3432 -0.4860
  802MOL0     C 8151   1.887   7.072   2.523  0.6276  0.1978  0.7328
  802MOL0     N 8152   1.923   6.973   2.415 -0.3163  0.3853 -0.3328
  802MOL0     C 8153   1.851   6.955   2.295 -0.0991 -0.8712 -0.3300
  802MOL0     C 8154   1.925   6.868   2.226  0.3184 -0.4894  0.0310
  802MOL0     C 8155   1.894   6.826   2.083  0.8940 -0.5563  0.4612
  802MOL0     C 8156   1.927   6.946   1.993 -0.2472  0.3072  0.2839
  802MOL0     C 8157   2.080   6.975   1.964  0.1046  0.2696  0.4844
  802MOL0     C 8158   2.080   7.110   1.889  0.5181  1.1661 -0.6973
  802MOL0     O 8159   2.001   7.089   1.767  0.6249  0.1337 -0.1209
  802MOL0     C 8160   2.069   7.030   1.665  0.1308 -0.5896 -0.4852
  802MOL0     C 8161   2.056   6.898   1.626  0.3838 -0.1755 -0.2543
  802MOL0     C 8162   2.104   6.838   1.510  0.8829 -0.0860  0.3865
  802MOL0     C 8163   2.085   6.691   1.482  0.0063 -0.5353  1.4723
  802MOL0     C 8164   2.163   6.929   1.418  0.2289 -0.4269 -0.8747
  802MOL0     C 8165   2.216   6.873   1.293  0.6023 -0.1339 -0.4929
  802MOL0     O 8166   2.124   6.869   1.197 -0.1988  0.6063  0.7758
  802MOL0     C 8167   2.170   6.849   1.070  0.0236 -0.9955 -0.0021
  802MOL0     C 8168   2.083   6.789   0.977 -0.1196 -0.5179  0.0292
  802MOL0     C 8169   2.117   6.768   0.844  0.0542 -0.4911  0.4789
  802MOL0     C 8170   2.240   6.816   0.803  0.4367 -0.3083  0.3413
  802MOL0     O 8171   2.290   6.778   0.683  0.5563  0.0359 -0.6597
  802MOL0     C 8172   2.206   6.782   0.567  0.9432  0.9610  0.6228
  802MOL0     C 8173   2.154   6.928   0.534 -0.7385  0.2710  0.2302
  802MOL0     C 8174   2.066   6.919   0.408  0.7399  1.0942  0.3394
  802MOL0     C 8175   2.001   7.055   0.382 -0.2043  0.1237  0.6054
  802MOL0     C 8176   1.896   7.055   0.274 -0.2011 -0.2568  0.0972
  802MOL0     C 8177   1.794   7.155   0.287  0.8194 -0.9480 -0.0515
  802MOL0     C 8178   1.676   7.152   0.177 -0.4685 -0.1005  0.0676
  802MOL0     C 8179   1.709   7.183   0.032 -0.5034  0.3057 -0.0063
  802MOL0    Cl 8180   1.798   7.341   0.020  0.2834  0.1143 -0.0145
  802MOL0     C 8181   2.325   6.892   0.885 -0.7764  0.1397  0.0677
  802MOL0     C 8182   2.291   6.905   1.025 -0.2454  0.0598 -0.5404
  802MOL0     O 8183   2.318   6.808   1.296 -0.6155 -0.6275  0.2388
  802MOL0     C 8184   2.181   7.066   1.451 -0.2304 -0.6232  0.4024
  802MOL0     C 8185   2.144   7.112   1.576  0.2019  0.6001  0.7315
  802MOL0     N 8186   2.041   6.828   2.299  0.2525  0.4324 -0.4584
  802MOL0     N 8187   2.040   6.897   2.414 -0.0042  1.1169  0.3316
  802MOL0     C 8188   2.303   6.824   3.308 -0.6838 -0.3142 -0.6881
  802MOL0     C 8189   2.370   6.845   3.430  0.0873  0.3698 -0.6400
  802MOL0     C 8190   2.360   6.896   3.902 -0.3669  0.2011  0.3115
  802MOL0     C 8191   2.345   6.813   4.020 -0.3626  0.4415 -0.0886
  802MOL0     C 8192   2.379   6.878   4.140 -0.8289  0.4281  0.2313
  802MOL0     C 8193   2.404   7.014   4.146 -0.6052 -0.4348 -0.2017
  802MOL0     O 8194   2.433   7.067   4.277 -0.6060  0.3047 -0.1746
  802MOL0     C 8195   2.426   7.210   4.300  0.2023  0.1737  0.4525
  802MOL0     C 8196   2.571   7.271   4.311  1.2221  0.7828 -0.1267
  802MOL0     C 8197   2.555   7.410   4.385  0.7662 -0.6417  1.2036
  802MOL0     C 8198   2.683   7.479   4.380  0.3356 -1.6789 -0.1032
  802MOL0     C 8199   2.706   7.521   4.237 -0.0626 -0.7114 -0.1200
  802MOL0     C 8200   2.698   7.550   4.114  0.5602  0.2264 -1.2294
  802MOL0     C 8201   2.397   7.091   4.034 -0.0268 -0.8754 -0.3377
  802MOL0     C 8202   2.364   7.038   3.909  0.0598  0.0123  0.6863
  802MOL0     H 8203   2.090   6.906   3.611  0.4139 -0.2778 -0.1024
  802MOL0     H 8204   1.986   6.858   3.398 -0.1090  2.0102  1.2621
  802MOL0     H 8205   2.160   6.625   3.143 -1.1086 -1.2029 -1.9004
  802MOL0     H 8206   1.996   6.640   3.214 -0.9421  1.1774  0.5592
  802MOL0     H 8207   2.072   6.677   2.934  1.6772 -0.5600  0.9373
  802MOL0     H 8208   1.965   6.568   3.022 -1.5775  0.9301 -0.5280
  802MOL0     H 8209   1.855   6.820   3.082  0.2708  1.9952  0.2213
  802MOL0     H 8210   1.953   6.864   2.944 -0.4668 -1.4474 -0.4537
  802MOL0     H 8211   1.813   6.671   2.825  2.5539  0.5114  0.5680
  802MOL0     H 8212   1.697   6.713   2.961 -0.8513  0.3838 -1.7164
  802MOL0     H 8213   1.631   6.859   2.781 -0.2009  1.5681 -2.2917
  802MOL0     H 8214   1.725   6.944   2.884 -0.0138 -0.7020  0.5581
  802MOL0     H 8215   1.919   6.945   2.752 -1.5863 -1.4497  1.8586
  802MOL0     H 8216   1.849   6.814   2.636 -0.7293  1.1486 -1.2943
  802MOL0     H 8217   1.690   6.984   2.557  0.3332 -0.6539 -0.9902
  802MOL0     H 8218   1.745   7.099   2.679  1.1523  0.1298  0.5554
  802MOL0     H 8219   1.970   7.090   2.592  0.3931  0.6274  0.9083
  802MOL0     H 8220   1.860   7.169   2.478  3.0130  0.4517 -0.3223
  802MOL0     H 8221   1.766   7.017   2.267  1.3522  1.6996  0.5602
  802MOL0     H 8222   1.940   6.731   2.053 -0.0504 -0.7345 -0.4577
  802MOL0     H 8223   1.787   6.807   2.077  0.9865 -0.6801 -2.8082
  802MOL0     H 8224   1.879   7.029   2.046  1.9894 -0.6811  4.3482
  802MOL0     H 8225   1.871   6.921   1.903  0.7281 -0.3067 -0.1716
  802MOL0     H 8226   2.140   6.897   1.916  0.2055 -0.4169  1.6784
  802MOL0     H 8227   2.121   6.996   2.063 -0.3913  1.1071  0.5248
  802MOL0     H 8228   2.183   7.142   1.872  0.8493  0.8168  0.5695
  802MOL0     H 8229   2.028   7.180   1.955 -5.3980 -1.9919 -1.3301
  802MOL0     H 8230   1.994   6.839   1.693  0.6545  0.2055  0.3488
  802MOL0     H 8231   2.176   6.636   1.458  1.1275  2.2434 -1.2648
  802MOL0     H 8232   2.035   6.646   1.569 -2.0295 -1.4861 -0.1037
  802MOL0     H 8233   2.009   6.672   1.406  0.8405  2.5000 -0.2579
  802MOL0     H 8234   1.983   6.772   1.015 -1.3005  3.4422 -0.7807
  802MOL0     H 8235   2.046   6.716   0.781 -2.0523 -0.9867  3.0981
  802MOL0     H 8236   2.255   6.740   0.479 -0.8522  0.6113 -0.2510
  802MOL0     H 8237   2.116   6.721   0.583  0.2124  2.0646  0.8759
  802MOL0     H 8238   2.090   6.951   0.620  0.6094 -2.4607  2.1349
  802MOL0     H 8239   2.232   7.002   0.516 -0.9923  0.5618  0.3202
  802MOL0     H 8240   1.984   6.849   0.428  0.1975  1.1026 -1.7101
  802MOL0     H 8241   2.120   6.878   0.323 -0.9480 -0.7777  0.0918
  802MOL0     H 8242   1.958   7.073   0.481  0.6943 -1.7213  1.3737
  802MOL0     H 8243   2.076   7.134   0.367 -0.2523 -0.2469 -2.0062
  802MOL0     H 8244   1.843   6.960   0.272  1.5870 -1.3239  1.3215
  802MOL0     H 8245   1.944   7.077   0.178 -1.7661 -1.1093 -0.9196
  802MOL0     H 8246   1.740   7.157   0.381  1.0362  0.3317  0.0618
  802MOL0     H 8247   1.843   7.252   0.280  1.0835 -1.1837 -2.8524
  802MOL0     H 8248   1.591   7.217   0.201 -2.5134 -2.4116 -0.4440
  802MOL0     H 8249   1.616   7.061   0.184 -0.3913 -0.0013  3.9800
  802MOL0     H 8250   1.619   7.197  -0.028 -0.8668 -1.2590  0.1442
  802MOL0     H 8251   1.781   7.111  -0.010  0.2817  1.4299 -0.6461
  802MOL0     H 8252   2.413   6.938   0.842  0.0135 -1.0750  0.3399
  802MOL0     H 8253   2.353   6.973   1.083 -2.3645  2.8588 -1.2904
  802MOL0     H 8254   2.234   7.136   1.388 -0.8664 -0.0852  0.4510
  802MOL0     H 8255   2.183   7.210   1.602  2.4267  0.2916 -1.1115
  802MOL0     H 8256   2.364   6.793   3.224  1.7369 -2.1488  1.5625
  802MOL0     H 8257   2.476   6.835   3.449 -0.4774  1.3670  4.7465
  802MOL0     H 8258   2.348   6.704   4.014 -3.4306  0.1659  1.4656
  802MOL0     H 8259   2.362   6.825   4.234  2.4974 -0.3680  0.4985
  802MOL0     H 8260   2.373   7.266   4.222 -0.3635  0.9288  1.3645
  802MOL0     H 8261   2.382   7.223   4.399 -1.2505 -0.2233 -0.1181
  802MOL0     H 8262   2.602   7.275   4.206  0.0091 -3.2687 -0.8240
  802MOL0     H 8263   2.633   7.194   4.358  0.6906 -0.3055 -1.1438
  802MOL0     H 8264   2.527   7.387   4.488 -2.0901  1.2463  0.9461
  802MOL0     H 8265   2.476   7.462   4.330  3.2757  1.0526 -1.0838
  802MOL0     H 8266   2.760   7.421   4.431  0.5146  0.0093  1.6601
  802MOL0     H 8267   2.670   7.569   4.441  1.3093 -2.8516  1.9104
  802MOL0     H 8268   2.697   7.562   4.008  1.7863 -1.5139 -1.4710
  802MOL0     H 8269   2.413   7.198   4.036 -0.4420 -0.8216  0.1727
  802MOL0     H 8270   2.372   7.107   3.826 -0.7498  0.1254  0.6966
  803MOL0     O 8271   9.426   1.105  10.800 -0.7393  0.6359 -1.0110
  803MOL0     C 8272   9.436   1.116  10.919  1.1259  0.3835 -0.7218
  803MOL0     O 8273   9.462   1.020  11.012 -0.3068 -0.3012 -0.1477
  803MOL0     C 8274   9.476   0.886  10.984  0.1378 -0.3435  0.1585
  803MOL0     C 8275   9.363   0.806  10.943 -0.8292 -0.2568  0.8850
  803MOL0     C 8276   9.379   0.670  10.917 -0.5284  0.7384 -0.4355
  803MOL0     C 8277   9.498   0.604  10.942  0.2908  0.3653  0.9561
  803MOL0     O 8278   9.514   0.465  10.931  0.5065  0.1083  1.3039
  803MOL0     C 8279   9.452   0.389  10.823 -0.5449  0.9199 -0.3854
  803MOL0     C 8280   9.518   0.410  10.683 -0.4617 -0.2850 -0.8123
  803MOL0     C 8281   9.411   0.389  10.576  0.9141  0.9890  0.9786
  803MOL0     C 8282   9.337   0.257  10.584 -0.3931  0.6150  0.0276
  803MOL0     C 8283   9.249   0.233  10.464 -0.1515  0.3571  0.1697
  803MOL0     C 8284   9.187   0.090  10.462  0.1224  0.1428 -0.0024
  803MOL0     C 8285   9.055   0.097  10.381  0.9277  1.1694 -0.2486
  803MOL0     C 8286   9.087   0.110  10.229  0.1805 -0.1948 -0.9961
  803MOL0     N 8287   8.982   0.074  10.136 -0.1906 -1.1405 -0.0220
  803MOL0     C 8288   8.858   0.139  10.131  0.5011 -0.3942  0.1361
  803MOL0     C 8289   8.803   0.095  10.019  0.5909  0.0971 -0.8733
  803MOL0     C 8290   8.670   0.115   9.954  0.7001 -0.6282  0.1228
  803MOL0     C 8291   8.687   0.253   9.885 -0.7797  1.0328 -0.4796
  803MOL0     C 8292   8.545   0.322   9.877  0.5892 -0.2266 -0.5266
  803MOL0     C 8293   8.553   0.426   9.769  0.3214  0.5383  0.4768
  803MOL0     O 8294   8.660   0.518   9.804 -0.2785  0.0708  0.2906
  803MOL0     C 8295   8.648   0.632   9.873 -0.1183  0.4557 -0.0147
  803MOL0     C 8296   8.745   0.727   9.879  0.3283 -0.1894 -0.7902
  803MOL0     C 8297   8.751   0.847   9.943  1.0054  0.3147 -0.2848
  803MOL0     C 8298   8.890   0.899   9.964 -0.0226 -0.7547  0.1179
  803MOL0     C 8299   8.629   0.889  10.008 -0.0843  0.5018  0.4101
  803MOL0     C 8300   8.605   1.022  10.076 -0.4421  0.9954  0.4948
  803MOL0     O 8301   8.471   1.059  10.065  0.2585  0.1575  0.4199
  803MOL0     C 8302   8.453   1.194  10.086  0.8784  0.8599  0.1580
  803MOL0     C 8303   8.467   1.258  10.207 -0.5009 -0.1704  0.9385
  803MOL0     C 8304   8.410   1.383  10.228  0.4564 -0.5898  0.7649
  803MOL0     C 8305   8.374   1.465  10.118 -0.4738  0.5887 -0.0240
  803MOL0     O 8306   8.357   1.597  10.136 -0.6867 -0.2463 -1.0712
  803MOL0     C 8307   8.362   1.684  10.030  0.0172 -1.8644  0.4948
  803MOL0     C 8308   8.418   1.816  10.092  0.0758 -0.1865 -0.2768
  803MOL0     C 8309   8.380   1.942  10.023  0.4880 -0.7355 -0.9315
  803MOL0     C 8310   8.439   2.060  10.086 -0.2893 -0.2109  0.5433
  803MOL0     C 8311   8.386   2.190  10.018 -1.2542 -0.2192 -0.0467
  803MOL0     C 8312   8.416   2.323  10.079  0.0087  0.8669 -0.8624
  803MOL0     C 8313   8.387   2.434   9.982 -0.7379  0.4414  0.2683
  803MOL0     C 8314   8.434   2.572  10.052  0.2258  0.5662  0.1999
  803MOL0    Cl 8315   8.385   2.710   9.954 -0.5470 -0.3703  0.2683
  803MOL0     C 8316   8.366   1.403   9.997 -0.6753 -0.2145  0.6494
  803MOL0     C 8317   8.392   1.264   9.977  0.0612  0.2607  0.6082
  803MOL0     O 8318   8.692   1.088  10.134  0.4333  0.8328  0.1697
  803MOL0     C 8319   8.522   0.791  10.006  0.7918 -0.0893  0.3292
  803MOL0     C 8320   8.533   0.667   9.945  0.7934  0.5659  0.6929
  803MOL0     N 8321   8.895   0.034   9.937  0.3994  0.9796  0.3259
  803MOL0     N 8322   8.999   0.010  10.016  0.1890 -1.1666  0.5067
  803MOL0     C 8323   9.606   0.668  10.990  1.4343 -0.6002 -0.0966
  803MOL0     C 8324   9.593   0.816  11.016  0.7493  0.3719 -0.1804
  803MOL0     C 8325   9.430   1.253  10.972  0.1644 -0.1172  0.5232
  803MOL0     C 8326   9.530   1.347  10.930  0.5564  0.2907 -0.7412
  803MOL0     C 8327   9.529   1.475  10.979  0.3022 -0.1384 -0.3629
  803MOL0     C 8328   9.427   1.516  11.070  0.8799  0.4612 -0.1937
  803MOL0     O 8329   9.412   1.646  11.094  0.0260  0.0502  0.6307
  803MOL0     C 8330   9.478   1.691  11.209 -0.2896 -0.1872  0.2115
  803MOL0     C 8331   9.454   1.842  11.218 -0.4825  0.0228 -0.2505
  803MOL0     C 8332   9.316   1.870  11.271  0.9331 -0.5788  0.1764
  803MOL0     C 8333   9.292   2.023  11.272 -0.3139 -0.0344  0.1731
  803MOL0     C 8334   9.150   2.042  11.282  0.2058  0.4670 -0.6198
  803MOL0     C 8335   9.031   2.065  11.291 -0.5451 -0.1621  0.3276
  803MOL0     C 8336   9.327   1.424  11.103 -0.0959 -0.4305  0.4823
  803MOL0     C 8337   9.329   1.291  11.057  0.7992 -0.6297  0.1698
  803MOL0     H 8338   9.271   0.854  10.910  0.4720  1.2618 -0.8199
  803MOL0     H 8339   9.290   0.613  10.892  1.8888 -3.3069 -0.7403
  803MOL0     H 8340   9.457   0.282  10.847 -0.0380  1.0368  0.0530
  803MOL0     H 8341   9.346   0.416  10.818 -1.2856 -1.3493  1.1442
  803MOL0     H 8342   9.535   0.516  10.663 -3.8571  0.0761 -2.4660
  803MOL0     H 8343   9.613   0.360  10.664 -0.7931 -1.4221  0.3622
  803MOL0     H 8344   9.328   0.459  10.586 -0.9420 -1.4598  4.9503
  803MOL0     H 8345   9.459   0.411  10.480 -0.3479  0.7053  0.2594
  803MOL0     H 8346   9.415   0.180  10.583 -2.2884 -1.4118 -0.5224
  803MOL0     H 8347   9.278   0.245  10.676  0.1515 -2.4897  0.0783
  803MOL0     H 8348   9.175   0.311  10.444  1.7690  2.8667  2.0678
  803MOL0     H 8349   9.313   0.239  10.375 -0.1301 -0.8819  0.0919
  803MOL0     H 8350   9.259   0.012  10.436 -0.3266 -0.8404  1.5856
  803MOL0     H 8351   9.170   0.071  10.568  1.5430 -0.0201  0.2179
  803MOL0     H 8352   8.998   0.005  10.398  3.4092 -0.5760 -0.8871
  803MOL0     H 8353   8.994   0.187  10.396  0.4388  0.6852  0.7290
  803MOL0     H 8354   9.175   0.045  10.224  0.9778  0.9304 -2.9205
  803MOL0     H 8355   9.128   0.209  10.204 -1.0641  0.3730 -0.8435
  803MOL0     H 8356   8.809   0.207  10.200 -0.8809  1.9558 -2.9156
  803MOL0     H 8357   8.639   0.036   9.885  0.9482 -1.3695  0.8370
  803MOL0     H 8358   8.598   0.107  10.036  1.1493 -3.3937  0.3311
  803MOL0     H 8359   8.736   0.246   9.787 -3.5902 -0.0343 -1.9420
  803MOL0     H 8360   8.737   0.320   9.955 -0.0864 -1.7993  1.8877
  803MOL0     H 8361   8.518   0.357   9.977  1.0766  0.2024 -0.5364
  803MOL0     H 8362   8.473   0.245   9.851 -1.7224  1.3132  0.9673
  803MOL0     H 8363   8.460   0.482   9.753 -0.0139  0.0619  0.7467
  803MOL0     H 8364   8.582   0.377   9.675  3.9729  1.5430  0.9588
  803MOL0     H 8365   8.845   0.698   9.850  0.9624 -0.0756  1.1654
  803MOL0     H 8366   8.906   0.949  10.060  0.7272 -0.9938  0.1172
  803MOL0     H 8367   8.961   0.818   9.947 -0.9104 -1.0229 -2.8667
  803MOL0     H 8368   8.909   0.977   9.890  1.0924  1.5930  2.7275
  803MOL0     H 8369   8.509   1.196  10.286  5.4961  1.8932 -0.1047
  803MOL0     H 8370   8.433   1.444  10.315 -1.0521  0.7176  0.2966
  803MOL0     H 8371   8.414   1.656   9.938  0.1915 -1.2175  0.3881
  803MOL0     H 8372   8.263   1.704   9.988  1.7855  0.1335 -3.2390
  803MOL0     H 8373   8.390   1.838  10.195 -0.7327 -0.5079 -0.4253
  803MOL0     H 8374   8.524   1.797  10.113 -0.5264 -0.9574  2.4411
  803MOL0     H 8375   8.272   1.953  10.012  0.4467  2.5771  1.4466
  803MOL0     H 8376   8.424   1.932   9.923 -0.9087 -1.1070 -1.5390
  803MOL0     H 8377   8.416   2.060  10.193  2.7021 -0.4967  1.2778
  803MOL0     H 8378   8.549   2.056  10.080 -0.3714 -2.6452 -1.0441
  803MOL0     H 8379   8.282   2.186   9.985 -0.7806  3.4577 -2.5702
  803MOL0     H 8380   8.443   2.193   9.924  0.7066  2.5147  1.1150
  803MOL0     H 8381   8.356   2.322  10.171 -0.3336 -1.1037 -1.0685
  803MOL0     H 8382   8.521   2.318  10.111  0.9543 -0.4246 -3.8631
  803MOL0     H 8383   8.278   2.441   9.982 -0.6424  2.3956 -0.1388
  803MOL0     H 8384   8.437   2.414   9.887 -0.6347 -0.5552  0.5177
  803MOL0     H 8385   8.543   2.572  10.053  0.2720  2.9995  0.8103
  803MOL0     H 8386   8.406   2.592  10.156 -1.7674 -1.6391  0.1635
  803MOL0     H 8387   8.331   1.473   9.922 -0.0513 -1.0749 -0.4900
  803MOL0     H 8388   8.361   1.215   9.885  0.2246 -2.8676  2.1154
  803MOL0     H 8389   8.427   0.827  10.044  0.3630 -2.1198  1.2846
  803MOL0     H 8390   8.446   0.603   9.938  0.6258  0.8373  0.2098
  803MOL0     H 8391   9.701   0.621  11.013  0.4066 -3.2752 -0.9494
  803MOL0     H 8392   9.672   0.866  11.071  0.4932 -0.5032  1.0450
  803MOL0     H 8393   9.606   1.319  10.858  0.3050  1.2960 -1.4249
  803MOL0     H 8394   9.598   1.552  10.947 -0.7727  1.9658  2.0338
  803MOL0     H 8395   9.438   1.627  11.288  0.4346 -2.8854 -1.4560
  803MOL0     H 8396   9.587   1.674  11.210 -0.5675 -2.3065  0.9991
  803MOL0     H 8397   9.469   1.889  11.120 -1.9719  1.2023  0.0445
  803MOL0     H 8398   9.530   1.872  11.291 -0.6746 -0.5547  0.1995
  803MOL0     H 8399   9.290   1.833  11.370  0.3520 -0.3099  0.1278
  803MOL0     H 8400   9.250   1.825  11.196 -0.2818 -1.5037  1.7482
  803MOL0     H 8401   9.331   2.077  11.186 -0.6104 -1.4495 -0.8924
  803MOL0     H 8402   9.341   2.069  11.358  1.4064 -1.3741 -0.0420
  803MOL0     H 8403   8.931   2.102  11.296 -0.3817  0.3445 -0.0987
  803MOL0     H 8404   9.236   1.453  11.154  0.7723  3.6817  0.0552
  803MOL0     H 8405   9.244   1.233  11.091 -1.0495  2.3427  1.1058
  804MOL0     O 8406   5.137   6.238   5.234  0.3233 -0.4082 -1.0413
  804MOL0     C 8407   5.213   6.175   5.168 -0.0331 -0.2996  0.8739
  804MOL0     O 8408   5.183   6.068   5.089 -0.8471  0.3943  0.0897
  804MOL0     C 8409   5.055   6.030   5.067  0.3589  0.6358  0.0822
  804MOL0     C 8410   5.014   5.899   5.089  0.2743 -0.5509  0.9354
  804MOL0     C 8411   4.881   5.870   5.083 -0.4814  0.6179 -0.1549
  804MOL0     C 8412   4.782   5.956   5.035  0.7760  0.1976  1.1347
  804MOL0     O 8413   4.652   5.921   4.988  0.0498  0.2287  0.3401
  804MOL0     C 8414   4.581   5.830   5.078 -0.3516  0.5906 -0.2978
  804MOL0     C 8415   4.430   5.845   5.038 -0.1092  0.4968 -0.0921
  804MOL0     C 8416   4.344   5.728   5.098  0.0462  0.2650  0.8589
  804MOL0     C 8417   4.305   5.628   4.987 -0.1647  0.0106 -0.9178
  804MOL0     C 8418   4.213   5.510   5.029 -0.1257  0.4613 -0.5303
  804MOL0     C 8419   4.094   5.552   5.109  0.0526  0.5551 -0.3126
  804MOL0     C 8420   4.002   5.427   5.145  0.2271 -0.0152 -0.0784
  804MOL0     C 8421   3.903   5.444   5.268 -1.0224  0.0674 -0.2508
  804MOL0     N 8422   3.801   5.340   5.287 -0.4112 -0.7878  0.0222
  804MOL0     C 8423   3.794   5.213   5.239 -0.6873  0.5176 -0.9140
  804MOL0     C 8424   3.735   5.127   5.324 -0.0103  0.3066  0.2803
  804MOL0     C 8425   3.732   4.976   5.309  0.3142 -0.8614  0.0160
  804MOL0     C 8426   3.636   4.932   5.193 -0.4901 -0.7830  0.3757
  804MOL0     C 8427   3.487   4.929   5.230  0.3852  0.7478  0.5636
  804MOL0     C 8428   3.463   4.835   5.353 -0.1175 -0.5882  0.3725
  804MOL0     O 8429   3.320   4.829   5.390 -0.0571 -0.1612  0.2498
  804MOL0     C 8430   3.237   4.751   5.309  0.0915 -0.1799 -0.2787
  804MOL0     C 8431   3.096   4.746   5.339  0.7589 -0.6632  0.0489
  804MOL0     C 8432   2.998   4.673   5.276  0.0321  0.9429 -0.2277
  804MOL0     C 8433   2.857   4.690   5.335  0.2076 -0.1178 -0.2013
  804MOL0     C 8434   3.032   4.598   5.151  0.2082 -0.3716 -0.3273
  804MOL0     C 8435   2.937   4.529   5.059  0.0622 -0.4726 -0.1500
  804MOL0     O 8436   2.805   4.556   5.071 -0.2255 -0.1060  0.4515
  804MOL0     C 8437   2.714   4.488   4.993  0.8306  0.0533  0.0332
  804MOL0     C 8438   2.700   4.352   4.987 -0.1151 -0.8669 -1.0726
  804MOL0     C 8439   2.606   4.289   4.910 -0.5568  0.1087 -0.3298
  804MOL0     C 8440   2.498   4.362   4.850 -1.3553 -0.0381 -0.0267
  804MOL0     O 8441   2.408   4.304   4.761 -0.5960  0.0656 -0.3443
  804MOL0     C 8442   2.452   4.191   4.691 -0.1812 -0.3399  0.6137
  804MOL0     C 8443   2.352   4.160   4.581  0.3634 -0.5581  0.3332
  804MOL0     C 8444   2.316   4.278   4.480 -0.2800 -0.7865 -0.2690
  804MOL0     C 8445   2.359   4.248   4.332  0.5229  0.6415  0.2239
  804MOL0     C 8446   2.333   4.374   4.240 -0.3934  0.3101 -0.0534
  804MOL0     C 8447   2.318   4.346   4.087  0.9823 -0.1527 -0.3070
  804MOL0     C 8448   2.169   4.325   4.054  0.1463  1.1478 -0.5984
  804MOL0     C 8449   2.121   4.338   3.911 -0.3781  0.4625 -0.3734
  804MOL0    Cl 8450   2.217   4.217   3.806 -0.2734 -0.3237 -0.7045
  804MOL0     C 8451   2.506   4.501   4.860 -0.6328  0.3144 -0.1098
  804MOL0     C 8452   2.617   4.563   4.928 -0.6626 -0.2403  0.3650
  804MOL0     O 8453   2.982   4.452   4.982 -0.1487  0.4888  0.3643
  804MOL0     C 8454   3.168   4.603   5.123  0.6537  0.4762  0.8243
  804MOL0     C 8455   3.268   4.674   5.199 -0.4818  0.4384 -0.7871
  804MOL0     N 8456   3.710   5.209   5.435  0.2594  0.2135  0.8586
  804MOL0     N 8457   3.739   5.335   5.407  0.9934 -0.1016 -0.5174
  804MOL0     C 8458   4.832   6.082   5.005  0.3688 -0.0412  0.2728
  804MOL0     C 8459   4.964   6.115   5.012 -0.0317 -0.4023 -0.5955
  804MOL0     C 8460   5.352   6.212   5.188 -0.7470 -0.6823  0.1087
  804MOL0     C 8461   5.452   6.153   5.107 -1.0947  0.2506 -0.4061
  804MOL0     C 8462   5.592   6.190   5.131 -0.7167  0.8176  1.1101
  804MOL0     C 8463   5.632   6.296   5.214  0.2751  0.4234 -0.6121
  804MOL0     O 8464   5.763   6.340   5.224 -0.1980  0.7005  0.1561
  804MOL0     C 8465   5.860   6.341   5.110  0.0902 -1.1056  0.0402
  804MOL0     C 8466   5.850   6.471   5.020  0.5669  0.2761  0.5760
  804MOL0     C 8467   5.914   6.600   5.079  0.2742 -0.2419 -1.2309
  804MOL0     C 8468   6.062   6.618   5.056  0.2510 -0.0863 -0.9824
  804MOL0     C 8469   6.127   6.730   5.126 -0.8393 -0.4259  0.6529
  804MOL0     C 8470   6.179   6.812   5.197 -0.5184  0.1422  0.7331
  804MOL0     C 8471   5.531   6.352   5.299  0.6733 -0.0330  0.0648
  804MOL0     C 8472   5.397   6.316   5.272  0.4286 -1.0205 -0.1233
  804MOL0     H 8473   5.084   5.828   5.132 -0.0015 -1.9328 -0.7600
  804MOL0     H 8474   4.852   5.766   5.094 -1.1077  0.9748  2.0980
  804MOL0     H 8475   4.605   5.724   5.066 -2.6903 -0.1877  1.2702
  804MOL0     H 8476   4.606   5.855   5.182 -1.3469  4.3501 -0.8285
  804MOL0     H 8477   4.395   5.942   5.074 -1.2672 -1.3078  4.3561
  804MOL0     H 8478   4.415   5.834   4.930 -2.4451  0.3018  0.2086
  804MOL0     H 8479   4.392   5.677   5.181 -0.3349 -0.6605  0.5205
  804MOL0     H 8480   4.254   5.778   5.136  0.2115  1.4160 -0.1897
  804MOL0     H 8481   4.251   5.689   4.914 -1.0849  0.6242  0.2484
  804MOL0     H 8482   4.392   5.580   4.940 -1.0139  0.5262 -3.1468
  804MOL0     H 8483   4.169   5.465   4.939 -2.0374 -3.2546  1.9679
  804MOL0     H 8484   4.274   5.428   5.068  1.0711  2.2012  1.4886
  804MOL0     H 8485   4.114   5.604   5.203  0.7516 -2.1183  1.0943
  804MOL0     H 8486   4.021   5.612   5.052 -2.7062 -0.8717  1.4928
  804MOL0     H 8487   3.938   5.396   5.062  0.9508 -1.6638 -0.0533
  804MOL0     H 8488   4.063   5.341   5.173  1.1489  0.2275 -1.2608
  804MOL0     H 8489   3.845   5.536   5.260  1.7752  1.9787  0.0338
  804MOL0     H 8490   3.961   5.454   5.360  2.1354 -2.3430 -1.7763
  804MOL0     H 8491   3.839   5.176   5.147 -0.0625  0.4497 -0.5862
  804MOL0     H 8492   3.833   4.944   5.281 -0.2979 -2.8380 -0.0673
  804MOL0     H 8493   3.708   4.933   5.407 -1.6598 -0.2219 -0.1474
  804MOL0     H 8494   3.667   4.834   5.154 -0.0814 -1.1833  1.6489
  804MOL0     H 8495   3.647   5.008   5.116 -0.5731  0.2089  1.3204
  804MOL0     H 8496   3.433   4.911   5.137  1.7260  0.5450 -0.1992
  804MOL0     H 8497   3.446   5.025   5.264 -0.5430  0.6548 -0.2600
  804MOL0     H 8498   3.522   4.867   5.440 -0.7218  1.1919  0.1673
  804MOL0     H 8499   3.500   4.737   5.324 -0.7702 -0.6896 -0.1166
  804MOL0     H 8500   3.073   4.813   5.422 -1.9369  0.0904 -1.1998
  804MOL0     H 8501   2.858   4.758   5.420 -0.9629  2.2079 -1.9258
  804MOL0     H 8502   2.799   4.746   5.260 -2.3694 -0.7844  1.1845
  804MOL0     H 8503   2.802   4.599   5.357 -0.7232  0.2119 -1.0541
  804MOL0     H 8504   2.774   4.287   5.033  0.3205 -0.8954 -1.7962
  804MOL0     H 8505   2.620   4.181   4.916  2.0746  0.4549  1.2632
  804MOL0     H 8506   2.549   4.224   4.652 -1.0696  0.7702 -0.7770
  804MOL0     H 8507   2.440   4.100   4.750  1.0175 -3.3504 -3.3556
  804MOL0     H 8508   2.398   4.074   4.530  1.6352  0.0825  0.3495
  804MOL0     H 8509   2.254   4.138   4.623  0.9056 -2.2207  0.7799
  804MOL0     H 8510   2.348   4.379   4.509 -1.3412  0.1316 -2.1613
  804MOL0     H 8511   2.207   4.286   4.480 -0.2086  0.3454 -0.5505
  804MOL0     H 8512   2.467   4.230   4.340  1.0169  3.7085  2.3029
  804MOL0     H 8513   2.310   4.165   4.280  3.5100 -1.2342  0.1723
  804MOL0     H 8514   2.417   4.442   4.254  0.6715 -1.5736  4.4690
  804MOL0     H 8515   2.246   4.425   4.281 -1.8620 -0.4222 -2.0899
  804MOL0     H 8516   2.357   4.435   4.036  3.4235 -0.1105  1.4547
  804MOL0     H 8517   2.386   4.263   4.063  0.3373 -1.1153  1.0957
  804MOL0     H 8518   2.115   4.403   4.110 -0.8918 -0.1636  0.3015
  804MOL0     H 8519   2.138   4.227   4.092 -0.9608  1.5107 -0.5294
  804MOL0     H 8520   2.129   4.439   3.871 -1.0721  0.9577  0.6833
  804MOL0     H 8521   2.019   4.298   3.903  0.2502 -2.3304  3.0800
  804MOL0     H 8522   2.431   4.565   4.814 -0.0606  0.8391 -0.3318
  804MOL0     H 8523   2.631   4.671   4.930  3.0809 -0.5986  1.6057
  804MOL0     H 8524   3.214   4.557   5.036  0.5539 -0.4147  1.2354
  804MOL0     H 8525   3.374   4.665   5.176 -0.2885  1.8584 -0.5718
  804MOL0     H 8526   4.777   6.153   4.944  1.5680  0.5609 -0.1430
  804MOL0     H 8527   5.015   6.205   4.980  4.3322 -3.2682 -2.8415
  804MOL0     H 8528   5.434   6.081   5.028  0.2154 -1.2448  0.5933
  804MOL0     H 8529   5.663   6.127   5.078 -0.8943 -0.1286  1.9560
  804MOL0     H 8530   5.964   6.341   5.143  0.1520  2.4203  0.2389
  804MOL0     H 8531   5.834   6.268   5.033 -1.7294  0.7987 -1.2796
  804MOL0     H 8532   5.743   6.489   5.011  0.7239  0.8669 -0.3063
  804MOL0     H 8533   5.891   6.448   4.921  1.2833  0.7127  0.7550
  804MOL0     H 8534   5.887   6.583   5.184 -4.4371 -1.4852 -2.3834
  804MOL0     H 8535   5.867   6.694   5.050  1.7251  0.4230 -1.4924
  804MOL0     H 8536   6.062   6.619   4.946  1.8629  0.6717 -1.0004
  804MOL0     H 8537   6.117   6.527   5.084  0.2590  0.7730  2.0593
  804MOL0     H 8538   6.235   6.871   5.267 -0.5366  2.1792 -0.8787
  804MOL0     H 8539   5.536   6.445   5.353 -1.3242  0.0373  0.2127
  804MOL0     H 8540   5.324   6.356   5.341  1.9556  2.1277 -0.1708
  805MOL0     O 8541   8.863   0.148   4.678 -0.1661  0.9547 -0.6452
  805MOL0     C 8542   8.854   0.241   4.601  0.0417 -0.3634  0.3762
  805MOL0     O 8543   8.799   0.221   4.477 -0.3501  0.7123  0.2373
  805MOL0     C 8544   8.773   0.092   4.430 -0.6524  0.2416 -0.2216
  805MOL0     C 8545   8.819   0.051   4.307  0.5261 -0.2646  0.1510
  805MOL0     C 8546   8.776  -0.064   4.245  0.2579 -0.2447  0.1318
  805MOL0     C 8547   8.675  -0.146   4.316  0.0190  0.5548  0.8698
  805MOL0     O 8548   8.611  -0.264   4.271 -0.6488 -1.1133 -0.0385
  805MOL0     C 8549   8.597  -0.276   4.130 -1.2304  0.4897  0.2262
  805MOL0     C 8550   8.471  -0.353   4.084 -0.4562 -0.9526  0.6112
  805MOL0     C 8551   8.496  -0.422   3.946 -0.3971  0.3778  0.3359
  805MOL0     C 8552   8.378  -0.516   3.904  0.0961  0.0862  0.4650
  805MOL0     C 8553   8.420  -0.571   3.758 -0.0640  0.9158 -0.9585
  805MOL0     C 8554   8.320  -0.661   3.684 -1.4523 -0.6183 -1.3282
  805MOL0     C 8555   8.334  -0.805   3.745 -0.3627  0.0771 -0.2180
  805MOL0     C 8556   8.261  -0.891   3.651  0.1198 -0.0345 -0.3034
  805MOL0     N 8557   8.291  -1.032   3.676 -0.4081 -0.2691 -0.0526
  805MOL0     C 8558   8.226  -1.127   3.753 -0.0257  0.3282 -0.3430
  805MOL0     C 8559   8.313  -1.233   3.759 -0.4105 -0.6032  0.8695
  805MOL0     C 8560   8.280  -1.355   3.826 -0.5504  0.5057 -0.3191
  805MOL0     C 8561   8.336  -1.352   3.964  0.3159  0.2065  0.3012
  805MOL0     C 8562   8.331  -1.486   4.036 -0.5084 -0.2775 -0.4854
  805MOL0     C 8563   8.186  -1.526   4.076  0.5452  0.0093  0.1059
  805MOL0     O 8564   8.114  -1.430   4.158 -0.4919 -0.5010 -0.0824
  805MOL0     C 8565   8.013  -1.450   4.249 -0.1481  0.5650 -0.2861
  805MOL0     C 8566   7.935  -1.567   4.255 -0.0239  0.0400  0.7146
  805MOL0     C 8567   7.858  -1.596   4.369 -0.5137  0.7942 -0.6720
  805MOL0     C 8568   7.785  -1.725   4.369 -0.2517  0.0099 -0.7734
  805MOL0     C 8569   7.847  -1.498   4.479 -0.4806  1.1827 -0.0032
  805MOL0     C 8570   7.753  -1.514   4.601  0.1122 -0.7018  0.5549
  805MOL0     O 8571   7.735  -1.404   4.671 -0.3905 -0.5670  0.2542
  805MOL0     C 8572   7.696  -1.408   4.801 -0.4782  0.0187 -0.1476
  805MOL0     C 8573   7.745  -1.493   4.901  0.6249 -0.4929 -0.3808
  805MOL0     C 8574   7.717  -1.464   5.033  0.4384 -0.6970 -0.6202
  805MOL0     C 8575   7.632  -1.357   5.075  0.3728 -0.5276 -0.1721
  805MOL0     O 8576   7.619  -1.328   5.210 -0.4015 -0.0555 -0.0176
  805MOL0     C 8577   7.549  -1.205   5.241 -0.8802 -0.6507  0.2791
  805MOL0     C 8578   7.657  -1.088   5.245 -0.1339  0.3333 -0.0429
  805MOL0     C 8579   7.591  -0.951   5.240 -0.4177 -0.8163 -0.3756
  805MOL0     C 8580   7.556  -0.904   5.100  0.4964  0.2888  0.6148
  805MOL0     C 8581   7.479  -0.771   5.109  0.2911 -0.2318  0.1765
  805MOL0     C 8582   7.327  -0.802   5.125  0.4295  0.1197  0.4473
  805MOL0     C 8583   7.246  -0.679   5.080  0.4939 -0.3633 -0.5971
  805MOL0     C 8584   7.106  -0.660   5.147 -0.0602  0.3860  0.0880
  805MOL0    Cl 8585   7.113  -0.596   5.312  0.0714  0.3417 -0.0467
  805MOL0     C 8586   7.588  -1.279   4.974 -0.1144 -0.7068  0.8425
  805MOL0     C 8587   7.618  -1.302   4.841  0.7448 -1.2256  0.6316
  805MOL0     O 8588   7.721  -1.627   4.632  0.5388  0.2815  0.2099
  805MOL0     C 8589   7.925  -1.385   4.471  0.2404 -0.6517  0.2020
  805MOL0     C 8590   8.004  -1.359   4.358  0.5817  0.1682  0.5133
  805MOL0     N 8591   8.424  -1.205   3.679  0.1291 -1.1082 -0.3559
  805MOL0     N 8592   8.408  -1.091   3.632 -0.8450 -0.0394 -0.2954
  805MOL0     C 8593   8.638  -0.112   4.439 -0.8782 -0.0350  0.3403
  805MOL0     C 8594   8.674   0.013   4.489 -0.0447 -0.1643  0.3261
  805MOL0     C 8595   8.906   0.374   4.634 -0.3599  0.1441 -0.1701
  805MOL0     C 8596   8.945   0.400   4.766  0.3792  0.0718  0.3486
  805MOL0     C 8597   8.971   0.534   4.802  0.0546  1.7350  0.4537
  805MOL0     C 8598   8.976   0.637   4.706 -0.8855  0.6312  0.5462
  805MOL0     O 8599   9.004   0.770   4.738 -0.4679 -0.5196 -0.1992
  805MOL0     C 8600   8.996   0.821   4.878  0.4921  0.0761  0.2761
  805MOL0     C 8601   8.853   0.817   4.932 -0.2975 -0.0444 -0.1286
  805MOL0     C 8602   8.855   0.886   5.067 -0.1881  0.1723  0.9038
  805MOL0     C 8603   8.739   0.840   5.154  0.5623 -0.4796 -0.7796
  805MOL0     C 8604   8.752   0.913   5.275  0.2004  0.2380 -0.2302
  805MOL0     C 8605   8.761   0.990   5.371  0.0651  0.0533  0.4629
  805MOL0     C 8606   8.958   0.604   4.573 -0.1064  0.0923 -0.8871
  805MOL0     C 8607   8.912   0.478   4.535 -0.3052 -0.6749  0.3940
  805MOL0     H 8608   8.892   0.119   4.265  1.0410  0.3922  2.0163
  805MOL0     H 8609   8.816  -0.086   4.147 -2.1417 -0.2169 -0.9294
  805MOL0     H 8610   8.612  -0.185   4.072  1.5310 -0.4170 -0.6260
  805MOL0     H 8611   8.679  -0.343   4.106 -1.0494  1.1530 -1.0810
  805MOL0     H 8612   8.434  -0.426   4.157  0.0934  0.3248  2.2283
  805MOL0     H 8613   8.394  -0.277   4.067  0.5168  0.5376  2.5156
  805MOL0     H 8614   8.516  -0.347   3.870  0.5547  1.6637  1.8061
  805MOL0     H 8615   8.585  -0.485   3.951 -1.3556 -0.9310  2.5091
  805MOL0     H 8616   8.364  -0.593   3.980  1.4204 -0.6196  0.0098
  805MOL0     H 8617   8.286  -0.456   3.899 -0.9809 -1.4964  0.5500
  805MOL0     H 8618   8.437  -0.484   3.694  1.4516  2.6621  1.6392
  805MOL0     H 8619   8.512  -0.630   3.766 -0.1376  0.5677 -2.4139
  805MOL0     H 8620   8.219  -0.632   3.712 -1.0325 -0.1716 -0.2219
  805MOL0     H 8621   8.351  -0.657   3.579  4.2417 -0.1509  0.0328
  805MOL0     H 8622   8.437  -0.842   3.753 -0.1205  0.6676 -0.5422
  805MOL0     H 8623   8.284  -0.817   3.842  2.1557 -0.2765  1.1278
  805MOL0     H 8624   8.308  -0.875   3.554 -2.3994 -0.9357 -1.7583
  805MOL0     H 8625   8.155  -0.867   3.639  0.5138  1.1960 -1.5894
  805MOL0     H 8626   8.126  -1.136   3.795  1.6876 -0.2670  4.0980
  805MOL0     H 8627   8.176  -1.387   3.822 -0.6958  1.0551 -1.3251
  805MOL0     H 8628   8.336  -1.435   3.777 -0.0397 -2.0715  3.9451
  805MOL0     H 8629   8.271  -1.275   4.007 -1.2311 -0.0198 -1.5101
  805MOL0     H 8630   8.442  -1.323   3.962  0.2649  0.3896  0.2125
  805MOL0     H 8631   8.393  -1.484   4.126  2.5064 -2.9964 -2.2579
  805MOL0     H 8632   8.367  -1.567   3.972  1.7306 -1.0381  1.5746
  805MOL0     H 8633   8.203  -1.609   4.145  2.0622  1.2594  1.3029
  805MOL0     H 8634   8.129  -1.549   3.985  0.6039  2.4699 -0.6210
  805MOL0     H 8635   7.947  -1.645   4.181  2.3039 -0.2817  1.3471
  805MOL0     H 8636   7.795  -1.786   4.279  1.1870 -2.7702  1.1414
  805MOL0     H 8637   7.820  -1.787   4.452 -2.3903 -0.5939 -0.2605
  805MOL0     H 8638   7.678  -1.707   4.386  0.1052  1.0992  0.4971
  805MOL0     H 8639   7.808  -1.577   4.875  1.9396  1.1205 -2.7410
  805MOL0     H 8640   7.752  -1.521   5.117 -1.3728  1.5914  1.8811
  805MOL0     H 8641   7.458  -1.186   5.183 -0.9017  2.0734  1.0699
  805MOL0     H 8642   7.504  -1.218   5.339  0.3866 -1.0255  0.8351
  805MOL0     H 8643   7.710  -1.093   5.340  0.0379  1.5107 -0.0633
  805MOL0     H 8644   7.726  -1.096   5.160 -3.0746  0.7017 -2.6699
  805MOL0     H 8645   7.662  -0.879   5.282  1.6029 -1.2618 -2.7524
  805MOL0     H 8646   7.504  -0.954   5.306  1.3098 -1.0271  2.0091
  805MOL0     H 8647   7.650  -0.890   5.046  1.1255  4.4965  2.3804
  805MOL0     H 8648   7.490  -0.974   5.047  2.0270 -0.6797 -0.0872
  805MOL0     H 8649   7.494  -0.729   5.009 -0.1236 -0.2173  0.1183
  805MOL0     H 8650   7.519  -0.702   5.184 -0.7941  1.0450 -0.3852
  805MOL0     H 8651   7.303  -0.883   5.056  2.8677  1.3597 -2.0599
  805MOL0     H 8652   7.295  -0.830   5.226 -1.1443 -1.2749 -0.3924
  805MOL0     H 8653   7.231  -0.690   4.973  0.5020  0.7934 -0.7256
  805MOL0     H 8654   7.297  -0.586   5.105  0.4550 -0.0085 -1.8094
  805MOL0     H 8655   7.055  -0.757   5.141  2.4966 -1.0573 -5.4808
  805MOL0     H 8656   7.058  -0.586   5.082  0.6266  0.9558  0.2145
  805MOL0     H 8657   7.518  -1.198   4.993  1.8501  0.7982  2.0898
  805MOL0     H 8658   7.592  -1.231   4.763  0.5849 -1.9577  0.0072
  805MOL0     H 8659   7.925  -1.313   4.552 -1.2766 -0.8822  0.4462
  805MOL0     H 8660   8.055  -1.263   4.357  3.3204 -0.9767  4.3611
  805MOL0     H 8661   8.572  -0.182   4.490 -0.1814 -0.8394  0.1662
  805MOL0     H 8662   8.621   0.037   4.581  0.3528  1.8798  0.0717
  805MOL0     H 8663   8.948   0.318   4.837 -2.1029 -1.4493 -1.1151
  805MOL0     H 8664   9.000   0.558   4.904 -0.2630  1.6378  0.5680
  805MOL0     H 8665   9.050   0.756   4.946  0.1250 -0.3240  0.1921
  805MOL0     H 8666   9.045   0.919   4.882  1.7013 -0.4461 -1.0025
  805MOL0     H 8667   8.813   0.716   4.948 -2.8507  0.7042 -1.1398
  805MOL0     H 8668   8.774   0.871   4.879 -2.4614 -1.8506  1.0789
  805MOL0     H 8669   8.846   0.994   5.054  2.2628  0.4115  0.8160
  805MOL0     H 8670   8.948   0.855   5.114  1.9706  0.9533 -2.4953
  805MOL0     H 8671   8.747   0.734   5.180 -1.3382  0.2589  3.6552
  805MOL0     H 8672   8.647   0.866   5.102  0.4717  3.5519  1.0533
  805MOL0     H 8673   8.764   1.042   5.464 -0.6316 -1.1285  1.1799
  805MOL0     H 8674   8.948   0.696   4.516 -3.8685  0.2075 -0.3223
  805MOL0     H 8675   8.891   0.449   4.433 -0.5050 -2.6851  0.9640
  806MOL0     O 8676   7.989   4.854   8.865 -0.1105  0.4417 -0.1620
  806MOL0     C 8677   8.020   4.971   8.845  0.1114 -0.5836 -0.3721
  806MOL0     O 8678   8.105   5.046   8.923  0.1361  0.8356 -0.5544
  806MOL0     C 8679   8.137   5.010   9.057 -0.5250 -0.3034  0.3600
  806MOL0     C 8680   8.264   5.039   9.115  0.3083  0.0544 -0.8665
  806MOL0     C 8681   8.290   5.032   9.250  0.0556 -0.0983  0.0686
  806MOL0     C 8682   8.191   4.983   9.332  1.5580  0.2564  0.0473
  806MOL0     O 8683   8.229   4.972   9.464 -0.3292  0.1072  0.2713
  806MOL0     C 8684   8.146   4.904   9.558  0.2747 -0.5231 -0.1220
  806MOL0     C 8685   8.082   5.002   9.663 -0.1138  0.1561 -0.4208
  806MOL0     C 8686   8.201   5.061   9.747  0.1862  0.1965 -0.4794
  806MOL0     C 8687   8.285   4.960   9.836  0.2989  0.3733  0.3145
  806MOL0     C 8688   8.359   5.025   9.948 -0.4666 -0.0299 -0.0931
  806MOL0     C 8689   8.488   5.099   9.888  0.0300  1.0325 -0.2575
  806MOL0     C 8690   8.586   5.137  10.010  0.6643 -0.6785  0.2741
  806MOL0     C 8691   8.673   5.024  10.033 -0.5037 -0.3671 -0.1488
  806MOL0     N 8692   8.797   5.056  10.101 -0.3934 -0.4083 -0.2118
  806MOL0     C 8693   8.806   5.118  10.223  0.2824 -0.1264  0.7093
  806MOL0     C 8694   8.934   5.142  10.250 -0.9121  0.6390  0.5196
  806MOL0     C 8695   9.001   5.192  10.365 -0.0781 -0.7026 -0.2355
  806MOL0     C 8696   8.931   5.141  10.491 -0.2449  0.5307 -1.1936
  806MOL0     C 8697   9.027   5.142  10.615  0.8862 -0.2308 -0.4715
  806MOL0     C 8698   9.111   5.264  10.646  0.6344 -0.6451  0.1063
  806MOL0     O 8699   9.020   5.374  10.681  0.1919  0.0088 -0.0096
  806MOL0     C 8700   8.983   5.389  10.810 -0.4498 -0.6928  0.2624
  806MOL0     C 8701   9.001   5.295  10.910  0.2940 -0.2889 -0.1835
  806MOL0     C 8702   8.948   5.299  11.040  0.0317 -0.3969  0.1257
  806MOL0     C 8703   8.967   5.181  11.133  0.2389  0.8301  0.0791
  806MOL0     C 8704   8.890   5.423  11.083  1.2955 -0.4321 -0.0213
  806MOL0     C 8705   8.854   5.465  11.220 -0.7123  0.0583  0.1192
  806MOL0     O 8706   8.851   5.605  11.231  0.2681  0.2750 -0.8509
  806MOL0     C 8707   8.830   5.656  11.357 -0.6907  0.6459 -0.0431
  806MOL0     C 8708   8.938   5.684  11.450  0.2495 -0.3374 -0.5072
  806MOL0     C 8709   8.927   5.735  11.580  1.2694 -0.3700 -0.4740
  806MOL0     C 8710   8.797   5.768  11.626 -0.2379 -0.2628 -0.3024
  806MOL0     O 8711   8.771   5.830  11.750 -0.0860 -0.2588 -0.4227
  806MOL0     C 8712   8.875   5.903  11.829 -0.0105 -0.4153 -0.1094
  806MOL0     C 8713   8.835   5.916  11.978 -0.4316 -1.0278  0.6195
  806MOL0     C 8714   8.835   5.774  12.042  0.1302 -0.9293  0.2643
  806MOL0     C 8715   8.740   5.760  12.165  1.4021 -0.2063 -0.3625
  806MOL0     C 8716   8.751   5.613  12.214 -0.0053 -0.7219  1.5844
  806MOL0     C 8717   8.621   5.562  12.280 -0.5108 -0.2563  0.0716
  806MOL0     C 8718   8.642   5.430  12.352 -0.5595 -1.0730  0.3239
  806MOL0     C 8719   8.504   5.395  12.431  0.3244 -0.4654 -0.6877
  806MOL0    Cl 8720   8.519   5.231  12.532 -0.1618 -0.2384  0.3642
  806MOL0     C 8721   8.690   5.739  11.539  0.0727 -0.3305  0.8032
  806MOL0     C 8722   8.702   5.689  11.406  0.4821 -0.5729  1.2759
  806MOL0     O 8723   8.835   5.383  11.307 -0.0106  0.3992  0.2314
  806MOL0     C 8724   8.872   5.519  10.971  0.2630  0.8637 -0.3388
  806MOL0     C 8725   8.922   5.504  10.844  0.4253 -0.2148  0.6305
  806MOL0     N 8726   9.000   5.110  10.132  0.7688 -0.6394  0.1266
  806MOL0     N 8727   8.921   5.064  10.045 -0.6741  0.3897 -1.2754
  806MOL0     C 8728   8.063   4.954   9.288  0.2890  0.5840  1.1497
  806MOL0     C 8729   8.031   4.972   9.152  0.4129 -0.5920  1.0423
  806MOL0     C 8730   8.003   5.031   8.707 -0.1966  0.7289 -0.2852
  806MOL0     C 8731   8.043   5.155   8.680 -0.4472  1.0080  0.2632
  806MOL0     C 8732   8.017   5.213   8.560  0.7994 -0.1370  0.6740
  806MOL0     C 8733   7.952   5.144   8.452 -0.8417  0.7526 -0.8172
  806MOL0     O 8734   7.942   5.201   8.327  0.0150 -0.5250 -0.3889
  806MOL0     C 8735   7.901   5.341   8.316  0.9055  0.0882 -0.9769
  806MOL0     C 8736   7.804   5.365   8.199  0.2232 -0.7246  0.4358
  806MOL0     C 8737   7.666   5.312   8.235  0.0148  0.2412 -0.3299
  806MOL0     C 8738   7.554   5.395   8.173 -0.2773  0.4644  0.1657
  806MOL0     C 8739   7.570   5.420   8.028 -0.0634  0.7176  1.6725
  806MOL0     C 8740   7.584   5.423   7.908  0.4838 -0.2903  0.2501
  806MOL0     C 8741   7.923   5.010   8.475 -0.4564  0.3159  0.2413
  806MOL0     C 8742   7.941   4.954   8.605  0.4269  0.4924  0.3347
  806MOL0     H 8743   8.348   5.075   9.056  1.1292  0.3985  0.4576
  806MOL0     H 8744   8.384   5.061   9.295 -0.6625  0.4349  1.2825
  806MOL0     H 8745   8.063   4.851   9.511 -1.1825  2.1267 -0.6693
  806MOL0     H 8746   8.204   4.837   9.624  2.0558 -0.1346 -1.2190
  806MOL0     H 8747   8.026   5.077   9.608  2.5972  0.5307 -2.8945
  806MOL0     H 8748   8.013   4.946   9.728 -1.3491 -2.2392 -3.5098
  806MOL0     H 8749   8.270   5.108   9.676  2.4838 -0.2517  1.3397
  806MOL0     H 8750   8.151   5.138   9.808  0.2758  1.2354 -1.6685
  806MOL0     H 8751   8.219   4.886   9.882 -0.9381  0.4000 -1.3651
  806MOL0     H 8752   8.352   4.902   9.772 -1.6025 -2.4457  0.6557
  806MOL0     H 8753   8.297   5.086  10.014 -3.3627  0.7180 -3.2001
  806MOL0     H 8754   8.391   4.935  10.001  1.8797 -1.5650 -3.7022
  806MOL0     H 8755   8.536   5.047   9.805  0.6876  1.1278  0.0620
  806MOL0     H 8756   8.453   5.193   9.843  3.0573  1.5180 -1.8508
  806MOL0     H 8757   8.644   5.220   9.970 -0.8949  2.5782  4.1176
  806MOL0     H 8758   8.519   5.168  10.091 -2.1305  2.1640 -2.8289
  806MOL0     H 8759   8.710   4.975   9.943 -0.0989 -0.8287  0.2591
  806MOL0     H 8760   8.616   4.944  10.082 -0.6095 -2.1838 -3.0364
  806MOL0     H 8761   8.715   5.145  10.276 -0.6603  1.1315 -1.3801
  806MOL0     H 8762   9.103   5.154  10.378 -0.1178 -1.2928 -1.4976
  806MOL0     H 8763   9.015   5.300  10.373  0.5275 -0.8587  1.1075
  806MOL0     H 8764   8.897   5.037  10.490  3.3786 -0.9614  2.3129
  806MOL0     H 8765   8.844   5.205  10.507 -1.5656 -1.5638  0.5524
  806MOL0     H 8766   9.097   5.058  10.619 -1.6475 -2.4335  1.2545
  806MOL0     H 8767   8.964   5.136  10.704  0.9263 -0.8106 -0.4808
  806MOL0     H 8768   9.189   5.284  10.572 -0.7254 -0.1719 -1.2714
  806MOL0     H 8769   9.174   5.244  10.732  0.4363 -0.7418  0.2298
  806MOL0     H 8770   9.041   5.198  10.878 -2.4172 -0.7689 -2.4774
  806MOL0     H 8771   9.038   5.209  11.211  2.6477 -2.2191 -0.8354
  806MOL0     H 8772   8.880   5.141  11.185  0.5498  1.8117  1.4255
  806MOL0     H 8773   9.023   5.107  11.075 -0.8218 -0.8221  1.0727
  806MOL0     H 8774   9.041   5.673  11.416  0.7313  1.9912  0.0483
  806MOL0     H 8775   9.020   5.759  11.630  0.6930  1.7403 -0.2967
  806MOL0     H 8776   8.979   5.869  11.830 -0.2986 -1.3867  2.2903
  806MOL0     H 8777   8.871   6.007  11.795  1.8166 -0.4663 -0.5788
  806MOL0     H 8778   8.902   5.976  12.040 -0.9602 -1.6185  1.8142
  806MOL0     H 8779   8.740   5.969  11.978  0.9820  1.6782  1.6014
  806MOL0     H 8780   8.939   5.758  12.071  0.0920 -0.2487  0.8029
  806MOL0     H 8781   8.808   5.700  11.965  3.3409 -3.0730  0.9976
  806MOL0     H 8782   8.776   5.825  12.246  3.2106 -0.1891 -1.1483
  806MOL0     H 8783   8.641   5.785  12.127  1.3903 -1.3773 -1.1633
  806MOL0     H 8784   8.841   5.600  12.275 -0.3857  1.9896  2.8935
  806MOL0     H 8785   8.769   5.547  12.129  1.1379  0.4508  0.8813
  806MOL0     H 8786   8.592   5.636  12.355  4.1718  1.1371  0.8462
  806MOL0     H 8787   8.552   5.552  12.196 -2.0436  0.9508  1.1333
  806MOL0     H 8788   8.733   5.436  12.411  0.7958  2.1435 -1.8256
  806MOL0     H 8789   8.668   5.345  12.289 -0.0312 -2.6717  2.5657
  806MOL0     H 8790   8.421   5.367  12.364  0.9987 -0.5195 -1.5116
  806MOL0     H 8791   8.470   5.480  12.491  0.2865 -0.8678 -0.1307
  806MOL0     H 8792   8.592   5.771  11.574 -0.3926 -0.7666 -0.0640
  806MOL0     H 8793   8.611   5.672  11.349 -1.2519 -0.0395  3.7209
  806MOL0     H 8794   8.819   5.613  10.988 -2.5653 -0.7928  0.8244
  806MOL0     H 8795   8.930   5.587  10.774  0.9543 -0.9963 -0.2715
  806MOL0     H 8796   7.978   4.917   9.344 -1.3954  1.6271 -0.5415
  806MOL0     H 8797   7.929   4.955   9.121  0.4250 -1.6606  1.5272
  806MOL0     H 8798   8.096   5.212   8.755  2.9429 -2.3654  0.7715
  806MOL0     H 8799   8.040   5.318   8.546 -1.6669  0.2939 -0.7226
  806MOL0     H 8800   7.860   5.364   8.415  1.5490 -0.2647 -0.6212
  806MOL0     H 8801   7.985   5.409   8.303  1.3370 -0.0833  0.7615
  806MOL0     H 8802   7.846   5.321   8.108  0.3806 -1.1761  0.7225
  806MOL0     H 8803   7.801   5.473   8.179 -3.2119 -0.8227 -0.2103
  806MOL0     H 8804   7.650   5.312   8.343 -1.9017  1.0712 -0.5796
  806MOL0     H 8805   7.659   5.207   8.202  0.2031  0.4314 -0.9999
  806MOL0     H 8806   7.559   5.482   8.239  1.6137  1.6846 -1.4838
  806MOL0     H 8807   7.454   5.350   8.177  0.1187 -0.4295  0.4638
  806MOL0     H 8808   7.588   5.435   7.802 -3.8065  1.5254  0.0931
  806MOL0     H 8809   7.864   4.959   8.399 -0.7130  0.2774  0.4616
  806MOL0     H 8810   7.896   4.860   8.633 -0.6177  1.3328  1.5837
  807MOL0     O 8811   2.991   8.386   0.520  0.9970 -1.1375  0.6828
  807MOL0     C 8812   3.067   8.481   0.506 -0.6122  0.5854 -0.3477
  807MOL0     O 8813   3.194   8.469   0.463 -0.8568  0.0766 -0.6936
  807MOL0     C 8814   3.224   8.361   0.379 -0.9769 -0.0898  0.1027
  807MOL0     C 8815   3.257   8.396   0.243 -0.1567 -0.7392 -0.1592
  807MOL0     C 8816   3.288   8.289   0.156  0.3109 -0.0232  0.6561
  807MOL0     C 8817   3.291   8.155   0.199  0.1940  0.0480  0.4567
  807MOL0     O 8818   3.323   8.070   0.102  0.1980 -0.3503  0.5723
  807MOL0     C 8819   3.358   7.938   0.131 -0.0913  0.2927 -0.0608
  807MOL0     C 8820   3.382   7.861  -0.005  0.2753  0.9686  0.2867
  807MOL0     C 8821   3.281   7.888  -0.114  0.5213  0.2652 -0.1987
  807MOL0     C 8822   3.157   7.797  -0.108  0.2943  0.1867 -0.5565
  807MOL0     C 8823   3.040   7.839  -0.199 -0.0756  0.2580 -0.2543
  807MOL0     C 8824   3.074   7.765  -0.328 -0.1612 -0.3540  0.7341
  807MOL0     C 8825   2.950   7.773  -0.428 -0.1029  0.8363  0.7962
  807MOL0     C 8826   2.943   7.654  -0.525  0.3496 -0.0123  0.2272
  807MOL0     N 8827   3.039   7.674  -0.631 -0.2357  0.2475 -0.4078
  807MOL0     C 8828   3.027   7.769  -0.731 -0.3090  0.7313 -0.4952
  807MOL0     C 8829   3.134   7.726  -0.814  0.2639 -0.8422  0.2125
  807MOL0     C 8830   3.181   7.803  -0.938  0.3520 -0.4430 -0.0799
  807MOL0     C 8831   3.200   7.706  -1.053 -0.4769 -0.4507 -0.0308
  807MOL0     C 8832   3.242   7.785  -1.175  0.2001 -0.1682  0.4280
  807MOL0     C 8833   3.222   7.699  -1.296  0.2939  1.3174 -0.4447
  807MOL0     O 8834   3.089   7.693  -1.330  0.6502  0.9455  0.2836
  807MOL0     C 8835   3.044   7.587  -1.411 -0.2451 -0.4938  0.3672
  807MOL0     C 8836   2.910   7.562  -1.428  0.4736 -0.0372 -0.2448
  807MOL0     C 8837   2.853   7.472  -1.528 -0.7178  0.3170 -0.7781
  807MOL0     C 8838   2.704   7.481  -1.538  0.7284  0.7484  0.0814
  807MOL0     C 8839   2.944   7.381  -1.598  0.1852 -0.2482 -0.0207
  807MOL0     C 8840   2.899   7.271  -1.677 -0.6358 -0.0645 -1.1840
  807MOL0     O 8841   2.986   7.207  -1.753  0.2214  0.5190 -0.7252
  807MOL0     C 8842   2.961   7.098  -1.834  0.0636  0.1788  0.2154
  807MOL0     C 8843   3.084   7.047  -1.884 -0.2368 -0.6355 -0.6626
  807MOL0     C 8844   3.083   6.939  -1.970  0.4523  0.5097 -0.0038
  807MOL0     C 8845   2.955   6.885  -2.010  0.0983 -0.4052  1.0273
  807MOL0     O 8846   2.971   6.757  -2.074  0.2620 -0.1948 -0.4642
  807MOL0     C 8847   2.924   6.644  -2.008  0.8673  0.5145  0.4683
  807MOL0     C 8848   3.048   6.569  -1.963  0.2563  0.2522  0.4086
  807MOL0     C 8849   3.135   6.530  -2.086 -0.1322 -0.3390  0.1299
  807MOL0     C 8850   3.257   6.445  -2.040 -0.6313  0.3124 -0.3046
  807MOL0     C 8851   3.208   6.301  -2.061  0.8744  0.6438  0.2842
  807MOL0     C 8852   3.317   6.198  -2.028  0.5443  0.2163 -0.4202
  807MOL0     C 8853   3.259   6.058  -2.027  0.6881 -1.0233 -1.1239
  807MOL0     C 8854   3.347   5.954  -2.103  0.2728 -0.5572  0.0470
  807MOL0    Cl 8855   3.248   5.818  -2.131  0.1612 -0.5009  0.0106
  807MOL0     C 8856   2.834   6.942  -1.975  0.2342 -0.2553 -0.7359
  807MOL0     C 8857   2.835   7.045  -1.876  0.7229 -0.0190 -0.3114
  807MOL0     O 8858   2.789   7.234  -1.654  0.0025 -0.2654 -0.1157
  807MOL0     C 8859   3.082   7.409  -1.581 -0.3706 -0.5824 -0.4158
  807MOL0     C 8860   3.129   7.514  -1.505  0.1637  0.0758  0.2792
  807MOL0     N 8861   3.207   7.618  -0.759 -0.3219 -0.1924  0.9212
  807MOL0     N 8862   3.149   7.592  -0.647  0.2952  0.8732  0.4120
  807MOL0     C 8863   3.270   8.123   0.336  0.0917 -0.3441  0.3417
  807MOL0     C 8864   3.225   8.228   0.419 -0.0841  0.7471  0.2800
  807MOL0     C 8865   3.023   8.614   0.571 -0.5638 -0.0666 -0.5866
  807MOL0     C 8866   2.899   8.643   0.627 -0.3687  0.8920  0.7237
  807MOL0     C 8867   2.867   8.777   0.664 -0.4610  0.1284 -0.6592
  807MOL0     C 8868   2.967   8.880   0.666 -0.3935  0.4731  0.5602
  807MOL0     O 8869   2.963   9.000   0.718  0.2136  0.9430 -0.2856
  807MOL0     C 8870   2.844   9.074   0.710 -0.0950 -0.2226  0.0527
  807MOL0     C 8871   2.879   9.222   0.680 -1.1214 -0.2512 -0.3962
  807MOL0     C 8872   2.764   9.293   0.615  1.1818  0.4755 -0.8119
  807MOL0     C 8873   2.764   9.262   0.465  0.0281 -0.1913  0.1360
  807MOL0     C 8874   2.658   9.332   0.389 -0.3786  0.8654 -0.6681
  807MOL0     C 8875   2.562   9.386   0.333 -0.2468 -0.7419 -0.5543
  807MOL0     C 8876   3.091   8.845   0.615  0.5738 -0.5732 -0.0381
  807MOL0     C 8877   3.118   8.721   0.575 -0.1242  0.5465 -0.1711
  807MOL0     H 8878   3.241   8.496   0.204  0.2664  0.7807  3.1481
  807MOL0     H 8879   3.312   8.313   0.053 -1.2931 -1.8204 -0.1880
  807MOL0     H 8880   3.452   7.940   0.187 -1.2652 -0.1461  2.0279
  807MOL0     H 8881   3.277   7.897   0.193 -2.5258  3.4889 -0.8595
  807MOL0     H 8882   3.483   7.887  -0.040  0.4745 -1.3066 -1.0599
  807MOL0     H 8883   3.392   7.756   0.023 -0.4898  0.7848 -0.1119
  807MOL0     H 8884   3.240   7.988  -0.106 -0.3920  0.0235 -1.5124
  807MOL0     H 8885   3.320   7.895  -0.216  1.3744 -1.2045 -0.0134
  807MOL0     H 8886   3.193   7.694  -0.122  0.6355 -0.1205  2.0344
  807MOL0     H 8887   3.127   7.798  -0.003 -1.2880 -1.4249 -0.9457
  807MOL0     H 8888   2.948   7.797  -0.157 -0.7727  0.0548 -1.9021
  807MOL0     H 8889   3.023   7.947  -0.212 -1.2144  0.0194 -0.8969
  807MOL0     H 8890   3.160   7.803  -0.383  0.3654  1.2339  2.5255
  807MOL0     H 8891   3.085   7.658  -0.309 -3.9360 -1.1034 -0.4864
  807MOL0     H 8892   2.855   7.754  -0.377 -2.0460  2.0540 -2.1183
  807MOL0     H 8893   2.927   7.869  -0.475 -1.5822 -0.2952 -0.9414
  807MOL0     H 8894   2.841   7.655  -0.565  0.6576  2.4490 -0.6624
  807MOL0     H 8895   2.959   7.562  -0.469  0.0790  0.0181  0.3543
  807MOL0     H 8896   2.958   7.853  -0.743 -1.4389 -0.3626 -1.9726
  807MOL0     H 8897   3.090   7.863  -0.947 -1.2535 -2.0843  3.3567
  807MOL0     H 8898   3.273   7.859  -0.918 -0.0401  0.6660 -1.2301
  807MOL0     H 8899   3.112   7.652  -1.087 -1.8258  0.4084  1.9292
  807MOL0     H 8900   3.274   7.631  -1.025 -2.2683 -1.6617  1.6596
  807MOL0     H 8901   3.343   7.820  -1.153 -0.7021  2.7572  0.4324
  807MOL0     H 8902   3.186   7.879  -1.176 -0.2707 -0.4469 -0.5737
  807MOL0     H 8903   3.267   7.599  -1.291 -2.9484 -0.2473  0.3114
  807MOL0     H 8904   3.278   7.736  -1.382 -0.7210  4.7167  0.2359
  807MOL0     H 8905   2.847   7.627  -1.369  0.2975  0.9126 -1.4450
  807MOL0     H 8906   2.661   7.408  -1.469 -0.3846 -0.5747 -1.9254
  807MOL0     H 8907   2.661   7.580  -1.517 -1.0009 -0.7123  4.4811
  807MOL0     H 8908   2.663   7.458  -1.637  2.1035  2.1665 -0.8691
  807MOL0     H 8909   3.177   7.091  -1.850 -1.6371  2.5667 -0.6419
  807MOL0     H 8910   3.179   6.901  -2.002  0.4145  2.2864 -2.5456
  807MOL0     H 8911   2.849   6.679  -1.937  1.7496  0.7893  1.2892
  807MOL0     H 8912   2.868   6.581  -2.077 -0.6549  2.6430 -0.3389
  807MOL0     H 8913   3.105   6.632  -1.895 -1.2639  0.0275  1.9475
  807MOL0     H 8914   3.021   6.477  -1.910  1.9252 -1.8309 -2.0798
  807MOL0     H 8915   3.172   6.617  -2.142 -0.9797 -0.0641 -0.0141
  807MOL0     H 8916   3.074   6.478  -2.160  2.1603 -0.0836 -2.0809
  807MOL0     H 8917   3.353   6.460  -2.090 -0.2137  0.6692  0.5831
  807MOL0     H 8918   3.281   6.470  -1.936  0.2900  2.3596 -0.9468
  807MOL0     H 8919   3.170   6.297  -2.163 -3.0111  0.9198  1.5469
  807MOL0     H 8920   3.126   6.291  -1.989  2.3459 -1.0597  1.8297
  807MOL0     H 8921   3.405   6.217  -2.091 -0.6772  2.3201 -1.6075
  807MOL0     H 8922   3.355   6.230  -1.930 -0.9584  0.3910  0.1323
  807MOL0     H 8923   3.160   6.059  -2.074 -1.3054  3.2486  2.4110
  807MOL0     H 8924   3.250   6.024  -1.923 -0.4153  0.9208 -0.5280
  807MOL0     H 8925   3.439   5.943  -2.045  0.7518 -1.7809 -0.8966
  807MOL0     H 8926   3.375   6.005  -2.195  3.4950 -3.3844 -0.7594
  807MOL0     H 8927   2.745   6.881  -1.985 -0.8808  1.1113  0.4489
  807MOL0     H 8928   2.738   7.077  -1.840 -0.0370 -0.3884 -1.9561
  807MOL0     H 8929   3.153   7.357  -1.644  2.4152  1.6753  0.6324
  807MOL0     H 8930   3.236   7.531  -1.501  0.2746 -0.2773 -0.8587
  807MOL0     H 8931   3.271   8.021   0.373 -3.1263 -1.3408 -1.8688
  807MOL0     H 8932   3.186   8.189   0.512  1.7269 -2.4636 -0.1640
  807MOL0     H 8933   2.826   8.562   0.625 -0.9231  1.3031 -2.9038
  807MOL0     H 8934   2.775   8.794   0.719  0.1436 -3.0503  1.6443
  807MOL0     H 8935   2.777   9.021   0.643  0.8060 -3.1091  1.2802
  807MOL0     H 8936   2.790   9.085   0.804 -0.0554 -3.5746  0.5654
  807MOL0     H 8937   2.965   9.224   0.612 -0.6918 -0.8666  0.1304
  807MOL0     H 8938   2.907   9.268   0.775  0.2848 -0.2374 -0.7943
  807MOL0     H 8939   2.767   9.401   0.633  3.3382  0.4606 -0.7059
  807MOL0     H 8940   2.672   9.256   0.660  1.2704  1.6505  0.4183
  807MOL0     H 8941   2.754   9.153   0.454  2.0889 -0.3138 -1.1698
  807MOL0     H 8942   2.861   9.287   0.422 -0.1221  2.0253  0.9660
  807MOL0     H 8943   2.473   9.445   0.328  0.0828  0.1815  2.2133
  807MOL0     H 8944   3.170   8.919   0.605 -0.6317  0.8770  0.9075
  807MOL0     H 8945   3.222   8.695   0.560  0.3213  2.8617 -1.5139
  808MOL0     O 8946   5.598  10.766   1.101 -0.3634  0.0139 -0.1513
  808MOL0     C 8947   5.535  10.702   1.017 -0.2191 -0.3844 -0.5831
  808MOL0     O 8948   5.578  10.641   0.906 -1.0619  0.0906  0.3059
  808MOL0     C 8949   5.711  10.650   0.883 -0.6591 -0.4476 -0.6719
  808MOL0     C 8950   5.804  10.576   0.949  0.3096 -0.0092 -0.5492
  808MOL0     C 8951   5.934  10.554   0.892  0.8197  0.3462 -1.3500
  808MOL0     C 8952   5.975  10.626   0.779  0.3405 -0.5413 -0.2493
  808MOL0     O 8953   6.104  10.627   0.726 -0.1667 -0.2971  0.9849
  808MOL0     C 8954   6.216  10.570   0.799  0.8435 -0.3503  1.1714
  808MOL0     C 8955   6.316  10.688   0.805  0.2370  0.8787 -0.5822
  808MOL0     C 8956   6.449  10.640   0.862 -0.6370  0.0346 -0.0888
  808MOL0     C 8957   6.554  10.758   0.853 -0.2769  0.4721  0.0589
  808MOL0     C 8958   6.695  10.724   0.909 -0.4533 -0.2642 -0.4690
  808MOL0     C 8959   6.697  10.696   1.063 -0.3210 -0.0608  0.5634
  808MOL0     C 8960   6.822  10.635   1.115 -0.9298  0.4983  0.0065
  808MOL0     C 8961   6.800  10.634   1.264 -0.4367  0.1935 -0.2513
  808MOL0     N 8962   6.912  10.568   1.329 -0.1712  0.1866 -0.0721
  808MOL0     C 8963   6.919  10.435   1.329  0.7994 -0.0075 -0.3053
  808MOL0     C 8964   7.017  10.410   1.420 -0.5195  0.3903  0.4933
  808MOL0     C 8965   7.058  10.279   1.478 -0.1402 -0.1589 -0.5770
  808MOL0     C 8966   7.086  10.176   1.377  0.6261  0.0687 -0.0535
  808MOL0     C 8967   7.222  10.188   1.309  0.3981  0.1450  0.3410
  808MOL0     C 8968   7.229  10.126   1.162 -1.1300  0.7227 -0.1439
  808MOL0     O 8969   7.190  10.226   1.066  0.2148 -0.0598 -0.3584
  808MOL0     C 8970   7.294  10.322   1.050  0.0883  0.0430  0.1364
  808MOL0     C 8971   7.407  10.286   0.973  0.5000 -0.5002  0.5017
  808MOL0     C 8972   7.508  10.375   0.942  0.0751 -0.2372  0.6087
  808MOL0     C 8973   7.629  10.343   0.855 -0.4692  0.2164 -0.0950
  808MOL0     C 8974   7.495  10.506   0.996 -0.9079 -0.4484 -0.0827
  808MOL0     C 8975   7.597  10.606   0.961  0.1567 -0.5227  0.1398
  808MOL0     O 8976   7.733  10.577   0.948  0.7021  0.3626  0.7379
  808MOL0     C 8977   7.818  10.664   0.896  0.0643  1.0676 -1.1567
  808MOL0     C 8978   7.783  10.753   0.790 -0.7523  0.1288 -0.6582
  808MOL0     C 8979   7.881  10.827   0.723 -0.5317 -0.8615  0.3684
  808MOL0     C 8980   8.020  10.801   0.744  0.2712  0.4459  0.2025
  808MOL0     O 8981   8.110  10.876   0.685 -0.8811  0.4356  0.6174
  808MOL0     C 8982   8.082  10.996   0.613  0.3491 -0.6766 -0.3865
  808MOL0     C 8983   8.218  11.068   0.603  0.7866  1.1330  0.0621
  808MOL0     C 8984   8.219  11.183   0.706 -0.2703  0.4102 -0.4387
  808MOL0     C 8985   8.356  11.253   0.716  0.0578  0.1404  0.4698
  808MOL0     C 8986   8.457  11.169   0.799 -0.5472  0.5418  0.5554
  808MOL0     C 8987   8.540  11.261   0.883 -0.1298 -0.1185 -0.1866
  808MOL0     C 8988   8.616  11.165   0.985  0.5772  0.1457 -0.0353
  808MOL0     C 8989   8.722  11.073   0.928  0.9074 -0.8063 -1.4021
  808MOL0    Cl 8990   8.866  11.155   0.894  0.3103  0.4875  0.0934
  808MOL0     C 8991   8.053  10.702   0.843  0.5270 -0.7019  0.4219
  808MOL0     C 8992   7.952  10.632   0.918 -0.4942 -0.5181  0.7205
  808MOL0     O 8993   7.537  10.719   0.953 -0.9470  0.2077 -0.0382
  808MOL0     C 8994   7.381  10.539   1.070 -0.2834  1.2639 -0.7429
  808MOL0     C 8995   7.281  10.447   1.098 -0.2755 -0.8916 -0.1673
  808MOL0     N 8996   7.064  10.537   1.463 -0.6200  0.2145  0.6190
  808MOL0     N 8997   7.009  10.631   1.399  0.5629 -0.1147 -0.3312
  808MOL0     C 8998   5.882  10.712   0.724  0.2390  0.7173  0.4488
  808MOL0     C 8999   5.752  10.723   0.775  0.3829 -0.6708 -0.0356
  808MOL0     C 9000   5.391  10.697   1.038  0.5072  0.6540 -0.5498
  808MOL0     C 9001   5.312  10.618   0.945  0.6365 -0.4430  0.2046
  808MOL0     C 9002   5.174  10.639   0.941 -0.5389  0.3422  0.9310
  808MOL0     C 9003   5.110  10.717   1.042  0.0025  0.1339 -0.5564
  808MOL0     O 9004   4.976  10.734   1.067  0.2116  0.5178 -0.9821
  808MOL0     C 9005   4.883  10.669   0.983 -1.0540  0.4778 -0.0541
  808MOL0     C 9006   4.834  10.740   0.860 -0.4172 -0.2544 -0.0763
  808MOL0     C 9007   4.775  10.887   0.883  0.2178 -0.6669 -0.5702
  808MOL0     C 9008   4.746  10.942   0.748 -0.6509  0.6082 -0.5657
  808MOL0     C 9009   4.702  11.078   0.732  0.1193 -0.1056 -0.5192
  808MOL0     C 9010   4.664  11.192   0.711  0.8934 -1.0577 -0.2687
  808MOL0     C 9011   5.185  10.773   1.136  1.3011 -0.6607 -0.7232
  808MOL0     C 9012   5.327  10.760   1.141  0.6716  0.5041  0.9591
  808MOL0     H 9013   5.767  10.518   1.033 -4.8066  1.0682 -1.7333
  808MOL0     H 9014   6.002  10.489   0.946 -1.3364  1.8025  3.7241
  808MOL0     H 9015   6.192  10.525   0.896  0.5561 -1.4341  0.6206
  808MOL0     H 9016   6.238  10.487   0.732 -0.2897  1.9614 -2.3093
  808MOL0     H 9017   6.325  10.729   0.704 -1.2838  0.1616 -1.0457
  808MOL0     H 9018   6.292  10.766   0.878 -1.5124  1.1565 -1.4072
  808MOL0     H 9019   6.455  10.616   0.968 -0.4841 -0.9313 -0.3040
  808MOL0     H 9020   6.468  10.547   0.807 -1.5350  0.2646 -0.8082
  808MOL0     H 9021   6.564  10.769   0.744 -0.1819  2.5137  0.2361
  808MOL0     H 9022   6.514  10.850   0.896 -0.8455 -0.1696  0.9348
  808MOL0     H 9023   6.728  10.639   0.848 -0.2897 -0.3838 -0.2170
  808MOL0     H 9024   6.767  10.800   0.877 -0.2875 -1.1703 -2.4296
  808MOL0     H 9025   6.679  10.795   1.106 -2.0657  0.1460 -0.5050
  808MOL0     H 9026   6.616  10.626   1.087  2.4294 -3.8455 -0.3032
  808MOL0     H 9027   6.840  10.536   1.072 -3.2233 -0.1056  0.2842
  808MOL0     H 9028   6.893  10.711   1.081  2.5659 -3.6459 -2.9951
  808MOL0     H 9029   6.706  10.601   1.311  0.9842 -1.6202  1.5474
  808MOL0     H 9030   6.814  10.736   1.301 -2.2135 -0.1754  1.5998
  808MOL0     H 9031   6.843  10.361   1.304  3.1484 -2.5025 -0.5746
  808MOL0     H 9032   7.154  10.298   1.527  1.7244  0.7612 -4.2316
  808MOL0     H 9033   6.979  10.254   1.550 -0.0409 -2.4863 -1.2201
  808MOL0     H 9034   7.001  10.188   1.310 -1.0414 -2.7598  1.3746
  808MOL0     H 9035   7.072  10.075   1.416 -1.5137 -0.0861 -1.0923
  808MOL0     H 9036   7.296  10.136   1.371 -0.6575  0.7396  2.1659
  808MOL0     H 9037   7.240  10.296   1.316  0.1972  0.1622  0.6170
  808MOL0     H 9038   7.157  10.045   1.148  1.5301 -1.3577 -3.2519
  808MOL0     H 9039   7.327  10.081   1.146 -1.6979 -0.9139  0.7393
  808MOL0     H 9040   7.408  10.182   0.942 -1.3569 -0.8582  1.5087
  808MOL0     H 9041   7.631  10.238   0.823 -3.3336  0.0515 -0.0141
  808MOL0     H 9042   7.643  10.407   0.768 -1.2275 -1.8663 -1.8616
  808MOL0     H 9043   7.717  10.343   0.920 -1.0782  2.3154  0.7988
  808MOL0     H 9044   7.681  10.782   0.766  0.0388  2.8646 -1.0588
  808MOL0     H 9045   7.858  10.905   0.651 -2.1416  0.8621  2.6027
  808MOL0     H 9046   8.048  10.981   0.510 -0.5905  0.2991 -0.2365
  808MOL0     H 9047   8.010  11.062   0.662  0.0214  0.2031 -1.9611
  808MOL0     H 9048   8.291  10.992   0.632 -1.3211 -0.6169  1.1653
  808MOL0     H 9049   8.249  11.093   0.502 -2.7526  0.8354 -1.2561
  808MOL0     H 9050   8.208  11.141   0.806  0.5578  1.8881  0.3103
  808MOL0     H 9051   8.138  11.253   0.681 -0.4351  0.5059  0.3431
  808MOL0     H 9052   8.390  11.260   0.612 -2.6787 -2.2992 -0.7441
  808MOL0     H 9053   8.340  11.353   0.756  1.2952 -0.0917  1.6142
  808MOL0     H 9054   8.519  11.105   0.736 -0.1838 -0.1473  1.6025
  808MOL0     H 9055   8.409  11.093   0.862  1.7383 -1.5004 -0.0173
  808MOL0     H 9056   8.611  11.309   0.815  0.4057 -0.8181 -0.1354
  808MOL0     H 9057   8.482  11.337   0.937  3.9260  3.4828 -0.3036
  808MOL0     H 9058   8.549  11.099   1.042 -0.4192  1.7227  0.6905
  808MOL0     H 9059   8.662  11.233   1.058 -1.4943  1.3780  0.1956
  808MOL0     H 9060   8.687  11.012   0.845 -0.8618  0.2721 -1.5018
  808MOL0     H 9061   8.747  11.008   1.012 -1.6441  1.7971  1.6301
  808MOL0     H 9062   8.157  10.676   0.861 -0.5045 -3.9396  2.6448
  808MOL0     H 9063   7.982  10.544   0.975  1.7468 -1.5183 -1.7807
  808MOL0     H 9064   7.363  10.643   1.094 -1.8919  1.2881 -1.9296
  808MOL0     H 9065   7.190  10.477   1.150 -0.0048 -2.0346  1.0211
  808MOL0     H 9066   5.919  10.783   0.651  1.0422 -0.2565 -0.1253
  808MOL0     H 9067   5.679  10.793   0.735 -0.8792 -1.3357  1.0082
  808MOL0     H 9068   5.359  10.557   0.869 -1.1688 -3.6095  1.4138
  808MOL0     H 9069   5.124  10.593   0.857  0.8886 -0.4292  0.4730
  808MOL0     H 9070   4.926  10.570   0.969  1.9476  1.5921  0.5596
  808MOL0     H 9071   4.796  10.646   1.046  2.9882 -2.9976  5.1443
  808MOL0     H 9072   4.752  10.680   0.819 -0.4016 -0.3825  0.0796
  808MOL0     H 9073   4.907  10.755   0.780 -1.4703  1.0511 -0.8395
  808MOL0     H 9074   4.843  10.955   0.935 -0.4512 -1.4938  1.5019
  808MOL0     H 9075   4.687  10.890   0.948 -1.6052  3.6415 -2.8184
  808MOL0     H 9076   4.666  10.874   0.718 -0.5298  0.8992 -1.6136
  808MOL0     H 9077   4.833  10.932   0.682 -1.2853  2.2981 -1.7467
  808MOL0     H 9078   4.619  11.285   0.685  2.1941 -0.6640 -1.2163
  808MOL0     H 9079   5.146  10.829   1.221 -1.2195  0.6718 -2.6400
  808MOL0     H 9080   5.390  10.815   1.210 -1.4800  1.7382  2.0458
  809MOL0     O 9081   2.300   3.790   2.058  0.3708 -0.2155 -0.9198
  809MOL0     C 9082   2.198   3.725   2.068 -0.0434 -0.0783 -0.4975
  809MOL0     O 9083   2.110   3.706   1.960  0.3067  0.1943 -0.3772
  809MOL0     C 9084   2.143   3.748   1.833  0.1980 -0.7073 -0.4975
  809MOL0     C 9085   2.208   3.662   1.749 -0.0723  0.3050  0.1330
  809MOL0     C 9086   2.238   3.689   1.616 -0.2041 -0.7257 -1.1773
  809MOL0     C 9087   2.191   3.818   1.564  0.4672 -0.0133 -0.5431
  809MOL0     O 9088   2.209   3.861   1.432 -0.7485 -0.4780  0.0016
  809MOL0     C 9089   2.310   3.787   1.359 -0.2484 -0.0022  0.0644
  809MOL0     C 9090   2.322   3.838   1.217  0.3474  0.5910 -0.8783
  809MOL0     C 9091   2.204   3.813   1.132  0.2599  0.0217  0.9030
  809MOL0     C 9092   2.198   3.935   1.025  0.4846  0.9028  0.3771
  809MOL0     C 9093   2.074   3.928   0.938 -0.9735  1.0079 -0.1567
  809MOL0     C 9094   2.047   4.063   0.877  0.0533  0.0066  0.1734
  809MOL0     C 9095   1.923   4.084   0.800 -0.3907 -0.5029 -0.0619
  809MOL0     C 9096   1.890   4.227   0.761  0.2130 -0.4179 -0.5098
  809MOL0     N 9097   2.010   4.276   0.686 -0.4086  0.1061 -0.3848
  809MOL0     C 9098   2.053   4.222   0.564 -0.6001 -0.1223  0.3143
  809MOL0     C 9099   2.157   4.300   0.522  1.0051 -0.1820  0.0784
  809MOL0     C 9100   2.227   4.276   0.388 -0.1125  0.0371 -0.2063
  809MOL0     C 9101   2.349   4.186   0.405 -0.9154  0.2945 -0.9287
  809MOL0     C 9102   2.409   4.169   0.267  0.2336 -0.2607  0.0672
  809MOL0     C 9103   2.548   4.100   0.267 -0.1252  0.9321 -0.1405
  809MOL0     O 9104   2.550   3.963   0.327  0.0222  0.3277 -0.3767
  809MOL0     C 9105   2.666   3.889   0.342  0.3575  0.5668 -0.0284
  809MOL0     C 9106   2.658   3.756   0.390  0.2157 -1.0715 -0.2530
  809MOL0     C 9107   2.772   3.677   0.401  0.1124  0.4182  0.2596
  809MOL0     C 9108   2.748   3.529   0.430  0.6755 -0.2932  0.0074
  809MOL0     C 9109   2.898   3.732   0.372  2.0993  0.9521  0.5104
  809MOL0     C 9110   3.036   3.659   0.379 -0.0021  0.9600 -0.4249
  809MOL0     O 9111   3.143   3.736   0.363 -0.5608  0.1464  0.9677
  809MOL0     C 9112   3.266   3.673   0.380 -0.0394 -0.5758 -0.6365
  809MOL0     C 9113   3.294   3.607   0.499 -0.0661  0.2587 -0.2866
  809MOL0     C 9114   3.422   3.552   0.511  0.1018 -0.3272  0.4558
  809MOL0     C 9115   3.520   3.577   0.417  0.8062 -0.4310  0.1335
  809MOL0     O 9116   3.648   3.553   0.449  0.2059  0.0641  0.3385
  809MOL0     C 9117   3.752   3.597   0.378 -1.1979 -0.3043 -0.1907
  809MOL0     C 9118   3.788   3.501   0.267 -0.4359 -0.2728 -0.2453
  809MOL0     C 9119   3.904   3.549   0.176 -0.9066 -0.2411  0.4671
  809MOL0     C 9120   3.920   3.440   0.070 -0.3858  0.5485  0.3440
  809MOL0     C 9121   4.055   3.451   0.006 -0.5443 -0.9252 -0.5364
  809MOL0     C 9122   4.068   3.339  -0.096  0.2130  0.2054 -0.0694
  809MOL0     C 9123   4.206   3.360  -0.166 -0.2269  0.1620 -0.2867
  809MOL0     C 9124   4.219   3.482  -0.256  0.5946 -0.4636 -0.7303
  809MOL0    Cl 9125   4.105   3.477  -0.396  0.6532 -0.4278  0.0490
  809MOL0     C 9126   3.491   3.647   0.300 -0.3987  0.2727 -0.6535
  809MOL0     C 9127   3.361   3.699   0.276  0.0184  1.2037 -0.7826
  809MOL0     O 9128   3.039   3.535   0.390 -0.2108  0.8547 -0.2063
  809MOL0     C 9129   2.902   3.868   0.331  0.0345  0.4583  0.3785
  809MOL0     C 9130   2.788   3.942   0.307 -0.4924 -0.1737 -0.1043
  809MOL0     N 9131   2.203   4.376   0.628 -0.1504  0.6771 -0.1212
  809MOL0     N 9132   2.103   4.366   0.718  0.8481 -0.8715 -0.5822
  809MOL0     C 9133   2.131   3.916   1.650 -0.0935  0.8755  1.1507
  809MOL0     C 9134   2.103   3.879   1.785  0.2914 -0.4109  0.4837
  809MOL0     C 9135   2.153   3.657   2.194 -1.6264 -0.7749  0.4405
  809MOL0     C 9136   2.078   3.539   2.195  0.6753 -0.5035 -0.1302
  809MOL0     C 9137   2.063   3.461   2.317  0.1201 -0.2787 -0.6548
  809MOL0     C 9138   2.122   3.500   2.434 -0.0704 -0.9778 -0.1214
  809MOL0     O 9139   2.106   3.416   2.535 -0.7435 -0.0763 -0.2116
  809MOL0     C 9140   2.174   3.450   2.660  0.4502 -0.1891  0.2297
  809MOL0     C 9141   2.132   3.351   2.760  0.7979 -0.0275 -0.0801
  809MOL0     C 9142   2.187   3.384   2.899 -1.2206 -0.2043  1.4004
  809MOL0     C 9143   2.102   3.313   3.003 -0.0796 -0.7125  0.0711
  809MOL0     C 9144   2.131   3.342   3.144 -0.2970 -0.7689 -0.3740
  809MOL0     C 9145   2.148   3.340   3.264 -0.0431 -0.4343  0.0418
  809MOL0     C 9146   2.206   3.610   2.434 -0.2248  0.4037 -0.5432
  809MOL0     C 9147   2.218   3.687   2.315  0.1604 -0.2194 -0.1437
  809MOL0     H 9148   2.234   3.562   1.782  0.7570  1.1746  2.2828
  809MOL0     H 9149   2.289   3.614   1.556 -2.7531 -2.8011 -0.9390
  809MOL0     H 9150   2.409   3.793   1.405 -2.1274 -0.6702  4.7572
  809MOL0     H 9151   2.288   3.680   1.363 -1.3356  0.2446  1.8283
  809MOL0     H 9152   2.343   3.945   1.223  1.9032  0.2218  2.2067
  809MOL0     H 9153   2.415   3.811   1.167  1.5125 -0.4104  1.6881
  809MOL0     H 9154   2.211   3.719   1.077 -2.9729  0.7869 -1.1274
  809MOL0     H 9155   2.112   3.809   1.191 -0.5962  4.1282  0.1397
  809MOL0     H 9156   2.200   4.032   1.076  0.9162 -0.2735  2.7169
  809MOL0     H 9157   2.286   3.933   0.959 -0.3267 -3.4887 -0.8634
  809MOL0     H 9158   2.086   3.853   0.859 -0.3827 -0.7173  1.4808
  809MOL0     H 9159   1.993   3.892   1.002  1.4230 -3.1547  0.9306
  809MOL0     H 9160   2.034   4.146   0.947  0.1667  2.4390 -2.5311
  809MOL0     H 9161   2.135   4.097   0.823 -0.2077  0.1159 -0.1904
  809MOL0     H 9162   1.936   4.020   0.712  3.1337 -1.5144  1.0173
  809MOL0     H 9163   1.838   4.040   0.853 -0.4587 -2.3523 -1.5941
  809MOL0     H 9164   1.873   4.286   0.852 -0.1426 -1.4322  0.0950
  809MOL0     H 9165   1.807   4.239   0.691  2.7160  1.7302 -3.4064
  809MOL0     H 9166   2.001   4.143   0.510 -2.0376  1.6163 -0.9758
  809MOL0     H 9167   2.161   4.230   0.313 -0.1074 -2.2183  1.0768
  809MOL0     H 9168   2.249   4.373   0.344  1.6506 -0.0916  0.3235
  809MOL0     H 9169   2.312   4.098   0.459  4.8078 -2.7451 -1.1620
  809MOL0     H 9170   2.424   4.225   0.475  2.1027 -4.3451 -1.1574
  809MOL0     H 9171   2.422   4.268   0.221 -0.7872 -0.5959 -0.9922
  809MOL0     H 9172   2.346   4.111   0.200 -2.0461  0.3698  1.5576
  809MOL0     H 9173   2.614   4.157   0.333 -1.5312  0.0411  2.1511
  809MOL0     H 9174   2.588   4.098   0.165  1.8643 -2.3578  0.5427
  809MOL0     H 9175   2.562   3.713   0.419 -0.1537 -0.0473  0.0653
  809MOL0     H 9176   2.836   3.476   0.465  2.6000  1.9640 -1.1503
  809MOL0     H 9177   2.668   3.514   0.504 -1.0503  2.2088 -1.1795
  809MOL0     H 9178   2.720   3.475   0.338 -1.8504 -0.7024  0.9269
  809MOL0     H 9179   3.211   3.599   0.568 -1.7327 -0.2083 -2.2562
  809MOL0     H 9180   3.451   3.485   0.591 -0.9652 -0.5208  0.6963
  809MOL0     H 9181   3.742   3.698   0.338 -0.4549 -0.4233 -0.7009
  809MOL0     H 9182   3.837   3.600   0.446  1.4997  0.5535 -3.3418
  809MOL0     H 9183   3.815   3.404   0.309  0.6705 -0.0738 -0.4408
  809MOL0     H 9184   3.700   3.496   0.203  1.2798  0.9877 -2.9064
  809MOL0     H 9185   3.993   3.561   0.238 -1.4461  0.5059  1.1200
  809MOL0     H 9186   3.872   3.646   0.136 -1.1168 -0.1450  0.8710
  809MOL0     H 9187   3.910   3.340   0.115 -0.0009  0.7474  0.8828
  809MOL0     H 9188   3.850   3.441  -0.014 -0.3168  1.6939  0.2924
  809MOL0     H 9189   4.132   3.438   0.082 -1.7706 -1.3088  0.6664
  809MOL0     H 9190   4.058   3.549  -0.042 -1.7567  0.0731  1.3378
  809MOL0     H 9191   4.070   3.237  -0.057 -0.3189 -0.7803 -2.4573
  809MOL0     H 9192   3.985   3.346  -0.167  2.1103  0.3161 -2.3809
  809MOL0     H 9193   4.222   3.278  -0.237 -0.8680  1.7922 -2.4450
  809MOL0     H 9194   4.284   3.355  -0.090 -0.4813  0.8628  0.0254
  809MOL0     H 9195   4.322   3.500  -0.289  1.7646  1.6411  3.3524
  809MOL0     H 9196   4.202   3.578  -0.206  2.6356 -0.6508  0.4353
  809MOL0     H 9197   3.573   3.669   0.233 -0.9879 -1.3769 -2.0145
  809MOL0     H 9198   3.333   3.751   0.185  3.2029  0.4219 -2.3542
  809MOL0     H 9199   2.999   3.918   0.324  0.5197 -0.0114  2.7061
  809MOL0     H 9200   2.805   4.044   0.276  0.1069 -0.7003 -1.6083
  809MOL0     H 9201   2.100   4.011   1.609 -1.6695  1.3133  3.2199
  809MOL0     H 9202   2.066   3.950   1.858  0.9014  2.3209 -1.7211
  809MOL0     H 9203   2.032   3.504   2.103  1.9798 -1.1960 -0.5397
  809MOL0     H 9204   2.008   3.368   2.307 -3.0616  1.4462 -0.6969
  809MOL0     H 9205   2.283   3.450   2.648  0.3025  2.9165 -2.8301
  809MOL0     H 9206   2.147   3.553   2.688  2.5058 -0.2546  2.7708
  809MOL0     H 9207   2.179   3.255   2.739  1.8018  0.2806  0.6754
  809MOL0     H 9208   2.024   3.358   2.775  0.9961  0.4574  1.2273
  809MOL0     H 9209   2.174   3.492   2.910  0.0105 -0.1995  3.2428
  809MOL0     H 9210   2.290   3.352   2.913 -0.5266  1.9141  1.3968
  809MOL0     H 9211   2.122   3.206   3.002 -1.7427 -1.0465 -0.3208
  809MOL0     H 9212   1.997   3.326   2.979 -0.3623 -2.3900  0.2568
  809MOL0     H 9213   2.165   3.336   3.370  0.1467  0.7783  0.0715
  809MOL0     H 9214   2.275   3.634   2.514 -1.8576 -2.0789  1.7660
  809MOL0     H 9215   2.285   3.772   2.309 -0.6493  0.6072  1.7897
  810MOL0     O 9216   0.379   2.014   8.497  0.2889  0.2480  0.1551
  810MOL0     C 9217   0.302   1.953   8.584 -1.1986 -1.4616  0.5337
  810MOL0     O 9218   0.318   1.826   8.630 -0.7967 -0.7894  0.1640
  810MOL0     C 9219   0.438   1.755   8.613  0.1267  0.1819 -0.4906
  810MOL0     C 9220   0.572   1.802   8.607 -0.3645  0.5946 -0.3938
  810MOL0     C 9221   0.678   1.722   8.599 -0.3183 -0.4694  0.1091
  810MOL0     C 9222   0.668   1.583   8.609 -0.0240  0.5196  0.3250
  810MOL0     O 9223   0.791   1.516   8.619 -0.5864  0.6674 -0.1544
  810MOL0     C 9224   0.797   1.387   8.683  0.0247 -0.5900  0.3579
  810MOL0     C 9225   0.937   1.372   8.724  0.1274  0.1228 -0.0272
  810MOL0     C 9226   0.982   1.457   8.833 -0.9615 -0.3182 -0.6176
  810MOL0     C 9227   1.123   1.509   8.813  0.5682 -0.2352  0.1826
  810MOL0     C 9228   1.231   1.403   8.829 -0.9137  0.2091 -0.3105
  810MOL0     C 9229   1.371   1.473   8.820 -0.5938  0.1072  0.1282
  810MOL0     C 9230   1.475   1.371   8.852 -0.0384  0.5522 -0.7737
  810MOL0     C 9231   1.537   1.357   8.996  0.1530 -0.8708  0.0621
  810MOL0     N 9232   1.641   1.461   9.008 -0.0884  0.6577  0.1412
  810MOL0     C 9233   1.772   1.433   9.009 -0.9289 -0.0911 -1.1187
  810MOL0     C 9234   1.821   1.547   9.051 -0.7984  0.6085 -0.6303
  810MOL0     C 9235   1.965   1.574   9.054 -1.4659 -0.2723  0.2299
  810MOL0     C 9236   2.036   1.447   9.121  0.0118 -0.3941 -0.1063
  810MOL0     C 9237   2.180   1.473   9.159  0.2085  0.5427  0.1130
  810MOL0     C 9238   2.257   1.343   9.188 -0.3793 -0.0600 -0.2397
  810MOL0     O 9239   2.213   1.302   9.313  0.2178  0.3698  0.4993
  810MOL0     C 9240   2.192   1.166   9.318  0.3621  0.0135  0.0071
  810MOL0     C 9241   2.285   1.074   9.267 -0.9984  0.5312  0.1636
  810MOL0     C 9242   2.272   0.930   9.299  1.0502  0.0151  0.0411
  810MOL0     C 9243   2.376   0.832   9.250 -0.4368  1.0345  0.7148
  810MOL0     C 9244   2.169   0.883   9.382  0.2456  0.0237 -0.1757
  810MOL0     C 9245   2.153   0.744   9.415  0.4042 -0.3835 -0.3077
  810MOL0     O 9246   2.174   0.645   9.319  0.3943 -0.2838 -0.1960
  810MOL0     C 9247   2.107   0.535   9.342 -0.0466  0.3227 -0.9633
  810MOL0     C 9248   2.023   0.496   9.239  0.9668  0.9592 -0.4527
  810MOL0     C 9249   1.952   0.373   9.244 -0.0641 -0.6701 -1.0407
  810MOL0     C 9250   1.973   0.288   9.358  0.8503  0.4657 -1.0454
  810MOL0     O 9251   1.906   0.172   9.341 -0.5292  0.1973 -0.5517
  810MOL0     C 9252   1.849   0.121   9.459  0.7483  0.0970 -0.5703
  810MOL0     C 9253   1.702   0.175   9.486  0.0654  0.4553  0.7709
  810MOL0     C 9254   1.605   0.151   9.367  0.2606 -0.4327 -0.2430
  810MOL0     C 9255   1.465   0.188   9.401  0.5822  0.6179  0.1600
  810MOL0     C 9256   1.370   0.187   9.275 -0.0495  0.1182  0.7083
  810MOL0     C 9257   1.378   0.320   9.196  0.0623 -0.5421 -0.0928
  810MOL0     C 9258   1.320   0.433   9.276  0.9526 -0.7458 -0.2728
  810MOL0     C 9259   1.269   0.551   9.183  0.7153  0.3588 -0.6383
  810MOL0    Cl 9260   1.124   0.508   9.076  0.2371  0.2147  0.2423
  810MOL0     C 9261   2.066   0.328   9.453  0.9901  1.0720 -0.2308
  810MOL0     C 9262   2.126   0.450   9.451  0.0018  0.1055  1.0274
  810MOL0     O 9263   2.129   0.733   9.535  1.4205  0.2881  0.2849
  810MOL0     C 9264   2.083   0.984   9.435  0.5731  0.2810  0.0952
  810MOL0     C 9265   2.107   1.115   9.415 -0.4294 -0.4745 -0.3152
  810MOL0     N 9266   1.718   1.643   9.078 -0.5058  0.2145 -0.3495
  810MOL0     N 9267   1.609   1.583   9.048 -0.6116 -0.0812 -0.2081
  810MOL0     C 9268   0.538   1.531   8.610  0.2955 -0.0097 -1.0302
  810MOL0     C 9269   0.429   1.613   8.604 -0.0552  0.1691  0.6152
  810MOL0     C 9270   0.193   2.037   8.638 -0.1096 -0.5804  0.5210
  810MOL0     C 9271   0.151   2.165   8.589 -0.0880 -0.2480 -0.8449
  810MOL0     C 9272   0.037   2.229   8.629 -0.7075  0.0036 -0.2541
  810MOL0     C 9273  -0.048   2.166   8.732 -0.3945  0.6234  0.6727
  810MOL0     O 9274  -0.169   2.212   8.775  0.6871 -0.7108  0.4050
  810MOL0     C 9275  -0.222   2.334   8.715 -0.4546 -0.3716  0.1221
  810MOL0     C 9276  -0.312   2.390   8.813  0.3535  0.2059  0.2974
  810MOL0     C 9277  -0.404   2.488   8.742 -0.2677  0.3100 -0.2910
  810MOL0     C 9278  -0.490   2.567   8.835 -0.0865 -0.8128 -0.4730
  810MOL0     C 9279  -0.607   2.626   8.772 -1.2077  0.2705 -0.3330
  810MOL0     C 9280  -0.713   2.645   8.724  1.1317 -0.0610 -0.2470
  810MOL0     C 9281  -0.014   2.034   8.775  0.5800 -0.4345 -0.8426
  810MOL0     C 9282   0.098   1.970   8.719 -0.0216  0.5615 -0.1706
  810MOL0     H 9283   0.585   1.909   8.619 -1.0795  0.8615 -1.7903
  810MOL0     H 9284   0.775   1.768   8.585 -1.1293  1.1126 -0.4665
  810MOL0     H 9285   0.728   1.385   8.768 -0.8876  1.0332 -0.3168
  810MOL0     H 9286   0.782   1.304   8.613  0.7471 -1.1308  0.8143
  810MOL0     H 9287   0.957   1.267   8.744  1.4609 -0.0180 -1.8726
  810MOL0     H 9288   0.994   1.397   8.634 -1.8613 -0.7110 -1.5900
  810MOL0     H 9289   0.907   1.532   8.856 -2.2234 -2.2146  1.9353
  810MOL0     H 9290   0.983   1.398   8.925  2.2115 -0.9997 -0.9680
  810MOL0     H 9291   1.127   1.560   8.716  1.5272 -0.1373  0.2601
  810MOL0     H 9292   1.146   1.591   8.881 -0.2360 -0.2939  0.5347
  810MOL0     H 9293   1.224   1.348   8.923 -1.7054 -0.4267 -0.7226
  810MOL0     H 9294   1.241   1.328   8.749  0.4597 -0.6408  0.6160
  810MOL0     H 9295   1.380   1.519   8.721 -1.2852  2.2563  0.9998
  810MOL0     H 9296   1.379   1.558   8.889  2.4400 -0.3714  0.4964
  810MOL0     H 9297   1.429   1.275   8.827  1.3797 -0.2669 -0.3751
  810MOL0     H 9298   1.556   1.374   8.778  3.0997 -1.1801  2.2615
  810MOL0     H 9299   1.579   1.256   9.004  1.3611 -0.2121  3.4516
  810MOL0     H 9300   1.457   1.355   9.071  0.6196  0.1766  0.6038
  810MOL0     H 9301   1.819   1.349   8.959 -2.2124 -0.8764 -1.0442
  810MOL0     H 9302   2.006   1.612   8.960 -1.5914 -1.7693 -0.4607
  810MOL0     H 9303   1.991   1.663   9.112  1.1028 -0.0416 -1.1023
  810MOL0     H 9304   2.033   1.364   9.050 -2.4005 -1.9581  1.6596
  810MOL0     H 9305   1.984   1.422   9.214  2.0789 -1.1706  0.8915
  810MOL0     H 9306   2.183   1.544   9.242 -0.0618  0.3474  0.2910
  810MOL0     H 9307   2.219   1.527   9.072  1.1892  1.6471  1.2032
  810MOL0     H 9308   2.362   1.372   9.192 -1.0326  2.4757  2.6696
  810MOL0     H 9309   2.228   1.269   9.113 -0.7941 -2.1059  1.8366
  810MOL0     H 9310   2.366   1.111   9.204 -0.4775  2.1615  1.6913
  810MOL0     H 9311   2.332   0.776   9.166  3.1115 -0.6564 -0.1897
  810MOL0     H 9312   2.464   0.893   9.230  0.0202  0.0753 -0.2970
  810MOL0     H 9313   2.405   0.759   9.326  1.5999 -0.6411 -1.5084
  810MOL0     H 9314   2.007   0.555   9.150  1.7438  0.4921 -0.9108
  810MOL0     H 9315   1.870   0.340   9.180  0.1641 -4.9447  0.5513
  810MOL0     H 9316   1.832   0.013   9.451  1.8576 -0.2061  0.7248
  810MOL0     H 9317   1.906   0.139   9.551  2.0287 -2.3150 -0.8316
  810MOL0     H 9318   1.667   0.114   9.570 -2.7023  0.8014 -0.0248
  810MOL0     H 9319   1.712   0.282   9.506  0.1547  1.1303 -2.4015
  810MOL0     H 9320   1.621   0.049   9.330  3.3458  0.3791 -1.5071
  810MOL0     H 9321   1.651   0.221   9.297  3.5235  2.0080  3.8720
  810MOL0     H 9322   1.408   0.112   9.456 -0.6519 -0.4078 -2.4099
  810MOL0     H 9323   1.458   0.282   9.457  4.7661  0.2243  1.7213
  810MOL0     H 9324   1.263   0.173   9.292 -0.4244 -1.9875 -2.4191
  810MOL0     H 9325   1.395   0.107   9.204 -0.2759 -0.3508  1.1515
  810MOL0     H 9326   1.479   0.347   9.167 -1.1555  4.4473 -0.5787
  810MOL0     H 9327   1.327   0.300   9.101  0.6162 -2.3813 -0.0425
  810MOL0     H 9328   1.401   0.470   9.340  0.4553  0.6349 -0.4181
  810MOL0     H 9329   1.235   0.404   9.337  1.7665 -0.5059  1.0079
  810MOL0     H 9330   1.355   0.576   9.120  0.3794  3.2146 -0.0992
  810MOL0     H 9331   1.246   0.639   9.242 -3.0235 -0.4510 -0.6051
  810MOL0     H 9332   2.085   0.265   9.539 -2.6989 -0.3277 -0.2572
  810MOL0     H 9333   2.184   0.470   9.540 -0.0155  1.7674  0.6946
  810MOL0     H 9334   2.008   0.958   9.509  0.1548  1.5489  0.1530
  810MOL0     H 9335   2.052   1.186   9.476 -0.3669  0.3799 -1.2305
  810MOL0     H 9336   0.514   1.425   8.620  0.2366  0.1531  0.8425
  810MOL0     H 9337   0.327   1.578   8.598  0.4646 -1.4939  1.0205
  810MOL0     H 9338   0.220   2.213   8.520 -0.2341  1.0005 -0.1573
  810MOL0     H 9339   0.017   2.319   8.571  2.3096  1.0167  0.0671
  810MOL0     H 9340  -0.139   2.401   8.688  1.4840 -3.8833 -3.7902
  810MOL0     H 9341  -0.279   2.317   8.623 -0.0295  0.1786 -0.2472
  810MOL0     H 9342  -0.255   2.436   8.894  1.6227  2.8472 -1.9707
  810MOL0     H 9343  -0.381   2.314   8.854 -0.1619  0.4928 -0.0235
  810MOL0     H 9344  -0.469   2.442   8.667  3.5268 -1.4068 -2.8704
  810MOL0     H 9345  -0.337   2.564   8.702 -0.7988  0.6259 -0.5894
  810MOL0     H 9346  -0.417   2.634   8.882  2.0474 -2.3661 -1.4021
  810MOL0     H 9347  -0.532   2.500   8.911  1.5988 -0.1136  1.1667
  810MOL0     H 9348  -0.804   2.680   8.680  2.5833  3.0343 -1.0241
  810MOL0     H 9349  -0.067   1.975   8.848  1.1732  0.7489  0.5893
  810MOL0     H 9350   0.116   1.865   8.742 -0.3244 -0.0124 -2.2947
  811MOL0     O 9351   5.834   2.568   1.468  0.1960  0.6128 -0.5971
  811MOL0     C 9352   5.910   2.532   1.378 -0.2817 -0.3171  0.3455
  811MOL0     O 9353   5.887   2.435   1.283  0.1181  0.3683 -0.0158
  811MOL0     C 9354   5.804   2.329   1.322  0.9997 -0.6378  0.6571
  811MOL0     C 9355   5.773   2.278   1.450  0.4086 -0.1272  0.0027
  811MOL0     C 9356   5.701   2.156   1.459  0.9546 -0.6581 -0.2471
  811MOL0     C 9357   5.671   2.072   1.341 -1.1541 -0.0988  0.0975
  811MOL0     O 9358   5.617   1.946   1.348  0.4315 -0.8247 -0.9421
  811MOL0     C 9359   5.593   1.862   1.466 -0.4794 -0.7680 -0.1373
  811MOL0     C 9360   5.535   1.729   1.399  0.4019 -0.4763 -0.5539
  811MOL0     C 9361   5.429   1.659   1.480 -0.2965 -1.2655  0.5739
  811MOL0     C 9362   5.373   1.531   1.427 -0.3248 -0.4709 -0.1879
  811MOL0     C 9363   5.237   1.501   1.485 -0.1040 -0.3256 -0.2447
  811MOL0     C 9364   5.128   1.594   1.413  0.1764  0.2249  0.1926
  811MOL0     C 9365   4.980   1.555   1.421  0.0157  0.6518 -0.0719
  811MOL0     C 9366   4.889   1.615   1.310 -0.0694 -0.1155  0.7786
  811MOL0     N 9367   4.925   1.746   1.258  0.6324  1.0985 -0.1624
  811MOL0     C 9368   5.009   1.752   1.152  0.0064 -0.2515  1.3322
  811MOL0     C 9369   5.052   1.880   1.160  0.2392  0.7862  0.4321
  811MOL0     C 9370   5.156   1.953   1.086 -0.1405 -0.4004 -0.5046
  811MOL0     C 9371   5.262   1.853   1.032  0.0941  0.2528  0.7900
  811MOL0     C 9372   5.398   1.910   0.998 -0.4421  0.4235 -0.0668
  811MOL0     C 9373   5.496   1.801   0.960  0.8285 -0.4009  1.4256
  811MOL0     O 9374   5.459   1.746   0.837 -0.0104 -0.1862  0.0472
  811MOL0     C 9375   5.549   1.742   0.731  0.6899 -0.8313 -0.3510
  811MOL0     C 9376   5.631   1.637   0.697  1.1634 -0.5208 -0.1705
  811MOL0     C 9377   5.735   1.652   0.607 -0.2274  0.4621 -0.4634
  811MOL0     C 9378   5.825   1.532   0.593  0.5445 -0.0059 -0.8722
  811MOL0     C 9379   5.751   1.772   0.523  0.3204  0.9441 -0.8254
  811MOL0     C 9380   5.860   1.784   0.422  0.0056  0.2469 -0.0527
  811MOL0     O 9381   5.823   1.863   0.316 -0.8484  0.3256  0.5803
  811MOL0     C 9382   5.901   1.854   0.203  0.3317 -1.0689  0.2663
  811MOL0     C 9383   5.957   1.977   0.166 -0.3626  0.1317  1.6896
  811MOL0     C 9384   6.030   1.986   0.042 -0.5800  0.3662  0.1126
  811MOL0     C 9385   6.044   1.871  -0.035  0.8731 -0.3295 -1.1729
  811MOL0     O 9386   6.094   1.872  -0.163  0.5324  0.6612  0.5156
  811MOL0     C 9387   6.209   1.799  -0.206 -0.2421  0.1169  0.6617
  811MOL0     C 9388   6.254   1.863  -0.341 -0.5559 -0.0331 -1.1488
  811MOL0     C 9389   6.281   2.018  -0.328  0.1433  0.2041 -0.5118
  811MOL0     C 9390   6.351   2.065  -0.448 -0.3756 -0.0034  0.0760
  811MOL0     C 9391   6.372   2.219  -0.452  1.8792  0.3755 -0.4160
  811MOL0     C 9392   6.402   2.264  -0.590 -0.0103 -0.1647 -0.0936
  811MOL0     C 9393   6.440   2.410  -0.591 -0.2076  0.1581  0.1509
  811MOL0     C 9394   6.316   2.496  -0.564 -0.1331  0.5245  0.8139
  811MOL0    Cl 9395   6.363   2.677  -0.560 -0.1557  0.6372 -0.3479
  811MOL0     C 9396   5.996   1.747   0.012 -0.3285  0.0534  0.1550
  811MOL0     C 9397   5.915   1.740   0.134  0.9078 -0.0229  0.4345
  811MOL0     O 9398   5.968   1.728   0.426 -0.7455  0.5361  0.2479
  811MOL0     C 9399   5.646   1.865   0.541  0.0374  0.1173 -0.4483
  811MOL0     C 9400   5.563   1.859   0.655  0.6214 -0.3302 -0.4167
  811MOL0     N 9401   4.984   1.944   1.269 -0.3549  0.5459  0.5088
  811MOL0     N 9402   4.895   1.857   1.324 -0.4458  0.0771 -0.5083
  811MOL0     C 9403   5.715   2.119   1.218  0.3558 -0.1868 -0.5230
  811MOL0     C 9404   5.767   2.244   1.214 -0.1431 -0.5974 -0.5640
  811MOL0     C 9405   6.031   2.616   1.359  0.3718 -0.4012 -0.0753
  811MOL0     C 9406   6.094   2.702   1.452 -0.3569  0.5136 -0.2627
  811MOL0     C 9407   6.204   2.776   1.408  0.3409  0.1167  0.1962
  811MOL0     C 9408   6.242   2.786   1.279 -0.9804  0.0296  0.0916
  811MOL0     O 9409   6.326   2.889   1.233  0.5549  0.9487  0.2735
  811MOL0     C 9410   6.458   2.896   1.278 -0.1737  0.4766 -0.5482
  811MOL0     C 9411   6.558   2.986   1.199 -0.0571 -0.2239 -0.0692
  811MOL0     C 9412   6.487   3.120   1.167 -0.1506 -0.9019  1.0135
  811MOL0     C 9413   6.592   3.222   1.123 -0.4752  0.5303 -0.4309
  811MOL0     C 9414   6.545   3.346   1.067 -0.0667  0.6494 -0.0524
  811MOL0     C 9415   6.518   3.462   1.045 -1.0551 -0.1365 -0.9495
  811MOL0     C 9416   6.184   2.703   1.191  0.3269  0.5356  0.4983
  811MOL0     C 9417   6.078   2.617   1.225 -0.7346  0.4201  0.9629
  811MOL0     H 9418   5.812   2.337   1.532  1.8813  0.1098 -0.8173
  811MOL0     H 9419   5.672   2.109   1.553  2.7858  0.8592  1.1580
  811MOL0     H 9420   5.680   1.845   1.530  0.0070 -0.0678 -0.6021
  811MOL0     H 9421   5.515   1.906   1.529 -0.1204 -2.0026  1.2210
  811MOL0     H 9422   5.475   1.750   1.311 -0.4576 -0.6376 -0.0207
  811MOL0     H 9423   5.629   1.676   1.382  1.4893  1.2960 -0.3587
  811MOL0     H 9424   5.461   1.636   1.583  0.3096 -2.5594  0.1198
  811MOL0     H 9425   5.353   1.738   1.485 -0.2180 -1.0820 -0.7699
  811MOL0     H 9426   5.371   1.541   1.318  2.4203  0.7441 -0.2143
  811MOL0     H 9427   5.446   1.454   1.457  0.1966 -0.2933 -0.9729
  811MOL0     H 9428   5.217   1.395   1.468 -0.5903  0.0166 -2.1409
  811MOL0     H 9429   5.243   1.504   1.594 -0.5285 -0.9623 -0.2014
  811MOL0     H 9430   5.134   1.700   1.440 -1.5107  0.7323 -1.2867
  811MOL0     H 9431   5.154   1.591   1.307  2.5355 -2.5280  0.7321
  811MOL0     H 9432   4.979   1.445   1.417  1.3318  0.5465  1.5495
  811MOL0     H 9433   4.949   1.586   1.521  1.8381  0.1224  0.6961
  811MOL0     H 9434   4.790   1.632   1.352  0.3229  2.1343  0.9197
  811MOL0     H 9435   4.890   1.545   1.227  0.9572 -0.5732  1.1522
  811MOL0     H 9436   5.030   1.666   1.089 -1.8284  0.5976 -0.5971
  811MOL0     H 9437   5.106   1.982   0.993 -0.2219 -0.9249 -0.6298
  811MOL0     H 9438   5.206   2.034   1.139  0.7638 -3.4361  3.8378
  811MOL0     H 9439   5.222   1.801   0.944  0.2085  0.9567  0.3179
  811MOL0     H 9440   5.272   1.773   1.106  1.6034  1.0866  1.5237
  811MOL0     H 9441   5.437   1.966   1.083 -0.8783  0.0947  0.3489
  811MOL0     H 9442   5.382   1.978   0.913 -0.9909 -0.1131 -0.3999
  811MOL0     H 9443   5.497   1.723   1.036  2.6385 -1.9598 -0.0882
  811MOL0     H 9444   5.595   1.842   0.940  1.0206 -2.5568 -3.3891
  811MOL0     H 9445   5.621   1.536   0.736  1.4519 -1.2008 -1.7913
  811MOL0     H 9446   5.808   1.452   0.665 -0.3042 -0.2257 -1.2978
  811MOL0     H 9447   5.800   1.489   0.495 -0.5716  0.3635 -0.7705
  811MOL0     H 9448   5.925   1.575   0.602 -0.9277  3.3458  1.4679
  811MOL0     H 9449   5.947   2.068   0.223 -0.8074  0.7685  0.6230
  811MOL0     H 9450   6.089   2.073   0.015 -1.4153  0.3667 -1.8805
  811MOL0     H 9451   6.287   1.807  -0.129 -0.6884 -2.2454  1.4517
  811MOL0     H 9452   6.178   1.694  -0.210 -0.9167  0.3377  0.0146
  811MOL0     H 9453   6.348   1.816  -0.370 -1.2175 -1.9305 -0.3947
  811MOL0     H 9454   6.193   1.839  -0.429  0.8518  0.1202 -2.1958
  811MOL0     H 9455   6.351   2.037  -0.246  2.3231  1.4625 -2.5337
  811MOL0     H 9456   6.190   2.075  -0.306  0.9616  1.2243  0.3304
  811MOL0     H 9457   6.451   2.022  -0.461 -0.8747 -0.4788 -3.0252
  811MOL0     H 9458   6.286   2.054  -0.536 -0.8288 -0.5815  0.4731
  811MOL0     H 9459   6.447   2.248  -0.377 -0.9977  1.2767  2.3274
  811MOL0     H 9460   6.275   2.265  -0.432  0.6504 -2.3911  0.4868
  811MOL0     H 9461   6.488   2.204  -0.620  0.8147  0.1161  1.5822
  811MOL0     H 9462   6.320   2.258  -0.662  0.3426 -2.6780 -0.3520
  811MOL0     H 9463   6.488   2.425  -0.688 -0.3706 -0.7819 -0.0809
  811MOL0     H 9464   6.512   2.439  -0.514  0.3490 -0.7634 -0.0027
  811MOL0     H 9465   6.267   2.481  -0.467  2.4628 -2.4397  1.8507
  811MOL0     H 9466   6.241   2.480  -0.642 -0.0154 -2.6034  1.2233
  811MOL0     H 9467   6.023   1.665  -0.053  1.5915 -1.9776  3.2334
  811MOL0     H 9468   5.860   1.656   0.176  0.0830 -0.2978 -1.0835
  811MOL0     H 9469   5.638   1.950   0.473  0.4351  0.1726 -0.4304
  811MOL0     H 9470   5.521   1.954   0.685  0.0852 -0.8459  0.5251
  811MOL0     H 9471   5.695   2.066   1.125 -3.5861 -1.3373  0.8046
  811MOL0     H 9472   5.788   2.281   1.114  0.2363  4.1653  1.0063
  811MOL0     H 9473   6.058   2.718   1.553  0.2478  1.8590 -0.2366
  811MOL0     H 9474   6.272   2.841   1.463  0.8280  0.8240 -1.1685
  811MOL0     H 9475   6.465   2.952   1.372 -1.6543  4.0270 -2.3871
  811MOL0     H 9476   6.496   2.794   1.286 -1.3831 -0.1798 -2.4834
  811MOL0     H 9477   6.600   2.943   1.108  0.8576 -1.8204  1.0767
  811MOL0     H 9478   6.642   3.009   1.265  2.2405  1.0304 -3.1994
  811MOL0     H 9479   6.434   3.166   1.251  0.6284  2.9428 -0.3958
  811MOL0     H 9480   6.418   3.089   1.088  0.6397 -1.3666  0.4896
  811MOL0     H 9481   6.673   3.183   1.062 -0.6094 -0.4556  0.0020
  811MOL0     H 9482   6.649   3.257   1.210 -1.0215 -0.6592  0.4336
  811MOL0     H 9483   6.522   3.567   1.029  1.3748 -0.1984 -1.1456
  811MOL0     H 9484   6.221   2.710   1.090 -0.4770 -3.7141 -0.2817
  811MOL0     H 9485   6.035   2.553   1.149  1.6408  0.7701 -0.8116
  812MOL0     O 9486   7.723   1.972  11.454 -0.0988 -0.1718  0.1702
  812MOL0     C 9487   7.663   1.950  11.344  0.2830 -0.6357  0.0084
  812MOL0     O 9488   7.565   2.032  11.288  0.1723 -0.8124 -0.6544
  812MOL0     C 9489   7.496   2.106  11.380  0.3756 -0.7450 -0.0252
  812MOL0     C 9490   7.390   2.050  11.455 -0.4351  0.0440 -0.1439
  812MOL0     C 9491   7.312   2.124  11.545 -0.4010 -0.2484 -0.4157
  812MOL0     C 9492   7.338   2.260  11.558  0.6438 -0.3562  0.1509
  812MOL0     O 9493   7.267   2.345  11.647 -0.0922  0.3179  0.3164
  812MOL0     C 9494   7.134   2.315  11.679  0.0787  0.7729 -0.3634
  812MOL0     C 9495   7.067   2.433  11.746 -0.3815  0.5722 -0.5869
  812MOL0     C 9496   7.043   2.541  11.642  0.0326 -0.3888 -0.8617
  812MOL0     C 9497   7.079   2.681  11.701 -0.4422 -0.3628  0.0081
  812MOL0     C 9498   6.956   2.745  11.771 -0.4470 -0.0961  0.7125
  812MOL0     C 9499   6.980   2.869  11.858  1.0059  0.1156  0.4860
  812MOL0     C 9500   6.856   2.904  11.939 -0.4437  0.0538 -0.5515
  812MOL0     C 9501   6.851   3.028  12.013 -0.0166 -1.1028 -0.0585
  812MOL0     N 9502   6.734   3.024  12.093 -0.2201  0.0663  0.3556
  812MOL0     C 9503   6.661   3.134  12.118  0.1174 -0.3398 -0.2420
  812MOL0     C 9504   6.556   3.082  12.190 -0.5892 -1.1783 -0.0715
  812MOL0     C 9505   6.437   3.159  12.243  0.3066 -0.0220 -0.1665
  812MOL0     C 9506   6.314   3.158  12.159  1.6149 -0.4682  0.3986
  812MOL0     C 9507   6.184   3.204  12.232 -0.3931 -0.2069 -0.2048
  812MOL0     C 9508   6.152   3.126  12.364 -0.5663  0.1765 -0.9851
  812MOL0     O 9509   6.168   2.985  12.350  0.2425  0.0185 -0.4466
  812MOL0     C 9510   6.069   2.905  12.292  0.1494 -0.6216  0.6158
  812MOL0     C 9511   6.106   2.778  12.247 -0.1713  0.1835  0.3838
  812MOL0     C 9512   6.016   2.700  12.178  0.1772  0.5825 -0.5722
  812MOL0     C 9513   6.073   2.570  12.135 -0.7033 -0.0611 -0.4924
  812MOL0     C 9514   5.886   2.743  12.142  0.6789  0.1871 -0.3202
  812MOL0     C 9515   5.784   2.664  12.062 -0.1443  0.4671 -0.0883
  812MOL0     O 9516   5.796   2.525  12.054  0.3324 -1.1374  0.0691
  812MOL0     C 9517   5.709   2.452  11.977 -1.0344 -0.3141  0.3059
  812MOL0     C 9518   5.773   2.340  11.925  0.8036  0.8861  0.8727
  812MOL0     C 9519   5.697   2.258  11.834  0.5620  0.4466 -0.5972
  812MOL0     C 9520   5.564   2.287  11.801  0.7229  0.1573  1.0666
  812MOL0     O 9521   5.513   2.195  11.717 -0.7244 -0.1114  0.0482
  812MOL0     C 9522   5.402   2.217  11.637 -0.3681  0.0980 -0.1832
  812MOL0     C 9523   5.404   2.115  11.521 -0.1168  1.1305 -0.0351
  812MOL0     C 9524   5.265   2.077  11.470  0.8694  0.0485 -0.1950
  812MOL0     C 9525   5.258   2.045  11.312  0.7818 -0.2647  0.3298
  812MOL0     C 9526   5.115   2.024  11.276  0.5631 -0.2909  0.4431
  812MOL0     C 9527   5.023   2.142  11.292 -0.2109  1.0874  0.1565
  812MOL0     C 9528   4.882   2.096  11.236  0.1638 -0.5199 -0.3879
  812MOL0     C 9529   4.781   2.200  11.263 -0.3043 -0.6585 -0.0115
  812MOL0    Cl 9530   4.621   2.187  11.166 -0.3023 -0.4240 -0.3430
  812MOL0     C 9531   5.502   2.403  11.854 -0.1467 -0.4813 -0.1758
  812MOL0     C 9532   5.575   2.486  11.939 -0.1216 -0.3248 -0.8669
  812MOL0     O 9533   5.704   2.735  11.992 -0.4600 -0.7706 -0.8005
  812MOL0     C 9534   5.851   2.873  12.180 -0.0993  0.9238 -0.1858
  812MOL0     C 9535   5.939   2.947  12.271 -0.0955 -0.2641 -0.3559
  812MOL0     N 9536   6.572   2.949  12.218  0.4303  0.2298 -0.1537
  812MOL0     N 9537   6.677   2.917  12.155 -0.3114  0.2850  0.6067
  812MOL0     C 9538   7.442   2.315  11.479  0.6841 -1.2097 -0.5484
  812MOL0     C 9539   7.509   2.243  11.384 -0.8619  0.7469 -0.2457
  812MOL0     C 9540   7.706   1.823  11.270  0.4402 -0.6181  0.3502
  812MOL0     C 9541   7.804   1.740  11.323  0.4155  0.1829 -0.8144
  812MOL0     C 9542   7.844   1.632  11.251 -0.1038  0.4284  1.0562
  812MOL0     C 9543   7.788   1.606  11.123  0.0623  1.2271  0.0674
  812MOL0     O 9544   7.832   1.487  11.058  0.9874  0.0304 -0.7908
  812MOL0     C 9545   7.836   1.477  10.916 -0.2173 -0.0211  1.4356
  812MOL0     C 9546   7.709   1.394  10.870 -0.9339 -1.6853 -0.1637
  812MOL0     C 9547   7.694   1.257  10.923  0.5868  0.9219  0.0206
  812MOL0     C 9548   7.802   1.165  10.870  0.0399  0.2255  0.1795
  812MOL0     C 9549   7.928   1.154  10.951 -0.0464 -0.1104 -0.0280
  812MOL0     C 9550   8.042   1.138  11.003 -0.2925  0.0122  0.2265
  812MOL0     C 9551   7.694   1.688  11.070  0.0579 -0.0919  0.2212
  812MOL0     C 9552   7.648   1.795  11.140  1.1991 -0.3349 -0.8422
  812MOL0     H 9553   7.370   1.944  11.442  1.2396 -0.5302  1.5880
  812MOL0     H 9554   7.234   2.066  11.594 -0.2392 -1.0281 -1.0506
  812MOL0     H 9555   7.076   2.288  11.590  1.8872 -2.9525 -0.5786
  812MOL0     H 9556   7.126   2.224  11.738  0.4066 -0.0160 -1.5051
  812MOL0     H 9557   6.976   2.390  11.790 -0.1577 -1.6957 -2.1416
  812MOL0     H 9558   7.142   2.464  11.819  1.4317 -2.6460 -0.8824
  812MOL0     H 9559   7.110   2.526  11.557 -0.7927 -0.3183 -1.5365
  812MOL0     H 9560   6.947   2.536  11.591  1.0756 -1.1868 -2.8583
  812MOL0     H 9561   7.163   2.672  11.770  0.9891  0.9587 -1.4931
  812MOL0     H 9562   7.108   2.738  11.612 -0.6895 -3.3132 -2.1403
  812MOL0     H 9563   6.886   2.776  11.692 -1.2393 -0.0561  1.4067
  812MOL0     H 9564   6.900   2.667  11.823  1.8105 -4.6229 -2.8599
  812MOL0     H 9565   7.065   2.866  11.927  1.9285  1.3702 -0.5454
  812MOL0     H 9566   7.004   2.952  11.791  1.7933  0.7831  1.5630
  812MOL0     H 9567   6.757   2.898  11.892 -0.7009  2.3515 -0.4069
  812MOL0     H 9568   6.867   2.826  12.015 -0.7346  2.8334  2.5869
  812MOL0     H 9569   6.850   3.111  11.942 -1.9867  1.2842  2.5423
  812MOL0     H 9570   6.935   3.046  12.082 -1.7534 -0.6154  2.0358
  812MOL0     H 9571   6.666   3.236  12.082 -0.5525  1.1826  3.5044
  812MOL0     H 9572   6.412   3.110  12.338  0.2965 -1.5283 -0.9214
  812MOL0     H 9573   6.476   3.259  12.262  0.3041 -0.3484  1.8487
  812MOL0     H 9574   6.291   3.054  12.132 -2.5451  0.7589 -1.6413
  812MOL0     H 9575   6.326   3.206  12.062  0.0529 -1.6224 -0.4211
  812MOL0     H 9576   6.096   3.195  12.169 -0.3541 -3.1340  0.0286
  812MOL0     H 9577   6.198   3.310  12.254  0.5915  0.2855 -2.8296
  812MOL0     H 9578   6.045   3.144  12.379 -1.8218 -3.2117 -4.3636
  812MOL0     H 9579   6.207   3.164  12.451  1.8419 -0.4256 -2.1647
  812MOL0     H 9580   6.208   2.749  12.270 -0.3680 -2.5376 -1.6676
  812MOL0     H 9581   6.066   2.493  12.213 -0.5229  1.0234  0.6312
  812MOL0     H 9582   6.019   2.532  12.048 -0.3800 -2.5493  0.3245
  812MOL0     H 9583   6.171   2.597  12.096  0.3741  0.8444  2.5869
  812MOL0     H 9584   5.875   2.317  11.954  1.5397  0.8076 -1.4951
  812MOL0     H 9585   5.737   2.161  11.808  3.7381  1.0728  1.3079
  812MOL0     H 9586   5.317   2.191  11.700  1.7464 -2.6192  1.7732
  812MOL0     H 9587   5.407   2.318  11.596  1.3286 -0.1490 -0.6511
  812MOL0     H 9588   5.463   2.151  11.436 -1.9074 -2.7834 -3.2674
  812MOL0     H 9589   5.442   2.017  11.550 -1.1136  1.4277  2.5801
  812MOL0     H 9590   5.187   2.151  11.490 -0.8685 -1.2527 -1.8390
  812MOL0     H 9591   5.232   1.990  11.529  2.9005  1.4640  3.3279
  812MOL0     H 9592   5.278   2.128  11.244  0.0656 -0.8511 -0.6239
  812MOL0     H 9593   5.319   1.958  11.286  1.6878  0.6509 -0.6915
  812MOL0     H 9594   5.068   1.949  11.339  1.1252 -2.4569 -1.5920
  812MOL0     H 9595   5.111   1.998  11.170 -0.6108  0.1300  0.3693
  812MOL0     H 9596   5.008   2.180  11.393 -2.0342  2.0210 -0.4230
  812MOL0     H 9597   5.050   2.233  11.237 -0.4657  0.0532 -1.7547
  812MOL0     H 9598   4.850   1.998  11.273 -0.4523  0.1851  1.0221
  812MOL0     H 9599   4.890   2.087  11.127  1.2867 -1.5390 -0.2398
  812MOL0     H 9600   4.829   2.296  11.246 -0.4215 -0.3108  1.5588
  812MOL0     H 9601   4.757   2.196  11.369 -0.8302 -1.2127 -0.1434
  812MOL0     H 9602   5.395   2.414  11.839 -0.4870 -2.9858  0.0929
  812MOL0     H 9603   5.535   2.580  11.973  0.1757  1.3644 -4.7105
  812MOL0     H 9604   5.748   2.897  12.154 -0.2691 -1.8544 -2.4693
  812MOL0     H 9605   5.884   3.038  12.291 -2.4881 -0.9876 -2.9919
  812MOL0     H 9606   7.480   2.416  11.490  1.1643 -1.1243 -2.6301
  812MOL0     H 9607   7.579   2.298  11.322 -2.2739  0.2394 -2.4066
  812MOL0     H 9608   7.848   1.757  11.421  2.4141  0.4287 -1.7041
  812MOL0     H 9609   7.917   1.563  11.293  1.7664  0.8176 -1.3268
  812MOL0     H 9610   7.851   1.576  10.872 -3.1702  0.5079  1.4350
  812MOL0     H 9611   7.925   1.418  10.892 -1.1140 -1.7608  2.1610
  812MOL0     H 9612   7.694   1.395  10.761  0.2268 -0.5371 -0.3414
  812MOL0     H 9613   7.622   1.446  10.912 -1.9564 -2.4331 -1.2831
  812MOL0     H 9614   7.593   1.213  10.920 -0.5049  2.8220  3.3457
  812MOL0     H 9615   7.704   1.258  11.032 -1.1929 -0.6398  0.2741
  812MOL0     H 9616   7.831   1.199  10.770  0.0708  1.9848  0.7419
  812MOL0     H 9617   7.768   1.063  10.852  0.1503  0.0795  0.8027
  812MOL0     H 9618   8.138   1.116  11.043 -1.0796 -2.0402  1.1201
  812MOL0     H 9619   7.649   1.669  10.973 -1.4181 -2.8078  1.3570
  812MOL0     H 9620   7.564   1.863  11.124  1.0759 -0.9027 -2.8488
  813MOL0     O 9621   6.565   2.558   7.112  0.4393 -0.2738 -0.1836
  813MOL0     C 9622   6.491   2.620   7.034  0.9121  0.3274 -0.1178
  813MOL0     O 9623   6.347   2.613   7.026  0.1190 -0.0441  0.2099
  813MOL0     C 9624   6.289   2.528   7.120 -0.3331 -0.0564  0.2735
  813MOL0     C 9625   6.211   2.592   7.211 -0.4636 -0.1315  0.2394
  813MOL0     C 9626   6.130   2.516   7.304 -0.6179  0.1470  0.3402
  813MOL0     C 9627   6.129   2.371   7.305  0.0945 -0.5322 -0.2141
  813MOL0     O 9628   6.049   2.299   7.386  0.0368 -0.0968 -0.3384
  813MOL0     C 9629   6.092   2.180   7.457  0.6691 -0.5296 -0.3953
  813MOL0     C 9630   6.166   2.220   7.584 -0.5493 -0.9939  0.1518
  813MOL0     C 9631   6.242   2.104   7.644 -0.1195 -0.7180  0.4382
  813MOL0     C 9632   6.158   2.014   7.724  0.3983  0.3027  0.6393
  813MOL0     C 9633   6.231   1.909   7.804  0.6894 -0.3110 -0.5419
  813MOL0     C 9634   6.283   1.795   7.727 -0.5638 -0.6594 -0.2371
  813MOL0     C 9635   6.396   1.715   7.809 -0.0389 -0.4021 -0.6802
  813MOL0     C 9636   6.347   1.645   7.941  1.0682  0.3407  0.3763
  813MOL0     N 9637   6.331   1.734   8.056 -0.2345  0.1949 -0.2835
  813MOL0     C 9638   6.438   1.805   8.110 -1.2292  0.3642 -0.1686
  813MOL0     C 9639   6.403   1.823   8.241  0.0956 -0.1191  0.4137
  813MOL0     C 9640   6.482   1.903   8.344  0.0103  0.2771 -0.2000
  813MOL0     C 9641   6.389   1.968   8.440 -0.1144  0.8608 -0.4178
  813MOL0     C 9642   6.453   2.076   8.519 -0.4599  0.3230  0.5988
  813MOL0     C 9643   6.374   2.207   8.529 -0.1114 -1.0573  0.5625
  813MOL0     O 9644   6.231   2.190   8.538 -0.5312  0.4313  0.6606
  813MOL0     C 9645   6.148   2.294   8.499  0.2586  0.8237 -0.5810
  813MOL0     C 9646   6.190   2.421   8.460  0.8072 -0.2266 -0.4483
  813MOL0     C 9647   6.093   2.517   8.424  0.1229 -0.0611 -0.1910
  813MOL0     C 9648   6.135   2.658   8.413 -0.5134  0.2362 -0.4960
  813MOL0     C 9649   5.953   2.482   8.431 -0.2337  0.0065  0.8885
  813MOL0     C 9650   5.838   2.575   8.403 -0.3130  0.4361  0.2663
  813MOL0     O 9651   5.717   2.543   8.457 -0.4818  0.1445 -1.0115
  813MOL0     C 9652   5.635   2.654   8.467 -0.5079  0.2963  0.0436
  813MOL0     C 9653   5.604   2.700   8.594  0.8102 -0.6830 -1.3960
  813MOL0     C 9654   5.516   2.805   8.619 -0.1664 -0.4537 -0.4075
  813MOL0     C 9655   5.449   2.863   8.516 -0.1670  0.0157  0.3374
  813MOL0     O 9656   5.384   2.984   8.519 -0.3125 -0.0801  0.5694
  813MOL0     C 9657   5.413   3.070   8.634 -0.5002  0.5227 -0.3568
  813MOL0     C 9658   5.373   3.214   8.603 -0.7226  0.0304 -0.6371
  813MOL0     C 9659   5.234   3.243   8.650 -1.0670  0.0977 -0.6487
  813MOL0     C 9660   5.129   3.189   8.552  0.5130  0.0671 -0.5616
  813MOL0     C 9661   4.986   3.216   8.611  0.1077  0.2601  0.1726
  813MOL0     C 9662   4.893   3.301   8.535  1.0346 -0.4731  0.6946
  813MOL0     C 9663   4.844   3.236   8.405 -0.2776  0.0837 -0.3580
  813MOL0     C 9664   4.721   3.304   8.369 -0.9017  0.3456  0.3153
  813MOL0    Cl 9665   4.672   3.218   8.229  0.2423  0.1578  0.0280
  813MOL0     C 9666   5.461   2.801   8.390  0.5336 -0.6926  1.0433
  813MOL0     C 9667   5.557   2.704   8.360  0.3375 -0.1112 -0.5514
  813MOL0     O 9668   5.858   2.672   8.325 -0.5239  0.4495 -0.7493
  813MOL0     C 9669   5.915   2.358   8.479  0.3448  0.9703 -0.2871
  813MOL0     C 9670   6.015   2.271   8.518  0.6808  0.6774 -0.9955
  813MOL0     N 9671   6.279   1.772   8.261  0.3936 -0.0893 -0.0422
  813MOL0     N 9672   6.241   1.716   8.154  0.7807 -0.3053 -0.2923
  813MOL0     C 9673   6.223   2.313   7.220 -0.1946 -0.2887 -0.2261
  813MOL0     C 9674   6.286   2.386   7.120  0.2082  0.0135  0.6391
  813MOL0     C 9675   6.553   2.731   6.959 -0.6485 -0.0016  0.4706
  813MOL0     C 9676   6.478   2.802   6.869  0.2924 -0.1444 -0.8601
  813MOL0     C 9677   6.536   2.908   6.792  0.2799 -0.1250  0.1970
  813MOL0     C 9678   6.675   2.929   6.808  0.0479 -0.4350 -0.7710
  813MOL0     O 9679   6.731   3.024   6.729  0.2410 -0.3712 -0.3917
  813MOL0     C 9680   6.845   2.969   6.659  0.0451 -0.0507 -0.4344
  813MOL0     C 9681   6.946   3.079   6.592  0.4931  0.1403 -0.9866
  813MOL0     C 9682   7.031   3.166   6.686 -0.3328  0.2872  0.3461
  813MOL0     C 9683   6.991   3.309   6.714  0.7275 -0.2998 -1.0552
  813MOL0     C 9684   7.091   3.390   6.792  1.0489  0.2404 -0.4690
  813MOL0     C 9685   7.168   3.464   6.846  0.2950  1.0184 -0.9232
  813MOL0     C 9686   6.743   2.876   6.912 -0.4281  0.4823  0.0802
  813MOL0     C 9687   6.686   2.773   6.983 -0.8173  0.1319 -0.0770
  813MOL0     H 9688   6.207   2.701   7.213 -3.1700 -0.1399  0.2485
  813MOL0     H 9689   6.073   2.571   7.378 -1.5042  0.1682 -0.3447
  813MOL0     H 9690   5.999   2.126   7.477 -0.2858  1.8234  2.1207
  813MOL0     H 9691   6.157   2.124   7.389  0.6487 -4.0799  2.2352
  813MOL0     H 9692   6.236   2.300   7.558  0.3544 -1.4201  1.1985
  813MOL0     H 9693   6.093   2.256   7.658 -0.6267  0.9367 -0.7785
  813MOL0     H 9694   6.303   2.059   7.567  1.2274  1.7185 -0.0172
  813MOL0     H 9695   6.311   2.148   7.717 -0.0776 -2.6324  1.6204
  813MOL0     H 9696   6.097   2.065   7.798 -1.2914 -0.0903 -0.4346
  813MOL0     H 9697   6.093   1.973   7.646 -0.0193 -3.6117  2.7824
  813MOL0     H 9698   6.309   1.966   7.856 -1.6326  2.0667  0.5580
  813MOL0     H 9699   6.158   1.871   7.876 -0.4169  1.0671 -0.8855
  813MOL0     H 9700   6.206   1.720   7.712  0.6728 -1.9018 -0.5872
  813MOL0     H 9701   6.322   1.826   7.629 -0.6269  0.5239  0.0899
  813MOL0     H 9702   6.446   1.636   7.753 -0.4031 -0.8432 -0.3821
  813MOL0     H 9703   6.473   1.784   7.847  0.0063  0.0249 -1.5204
  813MOL0     H 9704   6.424   1.569   7.955  0.6003 -0.4704 -1.1863
  813MOL0     H 9705   6.247   1.601   7.933  1.7501 -1.1712 -0.2496
  813MOL0     H 9706   6.533   1.813   8.058 -1.9828 -0.8973 -1.8056
  813MOL0     H 9707   6.555   1.845   8.401  0.3004 -2.6395 -3.2476
  813MOL0     H 9708   6.536   1.976   8.284 -0.4570  0.2446 -0.6705
  813MOL0     H 9709   6.353   1.888   8.504  1.9457 -0.2711 -0.6179
  813MOL0     H 9710   6.302   2.017   8.395 -0.8671  1.8887  2.0197
  813MOL0     H 9711   6.558   2.098   8.495 -1.0306  1.8830 -0.7097
  813MOL0     H 9712   6.468   2.045   8.622 -0.9620 -2.1224 -0.0021
  813MOL0     H 9713   6.398   2.268   8.441 -2.5152  1.8038  1.7419
  813MOL0     H 9714   6.402   2.262   8.620  5.6727  0.6241 -1.7247
  813MOL0     H 9715   6.291   2.456   8.477  0.2256  0.7027  1.4034
  813MOL0     H 9716   6.099   2.709   8.323 -0.9246  1.6158  0.4174
  813MOL0     H 9717   6.098   2.706   8.504  2.8033  1.7685  0.2067
  813MOL0     H 9718   6.245   2.660   8.418 -0.5666  0.0116  1.9686
  813MOL0     H 9719   5.646   2.637   8.673 -1.4693  1.4689  1.7840
  813MOL0     H 9720   5.492   2.844   8.718  1.1456 -1.2564  0.2478
  813MOL0     H 9721   5.356   3.040   8.722  0.2357  2.6132  0.9102
  813MOL0     H 9722   5.519   3.073   8.662 -0.4784 -0.2680 -0.3483
  813MOL0     H 9723   5.446   3.274   8.659 -0.0968  0.2259 -1.6198
  813MOL0     H 9724   5.385   3.223   8.494 -1.8438  1.0107 -0.6973
  813MOL0     H 9725   5.235   3.352   8.665 -0.2824  0.3871 -2.4975
  813MOL0     H 9726   5.217   3.205   8.751 -0.8793  1.4566 -0.0825
  813MOL0     H 9727   5.144   3.248   8.462 -0.4702  3.8768  1.5339
  813MOL0     H 9728   5.137   3.082   8.533  1.6267 -0.3282  1.7819
  813MOL0     H 9729   4.980   3.247   8.715 -2.6358 -2.1716  0.8798
  813MOL0     H 9730   4.938   3.118   8.622 -1.5793  0.6261 -2.7587
  813MOL0     H 9731   4.814   3.324   8.608  1.0282 -0.1914  0.5968
  813MOL0     H 9732   4.941   3.394   8.504 -0.9696  0.5015  0.3113
  813MOL0     H 9733   4.834   3.127   8.409  0.5151  0.0233  2.9839
  813MOL0     H 9734   4.928   3.243   8.335  1.7226 -0.5475  1.8507
  813MOL0     H 9735   4.728   3.413   8.363  1.7703  0.4548  2.9611
  813MOL0     H 9736   4.641   3.280   8.440 -1.0060  1.8758  0.7643
  813MOL0     H 9737   5.395   2.841   8.313  0.4584  0.9597  1.9397
  813MOL0     H 9738   5.578   2.667   8.261 -0.7140 -0.5783 -0.6141
  813MOL0     H 9739   5.808   2.338   8.479 -0.0446  2.5887  2.2776
  813MOL0     H 9740   5.983   2.168   8.527 -0.9181  0.8881 -3.3307
  813MOL0     H 9741   6.230   2.205   7.224  0.4643 -0.2241  1.3018
  813MOL0     H 9742   6.329   2.334   7.035 -0.8398  1.8826 -1.0983
  813MOL0     H 9743   6.376   2.769   6.853  1.0507 -1.8514 -2.5814
  813MOL0     H 9744   6.498   2.981   6.722  2.6863  0.3289 -0.7624
  813MOL0     H 9745   6.910   2.918   6.731  3.6556  2.8124 -1.3651
  813MOL0     H 9746   6.813   2.899   6.582 -1.0022  0.7839 -0.7767
  813MOL0     H 9747   6.895   3.150   6.525 -0.4519  0.3913 -0.0306
  813MOL0     H 9748   7.009   3.031   6.516  1.0245  0.3030 -0.6529
  813MOL0     H 9749   7.123   3.170   6.627 -0.5432 -2.6651 -0.3594
  813MOL0     H 9750   7.045   3.115   6.781  1.4309  1.6026  0.8379
  813MOL0     H 9751   6.903   3.302   6.779  0.7558 -1.1110 -1.1027
  813MOL0     H 9752   6.966   3.365   6.624  0.9956  0.6837 -0.5329
  813MOL0     H 9753   7.238   3.528   6.896 -0.2916  1.7277 -1.0074
  813MOL0     H 9754   6.842   2.919   6.929 -1.0342  2.3605 -0.9245
  813MOL0     H 9755   6.759   2.721   7.044  0.1245 -0.5037 -1.6957
  814MOL0     O 9756   0.752  11.248   4.214  0.7795  0.0225  0.0843
  814MOL0     C 9757   0.727  11.138   4.252 -0.0917  0.8347 -0.7982
  814MOL0     O 9758   0.621  11.100   4.323 -0.2655  0.2415 -0.9138
  814MOL0     C 9759   0.528  11.199   4.348  0.3461 -0.1505  1.1276
  814MOL0     C 9760   0.533  11.279   4.462  0.6256 -0.5201 -0.2568
  814MOL0     C 9761   0.428  11.366   4.491  0.3198 -0.8049  0.3862
  814MOL0     C 9762   0.306  11.375   4.418 -0.7027  0.8019 -0.8347
  814MOL0     O 9763   0.202  11.446   4.462 -0.6009 -0.5799 -0.0079
  814MOL0     C 9764   0.174  11.552   4.365 -0.0211  1.1216  0.1614
  814MOL0     C 9765   0.035  11.612   4.381  0.2535 -0.6407 -0.0111
  814MOL0     C 9766  -0.070  11.502   4.393 -0.3361  0.2921  0.4207
  814MOL0     C 9767  -0.213  11.556   4.394  0.5506 -0.5646  0.2087
  814MOL0     C 9768  -0.246  11.635   4.524  0.0907 -0.5964  0.5654
  814MOL0     C 9769  -0.209  11.586   4.664 -0.2226 -0.1186  0.3011
  814MOL0     C 9770  -0.277  11.450   4.685 -0.3765 -0.3087  0.1520
  814MOL0     C 9771  -0.267  11.412   4.841  0.0805 -0.1319 -0.1831
  814MOL0     N 9772  -0.126  11.402   4.887  0.0625  0.7645  0.7522
  814MOL0     C 9773  -0.014  11.358   4.815  0.1372 -0.1870 -0.1356
  814MOL0     C 9774   0.069  11.313   4.909 -0.5853  0.0380 -0.2491
  814MOL0     C 9775   0.199  11.240   4.888 -0.7091  0.7201 -1.1295
  814MOL0     C 9776   0.304  11.230   5.008 -0.4753 -0.0653  0.5520
  814MOL0     C 9777   0.441  11.176   4.944 -0.1761  0.8963 -0.7166
  814MOL0     C 9778   0.548  11.153   5.048  1.0390  1.4132 -0.6061
  814MOL0     O 9779   0.593  11.272   5.094  0.4249  0.1156 -0.6435
  814MOL0     C 9780   0.726  11.305   5.062 -0.4462  1.1273  0.3539
  814MOL0     C 9781   0.827  11.232   5.126  0.7372 -0.0658  0.3035
  814MOL0     C 9782   0.964  11.273   5.117 -0.1814  0.3177 -0.1722
  814MOL0     C 9783   1.062  11.183   5.188 -0.0426  1.1281  1.1893
  814MOL0     C 9784   0.995  11.394   5.053  0.1015  0.4196  1.2702
  814MOL0     C 9785   1.133  11.452   5.039 -0.0128 -1.1601 -0.4419
  814MOL0     O 9786   1.213  11.413   5.143 -0.5406  0.2050  0.8602
  814MOL0     C 9787   1.345  11.456   5.138 -0.1805  0.2754  0.8432
  814MOL0     C 9788   1.382  11.588   5.177  0.0235  0.2676  0.2926
  814MOL0     C 9789   1.515  11.622   5.165 -0.2474  1.0058  1.1461
  814MOL0     C 9790   1.614  11.526   5.128  0.4495  0.2631 -0.1478
  814MOL0     O 9791   1.745  11.575   5.104  0.2257  0.8102 -0.2400
  814MOL0     C 9792   1.842  11.468   5.081  0.9443  0.1359  0.4845
  814MOL0     C 9793   1.982  11.521   5.067  0.3247  0.0694 -0.1631
  814MOL0     C 9794   2.067  11.393   5.041 -0.0346 -0.7908  0.2842
  814MOL0     C 9795   2.216  11.426   5.064  1.4619  0.0231  0.5447
  814MOL0     C 9796   2.317  11.308   5.053 -0.6571  0.1683  0.2838
  814MOL0     C 9797   2.292  11.178   5.132 -1.0541 -0.6542  0.3093
  814MOL0     C 9798   2.258  11.204   5.273  0.0337 -0.7773  0.2895
  814MOL0     C 9799   2.291  11.090   5.365  0.7187 -0.1365  0.0096
  814MOL0    Cl 9800   2.258  11.148   5.534 -0.1058  0.1418 -0.0750
  814MOL0     C 9801   1.577  11.395   5.099  0.0292  0.8618  0.4573
  814MOL0     C 9802   1.440  11.361   5.093 -0.1841 -0.1728 -0.0782
  814MOL0     O 9803   1.166  11.530   4.949 -0.7229 -0.2635  0.6202
  814MOL0     C 9804   0.889  11.447   4.966  0.2645 -0.1552 -0.2871
  814MOL0     C 9805   0.757  11.397   4.974 -0.2228  0.4499  0.9861
  814MOL0     N 9806   0.022  11.350   5.026 -0.0500  0.0340 -0.1751
  814MOL0     N 9807  -0.097  11.400   5.015 -0.5355  0.4498  0.1188
  814MOL0     C 9808   0.305  11.297   4.304 -0.2057  1.2723 -0.1451
  814MOL0     C 9809   0.412  11.208   4.273  0.8143  0.3795 -0.2722
  814MOL0     C 9810   0.820  11.035   4.209  0.2644 -0.3032 -0.0544
  814MOL0     C 9811   0.804  10.896   4.239 -0.2057 -0.1729 -0.6741
  814MOL0     C 9812   0.914  10.813   4.228 -0.5248  0.2626  0.0000
  814MOL0     C 9813   1.026  10.851   4.156 -0.6641 -0.0528  0.2624
  814MOL0     O 9814   1.125  10.764   4.118 -0.2279 -0.0052  0.1302
  814MOL0     C 9815   1.128  10.633   4.186  0.2248  0.5359  0.4040
  814MOL0     C 9816   1.045  10.536   4.099 -0.4144  0.7806  0.3477
  814MOL0     C 9817   1.125  10.516   3.975 -0.1202  0.2656  1.3057
  814MOL0     C 9818   1.069  10.385   3.906 -0.6738 -0.6794  0.0633
  814MOL0     C 9819   1.087  10.398   3.759 -0.0224  0.0148  1.6419
  814MOL0     C 9820   1.094  10.404   3.632 -0.3657 -0.3247  0.6160
  814MOL0     C 9821   1.030  10.972   4.089 -0.7625  0.1941  0.1785
  814MOL0     C 9822   0.923  11.066   4.121 -1.7543  0.3434  0.4404
  814MOL0     H 9823   0.613  11.292   4.534 -0.0178  2.2540  0.0618
  814MOL0     H 9824   0.433  11.437   4.573 -2.1849  2.2638 -1.8790
  814MOL0     H 9825   0.257  11.623   4.375  0.3032  0.7181  0.3400
  814MOL0     H 9826   0.177  11.516   4.262 -1.6581  0.5359  0.2841
  814MOL0     H 9827   0.044  11.662   4.478 -2.0011 -2.9186  1.4946
  814MOL0     H 9828   0.018  11.680   4.297 -1.6857  0.2254  1.0149
  814MOL0     H 9829  -0.063  11.424   4.318 -1.8317  1.4290 -0.9800
  814MOL0     H 9830  -0.064  11.448   4.488  2.9226 -1.7894 -0.8327
  814MOL0     H 9831  -0.231  11.624   4.310 -3.2484 -2.6970 -0.9712
  814MOL0     H 9832  -0.278  11.469   4.382 -0.9160  0.5236  0.0640
  814MOL0     H 9833  -0.201  11.733   4.504 -2.2831  0.5338  0.4177
  814MOL0     H 9834  -0.353  11.649   4.508  0.3608 -0.4149 -1.2872
  814MOL0     H 9835  -0.101  11.581   4.674 -0.3978 -0.0290  3.0326
  814MOL0     H 9836  -0.242  11.657   4.740  3.3221  1.6737  0.3204
  814MOL0     H 9837  -0.380  11.447   4.649  0.1071  0.4832 -1.4139
  814MOL0     H 9838  -0.233  11.369   4.625 -1.6485 -0.6375 -0.3813
  814MOL0     H 9839  -0.310  11.314   4.862 -1.7567  0.2887 -1.7904
  814MOL0     H 9840  -0.317  11.494   4.895 -3.2395 -1.6803 -0.6942
  814MOL0     H 9841  -0.015  11.329   4.710  0.0307 -1.0791  0.1048
  814MOL0     H 9842   0.170  11.139   4.857  0.7398  0.0637 -0.4544
  814MOL0     H 9843   0.251  11.268   4.797  0.3142  0.4863 -0.6373
  814MOL0     H 9844   0.273  11.161   5.088  1.7905 -1.8390  0.0320
  814MOL0     H 9845   0.324  11.327   5.053  1.2504 -0.0569 -0.1601
  814MOL0     H 9846   0.480  11.236   4.861  0.9213  0.4126 -0.5706
  814MOL0     H 9847   0.429  11.073   4.911  0.8569  0.3436  0.5270
  814MOL0     H 9848   0.633  11.102   5.001 -0.1833 -2.4234  1.0044
  814MOL0     H 9849   0.511  11.103   5.137 -0.2896  2.5470 -0.4922
  814MOL0     H 9850   0.787  11.144   5.175 -1.4165 -0.2686 -1.6220
  814MOL0     H 9851   1.126  11.143   5.109  0.1349  2.5830  0.5776
  814MOL0     H 9852   1.112  11.238   5.269  1.3031 -0.5536  1.5704
  814MOL0     H 9853   1.020  11.095   5.237 -2.1307  1.9789  1.0335
  814MOL0     H 9854   1.318  11.673   5.202  0.9735  1.3486 -0.8113
  814MOL0     H 9855   1.543  11.726   5.171 -1.8373  1.4621  0.9725
  814MOL0     H 9856   1.845  11.397   5.165 -2.0201 -0.2084  0.4089
  814MOL0     H 9857   1.811  11.416   4.990 -0.3703  2.7157 -0.6424
  814MOL0     H 9858   1.982  11.588   4.981 -1.0622  0.6529  0.2646
  814MOL0     H 9859   2.006  11.577   5.157  2.8084  3.3409 -2.6114
  814MOL0     H 9860   2.053  11.363   4.937  0.6783 -0.4228  0.0760
  814MOL0     H 9861   2.040  11.308   5.105  0.7848 -1.0996  0.2399
  814MOL0     H 9862   2.259  11.495   4.989 -0.5626  0.5476 -0.1853
  814MOL0     H 9863   2.241  11.464   5.163  3.3353 -1.2295  0.6139
  814MOL0     H 9864   2.411  11.353   5.086 -0.3480  0.4482 -0.9155
  814MOL0     H 9865   2.314  11.272   4.949 -0.2028  2.9514 -0.7933
  814MOL0     H 9866   2.197  11.141   5.092 -2.2112  1.3880  1.0341
  814MOL0     H 9867   2.376  11.111   5.115  1.1129  1.5135  1.7873
  814MOL0     H 9868   2.154  11.233   5.291 -0.3755 -0.7919 -1.8694
  814MOL0     H 9869   2.323  11.285   5.306 -1.1547 -0.4967  2.0703
  814MOL0     H 9870   2.399  11.071   5.360  0.5247 -1.0578 -0.9097
  814MOL0     H 9871   2.235  10.998   5.347 -1.5726  0.4826  3.0204
  814MOL0     H 9872   1.643  11.311   5.079  0.2258  1.0231  0.4054
  814MOL0     H 9873   1.409  11.261   5.067 -0.4503 -0.5283  1.4782
  814MOL0     H 9874   0.904  11.526   4.893 -2.9478  1.2972  0.4498
  814MOL0     H 9875   0.672  11.432   4.917  0.1416  4.5888  2.6333
  814MOL0     H 9876   0.215  11.280   4.246 -0.5801  3.5381 -0.3165
  814MOL0     H 9877   0.414  11.143   4.186 -0.5017 -1.0196  0.6833
  814MOL0     H 9878   0.716  10.855   4.287  0.0761  1.3475  1.2895
  814MOL0     H 9879   0.893  10.726   4.290 -1.3872  0.7605  0.4195
  814MOL0     H 9880   1.226  10.584   4.194  0.0952 -0.1241 -1.4828
  814MOL0     H 9881   1.076  10.631   4.282 -1.5233 -1.1013 -0.5032
  814MOL0     H 9882   0.949  10.580   4.069 -1.3143 -0.6824  0.9814
  814MOL0     H 9883   1.033  10.440   4.150 -0.5641  1.1256  0.9743
  814MOL0     H 9884   1.230  10.493   3.995 -0.5563  0.3382  4.0287
  814MOL0     H 9885   1.118  10.597   3.902 -1.9645  0.0495  1.1960
  814MOL0     H 9886   0.960  10.376   3.911 -0.9038  1.2322 -0.6279
  814MOL0     H 9887   1.129  10.301   3.941  1.1156  1.5658  2.8012
  814MOL0     H 9888   1.109  10.411   3.526 -2.6061 -0.0655  0.2710
  814MOL0     H 9889   1.122  10.996   4.037 -0.3526  0.6340  1.0662
  814MOL0     H 9890   0.933  11.165   4.078  0.0458 -1.2938 -3.4014
  815MOL0     O 9891   0.938   5.291   4.387 -0.2209  0.4556 -0.6842
  815MOL0     C 9892   0.997   5.349   4.289 -0.6036 -0.1220 -0.2166
  815MOL0     O 9893   1.135   5.360   4.269  0.0043  1.0528  0.0120
  815MOL0     C 9894   1.235   5.316   4.354 -0.0011  0.4441  0.5079
  815MOL0     C 9895   1.216   5.306   4.497  0.3350  0.0916  0.5206
  815MOL0     C 9896   1.330   5.259   4.573 -0.4581 -0.6364  0.8609
  815MOL0     C 9897   1.454   5.233   4.516 -0.0094  0.3801 -0.0629
  815MOL0     O 9898   1.572   5.208   4.582  0.2887  0.0851  0.3434
  815MOL0     C 9899   1.580   5.246   4.725  0.1567  0.2122  0.2736
  815MOL0     C 9900   1.704   5.184   4.792  0.1480 -0.3294 -0.0537
  815MOL0     C 9901   1.685   5.164   4.944 -0.3984 -0.0736  1.0360
  815MOL0     C 9902   1.597   5.044   4.976  0.4389  0.0447  0.0574
  815MOL0     C 9903   1.595   5.004   5.122  0.5468 -0.0012 -0.3026
  815MOL0     C 9904   1.492   4.890   5.148 -1.6242  0.1725  0.2387
  815MOL0     C 9905   1.476   4.848   5.294  0.5467 -0.1873 -0.8528
  815MOL0     C 9906   1.591   4.768   5.371 -0.0442  0.2867 -0.9755
  815MOL0     N 9907   1.659   4.673   5.288  0.4247  0.0049  0.5901
  815MOL0     C 9908   1.601   4.546   5.252 -0.1996 -0.0427  0.4909
  815MOL0     C 9909   1.690   4.492   5.162  0.4617  0.6188 -0.2094
  815MOL0     C 9910   1.659   4.381   5.070  0.0918 -0.4491  1.4099
  815MOL0     C 9911   1.534   4.301   5.110 -0.1299 -0.4717  0.6602
  815MOL0     C 9912   1.497   4.180   5.020  0.6850  0.5804 -0.3910
  815MOL0     C 9913   1.360   4.204   4.959  0.1030 -0.5517 -0.0967
  815MOL0     O 9914   1.334   4.124   4.843 -0.1377  0.6657 -0.0216
  815MOL0     C 9915   1.323   3.985   4.850  0.4962 -0.1600  0.1992
  815MOL0     C 9916   1.315   3.921   4.726 -0.6753 -1.1119  0.2154
  815MOL0     C 9917   1.333   3.787   4.730 -0.6017 -0.2318  0.2080
  815MOL0     C 9918   1.340   3.713   4.600 -0.1485 -0.0807  0.3054
  815MOL0     C 9919   1.366   3.713   4.851  0.2331  0.5615  0.5334
  815MOL0     C 9920   1.407   3.569   4.847 -0.1240  0.2098 -1.1139
  815MOL0     O 9921   1.483   3.522   4.951  0.9707  0.1488  0.0018
  815MOL0     C 9922   1.507   3.384   4.940 -0.1981  0.2046  0.1685
  815MOL0     C 9923   1.467   3.298   5.048  0.2351 -0.0025  0.3157
  815MOL0     C 9924   1.488   3.159   5.042 -0.5458 -0.1836 -0.1984
  815MOL0     C 9925   1.557   3.108   4.931 -0.1789  0.6620 -0.2338
  815MOL0     O 9926   1.575   2.966   4.933  0.0813  0.4236  0.3650
  815MOL0     C 9927   1.640   2.890   4.832  0.0482  0.3574  0.0216
  815MOL0     C 9928   1.668   2.747   4.877  0.6255  0.6055 -0.6180
  815MOL0     C 9929   1.758   2.665   4.767  0.3648  0.4331 -0.4753
  815MOL0     C 9930   1.805   2.532   4.833 -0.6714 -0.9726  0.2941
  815MOL0     C 9931   1.693   2.431   4.830  0.1704 -0.0930 -0.3687
  815MOL0     C 9932   1.704   2.331   4.707  0.3790 -0.6414  0.9570
  815MOL0     C 9933   1.575   2.254   4.704 -0.0504  0.3065 -0.2435
  815MOL0     C 9934   1.567   2.145   4.605 -0.5174  0.0288 -0.6101
  815MOL0    Cl 9935   1.399   2.084   4.607  0.1804  0.4646 -0.1480
  815MOL0     C 9936   1.591   3.182   4.818  0.5536 -0.4400 -0.3132
  815MOL0     C 9937   1.568   3.322   4.829 -0.1685  0.4684  0.5099
  815MOL0     O 9938   1.344   3.493   4.769  0.2811 -0.4261 -0.4888
  815MOL0     C 9939   1.354   3.784   4.978  0.6748 -0.1839 -0.4016
  815MOL0     C 9940   1.312   3.907   4.971 -0.1802 -0.3735 -0.2360
  815MOL0     N 9941   1.796   4.580   5.146  1.0181  1.1398 -0.0076
  815MOL0     N 9942   1.778   4.683   5.225  0.2558 -0.3849 -0.5108
  815MOL0     C 9943   1.467   5.250   4.375  1.3683  0.5067 -0.5439
  815MOL0     C 9944   1.361   5.293   4.301 -0.0023 -0.3525 -0.4740
  815MOL0     C 9945   0.907   5.408   4.197 -0.7494 -0.6809 -0.6751
  815MOL0     C 9946   0.937   5.452   4.071 -0.1667  0.2143  0.0137
  815MOL0     C 9947   0.847   5.505   3.973 -0.1038 -0.0710  0.7616
  815MOL0     C 9948   0.715   5.516   4.017  0.3993 -1.2893  0.6285
  815MOL0     O 9949   0.622   5.569   3.933  0.2954 -0.4915 -0.1988
  815MOL0     C 9950   0.599   5.706   3.952 -0.6513 -0.1732  0.2916
  815MOL0     C 9951   0.494   5.772   3.855 -0.7109  0.4548  0.6302
  815MOL0     C 9952   0.345   5.706   3.854 -0.9394 -0.6078  0.2047
  815MOL0     C 9953   0.247   5.727   3.972 -0.3695 -0.5225  0.5775
  815MOL0     C 9954   0.302   5.694   4.104 -0.2530 -0.3110  1.0287
  815MOL0     C 9955   0.352   5.665   4.214 -0.0019  0.2707  0.0770
  815MOL0     C 9956   0.677   5.476   4.146  0.2685  1.1726 -0.1083
  815MOL0     C 9957   0.768   5.422   4.220 -0.2112  1.2586  0.4810
  815MOL0     H 9958   1.125   5.324   4.555  0.3534 -0.4762  0.7383
  815MOL0     H 9959   1.308   5.229   4.674  0.2484  0.4290  1.3516
  815MOL0     H 9960   1.586   5.354   4.738 -1.2806  0.2682  0.5726
  815MOL0     H 9961   1.484   5.217   4.768 -2.0566  4.4998 -1.1797
  815MOL0     H 9962   1.719   5.086   4.746 -0.7257 -0.2977 -0.4200
  815MOL0     H 9963   1.788   5.250   4.770 -0.6145  0.1042 -1.7803
  815MOL0     H 9964   1.781   5.140   4.990  1.0378  0.4734 -1.4879
  815MOL0     H 9965   1.652   5.254   4.994 -3.3439  0.5014 -1.6106
  815MOL0     H 9966   1.501   5.086   4.946 -1.4939  0.0205  5.2157
  815MOL0     H 9967   1.619   4.960   4.911  1.4137 -0.6534  1.2410
  815MOL0     H 9968   1.688   4.960   5.159  0.0350 -4.2109 -3.3865
  815MOL0     H 9969   1.570   5.086   5.191 -3.6128 -1.6875  0.5207
  815MOL0     H 9970   1.404   4.928   5.095 -2.0322 -1.4859 -0.3287
  815MOL0     H 9971   1.530   4.802   5.097  0.0889  1.6824 -1.2212
  815MOL0     H 9972   1.456   4.937   5.354 -1.8044 -0.7930 -0.6333
  815MOL0     H 9973   1.386   4.788   5.307 -1.3797  2.5627 -0.5831
  815MOL0     H 9974   1.553   4.697   5.445  2.3326 -2.6020 -2.2963
  815MOL0     H 9975   1.663   4.837   5.417 -2.2130  1.1639  1.2890
  815MOL0     H 9976   1.505   4.506   5.283  0.0318 -0.4575  0.6763
  815MOL0     H 9977   1.658   4.427   4.971  1.7698  0.8870  1.9642
  815MOL0     H 9978   1.739   4.307   5.081 -0.8664 -2.1317 -1.8777
  815MOL0     H 9979   1.442   4.359   5.122 -0.0330  0.3255 -1.7521
  815MOL0     H 9980   1.555   4.258   5.208 -2.7644 -1.7024  0.7847
  815MOL0     H 9981   1.494   4.091   5.083  1.7313  1.0527  0.3651
  815MOL0     H 9982   1.573   4.170   4.942  0.1627 -2.3976 -0.6208
  815MOL0     H 9983   1.343   4.308   4.929 -1.8929 -0.6168  0.6244
  815MOL0     H 9984   1.279   4.180   5.028 -0.1855 -0.8169 -0.5195
  815MOL0     H 9985   1.303   3.974   4.632 -2.4912  0.3839  1.2116
  815MOL0     H 9986   1.350   3.784   4.517  1.5472  2.1232  2.2434
  815MOL0     H 9987   1.431   3.651   4.600  1.0809  1.5304 -2.3492
  815MOL0     H 9988   1.254   3.647   4.586  0.0390 -0.1368 -0.6664
  815MOL0     H 9989   1.426   3.350   5.133 -0.1748 -0.4313  0.3830
  815MOL0     H 9990   1.446   3.103   5.124  1.5653  1.2557  1.9949
  815MOL0     H 9991   1.588   2.889   4.736  1.8470 -0.5971 -0.9936
  815MOL0     H 9992   1.739   2.922   4.800  0.0726 -3.7403 -5.4402
  815MOL0     H 9993   1.721   2.756   4.972 -0.8644  2.2968  0.1140
  815MOL0     H 9994   1.568   2.702   4.875 -0.2830  2.5149 -1.5009
  815MOL0     H 9995   1.843   2.727   4.739 -2.6316  3.6884 -3.1767
  815MOL0     H 9996   1.712   2.664   4.668  0.2998  1.7273 -0.4790
  815MOL0     H 9997   1.887   2.484   4.778  2.1517  1.7047  1.8071
  815MOL0     H 9998   1.844   2.567   4.929  1.6120  1.7427 -1.4366
  815MOL0     H 9999   1.602   2.491   4.821  2.5477  3.5793 -1.9050
  815MOL0     H10000   1.692   2.372   4.923  1.8678  1.4323  0.6780
  815MOL0     H10001   1.709   2.394   4.617 -0.7960  0.0903  1.3725
  815MOL0     H10002   1.801   2.283   4.721  1.3238  1.2876  1.3638
  815MOL0     H10003   1.502   2.326   4.666 -1.5568 -1.0890 -0.1133
  815MOL0     H10004   1.538   2.223   4.802  1.9368 -0.5492  0.2759
  815MOL0     H10005   1.624   2.058   4.638  0.0227  0.5975 -0.0218
  815MOL0     H10006   1.600   2.184   4.508 -2.4414  2.0422 -0.5401
  815MOL0     H10007   1.638   3.120   4.742  0.9991  1.2027 -1.4102
  815MOL0     H10008   1.599   3.396   4.757 -0.2993 -0.6297 -0.7036
  815MOL0     H10009   1.378   3.743   5.075 -0.3167 -2.7212 -1.1335
  815MOL0     H10010   1.311   3.960   5.065 -2.6631 -0.6382 -0.0362
  815MOL0     H10011   1.566   5.233   4.333  1.8667  3.7812 -0.9289
  815MOL0     H10012   1.361   5.299   4.193  0.8024  1.9589 -0.4004
  815MOL0     H10013   1.043   5.438   4.048 -0.4015 -1.5357 -0.1875
  815MOL0     H10014   0.877   5.539   3.874 -2.1416 -3.1193 -1.0908
  815MOL0     H10015   0.564   5.709   4.056 -0.5681 -1.1628  0.3578
  815MOL0     H10016   0.689   5.767   3.940 -1.6570  0.8808 -2.7154
  815MOL0     H10017   0.533   5.756   3.753  0.6047  1.2056  0.9856
  815MOL0     H10018   0.494   5.882   3.861  0.9208  0.6015 -1.0522
  815MOL0     H10019   0.361   5.597   3.848 -0.9191 -0.5696 -0.4001
  815MOL0     H10020   0.304   5.744   3.761 -1.1127 -1.0950  0.0757
  815MOL0     H10021   0.157   5.667   3.955  0.5455 -1.8097  0.1357
  815MOL0     H10022   0.219   5.833   3.976  1.6181  0.0759 -0.2485
  815MOL0     H10023   0.415   5.645   4.299  0.4220  1.2615  0.0116
  815MOL0     H10024   0.575   5.490   4.181  0.3602  1.6450 -0.0214
  815MOL0     H10025   0.725   5.387   4.313 -0.1876 -2.0400 -0.6008
  816MOL0     O10026  10.580   8.787   3.031 -0.5352  0.0163  0.2519
  816MOL0     C10027  10.593   8.750   3.140  0.3105  0.4397  0.3528
  816MOL0     O10028  10.714   8.729   3.203 -0.0906  0.6825  0.1275
  816MOL0     C10029  10.840   8.716   3.142 -0.4436  0.0605 -0.2777
  816MOL0     C10030  10.945   8.686   3.229 -0.9675 -0.0297 -0.6510
  816MOL0     C10031  11.080   8.698   3.182  0.2174 -0.0661  0.5481
  816MOL0     C10032  11.113   8.738   3.043  0.6460 -0.6593 -0.3764
  816MOL0     O10033  11.240   8.730   2.999 -0.5020 -0.3862 -0.6574
  816MOL0     C10034  11.316   8.621   3.039 -0.1320 -0.5491  0.3237
  816MOL0     C10035  11.444   8.603   2.952  0.1102 -0.3782 -0.4039
  816MOL0     C10036  11.422   8.515   2.823  0.8218 -0.9918 -0.8079
  816MOL0     C10037  11.549   8.506   2.735 -0.2527  0.1581  0.1269
  816MOL0     C10038  11.532   8.424   2.610  0.8119 -0.6482  0.3086
  816MOL0     C10039  11.657   8.334   2.600  0.4941 -0.0808 -0.2230
  816MOL0     C10040  11.662   8.267   2.472 -0.1960  0.2927  0.0940
  816MOL0     C10041  11.796   8.182   2.445 -0.1658  0.0578 -0.2286
  816MOL0     N10042  11.808   8.149   2.305 -0.0458 -0.5759  1.0079
  816MOL0     C10043  11.728   8.063   2.230  0.5225 -0.3689 -0.1829
  816MOL0     C10044  11.778   8.052   2.105 -0.1569 -0.5201 -0.4810
  816MOL0     C10045  11.749   7.949   1.996 -1.2822  0.6258 -0.1606
  816MOL0     C10046  11.621   7.969   1.910  0.5135 -0.8771  0.3846
  816MOL0     C10047  11.612   7.898   1.778  0.6642 -0.1490 -0.0813
  816MOL0     C10048  11.484   7.929   1.701  0.3713 -0.4780  0.4620
  816MOL0     O10049  11.387   7.829   1.740  0.4100  0.3679  0.8172
  816MOL0     C10050  11.272   7.820   1.660 -0.2617 -0.2822 -0.3854
  816MOL0     C10051  11.159   7.770   1.725  1.8138  0.3728  1.5042
  816MOL0     C10052  11.040   7.746   1.649  0.5305 -0.5185  0.6966
  816MOL0     C10053  10.933   7.683   1.723  0.2095  0.0195 -0.6473
  816MOL0     C10054  11.039   7.759   1.508  0.9147  0.3311  0.5817
  816MOL0     C10055  10.923   7.736   1.423 -0.2612  0.1916 -0.4052
  816MOL0     O10056  10.847   7.835   1.381  0.7781 -0.0002 -0.1780
  816MOL0     C10057  10.865   7.968   1.415  0.4175  0.3443  0.4178
  816MOL0     C10058  10.800   8.013   1.534 -0.4964  0.7074  0.9473
  816MOL0     C10059  10.802   8.143   1.577  0.1384 -0.1426 -0.8663
  816MOL0     C10060  10.853   8.243   1.494  0.6674  0.3070  0.6920
  816MOL0     O10061  10.830   8.370   1.525 -0.6932  0.0433  0.4700
  816MOL0     C10062  10.950   8.446   1.512 -1.0063  0.3075 -0.5884
  816MOL0     C10063  11.076   8.419   1.605  0.3260 -0.8151 -0.2054
  816MOL0     C10064  11.144   8.276   1.589  0.6134 -1.0559  0.1289
  816MOL0     C10065  11.279   8.288   1.644  1.2602 -0.1443  0.1604
  816MOL0     C10066  11.291   8.365   1.776 -0.7197 -1.5902  0.6238
  816MOL0     C10067  11.410   8.307   1.865  0.6417  0.2776  1.2576
  816MOL0     C10068  11.452   8.414   1.970 -0.0434 -0.4343  0.6125
  816MOL0     C10069  11.533   8.340   2.088 -0.8030  0.3318 -0.7176
  816MOL0    Cl10070  11.446   8.192   2.153  0.1082  0.4242  0.2128
  816MOL0     C10071  10.913   8.196   1.371  0.8788  0.1543 -2.3245
  816MOL0     C10072  10.924   8.064   1.333  0.3595  0.4758 -0.2226
  816MOL0     O10073  10.887   7.615   1.418  0.4343  0.3814  0.5320
  816MOL0     C10074  11.157   7.794   1.444 -0.2181 -0.1109  0.3176
  816MOL0     C10075  11.268   7.829   1.519  0.7181  0.5975  0.2803
  816MOL0     N10076  11.894   8.130   2.101 -0.3830  0.1571  0.6226
  816MOL0     N10077  11.915   8.182   2.221  0.4271 -0.2964 -0.5240
  816MOL0     C10078  11.001   8.767   2.957  0.2165 -0.5081  0.5495
  816MOL0     C10079  10.875   8.744   3.003 -0.2310  0.0733  0.0421
  816MOL0     C10080  10.477   8.703   3.215  0.1399  0.0714 -0.6950
  816MOL0     C10081  10.487   8.606   3.314  0.9815 -0.0958 -0.1142
  816MOL0     C10082  10.365   8.573   3.389 -0.1950 -0.0688  0.1609
  816MOL0     C10083  10.235   8.612   3.340  0.3720  0.0110 -0.0207
  816MOL0     O10084  10.126   8.583   3.422 -0.2475  0.7088 -0.4885
  816MOL0     C10085   9.991   8.551   3.364  0.2589 -0.0134 -0.2183
  816MOL0     C10086   9.880   8.623   3.439 -0.3610  0.4937  0.3706
  816MOL0     C10087   9.888   8.776   3.435  0.0259 -0.1963 -0.7703
  816MOL0     C10088   9.780   8.852   3.513  0.1814 -0.0218 -0.2885
  816MOL0     C10089   9.828   8.990   3.527 -0.0592 -0.8309 -0.0311
  816MOL0     C10090   9.867   9.108   3.544 -0.1628  0.1226  0.0669
  816MOL0     C10091  10.228   8.724   3.252 -0.3903  0.2088  0.2260
  816MOL0     C10092  10.349   8.768   3.185 -0.3770 -0.1656  0.4826
  816MOL0     H10093  10.919   8.665   3.332  1.4356  0.8988  0.2118
  816MOL0     H10094  11.157   8.662   3.249  0.5111 -1.5188 -0.5203
  816MOL0     H10095  11.351   8.629   3.142  2.3887  1.0608 -0.5748
  816MOL0     H10096  11.260   8.530   3.016 -4.2486  2.1304 -1.3449
  816MOL0     H10097  11.475   8.707   2.941  0.4400 -0.4668 -0.3348
  816MOL0     H10098  11.529   8.563   3.008 -1.2899  2.3126  4.1777
  816MOL0     H10099  11.391   8.413   2.848  0.0928 -0.1540  2.1674
  816MOL0     H10100  11.338   8.563   2.774  1.3102  3.9083  2.4718
  816MOL0     H10101  11.584   8.602   2.694  0.1400  0.1336  0.3988
  816MOL0     H10102  11.635   8.472   2.793 -0.3592 -0.4255 -0.0549
  816MOL0     H10103  11.447   8.360   2.636 -2.0019  2.1940 -1.2395
  816MOL0     H10104  11.499   8.483   2.524  1.9829  0.2877  0.4727
  816MOL0     H10105  11.742   8.401   2.613  1.4145 -1.1598 -0.5234
  816MOL0     H10106  11.654   8.266   2.686  0.3598 -0.7122 -0.7158
  816MOL0     H10107  11.582   8.192   2.476  1.9045 -2.0366  0.4670
  816MOL0     H10108  11.642   8.337   2.390 -1.1273 -1.6467 -1.4149
  816MOL0     H10109  11.810   8.096   2.511  0.8807  1.2214  1.1472
  816MOL0     H10110  11.889   8.239   2.456  2.2251 -3.4862 -0.2715
  816MOL0     H10111  11.645   8.004   2.268 -1.6539  1.3801 -1.8813
  816MOL0     H10112  11.835   7.945   1.929 -0.7743 -2.8861  0.5003
  816MOL0     H10113  11.753   7.848   2.036 -0.3393  1.0690  0.9266
  816MOL0     H10114  11.608   8.075   1.889  1.9226 -1.0747 -1.8040
  816MOL0     H10115  11.532   7.943   1.967 -0.9598  2.2865 -0.2537
  816MOL0     H10116  11.603   7.789   1.790  0.1625 -0.3191 -1.7212
  816MOL0     H10117  11.697   7.926   1.715 -0.1255  0.7372 -0.7761
  816MOL0     H10118  11.516   7.934   1.597  2.7373 -1.3655  1.0740
  816MOL0     H10119  11.460   8.032   1.729 -1.0073 -1.1928  2.1030
  816MOL0     H10120  11.179   7.762   1.832  3.3785 -1.3781  1.1441
  816MOL0     H10121  10.842   7.679   1.663  2.2861  1.6847 -4.2121
  816MOL0     H10122  10.953   7.588   1.774 -1.7777  0.1933  0.5825
  816MOL0     H10123  10.904   7.748   1.807 -0.3640  1.6609 -2.0583
  816MOL0     H10124  10.757   7.940   1.602  1.4119 -1.2053  0.2429
  816MOL0     H10125  10.753   8.158   1.672  2.7061 -1.7861  0.8493
  816MOL0     H10126  10.990   8.439   1.410  0.9630  0.0981  0.1629
  816MOL0     H10127  10.923   8.549   1.537  0.4200  0.1585  1.8086
  816MOL0     H10128  11.153   8.495   1.586  0.1906 -0.6962 -0.2856
  816MOL0     H10129  11.046   8.440   1.708  3.4015  0.3077  0.5568
  816MOL0     H10130  11.141   8.242   1.485  3.3550  0.2898 -0.4805
  816MOL0     H10131  11.085   8.201   1.643  1.8094 -0.6503  2.0780
  816MOL0     H10132  11.306   8.182   1.654 -1.8053 -1.0583  0.0025
  816MOL0     H10133  11.345   8.341   1.574  0.2855  3.4407  1.7392
  816MOL0     H10134  11.199   8.363   1.835 -0.1403  1.3900  1.7848
  816MOL0     H10135  11.308   8.472   1.760 -3.7296 -1.1630 -0.2795
  816MOL0     H10136  11.370   8.211   1.901 -3.7805  0.4898 -2.1288
  816MOL0     H10137  11.491   8.281   1.797 -0.6245 -0.8346  0.0979
  816MOL0     H10138  11.367   8.469   2.011 -1.4118 -2.0127  0.0272
  816MOL0     H10139  11.525   8.478   1.921  0.4090 -2.0005 -0.8627
  816MOL0     H10140  11.546   8.410   2.171  0.1743 -1.9470  1.1946
  816MOL0     H10141  11.630   8.305   2.050 -1.6819 -2.1675 -0.8110
  816MOL0     H10142  10.963   8.260   1.298  6.3855 -0.8302  0.0881
  816MOL0     H10143  10.957   8.038   1.233 -2.0045  0.2688 -1.0224
  816MOL0     H10144  11.160   7.830   1.342 -0.6670  1.9413  0.9800
  816MOL0     H10145  11.357   7.842   1.459 -0.6982 -1.9534 -2.6153
  816MOL0     H10146  11.012   8.804   2.855 -1.3154  0.6605  0.7708
  816MOL0     H10147  10.801   8.768   2.927  0.7305 -0.5652 -1.1268
  816MOL0     H10148  10.585   8.588   3.356  1.4715  0.5350 -0.9486
  816MOL0     H10149  10.368   8.506   3.474 -0.2451  2.1384  1.9849
  816MOL0     H10150   9.987   8.570   3.256 -0.9762 -2.8678 -0.7571
  816MOL0     H10151   9.970   8.445   3.377 -2.3489  0.3981 -0.4800
  816MOL0     H10152   9.889   8.589   3.543 -0.4524  2.0253  0.8964
  816MOL0     H10153   9.784   8.590   3.398 -1.3016  1.1515  1.9267
  816MOL0     H10154   9.873   8.796   3.328  0.6106 -2.9794 -1.4666
  816MOL0     H10155   9.989   8.798   3.470 -0.3814  2.5806 -1.1379
  816MOL0     H10156   9.770   8.807   3.612  0.1651  0.6656  0.0271
  816MOL0     H10157   9.685   8.863   3.460 -0.7972  4.0385  1.8504
  816MOL0     H10158   9.901   9.208   3.559  1.7332 -0.3453 -0.7378
  816MOL0     H10159  10.138   8.781   3.230 -0.9982 -1.0565 -0.6732
  816MOL0     H10160  10.334   8.855   3.123 -0.1754  2.2763  3.6197
  817MOL0     O10161   1.679   8.949   9.375 -0.5646 -0.1502  0.2982
  817MOL0     C10162   1.713   8.875   9.293 -0.0177 -0.2837  0.1285
  817MOL0     O10163   1.646   8.775   9.244 -0.1827  0.0740  0.3473
  817MOL0     C10164   1.510   8.770   9.254  0.7123 -0.0432 -0.5982
  817MOL0     C10165   1.429   8.821   9.362 -0.3679  0.0042  0.2935
  817MOL0     C10166   1.295   8.807   9.360  0.0645  0.3182  0.4976
  817MOL0     C10167   1.235   8.731   9.262  0.7883 -0.1059 -0.0519
  817MOL0     O10168   1.104   8.687   9.263 -0.2040 -0.0289  1.1384
  817MOL0     C10169   1.028   8.701   9.135  0.4871 -0.1853  0.6719
  817MOL0     C10170   0.881   8.707   9.166  0.2582  0.2599 -0.0944
  817MOL0     C10171   0.784   8.749   9.049  0.1414 -0.0338  0.5785
  817MOL0     C10172   0.646   8.767   9.090  0.3717  0.3193  0.6183
  817MOL0     C10173   0.551   8.824   8.981  0.4444 -0.1617  0.2666
  817MOL0     C10174   0.419   8.864   9.044  0.3661 -0.4521 -0.2083
  817MOL0     C10175   0.329   8.743   9.084  0.0638 -0.3779  0.4851
  817MOL0     C10176   0.191   8.787   9.145 -0.1551  0.5549 -0.5631
  817MOL0     N10177   0.091   8.821   9.044  0.9141 -0.0616  0.7071
  817MOL0     C10178   0.037   8.729   8.957 -0.2373 -0.9399  0.8209
  817MOL0     C10179  -0.011   8.803   8.848 -1.2534  0.4486  0.6653
  817MOL0     C10180  -0.050   8.752   8.711 -0.2499 -0.5412  0.3695
  817MOL0     C10181   0.086   8.714   8.640 -0.1276 -0.9921  0.4077
  817MOL0     C10182   0.178   8.840   8.617  0.4465 -0.0750  0.2060
  817MOL0     C10183   0.306   8.810   8.547 -0.1826 -0.1247  0.6592
  817MOL0     O10184   0.361   8.699   8.621 -0.3100 -0.1525 -0.7022
  817MOL0     C10185   0.498   8.683   8.633 -0.1596 -0.5568  1.2326
  817MOL0     C10186   0.552   8.560   8.608  1.1105 -0.0743  0.6115
  817MOL0     C10187   0.686   8.525   8.622 -0.1324 -0.1472 -0.7283
  817MOL0     C10188   0.711   8.374   8.619  0.6508 -0.8200  0.2067
  817MOL0     C10189   0.764   8.640   8.637  0.4441 -0.0498  0.4065
  817MOL0     C10190   0.911   8.630   8.641 -0.3283 -0.5489  1.2694
  817MOL0     O10191   0.974   8.748   8.669 -0.1016 -0.1955 -0.2114
  817MOL0     C10192   1.108   8.759   8.635 -0.0647  0.0429  0.1883
  817MOL0     C10193   1.141   8.805   8.504  1.2746 -0.1820 -0.6746
  817MOL0     C10194   1.270   8.837   8.468  0.1696  0.7811 -0.2534
  817MOL0     C10195   1.367   8.824   8.572 -0.2235 -0.7788  0.8195
  817MOL0     O10196   1.502   8.848   8.554 -0.4911 -0.1231 -0.0052
  817MOL0     C10197   1.532   8.957   8.468  0.2050 -0.5057 -0.2378
  817MOL0     C10198   1.676   8.996   8.492  0.1490  0.0980 -0.3134
  817MOL0     C10199   1.722   9.119   8.398  0.6095 -0.2456  1.5855
  817MOL0     C10200   1.862   9.169   8.439  0.1613 -0.6610  0.1768
  817MOL0     C10201   1.902   9.293   8.357 -0.4053 -0.6374 -0.7552
  817MOL0     C10202   2.019   9.373   8.420 -0.6787  0.7052 -0.2174
  817MOL0     C10203   2.143   9.297   8.432  0.5546 -0.2389 -0.8572
  817MOL0     C10204   2.251   9.369   8.514 -0.7266 -0.2952 -0.4641
  817MOL0    Cl10205   2.231   9.307   8.692 -0.3095  0.2523 -0.4748
  817MOL0     C10206   1.339   8.779   8.692 -0.0917 -0.4606  1.1099
  817MOL0     C10207   1.208   8.746   8.730  0.0634 -0.2893 -0.6650
  817MOL0     O10208   0.969   8.525   8.619  0.3081  0.0215  0.1193
  817MOL0     C10209   0.714   8.774   8.647  0.5118  0.2926  0.2030
  817MOL0     C10210   0.575   8.796   8.654  0.0544 -0.1803 -0.2477
  817MOL0     N10211   0.011   8.932   8.887 -0.5547 -0.6999 -0.0638
  817MOL0     N10212   0.076   8.947   8.999  0.1314 -0.0619 -0.5923
  817MOL0     C10213   1.311   8.669   9.163 -0.1628  0.2458  0.2537
  817MOL0     C10214   1.452   8.691   9.153  0.4196  0.3878 -0.1501
  817MOL0     C10215   1.850   8.892   9.229 -0.9676 -0.2019 -0.2776
  817MOL0     C10216   1.929   9.007   9.270 -0.4558 -0.4819 -1.1185
  817MOL0     C10217   2.052   9.032   9.220 -0.4913 -0.5435 -0.6258
  817MOL0     C10218   2.109   8.944   9.124 -0.3097 -0.2281  0.0149
  817MOL0     O10219   2.235   8.985   9.071  0.5113 -0.2301 -0.1571
  817MOL0     C10220   2.320   8.893   8.995  1.1000  0.0844 -0.3812
  817MOL0     C10221   2.272   8.872   8.848  0.3420 -1.0800 -0.6191
  817MOL0     C10222   2.347   8.744   8.801  0.2574 -0.4352  0.7243
  817MOL0     C10223   2.329   8.738   8.654 -0.1739 -0.5268 -0.7612
  817MOL0     C10224   2.355   8.606   8.601  0.7719 -0.0375  0.6006
  817MOL0     C10225   2.364   8.493   8.550 -0.6243 -1.0146 -0.2729
  817MOL0     C10226   2.038   8.825   9.081 -0.0424 -0.2452  0.5110
  817MOL0     C10227   1.913   8.813   9.137  0.5130  0.5443  1.2739
  817MOL0     H10228   1.465   8.865   9.454  0.0815  0.5733 -0.1425
  817MOL0     H10229   1.231   8.839   9.442  2.4504  2.1313  1.7900
  817MOL0     H10230   1.064   8.794   9.089 -3.7967  1.2997 -0.1604
  817MOL0     H10231   1.045   8.620   9.065  1.0139 -0.5594  1.2192
  817MOL0     H10232   0.840   8.613   9.203 -1.6081  0.9431 -0.3089
  817MOL0     H10233   0.858   8.779   9.245  0.5991 -1.0245  1.2101
  817MOL0     H10234   0.810   8.847   9.009 -1.6795 -0.8107 -2.8560
  817MOL0     H10235   0.789   8.680   8.965 -1.0087 -0.5931  0.9466
  817MOL0     H10236   0.607   8.668   9.114 -0.4274 -0.6183 -3.7023
  817MOL0     H10237   0.649   8.835   9.176  1.8671 -0.3463  1.1257
  817MOL0     H10238   0.592   8.914   8.932  1.0914 -1.0238 -0.8199
  817MOL0     H10239   0.535   8.746   8.906  0.7462 -1.0649  1.1303
  817MOL0     H10240   0.432   8.943   9.118  0.5535  1.0413 -1.7467
  817MOL0     H10241   0.358   8.912   8.967 -2.8173 -0.8112  1.9132
  817MOL0     H10242   0.334   8.674   8.998  1.8015  0.4840 -0.1553
  817MOL0     H10243   0.382   8.692   9.165 -0.2060 -0.0767  0.8501
  817MOL0     H10244   0.211   8.875   9.208 -0.1311 -0.6623  1.2101
  817MOL0     H10245   0.158   8.722   9.227  0.0589  0.3314 -0.6534
  817MOL0     H10246   0.025   8.622   8.974 -2.5174 -0.8315  0.3237
  817MOL0     H10247  -0.115   8.665   8.724 -0.8457 -0.1601  0.0125
  817MOL0     H10248  -0.097   8.830   8.650  4.5160 -0.2283 -3.5744
  817MOL0     H10249   0.054   8.680   8.541 -1.2626 -0.3285  0.5270
  817MOL0     H10250   0.138   8.633   8.690  2.8415  1.2825  1.2754
  817MOL0     H10251   0.191   8.887   8.715 -3.2217 -0.0505  0.8067
  817MOL0     H10252   0.121   8.916   8.563 -0.3918 -1.1489 -0.4658
  817MOL0     H10253   0.366   8.901   8.546 -0.3146 -0.0129 -1.2124
  817MOL0     H10254   0.297   8.783   8.442 -1.3792 -2.0629  1.2164
  817MOL0     H10255   0.469   8.490   8.607  0.7420  0.3488  1.1834
  817MOL0     H10256   0.720   8.370   8.510 -4.9584  2.9874 -0.8591
  817MOL0     H10257   0.794   8.340   8.681 -0.1158  0.2988  1.9149
  817MOL0     H10258   0.622   8.315   8.644  0.0081 -0.3485 -0.8569
  817MOL0     H10259   1.063   8.825   8.431 -0.0002 -2.0287  0.1206
  817MOL0     H10260   1.295   8.881   8.372 -0.7908  1.1813 -0.3282
  817MOL0     H10261   1.524   8.913   8.368  1.2820  1.6148 -1.3243
  817MOL0     H10262   1.461   9.040   8.472  0.8536  0.0098  0.8645
  817MOL0     H10263   1.692   9.003   8.600  2.1640 -2.7445 -0.3036
  817MOL0     H10264   1.737   8.906   8.475 -0.6514 -0.6732  0.7786
  817MOL0     H10265   1.644   9.195   8.407  0.8501  0.2471 -0.2226
  817MOL0     H10266   1.725   9.081   8.296  1.1310  1.0051  1.1279
  817MOL0     H10267   1.853   9.200   8.543 -1.6040  0.9568 -0.3919
  817MOL0     H10268   1.939   9.093   8.430  2.7872  1.9051 -0.4423
  817MOL0     H10269   1.814   9.358   8.353  0.2336  0.3208  0.1571
  817MOL0     H10270   1.929   9.265   8.255  1.4695  2.1755 -1.1541
  817MOL0     H10271   2.052   9.459   8.361  1.3748 -0.0963 -0.2997
  817MOL0     H10272   1.995   9.407   8.521  0.4903  2.2603 -0.4338
  817MOL0     H10273   2.181   9.277   8.332  1.2129  0.1931 -0.6917
  817MOL0     H10274   2.138   9.197   8.477  3.6514  0.3710  1.1509
  817MOL0     H10275   2.223   9.475   8.521  0.6729  0.0057  2.1265
  817MOL0     H10276   2.356   9.353   8.488 -1.0657 -1.9935 -0.9027
  817MOL0     H10277   1.424   8.772   8.760  1.0870  1.3358 -0.0782
  817MOL0     H10278   1.190   8.707   8.829 -0.1516  0.6463 -0.3256
  817MOL0     H10279   0.789   8.853   8.646  1.3017 -0.4338 -1.3217
  817MOL0     H10280   0.541   8.899   8.664  1.1733  0.1838 -0.0049
  817MOL0     H10281   1.283   8.602   9.082 -1.3304  2.2153 -1.0722
  817MOL0     H10282   1.524   8.653   9.083  1.2132  1.2384  0.1810
  817MOL0     H10283   1.900   9.073   9.351 -1.3140 -0.0751 -1.7414
  817MOL0     H10284   2.112   9.114   9.259  0.1340 -1.9165  1.5052
  817MOL0     H10285   2.427   8.910   9.004  0.3721  4.5772  2.3990
  817MOL0     H10286   2.312   8.798   9.049 -3.8114  1.1522  1.2478
  817MOL0     H10287   2.305   8.963   8.796 -3.9472  0.6982 -0.6277
  817MOL0     H10288   2.165   8.875   8.826  0.8760  0.8725 -3.5292
  817MOL0     H10289   2.306   8.653   8.846 -0.7188 -0.9421 -1.0813
  817MOL0     H10290   2.453   8.736   8.827  0.1690 -1.6300  0.7729
  817MOL0     H10291   2.396   8.808   8.603 -0.0216  0.8202  1.1781
  817MOL0     H10292   2.225   8.766   8.635 -0.3107 -0.5548 -0.1059
  817MOL0     H10293   2.398   8.400   8.510 -0.2760 -1.0662  0.1331
  817MOL0     H10294   2.074   8.747   9.016  1.6206  0.6940  0.2616
  817MOL0     H10295   1.868   8.721   9.101 -0.4093  1.4696 -0.0217
  818MOL0     O10296  11.158  10.643   5.028  0.1208  0.2070 -0.1230
  818MOL0     C10297  11.125  10.721   4.939  0.4319 -0.6149  0.4394
  818MOL0     O10298  11.168  10.718   4.808 -0.3856 -0.8461 -0.1628
  818MOL0     C10299  11.164  10.587   4.757  0.0479 -0.3094  0.5415
  818MOL0     C10300  11.073  10.484   4.799  0.1100 -0.3832  0.8962
  818MOL0     C10301  11.084  10.354   4.744 -0.1176  0.6827 -0.1508
  818MOL0     C10302  11.168  10.334   4.633 -0.7295  0.2500 -0.8538
  818MOL0     O10303  11.174  10.209   4.571  0.3992  0.1725 -0.4796
  818MOL0     C10304  11.262  10.186   4.459 -0.3113  0.5537  0.3842
  818MOL0     C10305  11.238  10.046   4.403  0.4709 -0.3130 -0.2569
  818MOL0     C10306  11.093  10.018   4.343 -0.6628  0.5936  0.4916
  818MOL0     C10307  11.060   9.871   4.321 -0.0920  0.6041  0.1245
  818MOL0     C10308  10.911   9.835   4.287 -0.4350 -0.1342  0.8268
  818MOL0     C10309  10.887   9.685   4.300  0.5461 -0.6413  0.7856
  818MOL0     C10310  10.756   9.627   4.225 -0.5617  0.3705  0.3584
  818MOL0     C10311  10.769   9.619   4.086 -0.3739  0.4521  0.9161
  818MOL0     N10312  10.895   9.542   4.040 -0.6450 -0.0637 -0.1637
  818MOL0     C10313  10.953   9.564   3.912 -0.2095  0.2857  0.9162
  818MOL0     C10314  11.070   9.483   3.909  0.9812  0.4792 -0.4322
  818MOL0     C10315  11.198   9.485   3.816  0.8886 -0.3306 -0.9727
  818MOL0     C10316  11.336   9.485   3.887  1.2175  0.6015  0.1049
  818MOL0     C10317  11.408   9.621   3.918 -0.3691 -0.5133 -0.8380
  818MOL0     C10318  11.329   9.718   4.011 -0.1212 -0.4046 -0.0692
  818MOL0     O10319  11.391   9.850   4.009 -0.5818 -0.2209  0.6908
  818MOL0     C10320  11.335   9.958   3.954  0.1553  0.0182  1.0711
  818MOL0     C10321  11.425  10.055   3.917 -0.1971 -0.2640  1.4265
  818MOL0     C10322  11.385  10.171   3.853 -0.5082 -0.1389 -0.3911
  818MOL0     C10323  11.505  10.245   3.798  0.9969 -0.2776  0.4739
  818MOL0     C10324  11.249  10.187   3.815  0.3062 -0.1223  0.8202
  818MOL0     C10325  11.200  10.303   3.719  0.1801 -0.4853 -0.3192
  818MOL0     O10326  11.070  10.336   3.712  0.2934 -0.0959 -0.9239
  818MOL0     C10327  11.028  10.449   3.639 -0.5760 -0.4542 -0.5868
  818MOL0     C10328  10.891  10.473   3.646  1.3270  0.7109  0.6653
  818MOL0     C10329  10.837  10.590   3.597 -0.6801  0.1540 -0.9460
  818MOL0     C10330  10.917  10.687   3.536 -1.1764  0.3695  0.0288
  818MOL0     O10331  10.860  10.800   3.480 -0.9595  0.0610  0.7746
  818MOL0     C10332  10.723  10.791   3.434 -0.0164  0.4036 -0.1051
  818MOL0     C10333  10.694  10.881   3.313 -0.7784 -0.5641 -0.5008
  818MOL0     C10334  10.766  10.831   3.185  0.0601 -0.7865  1.0514
  818MOL0     C10335  10.681  10.866   3.052 -0.7879  0.1618 -0.2709
  818MOL0     C10336  10.725  10.766   2.943  0.9824  0.2107  0.3207
  818MOL0     C10337  10.664  10.829   2.817  0.5877 -0.1717  0.7360
  818MOL0     C10338  10.696  10.742   2.686  0.0815 -0.5032  0.5429
  818MOL0     C10339  10.588  10.644   2.648 -0.3033  0.4444  1.0057
  818MOL0    Cl10340  10.412  10.710   2.657  0.4493 -0.1883  0.1716
  818MOL0     C10341  11.058  10.669   3.529  1.1916 -0.1468 -0.5003
  818MOL0     C10342  11.111  10.551   3.583 -0.6186 -0.3615 -0.2070
  818MOL0     O10343  11.288  10.344   3.641  0.5616 -0.3758  0.6593
  818MOL0     C10344  11.156  10.100   3.874  0.0845 -0.9293 -0.0044
  818MOL0     C10345  11.199   9.990   3.945 -0.3380 -0.5012 -0.3031
  818MOL0     N10346  11.050   9.393   4.021  0.7184  0.0909 -0.1864
  818MOL0     N10347  10.949   9.434   4.101  0.1823 -0.5026  0.0977
  818MOL0     C10348  11.243  10.443   4.579 -0.7491 -0.6824  0.1835
  818MOL0     C10349  11.240  10.559   4.643 -0.8277  0.4881  0.0608
  818MOL0     C10350  11.060  10.848   4.990 -0.9236  0.1264  0.2616
  818MOL0     C10351  11.022  10.956   4.907  0.1384 -0.8338  0.7207
  818MOL0     C10352  10.970  11.067   4.963 -0.0284  0.1524 -0.1713
  818MOL0     C10353  10.938  11.077   5.100  0.5158  0.3128 -0.9527
  818MOL0     O10354  10.895  11.186   5.169  0.1466  0.4687  0.1793
  818MOL0     C10355  10.835  11.299   5.098 -0.3787  1.2292 -0.8609
  818MOL0     C10356  10.706  11.256   5.030  0.7747  0.8376 -0.1932
  818MOL0     C10357  10.634  11.380   4.972 -0.0011 -0.0934  0.4144
  818MOL0     C10358  10.503  11.313   4.900  0.2521 -0.0278  0.4242
  818MOL0     C10359  10.385  11.406   4.901 -0.7628  0.5937 -0.2003
  818MOL0     C10360  10.297  11.479   4.910  0.0749  0.4620 -0.4286
  818MOL0     C10361  10.968  10.967   5.183 -0.4639 -0.5031 -0.3194
  818MOL0     C10362  11.030  10.855   5.128 -0.8464 -0.0665  0.3973
  818MOL0     H10363  11.001  10.510   4.875 -1.4548  0.9824 -0.9346
  818MOL0     H10364  11.023  10.271   4.778 -2.3047  2.4263  0.4199
  818MOL0     H10365  11.248  10.263   4.383 -2.2232  1.8929  1.9841
  818MOL0     H10366  11.367  10.194   4.489 -0.2121  0.2266  0.1230
  818MOL0     H10367  11.323  10.031   4.335  0.3703  2.8261 -1.2540
  818MOL0     H10368  11.251   9.974   4.484 -1.0854  1.9812  2.2296
  818MOL0     H10369  11.016  10.054   4.412 -1.8156 -1.5337  0.4094
  818MOL0     H10370  11.076  10.075   4.252 -2.5762  2.6491  2.0336
  818MOL0     H10371  11.132   9.824   4.254  0.5734  1.4918  0.2058
  818MOL0     H10372  11.077   9.835   4.423  1.5766 -0.3977 -0.4685
  818MOL0     H10373  10.842   9.883   4.356 -2.6900 -1.5666 -0.3136
  818MOL0     H10374  10.898   9.877   4.186  0.8689 -1.1961  0.1868
  818MOL0     H10375  10.973   9.629   4.263 -0.1233 -0.1279 -1.8059
  818MOL0     H10376  10.874   9.663   4.406  3.8241  0.0875  1.4632
  818MOL0     H10377  10.728   9.529   4.265  0.3759  0.0633  0.2783
  818MOL0     H10378  10.678   9.701   4.248  0.9494  2.4103 -0.7571
  818MOL0     H10379  10.778   9.724   4.058  0.6587  0.0454 -0.4014
  818MOL0     H10380  10.685   9.572   4.034 -0.9203  1.2946  1.0219
  818MOL0     H10381  10.940   9.647   3.843 -0.0852 -0.9095 -0.6015
  818MOL0     H10382  11.188   9.408   3.739 -2.8519  2.3696 -3.5454
  818MOL0     H10383  11.189   9.575   3.755  0.1610  1.9058  2.1526
  818MOL0     H10384  11.395   9.421   3.821 -0.6752  0.7257 -1.8219
  818MOL0     H10385  11.326   9.437   3.985 -1.1284  0.7608 -0.0082
  818MOL0     H10386  11.406   9.664   3.817  0.3382 -0.0173 -0.6461
  818MOL0     H10387  11.507   9.603   3.960 -0.8357 -0.8092  0.1475
  818MOL0     H10388  11.319   9.683   4.114 -1.0723  1.2335  0.4411
  818MOL0     H10389  11.227   9.730   3.974  0.3229 -1.3087 -1.6465
  818MOL0     H10390  11.526  10.027   3.948  0.2475 -0.3685 -0.0720
  818MOL0     H10391  11.530  10.204   3.700 -1.4275 -0.7303 -0.0371
  818MOL0     H10392  11.474  10.349   3.782  0.4953 -0.5412 -0.3482
  818MOL0     H10393  11.587  10.255   3.870 -0.0267  0.1293  1.6223
  818MOL0     H10394  10.824  10.402   3.694  1.2179 -0.1763 -0.7411
  818MOL0     H10395  10.730  10.595   3.616 -0.7873  1.3806 -1.7231
  818MOL0     H10396  10.709  10.687   3.406  0.0644  0.4919 -0.4715
  818MOL0     H10397  10.644  10.811   3.508 -3.5499  1.4094 -3.7427
  818MOL0     H10398  10.586  10.873   3.297 -0.8145 -4.5130  0.6595
  818MOL0     H10399  10.722  10.983   3.339 -1.5111 -0.7896  1.2883
  818MOL0     H10400  10.783  10.724   3.196 -0.6130 -0.9827  0.2841
  818MOL0     H10401  10.859  10.887   3.174 -0.7503  0.6399  1.1704
  818MOL0     H10402  10.574  10.849   3.059 -1.1240  0.6606 -3.0086
  818MOL0     H10403  10.707  10.967   3.019  1.9329 -1.0467 -2.2681
  818MOL0     H10404  10.675  10.672   2.965  0.4216  0.0548 -1.4677
  818MOL0     H10405  10.833  10.752   2.935  0.9149 -0.2865  0.2734
  818MOL0     H10406  10.556  10.840   2.828  0.7727  1.7284  0.8775
  818MOL0     H10407  10.698  10.932   2.806  0.6851 -0.0179  2.2020
  818MOL0     H10408  10.792  10.690   2.700  0.0202 -1.0530 -0.9450
  818MOL0     H10409  10.706  10.805   2.598 -2.5142 -0.8858 -0.1113
  818MOL0     H10410  10.597  10.553   2.709 -0.4906 -1.2854 -1.3655
  818MOL0     H10411  10.598  10.619   2.542  0.6931  2.7034  0.5100
  818MOL0     H10412  11.124  10.747   3.491  1.9872 -1.2085 -1.3456
  818MOL0     H10413  11.219  10.547   3.574 -0.3881  0.5822  1.5586
  818MOL0     H10414  11.051  10.121   3.859  0.3926  0.6337 -0.1246
  818MOL0     H10415  11.131   9.918   3.990 -0.3858 -0.0454  0.3740
  818MOL0     H10416  11.318  10.436   4.500 -2.4797  0.2121 -1.6099
  818MOL0     H10417  11.306  10.636   4.604 -0.4277  0.0468 -0.1446
  818MOL0     H10418  11.045  10.959   4.801 -0.3621 -0.1327  0.6234
  818MOL0     H10419  10.940  11.143   4.892  0.0477  1.6380  1.3330
  818MOL0     H10420  10.814  11.366   5.182 -2.4006 -2.0127  1.4388
  818MOL0     H10421  10.897  11.351   5.024  0.2128  2.9608  0.7692
  818MOL0     H10422  10.646  11.215   5.111 -0.0184  0.1689 -1.0957
  818MOL0     H10423  10.720  11.187   4.946  0.4228 -0.2759  0.6417
  818MOL0     H10424  10.688  11.436   4.896 -3.9630  0.8326 -1.9981
  818MOL0     H10425  10.599  11.448   5.050  0.7310  0.1719  0.5237
  818MOL0     H10426  10.454  11.228   4.950 -4.3086  2.1436  0.1603
  818MOL0     H10427  10.521  11.285   4.796 -1.7233  0.7801 -0.1893
  818MOL0     H10428  10.209  11.540   4.918  2.3752  4.0180  0.2511
  818MOL0     H10429  10.941  10.959   5.288  0.7765  0.0764  0.0673
  818MOL0     H10430  11.053  10.778   5.201 -1.4229  1.1209  1.9105
  819MOL0     O10431   6.316   5.543   2.654 -0.6499  0.3877 -0.5077
  819MOL0     C10432   6.242   5.528   2.753  0.9667 -0.4047 -0.5584
  819MOL0     O10433   6.261   5.588   2.880  0.1775 -0.8586  0.2110
  819MOL0     C10434   6.379   5.647   2.903  0.5943  0.1161 -0.6468
  819MOL0     C10435   6.502   5.577   2.872  0.3963 -0.9745 -0.1890
  819MOL0     C10436   6.619   5.650   2.913 -0.3703 -1.2088  0.0982
  819MOL0     C10437   6.608   5.761   3.002 -0.6218 -0.3064  0.3903
  819MOL0     O10438   6.725   5.815   3.072 -0.8280  0.7763  0.4123
  819MOL0     C10439   6.831   5.728   3.106  0.0750 -1.2275  0.0392
  819MOL0     C10440   6.934   5.747   2.986  1.1520 -0.6264  0.6635
  819MOL0     C10441   7.065   5.682   3.004  0.3164  0.2727 -0.3899
  819MOL0     C10442   7.145   5.711   2.870 -0.4249  0.0682 -0.0062
  819MOL0     C10443   7.254   5.606   2.873  0.1683 -0.2335 -0.1753
  819MOL0     C10444   7.360   5.649   2.767 -0.2475  0.3225  0.0589
  819MOL0     C10445   7.445   5.526   2.744  0.1385 -0.0830  0.2327
  819MOL0     C10446   7.583   5.556   2.683  0.2443 -0.2351 -0.4022
  819MOL0     N10447   7.559   5.573   2.542  0.2724 -0.6244 -0.0271
  819MOL0     C10448   7.584   5.478   2.456 -0.7372 -0.8403 -0.8275
  819MOL0     C10449   7.552   5.540   2.338  0.0370  0.6084 -1.8959
  819MOL0     C10450   7.553   5.475   2.206 -0.0986  0.6309  0.0734
  819MOL0     C10451   7.472   5.560   2.103  0.1638 -0.9529 -0.3036
  819MOL0     C10452   7.441   5.513   1.960 -0.3592 -0.1868 -0.4075
  819MOL0     C10453   7.563   5.451   1.890  0.2506 -0.6807 -0.8592
  819MOL0     O10454   7.510   5.406   1.766 -0.0606 -0.2447 -0.3227
  819MOL0     C10455   7.585   5.378   1.660 -0.6975  0.3455  0.3986
  819MOL0     C10456   7.529   5.287   1.567  1.5890 -1.1817 -0.3706
  819MOL0     C10457   7.586   5.235   1.449  0.2818  0.0839 -0.1721
  819MOL0     C10458   7.496   5.141   1.360 -0.0694 -0.6118  0.4206
  819MOL0     C10459   7.721   5.271   1.412 -0.4659 -0.8122 -0.7719
  819MOL0     C10460   7.794   5.234   1.290  0.0660 -0.1252  0.2841
  819MOL0     O10461   7.920   5.238   1.296 -0.4585  0.1240  0.4316
  819MOL0     C10462   7.992   5.208   1.180  0.5045  0.0758 -0.8571
  819MOL0     C10463   8.023   5.073   1.145  0.5992  0.3968 -0.0059
  819MOL0     C10464   8.121   5.046   1.044 -0.4763 -0.0248  0.7231
  819MOL0     C10465   8.181   5.158   0.973  0.0403 -0.4028 -0.1268
  819MOL0     O10466   8.270   5.132   0.864  0.7405  0.1635  1.0744
  819MOL0     C10467   8.254   5.011   0.785  0.0676 -1.1073 -0.3776
  819MOL0     C10468   8.374   5.016   0.697  0.7000 -0.1521 -0.5263
  819MOL0     C10469   8.383   4.883   0.619 -0.3619 -0.1757  0.4133
  819MOL0     C10470   8.497   4.892   0.516  0.2856  0.3353 -0.3723
  819MOL0     C10471   8.482   4.779   0.414 -0.4200  0.4414 -0.1224
  819MOL0     C10472   8.554   4.645   0.448  0.4261 -1.0610  0.8145
  819MOL0     C10473   8.510   4.547   0.345 -0.0187 -0.5349 -0.0583
  819MOL0     C10474   8.603   4.429   0.347  0.4041 -0.3439  0.3995
  819MOL0    Cl10475   8.603   4.317   0.492 -0.2141  0.4606  0.2754
  819MOL0     C10476   8.140   5.289   0.998  0.1200  0.4566 -0.5960
  819MOL0     C10477   8.066   5.312   1.115  0.3624 -0.6444 -1.4795
  819MOL0     O10478   7.719   5.205   1.190  0.6327 -0.3340  0.0240
  819MOL0     C10479   7.785   5.360   1.508  0.1462  0.7205  0.5247
  819MOL0     C10480   7.720   5.404   1.631 -0.5959 -0.6958 -0.1472
  819MOL0     N10481   7.524   5.677   2.363 -0.3107 -0.8336 -0.2786
  819MOL0     N10482   7.524   5.698   2.489  0.2255  0.4547  0.4031
  819MOL0     C10483   6.487   5.819   3.024  0.0334 -0.4507  0.4175
  819MOL0     C10484   6.377   5.768   2.973  0.1668 -0.1900  0.3360
  819MOL0     C10485   6.120   5.466   2.709 -0.0677 -0.5205 -0.5524
  819MOL0     C10486   6.009   5.484   2.786  0.3312 -0.1727  0.0724
  819MOL0     C10487   5.879   5.421   2.754 -0.3448 -0.1650 -0.2105
  819MOL0     C10488   5.867   5.354   2.635  0.0389  0.4962 -0.3847
  819MOL0     O10489   5.753   5.301   2.593  0.6348  0.0811  0.9532
  819MOL0     C10490   5.624   5.338   2.651 -0.1463 -0.7871  0.0201
  819MOL0     C10491   5.510   5.283   2.563 -0.4906 -0.3579 -0.4662
  819MOL0     C10492   5.511   5.339   2.418 -0.1030 -0.1800 -0.1882
  819MOL0     C10493   5.390   5.285   2.345 -0.6565 -0.1586 -0.1864
  819MOL0     C10494   5.395   5.312   2.199 -0.2219  0.4240 -0.2091
  819MOL0     C10495   5.384   5.307   2.077  0.7425 -0.4174 -0.1570
  819MOL0     C10496   5.981   5.332   2.560  0.1843 -0.2553  0.4146
  819MOL0     C10497   6.108   5.390   2.590  1.0981 -0.6161 -0.6084
  819MOL0     H10498   6.516   5.486   2.815  2.8224 -1.7065  1.3873
  819MOL0     H10499   6.717   5.614   2.884  1.6328  0.3595  4.0992
  819MOL0     H10500   6.878   5.768   3.197  0.7260  1.0371 -1.2195
  819MOL0     H10501   6.792   5.627   3.118 -0.1640 -1.1278  0.1002
  819MOL0     H10502   6.890   5.704   2.896  0.1076 -0.6425  1.1632
  819MOL0     H10503   6.950   5.854   2.971  1.3825 -0.4763  1.8782
  819MOL0     H10504   7.115   5.720   3.094  0.9359  1.0505 -1.0410
  819MOL0     H10505   7.053   5.574   3.014  2.4401  0.1571  1.7522
  819MOL0     H10506   7.079   5.695   2.784 -0.7530  0.1589  0.2242
  819MOL0     H10507   7.186   5.812   2.877  3.2359 -1.3317  0.8613
  819MOL0     H10508   7.301   5.601   2.972  0.9505  1.2987 -0.4297
  819MOL0     H10509   7.216   5.504   2.862  0.1240 -0.0735 -1.8264
  819MOL0     H10510   7.318   5.683   2.673  0.1561 -2.4116 -1.2100
  819MOL0     H10511   7.408   5.723   2.832 -1.5427  0.6070  0.7211
  819MOL0     H10512   7.467   5.469   2.835 -0.2285 -1.3649 -0.4540
  819MOL0     H10513   7.392   5.453   2.682  1.2012 -0.1822 -0.6001
  819MOL0     H10514   7.659   5.482   2.710 -0.8243 -0.7403  1.3741
  819MOL0     H10515   7.629   5.650   2.717  2.9172 -2.0528  1.4197
  819MOL0     H10516   7.622   5.378   2.471  3.3051  0.7226  0.7376
  819MOL0     H10517   7.658   5.464   2.174  0.2199 -1.2035  1.5690
  819MOL0     H10518   7.517   5.372   2.212 -2.2094  1.2501 -1.0420
  819MOL0     H10519   7.522   5.654   2.078  0.6734 -1.8510 -3.0343
  819MOL0     H10520   7.372   5.584   2.142  1.2568  0.3793  1.8743
  819MOL0     H10521   7.402   5.598   1.902  1.3520 -0.2276 -1.6850
  819MOL0     H10522   7.368   5.432   1.968 -1.8723  1.1976  0.4990
  819MOL0     H10523   7.597   5.367   1.951  2.4837  0.5206 -0.3335
  819MOL0     H10524   7.638   5.529   1.872  0.8648 -1.4720 -1.8110
  819MOL0     H10525   7.426   5.261   1.587  1.1453  3.4063  6.7504
  819MOL0     H10526   7.402   5.131   1.415  1.3953 -0.0254  3.1906
  819MOL0     H10527   7.478   5.189   1.263  2.7507  1.9857  1.0439
  819MOL0     H10528   7.528   5.038   1.341 -3.9324 -2.2712  1.7522
  819MOL0     H10529   7.978   4.991   1.198  4.6766 -1.5812  0.7669
  819MOL0     H10530   8.148   4.945   1.018  0.1950  0.5282 -0.8190
  819MOL0     H10531   8.264   4.927   0.854 -0.3082  1.8705  3.6892
  819MOL0     H10532   8.159   5.006   0.731 -0.6887  0.6831  0.6888
  819MOL0     H10533   8.350   5.093   0.623  1.2423  1.1663  0.6357
  819MOL0     H10534   8.464   5.028   0.757 -0.7235 -0.1769  1.7175
  819MOL0     H10535   8.288   4.870   0.566 -0.9442  3.7227  0.1514
  819MOL0     H10536   8.385   4.801   0.691  3.0412  1.8566  2.8966
  819MOL0     H10537   8.487   4.990   0.467 -1.6057 -0.6149 -2.0652
  819MOL0     H10538   8.598   4.889   0.558  0.5469  4.2108 -0.3189
  819MOL0     H10539   8.531   4.820   0.325  1.0555  1.0995  0.9594
  819MOL0     H10540   8.375   4.763   0.396 -0.1287 -1.4480 -0.3936
  819MOL0     H10541   8.662   4.655   0.461  0.3221  0.4796  0.6796
  819MOL0     H10542   8.511   4.610   0.542 -1.5212 -0.5266  0.1759
  819MOL0     H10543   8.513   4.596   0.247  1.7330 -0.4153  0.0145
  819MOL0     H10544   8.408   4.513   0.363  0.2033 -0.8495  0.6534
  819MOL0     H10545   8.697   4.483   0.332 -0.8245  1.4991 -1.2674
  819MOL0     H10546   8.590   4.374   0.254 -0.1527  2.7472 -1.4876
  819MOL0     H10547   8.191   5.375   0.957  0.4241  2.8331  4.0758
  819MOL0     H10548   8.059   5.410   1.160 -0.5657 -2.5327  2.9863
  819MOL0     H10549   7.883   5.392   1.471 -0.7327  1.9973 -0.8201
  819MOL0     H10550   7.786   5.450   1.703 -0.9424 -1.0384  0.4006
  819MOL0     H10551   6.477   5.915   3.075 -0.8000  0.4327 -1.3289
  819MOL0     H10552   6.278   5.809   2.991 -0.8644 -2.4762  0.2800
  819MOL0     H10553   6.019   5.537   2.880 -1.3189  3.4898 -1.6236
  819MOL0     H10554   5.790   5.425   2.817 -0.3499  2.8493 -0.2477
  819MOL0     H10555   5.606   5.304   2.753 -0.8186  2.3316  1.0690
  819MOL0     H10556   5.621   5.445   2.673 -0.8172 -0.9524  0.7465
  819MOL0     H10557   5.420   5.318   2.613  0.9138  0.6935  1.4736
  819MOL0     H10558   5.508   5.175   2.576  0.9407 -0.3087  0.5022
  819MOL0     H10559   5.603   5.298   2.375 -0.5068 -1.1428 -0.1605
  819MOL0     H10560   5.511   5.448   2.429 -1.8507 -0.3604  2.4631
  819MOL0     H10561   5.299   5.329   2.387 -1.0980 -1.3099  0.0873
  819MOL0     H10562   5.375   5.181   2.374  4.6310 -0.6763  1.7417
  819MOL0     H10563   5.362   5.297   1.972  0.6783  1.1645 -0.3233
  819MOL0     H10564   5.965   5.257   2.484  1.0585 -0.6555  0.6140
  819MOL0     H10565   6.194   5.371   2.526  0.5260  1.0882 -1.9536
  820MOL0     O10566   1.529   7.444   9.223  0.5588  0.2587 -0.1260
  820MOL0     C10567   1.623   7.521   9.202  0.2178 -0.1839  0.4337
  820MOL0     O10568   1.629   7.611   9.095 -0.0859  0.5967 -0.4337
  820MOL0     C10569   1.542   7.619   9.002 -0.8124 -0.7524  0.3366
  820MOL0     C10570   1.461   7.737   8.980  0.3366 -0.5788  0.1178
  820MOL0     C10571   1.369   7.755   8.881 -0.0075  0.9231  0.8269
  820MOL0     C10572   1.365   7.660   8.782 -1.0146  0.8389 -0.4809
  820MOL0     O10573   1.269   7.660   8.687 -0.4071 -0.1715  0.1857
  820MOL0     C10574   1.131   7.669   8.721  0.0033  0.7275  0.2312
  820MOL0     C10575   1.067   7.533   8.718 -0.3445 -0.5131 -0.2550
  820MOL0     C10576   1.091   7.435   8.839  0.0530 -0.4119  0.0270
  820MOL0     C10577   1.046   7.482   8.978  0.6853 -0.4763 -0.0648
  820MOL0     C10578   1.065   7.380   9.086  0.5035 -0.2801 -0.0904
  820MOL0     C10579   1.218   7.362   9.126  0.2642 -0.1924 -0.1873
  820MOL0     C10580   1.263   7.214   9.139  0.6337 -0.1191 -0.8506
  820MOL0     C10581   1.270   7.134   9.007  0.0168 -0.0514 -0.4010
  820MOL0     N10582   1.393   7.147   8.920  0.7131 -0.6800  1.2460
  820MOL0     C10583   1.522   7.117   8.960 -0.5661 -0.2436  0.5465
  820MOL0     C10584   1.595   7.152   8.856  1.1520 -0.6424 -0.5722
  820MOL0     C10585   1.749   7.150   8.885  0.3345 -0.8898 -0.6315
  820MOL0     C10586   1.824   7.149   8.751  0.5065 -0.0111  0.1188
  820MOL0     C10587   1.821   7.282   8.671  0.4492 -0.3165  1.1949
  820MOL0     C10588   1.923   7.388   8.720 -0.2691  0.8199  0.4837
  820MOL0     O10589   1.878   7.519   8.677 -0.0930  0.5618 -0.0230
  820MOL0     C10590   1.958   7.619   8.717 -0.2402  0.0303  0.7285
  820MOL0     C10591   1.930   7.675   8.847 -0.6513  0.5806  1.1120
  820MOL0     C10592   2.014   7.765   8.896 -0.1796  0.6037 -1.0063
  820MOL0     C10593   1.964   7.841   9.018  0.9701 -0.8132 -0.7891
  820MOL0     C10594   2.135   7.807   8.826 -0.8303  0.2199 -0.6941
  820MOL0     C10595   2.237   7.906   8.875  0.5081  0.4834 -0.2675
  820MOL0     O10596   2.318   7.957   8.783 -0.0361  0.2862 -0.0377
  820MOL0     C10597   2.404   8.057   8.808 -0.2395 -0.5719  0.2532
  820MOL0     C10598   2.381   8.197   8.787  0.3934 -0.1032  0.2780
  820MOL0     C10599   2.482   8.284   8.817  0.9926  0.5961  0.3400
  820MOL0     C10600   2.611   8.249   8.842 -0.6985 -0.6518 -0.3137
  820MOL0     O10601   2.717   8.327   8.868 -0.0139 -0.7435 -0.1679
  820MOL0     C10602   2.705   8.465   8.804  0.3062  0.3581 -0.5156
  820MOL0     C10603   2.841   8.538   8.810 -0.1344 -0.2752  0.2196
  820MOL0     C10604   2.804   8.686   8.800 -0.6150 -0.5730  0.1162
  820MOL0     C10605   2.744   8.721   8.669  0.1185  1.0675 -0.2693
  820MOL0     C10606   2.756   8.865   8.614  0.2415  0.6850 -0.5227
  820MOL0     C10607   2.667   8.951   8.701 -0.5954 -0.6331  0.7405
  820MOL0     C10608   2.617   9.066   8.615 -0.5275 -0.1265 -0.3264
  820MOL0     C10609   2.714   9.155   8.523  0.3175  0.3762  0.0649
  820MOL0    Cl10610   2.761   9.088   8.359 -0.0711  0.1441  0.3962
  820MOL0     C10611   2.637   8.114   8.860  0.5280  0.9109  1.1697
  820MOL0     C10612   2.538   8.028   8.839  1.1036  0.3046 -0.2052
  820MOL0     O10613   2.225   7.941   8.992 -0.2395  0.5998  0.3170
  820MOL0     C10614   2.151   7.757   8.698 -1.3293  0.5927  0.3890
  820MOL0     C10615   2.070   7.666   8.646  0.0703 -0.8470  0.4239
  820MOL0     N10616   1.517   7.191   8.757  1.1099 -0.1563 -0.5774
  820MOL0     N10617   1.393   7.197   8.792 -0.5100 -0.4221 -0.3521
  820MOL0     C10618   1.451   7.546   8.786 -0.4014  0.0479 -0.1466
  820MOL0     C10619   1.534   7.525   8.894 -0.2232  0.1150 -0.9360
  820MOL0     C10620   1.733   7.521   9.301  0.8572  1.5164  0.3414
  820MOL0     C10621   1.713   7.450   9.423  0.3981  0.5443  0.2172
  820MOL0     C10622   1.815   7.442   9.520  0.3924  0.2182  0.5880
  820MOL0     C10623   1.928   7.519   9.504 -0.3753  0.1944  1.0734
  820MOL0     O10624   2.020   7.506   9.603  1.6073  0.0820 -0.5431
  820MOL0     C10625   2.142   7.591   9.604 -0.4028  0.3747  0.2550
  820MOL0     C10626   2.239   7.561   9.728  0.1725  0.9330  0.5341
  820MOL0     C10627   2.309   7.416   9.722  0.5365  0.2497 -0.7038
  820MOL0     C10628   2.310   7.344   9.863 -0.4602  0.2658  0.4403
  820MOL0     C10629   2.363   7.429   9.970 -0.4331  0.0720  0.2694
  820MOL0     C10630   2.399   7.499  10.068  0.1043  0.0250  0.9911
  820MOL0     C10631   1.954   7.594   9.386 -0.4512  0.5335  0.4872
  820MOL0     C10632   1.862   7.590   9.277  0.6550  1.0756 -0.3965
  820MOL0     H10633   1.453   7.816   9.054 -3.7499  0.5109 -1.2530
  820MOL0     H10634   1.302   7.839   8.889 -1.6238 -0.4609  2.7424
  820MOL0     H10635   1.102   7.721   8.814 -0.0608 -2.2450  2.0083
  820MOL0     H10636   1.079   7.723   8.641 -1.6658 -4.2334 -2.4133
  820MOL0     H10637   0.960   7.556   8.713 -0.5655 -0.1228  3.5748
  820MOL0     H10638   1.099   7.478   8.629 -0.8093 -1.1520 -0.0379
  820MOL0     H10639   1.049   7.336   8.820  2.2356 -1.4500  0.2081
  820MOL0     H10640   1.197   7.410   8.825  0.4685  1.6849 -1.1341
  820MOL0     H10641   1.107   7.570   9.001  0.2756 -0.4951  1.1689
  820MOL0     H10642   0.944   7.521   8.974 -0.2633 -2.1706  3.4469
  820MOL0     H10643   1.025   7.414   9.182 -2.2014  4.1463 -2.4409
  820MOL0     H10644   1.015   7.283   9.076 -1.0735  0.2979  1.5721
  820MOL0     H10645   1.275   7.402   9.042 -4.0764  2.5363 -2.1895
  820MOL0     H10646   1.236   7.428   9.211 -0.5754 -0.1931 -0.0012
  820MOL0     H10647   1.358   7.211   9.193 -0.5893 -0.9313  1.3963
  820MOL0     H10648   1.196   7.170   9.214  1.6530  3.4421  2.4774
  820MOL0     H10649   1.186   7.171   8.947  0.7571  0.5865 -1.0718
  820MOL0     H10650   1.258   7.026   9.016 -1.7625  0.1007 -0.4390
  820MOL0     H10651   1.560   7.098   9.060 -0.5404  0.4409  0.6675
  820MOL0     H10652   1.792   7.225   8.952  0.9704 -2.5652  0.9275
  820MOL0     H10653   1.767   7.062   8.948  0.7461 -0.1479  0.3145
  820MOL0     H10654   1.802   7.060   8.691 -1.4848 -0.1573  1.0103
  820MOL0     H10655   1.925   7.131   8.791  0.1494 -1.2443  0.5132
  820MOL0     H10656   1.723   7.329   8.677  0.8837  0.9683 -0.6027
  820MOL0     H10657   1.848   7.259   8.567  0.5220  1.9655  0.6501
  820MOL0     H10658   2.023   7.366   8.683 -1.0077  0.8758 -1.6977
  820MOL0     H10659   1.930   7.390   8.829 -1.6437 -1.9390  0.7167
  820MOL0     H10660   1.832   7.654   8.890 -0.5346 -0.1207  1.0478
  820MOL0     H10661   1.982   7.948   9.006  0.9191 -0.5336  1.3083
  820MOL0     H10662   1.855   7.834   9.023  0.8687 -0.1601 -1.7580
  820MOL0     H10663   2.025   7.811   9.103  1.2341  0.8645 -0.3512
  820MOL0     H10664   2.282   8.226   8.754  1.0565 -1.2954 -3.1533
  820MOL0     H10665   2.452   8.388   8.812 -0.2764  0.2239 -0.2095
  820MOL0     H10666   2.685   8.451   8.697 -1.0401 -0.6412 -0.1687
  820MOL0     H10667   2.624   8.519   8.854  1.6246 -1.3233  3.8780
  820MOL0     H10668   2.888   8.519   8.907 -1.2422 -2.0408  0.4606
  820MOL0     H10669   2.911   8.514   8.730  0.9219 -1.0709  1.3367
  820MOL0     H10670   2.897   8.740   8.819  0.7499 -1.8181 -2.4293
  820MOL0     H10671   2.740   8.717   8.883  0.1567  1.1770  0.1008
  820MOL0     H10672   2.804   8.657   8.604 -0.6848 -0.7767  0.7295
  820MOL0     H10673   2.637   8.703   8.659  0.3104 -0.0014 -0.5477
  820MOL0     H10674   2.729   8.848   8.509  1.5699 -0.3297 -0.7382
  820MOL0     H10675   2.860   8.899   8.617  1.0181 -1.5538  1.6455
  820MOL0     H10676   2.585   8.885   8.730 -0.2003 -2.3075 -1.6245
  820MOL0     H10677   2.720   8.995   8.786  1.2037  0.4848 -0.8507
  820MOL0     H10678   2.556   9.122   8.686 -1.7766 -0.5589 -1.0163
  820MOL0     H10679   2.532   9.031   8.555 -2.1184  2.1649  0.4850
  820MOL0     H10680   2.812   9.166   8.569  0.8491 -2.4167 -0.2518
  820MOL0     H10681   2.676   9.257   8.515 -0.8987 -0.1745 -2.2767
  820MOL0     H10682   2.731   8.075   8.899 -0.8211 -0.7916  2.9175
  820MOL0     H10683   2.554   7.924   8.864  2.8966  0.5589 -0.1704
  820MOL0     H10684   2.240   7.783   8.642 -1.3803  1.0040  0.4934
  820MOL0     H10685   2.086   7.612   8.553  0.1734 -0.4648  0.2142
  820MOL0     H10686   1.447   7.475   8.704 -0.4573  1.6393 -1.6007
  820MOL0     H10687   1.583   7.429   8.895 -0.2008  0.1170  0.7538
  820MOL0     H10688   1.627   7.385   9.438  2.1692 -2.4621 -1.6343
  820MOL0     H10689   1.802   7.370   9.601  0.3107  0.2397  0.5931
  820MOL0     H10690   2.205   7.584   9.515 -1.4910  1.0587 -0.5977
  820MOL0     H10691   2.118   7.697   9.610  3.8935  1.5052  0.7297
  820MOL0     H10692   2.179   7.573   9.818 -2.4091 -0.5264 -0.8598
  820MOL0     H10693   2.323   7.630   9.734  1.7236 -0.5316 -2.0495
  820MOL0     H10694   2.413   7.432   9.692  0.9943 -0.8971  0.2348
  820MOL0     H10695   2.255   7.352   9.651  0.0096 -1.1674  0.8959
  820MOL0     H10696   2.372   7.253   9.863  1.1372  1.3131  1.0377
  820MOL0     H10697   2.212   7.308   9.897  0.8214 -1.8776  2.2215
  820MOL0     H10698   2.438   7.566  10.142  2.3339 -1.7281  1.5160
  820MOL0     H10699   2.045   7.653   9.378 -0.2875  0.0627 -2.1192
  820MOL0     H10700   1.875   7.640   9.182  0.5317  1.8071 -0.0320
  821MOL0     O10701   3.188   0.454   6.157  0.9571 -1.0220 -0.2009
  821MOL0     C10702   3.224   0.575   6.143 -0.2150  0.2989  0.2580
  821MOL0     O10703   3.183   0.677   6.234  0.5744 -0.2965 -0.4037
  821MOL0     C10704   3.132   0.633   6.355  0.3448  0.0913 -0.3651
  821MOL0     C10705   2.997   0.619   6.355  0.7697 -0.2079 -0.8349
  821MOL0     C10706   2.922   0.610   6.474  0.1219  0.1932 -0.3936
  821MOL0     C10707   2.982   0.607   6.599  0.2931  0.1001  0.3941
  821MOL0     O10708   2.906   0.597   6.718  0.4970  0.2697  0.5766
  821MOL0     C10709   2.977   0.543   6.829  0.0141 -0.6060 -0.3015
  821MOL0     C10710   2.877   0.491   6.941 -0.5518 -1.1487  0.3274
  821MOL0     C10711   2.802   0.617   7.000 -0.3922  0.3120  0.1450
  821MOL0     C10712   2.893   0.721   7.076  0.3169  0.1422 -0.0018
  821MOL0     C10713   2.808   0.844   7.133  0.4596  0.1515  0.0083
  821MOL0     C10714   2.889   0.940   7.215 -1.4091  0.4526  0.2384
  821MOL0     C10715   2.867   1.094   7.185 -0.4590 -0.0984  0.4291
  821MOL0     C10716   2.951   1.183   7.280 -0.5748 -0.3528 -0.4189
  821MOL0     N10717   3.096   1.191   7.269  0.1544  0.0356  0.4942
  821MOL0     C10718   3.181   1.241   7.367 -0.6523 -0.6913 -0.3055
  821MOL0     C10719   3.312   1.211   7.327  0.0125 -0.4769 -0.1663
  821MOL0     C10720   3.445   1.225   7.396  0.4554  0.5361 -0.2918
  821MOL0     C10721   3.497   1.366   7.391  0.2740 -0.1228  0.0885
  821MOL0     C10722   3.612   1.391   7.473 -0.8730  0.8952 -0.3760
  821MOL0     C10723   3.746   1.325   7.428  0.6982  0.3326 -0.0661
  821MOL0     O10724   3.756   1.185   7.474 -0.2753 -0.0357 -0.1006
  821MOL0     C10725   3.772   1.094   7.376 -0.5624  1.1444  0.5611
  821MOL0     C10726   3.859   1.109   7.264 -0.2833  0.2992 -0.2411
  821MOL0     C10727   3.875   1.021   7.153  0.2810 -0.1272 -0.1216
  821MOL0     C10728   3.972   1.062   7.052 -0.1473 -0.3645 -0.2601
  821MOL0     C10729   3.789   0.907   7.160  1.3030 -0.2878  0.2430
  821MOL0     C10730   3.801   0.799   7.055  0.3316  0.3815  1.1859
  821MOL0     O10731   3.861   0.837   6.932  0.5232  0.5499 -0.4538
  821MOL0     C10732   3.938   0.752   6.858  0.0257  0.8496  1.0398
  821MOL0     C10733   3.911   0.622   6.825  0.5806 -0.8390 -0.5948
  821MOL0     C10734   3.989   0.554   6.734  0.5900  0.4461  0.5050
  821MOL0     C10735   4.094   0.608   6.654 -0.5723 -0.1444 -0.7583
  821MOL0     O10736   4.155   0.548   6.548  0.3434  0.5355  1.1646
  821MOL0     C10737   4.213   0.412   6.571  0.0923  0.3189  0.3664
  821MOL0     C10738   4.362   0.411   6.606  0.7600 -0.3252 -0.1011
  821MOL0     C10739   4.415   0.276   6.652 -0.4778 -0.1117 -0.5340
  821MOL0     C10740   4.563   0.258   6.634  0.5186  1.1507  0.3097
  821MOL0     C10741   4.599   0.110   6.641 -0.0506  0.0784  0.5130
  821MOL0     C10742   4.749   0.086   6.646 -1.3391  0.2267 -0.1789
  821MOL0     C10743   4.820   0.132   6.521  0.1986  0.1507 -1.6826
  821MOL0     C10744   4.966   0.112   6.555 -0.7666 -0.0926  0.0703
  821MOL0    Cl10745   5.051   0.271   6.574 -0.0183 -0.0783  0.0713
  821MOL0     C10746   4.127   0.736   6.701 -0.4044  0.0101 -0.1689
  821MOL0     C10747   4.052   0.805   6.800  0.7866 -0.2574 -0.5355
  821MOL0     O10748   3.788   0.680   7.089  0.2452 -0.3045 -0.3949
  821MOL0     C10749   3.705   0.889   7.266  0.5697 -0.0124 -0.0780
  821MOL0     C10750   3.703   0.976   7.379  0.4339  0.0099 -0.2103
  821MOL0     N10751   3.301   1.150   7.198 -0.1106 -0.2449 -0.1977
  821MOL0     N10752   3.175   1.150   7.171 -0.5828 -0.0150 -0.1464
  821MOL0     C10753   3.120   0.626   6.596  0.1520  0.3121 -0.5843
  821MOL0     C10754   3.195   0.637   6.478  0.1040  0.1955 -0.5346
  821MOL0     C10755   3.296   0.612   6.029  0.3235 -0.2976  0.1581
  821MOL0     C10756   3.326   0.742   5.997  0.5294 -0.2078 -0.2571
  821MOL0     C10757   3.408   0.790   5.891 -0.1049 -0.2559 -0.1524
  821MOL0     C10758   3.466   0.692   5.809 -0.5019  0.9777  0.6624
  821MOL0     O10759   3.568   0.707   5.710 -0.3261  0.4693  0.2510
  821MOL0     C10760   3.670   0.807   5.744  0.0449  0.1249 -0.2853
  821MOL0     C10761   3.631   0.961   5.705  0.3831  0.6919  0.7680
  821MOL0     C10762   3.703   1.004   5.576  0.1586 -0.5078 -0.8256
  821MOL0     C10763   3.645   0.953   5.447 -0.0987  0.2196 -0.7597
  821MOL0     C10764   3.734   0.997   5.334 -0.0626 -0.0671 -0.0953
  821MOL0     C10765   3.827   1.026   5.263 -0.2511  0.8110 -0.4447
  821MOL0     C10766   3.435   0.557   5.838 -0.5526  0.4920  0.3204
  821MOL0     C10767   3.353   0.519   5.938 -0.6022 -0.8006  0.5476
  821MOL0     H10768   2.939   0.605   6.264 -1.3933 -0.5970  0.5418
  821MOL0     H10769   2.814   0.610   6.470  0.1536  0.4589 -1.5082
  821MOL0     H10770   3.034   0.455   6.797  0.6327 -0.1749 -0.4160
  821MOL0     H10771   3.046   0.618   6.870 -1.8369  1.6200 -1.0731
  821MOL0     H10772   2.807   0.423   6.892 -0.4568  1.2651 -3.7078
  821MOL0     H10773   2.940   0.435   7.011  0.7070 -1.8103 -1.2681
  821MOL0     H10774   2.738   0.666   6.926  0.6853  1.4424 -0.0638
  821MOL0     H10775   2.738   0.575   7.078  0.8700 -0.6424  0.7050
  821MOL0     H10776   2.944   0.669   7.157 -0.5886 -0.4086  0.2289
  821MOL0     H10777   2.978   0.761   7.020  1.0700 -1.2673  0.0935
  821MOL0     H10778   2.769   0.905   7.051  0.2774 -1.5097 -1.1909
  821MOL0     H10779   2.727   0.792   7.185 -0.3889  1.3711 -0.0403
  821MOL0     H10780   2.878   0.913   7.320  0.2787 -0.9031  0.1211
  821MOL0     H10781   2.996   0.918   7.203 -1.6986 -1.9674  1.5803
  821MOL0     H10782   2.900   1.124   7.085 -1.4339  1.3257  0.5250
  821MOL0     H10783   2.761   1.118   7.189  0.0503  2.1829  1.6048
  821MOL0     H10784   2.916   1.155   7.380  0.8290  0.5943  0.3671
  821MOL0     H10785   2.910   1.284   7.270 -1.1161 -0.4505  0.6894
  821MOL0     H10786   3.135   1.284   7.456 -0.5982 -0.0428 -0.5836
  821MOL0     H10787   3.435   1.198   7.501 -0.3435  1.0089 -0.2416
  821MOL0     H10788   3.524   1.163   7.351  1.4905  0.9950  0.8245
  821MOL0     H10789   3.417   1.438   7.409  2.4699  2.7448 -0.9212
  821MOL0     H10790   3.530   1.386   7.288  0.3679  1.1723  0.3578
  821MOL0     H10791   3.600   1.362   7.578 -1.9901 -1.6200 -1.1258
  821MOL0     H10792   3.625   1.499   7.479  1.6006  0.5824  1.8171
  821MOL0     H10793   3.833   1.385   7.455  0.6664  0.2634  0.1951
  821MOL0     H10794   3.730   1.325   7.320 -2.2697 -0.3339  0.2780
  821MOL0     H10795   3.906   1.206   7.259  1.3602 -0.3131  1.8840
  821MOL0     H10796   4.014   1.159   7.083 -0.0003 -1.0476  1.8366
  821MOL0     H10797   4.052   0.991   7.030  1.4428  1.3972 -0.4320
  821MOL0     H10798   3.920   1.093   6.961  1.4202 -0.7679 -1.3240
  821MOL0     H10799   3.815   0.589   6.863 -0.3085 -0.1535 -2.1425
  821MOL0     H10800   3.954   0.452   6.718 -1.4903  0.9502  1.4857
  821MOL0     H10801   4.156   0.350   6.642  3.5757  0.2469  3.3594
  821MOL0     H10802   4.192   0.353   6.481  1.1701 -0.7375  0.7866
  821MOL0     H10803   4.411   0.455   6.518 -0.7424  3.9147  0.9187
  821MOL0     H10804   4.392   0.488   6.679 -1.8861  0.1278  0.6078
  821MOL0     H10805   4.350   0.203   6.603  0.6538 -1.9525  0.6126
  821MOL0     H10806   4.402   0.277   6.760  0.0744  1.4135 -0.4491
  821MOL0     H10807   4.597   0.302   6.539  0.2041  1.6545  0.4303
  821MOL0     H10808   4.619   0.302   6.717  0.3064  1.5524  0.2393
  821MOL0     H10809   4.559   0.045   6.563 -3.6370 -1.6517  3.4847
  821MOL0     H10810   4.560   0.073   6.736  2.0980 -2.1924  0.6330
  821MOL0     H10811   4.782   0.142   6.734 -0.4801  0.3417 -0.5583
  821MOL0     H10812   4.764  -0.021   6.665 -0.0441  0.5630  0.8957
  821MOL0     H10813   4.791   0.237   6.507 -1.4788 -0.2426 -1.4402
  821MOL0     H10814   4.793   0.077   6.431 -0.7389 -0.5285 -1.0098
  821MOL0     H10815   5.017   0.051   6.481  0.4384  0.1655  0.6592
  821MOL0     H10816   4.969   0.050   6.646 -3.3725  0.9909  0.9892
  821MOL0     H10817   4.206   0.793   6.654 -2.5218  5.5315  2.2148
  821MOL0     H10818   4.092   0.903   6.823 -2.8205  1.3362 -0.3683
  821MOL0     H10819   3.646   0.798   7.261  1.3218 -0.6323  1.6992
  821MOL0     H10820   3.639   0.964   7.466 -1.7848  1.5546 -1.5373
  821MOL0     H10821   3.168   0.629   6.694 -3.4824 -0.5843  1.4156
  821MOL0     H10822   3.301   0.659   6.476 -0.0616  1.0067 -2.4257
  821MOL0     H10823   3.268   0.804   6.066  0.9986 -1.8411  1.7127
  821MOL0     H10824   3.422   0.897   5.876  3.1984 -0.4487  0.7719
  821MOL0     H10825   3.683   0.800   5.853  2.4928  1.3361 -0.4433
  821MOL0     H10826   3.772   0.785   5.711  0.6182 -0.5868  1.7969
  821MOL0     H10827   3.648   1.033   5.786 -2.5618  1.5119  0.7656
  821MOL0     H10828   3.524   0.960   5.681  0.9268 -2.8580 -2.3713
  821MOL0     H10829   3.806   0.973   5.594  0.2074 -1.1532 -2.1193
  821MOL0     H10830   3.689   1.113   5.571  0.5135 -0.2787  1.6752
  821MOL0     H10831   3.544   0.995   5.442 -0.8652 -1.3193  0.7924
  821MOL0     H10832   3.638   0.844   5.446  0.4525  0.0907  2.0848
  821MOL0     H10833   3.910   1.059   5.203 -1.8298  0.8526 -2.7379
  821MOL0     H10834   3.475   0.475   5.779 -4.4475 -0.5419 -1.1957
  821MOL0     H10835   3.338   0.412   5.950  0.2708 -0.9562  0.3118
  822MOL0     O10836   3.535   7.651  10.237  0.2319 -0.0568 -0.5248
  822MOL0     C10837   3.655   7.633  10.214  0.6791  0.2037  0.6126
  822MOL0     O10838   3.700   7.622  10.084 -0.1813  0.3003 -0.1590
  822MOL0     C10839   3.620   7.563   9.985 -0.9070 -0.8480 -0.7100
  822MOL0     C10840   3.530   7.468  10.006  0.5126  0.6133 -0.2638
  822MOL0     C10841   3.481   7.395   9.903  0.6454  0.4794  0.6263
  822MOL0     C10842   3.516   7.419   9.768 -0.2880  0.7736  0.2495
  822MOL0     O10843   3.455   7.342   9.673  0.3599  0.1350 -0.1162
  822MOL0     C10844   3.526   7.303   9.557  0.4711 -0.5846  0.8326
  822MOL0     C10845   3.448   7.234   9.459  0.4926  0.0058 -0.2192
  822MOL0     C10846   3.332   7.321   9.408 -0.4907 -0.7098 -0.3363
  822MOL0     C10847   3.337   7.341   9.260 -0.1904  0.3120 -1.0695
  822MOL0     C10848   3.457   7.442   9.223  1.0421 -0.2849  0.4587
  822MOL0     C10849   3.423   7.534   9.094  0.1944 -0.2575 -0.0060
  822MOL0     C10850   3.535   7.638   9.075 -0.5928  0.2623  0.6932
  822MOL0     C10851   3.537   7.752   9.180 -0.4912  0.0656 -0.1430
  822MOL0     N10852   3.581   7.879   9.110 -1.0913  1.1983 -0.2433
  822MOL0     C10853   3.711   7.900   9.063 -0.4150  0.4932 -0.9859
  822MOL0     C10854   3.717   8.022   9.019  0.3124  0.3953 -0.1648
  822MOL0     C10855   3.836   8.098   8.946 -0.3355  0.4434 -0.4036
  822MOL0     C10856   3.803   8.094   8.794  0.0638 -0.7331  0.2130
  822MOL0     C10857   3.931   8.123   8.716  0.5912 -0.9445 -0.0736
  822MOL0     C10858   3.899   8.248   8.623 -0.6413  0.6065 -0.0514
  822MOL0     O10859   4.008   8.276   8.544  0.6307  0.6288 -0.1330
  822MOL0     C10860   4.117   8.349   8.588  0.0846  0.3648 -0.3728
  822MOL0     C10861   4.125   8.418   8.712  0.4326 -0.2001  0.0570
  822MOL0     C10862   4.239   8.499   8.743 -0.1572 -0.1136 -0.4042
  822MOL0     C10863   4.257   8.540   8.882  0.6198  0.9220  0.2586
  822MOL0     C10864   4.344   8.519   8.653 -0.4516  0.4705  0.6682
  822MOL0     C10865   4.467   8.607   8.671  0.2131  0.0316  0.5138
  822MOL0     O10866   4.454   8.707   8.763  0.4222  0.0990 -0.1658
  822MOL0     C10867   4.560   8.790   8.787  0.2813 -0.7733  0.0194
  822MOL0     C10868   4.588   8.905   8.723  0.1318  0.5066  0.9308
  822MOL0     C10869   4.693   8.982   8.768 -0.3497  0.2193  0.9759
  822MOL0     C10870   4.754   8.948   8.891 -0.7543 -0.3697 -1.0093
  822MOL0     O10871   4.847   9.043   8.933 -0.0104  0.1870 -0.4247
  822MOL0     C10872   4.966   8.994   9.004 -0.9161 -1.1103 -0.9373
  822MOL0     C10873   5.038   9.123   9.029 -0.5650  0.0925 -0.2263
  822MOL0     C10874   5.127   9.121   9.157  0.5525  0.0403 -0.3694
  822MOL0     C10875   5.168   9.259   9.216  0.5954  0.2081 -0.5996
  822MOL0     C10876   5.250   9.245   9.340 -0.8591 -0.5072  0.4195
  822MOL0     C10877   5.285   9.372   9.414 -0.3183  0.8258 -0.0271
  822MOL0     C10878   5.374   9.340   9.536 -0.0721 -0.1874  0.5094
  822MOL0     C10879   5.403   9.464   9.624  0.8846  0.7202 -0.0649
  822MOL0    Cl10880   5.490   9.571   9.515 -0.8708  0.6422  0.0127
  822MOL0     C10881   4.730   8.830   8.955  0.2215  0.3773 -0.7286
  822MOL0     C10882   4.635   8.744   8.900  1.3899  0.6040  0.3255
  822MOL0     O10883   4.562   8.602   8.590  0.7688 -0.1296  0.6237
  822MOL0     C10884   4.336   8.455   8.525 -0.8079 -0.1737  0.6937
  822MOL0     C10885   4.226   8.375   8.491  0.2691 -0.2627  0.4703
  822MOL0     N10886   3.591   8.084   9.031  0.1696 -0.1597 -0.2051
  822MOL0     N10887   3.518   7.992   9.088  0.8260 -0.6019  1.0361
  822MOL0     C10888   3.616   7.518   9.744 -0.5839 -0.3161 -0.1436
  822MOL0     C10889   3.662   7.594   9.857 -0.5192  0.5676  0.0144
  822MOL0     C10890   3.746   7.654  10.326  0.3395 -0.1633 -0.0132
  822MOL0     C10891   3.883   7.684  10.301 -0.7946  1.0541  0.0922
  822MOL0     C10892   3.980   7.720  10.400  0.3697  0.6588 -0.0568
  822MOL0     C10893   3.944   7.737  10.532 -0.2694  1.3045 -0.2920
  822MOL0     O10894   4.047   7.757  10.623  0.5623  0.3217 -0.0984
  822MOL0     C10895   4.012   7.748  10.759 -0.3525 -0.7905  0.0241
  822MOL0     C10896   4.142   7.758  10.833  1.2020 -0.0073  1.1740
  822MOL0     C10897   4.218   7.627  10.848 -0.0139  0.2721  0.5957
  822MOL0     C10898   4.357   7.654  10.904 -0.5768  0.3021 -0.4700
  822MOL0     C10899   4.416   7.516  10.932 -0.0911 -0.9456  0.1389
  822MOL0     C10900   4.474   7.413  10.956  1.0678  0.0110 -0.7132
  822MOL0     C10901   3.801   7.739  10.546 -0.8718 -0.7219  0.6175
  822MOL0     C10902   3.705   7.687  10.459  0.4769  0.0346 -0.7438
  822MOL0     H10903   3.479   7.451  10.100 -0.3501  3.7981 -0.0224
  822MOL0     H10904   3.418   7.308   9.921  0.3689  0.9196  1.8889
  822MOL0     H10905   3.558   7.396   9.508  1.1094 -0.7190  0.9872
  822MOL0     H10906   3.613   7.241   9.584  0.1452 -0.6037  1.9159
  822MOL0     H10907   3.502   7.193   9.374 -1.6104 -1.0109 -1.1398
  822MOL0     H10908   3.403   7.147   9.509 -1.3471 -1.6644 -4.3687
  822MOL0     H10909   3.235   7.283   9.441 -1.2313  0.3305 -1.2428
  822MOL0     H10910   3.338   7.418   9.458  0.8512 -1.2200  0.5625
  822MOL0     H10911   3.355   7.249   9.203  4.5402  1.4821 -1.9432
  822MOL0     H10912   3.240   7.387   9.242  0.0596  1.3449  0.0973
  822MOL0     H10913   3.483   7.507   9.307 -0.5349  1.4399 -0.3068
  822MOL0     H10914   3.546   7.381   9.206  0.2113 -0.4086 -6.0281
  822MOL0     H10915   3.404   7.485   8.998  2.2331  1.9845 -1.6539
  822MOL0     H10916   3.331   7.587   9.121 -1.2052 -1.2154 -2.5564
  822MOL0     H10917   3.628   7.580   9.074 -1.2698 -0.8633 -0.9404
  822MOL0     H10918   3.517   7.678   8.975 -0.2462 -1.2826 -0.0201
  822MOL0     H10919   3.602   7.729   9.265  0.0185  4.7771  1.0162
  822MOL0     H10920   3.437   7.775   9.217 -0.9319 -0.9836 -0.6490
  822MOL0     H10921   3.797   7.835   9.056  0.9486  1.9740  0.8288
  822MOL0     H10922   3.864   8.201   8.971  1.2083  0.8372 -3.2587
  822MOL0     H10923   3.927   8.038   8.957  1.6138  3.6167  3.4058
  822MOL0     H10924   3.723   8.167   8.782  1.1331  0.3740 -0.3783
  822MOL0     H10925   3.765   7.996   8.764  0.7043 -0.3214 -2.0663
  822MOL0     H10926   3.961   8.030   8.665 -1.9240 -3.2252  2.2553
  822MOL0     H10927   4.016   8.143   8.781  0.4328  2.3951 -0.6992
  822MOL0     H10928   3.873   8.339   8.678 -2.1595  1.3492 -1.8683
  822MOL0     H10929   3.820   8.216   8.554 -0.4849  2.3932 -1.1206
  822MOL0     H10930   4.046   8.406   8.786 -0.9085 -0.1549 -1.3108
  822MOL0     H10931   4.361   8.528   8.913 -0.1908 -1.5096  2.3682
  822MOL0     H10932   4.229   8.644   8.899  3.6525  1.5600  1.9445
  822MOL0     H10933   4.208   8.463   8.942  2.6532 -1.5558 -1.0375
  822MOL0     H10934   4.523   8.945   8.645  1.7094  0.9221 -0.2329
  822MOL0     H10935   4.745   9.062   8.716  0.2161 -1.1139 -0.5792
  822MOL0     H10936   4.955   8.938   9.097 -0.5565  2.3026  1.3047
  822MOL0     H10937   5.030   8.932   8.941 -2.1408 -0.3779 -3.0002
  822MOL0     H10938   5.102   9.170   8.954 -0.9125  2.5964  0.9390
  822MOL0     H10939   4.970   9.202   9.063 -1.0298 -0.4659  0.1775
  822MOL0     H10940   5.219   9.066   9.134  1.4040  0.7193  1.2932
  822MOL0     H10941   5.080   9.063   9.237  3.6248 -1.1357  0.7488
  822MOL0     H10942   5.231   9.306   9.140  1.4695 -0.9203 -0.6099
  822MOL0     H10943   5.084   9.324   9.240 -0.7482 -0.5466 -2.9526
  822MOL0     H10944   5.338   9.188   9.310 -0.7396  0.4529 -1.1878
  822MOL0     H10945   5.186   9.193   9.412 -0.8746 -0.7503  0.2323
  822MOL0     H10946   5.327   9.441   9.340  1.7008  1.8909  1.9801
  822MOL0     H10947   5.191   9.415   9.451 -0.9537 -1.4878  1.2014
  822MOL0     H10948   5.466   9.291   9.501 -0.8758 -1.9215  0.7366
  822MOL0     H10949   5.325   9.269   9.603 -3.9119  2.6881  1.0850
  822MOL0     H10950   5.470   9.427   9.702  2.2517  0.0444 -1.5124
  822MOL0     H10951   5.309   9.503   9.665  0.0149 -1.9347  0.6277
  822MOL0     H10952   4.772   8.814   9.054  2.2048  3.1365 -1.0287
  822MOL0     H10953   4.626   8.650   8.954  3.1091  0.5977  0.6599
  822MOL0     H10954   4.419   8.454   8.455 -0.4935 -1.7531  1.0449
  822MOL0     H10955   4.226   8.309   8.405 -3.9127  1.8484 -1.4066
  822MOL0     H10956   3.640   7.530   9.639 -1.6885 -1.3853 -0.5465
  822MOL0     H10957   3.740   7.668   9.845 -0.9712  1.0872  0.2222
  822MOL0     H10958   3.921   7.673  10.200 -0.5259 -2.7828  0.4717
  822MOL0     H10959   4.082   7.735  10.366  0.1519  1.8538 -0.2178
  822MOL0     H10960   3.945   7.834  10.769  0.8596  0.3606 -1.2086
  822MOL0     H10961   3.960   7.653  10.773 -0.2483 -1.2565 -2.2388
  822MOL0     H10962   4.124   7.794  10.935 -3.2877  0.5904  0.3435
  822MOL0     H10963   4.199   7.835  10.780 -1.2460  0.3820 -1.0684
  822MOL0     H10964   4.238   7.583  10.750  0.9263 -4.3709  2.6080
  822MOL0     H10965   4.154   7.559  10.904  0.8943 -0.3222  0.9276
  822MOL0     H10966   4.353   7.716  10.993  0.8379 -0.0907 -0.1082
  822MOL0     H10967   4.430   7.688  10.829  1.2915 -1.7829  0.2705
  822MOL0     H10968   4.515   7.317  10.981 -3.6180 -1.8627  0.9283
  822MOL0     H10969   3.760   7.784  10.636  1.0664  1.8568  0.3352
  822MOL0     H10970   3.602   7.671  10.488  0.2396  0.1302 -1.5112
  823MOL0     O10971   1.760  10.306  11.085  0.0189 -0.2879 -0.4694
  823MOL0     C10972   1.731  10.427  11.083 -0.6369  0.0307 -0.2753
  823MOL0     O10973   1.639  10.489  11.008 -0.5781  0.3258  0.2850
  823MOL0     C10974   1.557  10.406  10.943  0.7913 -0.0534  0.1077
  823MOL0     C10975   1.595  10.309  10.847 -0.2649  0.2821 -0.5484
  823MOL0     C10976   1.500  10.223  10.784  0.6649 -0.5831  0.3731
  823MOL0     C10977   1.366  10.225  10.820 -0.2124 -0.5284  0.3218
  823MOL0     O10978   1.283  10.124  10.776  0.1178  0.2446 -0.0113
  823MOL0     C10979   1.196  10.063  10.875 -0.5648 -0.4126  0.1206
  823MOL0     C10980   1.160   9.923  10.825  0.0671 -0.0826  0.6264
  823MOL0     C10981   1.096   9.854  10.942 -0.1560 -1.5180 -0.1906
  823MOL0     C10982   1.063   9.711  10.914  0.7110  0.1609  0.0123
  823MOL0     C10983   0.972   9.638  11.019  0.1563  0.2930  0.2416
  823MOL0     C10984   1.047   9.613  11.144 -0.1423 -0.9071  0.1072
  823MOL0     C10985   0.966   9.508  11.215  0.1463  0.0808 -0.2600
  823MOL0     C10986   1.049   9.424  11.320 -0.5502 -0.1281 -0.7371
  823MOL0     N10987   0.950   9.358  11.396 -0.7510  0.3167  0.4373
  823MOL0     C10988   0.950   9.354  11.529 -0.0322 -0.4960  0.3765
  823MOL0     C10989   0.858   9.256  11.566 -0.3637 -0.1599  0.1681
  823MOL0     C10990   0.837   9.208  11.705 -0.3866 -0.4557 -0.4452
  823MOL0     C10991   0.709   9.126  11.735 -0.5320 -0.1469  0.4584
  823MOL0     C10992   0.600   9.219  11.798  0.3183  0.1301 -0.5967
  823MOL0     C10993   0.608   9.247  11.943  0.7574 -0.1728 -0.0397
  823MOL0     O10994   0.577   9.125  12.012  1.0477  0.1731 -0.3968
  823MOL0     C10995   0.448   9.085  12.030 -0.0648 -0.1005  0.1187
  823MOL0     C10996   0.329   9.158  11.997 -0.1095 -0.4805  0.3872
  823MOL0     C10997   0.210   9.096  12.021 -0.2827 -1.3524 -0.3444
  823MOL0     C10998   0.096   9.184  11.986  0.4942 -0.2015 -0.8309
  823MOL0     C10999   0.198   8.964  12.075  1.0232  0.7393  0.5229
  823MOL0     C11000   0.066   8.885  12.094 -0.1767 -0.1416  0.4963
  823MOL0     O11001   0.070   8.799  12.190 -0.1839  0.6339  0.3471
  823MOL0     C11002  -0.046   8.733  12.224  1.3617  0.2051  0.0619
  823MOL0     C11003  -0.165   8.795  12.275  0.3631 -0.2821 -2.2021
  823MOL0     C11004  -0.274   8.717  12.302 -0.4012  0.1341  0.0726
  823MOL0     C11005  -0.264   8.579  12.290 -0.2024 -0.0592  0.0986
  823MOL0     O11006  -0.370   8.495  12.296  0.1571  0.0408 -0.4958
  823MOL0     C11007  -0.487   8.533  12.230  0.7870  0.2973  0.5946
  823MOL0     C11008  -0.572   8.413  12.206  0.2606  0.3849  0.8099
  823MOL0     C11009  -0.654   8.360  12.334 -0.7329  0.5485  0.1813
  823MOL0     C11010  -0.581   8.234  12.402  0.6209 -0.4739 -0.4147
  823MOL0     C11011  -0.611   8.101  12.331  0.1556  0.6949  1.5335
  823MOL0     C11012  -0.543   7.986  12.406 -0.8533  1.2007 -0.0346
  823MOL0     C11013  -0.500   7.883  12.300  0.6648  0.2570 -0.5112
  823MOL0     C11014  -0.423   7.773  12.379 -0.1688 -0.9490 -0.2946
  823MOL0    Cl11015  -0.293   7.834  12.477  0.2553 -0.3836 -0.1556
  823MOL0     C11016  -0.148   8.517  12.255 -0.2738  0.1651  0.3553
  823MOL0     C11017  -0.038   8.592  12.217 -0.2478 -0.5048  0.3993
  823MOL0     O11018  -0.025   8.918  12.020 -0.5139  0.4312  0.2617
  823MOL0     C11019   0.323   8.907  12.120 -0.5491  0.2353  0.3397
  823MOL0     C11020   0.442   8.975  12.094  1.4086 -0.0060  0.0529
  823MOL0     N11021   0.793   9.210  11.455 -1.2724  0.6280  0.3462
  823MOL0     N11022   0.855   9.264  11.355  0.0929  0.2346 -0.4345
  823MOL0     C11023   1.326  10.324  10.913 -0.8711 -0.5800 -0.4116
  823MOL0     C11024   1.418  10.414  10.970  0.3021 -0.2744 -0.1892
  823MOL0     C11025   1.825  10.511  11.157  0.4597  0.1357  0.0364
  823MOL0     C11026   1.876  10.469  11.280  0.2755 -0.1617 -0.0194
  823MOL0     C11027   1.963  10.550  11.342  0.7627 -0.3451 -0.5429
  823MOL0     C11028   2.025  10.660  11.278  0.0743  1.5324  0.6069
  823MOL0     O11029   2.108  10.723  11.357  0.2188 -0.3319  0.0267
  823MOL0     C11030   2.206  10.798  11.291  1.3330 -1.0270 -0.3540
  823MOL0     C11031   2.305  10.859  11.382  0.3098 -0.7969 -0.4814
  823MOL0     C11032   2.399  10.970  11.328 -0.7899 -0.7171 -0.6539
  823MOL0     C11033   2.498  11.016  11.440 -0.7162  0.1797  0.0907
  823MOL0     C11034   2.577  11.125  11.390  0.4513  0.4952  0.8568
  823MOL0     C11035   2.629  11.214  11.337 -0.1130 -1.1534 -0.6017
  823MOL0     C11036   1.989  10.682  11.147 -0.3687  0.2242  0.3026
  823MOL0     C11037   1.882  10.615  11.090 -0.4760 -0.1547 -0.1235
  823MOL0     H11038   1.701  10.290  10.831 -0.5095 -0.3553 -1.4741
  823MOL0     H11039   1.520  10.143  10.714 -2.7888 -1.3683  0.0980
  823MOL0     H11040   1.261  10.052  10.962  0.1455 -0.2059 -0.3683
  823MOL0     H11041   1.104  10.118  10.895  0.2406  0.4861  1.5033
  823MOL0     H11042   1.080   9.933  10.750 -1.0477 -3.3714  1.2119
  823MOL0     H11043   1.244   9.870  10.780 -1.8781 -1.2295 -1.9399
  823MOL0     H11044   1.152   9.878  11.033  1.4167  0.7561 -1.6408
  823MOL0     H11045   1.002   9.907  10.961 -0.3409 -2.2311  1.0605
  823MOL0     H11046   1.011   9.699  10.819 -1.1171 -4.0049  1.2760
  823MOL0     H11047   1.157   9.657  10.899 -0.1423 -1.0022 -1.3987
  823MOL0     H11048   0.886   9.702  11.043  0.2055  0.9190 -1.1536
  823MOL0     H11049   0.938   9.544  10.975 -0.2558  1.5219 -2.2447
  823MOL0     H11050   1.149   9.585  11.115  0.3123  0.9576 -0.2597
  823MOL0     H11051   1.071   9.699  11.209  3.2713 -4.2113  3.8003
  823MOL0     H11052   0.889   9.564  11.270  3.1625  2.1368  2.2194
  823MOL0     H11053   0.930   9.436  11.141  1.1969 -0.6768 -0.0512
  823MOL0     H11054   1.113   9.477  11.391 -1.9234  0.1321  0.3291
  823MOL0     H11055   1.099   9.346  11.261 -2.4472 -1.5632 -0.5324
  823MOL0     H11056   1.016   9.410  11.595  0.1698  0.7473 -0.8286
  823MOL0     H11057   0.925   9.147  11.728  1.5494  2.5321  0.6596
  823MOL0     H11058   0.843   9.283  11.784  3.2180 -1.6707  0.6368
  823MOL0     H11059   0.748   9.049  11.801  4.5327  0.1780 -1.6757
  823MOL0     H11060   0.666   9.086  11.643  0.4194 -1.5815  0.6141
  823MOL0     H11061   0.511   9.157  11.787  4.4356 -7.0343  0.3987
  823MOL0     H11062   0.599   9.315  11.745  1.6540  0.8324  0.5853
  823MOL0     H11063   0.536   9.325  11.972  2.5035  2.0614 -1.4093
  823MOL0     H11064   0.699   9.292  11.984 -0.3220  3.5988 -1.3815
  823MOL0     H11065   0.326   9.259  11.956  1.7038 -0.9569 -1.0303
  823MOL0     H11066   0.112   9.230  11.888 -1.4734  0.6820 -0.7795
  823MOL0     H11067  -0.003   9.139  11.981  1.4257 -2.5319  0.2522
  823MOL0     H11068   0.083   9.270  12.052  0.9145 -0.6439 -0.1510
  823MOL0     H11069  -0.182   8.897  12.309 -0.8894 -2.2966  4.6358
  823MOL0     H11070  -0.373   8.754  12.326 -0.3458  2.1261 -2.3387
  823MOL0     H11071  -0.553   8.603  12.283  0.1420  0.2221 -0.0933
  823MOL0     H11072  -0.462   8.571  12.130 -0.8065 -2.2387 -0.8910
  823MOL0     H11073  -0.650   8.430  12.131 -1.2317 -0.2329  2.1418
  823MOL0     H11074  -0.507   8.334  12.167  0.1272  0.9395 -0.5854
  823MOL0     H11075  -0.749   8.324  12.294 -0.2575  0.7531 -1.1762
  823MOL0     H11076  -0.672   8.450  12.395 -2.7442  0.7778 -0.6725
  823MOL0     H11077  -0.474   8.254  12.404  0.5428  0.0714 -1.2727
  823MOL0     H11078  -0.616   8.230  12.506  0.2670 -0.5820 -0.5364
  823MOL0     H11079  -0.568   8.109  12.231 -1.4703  1.5385  0.8637
  823MOL0     H11080  -0.718   8.079  12.327  0.4924 -0.9043 -0.0394
  823MOL0     H11081  -0.451   8.016  12.457  1.4737  0.3409 -3.3969
  823MOL0     H11082  -0.620   7.939  12.468 -2.2214  1.0034 -1.7775
  823MOL0     H11083  -0.431   7.927  12.227  3.1751 -1.4504  0.7002
  823MOL0     H11084  -0.585   7.833  12.252 -0.3381  0.1686  1.3036
  823MOL0     H11085  -0.399   7.695  12.306  1.3328 -0.0417 -0.8268
  823MOL0     H11086  -0.494   7.733  12.452  0.4886 -1.0970  0.2751
  823MOL0     H11087  -0.136   8.409  12.254  2.1068  0.3811  0.0235
  823MOL0     H11088   0.053   8.542  12.185  1.0391  3.2473 -2.6988
  823MOL0     H11089   0.321   8.820  12.185 -2.5044 -0.9486 -1.1870
  823MOL0     H11090   0.533   8.937  12.139  2.3824  1.4439 -0.6642
  823MOL0     H11091   1.228  10.329  10.958 -0.6438 -0.6377  0.1026
  823MOL0     H11092   1.385  10.493  11.037  0.1907  1.0740 -1.7911
  823MOL0     H11093   1.845  10.382  11.337  0.5992 -0.7234 -0.6907
  823MOL0     H11094   1.981  10.537  11.448  0.8427  1.5302 -0.2854
  823MOL0     H11095   2.250  10.737  11.212 -0.3138 -1.3188 -1.0960
  823MOL0     H11096   2.158  10.881  11.239  0.6298 -2.2700 -1.7997
  823MOL0     H11097   2.370  10.784  11.427 -0.4161  0.4041  2.8274
  823MOL0     H11098   2.244  10.891  11.467  0.6207 -3.6855  0.9482
  823MOL0     H11099   2.349  11.056  11.282  1.1569  0.7542 -0.1568
  823MOL0     H11100   2.458  10.920  11.251  0.9681  1.1780 -0.6199
  823MOL0     H11101   2.562  10.932  11.469 -1.3517 -2.0453 -4.1967
  823MOL0     H11102   2.444  11.052  11.528  0.0770 -0.5321  0.9020
  823MOL0     H11103   2.659  11.301  11.282 -1.5752 -1.3000 -1.6557
  823MOL0     H11104   2.019  10.766  11.085 -4.0651 -0.9528 -3.5428
  823MOL0     H11105   1.838  10.644  10.996  0.8420 -1.0379 -1.0497
  824MOL0     O11106   1.443   7.229   6.855 -0.0743 -0.4209 -0.4267
  824MOL0     C11107   1.527   7.232   6.944 -0.5331  0.2089 -0.2738
  824MOL0     O11108   1.538   7.334   7.039 -0.1669  0.0614 -0.1972
  824MOL0     C11109   1.456   7.443   7.035  0.0862  0.8554  0.5681
  824MOL0     C11110   1.517   7.572   7.023  0.9315  0.2937  0.2315
  824MOL0     C11111   1.440   7.692   6.997 -0.3202  0.1261 -0.7984
  824MOL0     C11112   1.302   7.679   7.006 -0.5545  0.1171  0.2848
  824MOL0     O11113   1.210   7.783   7.004  0.1214  0.1667 -0.2020
  824MOL0     C11114   1.136   7.795   6.884  1.7957 -0.0751  0.4963
  824MOL0     C11115   1.013   7.876   6.910 -0.5889 -0.6334 -0.9867
  824MOL0     C11116   0.940   7.913   6.775  0.8510  0.7475 -0.0050
  824MOL0     C11117   0.796   7.852   6.772  0.5971  0.1211  0.3236
  824MOL0     C11118   0.730   7.912   6.648  0.2387  0.4424 -0.0187
  824MOL0     C11119   0.754   7.847   6.515  0.6440  0.1467  0.8804
  824MOL0     C11120   0.721   7.688   6.515  0.3879  0.3820  0.2808
  824MOL0     C11121   0.582   7.636   6.566  0.2345  0.1629  0.5436
  824MOL0     N11122   0.596   7.482   6.579 -0.1885 -0.2795  0.5658
  824MOL0     C11123   0.566   7.405   6.472 -0.2396  0.0954  0.4130
  824MOL0     C11124   0.558   7.281   6.534 -0.1891 -0.1183 -0.2262
  824MOL0     C11125   0.527   7.154   6.462 -0.0400  0.7418 -0.5026
  824MOL0     C11126   0.632   7.130   6.349 -0.3685  0.3234  0.4598
  824MOL0     C11127   0.602   6.990   6.289  0.3144 -0.1057  0.1323
  824MOL0     C11128   0.717   6.969   6.192  0.2628  0.0341  0.0597
  824MOL0     O11129   0.696   6.842   6.137 -0.4207 -0.0884  0.3765
  824MOL0     C11130   0.765   6.733   6.193 -0.7401 -0.4533  0.3415
  824MOL0     C11131   0.791   6.626   6.109 -0.0359 -0.2966 -0.0403
  824MOL0     C11132   0.837   6.497   6.160  0.2626  0.0831 -0.7151
  824MOL0     C11133   0.851   6.374   6.071 -0.1652 -0.6025  0.0278
  824MOL0     C11134   0.866   6.492   6.296 -0.5723  0.4134 -0.7416
  824MOL0     C11135   0.909   6.362   6.367 -0.0899 -0.6529 -0.4120
  824MOL0     O11136   0.864   6.341   6.495  0.0020 -0.0791 -0.0170
  824MOL0     C11137   0.885   6.224   6.560  0.7685 -1.2308 -0.5234
  824MOL0     C11138   0.791   6.201   6.666 -0.4114 -0.1497  0.2377
  824MOL0     C11139   0.798   6.080   6.733  0.5313  0.3042 -0.3204
  824MOL0     C11140   0.900   5.989   6.716 -0.3038 -0.5717 -0.2842
  824MOL0     O11141   0.906   5.887   6.806  0.3095 -1.0099 -0.4250
  824MOL0     C11142   1.025   5.828   6.855  0.3348 -0.1431  0.2278
  824MOL0     C11143   1.022   5.680   6.826  0.2218 -0.4191  0.1868
  824MOL0     C11144   0.892   5.607   6.887 -0.5429 -0.0757 -1.0074
  824MOL0     C11145   0.880   5.453   6.869 -0.2563  0.2302 -0.8175
  824MOL0     C11146   0.749   5.412   6.934 -0.3519  0.4945 -0.5139
  824MOL0     C11147   0.758   5.272   7.001  0.0161  0.0279  0.0170
  824MOL0     C11148   0.781   5.159   6.902  0.5298  0.4047 -0.8384
  824MOL0     C11149   0.828   5.031   6.976  0.7021  0.0962  0.5339
  824MOL0    Cl11150   0.710   4.993   7.112 -0.0404  0.0702 -0.3020
  824MOL0     C11151   1.003   6.018   6.630 -0.4203  0.0505  0.0112
  824MOL0     C11152   0.994   6.135   6.554  0.7591 -0.5089  0.5570
  824MOL0     O11153   0.980   6.285   6.308 -0.4237 -0.3974 -0.7726
  824MOL0     C11154   0.841   6.605   6.378 -0.6079 -0.1507  0.3385
  824MOL0     C11155   0.804   6.728   6.325 -0.1563  0.1810  0.8991
  824MOL0     N11156   0.589   7.298   6.669 -0.2327 -0.4923 -0.5972
  824MOL0     N11157   0.609   7.418   6.697 -0.1373  0.0042 -0.5169
  824MOL0     C11158   1.245   7.553   7.014 -0.5668 -0.8085  0.2195
  824MOL0     C11159   1.317   7.440   7.029  0.3596  0.5521 -0.4593
  824MOL0     C11160   1.603   7.110   6.945 -0.2491  0.1953  0.2109
  824MOL0     C11161   1.589   7.010   6.850 -0.2151  0.4136 -0.4247
  824MOL0     C11162   1.672   6.898   6.853 -0.0921  0.8219  0.1046
  824MOL0     C11163   1.764   6.881   6.963  0.2812 -0.1667 -0.3255
  824MOL0     O11164   1.856   6.777   6.966 -0.2198  0.0788  0.0589
  824MOL0     C11165   1.865   6.695   7.083 -0.4716  0.6094 -0.2031
  824MOL0     C11166   1.988   6.604   7.074 -0.0838 -0.3719  0.5714
  824MOL0     C11167   1.981   6.500   7.186  0.1164  0.4750  0.1816
  824MOL0     C11168   2.050   6.364   7.156 -0.5331 -0.3722 -1.0146
  824MOL0     C11169   1.975   6.292   7.060 -0.5198  0.0199  0.2720
  824MOL0     C11170   1.903   6.223   6.986  0.1133 -0.5808 -0.1547
  824MOL0     C11171   1.775   6.989   7.053  0.0758  0.7349  0.4361
  824MOL0     C11172   1.704   7.107   7.039 -0.7768  0.1423  0.5807
  824MOL0     H11173   1.624   7.588   7.016  0.6709  2.6862  0.8652
  824MOL0     H11174   1.494   7.786   6.995  2.9230 -1.5991 -2.4420
  824MOL0     H11175   1.198   7.837   6.804  2.7078  0.9888  1.7212
  824MOL0     H11176   1.106   7.694   6.855  1.9218  0.5185 -1.9215
  824MOL0     H11177   0.956   7.833   6.993  1.0950 -1.0370  0.0275
  824MOL0     H11178   1.049   7.970   6.954 -0.1755 -0.1721 -2.2828
  824MOL0     H11179   0.935   8.021   6.761 -0.1929  0.5919 -0.9922
  824MOL0     H11180   0.998   7.870   6.692 -1.0387 -0.1478 -0.9262
  824MOL0     H11181   0.785   7.744   6.785 -0.4577  0.2491  0.6585
  824MOL0     H11182   0.729   7.883   6.853 -3.7459 -0.2731 -2.7743
  824MOL0     H11183   0.625   7.894   6.670 -0.4233 -0.2727 -3.2215
  824MOL0     H11184   0.750   8.019   6.646  1.2597  0.4011  2.7136
  824MOL0     H11185   0.693   7.892   6.436 -1.6959 -1.1610  1.8436
  824MOL0     H11186   0.859   7.864   6.487 -0.1234 -0.1958 -2.8033
  824MOL0     H11187   0.735   7.646   6.416  0.5031  0.7988  0.1186
  824MOL0     H11188   0.800   7.636   6.571  0.7658  2.4001  1.7464
  824MOL0     H11189   0.511   7.667   6.488  1.2951  1.3225  0.0062
  824MOL0     H11190   0.542   7.692   6.651 -2.3596 -1.4883  0.5474
  824MOL0     H11191   0.547   7.428   6.368 -0.4002  2.3589  0.8857
  824MOL0     H11192   0.516   7.069   6.529  0.2812  1.0494 -0.0485
  824MOL0     H11193   0.428   7.173   6.421  0.0328  0.0642 -1.0089
  824MOL0     H11194   0.735   7.132   6.387 -0.2256 -4.6868  1.0019
  824MOL0     H11195   0.629   7.199   6.264  2.2216 -0.8948 -0.7586
  824MOL0     H11196   0.503   6.998   6.243 -1.6207 -0.8351  3.8133
  824MOL0     H11197   0.601   6.912   6.366  2.1005 -1.6864 -1.3307
  824MOL0     H11198   0.813   6.974   6.244 -0.3092  1.0358  1.0519
  824MOL0     H11199   0.702   7.035   6.106 -2.8007  2.0376  1.9707
  824MOL0     H11200   0.757   6.632   6.006  0.9980  1.1305 -0.3210
  824MOL0     H11201   0.955   6.342   6.061  0.1845  0.6112 -0.3522
  824MOL0     H11202   0.799   6.286   6.111  2.5071 -1.6348  1.4702
  824MOL0     H11203   0.819   6.401   5.970 -2.0261  3.4936  1.4861
  824MOL0     H11204   0.713   6.275   6.678 -1.7827 -1.3592 -0.7866
  824MOL0     H11205   0.709   6.062   6.792  0.3161 -1.8130 -1.1940
  824MOL0     H11206   1.122   5.866   6.824  1.1497  0.2318  2.9650
  824MOL0     H11207   1.040   5.840   6.963  0.0510 -0.5521  0.3161
  824MOL0     H11208   1.027   5.674   6.717 -0.5918  1.6451  0.0077
  824MOL0     H11209   1.115   5.635   6.863  0.1735 -1.5214 -0.9530
  824MOL0     H11210   0.805   5.655   6.841 -0.7576 -1.2135 -1.8250
  824MOL0     H11211   0.892   5.630   6.993 -0.2581  0.2079 -1.0697
  824MOL0     H11212   0.871   5.420   6.765 -0.1508  1.0736 -1.1061
  824MOL0     H11213   0.968   5.403   6.911 -0.1616  1.2244  0.2141
  824MOL0     H11214   0.666   5.402   6.863  0.4690 -1.4317 -1.2559
  824MOL0     H11215   0.725   5.483   7.014  1.6153  0.6152  0.0005
  824MOL0     H11216   0.849   5.268   7.061 -0.1633  1.1913  0.3987
  824MOL0     H11217   0.670   5.246   7.060  2.2679 -1.8118  2.8496
  824MOL0     H11218   0.872   5.187   6.847  1.2389  0.7692  0.4560
  824MOL0     H11219   0.695   5.155   6.836 -1.8862  1.1684  2.0124
  824MOL0     H11220   0.925   5.043   7.025 -0.5311 -1.9020  3.7740
  824MOL0     H11221   0.836   4.957   6.895 -1.7356 -1.1626  1.3540
  824MOL0     H11222   1.099   5.968   6.618 -0.3424 -0.1208  1.2324
  824MOL0     H11223   1.070   6.161   6.481 -0.7604  1.3088 -0.4728
  824MOL0     H11224   0.856   6.594   6.485 -2.2294 -1.2983  0.4820
  824MOL0     H11225   0.780   6.809   6.393 -2.7658 -0.7726  1.2490
  824MOL0     H11226   1.139   7.537   7.032 -0.0252 -1.8049  3.0190
  824MOL0     H11227   1.263   7.346   7.024  1.0017  0.0801  1.1081
  824MOL0     H11228   1.522   7.031   6.767 -0.8716  1.8437  0.4317
  824MOL0     H11229   1.660   6.835   6.765  1.9713  1.3092 -0.5843
  824MOL0     H11230   1.868   6.761   7.170  0.0255  0.4895 -0.1221
  824MOL0     H11231   1.782   6.625   7.073  2.1902 -2.5306 -2.7462
  824MOL0     H11232   2.083   6.658   7.067 -0.9348  0.9623 -2.8154
  824MOL0     H11233   1.983   6.550   6.979 -0.4891  0.4766  0.1003
  824MOL0     H11234   1.877   6.491   7.219  0.3651 -0.9590  0.6794
  824MOL0     H11235   2.037   6.535   7.274 -0.9882  1.5638  0.4782
  824MOL0     H11236   2.052   6.319   7.256  0.0977  3.1003  0.6637
  824MOL0     H11237   2.152   6.378   7.121  0.6014 -2.1792  1.2287
  824MOL0     H11238   1.847   6.154   6.928 -0.5457  0.2954 -0.5905
  824MOL0     H11239   1.847   6.983   7.135  0.5149  1.0436  0.0793
  824MOL0     H11240   1.738   7.198   7.086  2.9215 -0.2384 -1.0668
  825MOL0     O11241   6.340   2.362   4.559 -0.1889 -0.3553  0.7192
  825MOL0     C11242   6.356   2.305   4.448  0.4737 -0.0871  0.0936
  825MOL0     O11243   6.377   2.173   4.437 -0.5666  0.2274 -0.2817
  825MOL0     C11244   6.380   2.097   4.547  0.9244  0.7061 -0.1567
  825MOL0     C11245   6.492   2.097   4.626 -0.2172 -0.7253  0.0315
  825MOL0     C11246   6.491   2.021   4.736 -0.3894  0.2795 -0.0677
  825MOL0     C11247   6.385   1.933   4.761  0.9781 -0.1940  0.0787
  825MOL0     O11248   6.400   1.860   4.879 -0.0263 -0.6458  0.1421
  825MOL0     C11249   6.316   1.742   4.871  0.5970  0.4358  0.7972
  825MOL0     C11250   6.370   1.662   4.985 -0.0673 -0.2122 -0.0390
  825MOL0     C11251   6.283   1.536   5.020 -0.5263 -0.3871 -0.0275
  825MOL0     C11252   6.355   1.441   5.127 -0.0920 -1.3242 -1.0669
  825MOL0     C11253   6.250   1.342   5.185  0.4593 -0.6401 -0.5384
  825MOL0     C11254   6.281   1.304   5.331  0.2593 -0.1398 -0.4073
  825MOL0     C11255   6.205   1.181   5.371 -0.0032 -1.1192  0.1831
  825MOL0     C11256   6.244   1.137   5.519 -0.7603 -0.1058  0.6901
  825MOL0     N11257   6.129   1.069   5.575  0.3777  0.0506 -0.5541
  825MOL0     C11258   6.070   0.964   5.513  0.0262 -0.1069 -0.8062
  825MOL0     C11259   5.948   0.961   5.571 -0.2546  1.0076  0.1200
  825MOL0     C11260   5.828   0.883   5.509 -0.2714 -0.7602 -0.3466
  825MOL0     C11261   5.852   0.741   5.462  0.5812 -0.0313  1.1841
  825MOL0     C11262   5.860   0.638   5.577 -0.1611 -0.1338  0.4480
  825MOL0     C11263   5.776   0.513   5.560  0.3638  0.9466  0.6597
  825MOL0     O11264   5.802   0.449   5.428  0.8759 -0.1273 -0.1098
  825MOL0     C11265   5.712   0.354   5.387  0.0419 -0.4203 -0.3471
  825MOL0     C11266   5.644   0.268   5.474 -0.5080  0.3072 -0.0634
  825MOL0     C11267   5.560   0.166   5.428 -0.1705 -0.0018 -0.1968
  825MOL0     C11268   5.508   0.072   5.533 -0.0190 -0.0204 -0.0648
  825MOL0     C11269   5.525   0.163   5.290  0.2467  0.5667  1.3792
  825MOL0     C11270   5.432   0.067   5.229  0.4001 -0.1052 -0.3478
  825MOL0     O11271   5.475  -0.001   5.114 -0.2904 -0.3189  1.4613
  825MOL0     C11272   5.384  -0.019   5.005  0.2561  0.1046  0.0480
  825MOL0     C11273   5.280   0.071   4.979  0.2052 -0.1436  0.0514
  825MOL0     C11274   5.193   0.065   4.857 -0.1407 -0.1289 -0.3935
  825MOL0     C11275   5.213  -0.037   4.762 -0.1366 -0.0016 -0.5699
  825MOL0     O11276   5.140  -0.053   4.654 -0.1831 -0.3371  0.9125
  825MOL0     C11277   5.113   0.057   4.567 -0.2121 -0.5323  0.5390
  825MOL0     C11278   5.179   0.044   4.432 -0.0550 -0.3662 -0.2769
  825MOL0     C11279   5.119   0.140   4.333 -0.1438  0.8692 -0.2286
  825MOL0     C11280   5.159   0.123   4.187  0.4931  0.8372 -0.7499
  825MOL0     C11281   5.306   0.137   4.150 -0.1558 -0.3411  0.7165
  825MOL0     C11282   5.359   0.282   4.126  0.2854  0.8142  0.0637
  825MOL0     C11283   5.400   0.356   4.251  0.2901  0.8666 -0.4423
  825MOL0     C11284   5.432   0.499   4.204  0.5867  0.7096 -0.6479
  825MOL0    Cl11285   5.452   0.577   4.352 -0.4316 -0.3634 -0.0264
  825MOL0     C11286   5.321  -0.123   4.790  0.7648  0.0902 -0.3751
  825MOL0     C11287   5.399  -0.118   4.907  0.3247  0.4823  0.2752
  825MOL0     O11288   5.321   0.040   5.286 -0.3493  0.2812  0.1153
  825MOL0     C11289   5.590   0.256   5.199 -1.0490  0.9463  0.5392
  825MOL0     C11290   5.684   0.350   5.252 -0.7564 -0.0165 -0.6311
  825MOL0     N11291   5.923   1.067   5.649 -0.3350  0.4098 -0.2726
  825MOL0     N11292   6.042   1.119   5.663 -0.0247  0.3914 -0.3850
  825MOL0     C11293   6.267   1.936   4.685 -0.0155 -0.6039  0.2946
  825MOL0     C11294   6.265   2.023   4.579  0.7847 -0.5521  0.7461
  825MOL0     C11295   6.366   2.395   4.325  0.5880  0.3264 -0.1827
  825MOL0     C11296   6.346   2.535   4.332  1.5773 -0.6977  0.2505
  825MOL0     C11297   6.361   2.616   4.216  0.5408  0.0545  0.7200
  825MOL0     C11298   6.405   2.561   4.090  0.9936  0.8440  1.3796
  825MOL0     O11299   6.448   2.633   3.982  0.2222 -0.5061 -0.3942
  825MOL0     C11300   6.515   2.757   4.020 -0.1541 -0.4906 -0.1330
  825MOL0     C11301   6.598   2.787   3.897 -0.0939  0.3939  0.2647
  825MOL0     C11302   6.663   2.928   3.902  0.3886 -0.1383  0.7547
  825MOL0     C11303   6.792   2.927   3.980 -0.1825 -0.2407 -0.5760
  825MOL0     C11304   6.870   3.060   3.982  0.6768  0.5558 -0.2685
  825MOL0     C11305   6.933   3.161   3.961  0.5554  0.2685  0.3611
  825MOL0     C11306   6.412   2.422   4.081  0.0398  0.0770 -0.1732
  825MOL0     C11307   6.394   2.344   4.200 -0.1548  0.0811  0.8308
  825MOL0     H11308   6.581   2.157   4.611  0.2864 -1.1861  1.0851
  825MOL0     H11309   6.582   2.016   4.794 -1.9092  3.0291  2.8711
  825MOL0     H11310   6.212   1.771   4.891  0.6690  0.8425  0.5900
  825MOL0     H11311   6.327   1.686   4.777  1.6762 -0.7324  1.5985
  825MOL0     H11312   6.472   1.634   4.955  0.7759  1.8539  0.6650
  825MOL0     H11313   6.380   1.726   5.073  3.5296  1.3997 -1.4018
  825MOL0     H11314   6.180   1.562   5.049 -1.6548 -2.5679 -1.7982
  825MOL0     H11315   6.275   1.483   4.925  6.1911 -1.3771 -0.4755
  825MOL0     H11316   6.442   1.386   5.089  1.5198  0.0397  0.4580
  825MOL0     H11317   6.389   1.506   5.208  1.1269 -1.1580 -1.6844
  825MOL0     H11318   6.147   1.379   5.183  1.0684  1.1275 -1.8155
  825MOL0     H11319   6.245   1.256   5.118 -0.8286 -0.0625 -1.2072
  825MOL0     H11320   6.386   1.280   5.347  1.0025 -0.1596 -4.2834
  825MOL0     H11321   6.263   1.380   5.407  2.4449 -0.8396  0.9178
  825MOL0     H11322   6.102   1.219   5.369  0.1696 -0.2886  2.6817
  825MOL0     H11323   6.214   1.097   5.302  0.8289  0.4438 -1.7274
  825MOL0     H11324   6.269   1.223   5.582 -0.5509  0.9007 -0.7133
  825MOL0     H11325   6.339   1.083   5.521  0.5238  2.0140  1.9612
  825MOL0     H11326   6.101   0.904   5.428 -3.1098 -2.6202 -0.3569
  825MOL0     H11327   5.743   0.892   5.577 -0.2816 -1.0627 -0.3148
  825MOL0     H11328   5.798   0.946   5.425  2.4633  1.3679  0.1421
  825MOL0     H11329   5.939   0.725   5.397  1.1649  0.4768  1.8292
  825MOL0     H11330   5.759   0.734   5.404 -1.0929  1.8742  3.4581
  825MOL0     H11331   5.832   0.689   5.669  3.2147  2.7566  0.0873
  825MOL0     H11332   5.964   0.607   5.593 -0.0463 -0.6485 -1.0677
  825MOL0     H11333   5.675   0.552   5.569  0.2025  0.6762  0.0483
  825MOL0     H11334   5.780   0.435   5.637 -5.5587 -1.2642 -0.7496
  825MOL0     H11335   5.658   0.269   5.581 -3.0149  0.2399  0.3403
  825MOL0     H11336   5.591   0.047   5.600  1.1838  1.1122 -1.0730
  825MOL0     H11337   5.434   0.129   5.590 -0.1232  0.1521 -0.3712
  825MOL0     H11338   5.463  -0.021   5.495 -1.3871  0.8562 -0.6593
  825MOL0     H11339   5.259   0.145   5.056  2.1460 -0.2888  0.7666
  825MOL0     H11340   5.115   0.138   4.839 -1.5791 -1.3298  0.6765
  825MOL0     H11341   5.008   0.081   4.548 -0.1468  1.7548  2.5714
  825MOL0     H11342   5.142   0.156   4.605 -1.5756  1.3782 -2.9004
  825MOL0     H11343   5.285   0.070   4.432 -0.2185  0.3351 -0.1531
  825MOL0     H11344   5.173  -0.059   4.397 -0.4187 -0.4374 -0.0135
  825MOL0     H11345   5.164   0.236   4.362 -0.9812  0.4416  2.9120
  825MOL0     H11346   5.011   0.144   4.349 -0.2429 -3.1712  1.1693
  825MOL0     H11347   5.134   0.025   4.146 -2.3982 -0.6030  3.7477
  825MOL0     H11348   5.115   0.193   4.116 -0.6872  0.8371 -0.0392
  825MOL0     H11349   5.312   0.090   4.052  1.1009 -1.0163  1.0903
  825MOL0     H11350   5.366   0.079   4.221 -0.3957 -0.9656  0.4167
  825MOL0     H11351   5.432   0.278   4.045  1.9412  2.0432  1.4107
  825MOL0     H11352   5.276   0.341   4.087  0.8555  0.6798 -1.3900
  825MOL0     H11353   5.487   0.321   4.307 -0.8399 -1.3945  0.0048
  825MOL0     H11354   5.317   0.354   4.322 -0.3315 -0.7328 -1.1724
  825MOL0     H11355   5.359   0.539   4.134  2.1743 -0.7583 -3.3072
  825MOL0     H11356   5.534   0.508   4.164  1.1884 -0.3127  0.5736
  825MOL0     H11357   5.328  -0.200   4.713 -0.1896 -1.2378  0.8190
  825MOL0     H11358   5.480  -0.188   4.923 -0.7254 -0.4537  1.6606
  825MOL0     H11359   5.567   0.264   5.094  0.3640  0.6373  0.1973
  825MOL0     H11360   5.742   0.420   5.191  0.4313  1.0412  1.5870
  825MOL0     H11361   6.186   1.866   4.702 -3.7431  3.3359  0.4149
  825MOL0     H11362   6.169   2.034   4.530  0.3744 -0.7234  1.4999
  825MOL0     H11363   6.314   2.582   4.424 -2.7389  1.3084 -1.9616
  825MOL0     H11364   6.345   2.723   4.219  0.8175  0.1249  0.0123
  825MOL0     H11365   6.447   2.841   4.042  0.2030  0.0448 -1.0289
  825MOL0     H11366   6.585   2.744   4.103  0.1576  0.1767 -0.2834
  825MOL0     H11367   6.528   2.788   3.813  0.4602 -1.8601 -0.3159
  825MOL0     H11368   6.671   2.706   3.880  1.8024  2.1843 -0.5700
  825MOL0     H11369   6.592   3.006   3.930  0.4759  0.8411 -1.5866
  825MOL0     H11370   6.691   2.955   3.800  0.8169  1.6438  1.3041
  825MOL0     H11371   6.862   2.850   3.946 -2.0600 -0.8412 -3.4716
  825MOL0     H11372   6.763   2.908   4.084 -1.7630 -1.0614 -1.1320
  825MOL0     H11373   6.981   3.252   3.929 -1.5586  1.3181 -0.0297
  825MOL0     H11374   6.449   2.374   3.991  2.3257 -1.7259  1.5718
  825MOL0     H11375   6.402   2.237   4.180 -2.2760  0.1436 -0.6835
  826MOL0     O11376  11.226   3.196   9.541  0.7037  0.1407 -0.8460
  826MOL0     C11377  11.275   3.202   9.657 -0.7161 -0.1643  0.1326
  826MOL0     O11378  11.206   3.188   9.772 -0.5957 -0.3656  0.0340
  826MOL0     C11379  11.076   3.157   9.764 -0.3910  0.0228  0.0988
  826MOL0     C11380  11.026   3.027   9.769 -0.2158 -0.0463 -0.4255
  826MOL0     C11381  10.891   3.005   9.772 -0.4830  0.2675  0.6990
  826MOL0     C11382  10.801   3.108   9.750 -0.1176 -1.1001 -0.2509
  826MOL0     O11383  10.668   3.101   9.733 -0.4094 -0.2537 -0.0527
  826MOL0     C11384  10.605   2.982   9.703 -0.5110  0.2425  0.5774
  826MOL0     C11385  10.445   3.002   9.687 -0.0609  0.1057 -0.9536
  826MOL0     C11386  10.410   3.086   9.565 -0.3092 -0.9328  0.1947
  826MOL0     C11387  10.430   3.241   9.597  0.2960  0.1408  0.3320
  826MOL0     C11388  10.361   3.333   9.506 -0.0416  0.1460 -0.1399
  826MOL0     C11389  10.398   3.477   9.533 -0.1220  0.7864  0.3033
  826MOL0     C11390  10.316   3.567   9.436  0.5388  0.0885 -0.7726
  826MOL0     C11391  10.348   3.717   9.455 -0.8496  0.6309  0.4250
  826MOL0     N11392  10.298   3.769   9.587  0.1556  0.2111  0.9703
  826MOL0     C11393  10.166   3.767   9.633  0.6895  0.4043 -0.9826
  826MOL0     C11394  10.178   3.795   9.764  1.7650 -0.1249 -0.3117
  826MOL0     C11395  10.058   3.795   9.858 -1.1078 -0.1246 -0.4611
  826MOL0     C11396  10.067   3.911   9.954 -0.6732 -0.4089  0.4635
  826MOL0     C11397  10.053   4.044   9.887  0.0596  0.1158 -0.3286
  826MOL0     C11398  10.089   4.164   9.978  0.4868 -0.7265 -0.0648
  826MOL0     O11399  10.083   4.292   9.918 -0.3527  0.1751  0.1804
  826MOL0     C11400  10.065   4.408   9.988 -0.8059  0.2736 -0.0598
  826MOL0     C11401  10.046   4.528   9.917  0.4893 -0.1156 -0.1544
  826MOL0     C11402  10.027   4.651   9.978  0.0033  0.4029 -1.2016
  826MOL0     C11403  10.004   4.766   9.887  0.1677 -0.2795 -0.7769
  826MOL0     C11404  10.045   4.659  10.126 -0.5285 -0.8534  1.2675
  826MOL0     C11405  10.020   4.788  10.212 -0.1647 -0.5537  1.2322
  826MOL0     O11406  10.023   4.779  10.345  0.2519  0.7073  0.0114
  826MOL0     C11407   9.995   4.896  10.417  0.7330 -0.5980 -1.3714
  826MOL0     C11408   9.861   4.935  10.435 -0.4638 -0.8829 -0.2045
  826MOL0     C11409   9.840   5.064  10.497 -0.2379  1.1524  0.5363
  826MOL0     C11410   9.946   5.131  10.548  0.2075  0.5610 -1.6020
  826MOL0     O11411   9.919   5.247  10.619 -0.0649  0.4726  1.2825
  826MOL0     C11412   9.999   5.359  10.589 -0.5887 -0.3957 -0.0829
  826MOL0     C11413   9.914   5.488  10.633  0.3448 -0.5173  0.8326
  826MOL0     C11414   9.865   5.487  10.776  0.1050 -0.0050  0.0113
  826MOL0     C11415   9.768   5.608  10.803 -0.5722  0.0647 -0.3208
  826MOL0     C11416   9.734   5.627  10.954  0.1602 -0.1054  0.6314
  826MOL0     C11417   9.846   5.697  11.028 -0.7788 -0.0135  0.1884
  826MOL0     C11418   9.791   5.722  11.164 -0.0305  0.7880 -1.1164
  826MOL0     C11419   9.893   5.789  11.248  0.1990 -0.5296  0.0356
  826MOL0    Cl11420   9.827   5.805  11.413 -0.2632  0.6706  0.2302
  826MOL0     C11421  10.072   5.083  10.527 -0.9227 -1.5729  0.7459
  826MOL0     C11422  10.103   4.967  10.460  0.4626  0.3989 -0.0963
  826MOL0     O11423   9.975   4.887  10.148 -0.7150  0.7240 -0.1107
  826MOL0     C11424  10.074   4.543  10.192  0.0344  0.2755  0.8121
  826MOL0     C11425  10.103   4.427  10.122  0.0806  0.5246 -0.1183
  826MOL0     N11426  10.308   3.825   9.796  0.5663  0.1999  0.4437
  826MOL0     N11427  10.371   3.806   9.687 -0.1663  0.3501 -0.1354
  826MOL0     C11428  10.841   3.237   9.757 -0.4496 -0.2408 -1.0142
  826MOL0     C11429  10.982   3.265   9.756  0.0083 -0.2990 -1.0804
  826MOL0     C11430  11.412   3.242   9.667 -0.4962  1.2303 -0.7931
  826MOL0     C11431  11.458   3.269   9.798 -0.5359 -0.8762  0.0192
  826MOL0     C11432  11.599   3.302   9.820 -0.1292 -0.3682  0.4194
  826MOL0     C11433  11.684   3.314   9.710  1.4283  0.0897 -0.5260
  826MOL0     O11434  11.813   3.358   9.711 -0.6208 -0.0649 -0.2513
  826MOL0     C11435  11.872   3.411   9.828 -0.1367 -0.4005 -0.1047
  826MOL0     C11436  11.914   3.323   9.937  0.3062  0.4814 -0.4165
  826MOL0     C11437  12.034   3.227   9.897 -0.0344 -0.1516  0.0141
  826MOL0     C11438  12.122   3.153   9.998 -0.4136 -0.2286  0.2516
  826MOL0     C11439  12.182   3.243  10.099 -0.3940 -0.5562  0.1193
  826MOL0     C11440  12.245   3.331  10.150 -1.6110  0.4616  0.2244
  826MOL0     C11441  11.633   3.300   9.582  0.7842 -0.0501 -0.5054
  826MOL0     C11442  11.498   3.253   9.555  0.3955 -0.3238 -0.6554
  826MOL0     H11443  11.094   2.943   9.782 -1.4674 -0.6631  3.6940
  826MOL0     H11444  10.864   2.900   9.764  2.0918 -0.4402  0.1466
  826MOL0     H11445  10.647   2.940   9.611 -2.9224 -0.9892 -0.0391
  826MOL0     H11446  10.623   2.914   9.787  1.9459  2.5153  2.0510
  826MOL0     H11447  10.392   2.909   9.663 -0.3434 -0.2234  0.8341
  826MOL0     H11448  10.399   3.032   9.781 -1.1303 -2.6143 -0.5066
  826MOL0     H11449  10.459   3.057   9.473  1.9587 -0.1447  1.0903
  826MOL0     H11450  10.302   3.069   9.553 -0.2057 -0.9159 -0.8473
  826MOL0     H11451  10.393   3.263   9.697 -2.7168 -1.6944 -0.2439
  826MOL0     H11452  10.537   3.262   9.589  0.5914 -0.5298  2.2061
  826MOL0     H11453  10.369   3.296   9.403  1.0895  2.6178 -1.0144
  826MOL0     H11454  10.255   3.315   9.528 -0.9096 -0.1569 -3.8258
  826MOL0     H11455  10.368   3.494   9.636 -1.4649 -1.6608  0.3979
  826MOL0     H11456  10.504   3.490   9.509 -0.0630 -3.4245 -3.1693
  826MOL0     H11457  10.347   3.547   9.333  0.4896 -0.5287 -0.6699
  826MOL0     H11458  10.207   3.555   9.434 -0.2150  4.4853 -4.8703
  826MOL0     H11459  10.297   3.778   9.379  1.5870  1.7979 -0.3768
  826MOL0     H11460  10.452   3.747   9.437  0.9039 -4.4109  0.6764
  826MOL0     H11461  10.074   3.731   9.589  0.9276  0.3544 -1.4524
  826MOL0     H11462   9.957   3.797   9.814 -1.2126  0.3431 -0.1960
  826MOL0     H11463  10.059   3.703   9.917  0.0721 -0.5696 -1.1353
  826MOL0     H11464  10.168   3.917   9.996 -0.7672  1.3543  0.5295
  826MOL0     H11465   9.993   3.895  10.034  0.6048  3.3834  2.6340
  826MOL0     H11466   9.955   4.046   9.838 -1.3353  0.4360  2.3290
  826MOL0     H11467  10.128   4.059   9.808  2.8638 -0.1278  2.1220
  826MOL0     H11468  10.192   4.155  10.016  0.7848  0.3241 -0.5888
  826MOL0     H11469  10.020   4.161  10.063 -0.9731  0.0903 -1.1775
  826MOL0     H11470  10.030   4.524   9.809  0.8200 -0.7607 -0.1877
  826MOL0     H11471  10.055   4.861   9.906  0.6189  0.3643 -4.5591
  826MOL0     H11472  10.044   4.744   9.788  3.0626 -5.0808  1.0674
  826MOL0     H11473   9.899   4.794   9.897  0.2838 -0.2146  0.4850
  826MOL0     H11474   9.780   4.880  10.389 -0.4035 -0.0153 -1.3694
  826MOL0     H11475   9.735   5.092  10.507  0.0419  1.2719  5.5591
  826MOL0     H11476  10.093   5.345  10.643 -0.5757 -0.8341 -0.2151
  826MOL0     H11477  10.021   5.366  10.482  1.7776  1.2787  0.4177
  826MOL0     H11478   9.963   5.585  10.623  0.7175 -0.6013  1.7347
  826MOL0     H11479   9.820   5.486  10.577 -0.3500 -0.8707  1.9894
  826MOL0     H11480   9.949   5.505  10.843  0.4428 -0.3953 -0.2995
  826MOL0     H11481   9.816   5.391  10.797  0.6491 -0.2641  0.1242
  826MOL0     H11482   9.828   5.696  10.779  0.5851 -0.1916  1.4258
  826MOL0     H11483   9.679   5.611  10.740 -0.2774  0.7991 -0.7125
  826MOL0     H11484   9.718   5.529  10.999 -0.0741 -0.3052  0.1227
  826MOL0     H11485   9.649   5.693  10.973  1.0571  0.9319  1.1714
  826MOL0     H11486   9.937   5.636  11.034 -1.2592 -0.7311  0.3115
  826MOL0     H11487   9.877   5.791  10.980  0.8052 -1.8496 -2.6309
  826MOL0     H11488   9.743   5.635  11.210 -0.1380  1.7810  0.7460
  826MOL0     H11489   9.702   5.784  11.148  0.5393  1.6691 -0.9536
  826MOL0     H11490   9.917   5.888  11.209  0.9954 -0.6974  0.0762
  826MOL0     H11491   9.985   5.731  11.239 -0.4984 -1.4813 -1.3986
  826MOL0     H11492  10.156   5.130  10.576  3.2236 -2.5627 -4.4150
  826MOL0     H11493  10.206   4.935  10.447 -0.9250 -4.7198 -0.5279
  826MOL0     H11494  10.072   4.533  10.300 -1.4388 -0.5177  0.7456
  826MOL0     H11495  10.142   4.347  10.183 -4.3911 -1.8417  0.0612
  826MOL0     H11496  10.776   3.324   9.754 -0.9846 -0.4994  1.1929
  826MOL0     H11497  11.012   3.368   9.773 -1.9433 -0.0806  1.8666
  826MOL0     H11498  11.393   3.258   9.884  0.4837  2.1932  1.3639
  826MOL0     H11499  11.644   3.310   9.919  0.3058  0.6839  0.1493
  826MOL0     H11500  11.959   3.462   9.786  0.1006 -2.0109 -1.6780
  826MOL0     H11501  11.795   3.478   9.869  0.3664  0.9363 -1.2869
  826MOL0     H11502  11.841   3.270   9.999  0.3858  0.1545 -0.6000
  826MOL0     H11503  11.947   3.391  10.016  0.9781  0.5671 -0.7678
  826MOL0     H11504  12.091   3.287   9.826 -0.5467 -1.7723 -1.8275
  826MOL0     H11505  11.981   3.149   9.843 -3.9598 -0.1289  3.3121
  826MOL0     H11506  12.206   3.104   9.948  0.0330 -1.0791  1.7623
  826MOL0     H11507  12.079   3.075  10.063 -2.1688  1.3800  1.1282
  826MOL0     H11508  12.315   3.403  10.187 -0.1420  0.8229 -2.9504
  826MOL0     H11509  11.703   3.313   9.500  0.9795  0.9543 -0.1988
  826MOL0     H11510  11.465   3.218   9.458 -0.1299 -0.6169 -0.3810
  827MOL0     O11511   8.845   1.603   8.528 -0.3711 -0.1230 -0.5528
  827MOL0     C11512   8.945   1.566   8.583 -0.7239  0.4766 -0.2660
  827MOL0     O11513   8.967   1.444   8.632 -0.2198 -0.3121 -0.8104
  827MOL0     C11514   8.875   1.353   8.674  0.4245 -0.0366  0.0192
  827MOL0     C11515   8.922   1.216   8.676  0.2813  0.3606  0.5943
  827MOL0     C11516   8.836   1.114   8.719 -1.1336  0.0397  0.3890
  827MOL0     C11517   8.708   1.147   8.765 -0.4071 -0.6648  0.4879
  827MOL0     O11518   8.637   1.047   8.820 -0.4494  0.8930  0.0551
  827MOL0     C11519   8.542   1.065   8.931 -0.9606 -0.5035  0.0920
  827MOL0     C11520   8.423   0.988   8.898  0.4581 -0.6773 -0.5739
  827MOL0     C11521   8.318   1.009   9.007 -0.5642  0.9817 -0.0438
  827MOL0     C11522   8.191   0.935   8.972  0.3300  0.0016 -0.4570
  827MOL0     C11523   8.094   0.936   9.080  0.0790  0.3118 -0.3301
  827MOL0     C11524   7.953   0.898   9.035  0.0286 -0.3979  0.4756
  827MOL0     C11525   7.853   0.902   9.147 -0.0957  0.3580  0.0049
  827MOL0     C11526   7.795   1.049   9.157 -0.0141 -0.5917 -1.3579
  827MOL0     N11527   7.693   1.075   9.264  0.0388 -1.2294 -0.3282
  827MOL0     C11528   7.689   1.014   9.382 -0.6260  1.4052 -0.6966
  827MOL0     C11529   7.560   1.040   9.426  0.8081 -0.1718 -0.2891
  827MOL0     C11530   7.478   0.998   9.552 -0.6723 -0.4425 -0.4668
  827MOL0     C11531   7.394   0.871   9.522 -0.2536  0.0548  0.0530
  827MOL0     C11532   7.279   0.857   9.617  0.3018  0.7518 -0.7604
  827MOL0     C11533   7.145   0.899   9.552 -0.2049  0.8894  1.2891
  827MOL0     O11534   7.109   0.796   9.454  0.0622  0.5779  0.2092
  827MOL0     C11535   7.000   0.815   9.377  0.6098  0.4920  0.2294
  827MOL0     C11536   6.998   0.738   9.264 -0.2262  0.2300 -0.3674
  827MOL0     C11537   6.882   0.726   9.179 -0.4294  0.1884 -0.9830
  827MOL0     C11538   6.902   0.642   9.060  0.3877  0.2222 -0.1186
  827MOL0     C11539   6.769   0.800   9.218  0.1497  0.1173 -0.6648
  827MOL0     C11540   6.635   0.801   9.154  1.2335 -0.0416  0.5514
  827MOL0     O11541   6.523   0.827   9.228  0.5990 -0.7180 -0.1292
  827MOL0     C11542   6.391   0.826   9.179 -0.8798  0.8828  0.2669
  827MOL0     C11543   6.305   0.906   9.253 -0.1991  0.2374 -0.5288
  827MOL0     C11544   6.173   0.922   9.218  0.6379  0.5152 -0.3323
  827MOL0     C11545   6.119   0.835   9.120 -0.0905  0.1613  0.2775
  827MOL0     O11546   5.982   0.859   9.101 -0.7524 -0.2561 -0.0261
  827MOL0     C11547   5.904   0.756   9.047 -0.5159  0.6481 -1.7562
  827MOL0     C11548   5.765   0.789   9.011  0.6808 -0.8384 -0.3096
  827MOL0     C11549   5.692   0.871   9.123  0.6854  0.4849 -0.3023
  827MOL0     C11550   5.693   1.023   9.111  0.4341  0.3155 -0.3326
  827MOL0     C11551   5.575   1.082   9.171  0.0219 -0.2044  1.1000
  827MOL0     C11552   5.548   1.068   9.315  0.5464 -0.3101 -0.9252
  827MOL0     C11553   5.438   1.169   9.362  0.9579  0.2372  0.7581
  827MOL0     C11554   5.318   1.182   9.272  0.4969 -0.4546  0.6712
  827MOL0    Cl11555   5.219   1.317   9.334  0.5441  0.4603 -0.5325
  827MOL0     C11556   6.203   0.742   9.058  0.3168  0.4461  0.5183
  827MOL0     C11557   6.337   0.745   9.080  0.2830  0.5684  0.0552
  827MOL0     O11558   6.635   0.777   9.033  0.2523  0.1599 -0.0416
  827MOL0     C11559   6.777   0.881   9.338 -1.4884 -0.1414 -0.4249
  827MOL0     C11560   6.889   0.895   9.415 -0.9146  0.6305 -0.2051
  827MOL0     N11561   7.505   1.125   9.334  0.4320 -0.0555  0.2189
  827MOL0     N11562   7.584   1.151   9.245  0.4359  0.2691 -0.5020
  827MOL0     C11563   8.659   1.281   8.756  1.0765  1.8520 -0.2122
  827MOL0     C11564   8.741   1.386   8.715 -0.5875  0.1633  0.2762
  827MOL0     C11565   9.056   1.663   8.602  0.6812 -0.5727  0.8703
  827MOL0     C11566   9.033   1.792   8.559  0.3771 -0.1063 -0.3034
  827MOL0     C11567   9.134   1.881   8.558  0.2088 -0.7654 -0.5970
  827MOL0     C11568   9.263   1.851   8.605  0.7813  0.9542 -0.2849
  827MOL0     O11569   9.350   1.958   8.618 -0.1414 -0.3678  0.1589
  827MOL0     C11570   9.468   1.952   8.694  1.2321  0.0828 -0.1011
  827MOL0     C11571   9.581   2.045   8.637 -0.9452  0.7271  0.5304
  827MOL0     C11572   9.710   2.009   8.725  0.0400 -0.8895  0.3944
  827MOL0     C11573   9.849   2.023   8.649  0.5155 -0.3664  0.0378
  827MOL0     C11574   9.892   2.160   8.608  0.0387 -0.6157 -0.7715
  827MOL0     C11575   9.935   2.266   8.579  0.7977  0.2850  0.0169
  827MOL0     C11576   9.291   1.717   8.637 -0.3172  0.4306  1.1221
  827MOL0     C11577   9.188   1.622   8.634  0.7952  0.5939 -1.5710
  827MOL0     H11578   9.023   1.188   8.647  0.6179  1.0112  1.1403
  827MOL0     H11579   8.872   1.014   8.740  1.0389  0.4501 -1.0670
  827MOL0     H11580   8.586   1.027   9.024 -0.8820  0.7584  0.5974
  827MOL0     H11581   8.521   1.172   8.944 -2.7407 -0.7104 -0.7680
  827MOL0     H11582   8.392   1.026   8.800  1.2056 -1.7052 -1.2315
  827MOL0     H11583   8.462   0.886   8.898  3.8011  0.3699  2.5228
  827MOL0     H11584   8.346   0.986   9.111 -2.3422  2.4993  0.8402
  827MOL0     H11585   8.291   1.115   9.008 -0.3735  1.0784  2.5177
  827MOL0     H11586   8.152   0.985   8.882  0.9871 -0.5731 -1.0678
  827MOL0     H11587   8.216   0.834   8.940  0.6757  0.3978 -1.5085
  827MOL0     H11588   8.124   0.873   9.164 -0.8548 -0.7853 -0.7919
  827MOL0     H11589   8.092   1.038   9.119 -0.6334 -0.4709  1.8058
  827MOL0     H11590   7.921   0.960   8.951 -0.6565 -2.6244 -1.0147
  827MOL0     H11591   7.963   0.796   8.995  1.9638 -0.1821  0.3403
  827MOL0     H11592   7.772   0.829   9.140  0.7679 -0.5938 -0.3130
  827MOL0     H11593   7.899   0.861   9.238 -0.7445 -0.5395 -0.0538
  827MOL0     H11594   7.768   1.092   9.061  1.0709 -0.1415 -1.4790
  827MOL0     H11595   7.887   1.103   9.182  0.0227 -1.1937 -0.0696
  827MOL0     H11596   7.768   0.956   9.428 -0.0312  1.5561 -1.4999
  827MOL0     H11597   7.560   0.969   9.618 -1.1261  0.2499  0.4244
  827MOL0     H11598   7.415   1.081   9.587 -1.3965 -1.5696  1.0261
  827MOL0     H11599   7.460   0.789   9.548  0.5980  0.1741 -1.6706
  827MOL0     H11600   7.366   0.859   9.417  4.0320  0.4051 -1.2975
  827MOL0     H11601   7.281   0.908   9.713  1.1007  0.0585 -0.4010
  827MOL0     H11602   7.280   0.750   9.639  1.7856  0.9023  0.0096
  827MOL0     H11603   7.167   0.990   9.496  1.6445  0.1364  0.7390
  827MOL0     H11604   7.068   0.906   9.629 -0.4617  0.1812  1.1033
  827MOL0     H11605   7.083   0.676   9.238  1.5787  1.6451  1.8070
  827MOL0     H11606   6.823   0.570   9.037 -0.1464  0.7869 -0.0781
  827MOL0     H11607   6.899   0.700   8.968 -0.8437 -0.0808 -0.2925
  827MOL0     H11608   6.996   0.586   9.054 -0.0660 -0.6248  0.3827
  827MOL0     H11609   6.339   0.972   9.332 -1.3152  3.6610 -2.7284
  827MOL0     H11610   6.103   0.982   9.276  1.3336  0.7501  0.2770
  827MOL0     H11611   5.949   0.719   8.955  2.4005 -0.2221 -0.0898
  827MOL0     H11612   5.904   0.669   9.114  1.4664 -0.3410 -2.9559
  827MOL0     H11613   5.772   0.859   8.927 -1.0109 -0.7790 -0.4343
  827MOL0     H11614   5.717   0.699   8.971 -1.7279  0.3116 -0.1726
  827MOL0     H11615   5.742   0.837   9.214 -0.3763 -0.5229 -0.0736
  827MOL0     H11616   5.589   0.836   9.136  0.6852  0.1231 -1.1919
  827MOL0     H11617   5.784   1.056   9.163 -0.1484  3.7797 -1.2084
  827MOL0     H11618   5.713   1.063   9.011 -0.9733  1.5225 -0.1690
  827MOL0     H11619   5.492   1.029   9.123  0.7670 -0.2218 -0.2173
  827MOL0     H11620   5.572   1.189   9.145 -0.1999 -0.0296  1.8125
  827MOL0     H11621   5.527   0.964   9.341 -0.9040  0.9096  3.8834
  827MOL0     H11622   5.632   1.095   9.380 -2.0918  0.1267  2.5940
  827MOL0     H11623   5.493   1.263   9.365 -0.3317  1.1072 -0.8456
  827MOL0     H11624   5.399   1.144   9.461 -1.4737 -0.2117 -0.2265
  827MOL0     H11625   5.255   1.094   9.254 -0.6243  0.0976  1.7388
  827MOL0     H11626   5.355   1.217   9.175  1.0792  2.5308  1.8425
  827MOL0     H11627   6.154   0.682   8.982  3.3739 -0.5737 -0.8014
  827MOL0     H11628   6.393   0.664   9.033  1.7518  1.6153 -0.0486
  827MOL0     H11629   6.681   0.923   9.366 -1.1468 -0.2568  0.9695
  827MOL0     H11630   6.888   0.963   9.500  0.7744  0.7179 -0.2226
  827MOL0     H11631   8.555   1.304   8.776 -0.4845 -1.5950 -3.2975
  827MOL0     H11632   8.702   1.488   8.709 -1.2917 -0.1771 -1.3305
  827MOL0     H11633   8.933   1.827   8.535  0.4907  0.0736 -0.5297
  827MOL0     H11634   9.105   1.979   8.523 -0.5451 -0.0192  1.9009
  827MOL0     H11635   9.450   1.989   8.795 -0.9892  1.6463 -0.9986
  827MOL0     H11636   9.505   1.850   8.709  2.8513  0.4904 -1.0798
  827MOL0     H11637   9.544   2.146   8.654 -2.5129  0.3849 -0.6037
  827MOL0     H11638   9.602   2.024   8.531  1.9344  2.4079  0.6721
  827MOL0     H11639   9.705   1.902   8.746 -1.5502 -0.8855  0.1409
  827MOL0     H11640   9.725   2.080   8.807 -0.7494  1.7986 -1.6535
  827MOL0     H11641   9.830   1.970   8.555 -1.7250 -2.4314  1.5482
  827MOL0     H11642   9.931   1.974   8.702 -1.2354 -3.1394  0.3776
  827MOL0     H11643   9.971   2.361   8.544  1.1520  0.6882  1.3882
  827MOL0     H11644   9.394   1.692   8.660 -0.4592 -2.1580 -0.7742
  827MOL0     H11645   9.220   1.524   8.669 -1.1924  0.8391  1.2998
  828MOL0     O11646   4.798  10.766  10.397 -0.7332 -0.2686 -0.0984
  828MOL0     C11647   4.765  10.845  10.308 -0.1433  0.0815  0.2913
  828MOL0     O11648   4.781  10.987  10.313 -0.5604  0.3964  0.4098
  828MOL0     C11649   4.811  11.043  10.434  0.2788 -0.1111  0.7700
  828MOL0     C11650   4.912  11.138  10.442  0.0884  0.8852 -0.2529
  828MOL0     C11651   4.936  11.195  10.564 -0.9674 -0.9267 -0.4870
  828MOL0     C11652   4.858  11.174  10.680 -0.7003 -0.2710  0.2691
  828MOL0     O11653   4.885  11.241  10.789  0.1099 -0.0971 -0.4840
  828MOL0     C11654   4.857  11.378  10.772  0.4450 -0.0476 -0.0203
  828MOL0     C11655   4.845  11.445  10.912  0.1291 -0.4325 -0.1381
  828MOL0     C11656   4.859  11.604  10.922  0.1773  0.2681 -0.1989
  828MOL0     C11657   4.721  11.663  10.862 -0.5070 -1.1216 -0.2321
  828MOL0     C11658   4.731  11.820  10.869  0.4653  0.1256 -0.0967
  828MOL0     C11659   4.613  11.894  10.808  0.3748  0.4656 -0.5375
  828MOL0     C11660   4.483  11.903  10.901  0.1255 -0.0173 -0.2421
  828MOL0     C11661   4.377  12.012  10.875 -0.6552 -0.6112  0.1322
  828MOL0     N11662   4.359  12.045  10.729  0.5880  1.1111  0.5645
  828MOL0     C11663   4.274  11.966  10.647 -0.4805  0.4311  0.1644
  828MOL0     C11664   4.326  11.994  10.521  0.5758  0.2496  0.0589
  828MOL0     C11665   4.286  11.925  10.389  0.4157 -1.3020 -0.3700
  828MOL0     C11666   4.250  11.777  10.401 -0.0020  1.0078 -0.5352
  828MOL0     C11667   4.098  11.763  10.396  0.2534 -1.0162  0.2309
  828MOL0     C11668   4.070  11.616  10.423  0.1827  0.5408  0.2656
  828MOL0     O11669   4.146  11.511  10.357 -0.2083  0.3391 -0.0188
  828MOL0     C11670   4.106  11.467  10.233  0.5836 -0.5580 -0.0512
  828MOL0     C11671   4.105  11.541  10.112 -0.6151  0.1168  0.2350
  828MOL0     C11672   4.053  11.500   9.985 -0.0115  0.1137 -0.4805
  828MOL0     C11673   4.043  11.601   9.876 -0.7251  0.3045 -0.7798
  828MOL0     C11674   4.021  11.364   9.971 -0.4448 -0.2249  0.0376
  828MOL0     C11675   3.981  11.297   9.848  0.2798 -0.6779  0.9606
  828MOL0     O11676   3.973  11.161   9.854  0.4646 -0.7108  0.8547
  828MOL0     C11677   3.890  11.117   9.755  0.6739  0.1639  0.7205
  828MOL0     C11678   3.939  11.082   9.627 -0.1732 -0.8818 -0.2705
  828MOL0     C11679   3.855  11.033   9.529  0.8293  0.3084 -0.0263
  828MOL0     C11680   3.723  11.013   9.552  0.4843  0.1781 -0.6022
  828MOL0     O11681   3.658  10.943   9.457  0.0793  0.7547 -0.3065
  828MOL0     C11682   3.520  10.948   9.432 -0.4004 -0.2067  0.1729
  828MOL0     C11683   3.469  10.857   9.316  0.6355 -0.0309 -0.6465
  828MOL0     C11684   3.492  10.937   9.183 -0.0996  0.1542 -1.2876
  828MOL0     C11685   3.371  11.028   9.149 -0.8981 -0.1197  0.1946
  828MOL0     C11686   3.394  11.087   9.007  0.2069 -0.0125 -0.1096
  828MOL0     C11687   3.276  11.179   8.974 -1.1648 -0.3156  0.6081
  828MOL0     C11688   3.306  11.266   8.853 -0.1962 -0.8790  0.0633
  828MOL0     C11689   3.420  11.363   8.862  0.7441 -0.5608  0.9066
  828MOL0    Cl11690   3.437  11.451   8.717 -0.1549  0.0968 -0.1443
  828MOL0     C11691   3.667  11.045   9.683  0.1565 -0.4232  1.2173
  828MOL0     C11692   3.753  11.108   9.775  0.2746  0.2125 -0.4891
  828MOL0     O11693   3.969  11.360   9.748  0.4261  0.2939  0.4905
  828MOL0     C11694   4.018  11.286  10.085  0.1554 -0.2997 -1.3676
  828MOL0     C11695   4.067  11.327  10.209 -0.6260 -0.0905 -0.5793
  828MOL0     N11696   4.429  12.083  10.523 -0.1590  0.2712  0.5269
  828MOL0     N11697   4.454  12.112  10.652 -0.6349 -0.5598  0.3497
  828MOL0     C11698   4.763  11.077  10.674  0.5286 -0.1108  0.3661
  828MOL0     C11699   4.743  11.000  10.551 -0.3007  0.1209  0.5197
  828MOL0     C11700   4.729  10.798  10.179  0.6951 -0.1972 -0.4977
  828MOL0     C11701   4.715  10.655  10.157 -0.2345  0.1609 -0.4023
  828MOL0     C11702   4.686  10.608  10.027  0.1776 -1.0395  0.0494
  828MOL0     C11703   4.679  10.692   9.920 -0.2208  0.0575 -0.5960
  828MOL0     O11704   4.678  10.627   9.799  0.0136  0.1057 -0.1352
  828MOL0     C11705   4.606  10.705   9.696 -0.6390 -0.6176 -0.3655
  828MOL0     C11706   4.707  10.783   9.613 -0.7212  0.5477 -1.0918
  828MOL0     C11707   4.754  10.695   9.512  0.2476  0.2595 -0.6233
  828MOL0     C11708   4.833  10.761   9.407  0.6865 -0.2008  0.3160
  828MOL0     C11709   4.894  10.663   9.315 -1.0338  0.6434  0.0878
  828MOL0     C11710   4.960  10.588   9.240 -0.1465 -0.0588 -0.9027
  828MOL0     C11711   4.683  10.832   9.944 -0.0573  0.3227 -0.7281
  828MOL0     C11712   4.708  10.886  10.072 -0.0867  0.8901 -0.7288
  828MOL0     H11713   4.986  11.169  10.368  3.7532  0.7831  3.0355
  828MOL0     H11714   5.014  11.270  10.561 -1.5975 -0.2458 -3.1184
  828MOL0     H11715   4.935  11.433  10.719  1.9050  0.7437  2.7535
  828MOL0     H11716   4.765  11.398  10.717  1.2732 -0.5355 -1.6258
  828MOL0     H11717   4.747  11.412  10.946 -1.4199  2.4143 -1.4598
  828MOL0     H11718   4.924  11.411  10.980  0.0824  3.6598  2.3368
  828MOL0     H11719   4.888  11.643  11.020  1.8157  0.4468 -0.7216
  828MOL0     H11720   4.944  11.636  10.860  1.2693  4.7683  3.1133
  828MOL0     H11721   4.726  11.631  10.757  1.9425  2.1425 -1.2814
  828MOL0     H11722   4.634  11.622  10.914  1.0267 -0.6387  2.9625
  828MOL0     H11723   4.731  11.842  10.976 -1.9339 -2.8818  0.6555
  828MOL0     H11724   4.821  11.852  10.816 -0.7761  1.2270 -1.6175
  828MOL0     H11725   4.641  11.999  10.795 -3.1034  1.7574  0.9979
  828MOL0     H11726   4.573  11.837  10.723  1.2723 -2.2297  0.7361
  828MOL0     H11727   4.433  11.808  10.881 -2.8161  1.2516  0.4941
  828MOL0     H11728   4.510  11.913  11.007 -2.7075  0.3496  0.5386
  828MOL0     H11729   4.427  12.100  10.917 -2.7565  0.2704  0.8984
  828MOL0     H11730   4.282  11.991  10.925 -0.6911 -2.4808 -0.6515
  828MOL0     H11731   4.202  11.888  10.671 -0.3359 -0.0016 -0.7843
  828MOL0     H11732   4.206  11.987  10.348  1.8846  2.1599  1.5640
  828MOL0     H11733   4.358  11.943  10.309 -0.7368  0.3819 -1.0799
  828MOL0     H11734   4.278  11.730  10.496 -2.8910 -2.5700 -1.2268
  828MOL0     H11735   4.291  11.729  10.312  2.4919  0.5850  0.7446
  828MOL0     H11736   4.051  11.792  10.301  0.6603  0.0173  0.3291
  828MOL0     H11737   4.047  11.821  10.474 -2.1996 -5.4392  2.2643
  828MOL0     H11738   3.963  11.602  10.408  0.4162  0.3431 -1.4646
  828MOL0     H11739   4.081  11.611  10.532  1.4460 -2.5615  0.1043
  828MOL0     H11740   4.123  11.648  10.114 -0.6194  0.1073  1.5154
  828MOL0     H11741   4.061  11.701   9.917  0.9221 -1.1458  2.4266
  828MOL0     H11742   4.118  11.593   9.797  1.1905  0.4801  0.9209
  828MOL0     H11743   3.942  11.606   9.834 -0.9334  0.0425 -0.3205
  828MOL0     H11744   4.047  11.089   9.617 -0.2506  0.8898 -0.3041
  828MOL0     H11745   3.884  11.006   9.428 -0.6122  0.1429 -0.4215
  828MOL0     H11746   3.458  10.919   9.517 -0.8087  1.8691  0.6520
  828MOL0     H11747   3.484  11.050   9.413  0.3238 -0.0453 -0.3565
  828MOL0     H11748   3.529  10.766   9.318  0.6479 -0.0394  2.4351
  828MOL0     H11749   3.366  10.821   9.328  0.8703 -1.2065 -1.9014
  828MOL0     H11750   3.496  10.861   9.105  3.6201 -2.0297  0.7677
  828MOL0     H11751   3.586  10.993   9.184 -1.4775  2.6009 -2.2775
  828MOL0     H11752   3.280  10.966   9.151 -0.7255 -0.3642  0.5843
  828MOL0     H11753   3.373  11.100   9.231  1.8868 -2.6933  2.6230
  828MOL0     H11754   3.408  11.008   8.932  0.3976  0.2395 -0.3429
  828MOL0     H11755   3.493  11.134   9.007  1.3895 -2.1904  2.7344
  828MOL0     H11756   3.183  11.127   8.948 -1.3258  0.2401  0.0423
  828MOL0     H11757   3.255  11.247   9.057 -2.5908  0.2046 -0.1412
  828MOL0     H11758   3.215  11.317   8.821 -0.9099 -2.6026 -0.7653
  828MOL0     H11759   3.323  11.205   8.764  0.8835 -0.8369  0.2200
  828MOL0     H11760   3.516  11.309   8.868  2.0794  1.5486 -0.2697
  828MOL0     H11761   3.411  11.429   8.948  0.9997  0.4780  0.1603
  828MOL0     H11762   3.562  11.026   9.703  0.3193 -2.0825  0.6846
  828MOL0     H11763   3.719  11.171   9.857  1.3493  0.5845 -0.3084
  828MOL0     H11764   3.975  11.186  10.080  0.4482 -0.4541 -0.9074
  828MOL0     H11765   4.066  11.258  10.293  1.5067 -0.9358 -1.1949
  828MOL0     H11766   4.711  11.047  10.765 -0.6463  1.5380  0.3021
  828MOL0     H11767   4.680  10.912  10.550  0.2209 -0.2584 -0.4899
  828MOL0     H11768   4.734  10.589  10.241 -0.5759 -0.4270 -0.7842
  828MOL0     H11769   4.690  10.501  10.012  2.3406 -0.8082 -1.4407
  828MOL0     H11770   4.535  10.643   9.640 -1.7622  2.5545 -2.7588
  828MOL0     H11771   4.532  10.772   9.743 -1.2556 -0.6974 -1.1977
  828MOL0     H11772   4.794  10.822   9.667  0.5536  0.5572 -3.0328
  828MOL0     H11773   4.655  10.872   9.578 -1.9406  1.8345  3.3220
  828MOL0     H11774   4.666  10.648   9.466 -1.4150  3.2213 -0.7161
  828MOL0     H11775   4.810  10.614   9.560 -2.1617 -0.9674  0.3113
  828MOL0     H11776   4.906  10.826   9.456 -1.1936  0.9123  1.7398
  828MOL0     H11777   4.766  10.824   9.348  0.5717 -1.0732 -0.5264
  828MOL0     H11778   4.999  10.528   9.161  0.3820 -0.9000 -0.0225
  828MOL0     H11779   4.667  10.904   9.864 -1.4941  0.4002 -0.4085
  828MOL0     H11780   4.710  10.992  10.095 -0.8693  0.4354  1.8003
  829MOL0     O11781   2.149   3.170   2.016 -0.5718  0.1143 -0.0055
  829MOL0     C11782   2.192   3.068   1.952 -0.1765 -0.1455  0.2120
  829MOL0     O11783   2.224   3.050   1.819  0.3050  0.4467  0.4161
  829MOL0     C11784   2.207   3.137   1.715 -0.1745 -0.6916 -0.0340
  829MOL0     C11785   2.135   3.262   1.719 -1.0865 -0.0255  0.3086
  829MOL0     C11786   2.130   3.333   1.599  0.3239 -0.5564 -0.6488
  829MOL0     C11787   2.181   3.279   1.480 -1.1179 -0.4561 -0.5626
  829MOL0     O11788   2.170   3.330   1.358 -0.3375  1.1922  0.5919
  829MOL0     C11789   2.068   3.431   1.334  0.7415 -0.4029 -0.1273
  829MOL0     C11790   1.943   3.355   1.289  0.2905  0.4189  0.1470
  829MOL0     C11791   1.840   3.452   1.245  0.7893  0.0280  0.7448
  829MOL0     C11792   1.722   3.370   1.187  0.2742  0.1397  0.1088
  829MOL0     C11793   1.604   3.467   1.174 -0.3639 -0.2503 -0.6616
  829MOL0     C11794   1.503   3.409   1.078 -0.2838  0.6111 -0.0804
  829MOL0     C11795   1.367   3.486   1.090  0.2068 -0.5595 -0.4652
  829MOL0     C11796   1.271   3.458   0.977 -0.3394  0.3225 -0.7860
  829MOL0     N11797   1.183   3.338   0.997 -0.2795  0.8256  0.0340
  829MOL0     C11798   1.061   3.332   1.051  0.2840  0.8492 -0.4821
  829MOL0     C11799   1.021   3.207   1.032  0.3733 -1.1921 -0.6442
  829MOL0     C11800   0.887   3.148   1.065 -0.0802 -0.0846 -0.3884
  829MOL0     C11801   0.781   3.201   0.968 -0.0967  0.3351 -0.2599
  829MOL0     C11802   0.638   3.144   0.995  0.8670  0.1175 -0.3503
  829MOL0     C11803   0.626   2.995   1.034 -0.3612 -1.6378 -0.9107
  829MOL0     O11804   0.481   2.975   1.048 -0.0364  0.1517 -0.2616
  829MOL0     C11805   0.447   2.843   1.076 -0.0102  0.5146 -0.3399
  829MOL0     C11806   0.316   2.806   1.060 -0.1786 -0.6042  0.9787
  829MOL0     C11807   0.271   2.674   1.068 -0.7451  0.3900 -0.1841
  829MOL0     C11808   0.119   2.659   1.034 -0.1673  0.1285 -0.2654
  829MOL0     C11809   0.348   2.576   1.127  0.1210 -0.4402 -0.9438
  829MOL0     C11810   0.305   2.442   1.166  0.4433  0.3215  0.0480
  829MOL0     O11811   0.386   2.370   1.246 -0.4565 -0.8261  0.5772
  829MOL0     C11812   0.335   2.270   1.319 -0.6034 -0.2607 -0.4057
  829MOL0     C11813   0.312   2.296   1.452  0.3488 -0.7692  0.5883
  829MOL0     C11814   0.257   2.199   1.537  0.2835 -0.4839  0.0695
  829MOL0     C11815   0.211   2.084   1.479 -0.3405  0.6895  1.3677
  829MOL0     O11816   0.143   2.002   1.560  0.0811  0.1213  0.6737
  829MOL0     C11817   0.018   1.951   1.502 -0.6619  0.3730 -0.8028
  829MOL0     C11818  -0.060   1.880   1.613  0.5917 -0.5000 -0.3958
  829MOL0     C11819  -0.028   1.734   1.636  0.3840 -0.4222 -0.4345
  829MOL0     C11820  -0.095   1.649   1.525  0.6730 -0.3406 -0.5885
  829MOL0     C11821  -0.088   1.509   1.584  0.6366  1.0814 -0.0357
  829MOL0     C11822  -0.167   1.399   1.493  0.9907  0.0313 -1.0109
  829MOL0     C11823  -0.307   1.389   1.534  0.4464 -1.4567  0.6137
  829MOL0     C11824  -0.361   1.244   1.529  0.1505  0.3003 -0.5763
  829MOL0    Cl11825  -0.536   1.237   1.573  0.0861 -0.2829 -0.3439
  829MOL0     C11826   0.247   2.052   1.348 -0.7647  0.3135 -0.0474
  829MOL0     C11827   0.309   2.146   1.265  0.2997  0.1747 -0.4704
  829MOL0     O11828   0.196   2.396   1.125  0.4524 -0.3252 -0.0558
  829MOL0     C11829   0.480   2.612   1.156  0.1138  0.0528  0.9068
  829MOL0     C11830   0.531   2.742   1.127  0.4330  0.2835 -0.5298
  829MOL0     N11831   1.124   3.134   0.975 -0.1316 -0.3698  0.7074
  829MOL0     N11832   1.221   3.211   0.965  0.6288 -0.3872 -0.3425
  829MOL0     C11833   2.251   3.164   1.479  0.3407  0.5192 -0.8311
  829MOL0     C11834   2.259   3.082   1.597  1.2718 -0.1818 -1.4214
  829MOL0     C11835   2.238   2.945   2.027  0.3700 -0.0203  0.0797
  829MOL0     C11836   2.270   2.821   1.965  0.1764 -0.5126 -0.2241
  829MOL0     C11837   2.284   2.701   2.033 -0.7811  0.6144 -0.1910
  829MOL0     C11838   2.275   2.701   2.175  0.3812 -0.4442  0.2408
  829MOL0     O11839   2.290   2.588   2.256  1.2790  0.0518  0.1743
  829MOL0     C11840   2.296   2.463   2.188 -0.1496 -0.2549 -0.0031
  829MOL0     C11841   2.296   2.349   2.287 -0.5639  0.0329  0.7114
  829MOL0     C11842   2.243   2.212   2.226  0.2525 -0.7655  0.2216
  829MOL0     C11843   2.262   2.106   2.335 -0.3344  0.6316  0.6337
  829MOL0     C11844   2.238   1.977   2.268  0.3273  0.4998  0.5518
  829MOL0     C11845   2.228   1.872   2.207 -0.6427  0.5351 -0.3722
  829MOL0     C11846   2.234   2.818   2.237  0.6327  0.1298  0.9854
  829MOL0     C11847   2.215   2.943   2.167  0.8506 -0.1483 -0.9656
  829MOL0     H11848   2.072   3.297   1.800 -1.8166 -2.2416  0.7600
  829MOL0     H11849   2.068   3.422   1.601  1.2158  0.0689 -0.6278
  829MOL0     H11850   2.047   3.497   1.418 -1.8332  1.2894 -1.9541
  829MOL0     H11851   2.110   3.506   1.267  1.2437  3.1172  3.7714
  829MOL0     H11852   1.965   3.299   1.198  1.6402  1.9281 -0.5199
  829MOL0     H11853   1.893   3.289   1.360 -0.6016  2.8432  1.9203
  829MOL0     H11854   1.799   3.515   1.325 -1.7933  0.0346 -0.4846
  829MOL0     H11855   1.886   3.511   1.165 -0.7256  1.3715  0.8262
  829MOL0     H11856   1.740   3.331   1.086  1.0301  0.7999 -0.0252
  829MOL0     H11857   1.690   3.278   1.237  0.4810 -0.2569 -0.4677
  829MOL0     H11858   1.562   3.485   1.273 -1.2806  0.7888 -1.2173
  829MOL0     H11859   1.647   3.557   1.129  0.4873 -0.5541 -0.4756
  829MOL0     H11860   1.546   3.402   0.977  2.6417 -1.4762  1.1726
  829MOL0     H11861   1.482   3.306   1.109  0.7371  0.9255  1.7857
  829MOL0     H11862   1.312   3.469   1.183 -0.7961 -0.5370 -1.0386
  829MOL0     H11863   1.391   3.592   1.082 -0.3881 -0.5402 -2.5426
  829MOL0     H11864   1.323   3.443   0.882  2.1335  4.0163 -0.2140
  829MOL0     H11865   1.207   3.546   0.969 -1.4620 -0.6528 -3.5407
  829MOL0     H11866   0.990   3.404   1.091 -1.8144 -0.3395 -1.8458
  829MOL0     H11867   0.898   3.040   1.048  1.1284  0.2714 -2.0182
  829MOL0     H11868   0.865   3.186   1.165  1.0180  2.3119 -0.9866
  829MOL0     H11869   0.808   3.164   0.869  0.3294 -0.4635  0.1364
  829MOL0     H11870   0.777   3.310   0.969 -0.9263  0.3162 -0.5689
  829MOL0     H11871   0.573   3.169   0.911  1.0741 -0.3715 -0.6630
  829MOL0     H11872   0.601   3.190   1.086  0.1297 -3.1706  1.1790
  829MOL0     H11873   0.687   2.982   1.124 -0.2136 -0.9739 -0.9090
  829MOL0     H11874   0.670   2.943   0.948 -1.1971 -1.9940 -1.1280
  829MOL0     H11875   0.245   2.885   1.038  0.7023  0.5249  2.0459
  829MOL0     H11876   0.076   2.754   0.999  4.2630  2.7685  0.7409
  829MOL0     H11877   0.119   2.587   0.952  1.8010 -2.3171  1.7200
  829MOL0     H11878   0.066   2.638   1.127 -0.9545 -0.2251 -0.7805
  829MOL0     H11879   0.318   2.398   1.491  1.0243 -0.9849  1.0630
  829MOL0     H11880   0.220   2.221   1.637 -3.4143 -0.3017 -1.1647
  829MOL0     H11881  -0.045   2.032   1.464 -1.7113 -0.9721 -2.0944
  829MOL0     H11882   0.033   1.873   1.427 -2.6986  2.8979 -4.0751
  829MOL0     H11883  -0.047   1.932   1.709 -2.3700 -2.5631  1.2923
  829MOL0     H11884  -0.168   1.892   1.598 -0.1745 -4.1923  1.2023
  829MOL0     H11885  -0.046   1.705   1.740 -1.3119  0.4301 -0.4509
  829MOL0     H11886   0.079   1.720   1.622  0.1124 -1.0197 -2.2300
  829MOL0     H11887  -0.202   1.671   1.514  0.8927  0.1222 -2.0567
  829MOL0     H11888  -0.047   1.649   1.427 -0.2601  0.8380 -1.0639
  829MOL0     H11889  -0.115   1.488   1.688  1.3753 -0.0522 -0.0560
  829MOL0     H11890   0.020   1.496   1.586  1.1101  4.1137  2.8996
  829MOL0     H11891  -0.163   1.430   1.388  0.6938  0.9089 -0.7708
  829MOL0     H11892  -0.127   1.298   1.508 -1.4520 -1.1287 -1.8526
  829MOL0     H11893  -0.365   1.448   1.462  1.6871  0.1258  0.8567
  829MOL0     H11894  -0.313   1.435   1.633  0.9676  0.3698 -0.1602
  829MOL0     H11895  -0.319   1.192   1.615 -6.3460 -2.0009  1.8553
  829MOL0     H11896  -0.328   1.180   1.446 -0.4246 -0.8000  0.0251
  829MOL0     H11897   0.201   1.963   1.306 -1.7181  1.1316 -0.7817
  829MOL0     H11898   0.342   2.125   1.164 -1.0826  0.3559 -0.9743
  829MOL0     H11899   0.552   2.540   1.193  0.4570  0.2175  0.5771
  829MOL0     H11900   0.635   2.751   1.154  0.0918  2.2627  0.3337
  829MOL0     H11901   2.301   3.128   1.389  0.9105 -1.2428  0.1342
  829MOL0     H11902   2.299   2.981   1.586  3.4140  0.7536 -2.8183
  829MOL0     H11903   2.281   2.818   1.857 -0.5236 -0.2378 -0.3050
  829MOL0     H11904   2.302   2.613   1.972 -0.5531  1.0696 -0.7910
  829MOL0     H11905   2.215   2.455   2.115  1.8184  0.6364 -2.4353
  829MOL0     H11906   2.392   2.456   2.136 -1.2687  1.4501 -2.4964
  829MOL0     H11907   2.222   2.375   2.363 -0.7892 -2.0941  1.2876
  829MOL0     H11908   2.394   2.335   2.334 -0.2306 -1.4600 -0.3723
  829MOL0     H11909   2.288   2.198   2.128 -1.8265  1.6664 -1.2152
  829MOL0     H11910   2.137   2.228   2.202  0.4635  0.3696 -0.0415
  829MOL0     H11911   2.188   2.129   2.412 -1.8500  0.1077 -0.6172
  829MOL0     H11912   2.359   2.120   2.384 -0.2925  3.4552 -0.0601
  829MOL0     H11913   2.212   1.773   2.169 -0.9842  0.2808  0.4019
  829MOL0     H11914   2.218   2.832   2.344  0.2404 -2.1669  1.2696
  829MOL0     H11915   2.174   3.026   2.224 -3.3089 -2.7191  0.2672
  830MOL0     O11916   0.722   9.823   8.999 -0.6157  0.1829 -0.1776
  830MOL0     C11917   0.832   9.878   8.996  0.1000  0.1820  0.0936
  830MOL0     O11918   0.880   9.953   8.891  0.1344  0.6070  0.0983
  830MOL0     C11919   0.801   9.983   8.785  0.1829  0.1460 -0.0449
  830MOL0     C11920   0.782   9.879   8.695 -0.2373  0.4595  0.2541
  830MOL0     C11921   0.688   9.894   8.586 -0.1908 -0.2425 -0.0653
  830MOL0     C11922   0.634  10.017   8.566  0.6927 -0.9664 -0.5397
  830MOL0     O11923   0.554  10.036   8.455 -0.2971  0.8917  1.3645
  830MOL0     C11924   0.524  10.174   8.415  0.6873  0.3112 -0.1615
  830MOL0     C11925   0.474  10.169   8.269 -0.3987 -0.2824  0.2115
  830MOL0     C11926   0.567  10.089   8.167 -0.2636 -0.9695  0.1584
  830MOL0     C11927   0.503  10.098   8.028  0.0130 -0.6372 -0.3870
  830MOL0     C11928   0.612  10.069   7.930  0.7427 -0.0574  0.1543
  830MOL0     C11929   0.625   9.920   7.898  0.1520 -0.5384  0.7388
  830MOL0     C11930   0.746   9.881   7.819  0.1556 -0.5717 -0.1377
  830MOL0     C11931   0.704   9.739   7.769 -1.5512  0.7479  0.1693
  830MOL0     N11932   0.811   9.650   7.719 -0.5844  0.8740 -0.3906
  830MOL0     C11933   0.881   9.654   7.604  0.7888  0.0414 -0.4449
  830MOL0     C11934   0.957   9.542   7.596 -0.5256  0.5121 -0.1570
  830MOL0     C11935   1.058   9.505   7.499 -0.6111 -0.0581 -0.2002
  830MOL0     C11936   1.011   9.389   7.404  0.7550  1.2033 -0.6700
  830MOL0     C11937   1.081   9.402   7.266  0.9468  0.7043 -0.9359
  830MOL0     C11938   1.083   9.256   7.196  0.1220 -0.2021  0.5457
  830MOL0     O11939   1.080   9.299   7.054  0.1063 -0.4003 -0.7963
  830MOL0     C11940   1.042   9.211   6.958  0.7401 -0.7722 -0.4496
  830MOL0     C11941   1.049   9.076   6.971  0.0483  0.4014  0.1671
  830MOL0     C11942   0.986   8.995   6.872  0.5491  0.3624 -0.0003
  830MOL0     C11943   0.977   8.845   6.893  0.2623 -0.0958  0.5577
  830MOL0     C11944   0.928   9.067   6.757  0.7278  0.1714  0.3048
  830MOL0     C11945   0.857   9.003   6.640  0.3583 -0.1216 -0.7692
  830MOL0     O11946   0.805   9.096   6.557  0.0409  0.5680  0.1479
  830MOL0     C11947   0.769   9.061   6.429  0.7687  0.3855  0.2209
  830MOL0     C11948   0.644   9.008   6.392 -0.0989 -0.4143 -1.1498
  830MOL0     C11949   0.602   8.999   6.260  0.3709 -0.4411 -0.9416
  830MOL0     C11950   0.691   9.022   6.164 -0.0590 -0.0737 -0.2800
  830MOL0     O11951   0.635   9.022   6.041  0.3108 -0.1685  0.2201
  830MOL0     C11952   0.718   9.046   5.924  0.1596 -0.5654 -0.1851
  830MOL0     C11953   0.615   9.089   5.818 -0.9446  0.0745 -0.2130
  830MOL0     C11954   0.677   9.065   5.678  1.1026  0.9968  0.4340
  830MOL0     C11955   0.563   9.101   5.587 -0.3867 -0.0694  0.1034
  830MOL0     C11956   0.635   9.149   5.461  0.5559 -0.6866 -0.4742
  830MOL0     C11957   0.527   9.227   5.386  0.6008 -0.6476 -0.4422
  830MOL0     C11958   0.591   9.253   5.249  0.7116 -0.1157  0.6621
  830MOL0     C11959   0.566   9.142   5.147  0.0115  0.1743  0.0290
  830MOL0    Cl11960   0.655   9.162   5.002 -0.3524 -0.3128 -0.6106
  830MOL0     C11961   0.814   9.086   6.192 -0.2902 -0.0530 -0.0365
  830MOL0     C11962   0.853   9.107   6.325 -0.0377 -0.8261  0.3690
  830MOL0     O11963   0.831   8.880   6.636  1.1377 -0.9272 -0.4184
  830MOL0     C11964   0.927   9.201   6.754 -0.5511 -0.2722  0.0622
  830MOL0     C11965   0.977   9.271   6.853 -0.4224  0.4212  0.0659
  830MOL0     N11966   0.932   9.473   7.716  0.3504 -0.7368 -0.7938
  830MOL0     N11967   0.841   9.535   7.781  0.3155 -0.7194 -0.0474
  830MOL0     C11968   0.660  10.123   8.660  0.0232 -0.7587 -0.4979
  830MOL0     C11969   0.746  10.110   8.766 -0.0255 -0.9173  0.3053
  830MOL0     C11970   0.915   9.880   9.122  1.2729 -1.2990  0.1624
  830MOL0     C11971   0.863   9.809   9.229 -0.1855  0.0170  0.0551
  830MOL0     C11972   0.945   9.801   9.342  0.2181 -0.7293 -0.5500
  830MOL0     C11973   1.069   9.860   9.356 -0.4295 -0.1209 -0.7863
  830MOL0     O11974   1.151   9.852   9.470 -0.3533 -0.1124  0.6124
  830MOL0     C11975   1.135   9.732   9.550 -0.7293  0.2719  0.0870
  830MOL0     C11976   1.248   9.708   9.658 -0.3023 -0.3264 -0.4690
  830MOL0     C11977   1.383   9.664   9.602  0.2128 -0.3938 -0.3532
  830MOL0     C11978   1.503   9.666   9.704  0.4555  0.4800 -0.0944
  830MOL0     C11979   1.503   9.794   9.779  0.8607 -0.1370  0.2930
  830MOL0     C11980   1.506   9.907   9.806  0.2178 -0.4470 -0.0665
  830MOL0     C11981   1.118   9.932   9.244  0.6411 -0.4627 -0.7403
  830MOL0     C11982   1.038   9.945   9.128 -0.4798  1.1178  0.7318
  830MOL0     H11983   0.821   9.782   8.723  1.5807  0.2647 -2.5404
  830MOL0     H11984   0.672   9.812   8.517  1.1646 -2.0239  1.6279
  830MOL0     H11985   0.449  10.212   8.486  1.0004  0.3264  0.1623
  830MOL0     H11986   0.602  10.249   8.429  1.2141 -0.5166  1.6733
  830MOL0     H11987   0.375  10.123   8.273 -1.1714  0.6915 -3.6566
  830MOL0     H11988   0.465  10.272   8.235 -1.0037 -0.4082 -0.0195
  830MOL0     H11989   0.664  10.140   8.165 -0.4981  0.1162  5.0101
  830MOL0     H11990   0.581   9.984   8.193  1.5782 -1.5520 -2.7531
  830MOL0     H11991   0.411  10.040   8.022 -0.6617  0.4288 -0.5558
  830MOL0     H11992   0.467  10.196   7.997 -0.2861 -1.3217 -2.3128
  830MOL0     H11993   0.573  10.109   7.836 -2.3623 -1.2987  0.7581
  830MOL0     H11994   0.712  10.092   7.967  0.8074 -0.2891  0.1238
  830MOL0     H11995   0.640   9.869   7.993 -2.6074 -4.3249 -0.6061
  830MOL0     H11996   0.531   9.884   7.855 -0.6849  1.7208  0.5154
  830MOL0     H11997   0.770   9.939   7.729  0.4092 -1.6506 -0.7874
  830MOL0     H11998   0.840   9.883   7.876  1.1993  0.7578 -1.7848
  830MOL0     H11999   0.627   9.746   7.692 -3.0595  1.4315  1.6630
  830MOL0     H12000   0.656   9.688   7.854 -2.1564  0.9154 -0.0644
  830MOL0     H12001   0.890   9.721   7.519  2.4886 -2.6759 -2.5722
  830MOL0     H12002   1.083   9.596   7.444  1.2054 -1.3140 -1.5608
  830MOL0     H12003   1.156   9.483   7.544 -0.0943  1.3377 -0.5841
  830MOL0     H12004   0.902   9.387   7.389  0.8389 -1.0224 -1.2819
  830MOL0     H12005   1.037   9.293   7.448 -1.0828  0.7630 -0.4682
  830MOL0     H12006   1.182   9.444   7.277 -0.1596  3.1607  0.9104
  830MOL0     H12007   1.035   9.483   7.210 -2.5732  2.7401  4.1162
  830MOL0     H12008   0.985   9.211   7.212 -0.0107  0.7615  2.6923
  830MOL0     H12009   1.169   9.192   7.214  2.0328  2.1627  0.2942
  830MOL0     H12010   1.088   9.033   7.062 -1.7358  0.3448  0.9425
  830MOL0     H12011   1.007   8.802   6.797 -1.9205  1.0884 -0.7411
  830MOL0     H12012   1.051   8.825   6.970  0.8951  0.8737  0.2248
  830MOL0     H12013   0.877   8.807   6.919  1.1240 -2.6604  0.4013
  830MOL0     H12014   0.587   8.977   6.479  2.4699  0.7489  1.0879
  830MOL0     H12015   0.505   8.961   6.231  0.3369 -0.9705 -0.1516
  830MOL0     H12016   0.783   9.134   5.935 -1.6076  0.8806 -0.7078
  830MOL0     H12017   0.778   8.965   5.883  0.7049  0.4894 -1.5702
  830MOL0     H12018   0.516   9.047   5.837 -2.1966  3.1421  0.5751
  830MOL0     H12019   0.603   9.198   5.818 -2.9376 -0.1118 -0.2577
  830MOL0     H12020   0.699   8.958   5.668 -2.5131  0.0037  1.4933
  830MOL0     H12021   0.766   9.126   5.663  0.8112  2.0972  2.7436
  830MOL0     H12022   0.495   9.017   5.572  2.5864 -2.4336 -0.9884
  830MOL0     H12023   0.503   9.185   5.625 -3.0791 -2.0486  0.5424
  830MOL0     H12024   0.683   9.068   5.404  3.9895  0.6109  0.3199
  830MOL0     H12025   0.702   9.231   5.488 -2.3798  2.9759 -3.3756
  830MOL0     H12026   0.441   9.161   5.390  0.1956 -0.0577  1.6201
  830MOL0     H12027   0.517   9.326   5.433 -0.4317 -0.6717 -0.6017
  830MOL0     H12028   0.699   9.262   5.256  0.9095 -0.1810 -1.5303
  830MOL0     H12029   0.555   9.347   5.205 -1.1026 -1.6229 -1.3296
  830MOL0     H12030   0.463   9.122   5.114  0.0088 -1.5162  0.9545
  830MOL0     H12031   0.610   9.052   5.191  1.7228  1.5770  1.3134
  830MOL0     H12032   0.888   9.116   6.119 -1.1771 -1.5448 -1.6350
  830MOL0     H12033   0.930   9.174   6.363 -1.7399  1.6406 -0.2778
  830MOL0     H12034   0.891   9.263   6.672 -0.9771 -1.9780 -1.1086
  830MOL0     H12035   0.967   9.379   6.844  0.9596  0.8260  2.3869
  830MOL0     H12036   0.622  10.223   8.640 -0.7549 -0.8774  0.3422
  830MOL0     H12037   0.780  10.195   8.826 -1.1658  0.1375 -0.4823
  830MOL0     H12038   0.767   9.760   9.228 -0.9876  1.5302 -0.6057
  830MOL0     H12039   0.914   9.733   9.421  2.6808 -1.8959 -0.4836
  830MOL0     H12040   1.036   9.739   9.597 -0.7818 -2.6702  0.5524
  830MOL0     H12041   1.151   9.659   9.471 -0.1479  1.0333 -0.5118
  830MOL0     H12042   1.221   9.624   9.722 -1.2072 -0.2219 -0.7085
  830MOL0     H12043   1.247   9.798   9.719 -1.2844 -1.0018  0.5638
  830MOL0     H12044   1.396   9.723   9.511 -2.0713  1.2672  0.2976
  830MOL0     H12045   1.363   9.562   9.568  1.6392 -0.6616 -0.4421
  830MOL0     H12046   1.602   9.662   9.657  0.8052 -1.7544  0.7307
  830MOL0     H12047   1.492   9.579   9.769  3.4581 -0.5732 -0.8097
  830MOL0     H12048   1.509  10.012   9.825 -1.1205 -0.5618  0.8840
  830MOL0     H12049   1.213   9.980   9.268 -0.8245  1.4342  1.7318
  830MOL0     H12050   1.071  10.007   9.045 -1.7476 -2.0345 -2.4064
  831MOL0     O12051  10.781   5.031  10.842  0.8051  0.3312 -0.7358
  831MOL0     C12052  10.787   4.922  10.797  0.3261  0.3302  0.0654
  831MOL0     O12053  10.750   4.805  10.862  0.2851  0.2664 -0.9569
  831MOL0     C12054  10.697   4.812  10.993 -0.2119  0.0467 -0.1119
  831MOL0     C12055  10.720   4.693  11.070 -0.6808  0.0425  0.8918
  831MOL0     C12056  10.645   4.673  11.186  0.4862 -0.6752  0.8216
  831MOL0     C12057  10.554   4.767  11.234 -0.5213  0.1273  0.5509
  831MOL0     O12058  10.473   4.740  11.353  0.1534 -0.0921  0.4386
  831MOL0     C12059  10.407   4.841  11.420  0.5098  0.5610  0.2813
  831MOL0     C12060  10.371   4.760  11.548  0.7803  0.1979 -0.0483
  831MOL0     C12061  10.473   4.749  11.662  1.0178  0.1934 -0.4600
  831MOL0     C12062  10.508   4.883  11.715 -0.3885 -0.8377 -0.0328
  831MOL0     C12063  10.624   4.867  11.815 -0.2876 -0.9122 -0.3580
  831MOL0     C12064  10.631   4.975  11.917 -0.3461  0.0557 -1.1661
  831MOL0     C12065  10.646   5.113  11.861 -0.0605 -0.3784  0.1342
  831MOL0     C12066  10.620   5.237  11.948 -0.8966 -0.3598  0.1040
  831MOL0     N12067  10.624   5.364  11.875  0.7022  1.0095 -0.6899
  831MOL0     C12068  10.516   5.421  11.821  0.8133 -1.0261  0.6012
  831MOL0     C12069  10.564   5.530  11.753  0.0390 -0.5807 -0.5110
  831MOL0     C12070  10.485   5.623  11.663  0.3387  0.1387  0.3867
  831MOL0     C12071  10.360   5.692  11.729 -0.0636 -0.4496 -0.1809
  831MOL0     C12072  10.404   5.801  11.828  0.6389 -0.0611  0.1905
  831MOL0     C12073  10.307   5.833  11.948  0.4860  0.2603  0.5325
  831MOL0     O12074  10.172   5.863  11.900  0.5162  0.0825 -0.2508
  831MOL0     C12075  10.077   5.925  11.981 -1.5429 -0.3332 -0.8189
  831MOL0     C12076   9.949   5.952  11.927 -1.2061  0.2992 -0.2453
  831MOL0     C12077   9.843   6.002  12.003  0.5429  0.3300 -0.3610
  831MOL0     C12078   9.713   6.017  11.931 -0.1656 -0.2193  0.3825
  831MOL0     C12079   9.875   6.053  12.136  0.5973  0.3509  0.0586
  831MOL0     C12080   9.770   6.112  12.238  0.1328 -0.0387  0.5352
  831MOL0     O12081   9.637   6.108  12.207 -0.9147  0.6704 -0.0838
  831MOL0     C12082   9.544   6.118  12.303  0.2826 -0.5074  0.5917
  831MOL0     C12083   9.557   6.093  12.441 -0.0669  0.8055  0.2279
  831MOL0     C12084   9.443   6.080  12.516 -0.0167  1.5308 -0.2635
  831MOL0     C12085   9.318   6.109  12.463  0.9406 -0.9350  0.6805
  831MOL0     O12086   9.202   6.103  12.531  0.4964 -1.1008 -0.1333
  831MOL0     C12087   9.200   6.096  12.673  0.4671 -0.1124  0.9875
  831MOL0     C12088   9.051   6.081  12.707 -0.5448 -0.3154 -0.2747
  831MOL0     C12089   8.972   6.207  12.685 -0.0473 -0.3269  0.0821
  831MOL0     C12090   8.836   6.181  12.764 -0.0107  0.7979 -0.3924
  831MOL0     C12091   8.719   6.294  12.740 -0.0038 -0.5403 -0.0352
  831MOL0     C12092   8.761   6.440  12.745  0.2138  0.2776 -0.5640
  831MOL0     C12093   8.779   6.481  12.893 -0.7048  0.1026  0.4422
  831MOL0     C12094   8.832   6.630  12.907 -0.0109  0.3432  0.5198
  831MOL0    Cl12095   8.936   6.651  13.058  0.5430 -0.0401 -0.0199
  831MOL0     C12096   9.303   6.121  12.326  0.1027 -0.1451  0.0288
  831MOL0     C12097   9.415   6.138  12.244  0.0506  0.6797 -0.1077
  831MOL0     O12098   9.817   6.171  12.334  0.4797  0.4382  0.1913
  831MOL0     C12099  10.008   6.034  12.191 -0.3990 -0.4753  0.0476
  831MOL0     C12100  10.100   5.964  12.114  0.4704  1.0743 -0.2663
  831MOL0     N12101  10.701   5.533  11.775 -0.4162  0.1087  0.1030
  831MOL0     N12102  10.739   5.433  11.852 -0.1867  0.5338  0.5820
  831MOL0     C12103  10.532   4.883  11.156 -0.8505 -0.2360 -0.0747
  831MOL0     C12104  10.598   4.906  11.036  0.1027  0.6581 -0.9143
  831MOL0     C12105  10.861   4.900  10.666 -0.3716 -0.3186 -0.0696
  831MOL0     C12106  10.931   5.005  10.601  0.3144  0.3523 -0.4168
  831MOL0     C12107  10.989   4.988  10.469 -0.6933  0.0251 -0.3106
  831MOL0     C12108  10.989   4.867  10.407  0.5551  0.0256 -0.9657
  831MOL0     O12109  11.042   4.864  10.280  0.5197 -0.1609 -0.0596
  831MOL0     C12110  11.018   4.752  10.198  0.1276  0.7299  1.1623
  831MOL0     C12111  11.047   4.776  10.049  0.9990 -0.4611  0.7110
  831MOL0     C12112  10.918   4.843   9.974 -0.1096  0.0201 -0.4929
  831MOL0     C12113  10.908   4.777   9.841 -0.0915 -0.1382  0.4948
  831MOL0     C12114  10.811   4.855   9.767  0.0400 -1.4337 -0.5271
  831MOL0     C12115  10.739   4.926   9.694 -0.2475  0.0197  0.0327
  831MOL0     C12116  10.928   4.759  10.474 -0.7903  0.5581 -0.5068
  831MOL0     C12117  10.872   4.780  10.602 -0.0305  0.4577  0.4491
  831MOL0     H12118  10.780   4.612  11.030 -1.5385  0.2019 -0.8247
  831MOL0     H12119  10.666   4.577  11.233  1.6520 -0.9433 -0.1970
  831MOL0     H12120  10.469   4.929  11.439  2.5930 -1.2117  2.4017
  831MOL0     H12121  10.316   4.875  11.370 -1.9651 -1.0611  3.3028
  831MOL0     H12122  10.277   4.803  11.585  0.1948  0.6988 -1.9733
  831MOL0     H12123  10.347   4.657  11.522 -1.9723  1.2372 -2.0591
  831MOL0     H12124  10.425   4.696  11.745  0.3850 -1.8201 -2.0305
  831MOL0     H12125  10.562   4.695  11.630  1.2222  0.8981 -1.1142
  831MOL0     H12126  10.551   4.932  11.626  0.8331 -2.1963 -0.2214
  831MOL0     H12127  10.421   4.940  11.748  0.7556  0.0712  1.5121
  831MOL0     H12128  10.625   4.785  11.887 -1.2858  1.2721  2.3093
  831MOL0     H12129  10.720   4.845  11.768 -0.0585 -3.1702  1.0166
  831MOL0     H12130  10.538   4.979  11.975 -0.1413 -0.1229 -0.8201
  831MOL0     H12131  10.715   4.963  11.986  0.3460  3.8498 -1.1262
  831MOL0     H12132  10.752   5.127  11.838 -0.1036  1.7021  1.0082
  831MOL0     H12133  10.581   5.113  11.773 -1.0381 -5.9639  0.5174
  831MOL0     H12134  10.696   5.236  12.027  0.9058  0.5048 -1.5443
  831MOL0     H12135  10.518   5.224  11.985 -2.0616 -1.1485 -3.0660
  831MOL0     H12136  10.414   5.386  11.812  0.2836  0.9781 -4.3641
  831MOL0     H12137  10.557   5.690  11.616 -0.6517  2.9676  2.6106
  831MOL0     H12138  10.450   5.567  11.576  5.2086  0.0383 -1.8302
  831MOL0     H12139  10.298   5.614  11.774  4.3336 -3.3465  1.6182
  831MOL0     H12140  10.310   5.741  11.646 -1.2066 -0.5813  0.4093
  831MOL0     H12141  10.428   5.890  11.768  3.0940  1.1793  2.7723
  831MOL0     H12142  10.497   5.763  11.870  1.8229  1.8390 -0.5971
  831MOL0     H12143  10.348   5.919  12.002 -1.0953  0.7692  0.9592
  831MOL0     H12144  10.301   5.749  12.018 -1.9042 -1.0523 -1.1152
  831MOL0     H12145   9.928   5.927  11.823  3.9498  4.3085 -2.6712
  831MOL0     H12146   9.625   5.990  11.990 -2.3044  3.5417 -0.7252
  831MOL0     H12147   9.707   6.126  11.924  1.7295 -0.1582 -0.9400
  831MOL0     H12148   9.705   5.983  11.828 -1.9090  1.3721 -0.0590
  831MOL0     H12149   9.650   6.063  12.487 -1.2769  0.9799  3.0392
  831MOL0     H12150   9.454   6.044  12.618 -1.4298 -0.0877 -0.6398
  831MOL0     H12151   9.258   6.010  12.707  0.4909 -1.1558 -1.4716
  831MOL0     H12152   9.240   6.193  12.705 -0.5147  1.4223 -1.9840
  831MOL0     H12153   9.008   5.993  12.659 -1.1761  0.0902 -0.4606
  831MOL0     H12154   9.068   6.062  12.813  1.7037 -0.5558 -0.6214
  831MOL0     H12155   8.964   6.230  12.579 -0.8312  2.3718  0.6670
  831MOL0     H12156   9.023   6.291  12.733 -0.2044 -0.5450  0.6422
  831MOL0     H12157   8.790   6.084  12.746 -0.8838  1.0340  0.5019
  831MOL0     H12158   8.863   6.202  12.868  0.8530 -0.0597 -0.4228
  831MOL0     H12159   8.639   6.275  12.811  1.8165  0.4257  2.4115
  831MOL0     H12160   8.686   6.292  12.636 -1.9039 -0.3769  0.5312
  831MOL0     H12161   8.852   6.458  12.688  2.1516 -1.1741  1.8442
  831MOL0     H12162   8.677   6.494  12.702 -0.8578 -2.0453 -1.5651
  831MOL0     H12163   8.849   6.420  12.952 -0.9579 -0.6480 -0.0241
  831MOL0     H12164   8.689   6.476  12.954 -0.1918  5.5393  2.2433
  831MOL0     H12165   8.750   6.702  12.904 -1.5885 -1.3763 -1.9991
  831MOL0     H12166   8.882   6.658  12.814  2.2062 -1.7971  0.9656
  831MOL0     H12167   9.200   6.142  12.298 -0.3862 -0.7650  1.3120
  831MOL0     H12168   9.416   6.161  12.138  2.2173  1.2891 -0.0028
  831MOL0     H12169  10.034   6.077  12.288 -1.4585  3.6080 -1.2552
  831MOL0     H12170  10.193   5.928  12.157 -0.7712 -2.4000 -0.1791
  831MOL0     H12171  10.459   4.957  11.187 -1.8049 -1.4395  0.6416
  831MOL0     H12172  10.583   4.995  10.976  0.6085  0.7024 -0.9802
  831MOL0     H12173  10.931   5.106  10.641 -0.2294  0.0255  0.4437
  831MOL0     H12174  11.040   5.069  10.418  1.3504  0.6869  2.4805
  831MOL0     H12175  11.075   4.666  10.236  5.3453  2.9709 -0.6343
  831MOL0     H12176  10.911   4.732  10.206 -0.0038  1.9252  3.1568
  831MOL0     H12177  11.061   4.675  10.009 -0.5278 -0.3477 -0.1832
  831MOL0     H12178  11.142   4.828  10.047  0.9747 -0.4299 -0.7907
  831MOL0     H12179  10.935   4.950   9.957 -1.5069  0.3309 -0.1000
  831MOL0     H12180  10.825   4.812  10.023 -0.5527 -0.8938 -1.8498
  831MOL0     H12181  10.866   4.678   9.861  1.9931 -1.1441  0.2259
  831MOL0     H12182  11.008   4.773   9.796 -0.5331  1.3777 -0.6652
  831MOL0     H12183  10.680   4.980   9.623  0.6396  0.5647 -0.3026
  831MOL0     H12184  10.918   4.658  10.436 -0.4701  0.5874 -0.6632
  831MOL0     H12185  10.820   4.689  10.630  1.5277 -0.6443 -0.1357
  832MOL0     O12186   6.072   6.384   6.641 -0.1046 -0.1274  0.4938
  832MOL0     C12187   5.967   6.369   6.695 -0.0277 -0.3456 -0.0611
  832MOL0     O12188   5.906   6.461   6.778  0.0617  0.4391  0.2148
  832MOL0     C12189   5.960   6.582   6.805 -1.5749 -0.2829 -0.8988
  832MOL0     C12190   6.026   6.665   6.717 -0.0009 -0.4226  0.1081
  832MOL0     C12191   6.088   6.787   6.753 -0.8607 -0.0749 -0.9937
  832MOL0     C12192   6.092   6.827   6.885 -0.7369 -0.5359  0.4857
  832MOL0     O12193   6.158   6.936   6.909  0.8022  0.1027  0.4526
  832MOL0     C12194   6.185   6.980   7.044 -0.3547  1.2587 -0.0733
  832MOL0     C12195   6.248   7.111   7.077 -0.3026 -0.4608 -0.0267
  832MOL0     C12196   6.374   7.128   7.010 -0.6687 -0.0894  0.5869
  832MOL0     C12197   6.439   7.265   7.022 -1.2364  0.2649  0.2832
  832MOL0     C12198   6.601   7.242   7.022  0.4896  0.3203 -0.2361
  832MOL0     C12199   6.655   7.387   7.032 -0.0954  0.4934  0.0215
  832MOL0     C12200   6.812   7.380   7.018  0.1627 -0.4879  0.2916
  832MOL0     C12201   6.885   7.340   7.143  0.4112 -0.2546  0.4409
  832MOL0     N12202   6.864   7.432   7.256  0.0592 -0.0635  0.1279
  832MOL0     C12203   6.907   7.555   7.270  0.4054  0.1879  0.2406
  832MOL0     C12204   6.880   7.596   7.392 -0.7074 -0.2417  1.0256
  832MOL0     C12205   6.928   7.724   7.466  0.0063  0.7663  0.1705
  832MOL0     C12206   7.080   7.753   7.433 -0.0478  0.3524  0.0665
  832MOL0     C12207   7.126   7.866   7.527 -0.1469 -0.4051 -0.4100
  832MOL0     C12208   7.258   7.907   7.479  0.5457  0.2498 -0.4775
  832MOL0     O12209   7.303   8.009   7.561 -0.3722 -0.3999  0.7136
  832MOL0     C12210   7.369   7.990   7.673 -0.7025  0.2015  0.7682
  832MOL0     C12211   7.418   7.875   7.728  0.1289  0.0990  1.3209
  832MOL0     C12212   7.490   7.867   7.851  0.3468  0.2083  0.1401
  832MOL0     C12213   7.544   7.734   7.895 -1.0002  0.6273  0.5045
  832MOL0     C12214   7.501   7.975   7.928  1.2649  0.0703  0.3285
  832MOL0     C12215   7.550   7.975   8.069  0.0737  0.6252 -0.3345
  832MOL0     O12216   7.528   8.085   8.140 -0.2141 -0.3057  0.5418
  832MOL0     C12217   7.581   8.098   8.261 -0.0258  0.0934 -0.3051
  832MOL0     C12218   7.501   8.122   8.378 -0.6252  0.5962 -0.1520
  832MOL0     C12219   7.556   8.145   8.499  0.3189 -0.1370  0.2630
  832MOL0     C12220   7.698   8.159   8.515  0.8998 -0.7483 -0.4344
  832MOL0     O12221   7.743   8.196   8.641 -0.4452  0.5575  0.7788
  832MOL0     C12222   7.799   8.094   8.717  0.1735  0.2281 -1.3080
  832MOL0     C12223   7.866   8.152   8.847  0.4084  0.6031  0.2368
  832MOL0     C12224   7.896   8.044   8.953  0.2397  0.0092 -0.3672
  832MOL0     C12225   8.015   7.951   8.918  0.2609 -0.0861  0.0694
  832MOL0     C12226   8.017   7.829   9.016  0.4858  0.1910 -0.5809
  832MOL0     C12227   7.892   7.753   9.017  1.1812  0.6635 -0.4934
  832MOL0     C12228   7.936   7.624   9.097  0.5426 -0.1564 -0.2131
  832MOL0     C12229   7.809   7.530   9.120 -0.0915 -0.3461 -0.0245
  832MOL0    Cl12230   7.742   7.457   8.968 -0.3395 -0.4497  0.4444
  832MOL0     C12231   7.775   8.148   8.395 -0.1744  0.4597  0.9242
  832MOL0     C12232   7.721   8.112   8.273  0.7615 -0.2480  0.3386
  832MOL0     O12233   7.601   7.876   8.114 -0.3976  0.0009 -0.2469
  832MOL0     C12234   7.457   8.100   7.873 -0.2863  0.1778  0.1077
  832MOL0     C12235   7.390   8.108   7.748 -0.5799  0.5493  0.7588
  832MOL0     N12236   6.796   7.503   7.442  0.0729  0.4488 -0.5249
  832MOL0     N12237   6.797   7.396   7.375 -0.6362  0.0653  0.6431
  832MOL0     C12238   6.035   6.740   6.986  0.1217  0.2299  0.7146
  832MOL0     C12239   5.975   6.614   6.942 -0.2955  0.0762 -0.7386
  832MOL0     C12240   5.916   6.228   6.683  0.0561  0.1535  0.1159
  832MOL0     C12241   5.991   6.126   6.622  0.7768  0.0730  0.9034
  832MOL0     C12242   5.939   5.998   6.592 -0.3121  0.2381 -0.3488
  832MOL0     C12243   5.822   5.953   6.643 -0.5251 -0.2047 -0.6188
  832MOL0     O12244   5.775   5.827   6.619 -0.3033 -0.3881 -0.6690
  832MOL0     C12245   5.825   5.766   6.498 -0.0381 -0.5047  0.7899
  832MOL0     C12246   5.750   5.641   6.461  0.1095  0.7532 -0.1512
  832MOL0     C12247   5.754   5.531   6.565 -0.7731  0.0193 -0.4475
  832MOL0     C12248   5.683   5.398   6.522  0.7915 -0.2862  0.1714
  832MOL0     C12249   5.539   5.432   6.482 -0.3926  0.6759  0.8420
  832MOL0     C12250   5.425   5.468   6.457 -0.0225 -0.2646  0.2954
  832MOL0     C12251   5.749   6.045   6.722 -0.9222  0.3427 -0.2211
  832MOL0     C12252   5.800   6.181   6.744  0.1823  0.0460  1.1091
  832MOL0     H12253   6.025   6.633   6.613 -2.4198 -2.2242  0.5788
  832MOL0     H12254   6.151   6.842   6.685  2.0820  3.8303  4.1896
  832MOL0     H12255   6.082   6.992   7.078 -0.9535  3.1859 -2.2741
  832MOL0     H12256   6.253   6.905   7.085 -2.0891  0.8491  2.2399
  832MOL0     H12257   6.190   7.195   7.038  1.1976  0.0007 -1.3460
  832MOL0     H12258   6.271   7.117   7.184  0.1811 -1.0811 -0.0907
  832MOL0     H12259   6.441   7.050   7.048 -1.7547 -3.8455 -4.1778
  832MOL0     H12260   6.364   7.101   6.905 -2.8778  0.8936  0.4942
  832MOL0     H12261   6.412   7.311   6.926  0.8209 -1.1766 -1.0677
  832MOL0     H12262   6.408   7.324   7.109 -2.5462  1.7755 -1.1229
  832MOL0     H12263   6.634   7.189   7.112  5.5280  3.2650  0.0526
  832MOL0     H12264   6.632   7.181   6.937  0.4056 -0.6348  0.3981
  832MOL0     H12265   6.620   7.451   6.950 -0.4755 -0.3112 -0.4599
  832MOL0     H12266   6.629   7.439   7.124  1.2205  2.4684 -0.6642
  832MOL0     H12267   6.828   7.310   6.935 -1.7446 -1.0801  0.3727
  832MOL0     H12268   6.854   7.475   6.984 -0.7522 -0.2112 -0.1112
  832MOL0     H12269   6.988   7.339   7.104 -0.0876  0.4721 -0.9675
  832MOL0     H12270   6.854   7.240   7.174  3.0295 -2.6689 -3.6496
  832MOL0     H12271   6.962   7.620   7.203  1.8235 -1.7589 -0.5950
  832MOL0     H12272   6.865   7.806   7.432 -1.0808  0.6350  1.7639
  832MOL0     H12273   6.910   7.704   7.572 -3.4630  3.1510  0.1769
  832MOL0     H12274   7.083   7.779   7.327 -0.8925 -0.8503 -0.2792
  832MOL0     H12275   7.142   7.664   7.447 -2.3321 -1.2175  0.9010
  832MOL0     H12276   7.126   7.830   7.631  1.6506 -0.1945 -0.3093
  832MOL0     H12277   7.063   7.955   7.518  0.3836 -0.0222 -0.3544
  832MOL0     H12278   7.236   7.933   7.375 -0.5923  0.4713 -0.1998
  832MOL0     H12279   7.331   7.826   7.481  0.0967 -0.2017  2.8629
  832MOL0     H12280   7.409   7.784   7.669  0.2505 -0.1222  1.6406
  832MOL0     H12281   7.652   7.736   7.916 -0.6279 -0.8965 -0.9752
  832MOL0     H12282   7.495   7.683   7.979 -1.2176 -0.0792 -0.0373
  832MOL0     H12283   7.531   7.657   7.818 -0.4719 -0.2675  1.2805
  832MOL0     H12284   7.393   8.124   8.368 -0.7922 -1.4753  0.7472
  832MOL0     H12285   7.492   8.140   8.587  0.2546 -2.9809  0.1688
  832MOL0     H12286   7.715   8.028   8.742  0.3868  1.1128  2.3731
  832MOL0     H12287   7.867   8.022   8.671 -0.8093 -2.9990  1.8033
  832MOL0     H12288   7.957   8.208   8.822  1.2977 -0.6943  0.4418
  832MOL0     H12289   7.792   8.215   8.896  0.6511  2.5960 -1.8250
  832MOL0     H12290   7.806   7.985   8.968 -0.7847  1.9514  1.7277
  832MOL0     H12291   7.904   8.100   9.047  1.7718 -1.4403  0.4229
  832MOL0     H12292   8.020   7.921   8.813 -0.5808  1.4922 -0.4444
  832MOL0     H12293   8.109   8.005   8.929  1.6630 -2.1813 -0.9822
  832MOL0     H12294   8.055   7.856   9.115  0.7657  0.1151 -0.6663
  832MOL0     H12295   8.081   7.747   8.983 -0.2863 -0.5203 -0.3437
  832MOL0     H12296   7.815   7.807   9.073  3.4243 -0.0193  3.6609
  832MOL0     H12297   7.848   7.726   8.920 -2.3407  0.9230  0.8757
  832MOL0     H12298   7.971   7.655   9.197  2.2509 -0.4624 -0.6842
  832MOL0     H12299   8.012   7.564   9.048  0.0347  0.9624 -2.4937
  832MOL0     H12300   7.723   7.577   9.168  1.0212 -0.4566  2.2042
  832MOL0     H12301   7.858   7.448   9.172  1.0764 -0.0066 -0.5493
  832MOL0     H12302   7.881   8.174   8.388 -0.1423  0.3171  0.8822
  832MOL0     H12303   7.782   8.106   8.183 -2.4674  0.7855 -2.0776
  832MOL0     H12304   7.473   8.187   7.935 -0.9042 -0.3863  1.0808
  832MOL0     H12305   7.350   8.204   7.717  2.4864  0.9318 -2.7615
  832MOL0     H12306   6.049   6.768   7.090  3.4166 -1.4099  0.8552
  832MOL0     H12307   5.954   6.538   7.016 -0.2163  0.7616  0.0100
  832MOL0     H12308   6.084   6.154   6.573  0.2314 -2.0067 -1.4986
  832MOL0     H12309   5.997   5.940   6.520 -1.8949 -1.9754  0.0724
  832MOL0     H12310   5.813   5.842   6.420 -4.0962 -1.1396  0.5542
  832MOL0     H12311   5.928   5.733   6.511  0.2510  1.0675  3.0353
  832MOL0     H12312   5.794   5.612   6.366 -0.0454  0.3732 -0.1119
  832MOL0     H12313   5.646   5.673   6.444  0.4520  1.4145 -1.0298
  832MOL0     H12314   5.718   5.559   6.664  2.2379 -0.5596  0.9074
  832MOL0     H12315   5.858   5.500   6.580 -1.4941 -2.1351  0.4684
  832MOL0     H12316   5.682   5.322   6.600  1.7683 -1.7140 -1.1350
  832MOL0     H12317   5.728   5.345   6.437 -0.7241  0.0694 -0.8928
  832MOL0     H12318   5.328   5.504   6.431  0.3892 -0.5134 -1.7155
  832MOL0     H12319   5.656   6.008   6.765 -2.4029  2.1275 -1.7550
  832MOL0     H12320   5.748   6.251   6.809  0.8389 -0.5675  2.3226
  833MOL0     O12321   3.260   6.907  10.897  1.0576 -0.1076 -0.8987
  833MOL0     C12322   3.356   6.834  10.882 -0.8819  0.5430  0.2673
  833MOL0     O12323   3.417   6.755  10.982 -0.2753  0.1459 -0.2700
  833MOL0     C12324   3.363   6.758  11.105  0.4360 -0.5629  0.5584
  833MOL0     C12325   3.280   6.646  11.137  0.3062  0.7328  0.0249
  833MOL0     C12326   3.217   6.640  11.266  0.9508 -0.3154 -1.5386
  833MOL0     C12327   3.243   6.746  11.356 -0.7413 -0.0196 -0.0325
  833MOL0     O12328   3.188   6.768  11.478 -0.3478  0.1533  0.2260
  833MOL0     C12329   3.043   6.729  11.493 -0.7870 -0.2966  0.8530
  833MOL0     C12330   2.982   6.763  11.631  0.6258  0.5932  0.4913
  833MOL0     C12331   2.981   6.918  11.664  0.4243  0.1670  0.1266
  833MOL0     C12332   2.913   6.950  11.797 -0.1983 -0.4731  0.1725
  833MOL0     C12333   3.003   6.904  11.911 -0.6976 -0.8120 -0.5537
  833MOL0     C12334   2.966   6.948  12.051 -0.3195 -0.0457 -0.4759
  833MOL0     C12335   3.076   6.899  12.152  0.1248  1.0870 -0.7649
  833MOL0     C12336   3.086   6.747  12.152  0.9442 -0.0889  1.0880
  833MOL0     N12337   3.192   6.707  12.244 -0.5697  0.3880 -0.4514
  833MOL0     C12338   3.183   6.678  12.372  0.5988 -0.1805 -0.6570
  833MOL0     C12339   3.310   6.669  12.424 -0.4558  0.5105  0.4951
  833MOL0     C12340   3.358   6.626  12.560 -0.6896  0.6111  0.0379
  833MOL0     C12341   3.406   6.476  12.527 -0.1092  0.0080 -0.1066
  833MOL0     C12342   3.304   6.373  12.521  0.7764 -0.4495  0.6510
  833MOL0     C12343   3.348   6.232  12.489  0.3453  1.3507 -0.0224
  833MOL0     O12344   3.253   6.129  12.532 -0.6519  0.4234 -0.0438
  833MOL0     C12345   3.293   5.999  12.513  0.5809 -0.4665 -0.0320
  833MOL0     C12346   3.409   5.960  12.442  0.2061 -0.5441 -0.5270
  833MOL0     C12347   3.433   5.821  12.415  0.4803  0.2669 -0.1015
  833MOL0     C12348   3.545   5.785  12.326 -0.1272  0.1343  0.4696
  833MOL0     C12349   3.350   5.724  12.482  0.0513 -0.1638  0.1181
  833MOL0     C12350   3.376   5.579  12.482  0.1371  0.4602 -0.1681
  833MOL0     O12351   3.260   5.496  12.481  0.3713  0.4414  0.2931
  833MOL0     C12352   3.283   5.361  12.447 -0.0792  0.2713 -0.5190
  833MOL0     C12353   3.229   5.292  12.343  0.6828  0.2954 -1.3322
  833MOL0     C12354   3.234   5.156  12.325  0.8776 -0.8157  0.0392
  833MOL0     C12355   3.292   5.071  12.417 -0.2659 -1.1254 -0.3810
  833MOL0     O12356   3.299   4.935  12.415  0.2021  0.0322 -0.1460
  833MOL0     C12357   3.262   4.874  12.290 -0.7997 -0.6535 -0.0429
  833MOL0     C12358   3.276   4.716  12.308 -0.3014  0.2600  0.9805
  833MOL0     C12359   3.413   4.669  12.265 -0.7412  0.6498  0.4532
  833MOL0     C12360   3.423   4.511  12.306  0.2026  0.7064  0.3023
  833MOL0     C12361   3.568   4.448  12.270 -0.8172  0.5417 -0.0594
  833MOL0     C12362   3.626   4.494  12.139  0.9237  0.2261 -0.0938
  833MOL0     C12363   3.757   4.422  12.116 -0.3040  0.3908  0.7867
  833MOL0     C12364   3.818   4.433  11.979  0.3658  0.1782  0.2171
  833MOL0    Cl12365   3.989   4.383  12.012  0.5353 -0.5294  0.1412
  833MOL0     C12366   3.338   5.140  12.534 -0.3233 -0.4728  0.2183
  833MOL0     C12367   3.345   5.285  12.551  0.3131 -0.3981 -0.2767
  833MOL0     O12368   3.489   5.534  12.485 -0.1585  0.1600 -1.1014
  833MOL0     C12369   3.232   5.771  12.556  0.8723  0.2948 -0.4845
  833MOL0     C12370   3.200   5.908  12.573  0.2991  0.6450  1.2618
  833MOL0     N12371   3.397   6.686  12.312  0.2878  0.1083 -0.3751
  833MOL0     N12372   3.324   6.724  12.214 -0.2723  0.1382  0.2003
  833MOL0     C12373   3.341   6.841  11.329 -0.5463  0.7949 -1.3301
  833MOL0     C12374   3.400   6.843  11.207 -1.0444  0.5866  0.1674
  833MOL0     C12375   3.430   6.840  10.758  0.7427  0.8621  0.1106
  833MOL0     C12376   3.557   6.791  10.749  0.5757  0.0138 -0.0046
  833MOL0     C12377   3.622   6.795  10.628  0.1294 -0.3720 -0.4613
  833MOL0     C12378   3.580   6.860  10.516 -0.5685  1.1233  0.3028
  833MOL0     O12379   3.672   6.868  10.413  0.0061 -0.5900  0.1326
  833MOL0     C12380   3.627   6.884  10.279 -0.8256 -1.2142  0.4421
  833MOL0     C12381   3.749   6.917  10.194  0.2365  0.1145  0.0252
  833MOL0     C12382   3.729   6.890  10.051 -0.1169  0.5043  0.2724
  833MOL0     C12383   3.724   6.742  10.014  0.0995  0.1617  0.0731
  833MOL0     C12384   3.581   6.693  10.006 -0.5664 -0.4421 -0.0682
  833MOL0     C12385   3.483   6.627   9.990 -1.0512 -0.1624 -0.5308
  833MOL0     C12386   3.443   6.902  10.525 -0.0705  0.2745 -0.8402
  833MOL0     C12387   3.378   6.906  10.646 -0.0190  0.5412 -0.2460
  833MOL0     H12388   3.260   6.568  11.065  3.2871 -0.7932  0.6684
  833MOL0     H12389   3.151   6.558  11.296  1.6243  0.6220  3.4586
  833MOL0     H12390   2.978   6.776  11.420 -0.0262 -0.8659 -0.2109
  833MOL0     H12391   3.031   6.620  11.485  0.7355 -0.3806 -1.0799
  833MOL0     H12392   2.884   6.714  11.633  1.7356 -1.7723  0.5345
  833MOL0     H12393   3.051   6.715  11.701  0.1077  0.7186  1.0896
  833MOL0     H12394   3.081   6.963  11.661  0.5808  0.2638  3.1088
  833MOL0     H12395   2.925   6.957  11.579  0.6222  1.6824  0.6589
  833MOL0     H12396   2.906   7.057  11.815  0.2508 -0.0882 -1.7405
  833MOL0     H12397   2.811   6.911  11.811  0.1666 -1.1745  0.9697
  833MOL0     H12398   3.004   6.794  11.905 -1.5084 -0.9192  0.8079
  833MOL0     H12399   3.103   6.942  11.890 -0.3581 -2.2208 -1.7106
  833MOL0     H12400   2.968   7.057  12.039 -0.7836 -0.0732 -0.8364
  833MOL0     H12401   2.870   6.912  12.089 -0.6945 -0.0620 -1.4101
  833MOL0     H12402   3.170   6.945  12.120 -0.2984  0.4888 -3.0236
  833MOL0     H12403   3.061   6.933  12.255  1.7303  0.6304 -0.3420
  833MOL0     H12404   3.102   6.695  12.057  1.2218 -1.6474  1.9532
  833MOL0     H12405   2.988   6.712  12.186  0.1834 -0.0706 -0.9299
  833MOL0     H12406   3.095   6.657  12.431  0.6017 -1.4853 -1.0893
  833MOL0     H12407   3.446   6.680  12.597 -0.9018  1.3348 -0.4945
  833MOL0     H12408   3.280   6.623  12.637 -0.6179 -0.0258  0.0849
  833MOL0     H12409   3.472   6.435  12.604  0.7719 -0.0998 -0.9004
  833MOL0     H12410   3.460   6.468  12.432 -0.8607  0.5206 -0.5827
  833MOL0     H12411   3.230   6.406  12.447  1.6800 -0.8035 -0.4401
  833MOL0     H12412   3.249   6.374  12.616  1.1243 -1.0433  0.8643
  833MOL0     H12413   3.449   6.223  12.530 -0.1139  0.5771  0.9837
  833MOL0     H12414   3.366   6.230  12.381 -0.6102 -0.6811 -0.1910
  833MOL0     H12415   3.471   6.036  12.398  1.1288  0.5668  2.4680
  833MOL0     H12416   3.594   5.870  12.278  3.0529 -2.0890 -0.6301
  833MOL0     H12417   3.619   5.750  12.399 -1.6501  0.7775  2.4210
  833MOL0     H12418   3.526   5.716  12.243 -2.6495  0.0905  1.0114
  833MOL0     H12419   3.188   5.364  12.273  3.1726  2.7254 -0.4585
  833MOL0     H12420   3.185   5.119  12.235 -1.7573  0.7473  0.7144
  833MOL0     H12421   3.159   4.899  12.261 -0.2854 -0.9340 -2.3351
  833MOL0     H12422   3.320   4.923  12.212 -1.1293  1.0888  0.7672
  833MOL0     H12423   3.254   4.676  12.407 -3.0828 -2.6207 -0.6101
  833MOL0     H12424   3.186   4.674  12.262 -2.5149  1.0727  4.2378
  833MOL0     H12425   3.491   4.718  12.325  0.2353 -0.0035 -0.2534
  833MOL0     H12426   3.425   4.699  12.161  2.3571 -0.1350  0.4920
  833MOL0     H12427   3.422   4.501  12.415  1.1155  0.5934  0.3094
  833MOL0     H12428   3.344   4.458  12.253  2.1837 -3.1961  0.9081
  833MOL0     H12429   3.561   4.339  12.278  0.4876  0.4109 -0.4487
  833MOL0     H12430   3.643   4.483  12.342 -0.2129  2.7963 -1.7041
  833MOL0     H12431   3.550   4.469  12.065 -2.7785 -1.0120  3.7277
  833MOL0     H12432   3.635   4.602  12.134  0.4897  0.2159 -1.4009
  833MOL0     H12433   3.754   4.316  12.144 -0.5788  0.6850  1.9231
  833MOL0     H12434   3.835   4.464  12.180 -0.2441 -1.4396  2.0214
  833MOL0     H12435   3.815   4.537  11.944  0.0622  0.2903  0.5809
  833MOL0     H12436   3.771   4.365  11.907  5.3033  0.1138 -3.5425
  833MOL0     H12437   3.379   5.087  12.620 -0.1142  0.1881  0.5342
  833MOL0     H12438   3.378   5.317  12.649  0.6404 -2.5909  0.3736
  833MOL0     H12439   3.158   5.699  12.589  1.6845  0.4610  1.9562
  833MOL0     H12440   3.103   5.942  12.606 -0.3558  0.6539 -0.5749
  833MOL0     H12441   3.358   6.926  11.395  1.0105 -0.4854 -0.0124
  833MOL0     H12442   3.467   6.927  11.194  1.2371 -1.3824 -1.6079
  833MOL0     H12443   3.601   6.752  10.841 -1.3896  0.1122  1.0342
  833MOL0     H12444   3.715   6.739  10.620 -1.3199 -3.0753  0.3913
  833MOL0     H12445   3.584   6.789  10.248  1.6554 -2.0596 -0.6475
  833MOL0     H12446   3.551   6.960  10.262 -0.5175 -1.2881 -1.5398
  833MOL0     H12447   3.830   6.849  10.222 -1.4247 -0.7013  3.3468
  833MOL0     H12448   3.787   7.018  10.208 -1.6012  1.2265 -2.3647
  833MOL0     H12449   3.814   6.928   9.993 -0.7744  3.0764  0.8804
  833MOL0     H12450   3.638   6.932  10.008 -0.1296 -1.1341 -1.4954
  833MOL0     H12451   3.781   6.678  10.082 -0.0883  0.3334  0.3975
  833MOL0     H12452   3.773   6.727   9.917  0.4165  2.6792 -0.2388
  833MOL0     H12453   3.403   6.557   9.979 -0.9994 -0.0608 -1.7663
  833MOL0     H12454   3.405   6.947  10.433 -2.0724  0.9601  0.2812
  833MOL0     H12455   3.279   6.951  10.649  0.1187  1.0313 -1.9230
  834MOL0     O12456   5.326   0.482   7.899 -0.3142 -0.0639 -0.1846
  834MOL0     C12457   5.384   0.485   7.786 -0.0581  0.2054 -1.7464
  834MOL0     O12458   5.415   0.599   7.723 -0.1226  0.0563 -0.2558
  834MOL0     C12459   5.370   0.728   7.761 -0.0772 -0.6116  0.1176
  834MOL0     C12460   5.392   0.772   7.886  0.4483 -1.4566 -0.7707
  834MOL0     C12461   5.399   0.909   7.913 -0.1341 -0.3712 -0.5075
  834MOL0     C12462   5.362   0.999   7.819 -0.0440  0.2800 -0.4772
  834MOL0     O12463   5.357   1.132   7.855  0.1385  0.4899 -0.7605
  834MOL0     C12464   5.237   1.198   7.840 -0.1344 -0.7479 -0.2099
  834MOL0     C12465   5.122   1.148   7.930  0.2623 -0.3846  0.9901
  834MOL0     C12466   5.000   1.246   7.933 -0.1216  0.6025  0.3929
  834MOL0     C12467   4.902   1.254   7.806 -0.5241 -0.7653 -1.1584
  834MOL0     C12468   4.808   1.380   7.797 -0.1329  0.5781 -0.5713
  834MOL0     C12469   4.663   1.341   7.850  0.2719  0.0258  0.0016
  834MOL0     C12470   4.653   1.316   8.004 -0.0181  0.1325  0.1134
  834MOL0     C12471   4.526   1.395   8.063 -0.2055 -0.2964  0.1616
  834MOL0     N12472   4.511   1.360   8.202 -1.1033 -0.4206  0.1061
  834MOL0     C12473   4.453   1.252   8.252  0.7507  0.7965  1.0356
  834MOL0     C12474   4.448   1.265   8.389  0.3401 -0.2967  0.5968
  834MOL0     C12475   4.393   1.174   8.492 -0.0547  0.0499 -0.2794
  834MOL0     C12476   4.492   1.089   8.556 -0.8817  0.6877 -0.6460
  834MOL0     C12477   4.574   0.992   8.462 -0.1098  0.0683 -1.1595
  834MOL0     C12478   4.490   0.891   8.381 -0.4023 -0.4685 -0.6218
  834MOL0     O12479   4.444   0.948   8.255 -0.9377 -0.3045  0.1174
  834MOL0     C12480   4.505   0.914   8.139  0.2436 -0.5142  0.8874
  834MOL0     C12481   4.446   0.975   8.029 -0.8553  0.5033  0.5895
  834MOL0     C12482   4.503   0.960   7.900 -0.3175 -0.2092  0.0459
  834MOL0     C12483   4.419   1.026   7.796  0.2716  0.6599 -0.7039
  834MOL0     C12484   4.618   0.878   7.886 -0.3440  0.1305  0.9077
  834MOL0     C12485   4.671   0.858   7.754 -1.1235 -0.0896  0.2437
  834MOL0     O12486   4.635   0.947   7.658  0.2555 -0.0064 -0.0679
  834MOL0     C12487   4.649   0.930   7.521 -0.2933 -0.0312  1.0393
  834MOL0     C12488   4.678   0.809   7.454 -0.2061  0.1555  0.1212
  834MOL0     C12489   4.714   0.796   7.318  0.4894 -1.0166  1.1541
  834MOL0     C12490   4.724   0.910   7.242 -0.7916 -0.6053 -0.8876
  834MOL0     O12491   4.743   0.893   7.108  0.3300  0.0767  0.4682
  834MOL0     C12492   4.759   1.012   7.029 -0.4963  0.1499  0.6452
  834MOL0     C12493   4.899   1.076   7.021  0.9256 -0.4426 -0.2460
  834MOL0     C12494   4.896   1.201   6.927  0.0144  0.2083  0.8149
  834MOL0     C12495   4.779   1.295   6.946  0.3724 -0.3610  0.9132
  834MOL0     C12496   4.797   1.434   6.879 -0.1657  0.6399 -0.1428
  834MOL0     C12497   4.672   1.514   6.857  0.8216  0.3183  0.4770
  834MOL0     C12498   4.580   1.461   6.748  0.6080 -0.1759 -0.9349
  834MOL0     C12499   4.631   1.497   6.606 -0.0134  1.2262 -0.2002
  834MOL0    Cl12500   4.661   1.666   6.566  0.3175 -0.0142  0.1181
  834MOL0     C12501   4.691   1.029   7.304 -0.5324 -0.5556 -0.0321
  834MOL0     C12502   4.655   1.042   7.440  0.6646 -0.1859 -0.9293
  834MOL0     O12503   4.749   0.764   7.733  0.4275  0.0716  0.1045
  834MOL0     C12504   4.672   0.822   7.998  0.0189 -0.7267  0.4175
  834MOL0     C12505   4.622   0.833   8.120  0.0868 -0.1795 -0.9831
  834MOL0     N12506   4.496   1.389   8.414 -0.0727  1.0740 -0.5468
  834MOL0     N12507   4.540   1.439   8.306 -0.3629  0.1863  0.7038
  834MOL0     C12508   5.333   0.958   7.690 -0.0838  0.3523 -0.2835
  834MOL0     C12509   5.348   0.822   7.660  0.3551 -1.0999  0.0792
  834MOL0     C12510   5.448   0.360   7.734  0.0290 -0.7301 -0.7886
  834MOL0     C12511   5.474   0.249   7.826  0.1842 -0.3028  0.0555
  834MOL0     C12512   5.528   0.129   7.778 -0.4326 -0.2933 -0.2455
  834MOL0     C12513   5.560   0.113   7.644  0.6259  0.2674  0.6420
  834MOL0     O12514   5.637   0.001   7.612  0.3337 -0.0088  0.3606
  834MOL0     C12515   5.761  -0.003   7.675  0.4939  0.6706  0.3053
  834MOL0     C12516   5.860   0.098   7.624 -1.2804 -0.4063 -0.5680
  834MOL0     C12517   5.915   0.070   7.489  0.1155 -0.1716  1.1496
  834MOL0     C12518   6.032  -0.030   7.486  0.1669  0.0399 -0.4113
  834MOL0     C12519   6.039  -0.115   7.364  0.5436 -0.3764 -0.2355
  834MOL0     C12520   6.036  -0.191   7.264  0.3556 -0.5365 -0.7949
  834MOL0     C12521   5.520   0.215   7.551 -0.8188  0.8794  0.5262
  834MOL0     C12522   5.471   0.336   7.597  0.8651 -0.2497 -0.3626
  834MOL0     H12523   5.417   0.706   7.968 -2.8164 -0.0904  1.5209
  834MOL0     H12524   5.425   0.945   8.013  3.7907 -0.9998 -1.1162
  834MOL0     H12525   5.251   1.304   7.862  3.4977 -1.1293 -0.0668
  834MOL0     H12526   5.208   1.194   7.734  1.3976 -2.6591 -0.6177
  834MOL0     H12527   5.086   1.055   7.886 -1.1528  0.3285  0.5803
  834MOL0     H12528   5.158   1.136   8.032 -1.6814  1.0586  1.9290
  834MOL0     H12529   4.929   1.210   8.009 -1.6531 -1.2882 -1.7648
  834MOL0     H12530   5.035   1.343   7.969 -0.5647 -0.1693  3.1441
  834MOL0     H12531   4.966   1.270   7.718 -2.3575  1.7421 -2.1567
  834MOL0     H12532   4.866   1.152   7.789  3.9313 -2.7729 -0.1597
  834MOL0     H12533   4.836   1.466   7.858 -1.7766 -2.1148  4.4975
  834MOL0     H12534   4.800   1.407   7.691 -0.4921  1.4433 -0.3280
  834MOL0     H12535   4.595   1.422   7.822 -1.9939 -1.2693  1.5245
  834MOL0     H12536   4.634   1.245   7.805 -0.7475 -1.5711  3.7415
  834MOL0     H12537   4.638   1.211   8.028 -1.1233  0.0617 -0.8007
  834MOL0     H12538   4.746   1.346   8.054  0.5552 -1.2489 -0.0940
  834MOL0     H12539   4.444   1.370   7.995  0.6392  2.0317 -1.8538
  834MOL0     H12540   4.535   1.504   8.060 -2.4831 -0.0684 -0.6734
  834MOL0     H12541   4.411   1.173   8.191  2.6581  0.3171  0.2798
  834MOL0     H12542   4.334   1.236   8.560  0.6641  0.6150 -0.1615
  834MOL0     H12543   4.323   1.105   8.445  1.6943 -0.5455 -2.1568
  834MOL0     H12544   4.447   1.020   8.628 -0.3374  0.1905 -0.7741
  834MOL0     H12545   4.563   1.155   8.607 -1.3292  2.5981 -2.3987
  834MOL0     H12546   4.646   0.933   8.520 -1.4980 -1.4530 -0.8839
  834MOL0     H12547   4.633   1.050   8.390  0.2970  0.7118 -0.3265
  834MOL0     H12548   4.407   0.862   8.447  1.8985 -0.2093  2.6319
  834MOL0     H12549   4.536   0.792   8.375  1.9388  0.5664 -0.5874
  834MOL0     H12550   4.350   1.021   8.047 -1.0423  0.1247  0.5729
  834MOL0     H12551   4.406   0.964   7.707  0.4087 -2.0067  1.0075
  834MOL0     H12552   4.316   1.030   7.833 -0.4656 -1.6275 -2.2892
  834MOL0     H12553   4.454   1.124   7.761 -2.2414  1.4224 -1.3198
  834MOL0     H12554   4.666   0.716   7.508  1.7424 -0.0781  0.2499
  834MOL0     H12555   4.717   0.702   7.263 -0.4250 -0.6396  0.4337
  834MOL0     H12556   4.738   0.990   6.924  3.0979  2.5331 -0.7526
  834MOL0     H12557   4.683   1.084   7.058 -1.4477 -0.7298  0.3955
  834MOL0     H12558   4.919   1.104   7.125 -3.6578  1.2650  0.4452
  834MOL0     H12559   4.965   0.998   6.983  2.4567 -0.3449  2.0064
  834MOL0     H12560   4.893   1.155   6.828  1.0604 -0.1366  0.9344
  834MOL0     H12561   4.995   1.246   6.934 -1.1623  2.8425  2.1707
  834MOL0     H12562   4.688   1.251   6.905  0.9495  0.1776 -1.0224
  834MOL0     H12563   4.766   1.302   7.055  1.8739 -2.2929  1.2732
  834MOL0     H12564   4.849   1.419   6.784  1.6602 -1.2635  1.0769
  834MOL0     H12565   4.869   1.493   6.937 -1.4850 -0.1988  2.5052
  834MOL0     H12566   4.623   1.512   6.955  0.3878  3.6304  0.4617
  834MOL0     H12567   4.712   1.611   6.824  1.3485 -0.7745 -2.4119
  834MOL0     H12568   4.476   1.492   6.758  1.3310  3.3246 -2.6856
  834MOL0     H12569   4.573   1.352   6.755 -0.3455 -0.1145 -0.8784
  834MOL0     H12570   4.567   1.445   6.533 -0.4559 -0.8487  1.5739
  834MOL0     H12571   4.719   1.433   6.594  0.6864  2.1538 -0.0617
  834MOL0     H12572   4.699   1.121   7.247 -0.6656 -0.3461  0.2849
  834MOL0     H12573   4.627   1.138   7.483 -4.0234  1.5144 -6.5242
  834MOL0     H12574   4.767   0.769   7.999 -0.2276 -1.2469 -1.0270
  834MOL0     H12575   4.681   0.819   8.210  2.1586 -1.2566 -2.4145
  834MOL0     H12576   5.304   1.018   7.604 -0.7583  1.2949  0.5739
  834MOL0     H12577   5.336   0.779   7.561 -0.0587  2.4497 -1.5614
  834MOL0     H12578   5.444   0.250   7.930  0.9909  1.1184  0.3047
  834MOL0     H12579   5.551   0.043   7.840  0.2287 -0.9820 -1.4096
  834MOL0     H12580   5.762   0.004   7.785  1.9645 -0.6532  0.4237
  834MOL0     H12581   5.783  -0.107   7.651 -1.5209  0.3575 -0.3690
  834MOL0     H12582   5.949   0.094   7.687 -2.4017 -3.9629  1.0774
  834MOL0     H12583   5.815   0.198   7.626  1.4135  0.8858  1.6595
  834MOL0     H12584   5.946   0.164   7.441 -0.8013 -0.9963 -1.2302
  834MOL0     H12585   5.842   0.023   7.422  0.0266 -2.6324  2.8562
  834MOL0     H12586   6.034  -0.094   7.575 -1.8599  0.9221  0.3313
  834MOL0     H12587   6.118   0.037   7.491 -0.4819  0.8206  0.9043
  834MOL0     H12588   6.044  -0.231   7.165  0.0337  0.6022 -1.3005
  834MOL0     H12589   5.546   0.186   7.450  2.0828  0.3035  1.3571
  834MOL0     H12590   5.455   0.409   7.518 -0.9809 -1.6437 -1.3615
  835MOL0     O12591   4.124   0.792   7.687 -0.5796  0.1536 -0.5668
  835MOL0     C12592   4.067   0.734   7.590 -0.0193 -0.4495  0.5264
  835MOL0     O12593   3.937   0.689   7.582  1.1844 -0.0347  0.4410
  835MOL0     C12594   3.845   0.711   7.686 -0.2407  0.9358 -0.5685
  835MOL0     C12595   3.814   0.824   7.742  0.6976 -0.2322 -0.5679
  835MOL0     C12596   3.705   0.849   7.832 -0.4998  0.8225 -0.0902
  835MOL0     C12597   3.633   0.734   7.868 -0.9462 -0.4024  0.6826
  835MOL0     O12598   3.536   0.756   7.962  0.2350  0.4285 -0.1538
  835MOL0     C12599   3.462   0.645   8.000  0.0356  0.6026 -0.9310
  835MOL0     C12600   3.375   0.660   8.125 -0.2267 -0.2523 -0.6034
  835MOL0     C12601   3.462   0.713   8.230  0.6122 -0.4198  0.2557
  835MOL0     C12602   3.384   0.729   8.363 -0.1054  0.1321 -0.2100
  835MOL0     C12603   3.482   0.746   8.483  0.0586  0.2018  0.9400
  835MOL0     C12604   3.543   0.888   8.487  0.0416  0.7754 -0.6796
  835MOL0     C12605   3.610   0.915   8.614  0.3138 -0.6058 -0.0331
  835MOL0     C12606   3.726   0.820   8.638  0.6780 -0.4317  0.1286
  835MOL0     N12607   3.820   0.871   8.744  0.5225 -0.0880 -0.6670
  835MOL0     C12608   3.948   0.810   8.764 -0.2052 -0.0005 -0.6219
  835MOL0     C12609   4.019   0.879   8.860  0.2851 -1.2928  0.4518
  835MOL0     C12610   4.168   0.881   8.893  0.0048  0.1418  0.0711
  835MOL0     C12611   4.222   1.021   8.854 -0.5238 -0.0153  0.4630
  835MOL0     C12612   4.250   1.121   8.972 -0.0944  0.6860 -0.6484
  835MOL0     C12613   4.334   1.060   9.092  0.7476 -0.2861  0.5534
  835MOL0     O12614   4.452   0.991   9.047 -0.8381  0.0199 -1.0814
  835MOL0     C12615   4.564   0.991   9.120 -0.8487  0.3130 -0.0999
  835MOL0     C12616   4.581   1.009   9.262 -0.2587  0.2751 -0.3654
  835MOL0     C12617   4.708   1.012   9.323 -0.7872 -0.5960  0.5439
  835MOL0     C12618   4.719   1.065   9.466  1.0471  0.4350  0.6679
  835MOL0     C12619   4.824   0.974   9.246 -0.0435 -0.8352 -0.9406
  835MOL0     C12620   4.963   0.979   9.303 -0.4596  0.2437  0.3371
  835MOL0     O12621   4.985   0.956   9.434 -0.3249  0.3898  1.0974
  835MOL0     C12622   5.114   0.975   9.485  0.6954 -0.9350 -0.4652
  835MOL0     C12623   5.213   0.877   9.482 -0.8941 -0.1611 -1.1228
  835MOL0     C12624   5.325   0.893   9.569  0.0905 -0.0345  0.3307
  835MOL0     C12625   5.336   1.001   9.660 -0.3239 -1.0420  0.4903
  835MOL0     O12626   5.425   1.004   9.768  0.3837 -0.0122  0.0393
  835MOL0     C12627   5.528   0.904   9.764 -0.3989 -0.9837 -0.2539
  835MOL0     C12628   5.623   0.922   9.874  0.2098 -0.5501 -0.7430
  835MOL0     C12629   5.703   1.051   9.865 -0.0324  0.0535 -0.2195
  835MOL0     C12630   5.824   1.035   9.756  0.2105  0.0325  0.1705
  835MOL0     C12631   5.917   1.161   9.746 -0.4388  0.0377  0.4689
  835MOL0     C12632   5.983   1.203   9.878 -0.1101  0.4176 -0.3216
  835MOL0     C12633   6.063   1.086   9.957  0.8241 -0.2951  0.4845
  835MOL0     C12634   6.191   1.043   9.884 -0.5650 -0.2156 -0.8267
  835MOL0    Cl12635   6.273   0.916   9.975  0.0895  0.2077  0.3954
  835MOL0     C12636   5.237   1.094   9.655  0.4787  0.2607  0.5869
  835MOL0     C12637   5.132   1.094   9.564  0.1865  0.3102  0.3619
  835MOL0     O12638   5.053   0.988   9.219 -0.4865 -0.0573  0.0839
  835MOL0     C12639   4.811   0.955   9.108 -0.3355  0.1009  0.2776
  835MOL0     C12640   4.683   0.977   9.048 -0.3972  1.1069 -0.4576
  835MOL0     N12641   3.931   0.978   8.891  0.0372 -0.1875 -0.1006
  835MOL0     N12642   3.819   0.975   8.831 -0.0709 -0.5599 -0.3929
  835MOL0     C12643   3.664   0.610   7.811 -1.3873 -0.1024 -0.8807
  835MOL0     C12644   3.766   0.600   7.719  0.7447 -0.1417 -0.3968
  835MOL0     C12645   4.147   0.723   7.460  0.7271  0.1279  0.4061
  835MOL0     C12646   4.276   0.783   7.449 -0.0446  0.4755 -0.3617
  835MOL0     C12647   4.344   0.788   7.323  0.0211 -0.0133 -0.8547
  835MOL0     C12648   4.285   0.726   7.210  0.6399 -0.3333  0.1369
  835MOL0     O12649   4.330   0.731   7.077 -1.1652 -0.2329 -0.0218
  835MOL0     C12650   4.407   0.842   7.044 -1.0853 -0.3897 -0.6045
  835MOL0     C12651   4.436   0.838   6.898 -0.1552  0.9827 -0.1654
  835MOL0     C12652   4.517   0.710   6.851  0.6577  0.1016  0.0588
  835MOL0     C12653   4.545   0.743   6.700 -0.0826 -0.0461 -0.1669
  835MOL0     C12654   4.634   0.856   6.682 -0.1094  0.0460  0.5467
  835MOL0     C12655   4.726   0.928   6.655 -0.2372 -0.2038 -0.4559
  835MOL0     C12656   4.157   0.667   7.219  0.2270  0.4280  1.0508
  835MOL0     C12657   4.086   0.668   7.340 -0.1508 -0.4856 -0.9040
  835MOL0     H12658   3.860   0.908   7.691  3.8867 -2.5572 -1.8372
  835MOL0     H12659   3.669   0.945   7.866  2.2411  1.9239 -0.0575
  835MOL0     H12660   3.403   0.597   7.922 -0.4617 -1.6645  0.7511
  835MOL0     H12661   3.540   0.574   8.029 -0.1164  1.5500  2.2150
  835MOL0     H12662   3.301   0.740   8.122  0.0730  0.1312  0.9862
  835MOL0     H12663   3.321   0.566   8.138  0.0672 -0.0691  2.9726
  835MOL0     H12664   3.538   0.638   8.252  0.0514 -0.3303  2.7510
  835MOL0     H12665   3.501   0.812   8.201 -0.1181 -0.2338 -0.1217
  835MOL0     H12666   3.310   0.810   8.362  2.0254  2.2725  2.1418
  835MOL0     H12667   3.329   0.635   8.376  0.4654 -0.4103 -1.5078
  835MOL0     H12668   3.426   0.720   8.574 -1.5317 -1.4785 -0.4451
  835MOL0     H12669   3.567   0.680   8.466  1.8730  2.5778  0.2859
  835MOL0     H12670   3.620   0.887   8.409  2.1347 -3.0606  1.1269
  835MOL0     H12671   3.463   0.960   8.466 -1.5699 -0.3896  1.0740
  835MOL0     H12672   3.637   1.021   8.610  1.8915 -0.9207  1.4545
  835MOL0     H12673   3.531   0.891   8.685 -0.6912 -1.0935 -1.2622
  835MOL0     H12674   3.790   0.802   8.551  2.0879  0.8984  0.8429
  835MOL0     H12675   3.684   0.725   8.673 -2.5936  1.4525  1.7499
  835MOL0     H12676   3.985   0.722   8.713  0.7097 -2.1234  3.3027
  835MOL0     H12677   4.193   0.850   8.995 -0.2304  2.2467  0.8203
  835MOL0     H12678   4.213   0.808   8.825 -0.1847  1.2482 -1.2884
  835MOL0     H12679   4.153   1.050   8.774 -2.2194 -2.0500  1.0973
  835MOL0     H12680   4.317   0.999   8.805  0.0514  1.3767  0.8902
  835MOL0     H12681   4.152   1.152   9.009 -0.5751 -0.9609 -0.4560
  835MOL0     H12682   4.289   1.212   8.926 -1.0794  0.6434 -1.6259
  835MOL0     H12683   4.274   0.997   9.158 -3.2962  1.1067 -1.4380
  835MOL0     H12684   4.355   1.143   9.159  2.4918 -0.9262  0.8537
  835MOL0     H12685   4.494   1.020   9.326  1.1602  1.0121  1.5291
  835MOL0     H12686   4.628   1.121   9.489 -0.5344 -1.5776 -0.3423
  835MOL0     H12687   4.710   0.982   9.536 -2.8140 -0.0865 -0.2214
  835MOL0     H12688   4.806   1.127   9.490 -0.2290  2.2584  0.7781
  835MOL0     H12689   5.196   0.784   9.428 -1.6557 -1.6899  1.5534
  835MOL0     H12690   5.403   0.819   9.577  2.1253  2.2270  4.4559
  835MOL0     H12691   5.475   0.808   9.770 -1.9103 -0.1317  0.4510
  835MOL0     H12692   5.576   0.912   9.666  0.3797  1.5647  0.2663
  835MOL0     H12693   5.567   0.936   9.967  0.1092  3.3123 -1.2539
  835MOL0     H12694   5.686   0.832   9.876  0.4537 -0.3726 -0.4341
  835MOL0     H12695   5.752   1.085   9.957  1.4124  0.4041 -1.0797
  835MOL0     H12696   5.647   1.141   9.840  0.5798  0.9859  1.5682
  835MOL0     H12697   5.892   0.956   9.789  0.1967 -0.3965 -0.7954
  835MOL0     H12698   5.789   1.008   9.656  1.4976 -0.8248 -0.0738
  835MOL0     H12699   5.860   1.250   9.717  0.8860  1.2878  1.5731
  835MOL0     H12700   5.993   1.134   9.672 -1.7333 -2.4078 -0.0791
  835MOL0     H12701   6.059   1.282   9.877  0.9848 -0.4640  2.5789
  835MOL0     H12702   5.905   1.244   9.942 -3.1325 -6.4718  1.3463
  835MOL0     H12703   5.994   1.008   9.988 -0.5533  0.6825 -0.0153
  835MOL0     H12704   6.102   1.141  10.043  0.7963 -1.0275  0.9676
  835MOL0     H12705   6.259   1.129   9.876 -1.9345  0.9223 -0.6189
  835MOL0     H12706   6.172   1.010   9.782  0.0525 -0.8610 -0.7461
  835MOL0     H12707   5.246   1.173   9.729  3.3159 -0.1569  0.8020
  835MOL0     H12708   5.050   1.166   9.565 -0.6358 -0.5504  2.5452
  835MOL0     H12709   4.896   0.927   9.047 -1.5320 -2.1412 -0.4585
  835MOL0     H12710   4.659   0.974   8.942 -1.7334 -0.1619 -0.1520
  835MOL0     H12711   3.623   0.518   7.850 -1.2414  1.4933  3.7317
  835MOL0     H12712   3.791   0.499   7.686 -0.7953  0.1465 -2.6168
  835MOL0     H12713   4.318   0.828   7.538  0.0305 -1.3808  0.5903
  835MOL0     H12714   4.440   0.837   7.306 -0.6203  0.8295 -2.1841
  835MOL0     H12715   4.359   0.939   7.063 -2.1418  0.0957 -4.8748
  835MOL0     H12716   4.506   0.836   7.089 -1.0061  2.7387 -0.1032
  835MOL0     H12717   4.485   0.933   6.875 -0.2191  0.6082 -1.9713
  835MOL0     H12718   4.340   0.835   6.846  0.7572  1.6871 -1.9593
  835MOL0     H12719   4.482   0.612   6.881  1.5487  0.1780  1.4256
  835MOL0     H12720   4.614   0.712   6.902  0.3286 -1.2859  0.7843
  835MOL0     H12721   4.450   0.767   6.650 -1.6519 -0.4154  2.4611
  835MOL0     H12722   4.586   0.659   6.643 -0.0770  1.3165 -2.2951
  835MOL0     H12723   4.815   0.982   6.633  1.6040 -1.8008  2.4028
  835MOL0     H12724   4.118   0.621   7.129 -0.7467  3.2527 -0.0516
  835MOL0     H12725   3.985   0.627   7.342  0.1922 -1.3230 -0.3220
  836MOL0     O12726   9.921   9.059   3.945  0.5395 -0.3929 -0.3194
  836MOL0     C12727   9.949   9.162   3.879  0.2089  0.8826 -0.6112
  836MOL0     O12728  10.062   9.185   3.804 -0.1698 -0.2511  0.6120
  836MOL0     C12729  10.153   9.080   3.785  0.2197  0.4154 -0.1005
  836MOL0     C12730  10.111   8.952   3.741 -0.8227 -0.7296 -0.3540
  836MOL0     C12731  10.204   8.858   3.700 -0.3343 -0.5473 -0.0805
  836MOL0     C12732  10.337   8.878   3.718  0.8287 -0.3576 -0.2361
  836MOL0     O12733  10.427   8.775   3.693 -0.0058 -0.1549  0.4351
  836MOL0     C12734  10.554   8.782   3.758 -0.1802 -0.4782 -0.2590
  836MOL0     C12735  10.655   8.685   3.700 -0.7122  0.3968 -0.6008
  836MOL0     C12736  10.783   8.699   3.784  0.0748 -0.7421  0.1043
  836MOL0     C12737  10.897   8.668   3.688 -0.6957 -0.5185 -0.2019
  836MOL0     C12738  11.034   8.709   3.741  0.0839 -0.7699  0.2091
  836MOL0     C12739  11.060   8.859   3.721  0.1464 -0.0443  0.0457
  836MOL0     C12740  11.198   8.902   3.764 -1.1127  0.5136 -0.9075
  836MOL0     C12741  11.188   9.056   3.789  0.2059 -0.0264 -0.5006
  836MOL0     N12742  11.314   9.094   3.850  0.1420  0.3700  0.2865
  836MOL0     C12743  11.330   9.114   3.980 -0.0991 -0.2784  0.1764
  836MOL0     C12744  11.445   9.177   3.995 -1.0093  0.1384 -0.3103
  836MOL0     C12745  11.514   9.231   4.120  0.0948 -0.4377  0.6604
  836MOL0     C12746  11.664   9.208   4.107 -0.0352  0.1018 -0.1346
  836MOL0     C12747  11.737   9.219   4.244 -0.1482  0.5286  0.4648
  836MOL0     C12748  11.886   9.180   4.235 -0.1207  0.2297 -0.1396
  836MOL0     O12749  11.933   9.160   4.369 -0.5812 -0.6728  0.1096
  836MOL0     C12750  12.065   9.140   4.393 -0.1380  0.0010  0.6317
  836MOL0     C12751  12.156   9.098   4.297  0.3090  0.1518  0.9401
  836MOL0     C12752  12.274   9.046   4.324  0.2867  0.6665 -0.1840
  836MOL0     C12753  12.362   9.012   4.204  0.2300  0.4457 -0.4747
  836MOL0     C12754  12.309   9.026   4.462 -0.6890  0.3305  1.2647
  836MOL0     C12755  12.432   8.954   4.507 -0.6272  1.0540 -0.0354
  836MOL0     O12756  12.429   8.922   4.635 -0.6126  0.4476 -0.4554
  836MOL0     C12757  12.513   8.821   4.684  0.2049  0.4529 -0.2678
  836MOL0     C12758  12.653   8.830   4.699 -0.7797  0.3396 -0.3680
  836MOL0     C12759  12.728   8.720   4.741  0.0815  0.2367 -0.0205
  836MOL0     C12760  12.670   8.601   4.776  0.8136  0.4189 -0.1392
  836MOL0     O12761  12.723   8.480   4.795  0.2464 -0.4088  0.6652
  836MOL0     C12762  12.858   8.449   4.760  0.8341 -0.3262  0.9799
  836MOL0     C12763  12.894   8.462   4.611  0.4604  0.0613  0.3813
  836MOL0     C12764  12.800   8.383   4.520  0.2427 -0.4337 -0.1142
  836MOL0     C12765  12.696   8.469   4.450  0.0629 -0.7093 -0.1028
  836MOL0     C12766  12.575   8.406   4.380  0.2174 -0.0904  0.3523
  836MOL0     C12767  12.620   8.299   4.280 -0.2611 -0.5980 -0.2285
  836MOL0     C12768  12.501   8.234   4.215  0.0281 -1.3474 -0.5011
  836MOL0     C12769  12.549   8.139   4.106 -0.3555  0.3710  0.2077
  836MOL0    Cl12770  12.601   8.237   3.950 -0.1319 -0.2092 -0.5973
  836MOL0     C12771  12.530   8.592   4.768  0.1111 -0.7027  0.2339
  836MOL0     C12772  12.455   8.704   4.730 -0.3332  0.3218  0.1668
  836MOL0     O12773  12.514   8.895   4.424 -0.0945 -0.0740 -0.1828
  836MOL0     C12774  12.230   9.082   4.560 -0.8641 -0.3657  0.0406
  836MOL0     C12775  12.102   9.132   4.519 -0.2493 -0.2291 -0.4876
  836MOL0     N12776  11.508   9.189   3.870  0.0102  0.5448 -0.7923
  836MOL0     N12777  11.419   9.151   3.783 -0.7594 -0.4493 -0.0547
  836MOL0     C12778  10.375   9.011   3.756 -0.1202  0.5922 -0.9663
  836MOL0     C12779  10.288   9.113   3.794 -0.9798 -0.0953 -1.2344
  836MOL0     C12780   9.867   9.279   3.880  0.3336  0.5120 -0.3904
  836MOL0     C12781   9.868   9.394   3.801 -0.2318  0.3372  0.4604
  836MOL0     C12782   9.777   9.492   3.814 -0.9556  0.1145 -1.3973
  836MOL0     C12783   9.690   9.496   3.920 -0.0710 -0.1570 -0.5408
  836MOL0     O12784   9.593   9.592   3.936 -0.2298 -0.2670 -1.0194
  836MOL0     C12785   9.592   9.711   3.853  0.1172 -0.2621  0.0011
  836MOL0     C12786   9.497   9.825   3.911 -0.0332  0.8722  0.8193
  836MOL0     C12787   9.500   9.968   3.849  0.7460  0.8319 -0.1893
  836MOL0     C12788   9.623  10.048   3.874  0.8297 -0.9214  0.5282
  836MOL0     C12789   9.669  10.138   3.761 -0.0281 -0.5736 -0.2487
  836MOL0     C12790   9.727  10.199   3.671  0.6559  0.4084  0.0426
  836MOL0     C12791   9.679   9.382   4.001  0.4888 -0.0004 -0.6542
  836MOL0     C12792   9.764   9.272   3.979  1.2003 -0.2829 -0.3398
  836MOL0     H12793  10.003   8.943   3.735 -1.0896 -1.5818  3.3525
  836MOL0     H12794  10.180   8.756   3.673 -1.2563 -0.5756  0.7810
  836MOL0     H12795  10.594   8.880   3.734  0.5467 -1.0852 -1.6442
  836MOL0     H12796  10.534   8.772   3.865 -1.2137  0.0904 -0.3885
  836MOL0     H12797  10.616   8.583   3.705  2.1128 -0.7938 -0.5100
  836MOL0     H12798  10.669   8.706   3.594 -1.9337 -1.2633 -1.1409
  836MOL0     H12799  10.803   8.803   3.812  3.2739 -0.7369 -1.6888
  836MOL0     H12800  10.774   8.637   3.874 -2.7489 -0.2299  0.2606
  836MOL0     H12801  10.913   8.561   3.674  2.3823 -0.0596 -0.8478
  836MOL0     H12802  10.890   8.725   3.595  1.3143  1.0776  0.5393
  836MOL0     H12803  11.034   8.696   3.850  0.2281 -0.6774  0.2206
  836MOL0     H12804  11.111   8.645   3.698  0.3295 -1.2215  1.2896
  836MOL0     H12805  11.043   8.889   3.618 -0.5966  0.4942  0.3174
  836MOL0     H12806  10.986   8.908   3.785 -0.6150 -0.1586 -0.7386
  836MOL0     H12807  11.241   8.851   3.851  2.2164 -0.8392 -3.1396
  836MOL0     H12808  11.273   8.893   3.685  1.4011  0.1840  1.3306
  836MOL0     H12809  11.107   9.073   3.860 -0.4949 -0.5998 -1.1473
  836MOL0     H12810  11.166   9.121   3.703 -0.2646  1.3197  0.6026
  836MOL0     H12811  11.266   9.084   4.062  0.9705  2.7142  2.3168
  836MOL0     H12812  11.483   9.331   4.151 -0.7036 -0.6532  0.5819
  836MOL0     H12813  11.481   9.160   4.197  4.0760 -0.9697  2.1256
  836MOL0     H12814  11.687   9.293   4.042 -0.7471 -0.1597 -0.7531
  836MOL0     H12815  11.692   9.114   4.060 -0.9763 -1.8895  2.9643
  836MOL0     H12816  11.693   9.144   4.311  0.7045  0.5535  1.0646
  836MOL0     H12817  11.719   9.315   4.292 -3.6291 -0.5549  1.6763
  836MOL0     H12818  11.922   9.273   4.190 -0.1585  0.7823  0.9389
  836MOL0     H12819  11.898   9.092   4.171 -1.1869 -0.5347  0.6620
  836MOL0     H12820  12.126   9.108   4.193  1.6488 -0.7106  0.4441
  836MOL0     H12821  12.453   9.072   4.211  1.5875 -1.7122  3.3164
  836MOL0     H12822  12.385   8.905   4.209 -0.2099  0.4097  1.3776
  836MOL0     H12823  12.306   9.039   4.114 -2.5721 -1.9033  0.3830
  836MOL0     H12824  12.712   8.918   4.675  1.8109 -0.7756  1.3929
  836MOL0     H12825  12.834   8.704   4.760 -0.1938 -3.6836 -0.7607
  836MOL0     H12826  12.920   8.509   4.827 -1.1272 -0.3053  2.9078
  836MOL0     H12827  12.863   8.345   4.796 -0.9563 -0.1079  1.9864
  836MOL0     H12828  12.882   8.567   4.582  3.1920 -0.0949 -1.6958
  836MOL0     H12829  13.002   8.449   4.601  0.7254 -0.2537  3.0446
  836MOL0     H12830  12.748   8.313   4.585  1.5982 -2.7829 -1.3919
  836MOL0     H12831  12.858   8.336   4.440  0.4150  0.8150 -0.7408
  836MOL0     H12832  12.659   8.555   4.506  4.3028  2.3679 -1.4973
  836MOL0     H12833  12.744   8.521   4.366 -0.9570  1.1057  0.3943
  836MOL0     H12834  12.521   8.476   4.316 -0.3153  2.9123  3.7862
  836MOL0     H12835  12.497   8.362   4.443  0.1379 -2.6085 -1.3333
  836MOL0     H12836  12.671   8.353   4.200 -0.9595 -3.1916 -2.5881
  836MOL0     H12837  12.684   8.222   4.323  0.2875 -0.0532 -0.0420
  836MOL0     H12838  12.441   8.313   4.169  2.4509  2.3450  2.0616
  836MOL0     H12839  12.439   8.186   4.291  0.9313  0.4483  1.4950
  836MOL0     H12840  12.472   8.065   4.083 -0.0210 -0.5234  1.8070
  836MOL0     H12841  12.636   8.077   4.131  1.5420  1.8781 -2.2755
  836MOL0     H12842  12.474   8.503   4.794  0.5705 -0.6721  1.4073
  836MOL0     H12843  12.347   8.713   4.727 -0.5533 -1.5431  0.8912
  836MOL0     H12844  12.252   9.085   4.666  2.3382 -0.4036 -0.5383
  836MOL0     H12845  12.030   9.163   4.593  0.6401 -2.2929  1.3563
  836MOL0     H12846  10.480   9.022   3.781 -0.8167  1.2920  2.1056
  836MOL0     H12847  10.314   9.206   3.843 -1.3656 -0.0224 -1.1674
  836MOL0     H12848   9.941   9.402   3.720 -0.6882  4.3043  0.2340
  836MOL0     H12849   9.780   9.584   3.755 -1.2602  0.7547 -0.4443
  836MOL0     H12850   9.691   9.757   3.855  2.0111 -3.9556 -0.6831
  836MOL0     H12851   9.569   9.688   3.749 -1.1621  0.6886  0.0566
  836MOL0     H12852   9.528   9.834   4.015 -0.6043 -3.4499  1.5425
  836MOL0     H12853   9.393   9.790   3.908  0.3671 -0.3165 -0.5404
  836MOL0     H12854   9.414  10.018   3.894  0.5035  0.7680 -0.5833
  836MOL0     H12855   9.484   9.969   3.741 -1.2236  1.4916  0.0665
  836MOL0     H12856   9.699   9.977   3.906  0.3201 -2.0353 -0.6573
  836MOL0     H12857   9.596  10.121   3.951  0.0477  3.3427 -3.3339
  836MOL0     H12858   9.745  10.261   3.585 -2.4558  0.8552 -0.4081
  836MOL0     H12859   9.597   9.370   4.071  0.3963 -1.9372 -1.0262
  836MOL0     H12860   9.729   9.176   4.014  0.9413 -0.9554 -2.3084
  837MOL0     O12861   6.681   6.794   4.623  0.3910  0.1759  0.3216
  837MOL0     C12862   6.663   6.680   4.647 -0.7218  0.3003 -1.1606
  837MOL0     O12863   6.761   6.587   4.669  0.3938  0.1327 -0.4217
  837MOL0     C12864   6.891   6.637   4.655 -0.6933 -0.5978 -0.7100
  837MOL0     C12865   6.939   6.716   4.753  0.2245 -0.5639  0.1243
  837MOL0     C12866   7.059   6.776   4.746  0.3298  0.4485 -0.5518
  837MOL0     C12867   7.155   6.742   4.643 -0.4510  0.6249 -1.4367
  837MOL0     O12868   7.279   6.802   4.642 -0.1436  0.4568 -0.6291
  837MOL0     C12869   7.335   6.843   4.516  0.2351  0.6091  0.4561
  837MOL0     C12870   7.317   6.988   4.527 -0.0497  0.1228 -0.3174
  837MOL0     C12871   7.389   7.074   4.635 -0.9787 -0.7771  0.3676
  837MOL0     C12872   7.298   7.107   4.754  0.0143  0.0277 -0.4134
  837MOL0     C12873   7.335   7.228   4.850 -0.6324 -0.0909 -0.3954
  837MOL0     C12874   7.239   7.228   4.970  0.5535 -1.1925 -0.1975
  837MOL0     C12875   7.119   7.316   4.931  0.1023  0.3925 -0.9984
  837MOL0     C12876   6.983   7.279   5.000  0.3112 -0.1250 -0.2890
  837MOL0     N12877   6.903   7.185   4.933 -0.2329  0.2704 -0.2721
  837MOL0     C12878   6.763   7.200   4.935 -0.1133  0.1572 -0.5084
  837MOL0     C12879   6.714   7.071   4.921  0.6969  0.1057  0.1104
  837MOL0     C12880   6.566   7.035   4.941  0.0108 -0.0213  0.4698
  837MOL0     C12881   6.481   7.107   4.841  0.4762  0.3170  0.3122
  837MOL0     C12882   6.540   7.091   4.701  0.7985  0.2479  0.1694
  837MOL0     C12883   6.448   7.160   4.594  0.6598  0.2741 -0.1842
  837MOL0     O12884   6.322   7.101   4.564  0.3347  0.9675  0.2197
  837MOL0     C12885   6.315   6.979   4.500 -0.2088  0.1576 -0.3538
  837MOL0     C12886   6.429   6.920   4.437  0.1272  0.6494  0.0588
  837MOL0     C12887   6.411   6.804   4.364  0.1769  0.4295 -0.4259
  837MOL0     C12888   6.539   6.739   4.309  0.7870 -0.5731 -0.2913
  837MOL0     C12889   6.284   6.750   4.336  0.1151  0.1589  0.3931
  837MOL0     C12890   6.260   6.633   4.240  0.1927  0.3644 -0.9951
  837MOL0     O12891   6.161   6.545   4.274  0.2386  1.1439  0.0034
  837MOL0     C12892   6.126   6.452   4.182 -0.4638  0.2013  0.2060
  837MOL0     C12893   6.176   6.329   4.182 -0.2243  0.9067  0.6123
  837MOL0     C12894   6.130   6.219   4.096 -0.7872  0.1422 -0.5267
  837MOL0     C12895   6.029   6.239   4.010 -0.6196  0.0892 -0.7072
  837MOL0     O12896   5.992   6.125   3.936 -0.0955  0.0076 -0.5191
  837MOL0     C12897   5.965   6.163   3.800  0.0529  0.0867  0.2952
  837MOL0     C12898   6.037   6.058   3.711 -0.4225  0.1749  0.6522
  837MOL0     C12899   6.005   5.916   3.756 -0.0719  0.4854  0.0644
  837MOL0     C12900   5.867   5.862   3.749  0.3531 -0.4196  0.5004
  837MOL0     C12901   5.794   5.874   3.614 -0.2399  0.2751  0.1693
  837MOL0     C12902   5.685   5.768   3.581 -0.1748 -0.5911  0.3900
  837MOL0     C12903   5.612   5.776   3.450  0.0274  0.5363  0.6803
  837MOL0     C12904   5.503   5.884   3.435 -0.0528  0.7432 -0.3215
  837MOL0    Cl12905   5.540   6.059   3.405 -0.6008 -0.1398  0.1059
  837MOL0     C12906   5.971   6.369   4.004  0.6957 -1.3328  0.2766
  837MOL0     C12907   6.024   6.474   4.084 -0.7123  0.5186  0.2746
  837MOL0     O12908   6.329   6.626   4.141 -0.4539  0.2042 -0.4299
  837MOL0     C12909   6.177   6.815   4.400 -0.1994  0.1144  0.1371
  837MOL0     C12910   6.186   6.927   4.480 -0.6009  0.1532 -0.5514
  837MOL0     N12911   6.822   6.984   4.907 -0.5218 -0.3421 -0.3152
  837MOL0     N12912   6.937   7.052   4.919 -0.2228  0.4631  0.4231
  837MOL0     C12913   7.106   6.658   4.540 -0.6284  0.1891  0.0833
  837MOL0     C12914   6.973   6.612   4.552  0.1206 -0.3359 -0.1552
  837MOL0     C12915   6.525   6.630   4.639 -0.0734 -0.3949  0.0428
  837MOL0     C12916   6.509   6.506   4.571  0.7815  0.0341 -0.3885
  837MOL0     C12917   6.377   6.452   4.574 -0.6110  0.3939  0.0333
  837MOL0     C12918   6.267   6.507   4.648 -0.3408  1.3171 -0.8865
  837MOL0     O12919   6.144   6.451   4.646  0.1941  0.2629 -0.2020
  837MOL0     C12920   6.024   6.532   4.637  0.0752 -0.0538 -0.0271
  837MOL0     C12921   5.910   6.432   4.626  0.2314  0.2004  0.7603
  837MOL0     C12922   5.908   6.337   4.505 -0.3278  0.6160  0.7455
  837MOL0     C12923   5.781   6.237   4.500  0.1173 -0.0141 -0.0753
  837MOL0     C12924   5.777   6.124   4.602 -0.1431 -0.2014  1.0682
  837MOL0     C12925   5.755   6.037   4.676  0.1230  0.2057  0.1521
  837MOL0     C12926   6.295   6.615   4.727 -0.3920 -0.3476 -0.2873
  837MOL0     C12927   6.415   6.686   4.708  0.2157 -0.8626 -1.3959
  837MOL0     H12928   6.889   6.747   4.844  1.9508  2.3258  0.1974
  837MOL0     H12929   7.072   6.859   4.815  1.2502  1.0542 -1.4308
  837MOL0     H12930   7.436   6.803   4.508  0.8881  2.2388  0.3745
  837MOL0     H12931   7.270   6.814   4.433 -1.7828  1.5473  1.6193
  837MOL0     H12932   7.363   7.029   4.437 -0.0403  2.5492  0.6839
  837MOL0     H12933   7.208   6.998   4.524  0.1107  2.1606 -3.3601
  837MOL0     H12934   7.486   7.032   4.663  0.2987  1.7589  0.0060
  837MOL0     H12935   7.416   7.169   4.590 -0.1284 -0.4304  1.5593
  837MOL0     H12936   7.196   7.126   4.717 -1.3173 -3.8352  0.7495
  837MOL0     H12937   7.293   7.013   4.811  0.0888 -0.9513 -1.9519
  837MOL0     H12938   7.433   7.188   4.878 -1.2424 -2.4964 -1.4234
  837MOL0     H12939   7.341   7.327   4.804 -0.0106  0.4712  0.8566
  837MOL0     H12940   7.205   7.126   4.989  3.6440 -2.0293  1.4259
  837MOL0     H12941   7.289   7.269   5.058  1.5895 -0.2359 -1.1968
  837MOL0     H12942   7.134   7.421   4.960  3.2198 -0.3601  0.5237
  837MOL0     H12943   7.094   7.303   4.825  0.2150  1.3888 -1.1638
  837MOL0     H12944   6.920   7.368   5.009  0.9471  0.5860 -2.4320
  837MOL0     H12945   7.002   7.242   5.102  0.6497  2.0638  0.4961
  837MOL0     H12946   6.711   7.289   4.970  1.7675  1.2990 -0.4894
  837MOL0     H12947   6.548   6.928   4.928  0.0047 -0.1555  1.4818
  837MOL0     H12948   6.532   7.070   5.039  1.7068  2.0465  0.3861
  837MOL0     H12949   6.472   7.216   4.855 -3.0781  0.7809 -3.4418
  837MOL0     H12950   6.383   7.058   4.840 -0.5884  2.2647 -2.1781
  837MOL0     H12951   6.560   6.986   4.676  2.4237  1.0466 -2.2785
  837MOL0     H12952   6.637   7.140   4.692  1.6980 -1.1323  1.8922
  837MOL0     H12953   6.502   7.185   4.502 -0.0372  3.0318  0.0908
  837MOL0     H12954   6.435   7.261   4.634  3.4857  0.6453 -0.0046
  837MOL0     H12955   6.528   6.961   4.455 -1.1330  2.3888  4.1459
  837MOL0     H12956   6.557   6.775   4.207 -0.3670 -2.2552 -1.1298
  837MOL0     H12957   6.619   6.774   4.375  1.9408  1.0507 -2.4221
  837MOL0     H12958   6.536   6.630   4.306  0.6391 -0.5830  0.1958
  837MOL0     H12959   6.253   6.303   4.254  0.1030 -1.2921 -0.4356
  837MOL0     H12960   6.172   6.119   4.106  0.1435  0.6798  1.4907
  837MOL0     H12961   5.858   6.152   3.780  0.0193 -0.4677  0.7484
  837MOL0     H12962   6.006   6.262   3.776  1.2228 -0.4280  0.1077
  837MOL0     H12963   6.004   6.078   3.608  0.9229  1.8750  0.5188
  837MOL0     H12964   6.145   6.073   3.722 -0.4719  0.5938  0.5810
  837MOL0     H12965   6.046   5.893   3.855  1.7842  2.0543 -0.2763
  837MOL0     H12966   6.070   5.859   3.689 -2.1066 -2.2134  0.1823
  837MOL0     H12967   5.867   5.758   3.784  2.0704 -1.3882 -2.1174
  837MOL0     H12968   5.803   5.917   3.819 -1.2949 -0.5168 -0.8557
  837MOL0     H12969   5.861   5.882   3.528  1.2329 -3.1769  0.8597
  837MOL0     H12970   5.741   5.970   3.625  1.1540  0.9160  1.6892
  837MOL0     H12971   5.742   5.675   3.591 -0.3511 -0.8332 -0.7829
  837MOL0     H12972   5.599   5.764   3.649 -0.1209 -2.4739  0.4126
  837MOL0     H12973   5.566   5.679   3.434 -0.7836  1.5360 -5.0683
  837MOL0     H12974   5.685   5.790   3.371  0.4645 -1.1919  0.7529
  837MOL0     H12975   5.437   5.868   3.521  0.9569 -1.5866  0.0966
  837MOL0     H12976   5.447   5.854   3.347  2.0234  0.0559 -1.4860
  837MOL0     H12977   5.889   6.402   3.941 -1.4953  3.4229  4.7907
  837MOL0     H12978   5.972   6.569   4.098  1.8244  1.8451  1.4007
  837MOL0     H12979   6.073   6.790   4.382  0.0887 -2.1876  1.3440
  837MOL0     H12980   6.101   6.956   4.540 -2.3495 -0.6681 -2.4939
  837MOL0     H12981   7.168   6.641   4.452 -0.3115  1.4825  0.0404
  837MOL0     H12982   6.925   6.561   4.469  0.8666  1.5335 -1.8357
  837MOL0     H12983   6.584   6.456   4.510  2.6489 -0.6771  2.3261
  837MOL0     H12984   6.369   6.360   4.518  0.3635  0.6447 -0.5346
  837MOL0     H12985   6.011   6.596   4.725  0.4797 -2.2660  1.7444
  837MOL0     H12986   6.034   6.589   4.544 -2.2307 -1.8744 -1.5289
  837MOL0     H12987   5.824   6.499   4.621  0.1961  0.0495 -1.6093
  837MOL0     H12988   5.913   6.380   4.723  1.0728 -0.7752  0.2373
  837MOL0     H12989   6.000   6.279   4.518  0.3348  1.6424  0.7169
  837MOL0     H12990   5.909   6.388   4.408 -0.8247  0.4634  0.6607
  837MOL0     H12991   5.774   6.195   4.399 -0.0432  3.5006 -1.6935
  837MOL0     H12992   5.698   6.298   4.536  2.2321  1.4685  2.7541
  837MOL0     H12993   5.743   5.965   4.755  1.9430 -0.8142 -0.4559
  837MOL0     H12994   6.213   6.645   4.792  1.6733  0.9311  1.8796
  837MOL0     H12995   6.420   6.769   4.778  0.2957 -1.9313 -0.0781
  838MOL0     O12996   4.450  10.679   1.791  0.0086 -0.3104  0.1997
  838MOL0     C12997   4.358  10.615   1.847 -0.7846 -0.7884 -0.4419
  838MOL0     O12998   4.269  10.662   1.943  0.0896  0.1642  0.5213
  838MOL0     C12999   4.253  10.795   1.978 -0.1664 -0.3928  0.0092
  838MOL0     C13000   4.262  10.893   1.887  0.2141 -0.1372 -0.4782
  838MOL0     C13001   4.240  11.029   1.931  0.7646  0.4132  0.2364
  838MOL0     C13002   4.214  11.062   2.061 -0.1260 -0.7916 -1.0966
  838MOL0     O13003   4.200  11.193   2.102  0.3793  0.4397 -0.3833
  838MOL0     C13004   4.202  11.245   2.239  0.9229  1.3795 -0.4615
  838MOL0     C13005   4.204  11.401   2.237 -0.2260  0.2146 -0.1795
  838MOL0     C13006   4.344  11.446   2.248  0.7481  0.5020  1.2581
  838MOL0     C13007   4.356  11.602   2.228 -0.0752  0.0748 -0.4796
  838MOL0     C13008   4.495  11.650   2.188 -0.8231  0.2695  0.9163
  838MOL0     C13009   4.559  11.711   2.314 -0.3619 -0.0172 -0.5898
  838MOL0     C13010   4.703  11.738   2.311 -0.3473 -0.8643 -0.3925
  838MOL0     C13011   4.761  11.784   2.443 -0.8242 -0.2520  0.8919
  838MOL0     N13012   4.896  11.842   2.431 -0.2739  0.0808 -0.0498
  838MOL0     C13013   4.920  11.968   2.441 -0.5773 -1.3807 -0.0751
  838MOL0     C13014   5.057  11.977   2.417  0.0961 -0.4707 -0.9281
  838MOL0     C13015   5.127  12.108   2.395 -0.7550  0.5514 -0.4129
  838MOL0     C13016   5.280  12.104   2.388 -0.2087  0.0438 -0.6019
  838MOL0     C13017   5.344  12.236   2.347  0.2838  0.0962  0.1745
  838MOL0     C13018   5.497  12.232   2.351  0.1329 -0.1671  0.1717
  838MOL0     O13019   5.561  12.177   2.237 -0.1953  0.3534  0.0916
  838MOL0     C13020   5.659  12.243   2.169  0.1730  0.6227 -0.5545
  838MOL0     C13021   5.678  12.214   2.039 -0.3909  0.7121  0.0955
  838MOL0     C13022   5.783  12.269   1.969  0.4810 -0.6992  0.4847
  838MOL0     C13023   5.788  12.232   1.822 -0.0112 -0.7044  0.5474
  838MOL0     C13024   5.875  12.356   2.029  0.2300 -0.4490 -1.4670
  838MOL0     C13025   5.977  12.431   1.959  0.0605  1.0119  0.4735
  838MOL0     O13026   6.102  12.407   1.989  0.0110  0.3533 -0.2381
  838MOL0     C13027   6.211  12.456   1.914 -0.1248  0.1611 -0.0810
  838MOL0     C13028   6.322  12.464   1.993 -0.3283  0.1750 -0.4187
  838MOL0     C13029   6.435  12.525   1.948  0.1031  0.5953 -0.4277
  838MOL0     C13030   6.427  12.588   1.822 -0.6269  0.5066 -0.0102
  838MOL0     O13031   6.532  12.666   1.783  0.9178 -0.4708 -0.0191
  838MOL0     C13032   6.499  12.788   1.720  0.2806  0.1070  0.4444
  838MOL0     C13033   6.403  12.881   1.813  0.8700  0.3044  0.2520
  838MOL0     C13034   6.501  12.950   1.907 -1.1095 -0.3379 -0.2193
  838MOL0     C13035   6.571  13.070   1.836  0.3485  0.2274  0.0615
  838MOL0     C13036   6.710  13.103   1.887 -0.1495 -0.1327  0.2061
  838MOL0     C13037   6.699  13.149   2.033 -0.0902  0.7180  1.0032
  838MOL0     C13038   6.830  13.200   2.093 -0.1270 -0.4224 -0.2477
  838MOL0     C13039   6.836  13.350   2.100 -0.1225  0.0309  0.1148
  838MOL0    Cl13040   6.833  13.422   1.935 -0.1977  0.0754 -0.2000
  838MOL0     C13041   6.319  12.571   1.737  0.6347 -0.2340 -0.0576
  838MOL0     C13042   6.208  12.502   1.783 -0.9399  0.4905 -0.8181
  838MOL0     O13043   5.936  12.518   1.884 -0.1831  0.1432  1.0363
  838MOL0     C13044   5.858  12.393   2.168  1.4038 -1.5241  0.2461
  838MOL0     C13045   5.755  12.320   2.237  0.9532 -0.5906  0.7971
  838MOL0     N13046   5.107  11.854   2.397  0.3164 -0.2032  0.1303
  838MOL0     N13047   5.005  11.773   2.395 -0.6353 -0.7063 -0.6838
  838MOL0     C13048   4.199  10.957   2.156  0.5025  0.0392 -0.2061
  838MOL0     C13049   4.213  10.824   2.114  0.3239 -0.0634 -0.1780
  838MOL0     C13050   4.328  10.476   1.800  1.2357  0.6751  0.4912
  838MOL0     C13051   4.201  10.410   1.807  0.1563 -0.5439 -0.6141
  838MOL0     C13052   4.177  10.277   1.767 -0.4094 -0.3855  0.2872
  838MOL0     C13053   4.281  10.207   1.708 -0.1160 -0.0191 -0.3327
  838MOL0     O13054   4.260  10.076   1.665  0.3371  0.2313 -1.0155
  838MOL0     C13055   4.364   9.993   1.605 -0.5157 -0.0162 -0.2165
  838MOL0     C13056   4.331   9.965   1.463  0.4691 -0.3406 -0.0421
  838MOL0     C13057   4.416   9.847   1.395  0.7685  0.1388  0.4660
  838MOL0     C13058   4.559   9.872   1.356  0.0623  0.5146 -0.4698
  838MOL0     C13059   4.576   9.991   1.267  0.0853  0.1104 -0.0021
  838MOL0     C13060   4.605  10.092   1.197 -0.9942  1.0760  0.4963
  838MOL0     C13061   4.403  10.277   1.667 -0.5011 -0.1973 -0.5412
  838MOL0     C13062   4.416  10.414   1.707  0.0780  0.2369  0.5506
  838MOL0     H13063   4.290  10.877   1.784 -0.0622 -0.5131 -0.4949
  838MOL0     H13064   4.255  11.112   1.862  1.4147  0.3372  0.2770
  838MOL0     H13065   4.115  11.211   2.295 -0.9093  1.6442 -2.9927
  838MOL0     H13066   4.290  11.199   2.286  0.4496 -1.3536 -2.0183
  838MOL0     H13067   4.170  11.443   2.142  0.8646  1.0166 -0.2390
  838MOL0     H13068   4.147  11.426   2.327 -1.6797 -1.8700 -0.4726
  838MOL0     H13069   4.390  11.406   2.339  1.3640  0.6407  1.0147
  838MOL0     H13070   4.400  11.401   2.165 -2.0711  2.1780 -1.7762
  838MOL0     H13071   4.281  11.638   2.157 -0.1191 -2.0272 -1.5678
  838MOL0     H13072   4.315  11.629   2.326 -0.8808 -1.7064 -0.2855
  838MOL0     H13073   4.554  11.576   2.132 -1.4929 -0.3457  1.0034
  838MOL0     H13074   4.485  11.733   2.118 -1.2983 -0.2616  0.3313
  838MOL0     H13075   4.496  11.795   2.345 -0.6899 -0.7615  0.8557
  838MOL0     H13076   4.558  11.641   2.398  3.1627  0.3441 -0.0956
  838MOL0     H13077   4.759  11.648   2.284  3.4191  0.6169  1.6067
  838MOL0     H13078   4.728  11.808   2.230  1.7039 -1.9185 -0.7560
  838MOL0     H13079   4.777  11.698   2.508 -1.8069 -1.7179 -0.7174
  838MOL0     H13080   4.698  11.859   2.493  1.1638  2.0352  0.1582
  838MOL0     H13081   4.859  12.055   2.466  1.3358 -0.0469  0.1239
  838MOL0     H13082   5.088  12.159   2.306  2.4733 -1.1987 -3.0594
  838MOL0     H13083   5.108  12.171   2.483  1.3997 -1.6180  1.7449
  838MOL0     H13084   5.306  12.029   2.313  2.5502 -1.3983  1.5894
  838MOL0     H13085   5.321  12.069   2.484 -1.9280  2.7482  1.2571
  838MOL0     H13086   5.306  12.309   2.419 -3.4037  0.3146 -1.7951
  838MOL0     H13087   5.312  12.257   2.244 -1.8873  0.5133  0.8830
  838MOL0     H13088   5.525  12.179   2.443 -1.3277  0.3031  0.9180
  838MOL0     H13089   5.520  12.337   2.370 -0.1761 -0.1415  0.4066
  838MOL0     H13090   5.598  12.153   1.996 -0.2499  0.7934 -0.2865
  838MOL0     H13091   5.708  12.284   1.769  0.1677 -0.8139  0.1680
  838MOL0     H13092   5.881  12.258   1.772  0.1648  1.1926  1.7588
  838MOL0     H13093   5.774  12.125   1.801  0.3370 -0.9181  1.3365
  838MOL0     H13094   6.317  12.416   2.090 -2.2150  3.7166  1.4455
  838MOL0     H13095   6.528  12.521   2.004 -0.4661 -0.7882  0.4591
  838MOL0     H13096   6.588  12.838   1.682 -0.4024  0.4577 -0.7644
  838MOL0     H13097   6.451  12.777   1.622  0.7593  3.6172 -0.3098
  838MOL0     H13098   6.366  12.962   1.750 -0.4632  0.4658  1.2034
  838MOL0     H13099   6.324  12.835   1.873  2.8990 -0.5637  2.3849
  838MOL0     H13100   6.567  12.880   1.958 -0.4674  1.2186  1.1449
  838MOL0     H13101   6.450  12.993   1.993 -0.8274 -2.6302  1.1592
  838MOL0     H13102   6.593  13.040   1.733  1.7608  1.5390 -0.0492
  838MOL0     H13103   6.504  13.156   1.826 -0.7064 -0.7911 -2.2887
  838MOL0     H13104   6.763  13.177   1.826  0.3451 -1.9044 -1.6210
  838MOL0     H13105   6.775  13.015   1.878 -0.7498 -0.4198 -1.7513
  838MOL0     H13106   6.613  13.213   2.056  0.1128  1.4058 -0.0265
  838MOL0     H13107   6.679  13.056   2.087 -1.4623  0.0595 -0.5437
  838MOL0     H13108   6.915  13.157   2.039 -0.6048  2.5488 -3.7186
  838MOL0     H13109   6.835  13.167   2.197 -3.1959  0.4594  0.2553
  838MOL0     H13110   6.933  13.383   2.138 -0.0872  1.5798 -1.1915
  838MOL0     H13111   6.753  13.382   2.164  2.4464  1.4074  3.0187
  838MOL0     H13112   6.312  12.622   1.641 -0.8483 -1.2249 -0.5171
  838MOL0     H13113   6.121  12.486   1.721 -0.2986  1.3255 -1.9602
  838MOL0     H13114   5.920  12.473   2.208  0.0318  0.2262 -0.9793
  838MOL0     H13115   5.739  12.351   2.340 -0.0422 -0.5591  0.6431
  838MOL0     H13116   4.173  10.978   2.260  0.3274 -0.7349 -0.0840
  838MOL0     H13117   4.206  10.741   2.184  1.5917  0.2293  0.3301
  838MOL0     H13118   4.125  10.472   1.854  2.2831 -0.3847  2.9606
  838MOL0     H13119   4.077  10.233   1.771 -1.7367  1.5915 -4.2358
  838MOL0     H13120   4.465  10.032   1.620 -0.5025  0.1234 -0.6623
  838MOL0     H13121   4.367   9.898   1.660  0.3730 -0.8603 -1.6656
  838MOL0     H13122   4.340  10.064   1.417 -1.2680 -0.2576 -0.2926
  838MOL0     H13123   4.226   9.934   1.457  0.8053 -1.2524 -4.4197
  838MOL0     H13124   4.361   9.816   1.305 -1.3118  0.2061  1.6454
  838MOL0     H13125   4.418   9.762   1.465 -0.9854  0.0121  0.4050
  838MOL0     H13126   4.589   9.786   1.295  3.5460  1.6243 -0.5490
  838MOL0     H13127   4.624   9.879   1.444 -0.5830  0.8342 -0.0137
  838MOL0     H13128   4.635  10.163   1.123 -0.0758 -1.4668 -1.7494
  838MOL0     H13129   4.480  10.232   1.605 -0.3925  2.1873 -2.2961
  838MOL0     H13130   4.498  10.465   1.657  0.8627 -0.2075  1.3586
  839MOL0     O13131   6.840   2.758  10.544  0.1095  0.5829  0.7893
  839MOL0     C13132   6.905   2.706  10.455 -0.2385 -0.3437  0.3280
  839MOL0     O13133   6.855   2.663  10.338  0.4445  0.0220 -0.0325
  839MOL0     C13134   6.721   2.659  10.318  0.2807 -0.2268  0.6414
  839MOL0     C13135   6.660   2.727  10.213 -1.3770 -0.9592  0.4836
  839MOL0     C13136   6.522   2.710  10.195  0.1656  0.2385  0.0821
  839MOL0     C13137   6.440   2.633  10.280 -0.2266 -0.9676  0.5215
  839MOL0     O13138   6.303   2.620  10.273 -0.5180  0.0134  0.1868
  839MOL0     C13139   6.227   2.692  10.166  0.3031 -0.6105 -1.3351
  839MOL0     C13140   6.183   2.838  10.211  0.4762 -0.7219  0.1534
  839MOL0     C13141   6.233   2.950  10.108  0.7149  0.1717 -0.3122
  839MOL0     C13142   6.185   2.926   9.957  0.3127  0.0978 -0.8674
  839MOL0     C13143   6.026   2.932   9.945 -0.0568 -0.9572  0.1039
  839MOL0     C13144   5.999   2.913   9.798  0.4496  0.2616  0.5681
  839MOL0     C13145   5.849   2.939   9.760 -0.3575 -0.5075 -0.0875
  839MOL0     C13146   5.794   3.067   9.826  0.6901 -0.4113  0.6146
  839MOL0     N13147   5.666   3.094   9.755 -0.6224 -0.2303 -0.0625
  839MOL0     C13148   5.638   3.110   9.617 -1.0479 -0.1803  0.7237
  839MOL0     C13149   5.500   3.146   9.617  0.1280 -0.4152 -0.1272
  839MOL0     C13150   5.418   3.168   9.496  0.5927 -0.2455  0.4934
  839MOL0     C13151   5.276   3.229   9.505 -0.2173  0.5894  0.7795
  839MOL0     C13152   5.240   3.284   9.369  0.2727  0.6824  0.6331
  839MOL0     C13153   5.121   3.393   9.364 -0.6296 -0.0837  0.7913
  839MOL0     O13154   5.060   3.398   9.234 -1.0410  0.3620 -0.0309
  839MOL0     C13155   4.956   3.326   9.188  0.2393  0.0565  1.2667
  839MOL0     C13156   4.905   3.220   9.255  0.2856 -0.0290  0.7825
  839MOL0     C13157   4.798   3.146   9.202 -0.3525 -0.6741  0.3133
  839MOL0     C13158   4.748   3.013   9.273 -0.5897 -0.7256 -0.1726
  839MOL0     C13159   4.747   3.183   9.076  0.6712 -0.3432 -0.3166
  839MOL0     C13160   4.630   3.115   9.015  0.9073 -0.3905 -0.3893
  839MOL0     O13161   4.637   3.083   8.878 -0.9949 -0.1211  0.1671
  839MOL0     C13162   4.519   3.039   8.817 -0.4758  0.6871  0.7174
  839MOL0     C13163   4.462   3.106   8.710 -0.1071 -0.4445 -0.4049
  839MOL0     C13164   4.345   3.063   8.640 -0.8241 -0.2531  0.2665
  839MOL0     C13165   4.293   2.940   8.673 -0.1270  0.1423  0.6098
  839MOL0     O13166   4.201   2.883   8.588  0.1432  0.5929  0.0617
  839MOL0     C13167   4.066   2.876   8.632  0.0007 -0.0454 -1.3211
  839MOL0     C13168   3.974   2.884   8.512 -1.0853 -0.4533 -0.4652
  839MOL0     C13169   3.839   2.827   8.547  1.0433  0.0034  0.3793
  839MOL0     C13170   3.741   2.934   8.592 -0.5681 -0.6490 -0.4941
  839MOL0     C13171   3.616   2.864   8.644 -0.5478 -0.3124  0.6902
  839MOL0     C13172   3.498   2.966   8.655 -0.4411 -0.0157  0.4560
  839MOL0     C13173   3.364   2.903   8.637 -0.7510 -0.3197 -0.1070
  839MOL0     C13174   3.353   2.856   8.490  0.0605 -1.1080 -0.2049
  839MOL0    Cl13175   3.190   2.788   8.466 -0.5492 -0.0807  0.6089
  839MOL0     C13176   4.331   2.883   8.796  0.0865 -0.3213  0.3630
  839MOL0     C13177   4.444   2.930   8.868  0.6054 -0.7408 -0.8215
  839MOL0     O13178   4.528   3.109   9.084 -0.9020  0.6146 -0.9324
  839MOL0     C13179   4.811   3.290   9.008  0.8660  0.7892 -1.0264
  839MOL0     C13180   4.906   3.366   9.068 -0.5654  0.4830  1.5279
  839MOL0     N13181   5.453   3.143   9.746 -0.4177 -0.2848 -0.1998
  839MOL0     N13182   5.556   3.117   9.825  0.4400  1.1083  0.1358
  839MOL0     C13183   6.506   2.572  10.379  0.3511 -0.1404  0.1607
  839MOL0     C13184   6.648   2.585  10.405  0.4365 -0.3442 -0.3258
  839MOL0     C13185   7.056   2.685  10.452 -0.6303  0.0990 -0.8619
  839MOL0     C13186   7.113   2.598  10.360  0.2274  0.7738 -0.5435
  839MOL0     C13187   7.253   2.581  10.355  0.1976 -0.7343 -0.6105
  839MOL0     C13188   7.346   2.645  10.439  1.1640 -0.0616  0.3360
  839MOL0     O13189   7.476   2.630  10.413 -0.9261 -0.3471 -0.5642
  839MOL0     C13190   7.565   2.677  10.511 -0.4544 -0.3724 -0.4296
  839MOL0     C13191   7.568   2.583  10.633  0.3425 -0.5325 -0.3178
  839MOL0     C13192   7.635   2.453  10.591  0.1974 -0.0760 -0.3994
  839MOL0     C13193   7.650   2.368  10.724 -0.2955  0.3547  0.1512
  839MOL0     C13194   7.716   2.239  10.699  0.1077 -0.4732 -0.6513
  839MOL0     C13195   7.761   2.128  10.674 -0.4704 -0.0530  0.8333
  839MOL0     C13196   7.277   2.719  10.540 -0.9688  0.0231 -0.0498
  839MOL0     C13197   7.145   2.749  10.545  0.3936 -0.1525  0.2571
  839MOL0     H13198   6.717   2.792  10.147 -1.9074 -2.4088 -1.5291
  839MOL0     H13199   6.477   2.752  10.106 -0.4840 -1.7885 -0.6107
  839MOL0     H13200   6.289   2.691  10.076 -0.5007  2.2389 -2.0014
  839MOL0     H13201   6.132   2.641  10.144  0.4588 -0.3193 -2.7384
  839MOL0     H13202   6.075   2.848  10.194  0.8315 -1.4356 -3.2352
  839MOL0     H13203   6.213   2.871  10.311  1.8071  1.0027 -0.7566
  839MOL0     H13204   6.195   3.051  10.128 -0.1745 -0.2248  0.0263
  839MOL0     H13205   6.343   2.948  10.102  0.7450 -0.1624  0.3297
  839MOL0     H13206   6.225   3.006   9.893  0.5553  0.7162  0.0320
  839MOL0     H13207   6.223   2.834   9.913  0.4810 -1.2689  1.9463
  839MOL0     H13208   5.992   2.845  10.002  3.6191 -2.5434  0.1733
  839MOL0     H13209   5.982   3.025   9.981 -0.1034  0.1352 -2.5962
  839MOL0     H13210   6.070   2.971   9.739  1.1709  2.3495  3.2675
  839MOL0     H13211   6.020   2.807   9.785 -2.9457 -0.3180 -1.0301
  839MOL0     H13212   5.833   2.918   9.653  2.7876 -4.0689 -0.0834
  839MOL0     H13213   5.794   2.855   9.803 -2.6532 -0.2804 -2.3461
  839MOL0     H13214   5.854   3.159   9.821  1.2142 -0.6213  2.2517
  839MOL0     H13215   5.769   3.048   9.931  0.0540  0.4920  0.6446
  839MOL0     H13216   5.700   3.089   9.531 -2.6267 -2.3257  0.0154
  839MOL0     H13217   5.483   3.217   9.423  1.8013 -2.9099 -0.3531
  839MOL0     H13218   5.405   3.072   9.445  3.5211 -0.4085 -0.1112
  839MOL0     H13219   5.284   3.312   9.576  0.7749  0.4756  0.8203
  839MOL0     H13220   5.209   3.155   9.550 -0.3009  0.4106  0.3637
  839MOL0     H13221   5.205   3.201   9.306 -0.0357 -0.2554  1.9718
  839MOL0     H13222   5.326   3.340   9.332  0.2507 -1.2964 -2.7898
  839MOL0     H13223   5.153   3.494   9.393  1.1202 -0.2556 -0.3553
  839MOL0     H13224   5.053   3.360   9.443 -0.7213 -2.4132 -0.1902
  839MOL0     H13225   4.949   3.185   9.349 -3.9852 -0.8933  2.7134
  839MOL0     H13226   4.709   3.046   9.370  0.5460  2.6090 -0.7025
  839MOL0     H13227   4.670   2.972   9.207  0.3855 -0.8212 -1.3017
  839MOL0     H13228   4.831   2.944   9.286  0.5763  0.3510 -1.5303
  839MOL0     H13229   4.514   3.191   8.667  0.7282 -1.2377 -1.0129
  839MOL0     H13230   4.324   3.104   8.541 -0.4910  1.9445  1.0530
  839MOL0     H13231   4.065   2.786   8.693 -0.1339  0.5636 -0.3998
  839MOL0     H13232   4.059   2.951   8.711  0.6915 -1.2120 -0.1123
  839MOL0     H13233   3.972   2.988   8.477  1.5390  0.3386  1.4496
  839MOL0     H13234   4.016   2.820   8.433 -1.5887 -0.8846 -0.3922
  839MOL0     H13235   3.856   2.752   8.625 -1.2513 -0.1244  0.8217
  839MOL0     H13236   3.802   2.772   8.461  0.6483 -0.2770  0.7247
  839MOL0     H13237   3.794   2.999   8.663  0.8033 -0.4934 -1.6067
  839MOL0     H13238   3.713   2.996   8.507  0.4439  4.2410  2.3664
  839MOL0     H13239   3.629   2.828   8.747 -1.2097 -3.3785 -0.2039
  839MOL0     H13240   3.598   2.780   8.577  4.1484 -0.7121 -0.4452
  839MOL0     H13241   3.498   3.014   8.753 -0.2832  1.9456 -0.4526
  839MOL0     H13242   3.500   3.046   8.580 -2.1821  1.9847  2.4009
  839MOL0     H13243   3.283   2.976   8.650 -2.6312 -2.2591 -0.4990
  839MOL0     H13244   3.351   2.825   8.712  2.1090  0.5342  1.4044
  839MOL0     H13245   3.428   2.778   8.471 -1.4788 -2.3201 -1.6332
  839MOL0     H13246   3.378   2.936   8.420  0.5743 -2.3912 -1.5438
  839MOL0     H13247   4.272   2.799   8.832 -1.5632  0.7775  0.3476
  839MOL0     H13248   4.484   2.877   8.953  0.1940 -0.6812 -0.5909
  839MOL0     H13249   4.760   3.317   8.916 -0.3623  0.4529 -0.4645
  839MOL0     H13250   4.951   3.452   9.019 -0.0638 -1.7568 -2.4089
  839MOL0     H13251   6.445   2.518  10.451 -0.3714  2.1869  1.4147
  839MOL0     H13252   6.708   2.535  10.481  1.0840 -1.6987 -1.6833
  839MOL0     H13253   7.064   2.547  10.278  3.4945 -0.7591 -1.7230
  839MOL0     H13254   7.303   2.525  10.276  4.6347  1.3397  0.3990
  839MOL0     H13255   7.664   2.696  10.468 -0.4675  1.3614  0.2235
  839MOL0     H13256   7.537   2.775  10.550  0.3222 -0.0113 -0.7531
  839MOL0     H13257   7.461   2.577  10.656  0.1778 -1.3952 -1.2238
  839MOL0     H13258   7.621   2.635  10.713 -0.7636 -0.4565  0.3897
  839MOL0     H13259   7.734   2.469  10.548  1.6870 -2.2508  1.8712
  839MOL0     H13260   7.578   2.406  10.510  2.9961  0.3279 -2.7913
  839MOL0     H13261   7.548   2.347  10.758 -0.7795 -1.5680 -2.2373
  839MOL0     H13262   7.706   2.423  10.801 -0.2074  0.4357  0.0304
  839MOL0     H13263   7.800   2.033  10.642  1.0382 -0.6116  3.9238
  839MOL0     H13264   7.340   2.786  10.597  2.8510 -2.0379 -1.4458
  839MOL0     H13265   7.106   2.814  10.623 -1.9182 -2.1690  0.9116
  840MOL0     O13266   8.222   5.683   0.028 -0.3217  0.2908 -0.6326
  840MOL0     C13267   8.186   5.569   0.073  0.3375  0.0423 -0.1885
  840MOL0     O13268   8.071   5.541   0.134  0.6628  0.0172  0.1857
  840MOL0     C13269   7.964   5.624   0.117 -1.1356 -0.0444  0.5936
  840MOL0     C13270   7.939   5.717   0.215 -0.6865 -0.0819 -1.3410
  840MOL0     C13271   7.831   5.807   0.198  1.1542 -0.2024 -0.7397
  840MOL0     C13272   7.755   5.807   0.089  0.0928  0.8627  0.3122
  840MOL0     O13273   7.648   5.891   0.075 -0.3262  0.1568  0.6603
  840MOL0     C13274   7.677   5.994  -0.018  0.4959  0.2121  0.4930
  840MOL0     C13275   7.710   6.122   0.060  0.2986 -0.1302  0.7580
  840MOL0     C13276   7.585   6.167   0.147  0.5550  0.1560  0.0731
  840MOL0     C13277   7.617   6.281   0.241 -0.0432 -1.1728 -0.4323
  840MOL0     C13278   7.496   6.351   0.310  0.8351 -0.0889 -0.1925
  840MOL0     C13279   7.556   6.463   0.399 -0.8824 -0.3875 -0.3113
  840MOL0     C13280   7.443   6.555   0.430  0.7196 -0.4250 -0.6850
  840MOL0     C13281   7.372   6.525   0.563  0.4210 -0.1439 -0.4069
  840MOL0     N13282   7.257   6.616   0.592 -0.0034 -1.2496  0.2786
  840MOL0     C13283   7.181   6.685   0.502  0.0231  0.6754 -0.1974
  840MOL0     C13284   7.083   6.750   0.573 -0.2122  0.6481  1.7648
  840MOL0     C13285   6.980   6.850   0.519 -0.0525  0.7860  0.2316
  840MOL0     C13286   7.048   6.961   0.432  0.3292  0.1644  0.2116
  840MOL0     C13287   6.951   7.079   0.402 -0.0291  0.1286  0.6754
  840MOL0     C13288   6.888   7.080   0.265 -1.4993  0.0992  0.6547
  840MOL0     O13289   6.794   6.970   0.250  0.7425  0.3300  0.2080
  840MOL0     C13290   6.703   6.997   0.144 -0.5603  0.4457 -0.5072
  840MOL0     C13291   6.745   7.012   0.020  0.0421  0.4080  0.6299
  840MOL0     C13292   6.653   7.050  -0.080  0.5767 -0.3393 -0.6955
  840MOL0     C13293   6.712   7.077  -0.218  0.4558  1.4790  0.0974
  840MOL0     C13294   6.513   7.057  -0.055 -0.2589  0.6159  0.3870
  840MOL0     C13295   6.408   7.063  -0.153 -0.1331  0.5921  0.3949
  840MOL0     O13296   6.429   6.976  -0.263 -1.3186 -0.7970  0.3037
  840MOL0     C13297   6.334   6.978  -0.347 -0.7967  0.1231  0.2428
  840MOL0     C13298   6.270   6.853  -0.375 -0.5816  0.6009 -0.2873
  840MOL0     C13299   6.177   6.842  -0.475  0.1226  0.2280  0.2407
  840MOL0     C13300   6.131   6.956  -0.536 -0.7514 -0.7872  0.3133
  840MOL0     O13301   6.023   6.963  -0.624 -0.2505 -0.3558  0.1650
  840MOL0     C13302   5.912   6.882  -0.598 -1.1998  0.2987  0.5157
  840MOL0     C13303   5.844   6.938  -0.483 -0.6312  0.1997 -0.9703
  840MOL0     C13304   5.802   7.088  -0.507  0.5521 -0.2269  0.2838
  840MOL0     C13305   5.733   7.146  -0.379  0.9122  0.7675  0.2180
  840MOL0     C13306   5.716   7.293  -0.401 -0.5324 -0.2317 -0.0189
  840MOL0     C13307   5.670   7.379  -0.290  0.5398  0.2791  0.4765
  840MOL0     C13308   5.527   7.335  -0.246 -0.4371  0.1209  0.2767
  840MOL0     C13309   5.449   7.440  -0.181  0.1987  0.0105 -0.0599
  840MOL0    Cl13310   5.395   7.570  -0.293 -0.1814  0.3044  0.2361
  840MOL0     C13311   6.202   7.076  -0.518 -0.2038 -0.0194 -0.2670
  840MOL0     C13312   6.305   7.086  -0.422  1.2232 -0.3326  0.1500
  840MOL0     O13313   6.301   7.125  -0.132 -0.4373  0.0075  0.0228
  840MOL0     C13314   6.472   7.025   0.077 -0.0358 -0.5551  0.6044
  840MOL0     C13315   6.568   6.999   0.173  0.3093 -1.0164 -0.0128
  840MOL0     N13316   7.102   6.731   0.706  0.0854 -0.1910  0.7750
  840MOL0     N13317   7.203   6.645   0.710 -0.5736 -0.6021 -0.2379
  840MOL0     C13318   7.779   5.707  -0.009 -0.6918 -0.6806 -0.7476
  840MOL0     C13319   7.880   5.607   0.005  0.4382 -0.7837  0.3781
  840MOL0     C13320   8.264   5.447   0.053 -0.3324  0.3688  0.5484
  840MOL0     C13321   8.381   5.458  -0.027 -0.6900  1.1500  0.1822
  840MOL0     C13322   8.464   5.342  -0.053 -0.0087  0.0472 -0.4544
  840MOL0     C13323   8.422   5.211  -0.008  0.5869 -0.9840  0.6756
  840MOL0     O13324   8.484   5.092  -0.029 -0.2139 -0.4602 -0.6630
  840MOL0     C13325   8.572   5.102  -0.143  0.2538  0.2551 -0.6162
  840MOL0     C13326   8.640   4.965  -0.173 -0.8264 -0.0537  0.0190
  840MOL0     C13327   8.538   4.860  -0.186  0.5838 -0.9649  0.3207
  840MOL0     C13328   8.580   4.739  -0.268  0.2242  0.0192 -0.4347
  840MOL0     C13329   8.457   4.667  -0.315 -0.0017  0.8363  0.8286
  840MOL0     C13330   8.344   4.630  -0.353  0.4694  0.3372 -0.2414
  840MOL0     C13331   8.310   5.204   0.073  0.1247 -0.8198  0.3956
  840MOL0     C13332   8.237   5.319   0.106  0.3707  0.8951 -0.8236
  840MOL0     H13333   8.000   5.729   0.304 -2.2126 -0.1842 -0.2355
  840MOL0     H13334   7.794   5.877   0.272 -0.7233  0.1418 -1.9203
  840MOL0     H13335   7.762   5.979  -0.085 -0.9902 -0.5643 -1.3081
  840MOL0     H13336   7.583   6.021  -0.068  0.1831  2.7594  2.2627
  840MOL0     H13337   7.793   6.099   0.128  3.5138  0.5377 -2.6630
  840MOL0     H13338   7.742   6.204  -0.004 -1.0663 -0.5530 -0.5200
  840MOL0     H13339   7.509   6.201   0.077 -0.7634 -1.0077  0.8814
  840MOL0     H13340   7.542   6.083   0.203  0.8461  0.1200  0.2473
  840MOL0     H13341   7.688   6.243   0.316  2.7621  0.2044 -2.2446
  840MOL0     H13342   7.666   6.358   0.181  0.3239 -0.5645  0.6210
  840MOL0     H13343   7.433   6.395   0.232  1.0940  1.4917  0.4670
  840MOL0     H13344   7.443   6.275   0.368  3.7993 -1.0241  1.5196
  840MOL0     H13345   7.613   6.408   0.475  2.0845  2.7605 -0.0220
  840MOL0     H13346   7.627   6.526   0.346  0.1880 -0.8418  0.5561
  840MOL0     H13347   7.487   6.655   0.438 -0.9623  0.2183  1.7920
  840MOL0     H13348   7.371   6.566   0.348 -2.2744  0.8300  1.8924
  840MOL0     H13349   7.441   6.529   0.647  0.5506  0.7511 -0.5468
  840MOL0     H13350   7.341   6.421   0.575 -0.9666  0.3157  0.2903
  840MOL0     H13351   7.184   6.664   0.396  1.3004 -1.9789  0.2846
  840MOL0     H13352   6.915   6.783   0.461  1.7976 -0.8646 -0.0275
  840MOL0     H13353   6.935   6.890   0.610  1.7267 -1.5616  2.2631
  840MOL0     H13354   7.106   6.925   0.346  0.8053  2.3956 -0.4736
  840MOL0     H13355   7.121   7.000   0.504 -0.5442  0.4499  0.9577
  840MOL0     H13356   7.005   7.173   0.402 -0.5973  0.4619  1.1768
  840MOL0     H13357   6.872   7.089   0.477 -0.3044  6.8898  0.0208
  840MOL0     H13358   6.964   7.068   0.188 -2.2677  0.8215 -0.2332
  840MOL0     H13359   6.839   7.176   0.246  0.7203  0.8626 -1.7162
  840MOL0     H13360   6.848   6.985  -0.003 -0.2010 -1.3611  1.4554
  840MOL0     H13361   6.692   6.979  -0.263  0.2436  0.7370  1.7147
  840MOL0     H13362   6.678   7.163  -0.276 -1.0167  1.0046  0.2181
  840MOL0     H13363   6.821   7.082  -0.221  0.6764  2.3523  3.9450
  840MOL0     H13364   6.293   6.767  -0.312 -1.5067  0.7999  0.3323
  840MOL0     H13365   6.126   6.748  -0.494 -0.8253  0.5421  1.1510
  840MOL0     H13366   5.847   6.896  -0.684  0.0931  0.8768 -0.3987
  840MOL0     H13367   5.932   6.775  -0.586  2.3776  0.7775 -0.1349
  840MOL0     H13368   5.758   6.875  -0.457 -0.7334  0.8536  0.3769
  840MOL0     H13369   5.911   6.930  -0.397 -0.4085  1.3395 -1.0203
  840MOL0     H13370   5.729   7.081  -0.588  0.6096 -0.0334  0.2146
  840MOL0     H13371   5.880   7.153  -0.548  0.6527 -1.5119 -1.6760
  840MOL0     H13372   5.642   7.088  -0.360 -1.5770  3.4654 -2.4616
  840MOL0     H13373   5.805   7.138  -0.297 -0.2472 -0.6614  1.1601
  840MOL0     H13374   5.634   7.304  -0.473  0.4749  1.5050 -0.9811
  840MOL0     H13375   5.811   7.330  -0.442  0.5228 -1.3503  1.3270
  840MOL0     H13376   5.742   7.390  -0.208  3.8428 -0.6602 -2.0636
  840MOL0     H13377   5.660   7.477  -0.337 -0.3099 -0.2124 -0.3926
  840MOL0     H13378   5.539   7.244  -0.186  0.2275 -1.2477 -1.8231
  840MOL0     H13379   5.460   7.302  -0.326 -2.8469  0.7145  1.9097
  840MOL0     H13380   5.521   7.486  -0.112  1.2338 -2.6654  0.7878
  840MOL0     H13381   5.366   7.408  -0.117  2.7307 -0.4049  3.3220
  840MOL0     H13382   6.171   7.169  -0.565  2.8467  2.8310  2.7685
  840MOL0     H13383   6.356   7.181  -0.409  0.2617  0.9113 -3.7879
  840MOL0     H13384   6.365   7.029   0.093 -1.4396  2.2579 -5.9511
  840MOL0     H13385   6.533   6.986   0.275  2.0447  1.3528  0.9712
  840MOL0     H13386   7.717   5.697  -0.098 -0.6400 -2.1274 -0.6402
  840MOL0     H13387   7.888   5.540  -0.080 -1.0088  2.0145 -2.2077
  840MOL0     H13388   8.394   5.554  -0.074  0.7551  1.4398  1.1011
  840MOL0     H13389   8.555   5.350  -0.113  1.5870 -1.6207  1.5727
  840MOL0     H13390   8.527   5.144  -0.233 -1.9171 -0.1415  0.2174
  840MOL0     H13391   8.650   5.174  -0.117 -0.8907  1.4527 -0.3736
  840MOL0     H13392   8.714   4.953  -0.094 -0.3919 -2.1902 -0.6553
  840MOL0     H13393   8.693   4.983  -0.267  1.1580 -0.1299  1.0676
  840MOL0     H13394   8.449   4.906  -0.230  0.9436  0.0781  0.6354
  840MOL0     H13395   8.514   4.811  -0.092 -4.2916  1.0298  0.3857
  840MOL0     H13396   8.645   4.668  -0.215  0.0961 -1.8078 -2.5801
  840MOL0     H13397   8.640   4.775  -0.353  1.6231 -0.6128  0.2478
  840MOL0     H13398   8.252   4.584  -0.383  0.5384  1.1700 -1.8539
  840MOL0     H13399   8.277   5.111   0.118 -0.2142 -0.0431  1.8183
  840MOL0     H13400   8.154   5.312   0.176  1.0071  0.3216 -0.1113
  841MOL0     O13401   9.864   8.678   9.770  0.0517 -0.0047  0.4086
  841MOL0     C13402   9.833   8.557   9.758  0.1653  0.1375 -0.0315
  841MOL0     O13403   9.756   8.507   9.656  0.4112 -0.2631 -0.7970
  841MOL0     C13404   9.732   8.583   9.540  0.4108 -0.6571 -0.4806
  841MOL0     C13405   9.806   8.693   9.493 -0.7521 -0.4192  0.4471
  841MOL0     C13406   9.775   8.745   9.373  0.2008 -0.4475  0.4481
  841MOL0     C13407   9.664   8.709   9.297  0.8544  1.3540  0.5677
  841MOL0     O13408   9.642   8.781   9.186 -0.1313 -0.2649  0.3996
  841MOL0     C13409   9.541   8.743   9.099 -0.2871  0.4005  0.1903
  841MOL0     C13410   9.517   8.858   9.006  0.3974 -0.2810  1.1405
  841MOL0     C13411   9.432   8.821   8.884  0.6046 -0.4014 -0.3432
  841MOL0     C13412   9.412   8.927   8.774 -0.8197  0.2689  0.5509
  841MOL0     C13413   9.379   8.856   8.635  0.1547 -0.4088 -0.5232
  841MOL0     C13414   9.260   8.768   8.642  1.0617  0.2098 -0.3508
  841MOL0     C13415   9.218   8.699   8.515  0.0941 -0.2843  0.6989
  841MOL0     C13416   9.294   8.567   8.497  0.4429  0.5644 -0.8213
  841MOL0     N13417   9.435   8.562   8.474 -0.1607  0.2046  0.0716
  841MOL0     C13418   9.491   8.603   8.355 -1.0897  0.3540  0.1419
  841MOL0     C13419   9.625   8.590   8.371  0.1235  0.8287 -1.0609
  841MOL0     C13420   9.715   8.629   8.262 -0.4354  0.4827  0.7443
  841MOL0     C13421   9.768   8.766   8.276  0.1258 -0.7571  0.1297
  841MOL0     C13422   9.855   8.779   8.398  0.0120 -0.0582  0.3397
  841MOL0     C13423   9.903   8.927   8.414 -0.0752 -0.0245  0.2292
  841MOL0     O13424   9.817   9.008   8.497 -0.4400 -0.7070 -0.3502
  841MOL0     C13425   9.865   9.130   8.516  0.2219  0.9870 -0.3865
  841MOL0     C13426   9.795   9.200   8.619  0.3898  0.5459 -0.2435
  841MOL0     C13427   9.841   9.323   8.661  0.2891  0.9305  0.5048
  841MOL0     C13428   9.782   9.379   8.787 -0.4149  0.0712  0.0398
  841MOL0     C13429   9.944   9.393   8.588  0.6993  0.2001  0.3697
  841MOL0     C13430   9.995   9.541   8.602  0.4868  1.0879 -0.6136
  841MOL0     O13431  10.119   9.562   8.546 -0.3647 -0.2380  0.3236
  841MOL0     C13432  10.176   9.683   8.549  0.5055 -0.8556 -0.3942
  841MOL0     C13433  10.154   9.791   8.638  0.9284 -0.6607 -0.0877
  841MOL0     C13434  10.242   9.894   8.646 -0.1911 -0.5141 -1.4156
  841MOL0     C13435  10.352   9.904   8.560  0.4751 -0.6796 -0.0735
  841MOL0     O13436  10.436  10.018   8.564  1.1738  0.1587 -0.3783
  841MOL0     C13437  10.407  10.130   8.642  0.2327 -0.9572  0.1865
  841MOL0     C13438  10.481  10.240   8.564  0.0453  0.0058  0.0471
  841MOL0     C13439  10.443  10.379   8.582 -0.2890 -0.2039 -0.9030
  841MOL0     C13440  10.533  10.469   8.493  0.8134 -0.0843 -0.9422
  841MOL0     C13441  10.688  10.469   8.538  0.7519  0.4223 -0.1846
  841MOL0     C13442  10.768  10.576   8.463  1.3190  0.6595  0.0282
  841MOL0     C13443  10.916  10.575   8.517 -0.2670 -0.1175  0.6677
  841MOL0     C13444  11.022  10.637   8.440 -0.4666  0.4424  0.3635
  841MOL0    Cl13445  11.022  10.583   8.268  0.2275  0.2529  0.1011
  841MOL0     C13446  10.375   9.802   8.472 -0.3050 -0.2373  0.2476
  841MOL0     C13447  10.296   9.689   8.478 -0.7623  0.1068  0.1294
  841MOL0     O13448   9.917   9.622   8.645 -0.0185 -0.0527 -0.0497
  841MOL0     C13449  10.013   9.324   8.496  0.2496  0.7909  0.2335
  841MOL0     C13450   9.969   9.201   8.449  0.6405  0.3081 -0.3907
  841MOL0     N13451   9.652   8.527   8.495 -0.4906 -0.2018  0.0713
  841MOL0     N13452   9.540   8.520   8.556  0.0278  0.5773 -0.4345
  841MOL0     C13453   9.586   8.605   9.350 -0.5215 -0.5284  0.1382
  841MOL0     C13454   9.627   8.539   9.457 -0.0844  0.2931 -0.5118
  841MOL0     C13455   9.864   8.490   9.880  0.0854  0.0768  0.1945
  841MOL0     C13456   9.796   8.374   9.918  0.4672 -0.7931  0.1376
  841MOL0     C13457   9.816   8.298  10.030  0.3512 -0.5337  1.0225
  841MOL0     C13458   9.913   8.338  10.123  0.4444  0.0995  0.6834
  841MOL0     O13459   9.932   8.250  10.227  0.1903 -0.4967 -0.1398
  841MOL0     C13460  10.051   8.276  10.305  0.1105  1.2232 -0.0119
  841MOL0     C13461  10.069   8.161  10.400 -1.4850  0.3868 -0.2834
  841MOL0     C13462  10.134   8.041  10.327 -0.2878  0.6788  0.6602
  841MOL0     C13463  10.031   7.931  10.291  0.1113  0.0673  0.1238
  841MOL0     C13464  10.016   7.851  10.419  0.4633  0.0894 -0.2289
  841MOL0     C13465  10.021   7.770  10.506 -0.8779  0.0455 -0.4786
  841MOL0     C13466   9.985   8.452  10.092  0.4449 -0.2250  0.5383
  841MOL0     C13467   9.955   8.529   9.983  0.3535 -0.6473  0.1298
  841MOL0     H13468   9.900   8.731   9.531  0.5027 -1.0281 -1.8310
  841MOL0     H13469   9.834   8.831   9.343 -0.0315  0.1993  1.7742
  841MOL0     H13470   9.574   8.658   9.039 -2.0465 -0.7555  0.7821
  841MOL0     H13471   9.447   8.713   9.146  0.7560  0.7344  2.6711
  841MOL0     H13472   9.463   8.937   9.059 -1.2901 -1.3154  1.0239
  841MOL0     H13473   9.610   8.881   8.953  0.2190 -1.6709  0.1896
  841MOL0     H13474   9.468   8.723   8.851 -1.0659 -1.2776  0.3041
  841MOL0     H13475   9.329   8.806   8.916  1.8658 -1.6998  3.7027
  841MOL0     H13476   9.325   8.978   8.817 -0.8459  0.6668  0.0298
  841MOL0     H13477   9.497   8.993   8.756 -0.7077 -0.2912 -1.1913
  841MOL0     H13478   9.365   8.940   8.567  1.8259  0.4367  0.1385
  841MOL0     H13479   9.460   8.790   8.604  0.8935  0.3571 -0.2559
  841MOL0     H13480   9.278   8.692   8.719 -1.4126 -0.9148 -0.7518
  841MOL0     H13481   9.188   8.840   8.682  0.8912 -0.1379 -0.0151
  841MOL0     H13482   9.108   8.699   8.516  0.0037  0.9920 -1.7792
  841MOL0     H13483   9.251   8.764   8.433 -1.6615 -1.6784 -1.2145
  841MOL0     H13484   9.247   8.509   8.417  0.2024 -0.8296  0.2933
  841MOL0     H13485   9.267   8.507   8.585 -1.2151 -0.7422 -2.1460
  841MOL0     H13486   9.445   8.648   8.268  1.3966  0.4961 -1.1805
  841MOL0     H13487   9.789   8.550   8.244 -1.7789 -0.4811 -0.7517
  841MOL0     H13488   9.656   8.637   8.170 -0.9231 -1.1818  0.8912
  841MOL0     H13489   9.678   8.827   8.285  0.7495  0.5739 -2.0232
  841MOL0     H13490   9.813   8.803   8.183  0.5713 -0.6726  0.3738
  841MOL0     H13491   9.943   8.716   8.385  0.3044  0.6068 -1.0700
  841MOL0     H13492   9.802   8.748   8.488 -2.8666 -0.7458 -1.4487
  841MOL0     H13493   9.910   8.973   8.315  0.2749 -0.9129 -0.1758
  841MOL0     H13494  10.002   8.921   8.458 -0.9008 -1.1085  2.0367
  841MOL0     H13495   9.712   9.144   8.661  0.2346 -1.2351 -2.7217
  841MOL0     H13496   9.855   9.401   8.865  0.2814  1.4430 -0.9508
  841MOL0     H13497   9.720   9.465   8.760 -2.4872 -1.9250 -1.9726
  841MOL0     H13498   9.717   9.302   8.829 -2.3698 -0.1778 -3.1070
  841MOL0     H13499  10.062   9.783   8.695  0.4078 -3.6220 -1.1673
  841MOL0     H13500  10.237   9.960   8.732  1.3763 -1.8617 -0.2319
  841MOL0     H13501  10.301  10.157   8.644  0.6828  0.9674  1.1585
  841MOL0     H13502  10.448  10.124   8.744  2.7754  0.6441 -0.6490
  841MOL0     H13503  10.589  10.234   8.584 -0.1356 -3.5629  0.4494
  841MOL0     H13504  10.473  10.214   8.458  1.0713 -1.9816  0.4010
  841MOL0     H13505  10.463  10.416   8.683 -0.8651  2.0840 -1.5616
  841MOL0     H13506  10.335  10.395   8.569 -0.1309  1.0581 -0.8245
  841MOL0     H13507  10.523  10.460   8.385  0.0631  0.5509 -0.9398
  841MOL0     H13508  10.486  10.565   8.518  0.6885 -0.7758  1.8623
  841MOL0     H13509  10.721  10.366   8.526 -2.8949 -1.0615  1.1771
  841MOL0     H13510  10.684  10.503   8.642 -0.3510  1.9556 -0.7011
  841MOL0     H13511  10.768  10.542   8.359  0.0763  0.2512  0.1400
  841MOL0     H13512  10.717  10.673   8.455  0.0903 -0.0897 -2.5150
  841MOL0     H13513  10.945  10.471   8.533  0.1707 -0.2712 -0.9486
  841MOL0     H13514  10.921  10.627   8.614  4.1862 -0.5397  0.8718
  841MOL0     H13515  11.124  10.621   8.475 -0.9812 -0.3901  1.5666
  841MOL0     H13516  11.011  10.746   8.444  2.5876  0.9734 -1.8435
  841MOL0     H13517  10.475   9.795   8.431 -0.5679  0.5805 -0.5827
  841MOL0     H13518  10.322   9.602   8.420 -1.7725 -0.0754 -0.0776
  841MOL0     H13519  10.096   9.358   8.436  0.5405  0.4352  0.4241
  841MOL0     H13520  10.045   9.152   8.389 -1.1169 -1.9166 -0.9640
  841MOL0     H13521   9.488   8.579   9.311 -1.1472  2.3837 -0.4423
  841MOL0     H13522   9.563   8.455   9.483  1.1827 -1.9618 -3.8788
  841MOL0     H13523   9.721   8.341   9.847 -0.9802  2.2554  0.1092
  841MOL0     H13524   9.753   8.212  10.050  2.8758 -2.7456  0.0890
  841MOL0     H13525  10.133   8.287  10.234  1.9265 -1.1436  1.5541
  841MOL0     H13526  10.044   8.365  10.367 -3.4702  1.4448 -0.5039
  841MOL0     H13527   9.981   8.127  10.455 -1.4603 -0.8646 -0.9706
  841MOL0     H13528  10.142   8.199  10.473 -0.0221  3.3323 -3.0293
  841MOL0     H13529  10.222   8.006  10.383 -0.2898 -0.2932  0.0895
  841MOL0     H13530  10.173   8.082  10.233 -1.2265 -1.0297 -0.5294
  841MOL0     H13531  10.058   7.871  10.204 -1.2069 -2.8444  1.5657
  841MOL0     H13532   9.937   7.982  10.267  0.4812  1.6987  1.8741
  841MOL0     H13533  10.041   7.705  10.588  0.4319  0.1382 -0.7013
  841MOL0     H13534  10.061   8.488  10.161  3.3392  0.3466 -2.6700
  841MOL0     H13535  10.008   8.623   9.976  0.6198 -0.7904  0.2007
  842MOL0     O13536  11.118  10.580   7.533 -0.0707 -0.2556 -0.2917
  842MOL0     C13537  11.075  10.607   7.645  0.1046 -0.5808 -0.2781
  842MOL0     O13538  10.960  10.549   7.703  0.5024 -0.9125  0.1606
  842MOL0     C13539  10.878  10.458   7.633  1.1762  0.2847  0.9719
  842MOL0     C13540  10.739  10.466   7.667 -0.1905 -0.4014  0.2314
  842MOL0     C13541  10.649  10.373   7.617  1.3153 -1.0444  0.4170
  842MOL0     C13542  10.681  10.272   7.525 -0.8847  0.4584 -0.1341
  842MOL0     O13543  10.612  10.171   7.466 -0.2624  0.1951 -0.5152
  842MOL0     C13544  10.468  10.183   7.470  0.1975 -0.8577 -0.2438
  842MOL0     C13545  10.399  10.071   7.386 -0.8231  0.4491  0.1087
  842MOL0     C13546  10.253  10.096   7.381  0.2119  0.3959 -0.4756
  842MOL0     C13547  10.176  10.101   7.515  1.1433 -0.3641 -0.1968
  842MOL0     C13548  10.029  10.080   7.498 -0.2101  0.9284 -0.7111
  842MOL0     C13549   9.979   9.934   7.486 -0.6799  0.3591 -0.9467
  842MOL0     C13550  10.005   9.832   7.600  0.3950 -0.2876  0.1098
  842MOL0     C13551   9.935   9.871   7.732  0.0600 -0.5879 -0.8435
  842MOL0     N13552   9.819   9.787   7.755 -0.0909  0.3134 -0.2710
  842MOL0     C13553   9.718   9.825   7.833  0.5453 -0.2064  0.5558
  842MOL0     C13554   9.671   9.704   7.888  0.0828 -0.6977  0.2067
  842MOL0     C13555   9.551   9.697   7.980 -0.7828 -0.0152 -0.2602
  842MOL0     C13556   9.431   9.661   7.897  0.9459 -0.2273 -0.1741
  842MOL0     C13557   9.307   9.634   7.988 -0.2341  0.9387 -0.4295
  842MOL0     C13558   9.181   9.578   7.918 -0.6128  0.1914  0.3847
  842MOL0     O13559   9.144   9.648   7.795  0.4706  0.0446  0.4413
  842MOL0     C13560   9.100   9.780   7.805  0.0011 -0.0033 -1.0247
  842MOL0     C13561   9.100   9.858   7.693  0.1396 -0.0257 -0.4240
  842MOL0     C13562   9.069   9.997   7.698  0.3800  0.5273  0.0753
  842MOL0     C13563   9.051  10.060   7.555 -0.0158  0.6034  0.1008
  842MOL0     C13564   9.028  10.054   7.824 -0.0439 -0.1975  0.1298
  842MOL0     C13565   8.971  10.194   7.855 -0.1921 -0.2973  0.3582
  842MOL0     O13566   8.980  10.244   7.978  0.2466  0.0659 -0.6232
  842MOL0     C13567   8.922  10.370   7.990 -0.5983 -0.7062  0.8015
  842MOL0     C13568   8.798  10.399   8.020 -0.3188  1.0482  1.1314
  842MOL0     C13569   8.748  10.527   8.022 -0.0477  0.7487  0.3506
  842MOL0     C13570   8.828  10.638   7.998 -0.7755 -0.5755 -0.0479
  842MOL0     O13571   8.775  10.758   8.007  0.7557 -0.2294 -0.8556
  842MOL0     C13572   8.851  10.871   7.969 -0.2519  0.2182  0.5372
  842MOL0     C13573   8.772  11.004   7.973 -0.9315  0.1671  0.0883
  842MOL0     C13574   8.719  11.036   8.112  0.3654 -0.5041 -0.1969
  842MOL0     C13575   8.642  11.176   8.108  0.3871 -0.3884 -0.4261
  842MOL0     C13576   8.511  11.177   8.039  0.0534  0.1338  0.9746
  842MOL0     C13577   8.408  11.088   8.112  0.4697  0.2172 -0.3364
  842MOL0     C13578   8.281  11.050   8.031 -0.1723 -0.8982  0.0934
  842MOL0     C13579   8.212  10.934   8.087 -0.2189  0.0107 -0.4505
  842MOL0    Cl13580   8.060  10.898   7.999  0.1483  0.3609 -0.0674
  842MOL0     C13581   8.963  10.608   7.976  0.8818 -0.5700 -0.7083
  842MOL0     C13582   9.009  10.481   7.977  0.2108  0.3397  0.0640
  842MOL0     O13583   8.933  10.252   7.753 -0.2077 -0.7367  0.4121
  842MOL0     C13584   9.023   9.966   7.936 -0.4496 -0.2011 -0.0123
  842MOL0     C13585   9.055   9.832   7.923 -0.7028 -0.8732 -0.6825
  842MOL0     N13586   9.737   9.604   7.833  0.0280 -0.4464 -0.4295
  842MOL0     N13587   9.842   9.650   7.775  0.2498 -0.8333 -0.5878
  842MOL0     C13588  10.817  10.267   7.487 -0.8777  0.1631  0.4066
  842MOL0     C13589  10.910  10.357   7.537 -1.6498 -1.0172 -0.4538
  842MOL0     C13590  11.140  10.710   7.731 -0.1473  0.4745 -0.8344
  842MOL0     C13591  11.237  10.801   7.679 -0.0430 -0.4988  1.0428
  842MOL0     C13592  11.310  10.889   7.763  0.5430 -0.7478  0.2583
  842MOL0     C13593  11.265  10.891   7.901 -0.2055 -0.4178 -0.9770
  842MOL0     O13594  11.330  10.975   7.985  0.6536  0.5302 -0.7107
  842MOL0     C13595  11.458  10.917   8.012  0.6218 -0.0911 -0.2270
  842MOL0     C13596  11.505  10.972   8.150  0.0643 -0.8442 -0.3569
  842MOL0     C13597  11.423  10.927   8.269 -0.0019 -0.6019  0.3247
  842MOL0     C13598  11.479  10.980   8.410  0.2732  0.2541  0.6938
  842MOL0     C13599  11.436  10.908   8.528 -0.2076  0.3941 -0.3336
  842MOL0     C13600  11.404  10.848   8.630  0.2318  0.1909  0.6474
  842MOL0     C13601  11.175  10.803   7.950  0.0355  0.0422  0.2012
  842MOL0     C13602  11.119  10.710   7.869  0.3208 -0.3531 -0.6680
  842MOL0     H13603  10.712  10.535   7.746 -0.1681  0.8587 -0.8126
  842MOL0     H13604  10.543  10.382   7.642  0.3052 -1.9800 -3.0064
  842MOL0     H13605  10.434  10.172   7.574  3.1876 -1.5084  0.7717
  842MOL0     H13606  10.440  10.280   7.428 -2.6247 -0.7145  1.6464
  842MOL0     H13607  10.436  10.083   7.283 -2.9161  1.1105 -0.6228
  842MOL0     H13608  10.416   9.972   7.429 -0.5075  0.3322 -0.2662
  842MOL0     H13609  10.230  10.173   7.307 -1.5946  0.9128  0.5539
  842MOL0     H13610  10.208  10.009   7.332  1.2084 -0.5592  0.2657
  842MOL0     H13611  10.228  10.031   7.580  1.2352 -0.5346 -0.4495
  842MOL0     H13612  10.195  10.200   7.559  2.3906  0.1593 -1.8251
  842MOL0     H13613   9.987  10.125   7.589 -0.3908 -2.3649  1.0008
  842MOL0     H13614  10.006  10.131   7.404  4.4164  0.7132 -2.2379
  842MOL0     H13615   9.872   9.942   7.469 -1.1291 -2.0493  0.3818
  842MOL0     H13616  10.027   9.886   7.401  2.9326 -0.3080  1.2358
  842MOL0     H13617   9.956   9.741   7.563  1.0864 -0.1009 -1.3247
  842MOL0     H13618  10.113   9.820   7.611  1.1159  3.7818 -1.0118
  842MOL0     H13619   9.917   9.979   7.746  5.3284  0.5597 -0.8575
  842MOL0     H13620  10.004   9.850   7.814 -0.7366 -0.6913 -0.1832
  842MOL0     H13621   9.683   9.927   7.843  1.4897  0.0623  1.3449
  842MOL0     H13622   9.564   9.616   8.053 -1.8493 -0.6345 -0.7348
  842MOL0     H13623   9.533   9.789   8.036  0.5285 -0.9501  1.8326
  842MOL0     H13624   9.444   9.580   7.825 -0.4812  0.4026 -1.1770
  842MOL0     H13625   9.409   9.751   7.839 -1.8915 -0.1887  0.8295
  842MOL0     H13626   9.273   9.728   8.034  0.5261  1.5466 -1.0832
  842MOL0     H13627   9.331   9.564   8.069  0.3298 -0.9883 -2.1939
  842MOL0     H13628   9.098   9.559   7.987 -1.8445 -2.5452 -1.6509
  842MOL0     H13629   9.199   9.472   7.897  0.4133  0.3054  0.6606
  842MOL0     H13630   9.124   9.813   7.598 -1.3191 -2.5502  0.3075
  842MOL0     H13631   9.071   9.993   7.471 -1.3565 -3.0337  2.4435
  842MOL0     H13632   8.952  10.106   7.550  0.1453  0.7986 -2.6567
  842MOL0     H13633   9.121  10.143   7.540  2.8794 -2.0536 -2.6161
  842MOL0     H13634   8.731  10.315   8.036 -1.9818  1.4928 -2.4478
  842MOL0     H13635   8.645  10.545   8.052  0.8953  1.8355  3.3753
  842MOL0     H13636   8.932  10.881   8.042 -1.0384 -2.6462  1.9237
  842MOL0     H13637   8.878  10.851   7.865 -1.7976  2.6149 -0.4246
  842MOL0     H13638   8.835  11.085   7.936  0.1201 -0.4874  0.3855
  842MOL0     H13639   8.686  10.986   7.908 -2.1705 -1.2349  2.0107
  842MOL0     H13640   8.796  11.043   8.190 -2.1467 -2.7387  2.7588
  842MOL0     H13641   8.656  10.955   8.148 -0.2753  0.2284  0.3540
  842MOL0     H13642   8.636  11.223   8.207  2.8956 -1.9691  0.5675
  842MOL0     H13643   8.696  11.242   8.040  0.3516 -1.4980 -1.5613
  842MOL0     H13644   8.528  11.145   7.935  0.9029  2.2864  0.4017
  842MOL0     H13645   8.484  11.282   8.024  2.1510  0.5453 -0.3607
  842MOL0     H13646   8.457  10.994   8.141 -2.5352 -1.3013  0.1687
  842MOL0     H13647   8.383  11.137   8.207  0.3495  1.8850 -1.1937
  842MOL0     H13648   8.305  11.036   7.926 -0.1730 -2.5053  0.2874
  842MOL0     H13649   8.231  11.147   8.031  1.8197  0.2036 -1.4498
  842MOL0     H13650   8.186  10.947   8.193 -3.0675 -2.8922 -0.6455
  842MOL0     H13651   8.281  10.849   8.080 -1.4041 -0.8623 -2.0911
  842MOL0     H13652   9.042  10.681   7.962  2.1838 -1.4786  1.4118
  842MOL0     H13653   9.114  10.483   7.951  0.5453 -5.3957 -0.2891
  842MOL0     H13654   8.974  10.007   8.024 -1.7790 -2.8937  0.6149
  842MOL0     H13655   9.047   9.766   8.009  1.1530 -2.2716 -1.5063
  842MOL0     H13656  10.846  10.189   7.418 -1.0837 -2.3861  2.9965
  842MOL0     H13657  11.012  10.354   7.502 -1.0760  0.6336  0.9469
  842MOL0     H13658  11.259  10.803   7.573 -0.4616  1.4541  0.9461
  842MOL0     H13659  11.400  10.945   7.740  2.0539 -0.7141  5.0151
  842MOL0     H13660  11.453  10.809   8.029  1.3407  0.0048  0.7019
  842MOL0     H13661  11.532  10.934   7.934 -0.8304 -4.9311 -3.0767
  842MOL0     H13662  11.507  11.081   8.147 -2.7039 -0.7045  0.6543
  842MOL0     H13663  11.605  10.929   8.164  1.2468  2.1727  1.3296
  842MOL0     H13664  11.414  10.818   8.264 -0.5137 -0.5157 -0.8720
  842MOL0     H13665  11.324  10.969   8.249  0.8603  1.1267 -0.4837
  842MOL0     H13666  11.435  11.080   8.408 -0.2593  0.0185  0.2874
  842MOL0     H13667  11.587  10.985   8.427  0.3695  3.3016 -0.2575
  842MOL0     H13668  11.367  10.790   8.712 -0.6898 -2.0661 -1.2513
  842MOL0     H13669  11.144  10.796   8.053  1.3682  0.3974  0.6507
  842MOL0     H13670  11.053  10.637   7.916 -0.0511  0.6821  0.4660
  843MOL0     O13671   6.243   6.163   8.505  1.0678  0.5986 -0.4879
  843MOL0     C13672   6.263   6.248   8.414  0.5106  0.0857  0.4820
  843MOL0     O13673   6.359   6.351   8.423  0.1393 -0.0651 -0.4852
  843MOL0     C13674   6.411   6.395   8.545 -0.2910 -0.0031  0.5702
  843MOL0     C13675   6.323   6.388   8.659  0.5111 -0.5163  0.5274
  843MOL0     C13676   6.352   6.450   8.782 -0.0622  0.0311 -0.1206
  843MOL0     C13677   6.472   6.521   8.788  0.6698 -0.0505  0.1277
  843MOL0     O13678   6.503   6.564   8.916 -0.3674 -0.0670  0.0796
  843MOL0     C13679   6.618   6.646   8.931 -0.5049 -0.1263 -1.0096
  843MOL0     C13680   6.631   6.698   9.082 -0.5036 -0.1707  0.7068
  843MOL0     C13681   6.652   6.584   9.173  0.5022 -0.6533  0.3341
  843MOL0     C13682   6.658   6.633   9.318 -0.2104 -0.1014  0.0144
  843MOL0     C13683   6.724   6.543   9.423 -0.3345  0.2231 -0.1720
  843MOL0     C13684   6.884   6.524   9.429  0.2172  0.0379 -0.3180
  843MOL0     C13685   6.911   6.404   9.535 -0.0841 -0.7343 -0.6176
  843MOL0     C13686   7.051   6.353   9.507  0.7104 -0.5026 -0.4083
  843MOL0     N13687   7.163   6.439   9.538  0.4519  0.7516 -0.0939
  843MOL0     C13688   7.211   6.468   9.660 -0.0927 -0.3646  0.2594
  843MOL0     C13689   7.290   6.580   9.659  0.7530 -0.4644  1.3019
  843MOL0     C13690   7.367   6.662   9.757  0.8004  0.6943 -0.8862
  843MOL0     C13691   7.286   6.688   9.888 -0.1813  0.9679 -0.0196
  843MOL0     C13692   7.154   6.756   9.855 -0.5274  0.1801  0.2333
  843MOL0     C13693   7.055   6.742   9.956  0.1273 -0.2823 -0.2096
  843MOL0     O13694   7.103   6.793  10.082 -0.0956 -0.3332 -0.3908
  843MOL0     C13695   7.114   6.937  10.095  0.2173  1.1167 -0.2612
  843MOL0     C13696   7.080   7.033  10.001  0.5738 -0.0046 -0.9901
  843MOL0     C13697   7.095   7.168  10.032  0.1337 -0.9153  0.1916
  843MOL0     C13698   7.056   7.258   9.913  0.1156 -0.1244  0.0410
  843MOL0     C13699   7.151   7.217  10.157  0.7032  0.0148  0.2643
  843MOL0     C13700   7.147   7.360  10.203  0.0660  0.0474  0.3487
  843MOL0     O13701   7.036   7.428  10.172  0.2196 -0.2946 -0.0680
  843MOL0     C13702   7.019   7.555  10.217 -0.7460 -0.6993 -0.2335
  843MOL0     C13703   7.008   7.579  10.354 -0.6273  0.1886 -0.4580
  843MOL0     C13704   6.993   7.716  10.401  1.2677 -0.0076  0.5315
  843MOL0     C13705   6.987   7.821  10.305 -0.9763  0.3539 -1.5037
  843MOL0     O13706   6.975   7.960  10.331 -0.2465  0.7848  1.2992
  843MOL0     C13707   6.992   8.017  10.457  0.7794 -0.5538  0.4668
  843MOL0     C13708   6.877   8.015  10.551  0.8036 -0.0346  0.3226
  843MOL0     C13709   6.744   8.034  10.482 -0.7416 -0.6578 -0.9224
  843MOL0     C13710   6.634   8.020  10.585  0.2471  0.1295 -1.0183
  843MOL0     C13711   6.497   8.077  10.542  0.4645  0.3143  0.1943
  843MOL0     C13712   6.486   8.226  10.538 -1.0135 -1.1566  0.3558
  843MOL0     C13713   6.498   8.292  10.679 -0.3704 -0.3053 -0.1778
  843MOL0     C13714   6.407   8.415  10.681 -0.1849 -0.0711  0.0959
  843MOL0    Cl13715   6.465   8.504  10.823 -0.4151 -0.1009 -0.0209
  843MOL0     C13716   6.992   7.788  10.171  0.5203 -0.1574  0.2070
  843MOL0     C13717   6.993   7.658  10.129  0.1975  0.2620  0.3106
  843MOL0     O13718   7.234   7.394  10.282  0.0087 -1.1159  0.1683
  843MOL0     C13719   7.203   7.115  10.239 -0.3744 -0.3558  0.3755
  843MOL0     C13720   7.181   6.981  10.209 -0.0787  0.4554  0.5541
  843MOL0     N13721   7.279   6.623   9.526  0.7438 -0.5733  0.3598
  843MOL0     N13722   7.206   6.539   9.456 -0.5842 -0.4891  0.2779
  843MOL0     C13723   6.554   6.528   8.668  0.0228 -0.0893 -0.5035
  843MOL0     C13724   6.525   6.476   8.541 -0.3102  0.0960  0.2991
  843MOL0     C13725   6.171   6.250   8.298 -0.7344 -0.9316  0.6296
  843MOL0     C13726   6.042   6.208   8.303  0.5855 -0.3163 -0.1733
  843MOL0     C13727   5.951   6.218   8.192  0.4375 -0.2969  0.9149
  843MOL0     C13728   6.007   6.254   8.066 -0.0559 -0.1794  0.9508
  843MOL0     O13729   5.917   6.243   7.959 -0.2614  0.1106 -0.4066
  843MOL0     C13730   5.948   6.276   7.820  0.6915 -0.0928 -0.1375
  843MOL0     C13731   5.827   6.282   7.745  0.4753  0.3401 -0.5634
  843MOL0     C13732   5.877   6.294   7.605  0.7659  0.4618 -0.7677
  843MOL0     C13733   5.767   6.322   7.503 -0.2889  0.3197 -0.6847
  843MOL0     C13734   5.721   6.465   7.504 -0.7128  0.8382 -0.0988
  843MOL0     C13735   5.677   6.579   7.488  0.3772  0.3162 -1.0477
  843MOL0     C13736   6.139   6.300   8.062  0.6532 -0.4611 -0.0118
  843MOL0     C13737   6.226   6.298   8.168 -0.2352 -0.9495  0.0598
  843MOL0     H13738   6.224   6.343   8.654 -0.4297  1.5468 -0.9556
  843MOL0     H13739   6.305   6.435   8.878  1.9881 -3.1091  0.5591
  843MOL0     H13740   6.704   6.589   8.895 -1.1004 -0.1189 -2.5249
  843MOL0     H13741   6.608   6.732   8.864 -1.1935  2.5872  2.2725
  843MOL0     H13742   6.705   6.776   9.098 -1.2748  1.2470 -2.0497
  843MOL0     H13743   6.533   6.745   9.098  0.1571  0.8323  1.9487
  843MOL0     H13744   6.560   6.525   9.166 -0.5577  1.0892 -1.2862
  843MOL0     H13745   6.735   6.515   9.151 -1.7586 -2.7356 -2.2847
  843MOL0     H13746   6.717   6.725   9.315 -0.6915  0.2095 -0.0172
  843MOL0     H13747   6.564   6.670   9.358  0.1879  0.9950 -0.0284
  843MOL0     H13748   6.691   6.566   9.525 -2.2665 -1.1410 -0.4291
  843MOL0     H13749   6.684   6.444   9.398 -0.9565 -0.1266  1.9594
  843MOL0     H13750   6.912   6.497   9.327 -4.9324  0.5246 -2.1370
  843MOL0     H13751   6.937   6.615   9.460 -1.4904  1.3386 -1.0427
  843MOL0     H13752   6.907   6.445   9.636 -1.7489 -2.0741 -0.1101
  843MOL0     H13753   6.842   6.320   9.523 -2.3202  0.7759  1.0133
  843MOL0     H13754   7.062   6.355   9.398  5.0030  2.6546 -0.1957
  843MOL0     H13755   7.059   6.254   9.552  0.6257  0.4004  1.7050
  843MOL0     H13756   7.211   6.399   9.744  0.4783 -0.8948 -0.1705
  843MOL0     H13757   7.446   6.596   9.793 -2.4111 -2.0005  1.8793
  843MOL0     H13758   7.404   6.752   9.707 -0.3000 -0.4620 -4.0543
  843MOL0     H13759   7.345   6.738   9.965  2.4120  0.1404 -1.3768
  843MOL0     H13760   7.273   6.591   9.937  0.8745  1.2578  0.8740
  843MOL0     H13761   7.121   6.705   9.764  1.5658 -0.1763 -0.3834
  843MOL0     H13762   7.171   6.863   9.835  0.9419 -0.0848 -0.0590
  843MOL0     H13763   7.022   6.638   9.969 -0.9423  0.3787  3.6609
  843MOL0     H13764   6.959   6.786   9.926 -0.7507 -0.3691  2.2661
  843MOL0     H13765   7.029   7.010   9.908  0.0528 -2.3013 -0.2041
  843MOL0     H13766   6.955   7.295   9.933  0.5926  2.5523 -1.9634
  843MOL0     H13767   7.123   7.344   9.912 -1.2646  0.9952 -1.2155
  843MOL0     H13768   7.063   7.200   9.820 -1.2907  0.5655 -0.5243
  843MOL0     H13769   7.019   7.495  10.421  2.8135 -0.9455 -2.2484
  843MOL0     H13770   6.977   7.740  10.505 -2.6535 -0.8458  0.2766
  843MOL0     H13771   7.078   7.964  10.500  1.8578  1.0275  0.3127
  843MOL0     H13772   7.020   8.122  10.447 -0.1024 -0.4822 -1.6656
  843MOL0     H13773   6.879   7.920  10.604  1.0245 -2.5258 -3.7537
  843MOL0     H13774   6.897   8.100  10.616 -0.4783  2.3238 -2.1336
  843MOL0     H13775   6.732   7.947  10.416  2.0472 -0.0699 -2.3393
  843MOL0     H13776   6.742   8.132  10.434  1.4263 -0.4447 -0.6876
  843MOL0     H13777   6.619   7.912  10.599  0.6520 -0.1370 -2.4436
  843MOL0     H13778   6.673   8.064  10.677  2.0254 -0.1710 -1.5864
  843MOL0     H13779   6.414   8.047  10.606 -2.1852  2.4549 -1.9883
  843MOL0     H13780   6.470   8.035  10.445 -2.9210 -1.0262  1.5498
  843MOL0     H13781   6.568   8.258  10.474 -1.1721  0.9000  1.1206
  843MOL0     H13782   6.394   8.244  10.481  0.4991  0.7824 -1.6268
  843MOL0     H13783   6.599   8.319  10.708 -0.7777  1.2448 -0.1254
  843MOL0     H13784   6.469   8.216  10.753  1.4439 -0.5878  0.2787
  843MOL0     H13785   6.302   8.385  10.690  0.1744 -0.7786  2.8454
  843MOL0     H13786   6.424   8.477  10.592  2.0636 -0.0915  0.4679
  843MOL0     H13787   6.967   7.872  10.108 -1.3692 -0.7165  0.1133
  843MOL0     H13788   6.969   7.637  10.025 -1.9115 -0.2551  0.8629
  843MOL0     H13789   7.259   7.138  10.329  2.8822 -0.2298 -1.5633
  843MOL0     H13790   7.214   6.903  10.277  1.3522 -0.0733 -0.6784
  843MOL0     H13791   6.646   6.583   8.677 -0.6401  1.1734 -1.1817
  843MOL0     H13792   6.591   6.485   8.455  0.2597 -3.1900  0.2603
  843MOL0     H13793   6.014   6.149   8.390  1.1043  0.8717  0.8276
  843MOL0     H13794   5.847   6.184   8.194  0.1446  0.5949  2.1470
  843MOL0     H13795   6.012   6.364   7.813  2.2942 -1.2960 -1.5004
  843MOL0     H13796   6.013   6.196   7.783  2.9966  1.3539  0.5617
  843MOL0     H13797   5.790   6.379   7.779 -1.4761 -0.3276 -0.6372
  843MOL0     H13798   5.752   6.203   7.752  0.8994  0.0017  0.4453
  843MOL0     H13799   5.927   6.200   7.580  0.6433 -0.0325  0.7687
  843MOL0     H13800   5.961   6.363   7.591  0.7455  0.5547 -0.4296
  843MOL0     H13801   5.677   6.265   7.527 -1.2500  1.5591 -1.2035
  843MOL0     H13802   5.795   6.302   7.399  2.8105  1.5049 -0.1728
  843MOL0     H13803   5.617   6.665   7.468 -1.6695 -1.0000 -0.9570
  843MOL0     H13804   6.183   6.345   7.974  3.5931  0.2456  1.6614
  843MOL0     H13805   6.329   6.325   8.144 -0.0484 -0.8895  0.8932
  844MOL0     O13806   7.250   4.059   6.582 -0.6430  0.1867  0.1033
  844MOL0     C13807   7.324   4.104   6.498 -0.9495  0.2350 -0.5251
  844MOL0     O13808   7.382   4.232   6.499  0.9720 -0.1126  0.3840
  844MOL0     C13809   7.352   4.313   6.609  0.4823 -0.4972  0.3406
  844MOL0     C13810   7.385   4.289   6.738 -0.8244  0.0573 -0.5405
  844MOL0     C13811   7.372   4.374   6.841 -0.4823 -0.6309 -0.4790
  844MOL0     C13812   7.325   4.502   6.814  0.2428  0.2165  0.1095
  844MOL0     O13813   7.310   4.597   6.910 -0.5500 -0.1843  0.4664
  844MOL0     C13814   7.336   4.559   7.050  0.4452  0.3108 -0.3322
  844MOL0     C13815   7.317   4.686   7.133  0.1078  0.4811  0.3601
  844MOL0     C13816   7.353   4.659   7.281 -0.6194 -0.3948 -0.5513
  844MOL0     C13817   7.344   4.798   7.358  0.4020 -0.3493  0.4519
  844MOL0     C13818   7.393   4.791   7.503  0.2333 -0.4605 -0.1211
  844MOL0     C13819   7.292   4.700   7.590 -0.6904  0.5506 -0.2649
  844MOL0     C13820   7.150   4.753   7.620 -0.2104 -0.7053 -0.1119
  844MOL0     C13821   7.143   4.905   7.666  0.0445 -0.4233  0.1222
  844MOL0     N13822   7.167   4.921   7.803  0.6808 -0.3535 -0.3875
  844MOL0     C13823   7.285   4.899   7.867 -0.2754 -0.1247 -0.0902
  844MOL0     C13824   7.263   4.918   7.997  0.9954  0.8054 -0.4633
  844MOL0     C13825   7.360   4.877   8.105  0.5107 -0.6534 -0.5840
  844MOL0     C13826   7.306   4.764   8.197  0.5617 -0.4651  0.5819
  844MOL0     C13827   7.277   4.639   8.110  0.5199  0.1690 -0.4600
  844MOL0     C13828   7.145   4.572   8.154 -0.9399  0.8818 -0.0343
  844MOL0     O13829   7.114   4.459   8.069  0.0731  0.3848  0.1962
  844MOL0     C13830   7.030   4.359   8.109  0.2474 -0.0252 -0.6230
  844MOL0     C13831   7.067   4.240   8.062 -0.2342  0.4935  0.4593
  844MOL0     C13832   7.001   4.123   8.105  0.4076 -0.0328 -0.6989
  844MOL0     C13833   7.062   3.997   8.056  0.8790 -0.6390  0.5262
  844MOL0     C13834   6.893   4.132   8.186  0.3368  0.3429  0.0540
  844MOL0     C13835   6.814   4.008   8.232  0.2773 -0.4930 -0.0658
  844MOL0     O13836   6.785   3.916   8.133  0.8633  0.2561 -0.1432
  844MOL0     C13837   6.686   3.831   8.150 -0.4981  1.4049 -0.3211
  844MOL0     C13838   6.552   3.873   8.113 -0.8861 -0.5790  0.1312
  844MOL0     C13839   6.446   3.788   8.137  0.1650 -0.5130 -0.4721
  844MOL0     C13840   6.460   3.667   8.199  0.7805  0.0698  0.3813
  844MOL0     O13841   6.342   3.599   8.236 -0.1409  0.1281 -0.0985
  844MOL0     C13842   6.353   3.461   8.196 -0.1614  0.2304  0.3929
  844MOL0     C13843   6.210   3.400   8.198 -0.7088  0.6966  0.5621
  844MOL0     C13844   6.237   3.244   8.156  0.6911  0.1679 -0.2977
  844MOL0     C13845   6.326   3.159   8.254 -0.6353  0.3462  0.4406
  844MOL0     C13846   6.314   3.004   8.223  1.6613  0.4280  0.0196
  844MOL0     C13847   6.384   2.945   8.098 -0.0899  0.3877 -0.3195
  844MOL0     C13848   6.419   2.791   8.132 -0.3909 -0.2250 -0.1863
  844MOL0     C13849   6.546   2.761   8.052 -0.4384  0.2302  0.5591
  844MOL0    Cl13850   6.614   2.614   8.091 -0.4039 -0.0985 -0.2643
  844MOL0     C13851   6.587   3.627   8.235  0.3848  0.1354 -0.5726
  844MOL0     C13852   6.701   3.703   8.214 -0.4807  0.5043 -0.0306
  844MOL0     O13853   6.772   4.010   8.352  0.5162  0.2787  0.2622
  844MOL0     C13854   6.849   4.261   8.238  0.1391  0.5409 -0.9255
  844MOL0     C13855   6.922   4.375   8.194  0.5900  0.2786 -0.2337
  844MOL0     N13856   7.133   4.959   8.013  0.0872 -0.0540 -0.0537
  844MOL0     N13857   7.069   4.963   7.897 -0.9075 -0.1259 -0.3147
  844MOL0     C13858   7.282   4.531   6.682  0.2506 -0.2110 -0.0890
  844MOL0     C13859   7.302   4.448   6.578 -0.6133  0.7788  0.5838
  844MOL0     C13860   7.349   4.020   6.378 -0.7699  0.3376  0.3356
  844MOL0     C13861   7.284   3.895   6.360 -0.1906  0.6100  0.3539
  844MOL0     C13862   7.293   3.838   6.238 -0.6315 -0.1955 -0.6636
  844MOL0     C13863   7.377   3.890   6.136  0.4355 -0.3630 -0.3793
  844MOL0     O13864   7.407   3.835   6.016 -0.4024  0.0079 -0.8153
  844MOL0     C13865   7.329   3.717   5.980  0.3908 -0.0827 -0.4973
  844MOL0     C13866   7.405   3.627   5.876  1.1601 -0.1717 -0.3044
  844MOL0     C13867   7.555   3.610   5.890  0.5754 -0.5578 -0.6117
  844MOL0     C13868   7.631   3.535   5.785 -0.3797 -0.3736 -0.3966
  844MOL0     C13869   7.636   3.601   5.650 -0.4806 -0.1626  0.0388
  844MOL0     C13870   7.656   3.634   5.536  0.3740 -1.0179  0.3399
  844MOL0     C13871   7.451   4.007   6.155 -0.2462  0.0502  0.1147
  844MOL0     C13872   7.431   4.076   6.273 -0.1388  0.6851 -0.0262
  844MOL0     H13873   7.438   4.200   6.769 -0.7778  0.7871  1.6108
  844MOL0     H13874   7.402   4.353   6.943  0.4862  0.8365 -0.4417
  844MOL0     H13875   7.261   4.487   7.085  0.3274  0.6317  0.0862
  844MOL0     H13876   7.434   4.514   7.068 -0.7586 -2.6215 -0.6084
  844MOL0     H13877   7.395   4.752   7.092  1.1100 -0.1642  1.1996
  844MOL0     H13878   7.219   4.732   7.116 -0.3842 -0.6791  0.0001
  844MOL0     H13879   7.300   4.575   7.327  1.9579 -1.9189 -0.1323
  844MOL0     H13880   7.456   4.620   7.286 -0.8502 -1.1358 -1.2894
  844MOL0     H13881   7.409   4.869   7.306 -0.2830  0.7948  1.1035
  844MOL0     H13882   7.244   4.842   7.352  0.8971  0.6304 -3.1282
  844MOL0     H13883   7.493   4.748   7.501  0.2250 -0.4604 -0.7651
  844MOL0     H13884   7.389   4.898   7.527 -0.8282 -0.3249 -0.8178
  844MOL0     H13885   7.285   4.603   7.539 -0.4756  1.5072 -2.2208
  844MOL0     H13886   7.347   4.678   7.681  1.4768  0.4906 -1.5178
  844MOL0     H13887   7.078   4.733   7.539 -1.2373 -1.0267  0.8511
  844MOL0     H13888   7.106   4.689   7.698  0.9626  0.0343  1.1859
  844MOL0     H13889   7.037   4.931   7.660 -0.7154 -2.8668  1.6072
  844MOL0     H13890   7.203   4.974   7.606 -0.1192 -0.1204  0.3088
  844MOL0     H13891   7.379   4.873   7.818 -0.9624 -0.6095 -1.1865
  844MOL0     H13892   7.454   4.853   8.054  0.0344  1.3698 -2.5919
  844MOL0     H13893   7.391   4.964   8.164  2.7311  0.5933 -3.3687
  844MOL0     H13894   7.211   4.788   8.245 -0.5687  0.9361 -2.1282
  844MOL0     H13895   7.380   4.729   8.270  1.6500  1.7919  0.6225
  844MOL0     H13896   7.363   4.573   8.127  0.4223  0.5919  2.0689
  844MOL0     H13897   7.272   4.661   8.003 -0.6929 -0.0993 -0.4717
  844MOL0     H13898   7.058   4.637   8.143 -0.6604  0.8966 -2.7154
  844MOL0     H13899   7.149   4.544   8.260  3.3700 -1.0441 -0.5266
  844MOL0     H13900   7.154   4.242   7.998  1.2774  1.9281  2.4071
  844MOL0     H13901   7.170   3.992   8.070  0.9998 -0.1571 -0.2085
  844MOL0     H13902   7.037   3.913   8.123 -2.5951  1.1668  1.7479
  844MOL0     H13903   7.032   3.977   7.953  3.3674 -1.4173 -0.1266
  844MOL0     H13904   6.548   3.974   8.074  2.4354 -0.4691 -0.2105
  844MOL0     H13905   6.347   3.830   8.121  1.1634  1.9835 -0.5643
  844MOL0     H13906   6.388   3.446   8.094  1.2294  2.9617  0.3724
  844MOL0     H13907   6.420   3.415   8.269  0.4308  1.9623  0.9809
  844MOL0     H13908   6.182   3.407   8.304  5.2756  3.1905  2.3985
  844MOL0     H13909   6.139   3.445   8.128  0.8185  0.1678 -1.3898
  844MOL0     H13910   6.271   3.236   8.053 -2.7404 -2.2768 -1.4411
  844MOL0     H13911   6.149   3.180   8.141  0.8776  0.1018 -1.1684
  844MOL0     H13912   6.431   3.189   8.255 -1.1473  2.3080  1.3225
  844MOL0     H13913   6.301   3.170   8.360  4.3592 -3.0704  2.3371
  844MOL0     H13914   6.208   2.978   8.223  1.3679  1.2167 -2.9383
  844MOL0     H13915   6.353   2.948   8.309 -1.8774 -1.8791  0.3160
  844MOL0     H13916   6.327   2.950   8.004  3.0669  1.5366 -2.3496
  844MOL0     H13917   6.472   3.002   8.066  0.4320 -1.3613 -2.3149
  844MOL0     H13918   6.334   2.732   8.097 -0.6266  1.7677 -3.4211
  844MOL0     H13919   6.457   2.779   8.234  0.4142 -0.0971 -0.4610
  844MOL0     H13920   6.618   2.843   8.059 -0.7285  0.9923 -3.2323
  844MOL0     H13921   6.518   2.749   7.947 -0.1829 -0.7338  0.5903
  844MOL0     H13922   6.589   3.543   8.304 -0.2758  3.2557  3.7170
  844MOL0     H13923   6.803   3.681   8.242 -1.7389 -3.1929  2.4044
  844MOL0     H13924   6.772   4.268   8.314  4.6088  0.7915  4.2400
  844MOL0     H13925   6.902   4.481   8.211  0.3540  0.7633 -3.1011
  844MOL0     H13926   7.233   4.626   6.662 -1.6783 -1.1738 -0.2582
  844MOL0     H13927   7.280   4.469   6.474  2.7267  1.7986 -0.0377
  844MOL0     H13928   7.226   3.865   6.447 -0.0295  0.9683  0.5873
  844MOL0     H13929   7.245   3.741   6.237 -0.2235 -0.5234  2.2636
  844MOL0     H13930   7.305   3.652   6.064 -0.1747  2.9237  1.8368
  844MOL0     H13931   7.236   3.756   5.936 -0.1856 -0.3620  0.4392
  844MOL0     H13932   7.383   3.668   5.777 -2.3776 -0.1743  0.3599
  844MOL0     H13933   7.356   3.529   5.877  2.4902 -0.8571  0.4375
  844MOL0     H13934   7.563   3.553   5.983 -3.4850  0.8635  0.8354
  844MOL0     H13935   7.594   3.710   5.911 -0.9826  0.0012 -0.2673
  844MOL0     H13936   7.586   3.436   5.789 -1.5627  0.1570  2.5554
  844MOL0     H13937   7.738   3.528   5.807 -0.8090 -0.8383  1.8953
  844MOL0     H13938   7.681   3.654   5.434 -0.1460  1.3894  0.6034
  844MOL0     H13939   7.524   4.042   6.082  1.5400  2.4446  2.8131
  844MOL0     H13940   7.473   4.176   6.284  0.8625  0.6912 -2.8894
  845MOL0     O13941   1.411   7.777   5.690 -0.5281 -0.0115 -1.1716
  845MOL0     C13942   1.474   7.695   5.761 -0.5765 -0.9626 -0.5912
  845MOL0     O13943   1.483   7.561   5.733 -0.4704 -0.8938  0.3783
  845MOL0     C13944   1.401   7.502   5.645  0.2887  0.1642 -1.2006
  845MOL0     C13945   1.440   7.374   5.597  0.2302 -0.3741  0.1782
  845MOL0     C13946   1.354   7.307   5.515 -0.5086  0.1282  1.1437
  845MOL0     C13947   1.224   7.356   5.480 -0.0651 -0.8989 -0.7746
  845MOL0     O13948   1.150   7.288   5.396  0.1159  0.0798  0.7540
  845MOL0     C13949   1.096   7.162   5.448  0.1233  0.0585  0.0177
  845MOL0     C13950   0.988   7.120   5.345 -0.3196  0.3811  0.5164
  845MOL0     C13951   0.912   6.994   5.387  0.0411  1.0055 -0.5505
  845MOL0     C13952   0.815   6.930   5.284 -0.7738 -0.0456  0.1740
  845MOL0     C13953   0.776   6.785   5.324  0.2895  0.0457  0.3517
  845MOL0     C13954   0.644   6.734   5.241 -0.4545  0.3271 -0.2170
  845MOL0     C13955   0.526   6.836   5.263 -0.7123  0.3033  0.8676
  845MOL0     C13956   0.396   6.782   5.212  0.2390 -0.1003  0.6443
  845MOL0     N13957   0.326   6.661   5.260  0.0872 -0.5082 -0.2992
  845MOL0     C13958   0.304   6.541   5.188 -0.7460  0.8013  0.0640
  845MOL0     C13959   0.232   6.466   5.275  0.5106  1.0006  0.4305
  845MOL0     C13960   0.160   6.330   5.255 -0.4496 -0.6432 -0.0796
  845MOL0     C13961   0.023   6.316   5.180 -0.2513 -0.8608 -0.8049
  845MOL0     C13962  -0.043   6.185   5.228  0.1820 -1.0087  0.8027
  845MOL0     C13963  -0.053   6.087   5.107 -0.3287 -0.5883 -0.2080
  845MOL0     O13964  -0.104   5.960   5.147  0.5020 -0.1412 -0.1883
  845MOL0     C13965  -0.243   5.939   5.163  0.8707  0.2901  0.5492
  845MOL0     C13966  -0.277   5.813   5.198  0.6174 -0.1984 -0.6249
  845MOL0     C13967  -0.406   5.773   5.222  0.8922  0.1741 -0.6106
  845MOL0     C13968  -0.445   5.622   5.230 -1.1335 -0.0405 -0.4131
  845MOL0     C13969  -0.507   5.864   5.213  0.8680  0.6752  0.5209
  845MOL0     C13970  -0.644   5.825   5.250 -0.3541  0.0892 -0.7129
  845MOL0     O13971  -0.682   5.845   5.381 -0.2472  1.0532  0.0417
  845MOL0     C13972  -0.813   5.823   5.405  0.0163 -0.1658  0.2036
  845MOL0     C13973  -0.860   5.701   5.459  0.8126 -0.4446 -1.0197
  845MOL0     C13974  -1.009   5.685   5.469  0.6564  0.1273  1.2592
  845MOL0     C13975  -1.099   5.782   5.425 -0.4718 -0.9685 -0.6721
  845MOL0     O13976  -1.236   5.764   5.422 -0.1236  0.1685 -0.3255
  845MOL0     C13977  -1.306   5.858   5.503  0.3385  0.9093 -0.9040
  845MOL0     C13978  -1.460   5.862   5.472 -0.0910  0.0647 -0.2654
  845MOL0     C13979  -1.510   5.754   5.380 -0.2211  0.7749 -0.1570
  845MOL0     C13980  -1.531   5.625   5.459  0.3610 -0.1669 -0.4045
  845MOL0     C13981  -1.586   5.510   5.375  1.4057  0.2934 -0.4123
  845MOL0     C13982  -1.479   5.471   5.279  0.1197  0.0503 -0.8953
  845MOL0     C13983  -1.522   5.360   5.189 -0.2787  0.4223 -0.3926
  845MOL0     C13984  -1.406   5.336   5.088  0.2405 -0.0845  0.3115
  845MOL0    Cl13985  -1.237   5.308   5.143 -0.0604 -0.2195  0.0281
  845MOL0     C13986  -1.037   5.902   5.372 -0.0774  0.2467 -0.6689
  845MOL0     C13987  -0.898   5.919   5.356 -0.4117  0.5522  0.2636
  845MOL0     O13988  -0.708   5.805   5.151  0.4453  0.1734 -0.9223
  845MOL0     C13989  -0.476   6.001   5.192 -0.0832 -0.0306 -0.0802
  845MOL0     C13990  -0.346   6.040   5.162  0.4253  0.2053  0.6690
  845MOL0     N13991   0.211   6.544   5.394 -0.4544  0.1761  1.0969
  845MOL0     N13992   0.270   6.657   5.383  0.9011  0.1411 -0.0190
  845MOL0     C13993   1.174   7.460   5.557  0.0813 -0.3967  0.0629
  845MOL0     C13994   1.267   7.541   5.636  0.5773  0.0891  0.5802
  845MOL0     C13995   1.534   7.743   5.889  0.5802 -0.5063  0.0771
  845MOL0     C13996   1.563   7.884   5.905  0.0833 -0.9510 -0.1684
  845MOL0     C13997   1.647   7.919   6.008  0.4173 -0.3059 -0.1228
  845MOL0     C13998   1.690   7.835   6.099  0.8995  0.2712 -0.0605
  845MOL0     O13999   1.779   7.877   6.190 -0.2553 -0.0542  0.3884
  845MOL0     C14000   1.868   7.791   6.247 -0.2140  0.0695  0.7700
  845MOL0     C14001   1.966   7.862   6.341 -1.5177  0.1163 -0.4388
  845MOL0     C14002   1.906   7.950   6.444 -0.2437 -0.0994 -0.1362
  845MOL0     C14003   1.991   7.983   6.564 -0.2950  0.0686  0.3068
  845MOL0     C14004   1.919   8.063   6.655  0.1883  0.7133  0.1170
  845MOL0     C14005   1.874   8.122   6.755  0.3649 -0.1879 -0.3981
  845MOL0     C14006   1.658   7.695   6.088  0.1409 -0.2356  0.2992
  845MOL0     C14007   1.585   7.647   5.977 -1.1280 -0.3965 -0.0810
  845MOL0     H14008   1.536   7.327   5.618 -0.2164 -0.8063  1.3111
  845MOL0     H14009   1.383   7.218   5.460  1.9835  0.0121  2.4869
  845MOL0     H14010   1.168   7.084   5.472 -2.5819 -3.2527 -1.7821
  845MOL0     H14011   1.049   7.187   5.544  2.9196  1.7965  1.0575
  845MOL0     H14012   0.906   7.191   5.338  0.1363  0.8143 -0.8012
  845MOL0     H14013   1.028   7.107   5.243 -1.4400  1.0701 -0.0310
  845MOL0     H14014   0.996   6.929   5.416  0.5734  2.1913  0.6839
  845MOL0     H14015   0.853   7.008   5.478  0.8194 -1.5179  0.4364
  845MOL0     H14016   0.731   7.000   5.277 -2.7493 -1.7328  3.9863
  845MOL0     H14017   0.853   6.925   5.182  0.2550 -1.7675  0.6053
  845MOL0     H14018   0.866   6.722   5.317 -0.0924 -0.3658 -1.5949
  845MOL0     H14019   0.760   6.786   5.432 -0.4113  0.6199  0.2439
  845MOL0     H14020   0.656   6.734   5.133  0.8516  1.5934 -0.0957
  845MOL0     H14021   0.621   6.634   5.278  1.3015  0.2946  0.9333
  845MOL0     H14022   0.527   6.874   5.366 -1.4226 -2.8351  2.1524
  845MOL0     H14023   0.543   6.923   5.200  0.1768 -0.8620 -0.5877
  845MOL0     H14024   0.427   6.760   5.109  0.8174 -1.3453  1.0623
  845MOL0     H14025   0.324   6.864   5.215  0.1966 -0.1441  0.8797
  845MOL0     H14026   0.345   6.507   5.093  1.3216 -2.2803  1.8861
  845MOL0     H14027   0.236   6.271   5.204  2.0915  0.6430  2.0152
  845MOL0     H14028   0.161   6.288   5.356 -1.8908 -1.4588 -0.3757
  845MOL0     H14029   0.040   6.304   5.073 -1.4916 -0.7813 -1.0268
  845MOL0     H14030  -0.044   6.399   5.203  1.6316  1.1637 -2.2464
  845MOL0     H14031  -0.140   6.210   5.271  1.8236 -0.3165  4.4454
  845MOL0     H14032   0.024   6.133   5.297  1.2069 -1.8252 -0.7465
  845MOL0     H14033   0.045   6.071   5.062  0.0277  1.6791 -0.3150
  845MOL0     H14034  -0.125   6.126   5.035 -1.2945 -0.1074  0.9677
  845MOL0     H14035  -0.208   5.730   5.195 -1.6655 -2.4274  2.2809
  845MOL0     H14036  -0.472   5.583   5.328  0.4605  1.9664  0.9063
  845MOL0     H14037  -0.524   5.604   5.157 -1.3779 -1.2377  0.1107
  845MOL0     H14038  -0.367   5.552   5.196  2.0203  1.9750  2.0328
  845MOL0     H14039  -0.801   5.619   5.498 -0.3073 -0.5214  0.6078
  845MOL0     H14040  -1.049   5.592   5.508  0.9462  0.5821  2.7113
  845MOL0     H14041  -1.295   5.827   5.607  0.9659 -0.0088 -1.2365
  845MOL0     H14042  -1.257   5.956   5.504  2.5704 -0.1519  0.0443
  845MOL0     H14043  -1.511   5.845   5.567  3.1264 -0.1575  1.6006
  845MOL0     H14044  -1.486   5.957   5.425  0.7764  1.1134  1.2859
  845MOL0     H14045  -1.434   5.743   5.301 -0.1029  1.3053 -0.1165
  845MOL0     H14046  -1.601   5.787   5.329  0.6032  0.9224 -1.6033
  845MOL0     H14047  -1.438   5.602   5.512 -0.7285 -0.9197  1.2795
  845MOL0     H14048  -1.608   5.642   5.535  0.2148 -0.8244 -0.3953
  845MOL0     H14049  -1.679   5.525   5.318  1.5221 -2.0374 -1.3237
  845MOL0     H14050  -1.602   5.428   5.445  3.0809  0.8026  0.6237
  845MOL0     H14051  -1.465   5.560   5.217 -0.8468  1.9053  1.3961
  845MOL0     H14052  -1.390   5.453   5.340  0.1136  3.0098  0.1472
  845MOL0     H14053  -1.607   5.396   5.132 -2.7641  1.5770  3.6505
  845MOL0     H14054  -1.557   5.268   5.237 -0.3516  0.8747  0.4403
  845MOL0     H14055  -1.398   5.420   5.019 -1.7023  0.6521  0.8986
  845MOL0     H14056  -1.435   5.255   5.021 -4.2022  0.0334  1.7613
  845MOL0     H14057  -1.104   5.979   5.337  1.2562  0.4390 -2.9628
  845MOL0     H14058  -0.855   6.006   5.307 -1.5653  1.7103  1.2161
  845MOL0     H14059  -0.558   6.072   5.194 -0.1167  0.0374 -2.0432
  845MOL0     H14060  -0.316   6.143   5.142  0.4979  0.0610  0.0218
  845MOL0     H14061   1.070   7.489   5.547  0.0872 -0.4734 -0.2096
  845MOL0     H14062   1.228   7.628   5.687  0.6067 -0.6266  1.8571
  845MOL0     H14063   1.530   7.958   5.833 -0.0801  0.6622  1.4861
  845MOL0     H14064   1.674   8.023   6.022 -2.8481  0.6650 -0.1815
  845MOL0     H14065   1.826   7.706   6.302  3.4401 -3.1210 -0.8422
  845MOL0     H14066   1.927   7.741   6.169  2.6776  1.5648  1.8395
  845MOL0     H14067   2.032   7.929   6.286  0.3680 -1.2265  0.0992
  845MOL0     H14068   2.033   7.785   6.381  0.3734  0.9648 -1.8199
  845MOL0     H14069   1.811   7.907   6.476  0.3488 -0.5177  1.1352
  845MOL0     H14070   1.875   8.044   6.398  0.4129  0.0266 -0.3431
  845MOL0     H14071   2.081   8.031   6.525 -0.3782 -0.6904 -0.8762
  845MOL0     H14072   2.034   7.903   6.625 -2.7118 -0.9225  0.8350
  845MOL0     H14073   1.832   8.181   6.834  1.0243  1.5637 -1.2973
  845MOL0     H14074   1.680   7.631   6.173  2.9392 -0.7198 -0.6889
  845MOL0     H14075   1.553   7.543   5.979  0.3203 -0.8726 -0.7600
  846MOL0     O14076   9.880   4.659   2.834  0.3492  0.1038 -1.0293
  846MOL0     C14077   9.946   4.651   2.937 -0.9603 -0.4853 -0.0046
  846MOL0     O14078   9.991   4.533   2.989  0.3100  0.5174 -0.2840
  846MOL0     C14079   9.961   4.419   2.924 -0.3335 -0.0390  1.3683
  846MOL0     C14080  10.014   4.383   2.797 -0.4975 -0.8652 -0.2548
  846MOL0     C14081  10.016   4.264   2.746  1.0317 -0.1668  0.0120
  846MOL0     C14082   9.951   4.158   2.803  0.1702  0.5565 -0.1649
  846MOL0     O14083   9.938   4.050   2.722  0.2837 -0.9676 -0.3859
  846MOL0     C14084   9.883   3.933   2.779  0.3663  0.1487 -0.7812
  846MOL0     C14085   9.858   3.822   2.672  0.5638 -0.5771 -0.2105
  846MOL0     C14086   9.814   3.686   2.718  0.8651 -0.2510 -0.1642
  846MOL0     C14087   9.837   3.589   2.604  0.1052  0.1198  0.4945
  846MOL0     C14088   9.776   3.452   2.641  0.2880 -0.0615  0.3160
  846MOL0     C14089   9.635   3.409   2.585 -0.0966  0.0899 -0.2935
  846MOL0     C14090   9.526   3.518   2.571  0.1332 -0.4423  0.5275
  846MOL0     C14091   9.405   3.468   2.511 -0.2719 -0.2516 -0.1178
  846MOL0     N14092   9.344   3.355   2.586 -0.8469  0.6021  0.0228
  846MOL0     C14093   9.308   3.335   2.720  0.6838  0.0004  0.7728
  846MOL0     C14094   9.249   3.217   2.726  0.8224 -0.7742 -0.1419
  846MOL0     C14095   9.186   3.133   2.837 -0.3150  0.6712  0.2358
  846MOL0     C14096   9.043   3.166   2.867  0.2477 -0.2234 -0.5127
  846MOL0     C14097   8.982   3.088   2.986  0.1044 -0.6384 -0.2031
  846MOL0     C14098   9.017   3.144   3.126 -0.0947 -0.1703  1.4330
  846MOL0     O14099   8.894   3.145   3.207  0.0433  0.3456  0.5693
  846MOL0     C14100   8.844   3.269   3.243 -1.2102 -0.4165  0.5261
  846MOL0     C14101   8.786   3.275   3.368 -0.2707 -0.2639  0.3850
  846MOL0     C14102   8.731   3.398   3.414  0.2492  0.2514 -0.4609
  846MOL0     C14103   8.645   3.377   3.548 -0.3306 -0.3939  1.0153
  846MOL0     C14104   8.754   3.519   3.352  0.4278  1.2445 -0.4780
  846MOL0     C14105   8.720   3.651   3.410  1.1354  0.1252  0.3536
  846MOL0     O14106   8.736   3.764   3.336 -0.1338  0.7541  0.4904
  846MOL0     C14107   8.721   3.887   3.393 -0.1559 -0.2745  0.4656
  846MOL0     C14108   8.791   3.924   3.509 -0.2706 -0.6921  0.6415
  846MOL0     C14109   8.754   4.052   3.567 -0.2722 -0.9751  0.1444
  846MOL0     C14110   8.670   4.143   3.505 -0.3886 -0.0738 -0.8607
  846MOL0     O14111   8.667   4.270   3.566  0.6409  0.7257  0.5783
  846MOL0     C14112   8.663   4.377   3.476 -0.6331  0.6157 -0.9783
  846MOL0     C14113   8.663   4.518   3.541 -0.5633  0.0994  0.5073
  846MOL0     C14114   8.616   4.636   3.449 -0.0610 -0.0574 -0.8231
  846MOL0     C14115   8.741   4.710   3.396  0.5983  0.1416  0.2110
  846MOL0     C14116   8.695   4.837   3.321  0.0533 -0.1811  0.6702
  846MOL0     C14117   8.818   4.910   3.285  0.0687  0.1997 -0.1927
  846MOL0     C14118   8.796   5.050   3.208 -0.0913 -0.0959  0.1191
  846MOL0     C14119   8.901   5.105   3.119 -0.2392 -1.3526  0.6563
  846MOL0    Cl14120   8.945   4.991   2.990  0.2032 -0.5323  0.2310
  846MOL0     C14121   8.618   4.103   3.383  0.0735  0.1263  0.6963
  846MOL0     C14122   8.646   3.978   3.327  0.2787 -0.2422 -0.0560
  846MOL0     O14123   8.705   3.661   3.527 -0.0965 -0.6894  0.1521
  846MOL0     C14124   8.816   3.514   3.231 -0.1451 -0.3602  0.8473
  846MOL0     C14125   8.844   3.390   3.175 -0.2933  0.3615  0.4210
  846MOL0     N14126   9.238   3.178   2.596 -0.0790  0.0911  0.5405
  846MOL0     N14127   9.291   3.258   2.510  0.2344  0.5596 -0.3351
  846MOL0     C14128   9.926   4.176   2.946  0.2960  0.1122 -0.3243
  846MOL0     C14129   9.931   4.307   3.004 -0.1567 -0.4265 -0.7767
  846MOL0     C14130   9.988   4.771   3.004 -0.1057 -0.8278  0.9083
  846MOL0     C14131  10.108   4.763   3.079  0.0163 -0.6267  0.5053
  846MOL0     C14132  10.169   4.872   3.127  0.0259  0.6048 -0.0344
  846MOL0     C14133  10.119   5.002   3.095  0.0068  0.8411  0.2249
  846MOL0     O14134  10.191   5.110   3.114  0.0004  0.0470  0.4959
  846MOL0     C14135  10.132   5.223   3.188 -0.7917  1.0792 -0.0855
  846MOL0     C14136  10.220   5.346   3.195  0.2936  0.3758  0.7848
  846MOL0     C14137  10.346   5.325   3.276  0.4038  0.0308 -0.2155
  846MOL0     C14138  10.465   5.252   3.208  0.3622 -0.7738  0.0602
  846MOL0     C14139  10.593   5.313   3.239 -0.6838 -0.7121  0.0749
  846MOL0     C14140  10.713   5.351   3.255  0.5792 -0.1989  0.1437
  846MOL0     C14141   9.992   5.008   3.027  0.0141  0.9211 -0.6658
  846MOL0     C14142   9.924   4.888   2.989  0.5320 -0.3256 -0.0487
  846MOL0     H14143  10.051   4.464   2.734 -2.5407 -2.2708 -3.5163
  846MOL0     H14144  10.073   4.268   2.654  0.3650 -3.5657 -0.6521
  846MOL0     H14145   9.952   3.906   2.860  0.6173  1.2408 -0.6163
  846MOL0     H14146   9.789   3.955   2.830  2.5136 -0.9110  4.3383
  846MOL0     H14147   9.780   3.845   2.599 -1.6423 -4.1737  0.7528
  846MOL0     H14148   9.949   3.815   2.612  0.7715  3.3560 -0.6461
  846MOL0     H14149   9.879   3.654   2.799  1.1277  0.2305 -0.1822
  846MOL0     H14150   9.708   3.694   2.743  1.5394  2.1466  2.5019
  846MOL0     H14151   9.788   3.630   2.516 -1.6984  0.9310  1.8143
  846MOL0     H14152   9.943   3.569   2.584 -0.5284 -2.9675 -0.3714
  846MOL0     H14153   9.843   3.374   2.604 -2.2499 -1.1322 -2.4336
  846MOL0     H14154   9.783   3.451   2.750  3.0909 -0.0595  0.2047
  846MOL0     H14155   9.653   3.374   2.483 -2.1706 -2.6533  0.1441
  846MOL0     H14156   9.599   3.320   2.638  0.4426  0.7565  1.2372
  846MOL0     H14157   9.503   3.558   2.670 -2.3393 -2.5074  0.9059
  846MOL0     H14158   9.568   3.597   2.508 -0.9299 -1.2954 -1.3450
  846MOL0     H14159   9.435   3.435   2.410 -1.5083  2.5298 -1.5084
  846MOL0     H14160   9.331   3.548   2.503 -0.1641  0.3613  3.5500
  846MOL0     H14161   9.338   3.392   2.807 -1.3306  3.5420 -0.6596
  846MOL0     H14162   9.197   3.025   2.818 -0.8410  0.0194  3.1251
  846MOL0     H14163   9.238   3.156   2.931 -0.7399 -1.8233  1.1753
  846MOL0     H14164   8.980   3.144   2.780 -2.4424 -0.5152  1.3946
  846MOL0     H14165   9.038   3.273   2.889  0.9071 -0.5612  1.4917
  846MOL0     H14166   8.992   2.979   2.979  0.4984 -0.7359  1.4407
  846MOL0     H14167   8.873   3.089   2.976  0.1434  3.9296 -2.6244
  846MOL0     H14168   9.054   3.246   3.117 -0.1176 -0.2566  0.2217
  846MOL0     H14169   9.089   3.073   3.169 -0.3122 -0.8989  0.6183
  846MOL0     H14170   8.781   3.187   3.431  3.3625 -0.5137  0.5400
  846MOL0     H14171   8.546   3.423   3.535 -2.1242 -3.1631  3.6803
  846MOL0     H14172   8.617   3.274   3.572 -2.7015 -0.0822 -0.1157
  846MOL0     H14173   8.703   3.427   3.626  2.2658  1.3309 -1.8070
  846MOL0     H14174   8.858   3.857   3.562 -1.0881  0.1453  2.8320
  846MOL0     H14175   8.795   4.062   3.667 -1.9925  0.0780  0.7976
  846MOL0     H14176   8.744   4.366   3.404 -0.5889 -1.3493 -0.6912
  846MOL0     H14177   8.570   4.367   3.419 -1.4002 -1.2204  0.4835
  846MOL0     H14178   8.599   4.516   3.630  1.8424  1.0257  2.3914
  846MOL0     H14179   8.760   4.546   3.584  0.8923 -1.3279 -1.6456
  846MOL0     H14180   8.552   4.700   3.510 -0.2564 -1.9751  1.1073
  846MOL0     H14181   8.551   4.598   3.370 -4.6369  0.0804  2.4833
  846MOL0     H14182   8.814   4.742   3.471  0.2571 -4.1632  2.7188
  846MOL0     H14183   8.811   4.645   3.343  2.3962  2.0193  0.1524
  846MOL0     H14184   8.634   4.900   3.387 -0.2920  1.0059 -0.7221
  846MOL0     H14185   8.642   4.824   3.225  1.4138  1.7824 -0.4279
  846MOL0     H14186   8.869   4.933   3.379  1.7656 -5.3973  0.5983
  846MOL0     H14187   8.892   4.854   3.228 -0.8252 -0.2522 -0.9291
  846MOL0     H14188   8.762   5.115   3.290 -0.1709 -1.4252  1.1764
  846MOL0     H14189   8.710   5.039   3.141 -0.8477  1.0561  0.8563
  846MOL0     H14190   8.991   5.140   3.169 -1.3628  2.8888  0.0775
  846MOL0     H14191   8.856   5.193   3.073 -0.1764 -2.4411 -1.6247
  846MOL0     H14192   8.562   4.175   3.323 -0.3343 -1.6940 -1.2267
  846MOL0     H14193   8.607   3.954   3.228  0.0099 -0.3717  0.0826
  846MOL0     H14194   8.829   3.599   3.165 -0.0796 -1.8185 -1.1074
  846MOL0     H14195   8.872   3.388   3.071 -0.1330  2.0029  0.4033
  846MOL0     H14196   9.901   4.097   3.015 -0.8323  0.0265 -0.8109
  846MOL0     H14197   9.917   4.313   3.112  1.6300  0.0268 -0.5348
  846MOL0     H14198  10.153   4.665   3.090  0.0092 -0.5587  1.2092
  846MOL0     H14199  10.255   4.872   3.193 -1.1303  0.1036  1.5357
  846MOL0     H14200  10.040   5.253   3.136 -1.3500  0.9985  0.8359
  846MOL0     H14201  10.109   5.198   3.292 -0.1237  3.3910  0.6949
  846MOL0     H14202  10.165   5.421   3.252 -3.2058  1.4759 -3.4265
  846MOL0     H14203  10.244   5.385   3.096 -1.5481 -1.2631 -0.4028
  846MOL0     H14204  10.324   5.285   3.376  1.5359  2.1021  0.9270
  846MOL0     H14205  10.389   5.424   3.295 -0.1949  0.3317 -0.4168
  846MOL0     H14206  10.457   5.256   3.099  2.4723 -1.8821 -0.1797
  846MOL0     H14207  10.473   5.149   3.243  5.1801 -0.6537 -0.0613
  846MOL0     H14208  10.810   5.385   3.284  0.5607  1.4832 -1.5741
  846MOL0     H14209   9.937   5.094   2.990  1.5063  1.9951 -0.4621
  846MOL0     H14210   9.827   4.897   2.941  0.2402 -0.7540  0.4469
  847MOL0     O14211   6.360   7.309   1.651 -0.5213  0.3800 -0.5162
  847MOL0     C14212   6.411   7.227   1.571 -0.0268  0.2106 -0.3586
  847MOL0     O14213   6.340   7.117   1.518 -0.8799 -0.5390 -0.3145
  847MOL0     C14214   6.209   7.087   1.553  0.4644  0.3784 -0.4401
  847MOL0     C14215   6.101   7.166   1.612  0.2571 -0.3296  0.2920
  847MOL0     C14216   5.974   7.116   1.616  0.6435  0.7550  0.4354
  847MOL0     C14217   5.938   6.988   1.567  0.5205  0.6077  0.9907
  847MOL0     O14218   5.814   6.931   1.595 -0.8010  0.0187  0.8841
  847MOL0     C14219   5.723   6.938   1.481  0.1194  0.2626 -0.5628
  847MOL0     C14220   5.626   6.820   1.494  0.2482 -1.3694 -0.0447
  847MOL0     C14221   5.534   6.841   1.611 -0.0374  0.6733  0.0727
  847MOL0     C14222   5.406   6.750   1.627 -0.0698 -0.6466  0.8047
  847MOL0     C14223   5.275   6.819   1.571  0.0797  0.1060 -0.4900
  847MOL0     C14224   5.270   6.851   1.425 -0.5367  0.3521  0.3659
  847MOL0     C14225   5.150   6.940   1.411 -0.9283 -0.0454 -0.0643
  847MOL0     C14226   5.184   7.091   1.402  0.2592 -0.1114 -0.4602
  847MOL0     N14227   5.064   7.169   1.365 -0.8985 -1.0499  0.3662
  847MOL0     C14228   4.948   7.117   1.321  0.3760 -0.4909  0.6854
  847MOL0     C14229   4.868   7.227   1.335  0.0057  0.1757 -0.3393
  847MOL0     C14230   4.725   7.225   1.326  0.6753  0.4972 -0.1451
  847MOL0     C14231   4.661   7.115   1.411  0.3025  0.2794  1.0941
  847MOL0     C14232   4.512   7.140   1.438  0.4788 -0.0160  0.7299
  847MOL0     C14233   4.435   7.128   1.300 -0.3877 -0.3847  0.2758
  847MOL0     O14234   4.293   7.112   1.315 -0.4311  0.0533  0.1239
  847MOL0     C14235   4.208   7.108   1.203  0.4865  0.9786 -1.2737
  847MOL0     C14236   4.073   7.136   1.220 -0.8137 -0.9791 -1.1008
  847MOL0     C14237   3.983   7.131   1.115 -1.0118  0.1277 -0.1157
  847MOL0     C14238   3.839   7.149   1.154  0.3956  1.1581  0.1340
  847MOL0     C14239   4.033   7.110   0.977  0.0443  0.2714 -0.7058
  847MOL0     C14240   3.944   7.099   0.852  0.2675  0.0122  0.3028
  847MOL0     O14241   3.995   7.085   0.729 -0.4173  0.2764 -0.7976
  847MOL0     C14242   3.929   7.011   0.630  0.5557 -1.0079 -0.3527
  847MOL0     C14243   3.835   6.907   0.646 -0.2308  0.0192 -0.4332
  847MOL0     C14244   3.792   6.828   0.533  0.1018 -0.0388 -0.6583
  847MOL0     C14245   3.834   6.844   0.401  0.1812 -0.0647  0.3518
  847MOL0     O14246   3.805   6.756   0.298 -0.2000 -0.1370 -0.1731
  847MOL0     C14247   3.784   6.619   0.324  0.1061 -0.0497  0.0656
  847MOL0     C14248   3.782   6.539   0.190 -0.5176  0.8994  0.0226
  847MOL0     C14249   3.662   6.568   0.108  0.4441 -0.0921  0.0977
  847MOL0     C14250   3.620   6.459   0.010  0.3557  0.4787 -0.4586
  847MOL0     C14251   3.732   6.400  -0.073 -0.7081  0.4085  0.4511
  847MOL0     C14252   3.799   6.500  -0.175 -0.3542 -1.0376  0.1911
  847MOL0     C14253   3.721   6.512  -0.303  0.7334  0.0798 -0.0378
  847MOL0     C14254   3.803   6.607  -0.393  0.6850  0.1954 -0.4318
  847MOL0    Cl14255   3.822   6.773  -0.333 -0.1024 -0.0701  0.1768
  847MOL0     C14256   3.941   6.931   0.395  0.4409  0.1932 -0.8289
  847MOL0     C14257   3.982   7.021   0.502 -0.3603  0.3580  0.7205
  847MOL0     O14258   3.824   7.083   0.875 -0.5147 -0.6022  0.4395
  847MOL0     C14259   4.173   7.094   0.967  0.2113 -0.0216  0.8360
  847MOL0     C14260   4.252   7.093   1.076 -1.1413  1.0346  0.3410
  847MOL0     N14261   4.934   7.340   1.387 -0.4809 -0.3084 -0.0443
  847MOL0     N14262   5.052   7.299   1.404  0.7461 -0.0107  0.4472
  847MOL0     C14263   6.035   6.913   1.505  0.3891  0.0606  0.2626
  847MOL0     C14264   6.165   6.968   1.498 -1.1524  1.0404 -0.7393
  847MOL0     C14265   6.548   7.224   1.532  0.0361  1.0406  0.4112
  847MOL0     C14266   6.611   7.098   1.507  0.0794 -0.8361  0.2596
  847MOL0     C14267   6.746   7.090   1.467  0.2534 -0.7870  0.2105
  847MOL0     C14268   6.827   7.205   1.468 -0.0519 -0.2025 -0.1944
  847MOL0     O14269   6.952   7.199   1.453 -0.2302 -0.1468  0.5496
  847MOL0     C14270   6.987   7.228   1.324 -0.2028 -0.1296  0.3772
  847MOL0     C14271   7.126   7.182   1.281  0.4111  0.4063  0.7184
  847MOL0     C14272   7.148   7.031   1.313 -0.5347  0.1009 -0.6719
  847MOL0     C14273   7.290   6.986   1.273  0.5065  0.0306  0.2690
  847MOL0     C14274   7.273   6.884   1.162  0.4868 -0.1596  0.1706
  847MOL0     C14275   7.263   6.805   1.075 -0.8471  0.2355  0.0967
  847MOL0     C14276   6.761   7.332   1.471 -0.8869 -0.5947 -0.4773
  847MOL0     C14277   6.626   7.344   1.514 -0.1735  0.5835 -0.6017
  847MOL0     H14278   6.129   7.252   1.671  1.8824 -1.0989  0.7022
  847MOL0     H14279   5.895   7.166   1.672 -0.2441  1.0274 -1.0158
  847MOL0     H14280   5.669   7.033   1.476  1.4440  1.3087  2.5080
  847MOL0     H14281   5.762   6.911   1.383  2.0286  3.4176 -0.8316
  847MOL0     H14282   5.564   6.810   1.404 -1.4465  1.6085  0.6650
  847MOL0     H14283   5.680   6.726   1.513 -2.0672 -3.4788 -2.8415
  847MOL0     H14284   5.611   6.814   1.684  2.8820 -0.3598 -3.1077
  847MOL0     H14285   5.507   6.947   1.615 -2.8465  0.0429  4.2045
  847MOL0     H14286   5.427   6.655   1.575 -0.2119  1.1891 -2.9836
  847MOL0     H14287   5.389   6.736   1.734  0.7322 -0.1445  1.0083
  847MOL0     H14288   5.194   6.752   1.601  3.0569 -2.2588  3.3274
  847MOL0     H14289   5.252   6.914   1.620 -3.6377  0.2317 -2.1379
  847MOL0     H14290   5.360   6.894   1.380  0.4254 -2.6057 -0.7527
  847MOL0     H14291   5.244   6.757   1.376  2.1735 -1.7354  2.6433
  847MOL0     H14292   5.095   6.912   1.320  0.7548  0.6184 -1.3549
  847MOL0     H14293   5.084   6.935   1.497 -0.4415  1.3306  0.4135
  847MOL0     H14294   5.257   7.116   1.325 -0.5189  1.5225 -0.7159
  847MOL0     H14295   5.227   7.124   1.497 -0.5500  1.2698 -0.5436
  847MOL0     H14296   4.928   7.017   1.283  1.3582  0.4423 -2.6059
  847MOL0     H14297   4.675   7.319   1.347  2.0609  1.3519 -0.5451
  847MOL0     H14298   4.700   7.212   1.221 -0.9894  1.1156  0.1520
  847MOL0     H14299   4.716   7.109   1.505  1.0520 -1.0733  0.6033
  847MOL0     H14300   4.685   7.019   1.364 -0.7101 -1.2894  3.6004
  847MOL0     H14301   4.498   7.244   1.470 -0.6874  0.3210 -0.7421
  847MOL0     H14302   4.484   7.075   1.521 -0.1615  0.7947  1.1722
  847MOL0     H14303   4.487   7.047   1.247 -0.4759 -1.3293  1.5782
  847MOL0     H14304   4.445   7.213   1.232 -1.4049 -1.0612 -0.7668
  847MOL0     H14305   4.041   7.143   1.324 -0.2785 -1.8822 -0.8690
  847MOL0     H14306   3.801   7.248   1.127 -0.8178  1.2915  2.1288
  847MOL0     H14307   3.775   7.073   1.109  0.8377  0.4028  0.7475
  847MOL0     H14308   3.830   7.128   1.261  0.4627 -0.5658 -0.1694
  847MOL0     H14309   3.784   6.881   0.739 -1.2149  1.1285 -0.6531
  847MOL0     H14310   3.721   6.749   0.557  1.3912 -1.7909 -2.2959
  847MOL0     H14311   3.863   6.583   0.390  0.1906 -3.2990 -1.6180
  847MOL0     H14312   3.690   6.594   0.374  0.8937 -2.5547  0.4336
  847MOL0     H14313   3.872   6.566   0.134 -1.3076  0.1180 -1.6973
  847MOL0     H14314   3.787   6.431   0.207  0.3535  0.9329  0.0675
  847MOL0     H14315   3.674   6.667   0.062 -1.0756  0.9273  1.7833
  847MOL0     H14316   3.579   6.584   0.176 -0.4091 -1.0045 -0.7032
  847MOL0     H14317   3.586   6.366   0.056  2.3062 -1.4304 -2.6197
  847MOL0     H14318   3.535   6.495  -0.048 -0.1562 -2.1387 -1.4558
  847MOL0     H14319   3.688   6.313  -0.122  2.8431 -1.0913 -0.3677
  847MOL0     H14320   3.817   6.360  -0.018 -1.0089  1.1545  1.5013
  847MOL0     H14321   3.811   6.596  -0.123 -2.2128 -1.8153  2.2420
  847MOL0     H14322   3.892   6.445  -0.195 -2.2294 -3.3169 -3.2206
  847MOL0     H14323   3.621   6.546  -0.274  0.4133  0.1321 -1.1667
  847MOL0     H14324   3.715   6.415  -0.353 -2.2965  2.5533 -5.2362
  847MOL0     H14325   3.749   6.615  -0.488  0.6288  1.3722 -0.3123
  847MOL0     H14326   3.904   6.571  -0.410  1.1173  1.5611 -0.8610
  847MOL0     H14327   3.984   6.956   0.298  0.7895  0.7318 -0.5378
  847MOL0     H14328   4.068   7.081   0.473  1.5478 -2.6327 -0.2943
  847MOL0     H14329   4.223   7.069   0.874 -0.7975 -0.4726  0.3956
  847MOL0     H14330   4.360   7.100   1.063 -0.8853  1.3335  2.3258
  847MOL0     H14331   6.009   6.825   1.447 -0.1845 -0.0422  0.6782
  847MOL0     H14332   6.237   6.914   1.437  0.1326 -0.4353  1.8577
  847MOL0     H14333   6.550   7.010   1.520 -1.4521  0.2587  0.7352
  847MOL0     H14334   6.791   6.992   1.453  0.7632 -0.3844 -1.0578
  847MOL0     H14335   6.917   7.184   1.252  3.6134 -3.2428 -1.8254
  847MOL0     H14336   6.989   7.335   1.301  0.5599 -0.0074  0.9910
  847MOL0     H14337   7.201   7.236   1.340  1.5624 -0.2318 -0.1259
  847MOL0     H14338   7.143   7.201   1.174 -2.5047  1.7918  0.3960
  847MOL0     H14339   7.077   6.983   1.244 -1.8949  1.7619 -0.4900
  847MOL0     H14340   7.127   7.009   1.418  1.8217 -1.4599 -0.4507
  847MOL0     H14341   7.344   6.939   1.355  0.7939  2.4445  1.5364
  847MOL0     H14342   7.355   7.069   1.244 -2.1181  2.2343  0.4115
  847MOL0     H14343   7.254   6.734   0.996  0.1518  0.0130  0.1816
  847MOL0     H14344   6.833   7.412   1.459 -1.3995 -0.1037 -0.3261
  847MOL0     H14345   6.575   7.439   1.527  0.9818  1.1921 -0.4606
  848MOL0     O14346   0.004   6.324   7.298 -0.5085 -0.4773 -0.3849
  848MOL0     C14347   0.093   6.407   7.327 -0.2555 -0.1674  0.0311
  848MOL0     O14348   0.221   6.403   7.283  0.1324 -0.2615  0.2746
  848MOL0     C14349   0.284   6.279   7.282  0.0332 -0.8188 -0.5848
  848MOL0     C14350   0.278   6.184   7.181 -0.5722  0.1045  0.5599
  848MOL0     C14351   0.353   6.068   7.192  1.5872 -0.0590  0.2604
  848MOL0     C14352   0.431   6.042   7.303 -0.7192 -0.4494  0.0780
  848MOL0     O14353   0.528   5.945   7.296 -0.2911 -0.2689 -0.1549
  848MOL0     C14354   0.629   5.959   7.201 -0.0869 -0.0990 -0.2124
  848MOL0     C14355   0.767   5.903   7.239  0.5120  0.1564  0.0276
  848MOL0     C14356   0.746   5.754   7.267 -0.2481 -0.5184  0.4601
  848MOL0     C14357   0.881   5.693   7.289  0.7156 -0.7798 -0.2754
  848MOL0     C14358   0.869   5.543   7.339 -0.8627 -0.2406  0.2574
  848MOL0     C14359   1.011   5.500   7.387  0.9820  0.1461 -0.4223
  848MOL0     C14360   1.026   5.362   7.448  0.5121  0.5501  0.4568
  848MOL0     C14361   1.152   5.355   7.518  1.4117  0.3809 -0.1515
  848MOL0     N14362   1.207   5.219   7.534  0.9878  0.6127  0.0147
  848MOL0     C14363   1.197   5.149   7.656 -0.4819  0.1216 -0.2260
  848MOL0     C14364   1.268   5.034   7.627 -0.2314  0.1978 -0.6794
  848MOL0     C14365   1.274   4.917   7.728 -1.0526  0.5887  0.2310
  848MOL0     C14366   1.416   4.864   7.757 -0.0067 -0.2362  0.1544
  848MOL0     C14367   1.518   4.971   7.798 -0.8451 -0.2246 -0.1036
  848MOL0     C14368   1.638   4.895   7.870  1.0751  0.1077  0.4096
  848MOL0     O14369   1.691   4.798   7.779  0.5542  0.2131  0.3234
  848MOL0     C14370   1.828   4.792   7.768 -0.2091  0.7353 -0.5810
  848MOL0     C14371   1.893   4.870   7.670 -0.6101 -0.2087 -0.7103
  848MOL0     C14372   2.034   4.873   7.637 -0.9873  0.5393  0.4850
  848MOL0     C14373   2.078   4.945   7.513  0.0520 -0.2929  0.1534
  848MOL0     C14374   2.114   4.796   7.727 -0.1332  0.1329 -0.3187
  848MOL0     C14375   2.265   4.777   7.712  0.3408 -0.3345 -0.6488
  848MOL0     O14376   2.324   4.839   7.612  0.7757  0.5397 -0.4650
  848MOL0     C14377   2.457   4.821   7.589  0.4094 -0.6141  0.0026
  848MOL0     C14378   2.531   4.931   7.548  0.1660  0.2449  0.1164
  848MOL0     C14379   2.662   4.922   7.509  0.3849  0.8937  0.7558
  848MOL0     C14380   2.718   4.789   7.503  0.2964 -0.9021  0.2470
  848MOL0     O14381   2.841   4.770   7.460 -0.0796 -0.2635  0.2593
  848MOL0     C14382   2.947   4.859   7.476 -0.4846 -0.7738 -0.0306
  848MOL0     C14383   2.971   4.947   7.356 -0.4694 -0.1975 -0.0111
  848MOL0     C14384   3.100   5.020   7.368 -1.0012  0.7704  0.1181
  848MOL0     C14385   3.149   5.108   7.246  0.3683  0.0615  0.2774
  848MOL0     C14386   3.156   5.033   7.110 -0.2824 -0.1428 -1.5847
  848MOL0     C14387   3.220   5.095   6.992  0.8029 -0.6836  0.4111
  848MOL0     C14388   3.209   5.249   6.986  0.9518  0.3274  0.4364
  848MOL0     C14389   3.068   5.303   6.975 -0.0399  0.0940 -0.5157
  848MOL0    Cl14390   3.073   5.467   7.039  0.4539  0.0125 -0.1489
  848MOL0     C14391   2.644   4.678   7.537  0.2074 -0.5493 -0.0598
  848MOL0     C14392   2.512   4.698   7.571  0.5230  0.7114 -0.3490
  848MOL0     O14393   2.322   4.714   7.799  0.1460 -0.6262  0.1887
  848MOL0     C14394   2.052   4.730   7.834 -0.2418 -0.4924 -0.1015
  848MOL0     C14395   1.910   4.723   7.849  0.8283 -0.5832  0.6699
  848MOL0     N14396   1.329   5.045   7.504  0.6807  0.0528 -0.2734
  848MOL0     N14397   1.281   5.149   7.441 -0.9435 -0.5524 -0.7096
  848MOL0     C14398   0.429   6.136   7.410 -1.0026  0.8221 -0.0386
  848MOL0     C14399   0.350   6.246   7.392  0.4455  0.5134 -0.2303
  848MOL0     C14400   0.050   6.523   7.405 -0.0924 -0.1529  0.0364
  848MOL0     C14401   0.140   6.616   7.456 -0.0348  1.0458  0.3171
  848MOL0     C14402   0.103   6.726   7.533  0.7905  0.0104  0.0683
  848MOL0     C14403  -0.027   6.747   7.567 -0.0608 -0.6476 -0.1371
  848MOL0     O14404  -0.050   6.867   7.645  0.4063 -0.3856 -0.2648
  848MOL0     C14405  -0.172   6.897   7.711 -0.0198 -0.5505 -0.5518
  848MOL0     C14406  -0.261   6.988   7.611 -0.1267 -0.2045  0.3241
  848MOL0     C14407  -0.420   6.992   7.643  1.6066  0.4382  0.2278
  848MOL0     C14408  -0.507   6.858   7.637 -0.4513  0.5078  0.5518
  848MOL0     C14409  -0.484   6.798   7.503 -0.4621 -0.1646  0.1436
  848MOL0     C14410  -0.481   6.766   7.384  0.0280 -0.2314  0.1612
  848MOL0     C14411  -0.119   6.667   7.507 -0.2108  0.0266 -0.8087
  848MOL0     C14412  -0.087   6.554   7.424 -0.4853  0.2465 -0.8501
  848MOL0     H14413   0.213   6.220   7.101 -0.0173  1.7835  0.8150
  848MOL0     H14414   0.345   5.994   7.112  2.5275 -0.6625  0.7064
  848MOL0     H14415   0.590   5.899   7.118 -1.6545  1.4252 -0.6405
  848MOL0     H14416   0.636   6.065   7.178 -4.0813  0.5896  0.9140
  848MOL0     H14417   0.830   5.911   7.150  1.0381  1.5341  0.5118
  848MOL0     H14418   0.805   5.960   7.324  0.2264  0.9767 -0.3872
  848MOL0     H14419   0.688   5.734   7.357  2.6672 -0.2459  2.5328
  848MOL0     H14420   0.707   5.709   7.175  2.2108  0.5597 -1.2132
  848MOL0     H14421   0.940   5.703   7.198 -2.7675 -0.4551 -2.6587
  848MOL0     H14422   0.923   5.756   7.368 -3.2729  2.2092 -0.2706
  848MOL0     H14423   0.792   5.530   7.416 -0.2712 -0.3082  0.8450
  848MOL0     H14424   0.845   5.476   7.256 -3.3138  1.2487 -0.3447
  848MOL0     H14425   1.071   5.494   7.296  4.5183 -1.0261  1.7751
  848MOL0     H14426   1.052   5.578   7.453  1.8189  0.7751 -1.6421
  848MOL0     H14427   0.945   5.332   7.515 -2.3865 -0.5561 -3.2531
  848MOL0     H14428   1.022   5.291   7.365 -2.3971  0.1206  0.8762
  848MOL0     H14429   1.155   5.397   7.619  0.7596  0.5507 -0.1969
  848MOL0     H14430   1.225   5.413   7.461  1.5753  1.9283  1.5419
  848MOL0     H14431   1.151   5.171   7.752  1.4396 -0.1261  0.7976
  848MOL0     H14432   1.235   4.957   7.822  0.2300  1.3749  0.4584
  848MOL0     H14433   1.215   4.831   7.696 -0.1235  0.0126  0.0312
  848MOL0     H14434   1.464   4.800   7.682 -2.2654 -1.4187 -0.3678
  848MOL0     H14435   1.415   4.810   7.852  0.8135  0.0211  0.3151
  848MOL0     H14436   1.474   5.044   7.867  1.1658 -0.4177  1.4750
  848MOL0     H14437   1.568   5.023   7.716 -0.3952  0.7748  0.7874
  848MOL0     H14438   1.585   4.848   7.953  0.1811  0.9111  0.3095
  848MOL0     H14439   1.726   4.952   7.900  1.0686 -1.5525  4.0503
  848MOL0     H14440   1.823   4.916   7.602 -3.0181 -1.0105  1.0977
  848MOL0     H14441   1.991   4.996   7.470  0.6519 -1.1914 -2.3400
  848MOL0     H14442   2.157   5.021   7.519 -0.3194  0.2540 -1.2744
  848MOL0     H14443   2.126   4.877   7.442  0.1209  0.3949 -0.4800
  848MOL0     H14444   2.482   5.028   7.541 -0.3260 -0.1213 -2.4185
  848MOL0     H14445   2.715   5.013   7.484  1.0793  0.1803 -0.4550
  848MOL0     H14446   2.919   4.932   7.553  0.4703 -0.5977  0.1708
  848MOL0     H14447   3.036   4.797   7.489  1.3586  1.7792  0.3651
  848MOL0     H14448   2.940   4.899   7.262  1.0204  0.6400 -0.9690
  848MOL0     H14449   2.890   5.019   7.372 -0.5689 -0.5177  0.9767
  848MOL0     H14450   3.180   4.946   7.369 -3.7815 -2.5092  2.6123
  848MOL0     H14451   3.104   5.074   7.463  0.0325  2.1991 -0.6901
  848MOL0     H14452   3.078   5.190   7.233 -1.7202 -1.8648 -1.3991
  848MOL0     H14453   3.245   5.158   7.261 -1.2896  4.2818 -1.5594
  848MOL0     H14454   3.051   5.012   7.086 -1.4949  1.6297  1.5952
  848MOL0     H14455   3.204   4.935   7.119  2.9699  1.4055 -0.8649
  848MOL0     H14456   3.329   5.088   6.998  1.1166  0.7525 -2.0482
  848MOL0     H14457   3.172   5.046   6.907 -1.2149 -2.1809  2.3162
  848MOL0     H14458   3.271   5.300   6.911  0.9960  2.1474  1.6335
  848MOL0     H14459   3.260   5.288   7.075  0.7588 -1.1913  1.2489
  848MOL0     H14460   2.995   5.244   7.031  0.9882  0.3195  1.1345
  848MOL0     H14461   3.042   5.302   6.868  0.0313 -0.1513 -0.5332
  848MOL0     H14462   2.677   4.575   7.531  1.8698 -0.1787  1.6563
  848MOL0     H14463   2.450   4.613   7.599  0.9971  0.3082 -0.5071
  848MOL0     H14464   2.113   4.678   7.908 -0.7731 -0.1636  0.5767
  848MOL0     H14465   1.873   4.689   7.945  0.2468  1.5455  1.2481
  848MOL0     H14466   0.486   6.117   7.500  0.6372  1.0221 -1.0053
  848MOL0     H14467   0.360   6.324   7.467  2.9873 -0.3861  0.4870
  848MOL0     H14468   0.246   6.594   7.452 -0.7166 -2.7279 -1.0165
  848MOL0     H14469   0.176   6.794   7.576 -0.1002  1.1784 -0.2135
  848MOL0     H14470  -0.230   6.813   7.748  1.6036 -1.0021  1.1067
  848MOL0     H14471  -0.149   6.948   7.805 -2.2104  1.2445 -0.9114
  848MOL0     H14472  -0.236   6.954   7.510  2.3563  0.5071  0.6309
  848MOL0     H14473  -0.217   7.088   7.616  2.9448 -1.4399  0.1024
  848MOL0     H14474  -0.467   7.044   7.559 -1.3498 -1.6524  0.4658
  848MOL0     H14475  -0.429   7.052   7.734 -0.5238  0.0681  0.2948
  848MOL0     H14476  -0.615   6.864   7.652 -0.6023  0.1683 -0.3260
  848MOL0     H14477  -0.476   6.793   7.719 -0.2634  0.1966  0.2355
  848MOL0     H14478  -0.500   6.743   7.281  1.1891  0.9540 -0.3382
  848MOL0     H14479  -0.224   6.692   7.513  0.0788  1.3753 -0.8609
  848MOL0     H14480  -0.166   6.501   7.371  1.4240 -0.2909 -3.2914
  849MOL0     O14481   5.145   3.471   7.824 -0.3210 -0.4957  0.4741
  849MOL0     C14482   5.046   3.407   7.853 -0.3917 -0.5788 -0.1355
  849MOL0     O14483   5.050   3.286   7.912  0.8547  0.3240  0.3415
  849MOL0     C14484   5.167   3.237   7.961  0.0833  0.1942  0.0402
  849MOL0     C14485   5.274   3.216   7.879 -0.1219  0.4762  0.6524
  849MOL0     C14486   5.394   3.160   7.931 -0.0605  0.1586 -0.7448
  849MOL0     C14487   5.403   3.134   8.072  0.6666  0.1474  0.0815
  849MOL0     O14488   5.515   3.071   8.138 -0.3261  0.4732 -0.3405
  849MOL0     C14489   5.617   3.033   8.052 -0.4605  0.0962  1.3404
  849MOL0     C14490   5.726   3.003   8.150  0.5260  0.3520 -0.3552
  849MOL0     C14491   5.777   3.107   8.242 -0.0685  0.3175 -0.0085
  849MOL0     C14492   5.737   3.086   8.396  0.2431  0.3895  0.0506
  849MOL0     C14493   5.861   3.093   8.498  0.6829  0.2840  0.0546
  849MOL0     C14494   5.818   3.067   8.646 -0.0004 -0.4386 -0.7808
  849MOL0     C14495   5.945   3.099   8.740 -0.0210 -0.0896 -0.2556
  849MOL0     C14496   5.933   3.065   8.894  0.3973  0.6675  0.6553
  849MOL0     N14497   6.038   3.150   8.955  1.5952  0.6143  0.3613
  849MOL0     C14498   6.163   3.127   8.948 -0.1257 -0.0371  0.5961
  849MOL0     C14499   6.225   3.228   9.011  0.3461  0.1899  0.4973
  849MOL0     C14500   6.370   3.246   9.045  0.7700  0.6999 -0.2766
  849MOL0     C14501   6.449   3.284   8.924  0.5295 -0.6803 -0.0762
  849MOL0     C14502   6.581   3.341   8.949  0.5326  0.1681 -0.2437
  849MOL0     C14503   6.657   3.260   9.065 -0.2534  0.0817  0.4348
  849MOL0     O14504   6.713   3.136   9.006  0.2503  0.6804 -0.8903
  849MOL0     C14505   6.812   3.135   8.923 -0.9788 -0.0550 -0.6927
  849MOL0     C14506   6.850   3.014   8.877 -0.2754  0.6012 -0.3808
  849MOL0     C14507   6.952   2.998   8.788 -0.6392 -0.7783  0.4087
  849MOL0     C14508   6.994   2.850   8.750 -0.2372  0.0218  0.6799
  849MOL0     C14509   7.018   3.113   8.732  0.1131 -0.6974 -0.3410
  849MOL0     C14510   7.123   3.112   8.625  0.1750 -0.7302  0.3134
  849MOL0     O14511   7.202   3.220   8.625  1.1933  0.6232 -0.0286
  849MOL0     C14512   7.250   3.269   8.506  0.0270  0.7629  0.1990
  849MOL0     C14513   7.177   3.296   8.399  0.2637 -0.1417  0.4875
  849MOL0     C14514   7.231   3.358   8.290  0.3152  0.3428 -0.4171
  849MOL0     C14515   7.372   3.378   8.281  0.6977  0.3379  0.9429
  849MOL0     O14516   7.438   3.428   8.179  0.5019  0.0968  0.4928
  849MOL0     C14517   7.401   3.398   8.042 -0.5108  0.0501 -0.3999
  849MOL0     C14518   7.474   3.492   7.932 -0.1699  0.0051  0.1251
  849MOL0     C14519   7.434   3.458   7.792 -0.6231  0.2684  0.9757
  849MOL0     C14520   7.522   3.507   7.674  0.0748 -0.0474  0.3236
  849MOL0     C14521   7.452   3.462   7.538 -0.7222  0.1057 -0.4822
  849MOL0     C14522   7.555   3.474   7.425 -1.5644  0.0338 -0.1338
  849MOL0     C14523   7.510   3.479   7.273 -0.0886  0.9550 -0.9906
  849MOL0     C14524   7.416   3.597   7.258  0.6259  0.0683 -0.3376
  849MOL0    Cl14525   7.395   3.630   7.081 -0.3690  0.2957  0.2325
  849MOL0     C14526   7.450   3.338   8.387 -0.3375 -0.1079 -0.4020
  849MOL0     C14527   7.389   3.298   8.502  0.4028  0.1248 -0.6901
  849MOL0     O14528   7.132   3.023   8.540  0.2833  0.5791 -0.1681
  849MOL0     C14529   6.983   3.239   8.787 -0.4619  1.2645  0.7525
  849MOL0     C14530   6.880   3.246   8.877 -0.6636 -0.3773  0.2529
  849MOL0     N14531   6.134   3.322   9.054  0.6920 -0.1596 -1.0453
  849MOL0     N14532   6.018   3.263   9.030 -0.2537 -0.6050  0.2037
  849MOL0     C14533   5.293   3.152   8.150  0.4725 -0.0635 -0.1746
  849MOL0     C14534   5.173   3.204   8.092 -0.2936 -0.0320  0.1998
  849MOL0     C14535   4.917   3.457   7.796 -0.3015  1.0803  0.6113
  849MOL0     C14536   4.913   3.562   7.701 -0.0551  0.4456  0.8132
  849MOL0     C14537   4.795   3.611   7.655 -0.9830 -0.2291  0.8970
  849MOL0     C14538   4.674   3.549   7.681  1.0077  0.0363 -1.2468
  849MOL0     O14539   4.549   3.578   7.640 -0.4478 -0.0788 -0.1956
  849MOL0     C14540   4.539   3.693   7.552 -0.0170  1.1091 -0.3873
  849MOL0     C14541   4.392   3.705   7.481 -0.4751 -0.4218 -0.6144
  849MOL0     C14542   4.367   3.584   7.402  0.4100  0.2564 -0.6602
  849MOL0     C14543   4.211   3.581   7.376  0.5317 -0.2667 -0.1589
  849MOL0     C14544   4.173   3.598   7.236 -0.6851  0.1553 -0.5096
  849MOL0     C14545   4.141   3.611   7.120 -0.2692  0.0039  0.0291
  849MOL0     C14546   4.672   3.451   7.776 -1.2460 -0.5456  0.1644
  849MOL0     C14547   4.794   3.400   7.829  0.7503  0.0097  0.5742
  849MOL0     H14548   5.260   3.226   7.771 -1.6539 -2.2856  0.5008
  849MOL0     H14549   5.462   3.114   7.861 -2.0103 -7.5359  1.4932
  849MOL0     H14550   5.594   2.955   7.979 -1.6539  3.7519 -2.5851
  849MOL0     H14551   5.651   3.118   7.992 -3.0960  1.6002  1.8141
  849MOL0     H14552   5.696   2.913   8.204 -0.7094  1.6319  1.2230
  849MOL0     H14553   5.812   2.967   8.092  0.5361 -1.2837  0.6207
  849MOL0     H14554   5.886   3.101   8.237 -0.1445 -0.0991 -2.4356
  849MOL0     H14555   5.736   3.203   8.212  0.6919  0.6082 -0.1471
  849MOL0     H14556   5.667   3.162   8.433 -0.9052 -0.1144 -1.0015
  849MOL0     H14557   5.679   2.994   8.404  0.2534  0.2988 -0.8697
  849MOL0     H14558   5.942   3.024   8.470 -0.1704 -1.0477  0.7998
  849MOL0     H14559   5.897   3.196   8.493 -1.1818  1.0648  1.6915
  849MOL0     H14560   5.733   3.123   8.686  0.6336 -1.1691  1.7797
  849MOL0     H14561   5.798   2.961   8.661 -0.5451 -0.1004  1.2012
  849MOL0     H14562   6.027   3.041   8.697  0.3188  0.7816 -0.8043
  849MOL0     H14563   5.976   3.202   8.722  0.0004 -0.3256 -1.7163
  849MOL0     H14564   5.966   2.962   8.909  1.9895  0.8052 -1.4904
  849MOL0     H14565   5.829   3.080   8.925  0.4838 -2.2700  2.7485
  849MOL0     H14566   6.214   3.044   8.900 -0.2544  2.3785 -4.2993
  849MOL0     H14567   6.386   3.319   9.126  3.6063 -0.8376  0.6716
  849MOL0     H14568   6.411   3.147   9.065 -0.2615  0.0360 -1.3682
  849MOL0     H14569   6.396   3.371   8.883  0.3719  1.0126  3.3550
  849MOL0     H14570   6.433   3.212   8.843  3.6418 -0.5488 -0.9401
  849MOL0     H14571   6.566   3.441   8.991 -2.0483 -1.2169  2.5695
  849MOL0     H14572   6.636   3.354   8.856 -0.3292  2.5624 -0.4769
  849MOL0     H14573   6.598   3.234   9.153  2.5335 -3.1382  1.5789
  849MOL0     H14574   6.747   3.311   9.099  1.6859 -2.3415 -0.6983
  849MOL0     H14575   6.795   2.929   8.917  2.7008  0.8705  5.2890
  849MOL0     H14576   6.946   2.833   8.653 -2.3745 -2.0219  1.9951
  849MOL0     H14577   7.103   2.845   8.748 -0.2456 -2.0849  2.8057
  849MOL0     H14578   6.948   2.780   8.819 -2.1099  0.5764  0.0723
  849MOL0     H14579   7.072   3.269   8.392  0.1657  0.6637 -2.7715
  849MOL0     H14580   7.163   3.403   8.219 -1.8874 -1.6882  0.2784
  849MOL0     H14581   7.412   3.295   8.008  0.1193 -0.7665  2.1384
  849MOL0     H14582   7.293   3.414   8.040 -1.0882 -3.2082 -1.7578
  849MOL0     H14583   7.452   3.595   7.961 -0.5751  0.5091 -1.7823
  849MOL0     H14584   7.581   3.480   7.949 -0.3213 -1.6668  0.0835
  849MOL0     H14585   7.334   3.497   7.772  1.1662  4.1640 -1.5842
  849MOL0     H14586   7.438   3.349   7.787  0.4786  0.2765  1.3105
  849MOL0     H14587   7.534   3.616   7.677  4.3426 -0.3394  0.0162
  849MOL0     H14588   7.616   3.452   7.684  1.2143  2.1475  3.2869
  849MOL0     H14589   7.369   3.532   7.530 -0.7535  0.2488  0.9366
  849MOL0     H14590   7.409   3.362   7.552  2.7447 -1.2240  2.2787
  849MOL0     H14591   7.615   3.560   7.453  3.1501 -3.9658  3.9731
  849MOL0     H14592   7.630   3.396   7.443 -0.1758  1.3116 -0.1777
  849MOL0     H14593   7.463   3.385   7.241  0.7472  0.1223  0.1638
  849MOL0     H14594   7.600   3.488   7.211  1.0221  2.6435  0.7791
  849MOL0     H14595   7.459   3.692   7.292  3.8979 -2.1945  2.4424
  849MOL0     H14596   7.315   3.584   7.299 -1.0718  2.9104 -3.1552
  849MOL0     H14597   7.554   3.370   8.385  0.5160 -2.4854  0.6390
  849MOL0     H14598   7.459   3.260   8.575  2.0329 -2.2291 -3.2891
  849MOL0     H14599   7.049   3.318   8.752 -0.5862  0.0162 -2.6728
  849MOL0     H14600   6.852   3.346   8.909  0.0849 -0.6777  1.9722
  849MOL0     H14601   5.320   3.130   8.253  2.9322 -0.4945 -0.8384
  849MOL0     H14602   5.087   3.217   8.157  0.5213  0.5628  1.2150
  849MOL0     H14603   5.002   3.617   7.673 -0.2661  1.9449  2.8875
  849MOL0     H14604   4.809   3.686   7.578  0.8150 -0.1250  1.2909
  849MOL0     H14605   4.554   3.775   7.623  3.0726  0.8226 -0.5859
  849MOL0     H14606   4.621   3.705   7.482 -3.8630 -0.9767 -5.9394
  849MOL0     H14607   4.401   3.784   7.406  2.2401  4.4408  4.1820
  849MOL0     H14608   4.316   3.719   7.558 -0.5174  1.8378 -1.0039
  849MOL0     H14609   4.386   3.492   7.458  1.7506 -1.5492 -3.8578
  849MOL0     H14610   4.427   3.577   7.311  1.8890 -0.0358  0.3132
  849MOL0     H14611   4.145   3.652   7.427 -1.5436 -1.4839 -1.0425
  849MOL0     H14612   4.171   3.485   7.410  2.2517 -0.8217  0.3936
  849MOL0     H14613   4.115   3.628   7.018  3.4862  2.5677 -0.6821
  849MOL0     H14614   4.581   3.414   7.821 -3.1710  2.0726 -1.2710
  849MOL0     H14615   4.784   3.317   7.898 -1.7019 -1.6539 -1.5689
  850MOL0     O14616   2.079   2.891   4.986  0.1769  0.3197 -1.0314
  850MOL0     C14617   2.017   2.863   5.096  0.1833 -0.5513  0.6776
  850MOL0     O14618   1.959   2.950   5.186 -0.4419 -0.1534 -0.1889
  850MOL0     C14619   1.987   3.084   5.162  0.3419  0.0906  0.2808
  850MOL0     C14620   1.891   3.137   5.075  0.1364 -0.3618 -0.1369
  850MOL0     C14621   1.916   3.272   5.038 -0.1083 -0.2019  0.2147
  850MOL0     C14622   2.015   3.346   5.103  0.5280 -0.0875 -0.2494
  850MOL0     O14623   2.020   3.487   5.081  0.2381  0.1596 -0.4303
  850MOL0     C14624   2.096   3.580   5.163 -0.3191 -0.1396  0.7092
  850MOL0     C14625   2.043   3.582   5.310  0.2449 -0.0982 -0.9843
  850MOL0     C14626   2.174   3.598   5.394 -0.1338  0.3970 -0.0245
  850MOL0     C14627   2.215   3.747   5.419  0.4900 -0.2814 -0.5899
  850MOL0     C14628   2.338   3.766   5.519 -0.3148  0.4599  0.5170
  850MOL0     C14629   2.375   3.909   5.529 -0.5474 -0.1461  0.2377
  850MOL0     C14630   2.503   3.916   5.615 -0.3290 -0.0420  0.0795
  850MOL0     C14631   2.477   3.892   5.768 -0.1060 -0.0290  0.4900
  850MOL0     N14632   2.580   3.930   5.865 -0.6486 -1.0225 -0.0681
  850MOL0     C14633   2.579   4.054   5.932  0.2084 -0.7054 -0.0036
  850MOL0     C14634   2.693   4.062   6.003  0.6081 -0.1593 -0.7380
  850MOL0     C14635   2.739   4.168   6.102 -0.7069  0.1540  0.3383
  850MOL0     C14636   2.628   4.245   6.170  0.6221  0.4300  1.2018
  850MOL0     C14637   2.678   4.308   6.301 -0.2514  0.5606  0.0002
  850MOL0     C14638   2.765   4.431   6.282 -0.8752  0.2248 -0.9230
  850MOL0     O14639   2.704   4.535   6.221  0.3120  0.1719 -0.3440
  850MOL0     C14640   2.770   4.652   6.203 -0.2299 -0.0001  0.2943
  850MOL0     C14641   2.909   4.670   6.239 -0.6178  0.3531  0.8667
  850MOL0     C14642   2.977   4.794   6.212  0.0569  0.0571  0.4320
  850MOL0     C14643   3.119   4.800   6.258 -0.0548  0.2570 -0.2667
  850MOL0     C14644   2.909   4.902   6.157 -0.0555  0.5475  0.3055
  850MOL0     C14645   2.975   5.029   6.120  0.3087 -0.1544  0.1202
  850MOL0     O14646   2.897   5.118   6.049 -0.3949 -0.0690  0.2649
  850MOL0     C14647   2.957   5.233   6.004  0.4691  0.1122 -0.7776
  850MOL0     C14648   2.930   5.353   6.067  0.2270 -0.2162 -0.0007
  850MOL0     C14649   2.971   5.470   6.009  0.2503  0.9656  0.4212
  850MOL0     C14650   3.036   5.472   5.886 -0.7179  0.4869  1.2909
  850MOL0     O14651   3.093   5.583   5.819  0.1166 -0.0018 -1.0519
  850MOL0     C14652   3.019   5.707   5.819  0.4789 -0.0803  0.3406
  850MOL0     C14653   3.031   5.769   5.683 -0.9674 -0.5331  0.2322
  850MOL0     C14654   2.976   5.682   5.567  0.3021 -0.3283 -0.2130
  850MOL0     C14655   2.980   5.761   5.440  0.7475  0.0021 -0.5664
  850MOL0     C14656   2.910   5.687   5.331  0.3847 -0.4875  0.5497
  850MOL0     C14657   2.917   5.780   5.201  0.7809  0.6876 -0.1614
  850MOL0     C14658   3.056   5.765   5.123  0.3876 -0.0999 -0.4445
  850MOL0     C14659   3.085   5.641   5.040 -0.4139  0.0210  0.1151
  850MOL0    Cl14660   2.969   5.631   4.903  0.2855 -0.5112 -0.0315
  850MOL0     C14661   3.067   5.350   5.825  0.1011  0.4050  0.2946
  850MOL0     C14662   3.018   5.229   5.882 -0.3059 -0.3280 -0.1308
  850MOL0     O14663   3.098   5.048   6.127 -0.2575  0.1163  0.2822
  850MOL0     C14664   2.773   4.882   6.126 -0.6940  0.4618  0.1640
  850MOL0     C14665   2.710   4.765   6.146  0.1056  0.5798  0.3551
  850MOL0     N14666   2.766   3.950   5.973 -0.0303 -0.2019 -0.6261
  850MOL0     N14667   2.706   3.875   5.892  0.3593  1.1085  0.0824
  850MOL0     C14668   2.107   3.280   5.191 -0.1778 -0.8156  0.7669
  850MOL0     C14669   2.095   3.145   5.222  1.1822  0.0997 -0.0387
  850MOL0     C14670   2.024   2.725   5.145  0.0157  0.0865  1.2518
  850MOL0     C14671   1.952   2.679   5.251  0.0751 -0.0702  1.1106
  850MOL0     C14672   1.960   2.548   5.289 -0.5097  0.0315  0.3607
  850MOL0     C14673   2.040   2.455   5.225 -0.1889 -0.2464 -0.1654
  850MOL0     O14674   2.050   2.326   5.272 -0.5824  0.1496 -0.3660
  850MOL0     C14675   2.164   2.244   5.240 -0.0618 -0.2980  1.0562
  850MOL0     C14676   2.159   2.119   5.326 -0.0889 -0.4285  0.2495
  850MOL0     C14677   2.295   2.083   5.391  0.4853 -0.0079  0.7080
  850MOL0     C14678   2.411   2.070   5.287  0.4032  0.0647  0.1797
  850MOL0     C14679   2.527   2.124   5.355  0.6739  0.2097 -1.2794
  850MOL0     C14680   2.620   2.178   5.421 -0.6790  0.3725 -0.0257
  850MOL0     C14681   2.109   2.498   5.107  0.8428 -0.1680 -0.0889
  850MOL0     C14682   2.096   2.634   5.072 -0.0802  0.4069 -0.0083
  850MOL0     H14683   1.805   3.079   5.043  0.7905 -0.5163 -1.7424
  850MOL0     H14684   1.852   3.316   4.962 -1.3194  0.6778  1.6997
  850MOL0     H14685   2.203   3.565   5.144 -0.6081 -2.5021  0.6443
  850MOL0     H14686   2.076   3.680   5.122  0.9168 -1.1625 -2.7060
  850MOL0     H14687   1.969   3.657   5.338  1.1537  0.7452 -0.7771
  850MOL0     H14688   2.005   3.482   5.334  3.1962 -0.6912  1.8925
  850MOL0     H14689   2.160   3.563   5.496  0.8342  3.8882  1.4607
  850MOL0     H14690   2.257   3.541   5.353  1.2542  1.4034  1.2849
  850MOL0     H14691   2.250   3.774   5.319  4.2471 -0.8480  0.3885
  850MOL0     H14692   2.131   3.811   5.444  2.1009  1.5012  0.5783
  850MOL0     H14693   2.316   3.732   5.620  1.9531 -2.5908  0.1318
  850MOL0     H14694   2.419   3.705   5.477 -1.0194 -1.4899  1.8297
  850MOL0     H14695   2.385   3.954   5.430 -1.6701 -1.6567 -0.6183
  850MOL0     H14696   2.290   3.958   5.577 -3.4962 -1.3730 -3.2716
  850MOL0     H14697   2.579   3.845   5.580 -2.3045 -3.3894  1.9681
  850MOL0     H14698   2.544   4.017   5.610  0.6658 -0.4992 -2.3088
  850MOL0     H14699   2.466   3.783   5.774  1.0019 -0.1419  0.7140
  850MOL0     H14700   2.382   3.941   5.790  0.6535  1.1061  1.3914
  850MOL0     H14701   2.514   4.140   5.919  3.4808  1.8241 -0.8549
  850MOL0     H14702   2.791   4.116   6.183 -1.7478  3.1977  3.2189
  850MOL0     H14703   2.809   4.230   6.044  0.0389 -1.9799 -1.1509
  850MOL0     H14704   2.546   4.177   6.194  1.2669 -1.4289 -1.4027
  850MOL0     H14705   2.588   4.321   6.102  1.3591 -1.2162 -1.2295
  850MOL0     H14706   2.742   4.242   6.361  0.6994  1.4163 -0.0333
  850MOL0     H14707   2.591   4.330   6.362 -1.0220  0.7998 -1.1624
  850MOL0     H14708   2.850   4.401   6.221  1.1967  1.5977  1.0929
  850MOL0     H14709   2.806   4.453   6.381  1.6199 -1.4960 -1.4768
  850MOL0     H14710   2.964   4.586   6.280 -1.7665 -0.7790  0.1896
  850MOL0     H14711   3.139   4.861   6.347  0.8515  1.6615 -1.3865
  850MOL0     H14712   3.144   4.697   6.285  1.3718  0.1259 -1.8935
  850MOL0     H14713   3.184   4.839   6.179 -0.7369  2.4978  0.1943
  850MOL0     H14714   2.867   5.339   6.154 -3.9141 -4.5525 -3.1907
  850MOL0     H14715   2.939   5.564   6.054 -3.2700  1.6097 -2.8617
  850MOL0     H14716   2.914   5.693   5.846  0.6861 -0.5995  0.8998
  850MOL0     H14717   3.064   5.775   5.893  2.3268  1.0767 -1.6879
  850MOL0     H14718   2.992   5.871   5.691 -0.7524 -0.4454  0.1720
  850MOL0     H14719   3.135   5.786   5.653 -1.5396  1.0925 -0.9577
  850MOL0     H14720   2.876   5.647   5.593  0.4227 -2.1038 -1.9738
  850MOL0     H14721   3.040   5.593   5.560  3.4512  1.7048  0.2816
  850MOL0     H14722   2.922   5.853   5.451  2.3645  0.8972  1.0046
  850MOL0     H14723   3.079   5.800   5.415 -0.4379  2.4163 -1.7225
  850MOL0     H14724   2.810   5.666   5.368  0.1887 -0.6784 -0.0671
  850MOL0     H14725   2.948   5.588   5.303 -0.2652 -0.2365 -1.4201
  850MOL0     H14726   2.836   5.741   5.138  1.4920  0.4115 -0.9338
  850MOL0     H14727   2.899   5.880   5.240 -2.1333 -0.2179  1.1350
  850MOL0     H14728   3.139   5.771   5.195  0.1953 -1.0044 -0.1399
  850MOL0     H14729   3.058   5.844   5.047 -0.6023 -0.2181 -0.5993
  850MOL0     H14730   3.072   5.555   5.107  0.6022 -1.5485 -1.5985
  850MOL0     H14731   3.191   5.635   5.011 -0.8530  1.4943 -2.0009
  850MOL0     H14732   3.124   5.332   5.734  0.1293 -0.3214  0.4498
  850MOL0     H14733   3.026   5.136   5.827  1.9659  1.4003 -2.9740
  850MOL0     H14734   2.723   4.962   6.073  1.2880  3.2718  2.2163
  850MOL0     H14735   2.603   4.760   6.130 -0.0717 -1.9949  1.6652
  850MOL0     H14736   2.187   3.331   5.243  1.1286 -0.5550 -1.3707
  850MOL0     H14737   2.151   3.098   5.301  1.5176 -0.5900 -0.6763
  850MOL0     H14738   1.896   2.762   5.293 -1.6383  2.2966 -4.8255
  850MOL0     H14739   1.903   2.530   5.380 -1.1198  2.6798  0.5927
  850MOL0     H14740   2.155   2.214   5.135  1.5795  1.8232  0.2380
  850MOL0     H14741   2.257   2.300   5.255 -1.4787  1.3011  4.9586
  850MOL0     H14742   2.129   2.035   5.262  0.5350  0.3768 -1.1324
  850MOL0     H14743   2.080   2.127   5.402 -0.9088  1.2049 -0.7263
  850MOL0     H14744   2.290   1.987   5.442 -0.4493 -0.4322 -0.1473
  850MOL0     H14745   2.326   2.163   5.459  0.8542  1.9254 -1.5958
  850MOL0     H14746   2.395   2.128   5.195 -2.4238  2.3644  1.9433
  850MOL0     H14747   2.421   1.962   5.271 -0.1069 -0.0040  0.3115
  850MOL0     H14748   2.701   2.200   5.487 -0.5146 -2.4095  0.8175
  850MOL0     H14749   2.166   2.424   5.052 -0.8910 -0.6047 -1.4062
  850MOL0     H14750   2.146   2.667   4.981 -1.4696 -0.4710 -1.1319
  851MOL0     O14751   1.614   3.992   1.048 -0.8342 -0.5009 -0.3439
  851MOL0     C14752   1.642   4.105   1.086  0.2606 -0.6454  0.1304
  851MOL0     O14753   1.696   4.138   1.207 -0.0842  0.3486  0.3957
  851MOL0     C14754   1.726   4.035   1.292  0.8157  1.0495  0.4657
  851MOL0     C14755   1.844   3.961   1.293  0.2862 -0.0188 -0.2532
  851MOL0     C14756   1.869   3.860   1.389 -1.3136 -0.5323  0.1860
  851MOL0     C14757   1.779   3.815   1.479  0.1705  0.7845  0.8866
  851MOL0     O14758   1.803   3.711   1.574  0.8200  0.1783  0.6065
  851MOL0     C14759   1.714   3.685   1.679  1.0160 -0.2039  0.1861
  851MOL0     C14760   1.762   3.579   1.774  0.7854 -0.9666 -0.8051
  851MOL0     C14761   1.737   3.445   1.702  1.0212 -0.2689  0.4713
  851MOL0     C14762   1.773   3.345   1.807  0.0328  0.2097 -0.4151
  851MOL0     C14763   1.726   3.203   1.750 -0.6966 -0.3014  0.0690
  851MOL0     C14764   1.799   3.097   1.830  0.0871 -0.2802  0.0653
  851MOL0     C14765   1.753   3.086   1.974  0.5298 -0.3907 -0.0954
  851MOL0     C14766   1.798   2.949   2.024 -0.1915 -0.6474  0.8255
  851MOL0     N14767   1.749   2.920   2.158  0.5932  0.6327  0.5295
  851MOL0     C14768   1.620   2.883   2.204  0.2015  0.7595 -0.2965
  851MOL0     C14769   1.622   2.894   2.339 -0.3239 -0.1023  0.0569
  851MOL0     C14770   1.496   2.881   2.426  0.4186  0.6323 -0.3740
  851MOL0     C14771   1.366   2.932   2.368  0.3490  0.0309  0.4410
  851MOL0     C14772   1.254   2.826   2.359 -0.3869  0.4775  0.2691
  851MOL0     C14773   1.131   2.863   2.277 -0.3848  0.1729  0.1020
  851MOL0     O14774   1.163   2.893   2.144  0.0611 -0.0886  0.2802
  851MOL0     C14775   1.154   3.028   2.109  0.0283 -0.2958 -0.0115
  851MOL0     C14776   1.035   3.097   2.122  0.0793 -1.2776 -0.7143
  851MOL0     C14777   1.043   3.236   2.077 -0.0673 -0.1137  1.3771
  851MOL0     C14778   0.917   3.314   2.097  0.4121  0.1627 -0.5318
  851MOL0     C14779   1.152   3.293   2.019 -0.7108 -0.4091  0.6288
  851MOL0     C14780   1.163   3.430   1.953  0.8315 -0.2680 -0.7095
  851MOL0     O14781   1.291   3.459   1.905 -0.1859 -0.2303 -0.5130
  851MOL0     C14782   1.328   3.594   1.895 -0.5121  0.1999  1.0933
  851MOL0     C14783   1.335   3.686   2.004 -0.4661  0.1875 -0.3636
  851MOL0     C14784   1.366   3.818   1.991  0.0546 -0.3246  0.2409
  851MOL0     C14785   1.387   3.857   1.861  0.7433  0.3686  0.4797
  851MOL0     O14786   1.444   3.978   1.845  0.3022 -0.1409 -0.5808
  851MOL0     C14787   1.363   4.089   1.815 -0.2232  0.0801  0.8559
  851MOL0     C14788   1.449   4.212   1.784 -0.8121 -0.1320  0.6489
  851MOL0     C14789   1.372   4.336   1.818  0.2882 -0.0313  0.1019
  851MOL0     C14790   1.447   4.459   1.782 -0.5146 -0.6960 -0.1351
  851MOL0     C14791   1.386   4.591   1.828  0.6867  0.4454  0.3576
  851MOL0     C14792   1.241   4.614   1.776 -0.7868  0.1832  0.4148
  851MOL0     C14793   1.168   4.739   1.838  0.3866 -0.6528  0.2476
  851MOL0     C14794   1.073   4.793   1.737  0.0776  0.2268 -0.3676
  851MOL0    Cl14795   1.149   4.895   1.605  0.0208 -0.0405  0.1561
  851MOL0     C14796   1.370   3.777   1.749 -0.1406 -0.5041 -0.3921
  851MOL0     C14797   1.343   3.640   1.766  0.2591 -0.4552 -0.6404
  851MOL0     O14798   1.072   3.509   1.960 -0.1783  0.1581  0.2425
  851MOL0     C14799   1.266   3.209   1.997 -0.3656  0.2635 -0.1618
  851MOL0     C14800   1.263   3.077   2.043 -0.1756 -0.2563  0.8929
  851MOL0     N14801   1.754   2.928   2.372 -0.0563  0.9506  0.7547
  851MOL0     N14802   1.820   2.951   2.264 -0.6074 -0.1958  0.7335
  851MOL0     C14803   1.651   3.880   1.476 -0.4794  0.1547 -1.3694
  851MOL0     C14804   1.627   3.981   1.379 -0.3074  0.1132 -0.2422
  851MOL0     C14805   1.593   4.207   0.990  1.1612 -0.1393 -0.4696
  851MOL0     C14806   1.609   4.345   1.023  0.0932  0.1031 -0.3207
  851MOL0     C14807   1.560   4.433   0.931 -0.4055  0.5577 -0.6388
  851MOL0     C14808   1.507   4.398   0.809 -0.3186 -1.7581 -0.7541
  851MOL0     O14809   1.463   4.504   0.728  0.0624  0.3766 -0.2472
  851MOL0     C14810   1.326   4.495   0.684  0.4751 -0.0703 -0.5587
  851MOL0     C14811   1.332   4.507   0.528  1.1540  0.2987 -0.3234
  851MOL0     C14812   1.198   4.539   0.465 -0.3920  0.3167  0.0251
  851MOL0     C14813   1.144   4.677   0.520  0.5192  0.0166 -0.1417
  851MOL0     C14814   1.232   4.790   0.510 -0.0114 -0.1650  0.4794
  851MOL0     C14815   1.319   4.877   0.505 -0.1138  0.0156 -0.5694
  851MOL0     C14816   1.498   4.266   0.774 -0.4356 -1.0844  0.4577
  851MOL0     C14817   1.526   4.165   0.863  0.0855  0.3336  0.0092
  851MOL0     H14818   1.924   3.977   1.221  0.6591 -2.4034 -0.4278
  851MOL0     H14819   1.964   3.809   1.379  0.0025  1.9742 -0.8890
  851MOL0     H14820   1.696   3.776   1.736 -1.7048  0.3382 -1.3441
  851MOL0     H14821   1.618   3.663   1.629  0.3335  4.2724 -0.9471
  851MOL0     H14822   1.869   3.576   1.793  0.6377 -0.1588  0.2192
  851MOL0     H14823   1.712   3.579   1.871 -1.1920  0.0656 -1.7525
  851MOL0     H14824   1.631   3.436   1.674  1.1846 -0.6005 -0.0555
  851MOL0     H14825   1.804   3.439   1.615  2.9728 -1.4407  1.9678
  851MOL0     H14826   1.882   3.341   1.815  0.1325 -1.8148 -1.9808
  851MOL0     H14827   1.726   3.370   1.902 -4.1861  1.5812 -2.6166
  851MOL0     H14828   1.620   3.193   1.775  0.1785 -1.4961  3.9877
  851MOL0     H14829   1.747   3.200   1.643 -1.9272  1.2161 -0.2478
  851MOL0     H14830   1.788   2.997   1.788 -0.0874  0.3899 -1.5304
  851MOL0     H14831   1.907   3.108   1.840  0.4314  2.0310 -4.0775
  851MOL0     H14832   1.813   3.164   2.021  3.1254 -3.6003  2.4002
  851MOL0     H14833   1.644   3.096   1.967 -0.0426 -4.6233 -0.2588
  851MOL0     H14834   1.907   2.951   2.021 -0.0817  1.7421  2.8661
  851MOL0     H14835   1.748   2.883   1.953 -1.4519  0.2041  0.8937
  851MOL0     H14836   1.528   2.868   2.149 -0.3488  1.9004  0.2688
  851MOL0     H14837   1.484   2.774   2.445  3.0278  0.0060 -1.7997
  851MOL0     H14838   1.513   2.941   2.516  1.5250  1.9522 -1.4191
  851MOL0     H14839   1.390   2.960   2.266  1.0536 -4.2992 -0.7826
  851MOL0     H14840   1.335   3.018   2.428  0.7269 -0.5361  1.4772
  851MOL0     H14841   1.211   2.808   2.458 -2.2017  0.2514 -0.5209
  851MOL0     H14842   1.289   2.730   2.319 -1.3457  1.0480 -2.0761
  851MOL0     H14843   1.067   2.938   2.326 -2.1175 -1.5307  0.5685
  851MOL0     H14844   1.071   2.772   2.278  0.5479 -0.9180 -5.9674
  851MOL0     H14845   0.952   3.062   2.182  1.5556 -3.4020  0.2044
  851MOL0     H14846   0.830   3.253   2.125  0.6287  0.3248  0.5344
  851MOL0     H14847   0.937   3.389   2.174 -1.1597  1.7764 -1.5921
  851MOL0     H14848   0.890   3.369   2.006  4.0390  1.2308 -1.0825
  851MOL0     H14849   1.312   3.668   2.108 -2.2898 -0.7056 -0.8918
  851MOL0     H14850   1.378   3.888   2.073  0.7433 -0.2316  0.0605
  851MOL0     H14851   1.301   4.047   1.735 -0.6537 -0.1763  1.3130
  851MOL0     H14852   1.306   4.117   1.905  0.5484  1.9341  0.8079
  851MOL0     H14853   1.546   4.208   1.835 -1.8854  0.7735  2.9306
  851MOL0     H14854   1.482   4.201   1.681  0.1400  0.2032  0.9133
  851MOL0     H14855   1.339   4.348   1.922 -0.5731 -1.7464  0.0590
  851MOL0     H14856   1.283   4.331   1.755 -2.2204 -1.4892  3.4464
  851MOL0     H14857   1.551   4.466   1.815 -0.6108  1.0695 -0.1186
  851MOL0     H14858   1.464   4.471   1.674  0.7294 -0.5260  0.0648
  851MOL0     H14859   1.454   4.673   1.803 -0.9680  2.0028  0.7255
  851MOL0     H14860   1.389   4.586   1.938  0.4271  2.2059  0.4868
  851MOL0     H14861   1.263   4.648   1.674 -1.3513  2.6704  1.0583
  851MOL0     H14862   1.180   4.523   1.781  0.9868 -1.0822 -0.1393
  851MOL0     H14863   1.249   4.812   1.844 -2.1932  2.7233 -2.0453
  851MOL0     H14864   1.128   4.717   1.938 -2.2753  3.6675  0.3623
  851MOL0     H14865   0.998   4.859   1.781 -1.6244 -2.4808  1.0249
  851MOL0     H14866   1.019   4.704   1.705  0.2472 -0.8921  2.1843
  851MOL0     H14867   1.382   3.820   1.650  0.1767  2.6662  0.8999
  851MOL0     H14868   1.319   3.576   1.681 -0.6482 -0.7454 -0.1730
  851MOL0     H14869   1.360   3.231   1.948  1.5703 -4.7413  0.6802
  851MOL0     H14870   1.344   3.010   2.017  0.1128  0.2678  0.4082
  851MOL0     H14871   1.568   3.850   1.539 -0.2066  0.9605 -0.5980
  851MOL0     H14872   1.528   4.021   1.357  0.0970 -0.7874 -4.5567
  851MOL0     H14873   1.642   4.379   1.121 -0.0856  1.5520 -0.7437
  851MOL0     H14874   1.570   4.540   0.949  3.4359 -0.0304  1.9917
  851MOL0     H14875   1.267   4.405   0.707  0.5553 -0.8201 -2.9478
  851MOL0     H14876   1.270   4.582   0.718  0.8290 -0.1330  0.1965
  851MOL0     H14877   1.349   4.405   0.490 -1.0882 -0.8629  1.5160
  851MOL0     H14878   1.409   4.574   0.489 -0.9472  2.3410 -1.1793
  851MOL0     H14879   1.116   4.469   0.486 -0.0451 -0.2132 -0.3470
  851MOL0     H14880   1.219   4.542   0.358  1.9821 -0.7207  0.3869
  851MOL0     H14881   1.117   4.677   0.626  0.9507 -1.8636  0.0017
  851MOL0     H14882   1.058   4.701   0.457  0.0331  0.4320  0.6663
  851MOL0     H14883   1.408   4.936   0.498 -0.2245  0.2423 -0.0817
  851MOL0     H14884   1.466   4.243   0.673 -1.3334  1.4440  0.0929
  851MOL0     H14885   1.517   4.058   0.846  2.4336  0.1698 -0.4817
  852MOL0     O14886   9.655   1.953   7.714 -0.1465  0.1515  0.4593
  852MOL0     C14887   9.667   1.919   7.830 -0.2001 -0.7087  0.4580
  852MOL0     O14888   9.566   1.856   7.906 -0.0710 -0.2982  0.5813
  852MOL0     C14889   9.439   1.852   7.854  0.6943  0.1637 -0.5196
  852MOL0     C14890   9.349   1.927   7.926 -0.9689  0.2160  0.6705
  852MOL0     C14891   9.221   1.950   7.878 -0.4886 -0.7330  0.2522
  852MOL0     C14892   9.179   1.885   7.757 -0.0718 -0.6265 -0.7982
  852MOL0     O14893   9.049   1.903   7.698 -0.3566  0.5454  0.0754
  852MOL0     C14894   8.930   1.897   7.791 -1.0996 -0.2460  0.2173
  852MOL0     C14895   8.799   1.871   7.711 -0.5359 -0.5245 -1.2881
  852MOL0     C14896   8.688   1.915   7.800  0.7753 -0.9500  0.4667
  852MOL0     C14897   8.555   1.938   7.720  0.4714  0.0657  0.2977
  852MOL0     C14898   8.446   1.972   7.828  0.0265 -1.1941 -0.0513
  852MOL0     C14899   8.307   1.998   7.766 -0.3862 -0.2283  0.7576
  852MOL0     C14900   8.206   1.877   7.774 -0.6629 -1.3490  0.0270
  852MOL0     C14901   8.084   1.892   7.686  0.3406 -0.2948  0.1555
  852MOL0     N14902   8.020   1.762   7.660  0.8191 -0.0905 -0.9033
  852MOL0     C14903   8.017   1.698   7.542 -0.3629  0.5707  0.6021
  852MOL0     C14904   7.912   1.614   7.553  0.7489 -0.2793 -0.5022
  852MOL0     C14905   7.866   1.503   7.464 -0.3877 -0.2560 -0.2052
  852MOL0     C14906   7.711   1.465   7.483  0.0415  0.3049  0.2073
  852MOL0     C14907   7.629   1.594   7.443 -0.2732 -0.0777 -0.4030
  852MOL0     C14908   7.483   1.546   7.443 -0.7190 -0.4143 -0.2611
  852MOL0     O14909   7.458   1.457   7.329 -0.0626  0.0422  0.2576
  852MOL0     C14910   7.334   1.410   7.300 -0.0974 -0.3048  0.2635
  852MOL0     C14911   7.310   1.340   7.178  0.2689  0.0258  0.0597
  852MOL0     C14912   7.188   1.275   7.148 -0.7106 -0.5394  0.4925
  852MOL0     C14913   7.174   1.204   7.019 -0.6400 -0.2341 -0.0408
  852MOL0     C14914   7.086   1.283   7.247  0.2006  0.6570  1.3756
  852MOL0     C14915   6.954   1.233   7.210  0.3817  0.5170  0.7891
  852MOL0     O14916   6.855   1.290   7.278  0.0122  0.3919  0.0993
  852MOL0     C14917   6.736   1.231   7.256 -0.2706  0.0833  0.6118
  852MOL0     C14918   6.675   1.122   7.330  0.6699  0.0882 -0.0600
  852MOL0     C14919   6.533   1.095   7.305  0.2352 -0.2216 -0.6896
  852MOL0     C14920   6.468   1.153   7.197  0.8141 -0.0941  0.2153
  852MOL0     O14921   6.347   1.113   7.164 -0.2447 -0.4662  0.6614
  852MOL0     C14922   6.333   0.989   7.090  0.2926 -0.1886 -0.3503
  852MOL0     C14923   6.419   0.969   6.959  0.2458 -0.3243 -0.1453
  852MOL0     C14924   6.360   0.860   6.869  0.2404 -0.1341 -0.5197
  852MOL0     C14925   6.360   0.724   6.943 -0.2126  0.8017  0.5265
  852MOL0     C14926   6.321   0.616   6.838 -0.2006 -1.1487  0.4448
  852MOL0     C14927   6.299   0.481   6.913  0.0366  0.2955  0.1691
  852MOL0     C14928   6.288   0.381   6.798 -0.1865 -0.8327 -0.2440
  852MOL0     C14929   6.401   0.369   6.701 -0.1027 -0.0494  0.2297
  852MOL0    Cl14930   6.540   0.306   6.794  0.1582  0.0914  0.1734
  852MOL0     C14931   6.529   1.256   7.131  0.4123  0.3128  0.4354
  852MOL0     C14932   6.662   1.293   7.157  0.0258  0.9940 -0.3111
  852MOL0     O14933   6.952   1.131   7.135 -0.5220 -0.4857 -0.2628
  852MOL0     C14934   7.102   1.366   7.362  0.6341  0.6155 -0.2594
  852MOL0     C14935   7.228   1.419   7.386 -0.2684  0.4456 -0.3764
  852MOL0     N14936   7.840   1.642   7.668 -0.1300  0.1747  0.0509
  852MOL0     N14937   7.904   1.733   7.736 -0.8109 -0.7390 -0.8235
  852MOL0     C14938   9.259   1.796   7.695  0.2194  0.3570 -0.3313
  852MOL0     C14939   9.396   1.779   7.744 -0.4899  0.7906 -0.1811
  852MOL0     C14940   9.795   1.965   7.900  1.2830  0.2591  0.4885
  852MOL0     C14941   9.814   1.944   8.031  0.5990  0.1090  0.6237
  852MOL0     C14942   9.935   1.958   8.101  0.6833 -0.0187  0.6640
  852MOL0     C14943  10.052   1.981   8.031  0.3172 -0.1760 -0.6382
  852MOL0     O14944  10.171   1.968   8.097 -0.1083 -0.4905 -0.2260
  852MOL0     C14945  10.285   2.024   8.027 -0.2310  1.2428  0.4167
  852MOL0     C14946  10.291   2.176   8.032  0.8437 -0.8448 -0.3216
  852MOL0     C14947  10.387   2.244   7.930 -0.1421  0.0268 -0.4169
  852MOL0     C14948  10.540   2.197   7.953 -0.6738 -0.7528 -0.5044
  852MOL0     C14949  10.620   2.265   7.851 -0.1627  0.8327 -0.3771
  852MOL0     C14950  10.703   2.312   7.768 -0.1131 -0.6373  0.5479
  852MOL0     C14951  10.034   1.994   7.888 -0.0626  0.0703 -0.1763
  852MOL0     C14952   9.909   2.001   7.822 -0.4309 -0.1287  0.0649
  852MOL0     H14953   9.385   1.997   8.001 -3.5947  1.1102  1.2290
  852MOL0     H14954   9.162   2.025   7.931  3.8886  1.7748  2.0821
  852MOL0     H14955   8.958   1.824   7.868 -0.4817 -1.0807 -0.7679
  852MOL0     H14956   8.931   1.995   7.839  2.6573  1.9460 -3.5613
  852MOL0     H14957   8.811   1.943   7.630 -0.9663  1.1448  0.0568
  852MOL0     H14958   8.792   1.770   7.670 -1.7477 -1.4839  1.1102
  852MOL0     H14959   8.663   1.830   7.863 -0.7332 -2.6855 -2.3071
  852MOL0     H14960   8.711   2.003   7.861  0.2689 -0.6602  0.2517
  852MOL0     H14961   8.580   2.020   7.652 -0.5467  0.1996  0.0596
  852MOL0     H14962   8.523   1.849   7.664 -1.5507  0.4935  0.6790
  852MOL0     H14963   8.451   1.881   7.889  1.8882 -1.3287 -0.3337
  852MOL0     H14964   8.484   2.055   7.888  0.5698 -1.2925 -0.2482
  852MOL0     H14965   8.253   2.073   7.824 -2.3805 -2.1937  1.5723
  852MOL0     H14966   8.318   2.021   7.659  2.1610 -1.3548  0.7094
  852MOL0     H14967   8.262   1.785   7.753 -0.3018 -1.9509  3.1949
  852MOL0     H14968   8.173   1.871   7.878 -0.5015  3.2128  0.5514
  852MOL0     H14969   8.108   1.934   7.588  0.8943 -2.4238 -0.6714
  852MOL0     H14970   8.019   1.963   7.738  0.8134  0.3507 -0.1255
  852MOL0     H14971   8.093   1.711   7.466  2.9093 -4.0566  2.5998
  852MOL0     H14972   7.892   1.541   7.365  1.5605  1.1181  0.7715
  852MOL0     H14973   7.920   1.408   7.470 -1.6462 -0.9278  1.2730
  852MOL0     H14974   7.692   1.426   7.583 -0.2027  1.8869  0.8104
  852MOL0     H14975   7.688   1.392   7.405 -0.5357  0.0415  0.6239
  852MOL0     H14976   7.647   1.632   7.342 -1.4600  2.0795  0.1343
  852MOL0     H14977   7.641   1.669   7.521  0.0043  0.1769 -0.6870
  852MOL0     H14978   7.417   1.633   7.437  0.7555  0.9562  1.9246
  852MOL0     H14979   7.451   1.503   7.538 -0.1422 -2.9563 -1.1504
  852MOL0     H14980   7.382   1.355   7.098 -2.6985 -0.3185 -2.9189
  852MOL0     H14981   7.082   1.230   6.966 -1.0316 -0.3036  0.5974
  852MOL0     H14982   7.249   1.245   6.950 -1.7602  2.2317  0.1013
  852MOL0     H14983   7.188   1.097   7.037 -1.2837 -0.2065  0.6635
  852MOL0     H14984   6.724   1.056   7.402  1.7353 -0.2153 -1.0444
  852MOL0     H14985   6.485   1.019   7.366 -0.1534  0.2675 -0.3777
  852MOL0     H14986   6.353   0.903   7.155  0.3554  0.3156  0.3080
  852MOL0     H14987   6.229   0.987   7.059  0.1549 -1.3474  0.1131
  852MOL0     H14988   6.413   1.064   6.905  2.7427  0.9117  1.5525
  852MOL0     H14989   6.524   0.949   6.980  0.7916  1.0450 -1.4437
  852MOL0     H14990   6.424   0.855   6.780  1.0337  3.5571 -0.3129
  852MOL0     H14991   6.258   0.878   6.834  0.2362 -0.2700 -0.5781
  852MOL0     H14992   6.454   0.700   6.994 -0.3278  0.0475  0.3994
  852MOL0     H14993   6.286   0.732   7.023  0.4055 -2.5006  1.6013
  852MOL0     H14994   6.408   0.615   6.772  1.0588 -0.6498  2.0525
  852MOL0     H14995   6.230   0.654   6.790 -0.3392  1.1020  2.3152
  852MOL0     H14996   6.373   0.456   6.989  0.0744 -0.9805 -0.2610
  852MOL0     H14997   6.205   0.469   6.968  2.2095 -3.4440  3.5874
  852MOL0     H14998   6.202   0.409   6.737 -1.9199  1.2980  2.9007
  852MOL0     H14999   6.280   0.280   6.841  2.4675 -0.4993  1.2886
  852MOL0     H15000   6.419   0.469   6.661  2.6021 -0.9901 -1.1260
  852MOL0     H15001   6.375   0.314   6.611  0.2670  2.6191 -1.6225
  852MOL0     H15002   6.468   1.286   7.046 -0.2551 -0.7574  0.5342
  852MOL0     H15003   6.719   1.366   7.100  0.6244  1.4978  0.9209
  852MOL0     H15004   7.018   1.386   7.427 -1.6482 -1.9050 -2.1981
  852MOL0     H15005   7.239   1.477   7.476 -0.7914 -1.5414  1.0394
  852MOL0     H15006   9.223   1.741   7.609 -2.5879  2.5033 -0.6740
  852MOL0     H15007   9.472   1.714   7.700  1.2367  1.3319  1.8025
  852MOL0     H15008   9.725   1.918   8.087 -1.2664  2.2501 -1.1442
  852MOL0     H15009   9.943   1.935   8.207  3.0855 -1.6408  0.2068
  852MOL0     H15010  10.368   1.984   8.087  0.1957 -0.7116 -1.3168
  852MOL0     H15011  10.290   1.974   7.930  0.1799  0.6227  0.7505
  852MOL0     H15012  10.316   2.208   8.134  0.7481 -0.2556 -0.4761
  852MOL0     H15013  10.188   2.199   8.004  0.6107 -1.2409  0.1906
  852MOL0     H15014  10.381   2.351   7.952 -0.8555  0.4688 -2.5152
  852MOL0     H15015  10.352   2.226   7.828 -2.6938 -1.1753  0.5773
  852MOL0     H15016  10.550   2.090   7.930  1.3908 -0.5111 -0.9615
  852MOL0     H15017  10.576   2.223   8.053 -1.7571  1.3850 -0.6158
  852MOL0     H15018  10.770   2.336   7.687 -1.4160 -0.0848 -0.3885
  852MOL0     H15019  10.125   2.006   7.831 -0.6922 -0.5159 -1.3333
  852MOL0     H15020   9.909   2.008   7.714  0.7796 -1.9842 -0.0969
  853MOL0     O15021   6.996   2.076   4.533  0.1798  0.2611 -0.6790
  853MOL0     C15022   6.990   1.952   4.514  0.7357  0.3874  1.0337
  853MOL0     O15023   7.022   1.884   4.394 -0.9489  0.1027  0.3547
  853MOL0     C15024   7.056   1.962   4.286  0.8369 -0.2896 -0.2886
  853MOL0     C15025   7.016   1.918   4.158  0.0234  0.1947  0.0445
  853MOL0     C15026   7.061   1.984   4.041  0.4318 -0.1038  0.2839
  853MOL0     C15027   7.154   2.086   4.056  0.1413  0.1608 -0.9900
  853MOL0     O15028   7.194   2.159   3.946  0.0116  0.2280  0.0915
  853MOL0     C15029   7.098   2.244   3.885  0.5857 -0.1599  0.4710
  853MOL0     C15030   7.148   2.374   3.816 -0.1842  0.8169  0.3035
  853MOL0     C15031   7.257   2.448   3.895 -0.3910  0.9134  0.1953
  853MOL0     C15032   7.258   2.600   3.875  0.6708  0.7957  0.1133
  853MOL0     C15033   7.361   2.663   3.965  0.3626 -0.0138 -0.4394
  853MOL0     C15034   7.374   2.808   3.923 -0.8058  0.7564  0.1336
  853MOL0     C15035   7.519   2.860   3.943 -1.1370 -0.1372  0.0882
  853MOL0     C15036   7.556   2.884   4.093  0.2994 -0.2512  0.4115
  853MOL0     N15037   7.452   2.956   4.160  0.7084  0.3874 -0.4434
  853MOL0     C15038   7.377   2.893   4.255  0.5395  0.7108 -0.5407
  853MOL0     C15039   7.287   2.993   4.281 -0.0591  0.6275 -0.2097
  853MOL0     C15040   7.164   2.983   4.366  0.5156  0.3895 -0.8041
  853MOL0     C15041   7.101   2.840   4.389  0.1331 -0.4342 -0.9731
  853MOL0     C15042   7.031   2.794   4.265 -0.3954 -0.0495 -0.2136
  853MOL0     C15043   6.981   2.644   4.268  0.1067  0.3413  0.0634
  853MOL0     O15044   6.897   2.601   4.163  0.2193 -1.0155  1.9324
  853MOL0     C15045   6.846   2.477   4.138  0.0946 -0.7528  0.1967
  853MOL0     C15046   6.827   2.433   4.002 -0.4904 -0.4127 -0.3776
  853MOL0     C15047   6.761   2.309   3.978 -0.0116  0.3951 -0.8934
  853MOL0     C15048   6.713   2.286   3.837  0.0319 -0.2227  0.2628
  853MOL0     C15049   6.724   2.223   4.090 -0.3079 -0.4206  0.1344
  853MOL0     C15050   6.669   2.087   4.074  0.1467 -0.7300  0.3539
  853MOL0     O15051   6.639   2.033   4.192 -0.1605 -0.0806  0.8943
  853MOL0     C15052   6.608   1.901   4.196  0.5694 -0.0768 -0.0583
  853MOL0     C15053   6.628   1.853   4.326  0.9562  0.2644  0.4760
  853MOL0     C15054   6.571   1.735   4.371 -0.6165  1.6463  0.5408
  853MOL0     C15055   6.494   1.652   4.285 -1.0160  0.5930 -0.3894
  853MOL0     O15056   6.435   1.537   4.335 -0.3336  0.3487 -0.1639
  853MOL0     C15057   6.343   1.470   4.246 -0.3762  0.1468 -0.0378
  853MOL0     C15058   6.354   1.326   4.282  0.9693  0.8584  1.2282
  853MOL0     C15059   6.324   1.287   4.417  1.0413 -0.7325  0.2015
  853MOL0     C15060   6.176   1.293   4.458  0.0081 -0.3222 -0.4921
  853MOL0     C15061   6.166   1.248   4.609  0.2918 -0.7988 -1.2453
  853MOL0     C15062   6.201   1.100   4.624  0.7932 -0.5595 -0.6596
  853MOL0     C15063   6.146   1.026   4.756  0.3494 -0.3190  0.5824
  853MOL0     C15064   6.235   1.079   4.864  0.7011 -0.0964  0.0637
  853MOL0    Cl15065   6.178   1.019   5.017 -0.2893  0.0029 -0.2806
  853MOL0     C15066   6.468   1.711   4.154  1.0357 -0.3221  0.5874
  853MOL0     C15067   6.523   1.830   4.113  0.3920 -0.3477 -0.7082
  853MOL0     O15068   6.675   2.027   3.964  0.3470  0.3768 -0.6861
  853MOL0     C15069   6.751   2.276   4.220  0.7305 -0.2584 -0.2299
  853MOL0     C15070   6.806   2.399   4.240 -0.4476 -0.3067 -0.1533
  853MOL0     N15071   7.326   3.116   4.222 -0.0384 -0.1081 -0.4858
  853MOL0     N15072   7.431   3.089   4.152 -0.2885 -0.1586 -0.2533
  853MOL0     C15073   7.195   2.135   4.176  0.6902 -0.0356 -0.5361
  853MOL0     C15074   7.145   2.080   4.293  0.0528  0.3891  0.6393
  853MOL0     C15075   6.942   1.868   4.634 -0.3838  0.0050 -0.6541
  853MOL0     C15076   6.935   1.930   4.758  0.5161 -0.7857  0.0411
  853MOL0     C15077   6.887   1.858   4.875 -0.3856 -0.0678  0.1354
  853MOL0     C15078   6.860   1.718   4.868  0.2592  0.6225  0.0574
  853MOL0     O15079   6.813   1.638   4.975 -0.8255  2.0384  0.7621
  853MOL0     C15080   6.736   1.693   5.085 -0.6666  0.4942  0.0827
  853MOL0     C15081   6.824   1.744   5.202  0.4613 -1.2021  0.3899
  853MOL0     C15082   6.939   1.654   5.237  1.1988  0.3716  0.1100
  853MOL0     C15083   6.895   1.535   5.320 -0.3056  0.2731  0.2563
  853MOL0     C15084   6.916   1.550   5.461 -1.0166  0.4370 -0.7941
  853MOL0     C15085   6.928   1.574   5.584  1.0210 -1.0323  0.7719
  853MOL0     C15086   6.888   1.654   4.746  0.2721  0.3739  0.5848
  853MOL0     C15087   6.927   1.726   4.631 -0.0165 -0.3993  0.0360
  853MOL0     H15088   6.953   1.830   4.150  2.9327 -1.9704 -0.7195
  853MOL0     H15089   7.030   1.946   3.944 -0.5437 -0.1243  0.5901
  853MOL0     H15090   7.044   2.174   3.820 -0.1373  0.6389  0.1753
  853MOL0     H15091   7.024   2.273   3.960  0.6968 -1.8033  1.2591
  853MOL0     H15092   7.184   2.335   3.721  0.0228  1.5751  0.0642
  853MOL0     H15093   7.066   2.441   3.790  0.3005 -0.0830 -4.2633
  853MOL0     H15094   7.238   2.427   4.001  0.9975  2.1079  0.7224
  853MOL0     H15095   7.358   2.417   3.867 -0.3567  2.3871 -1.4864
  853MOL0     H15096   7.279   2.615   3.769  4.8688 -3.5182  0.0113
  853MOL0     H15097   7.162   2.644   3.905  1.5117  1.5888  1.7720
  853MOL0     H15098   7.330   2.653   4.069  1.5294  1.4216  0.0880
  853MOL0     H15099   7.456   2.609   3.953  0.6637 -0.0988  1.8740
  853MOL0     H15100   7.346   2.823   3.819  0.9109 -2.0140 -0.8386
  853MOL0     H15101   7.303   2.876   3.971 -1.2564 -0.8778  1.9078
  853MOL0     H15102   7.591   2.791   3.898  1.4543  2.9507 -0.8668
  853MOL0     H15103   7.519   2.955   3.887  2.4283  2.3626  3.7323
  853MOL0     H15104   7.647   2.944   4.092 -2.0851  3.8354 -0.1132
  853MOL0     H15105   7.580   2.784   4.128 -0.7163 -1.0356 -0.9950
  853MOL0     H15106   7.386   2.787   4.275  0.4398  0.9440  0.8501
  853MOL0     H15107   7.197   3.023   4.463  3.1044 -0.4926 -1.2406
  853MOL0     H15108   7.083   3.045   4.326  0.7594  0.1729 -1.6464
  853MOL0     H15109   7.029   2.850   4.470 -1.8230 -0.8922 -2.5723
  853MOL0     H15110   7.180   2.773   4.424  0.0174  0.9073  2.2268
  853MOL0     H15111   7.107   2.807   4.187 -0.0051  0.9772  0.3215
  853MOL0     H15112   6.939   2.852   4.256  0.4109  0.9085 -3.7808
  853MOL0     H15113   6.935   2.627   4.365  0.4288 -0.7690  0.0399
  853MOL0     H15114   7.068   2.578   4.256  0.5575  1.0553 -0.7707
  853MOL0     H15115   6.855   2.505   3.926 -1.7663  1.8329  1.1752
  853MOL0     H15116   6.767   2.202   3.792  0.9303 -2.6422  5.1450
  853MOL0     H15117   6.607   2.259   3.847 -0.3435  1.6275  1.9645
  853MOL0     H15118   6.714   2.377   3.776  0.1511  0.4296  1.2179
  853MOL0     H15119   6.675   1.911   4.405 -1.3914  1.2110  1.2526
  853MOL0     H15120   6.583   1.697   4.472  0.2420 -3.2032 -1.1261
  853MOL0     H15121   6.242   1.508   4.267 -0.4309 -0.6084  1.1688
  853MOL0     H15122   6.372   1.474   4.141  1.6606 -2.1500  0.3412
  853MOL0     H15123   6.294   1.274   4.207  1.0986 -0.3793  1.9580
  853MOL0     H15124   6.454   1.291   4.255  0.3694  0.3104 -0.3569
  853MOL0     H15125   6.394   1.339   4.483  1.9137 -3.0535  1.1893
  853MOL0     H15126   6.347   1.181   4.409 -1.8999 -1.3874 -0.5347
  853MOL0     H15127   6.142   1.397   4.461 -1.0792 -0.6156  3.6487
  853MOL0     H15128   6.127   1.226   4.387  2.1376 -1.8711 -0.5995
  853MOL0     H15129   6.065   1.269   4.645  1.3377 -0.1816  1.5811
  853MOL0     H15130   6.227   1.312   4.674 -2.8714  1.8849 -0.6373
  853MOL0     H15131   6.144   1.064   4.538  1.6620 -0.5480 -1.2583
  853MOL0     H15132   6.305   1.068   4.618  0.9967  0.1632 -1.1434
  853MOL0     H15133   6.166   0.919   4.741  0.8469  0.1017 -2.3804
  853MOL0     H15134   6.040   1.047   4.774 -0.1316 -0.0514 -2.0783
  853MOL0     H15135   6.226   1.188   4.868 -1.7018 -0.2110 -0.7143
  853MOL0     H15136   6.336   1.039   4.853 -0.2252 -2.6603  0.2542
  853MOL0     H15137   6.392   1.673   4.086  1.6674 -1.6872  0.5991
  853MOL0     H15138   6.478   1.872   4.024 -1.7559  1.5210  1.1129
  853MOL0     H15139   6.725   2.220   4.309  1.9543  1.2001  1.1144
  853MOL0     H15140   6.817   2.431   4.343 -0.4947  0.3162 -0.3370
  853MOL0     H15141   7.270   2.214   4.178 -1.0441  1.6825 -0.6665
  853MOL0     H15142   7.184   2.111   4.390  2.9384  0.5820 -0.4777
  853MOL0     H15143   6.975   2.031   4.753  1.6549 -1.2830 -2.2933
  853MOL0     H15144   6.874   1.913   4.968  3.2089  0.4116  0.4924
  853MOL0     H15145   6.677   1.772   5.038 -3.1410 -1.8606 -1.0115
  853MOL0     H15146   6.661   1.619   5.114  1.0881 -1.1144  0.7128
  853MOL0     H15147   6.762   1.759   5.291  0.8984  0.6615  0.4206
  853MOL0     H15148   6.871   1.835   5.164  1.1000 -1.3405  0.8250
  853MOL0     H15149   7.008   1.715   5.296 -2.2669  0.4683  4.6219
  853MOL0     H15150   6.979   1.612   5.144 -2.1741 -0.9153 -0.9245
  853MOL0     H15151   6.966   1.461   5.282  0.9567  0.7988  1.5173
  853MOL0     H15152   6.794   1.502   5.292 -0.1791  1.3744 -1.6594
  853MOL0     H15153   6.917   1.600   5.687 -3.4038  0.8143  0.0560
  853MOL0     H15154   6.854   1.558   4.709 -2.3160  1.6039 -0.5117
  853MOL0     H15155   6.925   1.679   4.533  1.0835  2.0291 -1.2377
  854MOL0     O15156   8.733   2.755   9.949  0.0595 -0.1704 -0.3178
  854MOL0     C15157   8.790   2.727   9.842  0.0410  0.1170  0.4215
  854MOL0     O15158   8.863   2.617   9.815 -0.0707  0.1108 -0.4096
  854MOL0     C15159   8.865   2.522   9.905 -0.0081  0.1294  0.4253
  854MOL0     C15160   8.763   2.417   9.901  0.0802  0.2529 -0.7299
  854MOL0     C15161   8.773   2.310   9.998 -0.1896 -0.4348 -0.9280
  854MOL0     C15162   8.879   2.308  10.093 -0.0975  0.5305  0.5056
  854MOL0     O15163   8.891   2.218  10.191  0.5298 -0.9979  0.7805
  854MOL0     C15164   8.773   2.136  10.223 -0.4874  0.5467 -0.3916
  854MOL0     C15165   8.796   2.052  10.348 -0.2782 -0.1652  1.4119
  854MOL0     C15166   8.657   1.991  10.389  0.5831 -0.7513 -0.2012
  854MOL0     C15167   8.685   1.859  10.467  0.9830 -0.3346 -0.2262
  854MOL0     C15168   8.752   1.748  10.394  0.5351  0.2201 -0.5829
  854MOL0     C15169   8.764   1.632  10.477 -0.6741  0.3411 -0.2403
  854MOL0     C15170   8.860   1.521  10.421  0.4339 -0.3964 -0.1149
  854MOL0     C15171   8.772   1.424  10.342  0.3191  0.0137  0.3355
  854MOL0     N15172   8.734   1.316  10.435  0.4588  0.1176  1.1370
  854MOL0     C15173   8.775   1.185  10.427 -0.3578 -0.3055  0.9437
  854MOL0     C15174   8.710   1.117  10.522 -0.3535 -0.5972 -0.9032
  854MOL0     C15175   8.701   0.971  10.545 -0.9138  0.1745 -0.1697
  854MOL0     C15176   8.573   0.918  10.583  0.0320  0.2428 -0.0044
  854MOL0     C15177   8.460   0.975  10.485  0.0365 -0.4416  0.0611
  854MOL0     C15178   8.325   0.908  10.509  0.2724  0.2600  0.5278
  854MOL0     O15179   8.339   0.761  10.519  0.1709 -0.3899  0.2651
  854MOL0     C15180   8.226   0.687  10.538 -0.2519  0.5079 -0.3222
  854MOL0     C15181   8.249   0.551  10.562 -0.4405 -0.2908  0.2910
  854MOL0     C15182   8.148   0.462  10.594  0.9003  0.3719 -0.0587
  854MOL0     C15183   8.186   0.312  10.610 -0.2322  0.6242  0.0776
  854MOL0     C15184   8.020   0.517  10.616 -0.0627  0.0950 -0.5168
  854MOL0     C15185   7.915   0.433  10.678 -0.3503  0.9003  0.1078
  854MOL0     O15186   7.923   0.298  10.675 -0.5931  0.6186  0.5212
  854MOL0     C15187   7.835   0.213  10.731 -0.0311 -0.0825  0.4382
  854MOL0     C15188   7.815   0.206  10.867 -0.1294 -0.9028  0.3754
  854MOL0     C15189   7.733   0.112  10.925  0.0578 -0.0600 -0.2104
  854MOL0     C15190   7.669   0.012  10.855  0.9089  0.9925  0.1639
  854MOL0     O15191   7.591  -0.078  10.927 -0.6749  0.1306 -0.3836
  854MOL0     C15192   7.482  -0.150  10.871  0.2028 -0.0593 -0.0597
  854MOL0     C15193   7.535  -0.273  10.807  0.2799  0.9809 -0.2713
  854MOL0     C15194   7.421  -0.329  10.721 -1.1707 -0.5161  0.8155
  854MOL0     C15195   7.462  -0.449  10.635 -0.0245  0.2453  0.2880
  854MOL0     C15196   7.337  -0.515  10.581 -0.7013  0.0669 -0.1445
  854MOL0     C15197   7.262  -0.612  10.671 -0.7617  0.1851  0.6818
  854MOL0     C15198   7.130  -0.659  10.595 -0.5220 -0.5378  0.5512
  854MOL0     C15199   7.035  -0.775  10.654 -0.3239 -0.0805  0.3525
  854MOL0    Cl15200   6.995  -0.761  10.831  0.0018  0.1903 -0.0087
  854MOL0     C15201   7.687   0.014  10.711 -0.0281  0.0323  0.0673
  854MOL0     C15202   7.768   0.113  10.657 -0.2569 -0.6106 -0.0085
  854MOL0     O15203   7.815   0.490  10.723  0.2226  0.8765  0.5194
  854MOL0     C15204   7.999   0.654  10.580  0.4336 -0.3080  0.1246
  854MOL0     C15205   8.098   0.735  10.550 -0.3500 -0.2406 -0.2520
  854MOL0     N15206   8.634   1.210  10.592 -1.0969  0.6132 -0.8229
  854MOL0     N15207   8.644   1.319  10.537  0.4697  0.0085  1.2985
  854MOL0     C15208   8.979   2.405  10.083  0.3151  0.2949  0.8331
  854MOL0     C15209   8.968   2.515   9.995  0.1330 -0.1131 -0.1027
  854MOL0     C15210   8.778   2.820   9.732 -0.7167 -0.1825  0.2959
  854MOL0     C15211   8.774   2.961   9.756  0.9336 -0.3901 -0.1224
  854MOL0     C15212   8.803   3.053   9.655 -0.2734 -0.2344  0.2495
  854MOL0     C15213   8.831   3.018   9.533  0.1314  0.8560  0.0558
  854MOL0     O15214   8.854   3.111   9.443  0.5055  0.0961  0.4432
  854MOL0     C15215   8.882   3.072   9.302  0.2103 -0.9736  0.0486
  854MOL0     C15216   8.922   3.196   9.219  0.6124  0.5019 -0.5228
  854MOL0     C15217   8.978   3.173   9.083 -1.0027  0.2363  0.0516
  854MOL0     C15218   9.126   3.120   9.086 -0.3126 -0.0324 -0.5082
  854MOL0     C15219   9.206   3.215   9.172 -0.6585  0.4412  0.1852
  854MOL0     C15220   9.255   3.311   9.235 -0.1924  0.5771 -0.3224
  854MOL0     C15221   8.819   2.874   9.502 -0.8993  0.0809 -0.2603
  854MOL0     C15222   8.802   2.780   9.603  0.0352 -1.2841  0.2248
  854MOL0     H15223   8.679   2.428   9.833 -1.3773 -0.7997  0.8333
  854MOL0     H15224   8.710   2.224   9.978 -1.2015 -0.3223  1.5487
  854MOL0     H15225   8.685   2.199  10.238  0.0835  1.0079  1.1906
  854MOL0     H15226   8.756   2.072  10.136  1.6850  2.3992 -2.3470
  854MOL0     H15227   8.856   1.969  10.310 -0.6439  0.2703 -0.2070
  854MOL0     H15228   8.829   2.112  10.433  0.5134  1.3242  0.1201
  854MOL0     H15229   8.613   2.064  10.457 -1.3127 -0.1849 -1.9466
  854MOL0     H15230   8.582   1.981  10.310  0.5928  2.0150 -0.6367
  854MOL0     H15231   8.751   1.876  10.553 -1.8377 -0.1140  2.0277
  854MOL0     H15232   8.588   1.829  10.508 -1.3325  1.9831 -3.5101
  854MOL0     H15233   8.709   1.724  10.296  1.0479 -0.2716 -0.6891
  854MOL0     H15234   8.856   1.769  10.366  0.7148  0.1360  0.0088
  854MOL0     H15235   8.794   1.660  10.578 -5.7677 -1.1064  2.0040
  854MOL0     H15236   8.666   1.591  10.505 -1.3292  1.0393 -1.4305
  854MOL0     H15237   8.933   1.573  10.358  0.4354 -0.3981 -0.1137
  854MOL0     H15238   8.913   1.471  10.503 -0.9389 -4.2162 -1.3094
  854MOL0     H15239   8.841   1.400  10.260 -0.0416  1.7584 -0.5240
  854MOL0     H15240   8.685   1.478  10.303 -3.1566 -2.3837  3.9642
  854MOL0     H15241   8.833   1.135  10.351 -2.4902 -0.0239 -0.9857
  854MOL0     H15242   8.744   0.918  10.459 -2.0466 -3.1861  1.1869
  854MOL0     H15243   8.759   0.937  10.631 -0.3468 -3.3646 -1.7754
  854MOL0     H15244   8.538   0.947  10.683  0.8481 -0.5915  0.5422
  854MOL0     H15245   8.576   0.810  10.567  1.9092  0.7455 -4.7862
  854MOL0     H15246   8.500   0.966  10.384  5.1463 -2.6612  1.9329
  854MOL0     H15247   8.436   1.078  10.514  0.4495 -0.4776  0.5525
  854MOL0     H15248   8.253   0.938  10.433  1.5063  1.7678 -0.0962
  854MOL0     H15249   8.292   0.945  10.607 -0.4495 -2.0508  1.2215
  854MOL0     H15250   8.350   0.513  10.563 -0.7489 -1.1162  0.7529
  854MOL0     H15251   8.172   0.287  10.716 -0.4734 -0.2360 -0.1491
  854MOL0     H15252   8.130   0.253  10.537 -3.3447  2.1726  1.0081
  854MOL0     H15253   8.289   0.285  10.588 -0.2378  0.2671  0.4826
  854MOL0     H15254   7.884   0.262  10.930  0.4296 -0.1773 -0.8514
  854MOL0     H15255   7.726   0.102  11.033  1.3070 -0.4324 -0.1407
  854MOL0     H15256   7.409  -0.169  10.949  0.0970 -1.4728 -0.4775
  854MOL0     H15257   7.425  -0.096  10.795  1.4203 -0.5653 -1.3917
  854MOL0     H15258   7.624  -0.260  10.745 -1.0211 -3.5396 -3.6343
  854MOL0     H15259   7.564  -0.349  10.880  1.0797 -0.3823 -1.9179
  854MOL0     H15260   7.374  -0.250  10.661  0.8887 -0.0652 -0.2978
  854MOL0     H15261   7.345  -0.366  10.791  0.2626 -4.9709  0.3660
  854MOL0     H15262   7.526  -0.424  10.550 -1.3711  0.7761 -0.6031
  854MOL0     H15263   7.507  -0.511  10.712 -3.5244 -3.3660 -0.2737
  854MOL0     H15264   7.375  -0.573  10.497  1.8053 -0.9718  1.5707
  854MOL0     H15265   7.272  -0.435  10.544 -0.7712  0.4502  0.7647
  854MOL0     H15266   7.330  -0.695  10.693 -1.3566  0.2066  2.8344
  854MOL0     H15267   7.241  -0.559  10.764  2.6398  0.6976  1.2713
  854MOL0     H15268   7.152  -0.693  10.493 -1.3359 -1.6990  0.7341
  854MOL0     H15269   7.064  -0.572  10.586 -2.2542 -1.8108  0.4317
  854MOL0     H15270   7.083  -0.873  10.652 -1.3233 -0.7012  2.8914
  854MOL0     H15271   6.946  -0.778  10.590  1.7846  2.9097 -3.1362
  854MOL0     H15272   7.634  -0.051  10.641  0.7788 -3.1603  2.1930
  854MOL0     H15273   7.780   0.117  10.549 -2.2706 -1.2980 -0.3104
  854MOL0     H15274   7.897   0.690  10.589  0.5520 -0.2284  1.3187
  854MOL0     H15275   8.079   0.839  10.528  2.8876  0.4026 -0.5167
  854MOL0     H15276   9.065   2.412  10.149  2.7177 -0.8705 -1.9661
  854MOL0     H15277   9.047   2.587  10.012  0.3879 -0.6273  1.0137
  854MOL0     H15278   8.765   2.998   9.857  1.8932  0.5336 -0.3560
  854MOL0     H15279   8.818   3.159   9.674  0.4217 -0.3215  0.2045
  854MOL0     H15280   8.965   3.002   9.307  0.9638 -0.5778 -3.6952
  854MOL0     H15281   8.795   3.013   9.272 -1.5327  0.7675  1.4044
  854MOL0     H15282   8.983   3.258   9.284  2.5467 -1.1816 -0.6194
  854MOL0     H15283   8.825   3.247   9.212  0.3162  0.1506  0.7446
  854MOL0     H15284   8.972   3.265   9.024  0.8568 -0.9750 -2.1862
  854MOL0     H15285   8.913   3.104   9.030 -4.3822  5.7373 -4.0984
  854MOL0     H15286   9.161   3.099   8.984  0.0367 -1.6621 -0.0911
  854MOL0     H15287   9.129   3.026   9.143 -0.2094 -0.2688 -0.9000
  854MOL0     H15288   9.293   3.392   9.293  2.8984 -1.4846  0.7556
  854MOL0     H15289   8.828   2.830   9.403 -1.3742  0.5612 -0.5199
  854MOL0     H15290   8.788   2.676   9.575 -1.6366 -1.5235  1.7887
  855MOL0     O15291   3.241   1.660   5.499 -0.2773 -1.1603  0.2395
  855MOL0     C15292   3.195   1.721   5.591  0.0162 -0.2710 -0.2484
  855MOL0     O15293   3.059   1.752   5.610  0.3150 -0.5792 -0.6618
  855MOL0     C15294   2.968   1.726   5.509 -0.1852  0.1615  0.1494
  855MOL0     C15295   2.957   1.600   5.466  0.1493  0.2768  0.1234
  855MOL0     C15296   2.861   1.568   5.373 -0.2533  0.0120 -0.2413
  855MOL0     C15297   2.780   1.669   5.315  1.1281 -0.0907  0.2922
  855MOL0     O15298   2.692   1.654   5.207 -0.3026 -0.8256 -0.4285
  855MOL0     C15299   2.674   1.526   5.155 -0.3386  0.4100 -1.1628
  855MOL0     C15300   2.553   1.519   5.060  0.1672 -0.1951 -0.6163
  855MOL0     C15301   2.583   1.400   4.952 -0.9132 -0.0706 -0.3821
  855MOL0     C15302   2.486   1.412   4.841 -0.3194  0.9959  0.1731
  855MOL0     C15303   2.500   1.301   4.730 -0.1305 -0.1038 -0.0835
  855MOL0     C15304   2.646   1.303   4.670  0.5067 -0.3523  0.0712
  855MOL0     C15305   2.640   1.193   4.558  0.1015 -0.2075  0.1078
  855MOL0     C15306   2.760   1.170   4.468  0.0519 -0.8121  0.2064
  855MOL0     N15307   2.892   1.143   4.538  0.1263  1.0674 -0.3285
  855MOL0     C15308   2.998   1.222   4.512  0.4835 -0.1087  0.5525
  855MOL0     C15309   3.078   1.199   4.619 -0.4233 -0.5728  0.2970
  855MOL0     C15310   3.207   1.255   4.641  0.7862 -0.6585  0.0891
  855MOL0     C15311   3.206   1.404   4.639 -1.4200 -0.2882 -0.0854
  855MOL0     C15312   3.339   1.473   4.673 -0.1125 -0.5309  0.6858
  855MOL0     C15313   3.332   1.623   4.696  0.6259  0.0797  0.2494
  855MOL0     O15314   3.287   1.690   4.580 -0.5775 -0.0754 -0.6239
  855MOL0     C15315   3.311   1.823   4.595 -0.1989  0.3236  1.3269
  855MOL0     C15316   3.305   1.900   4.710  0.7821  0.3990  0.3132
  855MOL0     C15317   3.330   2.036   4.724 -0.8300 -0.5012 -0.4888
  855MOL0     C15318   3.339   2.080   4.871 -0.3831  0.5593 -0.2390
  855MOL0     C15319   3.363   2.103   4.603  0.0628  0.6072 -0.1126
  855MOL0     C15320   3.428   2.227   4.595 -0.1936  0.3379  0.1026
  855MOL0     O15321   3.420   2.292   4.472 -0.3213 -0.3711 -0.2438
  855MOL0     C15322   3.493   2.404   4.446 -0.3575  0.2530 -0.0653
  855MOL0     C15323   3.436   2.510   4.375 -0.4856  0.1225 -0.2582
  855MOL0     C15324   3.510   2.628   4.353  0.4618 -0.1896  1.3114
  855MOL0     C15325   3.643   2.641   4.396 -0.3237 -0.8712  0.2151
  855MOL0     O15326   3.719   2.751   4.365  0.4507 -0.5423  0.5648
  855MOL0     C15327   3.707   2.770   4.220 -1.1161 -0.0937 -0.6271
  855MOL0     C15328   3.810   2.873   4.158 -0.0290 -0.2573  0.1424
  855MOL0     C15329   3.759   3.009   4.215  0.2181  0.1016 -0.0517
  855MOL0     C15330   3.832   3.134   4.158  0.2783  0.1164  0.1352
  855MOL0     C15331   3.751   3.264   4.181 -0.2850 -0.3679 -0.2894
  855MOL0     C15332   3.830   3.386   4.136  0.6984 -0.0564  0.0044
  855MOL0     C15333   3.737   3.512   4.165  0.5357  1.4239 -0.0218
  855MOL0     C15334   3.768   3.620   4.063 -0.5339  0.6770 -0.6130
  855MOL0    Cl15335   3.947   3.665   4.080 -0.1879 -0.2799 -0.1239
  855MOL0     C15336   3.699   2.539   4.470 -0.5489  0.0238 -0.5846
  855MOL0     C15337   3.622   2.424   4.495 -0.7457 -0.1678 -0.2571
  855MOL0     O15338   3.493   2.258   4.693  0.1040 -0.0138 -0.2797
  855MOL0     C15339   3.346   2.033   4.478 -0.0422  0.0769 -1.0632
  855MOL0     C15340   3.323   1.894   4.474 -0.4967  0.0638  0.4324
  855MOL0     N15341   3.007   1.128   4.717 -0.3915  0.1077 -0.3079
  855MOL0     N15342   2.908   1.093   4.662  0.4883 -0.1847 -0.0201
  855MOL0     C15343   2.792   1.798   5.366  0.2606 -0.8720  0.0051
  855MOL0     C15344   2.880   1.829   5.469 -0.0872 -0.4252  0.5059
  855MOL0     C15345   3.294   1.776   5.690 -0.1409 -0.0842 -0.0993
  855MOL0     C15346   3.431   1.734   5.695 -0.4120 -0.4853 -0.6598
  855MOL0     C15347   3.497   1.765   5.811  0.0307 -0.4118  0.3303
  855MOL0     C15348   3.453   1.831   5.925  0.6336 -0.0666  0.0821
  855MOL0     O15349   3.531   1.862   6.034 -0.5702 -0.3315  0.0091
  855MOL0     C15350   3.661   1.927   6.009  0.0440 -0.0234 -0.2714
  855MOL0     C15351   3.775   1.824   6.029  0.2247  0.7941  0.8151
  855MOL0     C15352   3.804   1.804   6.172 -0.1084 -0.8904 -0.2176
  855MOL0     C15353   3.932   1.728   6.195 -0.7252 -0.7711 -1.1658
  855MOL0     C15354   4.047   1.811   6.157 -0.4058 -0.2042 -0.1509
  855MOL0     C15355   4.143   1.861   6.113 -0.2814  0.3037 -0.1511
  855MOL0     C15356   3.319   1.858   5.927  0.2058  0.2317 -0.7698
  855MOL0     C15357   3.239   1.825   5.813 -0.5439 -0.7516 -0.3535
  855MOL0     H15358   3.017   1.524   5.514  0.9153  0.3842 -0.6335
  855MOL0     H15359   2.868   1.470   5.327  1.0235 -0.7481  1.4558
  855MOL0     H15360   2.756   1.484   5.096  0.6965  4.5735 -3.1142
  855MOL0     H15361   2.650   1.458   5.237  0.1496  1.1087 -0.4190
  855MOL0     H15362   2.473   1.486   5.126  1.9277 -0.3230  1.5669
  855MOL0     H15363   2.530   1.616   5.014 -3.1188 -0.1687  0.8154
  855MOL0     H15364   2.680   1.426   4.909 -0.9788 -1.2550 -1.2755
  855MOL0     H15365   2.570   1.303   5.001 -0.5066 -0.1831 -0.5018
  855MOL0     H15366   2.383   1.392   4.871 -0.5829  1.9116 -0.0840
  855MOL0     H15367   2.494   1.508   4.788 -1.9591  0.2769 -1.4622
  855MOL0     H15368   2.461   1.208   4.773 -0.4192  0.3330  0.6195
  855MOL0     H15369   2.424   1.320   4.653  0.8187  1.0765 -0.7669
  855MOL0     H15370   2.663   1.397   4.617  0.5734 -0.2773  0.2258
  855MOL0     H15371   2.720   1.284   4.748 -0.8004 -1.7972  1.0438
  855MOL0     H15372   2.630   1.095   4.607  1.9836 -1.2307 -1.4025
  855MOL0     H15373   2.555   1.228   4.499 -0.8509  0.8519  2.0276
  855MOL0     H15374   2.773   1.263   4.412 -0.4559 -0.3479  0.8430
  855MOL0     H15375   2.724   1.103   4.390 -4.1136  0.9755  0.3251
  855MOL0     H15376   3.014   1.285   4.426 -3.4516  0.3053 -0.0561
  855MOL0     H15377   3.245   1.220   4.738  4.3144 -0.1139 -0.9777
  855MOL0     H15378   3.274   1.222   4.562 -2.2736 -1.8299 -2.1850
  855MOL0     H15379   3.141   1.448   4.715  1.5192  1.6795  1.4654
  855MOL0     H15380   3.154   1.435   4.547  2.4632 -2.5236 -3.3953
  855MOL0     H15381   3.389   1.453   4.578 -2.9694 -2.0679 -0.6209
  855MOL0     H15382   3.396   1.428   4.755 -0.3301  0.9962  1.7068
  855MOL0     H15383   3.437   1.653   4.703  0.2143  2.6271 -2.4352
  855MOL0     H15384   3.274   1.645   4.786  0.4553 -0.9097  0.3915
  855MOL0     H15385   3.279   1.855   4.805  3.4473 -0.7202  0.5809
  855MOL0     H15386   3.440   2.072   4.913  0.0602  0.0164 -1.3635
  855MOL0     H15387   3.294   2.180   4.878  0.5451  0.9643  0.0812
  855MOL0     H15388   3.273   2.010   4.923 -0.7223 -0.8836 -2.4567
  855MOL0     H15389   3.335   2.505   4.336 -1.2813  2.7249  1.1975
  855MOL0     H15390   3.466   2.713   4.302  1.2316 -0.5694 -0.0278
  855MOL0     H15391   3.705   2.673   4.169 -0.8603 -0.8454  0.7485
  855MOL0     H15392   3.609   2.815   4.202 -0.4451  1.7165  0.0328
  855MOL0     H15393   3.917   2.860   4.177 -0.2280 -1.9167  0.3180
  855MOL0     H15394   3.788   2.884   4.051 -2.0845  1.4152  0.6890
  855MOL0     H15395   3.759   3.015   4.324  3.1530  1.5011 -0.0143
  855MOL0     H15396   3.658   3.025   4.178 -0.2619  4.5801  2.5012
  855MOL0     H15397   3.920   3.155   4.219  0.0602  1.9554 -0.1219
  855MOL0     H15398   3.855   3.117   4.053 -2.2977 -1.1949 -0.2961
  855MOL0     H15399   3.731   3.268   4.288  2.7330 -0.5774  0.3852
  855MOL0     H15400   3.649   3.274   4.142 -0.8445  0.3878  1.2633
  855MOL0     H15401   3.917   3.410   4.198  1.0692  1.8132 -1.1586
  855MOL0     H15402   3.863   3.368   4.033  0.3034 -2.1235  0.1886
  855MOL0     H15403   3.754   3.545   4.268 -1.8671  2.2773  0.1645
  855MOL0     H15404   3.631   3.485   4.173  0.8422  0.3813  0.7151
  855MOL0     H15405   3.696   3.702   4.072 -2.3152 -0.7823 -0.8150
  855MOL0     H15406   3.752   3.573   3.966 -1.3722  0.6415 -0.4698
  855MOL0     H15407   3.801   2.560   4.501  0.5272 -1.1735 -2.9937
  855MOL0     H15408   3.649   2.329   4.541  3.6364  0.6231 -0.7844
  855MOL0     H15409   3.354   2.080   4.381 -0.5336  0.2900 -1.0007
  855MOL0     H15410   3.315   1.845   4.377  3.1230 -1.8807  0.9281
  855MOL0     H15411   2.723   1.876   5.336  1.8298  0.1046 -1.1755
  855MOL0     H15412   2.865   1.921   5.525  0.9429  1.5657 -2.2845
  855MOL0     H15413   3.485   1.670   5.626  1.7497 -1.6111  1.9058
  855MOL0     H15414   3.603   1.744   5.822  0.6119  1.9149 -0.2797
  855MOL0     H15415   3.666   1.959   5.905  0.0618 -2.0748 -0.9620
  855MOL0     H15416   3.675   2.011   6.077 -0.3656  0.8822 -1.2768
  855MOL0     H15417   3.862   1.860   5.974  0.5969 -0.6311  0.4512
  855MOL0     H15418   3.747   1.726   5.990  2.4643  0.4712 -0.0972
  855MOL0     H15419   3.718   1.759   6.223  0.7619 -0.3927  1.7951
  855MOL0     H15420   3.814   1.897   6.229 -2.5559 -0.3355 -0.5605
  855MOL0     H15421   3.946   1.639   6.134  2.2291 -0.9232 -0.4027
  855MOL0     H15422   3.945   1.704   6.301  1.9964  0.4554 -1.1344
  855MOL0     H15423   4.225   1.902   6.058  3.7995  1.3348  5.6790
  855MOL0     H15424   3.277   1.895   6.020 -1.4371 -1.2587 -0.8637
  855MOL0     H15425   3.133   1.847   5.828  0.1001  0.8321  2.4822
  856MOL0     O15426   3.462   3.927   6.967  0.4963 -0.6572  0.0606
  856MOL0     C15427   3.428   3.822   7.021  0.6652 -0.2279  0.8231
  856MOL0     O15428   3.294   3.793   7.047 -0.3532 -0.6611 -0.0225
  856MOL0     C15429   3.210   3.883   6.991 -0.0426  0.5339 -0.0069
  856MOL0     C15430   3.170   3.988   7.069 -0.8347 -0.1065  0.5233
  856MOL0     C15431   3.067   4.065   7.013 -0.3021 -0.1829  0.4698
  856MOL0     C15432   3.008   4.029   6.886 -0.9622  0.4458  0.4801
  856MOL0     O15433   2.896   4.090   6.828 -0.0572  0.2619 -0.4867
  856MOL0     C15434   2.870   4.225   6.876 -0.0823 -0.4008  0.6306
  856MOL0     C15435   2.786   4.293   6.766 -0.4649 -0.1853  1.1035
  856MOL0     C15436   2.769   4.440   6.805 -0.0368 -0.7841 -0.0092
  856MOL0     C15437   2.684   4.506   6.708 -0.0011 -0.9251  0.4719
  856MOL0     C15438   2.720   4.658   6.695 -0.5354  0.1792 -0.1437
  856MOL0     C15439   2.642   4.728   6.574 -0.6080 -0.6453 -0.2058
  856MOL0     C15440   2.652   4.877   6.556  0.3047 -0.9179  0.3748
  856MOL0     C15441   2.791   4.932   6.519  1.2557 -0.0908 -0.0400
  856MOL0     N15442   2.781   5.068   6.472 -0.4617 -0.9272  0.8705
  856MOL0     C15443   2.829   5.176   6.539 -0.4657  0.0671  0.1374
  856MOL0     C15444   2.785   5.283   6.462  0.2874 -0.3397 -0.3851
  856MOL0     C15445   2.789   5.424   6.511  0.0154 -0.9372 -0.6551
  856MOL0     C15446   2.885   5.450   6.629 -0.1939 -0.4326  0.1474
  856MOL0     C15447   2.902   5.593   6.676 -0.2604 -0.2690 -0.0632
  856MOL0     C15448   2.767   5.639   6.723 -0.9164 -0.1138 -0.1087
  856MOL0     O15449   2.764   5.765   6.788 -0.4585 -0.7211  0.3301
  856MOL0     C15450   2.758   5.876   6.707  0.0878 -0.7837  0.1966
  856MOL0     C15451   2.735   5.992   6.784 -0.0807  0.9208  0.3666
  856MOL0     C15452   2.745   6.115   6.727  0.0454 -0.0340 -0.4431
  856MOL0     C15453   2.744   6.240   6.811  0.1930  0.3833  0.1397
  856MOL0     C15454   2.768   6.131   6.581 -0.4050 -0.0159  0.0074
  856MOL0     C15455   2.781   6.260   6.496  0.5059  0.3594 -0.0180
  856MOL0     O15456   2.700   6.287   6.390  0.0496 -0.0788  0.3655
  856MOL0     C15457   2.687   6.420   6.366 -0.2451 -0.7940  0.1366
  856MOL0     C15458   2.676   6.517   6.464  0.1633 -1.0725 -0.8358
  856MOL0     C15459   2.684   6.657   6.431  0.6850 -0.1476  0.2059
  856MOL0     C15460   2.693   6.691   6.288  0.3623 -0.8124 -0.3377
  856MOL0     O15461   2.683   6.821   6.244 -0.6027 -0.0342 -0.1330
  856MOL0     C15462   2.775   6.923   6.306 -0.8798  0.4896  0.1618
  856MOL0     C15463   2.724   7.073   6.288 -0.4065  0.7646 -0.1139
  856MOL0     C15464   2.743   7.116   6.140  0.3284  0.6002 -0.8332
  856MOL0     C15465   2.718   7.260   6.135  0.2296 -0.1984 -0.0268
  856MOL0     C15466   2.723   7.307   5.984  0.9537 -0.0564 -0.1770
  856MOL0     C15467   2.657   7.445   5.965  1.1200  0.1877  0.7338
  856MOL0     C15468   2.618   7.467   5.819  0.2697  0.0809 -0.1414
  856MOL0     C15469   2.734   7.492   5.723 -0.0114 -0.3808 -0.5334
  856MOL0    Cl15470   2.822   7.650   5.755 -0.0893  0.5937 -0.0173
  856MOL0     C15471   2.697   6.591   6.192 -0.2039  0.4923  0.7742
  856MOL0     C15472   2.700   6.459   6.228  0.1960 -0.4777  0.4673
  856MOL0     O15473   2.869   6.332   6.545  0.7548 -0.2717  0.2368
  856MOL0     C15474   2.787   6.011   6.511 -0.2992  0.1685  0.2850
  856MOL0     C15475   2.776   5.883   6.569 -0.5300 -0.5656  0.4074
  856MOL0     N15476   2.717   5.239   6.354  0.2825 -0.2468 -0.2960
  856MOL0     N15477   2.704   5.113   6.363  0.0745  0.9991  0.3331
  856MOL0     C15478   3.047   3.911   6.823  0.4383 -0.0282 -0.5774
  856MOL0     C15479   3.153   3.835   6.873  0.7405 -0.2300  0.9156
  856MOL0     C15480   3.540   3.736   7.055 -0.4669 -0.1275 -0.3053
  856MOL0     C15481   3.511   3.621   7.131 -0.4220 -1.0374  0.1048
  856MOL0     C15482   3.623   3.561   7.198  0.4754  0.0158  0.6487
  856MOL0     C15483   3.755   3.587   7.171  1.0560 -0.5002  0.3903
  856MOL0     O15484   3.861   3.534   7.236 -0.2064 -0.2148 -0.5656
  856MOL0     C15485   3.827   3.431   7.329  0.3703  0.0884  0.9209
  856MOL0     C15486   3.790   3.496   7.468  0.2772 -0.5069  0.1165
  856MOL0     C15487   3.886   3.603   7.525 -0.0693  0.4487 -0.1493
  856MOL0     C15488   3.842   3.642   7.667  0.1347 -0.7254  0.3883
  856MOL0     C15489   3.957   3.711   7.735 -0.5270  0.4766  0.7055
  856MOL0     C15490   4.043   3.783   7.787  0.3235  0.0029  0.1098
  856MOL0     C15491   3.776   3.693   7.092 -0.5695 -0.5225  0.2119
  856MOL0     C15492   3.673   3.772   7.036 -0.0741 -0.1341  0.3310
  856MOL0     H15493   3.212   4.025   7.163  1.4680  1.3559 -0.9792
  856MOL0     H15494   3.028   4.147   7.072 -2.4010 -1.6837  1.3056
  856MOL0     H15495   2.815   4.220   6.970  2.3785 -2.0855  2.0603
  856MOL0     H15496   2.962   4.283   6.880 -0.1496  0.0941 -2.2203
  856MOL0     H15497   2.832   4.272   6.669 -0.2426 -2.6819  1.6885
  856MOL0     H15498   2.694   4.235   6.759  0.3781 -1.3760 -1.0447
  856MOL0     H15499   2.727   4.450   6.905  0.8259  1.3920  0.1900
  856MOL0     H15500   2.870   4.481   6.801  0.2192 -1.4857 -1.5039
  856MOL0     H15501   2.706   4.469   6.608 -1.0796  3.1826 -1.5139
  856MOL0     H15502   2.578   4.500   6.734 -0.8155 -0.0816 -2.3450
  856MOL0     H15503   2.696   4.715   6.785 -2.6766 -0.1536 -0.4661
  856MOL0     H15504   2.827   4.667   6.671 -0.9906 -1.2502 -3.1860
  856MOL0     H15505   2.665   4.675   6.481 -3.2149 -3.2360  0.4661
  856MOL0     H15506   2.537   4.707   6.599 -1.4362  1.0320 -1.9973
  856MOL0     H15507   2.587   4.900   6.471 -1.3411 -3.1018  0.9417
  856MOL0     H15508   2.620   4.932   6.646 -1.0565  0.7961 -1.0718
  856MOL0     H15509   2.829   4.880   6.430  2.7871  0.3327  0.3479
  856MOL0     H15510   2.856   4.917   6.605  0.9323 -3.0293 -0.1881
  856MOL0     H15511   2.882   5.167   6.633 -1.3759 -1.9410  0.5116
  856MOL0     H15512   2.812   5.486   6.424 -0.1522 -0.6057 -0.4667
  856MOL0     H15513   2.690   5.449   6.550  1.2732  2.8148  0.5714
  856MOL0     H15514   2.987   5.414   6.610  0.2362  1.3870 -1.2820
  856MOL0     H15515   2.849   5.396   6.717 -0.7425 -1.8405 -0.8847
  856MOL0     H15516   2.949   5.641   6.590 -2.3381  1.4037 -0.3514
  856MOL0     H15517   2.975   5.612   6.756 -1.4730  1.2435  0.7373
  856MOL0     H15518   2.730   5.575   6.804  0.4385  1.5173  1.9206
  856MOL0     H15519   2.700   5.638   6.637  0.7192 -2.7157 -1.4642
  856MOL0     H15520   2.720   5.995   6.892 -2.3932  4.5055  0.1317
  856MOL0     H15521   2.663   6.227   6.883 -0.2761  0.7829 -0.3044
  856MOL0     H15522   2.843   6.255   6.855 -0.3802  0.6359  1.3542
  856MOL0     H15523   2.719   6.325   6.747 -0.3111  0.2889  0.2147
  856MOL0     H15524   2.671   6.497   6.571  0.3163  0.3272 -0.5404
  856MOL0     H15525   2.678   6.723   6.517 -2.8503 -2.0149  1.5767
  856MOL0     H15526   2.778   6.906   6.414  0.6480 -2.0506 -0.1807
  856MOL0     H15527   2.879   6.911   6.276 -0.2853 -2.1501  2.7671
  856MOL0     H15528   2.617   7.081   6.306 -0.5593 -0.8889 -0.2043
  856MOL0     H15529   2.790   7.136   6.349 -1.1474  1.5604 -0.1100
  856MOL0     H15530   2.684   7.053   6.073 -1.6777  1.8115 -0.3048
  856MOL0     H15531   2.848   7.099   6.117  1.4201  3.7383  1.1402
  856MOL0     H15532   2.615   7.281   6.167 -0.8471 -3.1717 -1.2707
  856MOL0     H15533   2.793   7.305   6.201 -1.5142 -0.5659  2.3453
  856MOL0     H15534   2.660   7.238   5.927  0.8128 -1.3890  1.4932
  856MOL0     H15535   2.819   7.295   5.934 -0.0033 -0.8005 -1.9502
  856MOL0     H15536   2.563   7.439   6.021  0.2275 -0.7551 -0.8040
  856MOL0     H15537   2.705   7.537   6.001  2.7225  0.4867 -1.9053
  856MOL0     H15538   2.535   7.538   5.819 -1.2616 -1.5830 -1.6723
  856MOL0     H15539   2.569   7.378   5.778 -0.2476  1.6606 -3.2372
  856MOL0     H15540   2.705   7.489   5.618 -0.7155  1.3805 -0.4260
  856MOL0     H15541   2.806   7.416   5.752  1.4670  0.4335 -1.9178
  856MOL0     H15542   2.717   6.628   6.092 -1.7378  1.9351  0.9534
  856MOL0     H15543   2.708   6.379   6.155  0.2816 -0.8049  0.8326
  856MOL0     H15544   2.803   6.010   6.403  0.7805 -0.2801  0.4312
  856MOL0     H15545   2.808   5.802   6.504  1.0800 -1.2853  2.0204
  856MOL0     H15546   2.995   3.882   6.732  1.2647 -1.6526 -0.5700
  856MOL0     H15547   3.190   3.741   6.835 -3.5825 -0.8238 -2.5608
  856MOL0     H15548   3.410   3.581   7.134 -1.1413  0.7265  0.6358
  856MOL0     H15549   3.590   3.483   7.266 -2.1771 -0.7806 -1.3916
  856MOL0     H15550   3.749   3.367   7.287  0.9611 -0.0359 -0.0313
  856MOL0     H15551   3.917   3.371   7.347  0.1372 -0.3245  0.7066
  856MOL0     H15552   3.786   3.408   7.533  1.8985  0.1707  1.2283
  856MOL0     H15553   3.689   3.537   7.472 -0.1653 -1.4589 -0.9056
  856MOL0     H15554   3.889   3.692   7.460 -1.6043  1.7178  1.4132
  856MOL0     H15555   3.980   3.548   7.529 -0.0414  0.1103 -3.0988
  856MOL0     H15556   3.801   3.561   7.727 -2.6054  0.6858  0.5828
  856MOL0     H15557   3.761   3.715   7.660  1.4219  0.7462  0.3597
  856MOL0     H15558   4.116   3.859   7.810  1.5017 -1.3897  1.1100
  856MOL0     H15559   3.880   3.722   7.083 -0.5625  0.0173  1.6668
  856MOL0     H15560   3.689   3.865   6.982 -2.0042  1.3428  2.0947
  857MOL0     O15561   5.795   3.142   4.063 -1.1656 -0.5312 -0.0652
  857MOL0     C15562   5.808   3.251   3.992  0.6265  0.6222 -0.2983
  857MOL0     O15563   5.743   3.280   3.872 -0.3445 -0.1838  0.0241
  857MOL0     C15564   5.621   3.220   3.854  0.6487 -0.8178  0.0194
  857MOL0     C15565   5.502   3.302   3.865  0.2365 -0.6017  0.3086
  857MOL0     C15566   5.384   3.235   3.834  0.1686  0.6639 -0.2561
  857MOL0     C15567   5.378   3.095   3.797 -1.4615  1.3103 -0.6712
  857MOL0     O15568   5.272   3.034   3.754 -0.0768  0.1980 -0.0550
  857MOL0     C15569   5.145   3.041   3.829 -0.5068 -0.0777 -0.0160
  857MOL0     C15570   5.135   2.948   3.946 -0.4943 -0.5351  0.1333
  857MOL0     C15571   5.243   2.977   4.056 -0.4904  0.0091 -0.6749
  857MOL0     C15572   5.235   3.101   4.141 -0.4363 -0.3534  0.3689
  857MOL0     C15573   5.371   3.123   4.207  0.8334 -0.2807  0.4718
  857MOL0     C15574   5.386   3.233   4.313 -0.3366  0.6325 -0.1055
  857MOL0     C15575   5.533   3.249   4.355 -0.2025 -0.3901  0.1316
  857MOL0     C15576   5.541   3.311   4.490  0.7088  1.0776 -1.1516
  857MOL0     N15577   5.667   3.374   4.530  0.1328 -1.0229 -0.9020
  857MOL0     C15578   5.688   3.392   4.661  0.2795  0.3535 -0.3610
  857MOL0     C15579   5.747   3.512   4.678 -0.7186 -0.2995  0.4666
  857MOL0     C15580   5.798   3.581   4.799  1.0599  0.5697  0.8849
  857MOL0     C15581   5.740   3.520   4.938  0.2216 -1.1352 -0.0967
  857MOL0     C15582   5.585   3.533   4.954 -0.8083  1.1184 -0.2475
  857MOL0     C15583   5.516   3.410   5.015 -0.0836 -0.1112  0.5952
  857MOL0     O15584   5.511   3.292   4.930  1.2995  0.2099  0.6924
  857MOL0     C15585   5.393   3.284   4.856 -0.2003 -0.5760  0.6400
  857MOL0     C15586   5.382   3.157   4.801 -0.1445 -0.2845  0.1156
  857MOL0     C15587   5.284   3.122   4.706 -0.5852 -0.2593  0.3643
  857MOL0     C15588   5.273   2.985   4.656 -0.1285  0.3227 -0.4908
  857MOL0     C15589   5.202   3.230   4.662 -0.7679  0.1434  0.3130
  857MOL0     C15590   5.094   3.222   4.566  0.2286 -0.9538  0.0851
  857MOL0     O15591   5.075   3.330   4.477  0.0795 -0.0725 -0.3725
  857MOL0     C15592   4.970   3.342   4.401  0.5256  0.4042 -0.1531
  857MOL0     C15593   4.988   3.339   4.257 -0.3712  1.3135 -0.1327
  857MOL0     C15594   4.874   3.333   4.171 -0.2513  0.2195 -0.6489
  857MOL0     C15595   4.744   3.325   4.225 -0.5310 -0.1564 -0.3266
  857MOL0     O15596   4.645   3.287   4.134 -0.2106 -0.1671 -0.4506
  857MOL0     C15597   4.511   3.270   4.171 -0.6673  0.1460  0.1488
  857MOL0     C15598   4.436   3.407   4.181 -0.6299  0.5196  1.0958
  857MOL0     C15599   4.473   3.521   4.083 -0.0951 -0.0414  0.8954
  857MOL0     C15600   4.356   3.606   4.058 -0.0786 -0.9357 -1.2083
  857MOL0     C15601   4.385   3.714   3.965 -0.1201 -0.1254 -0.2050
  857MOL0     C15602   4.258   3.795   3.926  0.6005  0.0590 -0.2926
  857MOL0     C15603   4.286   3.905   3.827 -0.1446  0.5565  1.0022
  857MOL0     C15604   4.303   3.868   3.684  0.2861  0.5662 -0.5197
  857MOL0    Cl15605   4.336   4.010   3.574  0.7265  0.2019  0.1636
  857MOL0     C15606   4.729   3.346   4.363  0.2589 -0.1753  0.2263
  857MOL0     C15607   4.838   3.358   4.439 -0.4380  0.1653 -0.1878
  857MOL0     O15608   5.033   3.122   4.565  0.5596 -0.0847  0.2565
  857MOL0     C15609   5.227   3.356   4.711  0.0925  0.1275 -0.2996
  857MOL0     C15610   5.321   3.388   4.813 -0.0624 -0.0910  0.7384
  857MOL0     N15611   5.777   3.567   4.556  0.0699 -0.0083  0.0479
  857MOL0     N15612   5.736   3.483   4.468 -0.4121  0.1394 -0.0265
  857MOL0     C15613   5.503   3.023   3.773  0.0172 -0.0994  0.2091
  857MOL0     C15614   5.621   3.089   3.807  0.1429  0.4918 -0.2174
  857MOL0     C15615   5.907   3.351   4.030 -1.1201 -0.2485 -0.7559
  857MOL0     C15616   5.956   3.358   4.165  0.3038  1.1717 -0.8958
  857MOL0     C15617   6.038   3.464   4.199 -0.8609  0.4799 -0.1076
  857MOL0     C15618   6.075   3.573   4.116  0.2211  0.2882 -0.6675
  857MOL0     O15619   6.164   3.679   4.140 -0.4649 -0.6142 -0.0320
  857MOL0     C15620   6.251   3.678   4.265  0.1061 -0.1839  0.5276
  857MOL0     C15621   6.182   3.778   4.366 -0.1948 -0.3277  0.2711
  857MOL0     C15622   6.260   3.765   4.500 -0.0801 -0.8564  0.0139
  857MOL0     C15623   6.174   3.753   4.618 -0.4373 -0.1233  0.4287
  857MOL0     C15624   6.240   3.780   4.745 -0.9860  0.6806  0.6919
  857MOL0     C15625   6.279   3.793   4.859 -0.5711  0.9153  0.1082
  857MOL0     C15626   6.012   3.571   3.989  0.1131 -0.0336 -0.6612
  857MOL0     C15627   5.944   3.458   3.943  0.0139  0.3884  0.9708
  857MOL0     H15628   5.507   3.409   3.884  1.1374 -0.6512  0.4136
  857MOL0     H15629   5.288   3.286   3.834 -0.0813  0.1938 -0.4889
  857MOL0     H15630   5.135   3.144   3.866  5.2024  0.8190 -0.1283
  857MOL0     H15631   5.055   3.016   3.772 -2.2071 -1.3721  2.9522
  857MOL0     H15632   5.037   2.956   3.992  0.6537  0.5721  2.5807
  857MOL0     H15633   5.153   2.851   3.898  2.5869  0.7743 -1.6364
  857MOL0     H15634   5.243   2.890   4.123 -3.0857  0.0070 -0.5854
  857MOL0     H15635   5.346   2.968   4.018 -0.2327  0.7307 -0.1822
  857MOL0     H15636   5.211   3.184   4.074  0.4604 -1.9751 -2.1279
  857MOL0     H15637   5.164   3.079   4.221  2.7162 -2.3848  2.8573
  857MOL0     H15638   5.396   3.028   4.256  0.8825  1.0269  3.1743
  857MOL0     H15639   5.444   3.139   4.127 -1.9974  1.1468 -2.0264
  857MOL0     H15640   5.353   3.330   4.276  2.2141  2.3691  1.7782
  857MOL0     H15641   5.339   3.204   4.407  0.2102 -0.5302 -0.1691
  857MOL0     H15642   5.583   3.152   4.360  1.7552  0.5447 -0.1898
  857MOL0     H15643   5.580   3.318   4.284 -0.4803  0.6023  0.8978
  857MOL0     H15644   5.518   3.218   4.544  0.2595 -0.3792 -3.6795
  857MOL0     H15645   5.454   3.375   4.505 -0.6924 -1.0316  0.4088
  857MOL0     H15646   5.652   3.331   4.744  1.1908  1.3160  0.7791
  857MOL0     H15647   5.907   3.574   4.803  1.0658 -1.8059 -0.9698
  857MOL0     H15648   5.779   3.687   4.783 -0.5582  0.4237  1.5634
  857MOL0     H15649   5.775   3.587   5.017  0.5211  0.7512 -1.7367
  857MOL0     H15650   5.763   3.414   4.951 -0.0221 -1.3454 -1.2634
  857MOL0     H15651   5.537   3.540   4.856 -0.8978 -2.3018 -0.5708
  857MOL0     H15652   5.568   3.610   5.030  2.1590  2.4955 -0.8771
  857MOL0     H15653   5.415   3.435   5.049  0.3640 -0.2275  2.0492
  857MOL0     H15654   5.568   3.375   5.104 -1.5874 -1.0413  1.1331
  857MOL0     H15655   5.447   3.080   4.843 -2.8656 -2.1480  1.2332
  857MOL0     H15656   5.315   2.983   4.554 -2.2737  1.8036 -1.4771
  857MOL0     H15657   5.326   2.915   4.721 -1.1804 -1.2628 -1.2700
  857MOL0     H15658   5.171   2.946   4.655  0.2103 -0.6267  0.2997
  857MOL0     H15659   5.082   3.329   4.204 -1.7303  1.1544 -2.6589
  857MOL0     H15660   4.884   3.329   4.063 -1.7470  3.5095 -1.0272
  857MOL0     H15661   4.467   3.201   4.098 -1.6457 -0.1224  0.9767
  857MOL0     H15662   4.508   3.221   4.269  0.0564  0.1617  0.1823
  857MOL0     H15663   4.328   3.392   4.180 -0.6005  0.3533  0.2267
  857MOL0     H15664   4.460   3.451   4.279 -1.1144 -2.1783  2.5304
  857MOL0     H15665   4.519   3.483   3.991  1.2596 -2.7488  2.5502
  857MOL0     H15666   4.546   3.586   4.133  0.1344  0.6977 -0.3491
  857MOL0     H15667   4.267   3.549   4.030  0.7348 -3.0170  0.1558
  857MOL0     H15668   4.332   3.655   4.153 -3.0722 -0.8583 -1.9194
  857MOL0     H15669   4.412   3.663   3.871  0.9267 -0.2636  0.1594
  857MOL0     H15670   4.460   3.784   4.003 -2.5707  2.6851 -0.2169
  857MOL0     H15671   4.179   3.731   3.884 -0.2342 -1.0109  2.6593
  857MOL0     H15672   4.225   3.824   4.026  1.1094  0.4229 -0.2280
  857MOL0     H15673   4.374   3.966   3.847 -0.4872  2.2920 -2.1270
  857MOL0     H15674   4.209   3.983   3.828 -3.0106 -2.0826  1.3659
  857MOL0     H15675   4.215   3.813   3.649 -1.3447  2.1719  0.8567
  857MOL0     H15676   4.394   3.807   3.683 -0.6274 -0.8978  1.3531
  857MOL0     H15677   4.632   3.345   4.411  0.5616 -1.2595  0.8297
  857MOL0     H15678   4.821   3.359   4.546 -3.2335 -0.0128 -0.5671
  857MOL0     H15679   5.162   3.434   4.672  3.2303  2.7485 -0.7664
  857MOL0     H15680   5.329   3.484   4.861  2.0422  0.1692 -0.0516
  857MOL0     H15681   5.510   2.927   3.724  1.8498  0.8162 -1.4761
  857MOL0     H15682   5.719   3.043   3.806 -0.8461 -1.8352  1.1852
  857MOL0     H15683   5.920   3.287   4.239 -3.2772  2.1820 -1.4622
  857MOL0     H15684   6.087   3.448   4.295  0.4061 -0.3573 -0.8597
  857MOL0     H15685   6.253   3.583   4.319 -2.1196  0.7479  2.4535
  857MOL0     H15686   6.357   3.704   4.255  1.0444 -2.3379  3.5793
  857MOL0     H15687   6.075   3.756   4.378 -0.5886  0.4748 -1.3826
  857MOL0     H15688   6.175   3.883   4.334 -3.8636 -0.3101  0.7002
  857MOL0     H15689   6.332   3.847   4.505  0.3674 -1.2656  0.3569
  857MOL0     H15690   6.322   3.675   4.503 -1.0301 -1.5099  0.7853
  857MOL0     H15691   6.129   3.653   4.622  0.4623 -0.5180  0.8919
  857MOL0     H15692   6.097   3.831   4.621 -0.4199 -0.1298  1.0091
  857MOL0     H15693   6.316   3.782   4.959 -1.7405  0.1098  0.4700
  857MOL0     H15694   6.021   3.661   3.929 -0.6477  0.3265 -0.2553
  857MOL0     H15695   5.904   3.461   3.842 -0.1517 -0.8684  0.9743
  858MOL0     O15696   2.073   7.957   4.107 -0.1025 -0.0386 -0.9700
  858MOL0     C15697   2.157   8.039   4.145 -0.0743  0.0640  0.1863
  858MOL0     O15698   2.146   8.173   4.117 -0.2337 -0.2340  0.0222
  858MOL0     C15699   2.024   8.233   4.088  1.5551 -0.0112 -0.3797
  858MOL0     C15700   1.910   8.174   4.021  0.2607  0.0399  1.3628
  858MOL0     C15701   1.812   8.248   3.967 -0.5554 -0.0025  0.7978
  858MOL0     C15702   1.805   8.385   3.984  0.5692  1.0312 -1.1631
  858MOL0     O15703   1.695   8.452   3.954  0.4790 -0.2358  0.3103
  858MOL0     C15704   1.593   8.426   4.049  0.5773  0.9478  0.2510
  858MOL0     C15705   1.488   8.540   4.050  0.0016 -0.2014  0.4133
  858MOL0     C15706   1.406   8.560   3.917 -0.5727  0.3450 -0.0039
  858MOL0     C15707   1.270   8.639   3.940  0.1221 -0.0385 -0.6479
  858MOL0     C15708   1.204   8.693   3.808 -0.1830  0.3356  0.2535
  858MOL0     C15709   1.278   8.706   3.672  0.7626  0.8874 -0.7043
  858MOL0     C15710   1.387   8.820   3.668 -0.3991  0.8859  0.3142
  858MOL0     C15711   1.346   8.947   3.598 -0.2392 -0.0991  0.1291
  858MOL0     N15712   1.468   9.027   3.558 -0.8988  0.0655  0.0155
  858MOL0     C15713   1.550   9.001   3.456  0.2505  0.0129  0.1833
  858MOL0     C15714   1.650   9.093   3.458 -0.4675  0.4940 -0.5956
  858MOL0     C15715   1.758   9.105   3.352 -0.3842 -0.0015 -0.3151
  858MOL0     C15716   1.891   9.137   3.424 -0.0269  1.2726  0.6582
  858MOL0     C15717   1.992   9.170   3.323 -0.0566 -0.4658 -0.2426
  858MOL0     C15718   2.127   9.206   3.390  0.4747  0.0827 -1.2594
  858MOL0     O15719   2.103   9.307   3.485  0.0429 -0.4443  0.5323
  858MOL0     C15720   2.219   9.341   3.551 -1.0095 -0.1673 -0.0102
  858MOL0     C15721   2.312   9.252   3.625  0.5476  0.7325  0.7956
  858MOL0     C15722   2.428   9.305   3.693 -1.0301  0.7207 -0.4067
  858MOL0     C15723   2.515   9.191   3.749 -0.2722 -0.2317 -0.5817
  858MOL0     C15724   2.458   9.451   3.690  0.6433  0.0105 -0.4902
  858MOL0     C15725   2.578   9.514   3.736 -0.0699 -0.0329  1.0079
  858MOL0     O15726   2.612   9.640   3.698 -0.9027 -0.0177  0.5456
  858MOL0     C15727   2.684   9.701   3.795 -0.7183  0.1883  0.8716
  858MOL0     C15728   2.622   9.778   3.896  0.6316 -0.2439 -0.5410
  858MOL0     C15729   2.692   9.880   3.969 -0.9841  0.4445 -0.7797
  858MOL0     C15730   2.831   9.877   3.965 -1.3587  0.0450 -0.9715
  858MOL0     O15731   2.922   9.957   4.032  0.1150  0.1550  1.3165
  858MOL0     C15732   2.868  10.079   4.076  0.2663 -0.5101  0.6097
  858MOL0     C15733   2.987  10.167   4.106 -0.3054  0.7359 -0.2292
  858MOL0     C15734   2.953  10.310   4.158  0.4090 -0.3070 -0.1614
  858MOL0     C15735   2.838  10.326   4.248 -0.3124  0.5224 -0.0496
  858MOL0     C15736   2.825  10.478   4.292  0.4519  0.1750  0.2510
  858MOL0     C15737   2.789  10.573   4.188  0.3796 -0.3241  0.8303
  858MOL0     C15738   2.777  10.715   4.258  0.1802 -0.2906 -0.0635
  858MOL0     C15739   2.734  10.827   4.159  0.8042  0.2793  0.1707
  858MOL0    Cl15740   2.876  10.861   4.067  0.0503  0.0153 -0.0375
  858MOL0     C15741   2.901   9.792   3.878  0.1815 -0.2789  0.0388
  858MOL0     C15742   2.831   9.712   3.785 -0.4440 -0.3913 -0.3224
  858MOL0     O15743   2.631   9.454   3.838 -0.3459  0.6479  1.0143
  858MOL0     C15744   2.370   9.532   3.615 -0.0184 -0.2648  0.0257
  858MOL0     C15745   2.259   9.474   3.543 -0.7732  0.6921  0.0665
  858MOL0     N15746   1.619   9.179   3.560 -0.1705  0.6286 -0.3466
  858MOL0     N15747   1.509   9.135   3.622  0.1220 -0.2491  0.0475
  858MOL0     C15748   1.912   8.448   4.049 -0.7554  0.0973 -0.8199
  858MOL0     C15749   2.018   8.375   4.096  0.1809 -0.9341 -0.3694
  858MOL0     C15750   2.282   7.985   4.207 -0.7203 -1.0630  0.2180
  858MOL0     C15751   2.292   7.848   4.250  0.6032  1.2508 -0.1034
  858MOL0     C15752   2.421   7.808   4.297 -0.3085  0.1916  0.4231
  858MOL0     C15753   2.534   7.892   4.310 -0.1801  0.1454 -0.1151
  858MOL0     O15754   2.647   7.840   4.366 -0.3332 -0.1339  0.7874
  858MOL0     C15755   2.765   7.920   4.371 -0.6773  0.8636  0.3912
  858MOL0     C15756   2.888   7.840   4.422 -0.3238 -0.3322 -1.1827
  858MOL0     C15757   3.023   7.927   4.394  0.3915  0.1795 -0.2038
  858MOL0     C15758   3.047   8.059   4.472  0.3792 -0.1757  0.1209
  858MOL0     C15759   3.176   8.122   4.449  0.2077 -0.1687 -0.7325
  858MOL0     C15760   3.279   8.192   4.435 -0.3026  0.5044  0.6099
  858MOL0     C15761   2.515   8.028   4.282  0.6645  0.7178 -0.4183
  858MOL0     C15762   2.394   8.072   4.230 -0.0829  0.6565  0.4479
  858MOL0     H15763   1.902   8.067   4.001  1.3486  0.0614  0.6899
  858MOL0     H15764   1.739   8.205   3.898 -0.3094 -1.0948  1.1912
  858MOL0     H15765   1.542   8.336   4.014  2.1988  1.3123 -3.5085
  858MOL0     H15766   1.640   8.403   4.146  4.9464  0.8785 -1.6230
  858MOL0     H15767   1.420   8.528   4.135 -0.0033 -1.2594  0.2738
  858MOL0     H15768   1.548   8.630   4.068  0.2363  0.1832 -1.9822
  858MOL0     H15769   1.480   8.613   3.856 -2.1309  1.0484 -1.3459
  858MOL0     H15770   1.381   8.460   3.879 -0.7258  0.2152  0.4368
  858MOL0     H15771   1.200   8.580   4.000  1.3076 -0.4700  0.3576
  858MOL0     H15772   1.294   8.721   4.010  2.3858  1.9972 -3.5713
  858MOL0     H15773   1.118   8.626   3.793 -0.9564  0.1244  4.4202
  858MOL0     H15774   1.169   8.793   3.835  1.2458  0.9906 -0.2363
  858MOL0     H15775   1.334   8.617   3.643  3.8647  1.4130  2.9006
  858MOL0     H15776   1.201   8.728   3.598  3.5742  1.1296 -3.7665
  858MOL0     H15777   1.424   8.844   3.768 -1.4395 -1.8786  1.4522
  858MOL0     H15778   1.474   8.778   3.617  1.1250  2.4350  1.5163
  858MOL0     H15779   1.285   9.007   3.666 -3.7987 -1.0448 -1.9393
  858MOL0     H15780   1.286   8.917   3.511  1.4540 -1.6418 -0.5628
  858MOL0     H15781   1.538   8.914   3.392 -0.2703  1.3368 -1.5974
  858MOL0     H15782   1.760   9.025   3.276  0.7370  2.7749 -3.4546
  858MOL0     H15783   1.713   9.179   3.285  0.1703 -0.2524 -0.9765
  858MOL0     H15784   1.913   9.055   3.492 -2.8786  0.9193  1.2647
  858MOL0     H15785   1.872   9.228   3.482  2.6641  3.0718 -1.0025
  858MOL0     H15786   1.952   9.247   3.256 -3.3557 -2.9529 -1.4345
  858MOL0     H15787   2.009   9.076   3.271  0.7333  0.1425 -1.1205
  858MOL0     H15788   2.206   9.223   3.316  0.8081 -2.4411 -1.5801
  858MOL0     H15789   2.163   9.112   3.433  2.6714  0.4446 -2.1640
  858MOL0     H15790   2.288   9.147   3.640 -0.9423  1.0134  0.5445
  858MOL0     H15791   2.468   9.092   3.757  3.4858 -2.5803 -3.5097
  858MOL0     H15792   2.605   9.182   3.687  0.3616  1.2688  0.0741
  858MOL0     H15793   2.557   9.211   3.848  2.8829 -2.4454 -1.3193
  858MOL0     H15794   2.518   9.747   3.899  1.1138 -1.9768 -1.1576
  858MOL0     H15795   2.632   9.948   4.028 -1.0893  0.3320 -0.7550
  858MOL0     H15796   2.813  10.139   4.003  1.2906  0.1094  0.3346
  858MOL0     H15797   2.804  10.057   4.162  0.0677 -1.3018  0.2665
  858MOL0     H15798   3.039  10.118   4.188  0.5752  1.1361 -0.5374
  858MOL0     H15799   3.049  10.184   4.018  2.6578  1.2378  1.8245
  858MOL0     H15800   2.931  10.366   4.067 -3.5276 -1.6739 -0.2400
  858MOL0     H15801   3.033  10.366   4.208  2.8028 -0.5442 -3.3712
  858MOL0     H15802   2.743  10.290   4.206  0.5056 -1.6493 -0.1562
  858MOL0     H15803   2.864  10.256   4.328  2.1233  0.9012 -0.4482
  858MOL0     H15804   2.916  10.501   4.348  2.0402 -3.4777 -0.5661
  858MOL0     H15805   2.746  10.485   4.367 -1.5506  1.1728 -1.8307
  858MOL0     H15806   2.873  10.574   4.118  3.2265  3.1521  3.8856
  858MOL0     H15807   2.694  10.550   4.138  0.5270  4.1871 -2.1549
  858MOL0     H15808   2.867  10.757   4.302 -1.1581  1.7754  0.8514
  858MOL0     H15809   2.702  10.698   4.336  0.2000 -0.6779 -0.1264
  858MOL0     H15810   2.703  10.915   4.216  2.3932  2.6143 -2.3150
  858MOL0     H15811   2.649  10.793   4.098  0.1929 -2.0178  2.1765
  858MOL0     H15812   3.009   9.797   3.871  0.2191 -1.9389 -5.6016
  858MOL0     H15813   2.883   9.660   3.705 -0.2319  2.5939 -2.2726
  858MOL0     H15814   2.401   9.630   3.580  2.3487 -1.3513 -1.1132
  858MOL0     H15815   2.194   9.535   3.482 -0.3816  1.8433  0.7781
  858MOL0     H15816   1.902   8.556   4.059 -4.2871 -0.1073 -0.6950
  858MOL0     H15817   2.091   8.433   4.151  1.0610 -1.8685 -0.5226
  858MOL0     H15818   2.212   7.775   4.241  2.5053 -0.9166 -0.4311
  858MOL0     H15819   2.450   7.705   4.311 -0.8224 -0.0657 -0.3245
  858MOL0     H15820   2.785   7.942   4.266 -3.2687 -0.3545 -0.4414
  858MOL0     H15821   2.753   8.010   4.432 -2.2849  0.5457  0.5860
  858MOL0     H15822   2.903   7.745   4.371  2.6574  1.1683 -3.4264
  858MOL0     H15823   2.889   7.831   4.531  0.1061  5.9116 -0.3191
  858MOL0     H15824   3.023   7.948   4.287  0.1139  0.0978 -0.2208
  858MOL0     H15825   3.107   7.861   4.420  2.0362  2.3560  0.3006
  858MOL0     H15826   3.031   8.048   4.579 -0.8388 -2.2671 -0.2121
  858MOL0     H15827   2.973   8.133   4.439 -1.9574 -1.9404  1.1178
  858MOL0     H15828   3.360   8.255   4.404  1.1332 -1.7160 -0.4143
  858MOL0     H15829   2.586   8.101   4.321 -0.2180 -0.4818  3.9894
  858MOL0     H15830   2.377   8.175   4.202  3.3790  0.8177 -1.5621
  859MOL0     O15831   4.382   3.184   9.952 -0.5089 -0.0126  0.2333
  859MOL0     C15832   4.482   3.241   9.923  0.5968 -0.0316 -0.3940
  859MOL0     O15833   4.533   3.270   9.789 -0.2338  0.8674  0.2080
  859MOL0     C15834   4.473   3.203   9.679 -0.9030  0.1156  0.0976
  859MOL0     C15835   4.459   3.266   9.553  0.4774 -0.6147  0.2831
  859MOL0     C15836   4.420   3.188   9.443  0.1234 -0.0319 -0.0936
  859MOL0     C15837   4.391   3.055   9.452 -0.0066 -0.1460  0.0467
  859MOL0     O15838   4.346   2.972   9.348 -0.9054  0.2326  0.0146
  859MOL0     C15839   4.264   3.043   9.256 -0.3008 -0.6174  0.1265
  859MOL0     C15840   4.216   2.951   9.150  0.2565  0.4461  0.3943
  859MOL0     C15841   4.083   2.991   9.087 -0.9685 -0.0411  0.4052
  859MOL0     C15842   4.106   3.103   8.988  1.0337 -0.1351 -0.8714
  859MOL0     C15843   3.969   3.145   8.925  0.4313  0.3443 -0.0959
  859MOL0     C15844   3.986   3.228   8.800 -0.3556 -0.8683 -0.0985
  859MOL0     C15845   3.858   3.307   8.763  0.8882 -0.3838  0.2167
  859MOL0     C15846   3.881   3.431   8.673  1.1818 -0.2991 -0.1749
  859MOL0     N15847   3.941   3.556   8.733  0.0930  0.3329  0.1768
  859MOL0     C15848   3.924   3.616   8.859 -0.3928 -0.8440 -0.3623
  859MOL0     C15849   4.002   3.725   8.856 -0.1083  0.3219 -0.0601
  859MOL0     C15850   4.011   3.821   8.965 -0.4901 -0.3579 -0.5466
  859MOL0     C15851   4.151   3.819   9.023  0.5396  0.6412 -0.1335
  859MOL0     C15852   4.168   3.923   9.133 -0.0446 -0.3885  0.1270
  859MOL0     C15853   4.310   3.961   9.154 -0.3608  0.6700  0.5356
  859MOL0     O15854   4.322   4.031   9.278  0.5963  0.2890 -0.0700
  859MOL0     C15855   4.438   4.110   9.296  0.0964  1.1611  0.0923
  859MOL0     C15856   4.460   4.158   9.425  0.6917 -0.3431  0.4393
  859MOL0     C15857   4.573   4.229   9.469  0.1867  0.6653  0.6906
  859MOL0     C15858   4.578   4.263   9.611  0.4161  0.4754 -0.4594
  859MOL0     C15859   4.681   4.252   9.372 -0.3363 -0.4488  0.1251
  859MOL0     C15860   4.810   4.316   9.405 -0.2419 -0.1418  0.8490
  859MOL0     O15861   4.896   4.338   9.304 -0.2802  0.2209 -0.2847
  859MOL0     C15862   5.018   4.386   9.340  0.1562 -0.0617 -1.2260
  859MOL0     C15863   5.102   4.293   9.410  0.3245  0.2267  0.1246
  859MOL0     C15864   5.238   4.319   9.407  0.4395  0.8820 -0.6177
  859MOL0     C15865   5.292   4.445   9.378  0.4429 -0.0887 -0.2096
  859MOL0     O15866   5.424   4.454   9.387  0.2562 -0.0039 -0.3014
  859MOL0     C15867   5.484   4.574   9.433 -0.6830 -0.2323 -0.2197
  859MOL0     C15868   5.597   4.550   9.536 -0.8154 -0.1167  0.0870
  859MOL0     C15869   5.567   4.447   9.648 -0.1881 -0.5959 -0.2332
  859MOL0     C15870   5.488   4.530   9.756 -0.2933 -0.9033 -0.7947
  859MOL0     C15871   5.452   4.455   9.882 -0.5245  0.5163 -0.3772
  859MOL0     C15872   5.301   4.428   9.882  0.4553 -0.4086 -0.3676
  859MOL0     C15873   5.238   4.354   9.997  0.0842  0.2157 -0.1926
  859MOL0     C15874   5.230   4.440  10.124 -0.1305  0.4178 -0.4073
  859MOL0    Cl15875   5.109   4.572  10.129 -0.3233 -0.1260  0.0016
  859MOL0     C15876   5.205   4.545   9.324  0.4303  0.9104 -0.0406
  859MOL0     C15877   5.073   4.511   9.295  0.2405  0.6637  0.2039
  859MOL0     O15878   4.824   4.358   9.517  0.7605 -0.2432 -0.7696
  859MOL0     C15879   4.661   4.212   9.240  0.4089  0.4834 -0.6711
  859MOL0     C15880   4.543   4.139   9.207 -0.7323  0.7287  0.1987
  859MOL0     N15881   4.069   3.723   8.733  1.3054  0.3691  0.2354
  859MOL0     N15882   4.026   3.624   8.656 -0.2748  0.0327 -0.4514
  859MOL0     C15883   4.412   2.987   9.572 -0.6366 -0.7493  0.6735
  859MOL0     C15884   4.444   3.058   9.687  0.0896 -0.1042  0.3429
  859MOL0     C15885   4.559   3.306  10.036 -0.5625  0.3773  0.4877
  859MOL0     C15886   4.664   3.394  10.019 -0.2268  0.2895 -0.1968
  859MOL0     C15887   4.739   3.446  10.127 -0.4608 -0.0956 -0.8223
  859MOL0     C15888   4.696   3.418  10.256  0.3812 -0.2899 -0.2390
  859MOL0     O15889   4.786   3.468  10.358 -0.4315 -0.2549  0.6199
  859MOL0     C15890   4.740   3.445  10.494 -0.3528  0.0761 -0.1786
  859MOL0     C15891   4.840   3.535  10.570  0.6949  0.1625 -0.5092
  859MOL0     C15892   4.813   3.542  10.725  0.5146  0.4251 -0.8215
  859MOL0     C15893   4.932   3.522  10.812  0.4336 -1.3853  0.3794
  859MOL0     C15894   4.998   3.393  10.801 -0.3899 -0.0516  0.6265
  859MOL0     C15895   5.067   3.296  10.782 -0.3778  0.6706 -0.2440
  859MOL0     C15896   4.594   3.327  10.278 -0.9802 -0.1886  0.9598
  859MOL0     C15897   4.532   3.276  10.165  0.1039  0.8696  0.6741
  859MOL0     H15898   4.499   3.367   9.548 -2.5349  0.6911  0.8650
  859MOL0     H15899   4.415   3.232   9.344 -2.9157 -0.8607 -0.3988
  859MOL0     H15900   4.177   3.071   9.316 -1.9192  1.6129 -2.9724
  859MOL0     H15901   4.310   3.131   9.212  0.3810 -0.2307  1.5437
  859MOL0     H15902   4.285   2.942   9.065  0.2375 -2.5055  0.5768
  859MOL0     H15903   4.195   2.855   9.198 -0.6780  0.8414  0.8051
  859MOL0     H15904   4.033   2.911   9.031  1.0270  1.2779 -3.6014
  859MOL0     H15905   4.018   3.023   9.169 -1.4665  2.4206 -0.8714
  859MOL0     H15906   4.156   3.188   9.035 -1.2759 -0.2314  2.0899
  859MOL0     H15907   4.166   3.065   8.904 -0.4581 -1.1281 -1.5374
  859MOL0     H15908   3.900   3.064   8.902 -3.5497  3.9635 -2.3109
  859MOL0     H15909   3.930   3.206   9.007  2.5312  1.4743  0.1467
  859MOL0     H15910   4.061   3.305   8.816 -0.5628 -0.7531  0.3178
  859MOL0     H15911   4.042   3.169   8.726  0.9131 -0.3149  0.3972
  859MOL0     H15912   3.792   3.238   8.708 -0.3648  0.2665  0.8598
  859MOL0     H15913   3.803   3.331   8.854  1.2760  1.1043  0.0839
  859MOL0     H15914   3.792   3.470   8.623  0.7569 -1.2867 -0.2085
  859MOL0     H15915   3.934   3.394   8.585  0.2073 -1.8906 -0.1306
  859MOL0     H15916   3.854   3.598   8.940  0.9013  2.7715  1.7829
  859MOL0     H15917   3.986   3.919   8.923  1.4549 -0.3401 -1.8187
  859MOL0     H15918   3.945   3.803   9.050  1.7993 -1.6112  1.0860
  859MOL0     H15919   4.220   3.850   8.944  0.5236  3.0277  0.7138
  859MOL0     H15920   4.177   3.719   9.060 -2.1043  0.6520  2.1228
  859MOL0     H15921   4.129   3.874   9.223  3.4955 -1.8582  1.0397
  859MOL0     H15922   4.108   4.011   9.109  1.5118 -0.1988 -3.6783
  859MOL0     H15923   4.339   4.011   9.062  0.7709 -1.0527 -0.0926
  859MOL0     H15924   4.367   3.868   9.154 -1.5846 -0.1076  0.0303
  859MOL0     H15925   4.399   4.121   9.507 -1.0406 -1.8203 -1.3923
  859MOL0     H15926   4.605   4.368   9.626  0.1921  0.4348  0.2531
  859MOL0     H15927   4.484   4.247   9.665  2.1875 -1.1184  2.3282
  859MOL0     H15928   4.656   4.210   9.665  0.0882  0.4757  0.0248
  859MOL0     H15929   5.065   4.198   9.448  1.6956 -0.3058  0.1930
  859MOL0     H15930   5.302   4.238   9.442 -1.3749  0.3574  1.7077
  859MOL0     H15931   5.523   4.628   9.346 -2.6637 -0.7893 -1.5111
  859MOL0     H15932   5.406   4.638   9.474 -0.7401 -1.2535  1.3265
  859MOL0     H15933   5.674   4.499   9.477  0.9881  1.7034  0.7681
  859MOL0     H15934   5.644   4.640   9.577  2.4218 -1.8478  0.4973
  859MOL0     H15935   5.661   4.408   9.688 -0.9093 -1.1890  0.9493
  859MOL0     H15936   5.503   4.368   9.608 -0.2083 -0.2779 -0.8403
  859MOL0     H15937   5.559   4.609   9.785 -0.8764 -0.5058 -0.4225
  859MOL0     H15938   5.403   4.579   9.708 -0.2415  1.5530  1.3998
  859MOL0     H15939   5.472   4.516   9.970  1.1102 -2.9996  1.9151
  859MOL0     H15940   5.513   4.365   9.894  0.3710  1.4262  2.8303
  859MOL0     H15941   5.247   4.517   9.848 -0.5693 -1.4138 -1.4725
  859MOL0     H15942   5.285   4.355   9.802 -1.3155 -0.2400 -0.2037
  859MOL0     H15943   5.303   4.271  10.028  0.0041  0.2791  0.1496
  859MOL0     H15944   5.143   4.309   9.968  0.2214  0.9346 -1.9073
  859MOL0     H15945   5.332   4.476  10.142  0.4380  0.2174 -2.8748
  859MOL0     H15946   5.216   4.386  10.218  0.3133  2.1328  0.6933
  859MOL0     H15947   5.243   4.644   9.297  0.1983  1.2402  0.8152
  859MOL0     H15948   5.011   4.589   9.253 -1.1316 -0.7964 -0.5912
  859MOL0     H15949   4.741   4.231   9.169  1.6001 -0.7342  0.2778
  859MOL0     H15950   4.519   4.104   9.108 -2.6851 -1.7997  1.4516
  859MOL0     H15951   4.410   2.879   9.586 -0.9159 -0.7614  0.5577
  859MOL0     H15952   4.469   3.018   9.785  0.0386  0.8495  0.7581
  859MOL0     H15953   4.684   3.424   9.916 -2.2744  4.1547  0.3597
  859MOL0     H15954   4.827   3.510  10.123  0.1185 -0.7501  0.5703
  859MOL0     H15955   4.638   3.484  10.498 -0.5737 -0.2278 -2.0226
  859MOL0     H15956   4.745   3.338  10.516 -1.3563  0.0348 -0.1345
  859MOL0     H15957   4.816   3.635  10.534 -3.2959  0.0143  1.2164
  859MOL0     H15958   4.943   3.505  10.548  0.1380 -1.3372 -1.2164
  859MOL0     H15959   4.749   3.458  10.753  0.5480  1.3087  2.3137
  859MOL0     H15960   4.752   3.628  10.758 -2.2470 -0.9594 -1.9567
  859MOL0     H15961   4.914   3.539  10.919  0.6567 -2.4496  0.6041
  859MOL0     H15962   4.997   3.608  10.793 -2.5034  1.3452  1.8391
  859MOL0     H15963   5.133   3.216  10.755 -0.0049  0.8566  0.1033
  859MOL0     H15964   4.551   3.292  10.371  0.4701  0.4316  1.8976
  859MOL0     H15965   4.451   3.207  10.187 -0.1812  0.9568 -0.1021
  860MOL0     O15966   0.532   1.717   4.120  0.4812 -0.5149  0.2064
  860MOL0     C15967   0.647   1.763   4.103  1.0487  0.6566 -0.1516
  860MOL0     O15968   0.693   1.821   3.995  0.3233 -0.4137  0.1891
  860MOL0     C15969   0.628   1.900   3.899  0.2732  0.5666  0.5057
  860MOL0     C15970   0.492   1.907   3.892  1.0240 -1.6539  0.6477
  860MOL0     C15971   0.436   1.978   3.787 -0.9405 -0.7031  0.2357
  860MOL0     C15972   0.510   2.042   3.694 -0.1438 -0.6215 -0.1249
  860MOL0     O15973   0.439   2.101   3.587  0.1295  0.5474 -0.4675
  860MOL0     C15974   0.456   2.247   3.582 -0.7272 -0.2656  0.4552
  860MOL0     C15975   0.357   2.323   3.669  0.3041 -0.0934 -0.2305
  860MOL0     C15976   0.375   2.476   3.638  0.3094 -0.0109  0.2052
  860MOL0     C15977   0.270   2.560   3.707 -0.7665  0.3739 -0.0533
  860MOL0     C15978   0.273   2.715   3.719  0.7619  0.6376 -0.0886
  860MOL0     C15979   0.257   2.787   3.584 -0.2527 -0.3566  0.0398
  860MOL0     C15980   0.277   2.946   3.586  0.2387 -0.6205 -0.4991
  860MOL0     C15981   0.177   3.022   3.669 -0.4640  0.3193  0.2270
  860MOL0     N15982   0.038   3.017   3.606 -0.0346 -0.0663  0.0851
  860MOL0     C15983  -0.078   2.954   3.657 -0.3353 -0.9527  0.3763
  860MOL0     C15984  -0.175   3.002   3.566 -0.3989  1.4416 -0.9122
  860MOL0     C15985  -0.324   2.998   3.593 -0.2867 -0.2723  0.0385
  860MOL0     C15986  -0.392   2.875   3.531  1.2709 -0.5591 -0.8827
  860MOL0     C15987  -0.543   2.860   3.563  0.8364  0.2380  0.7432
  860MOL0     C15988  -0.585   2.863   3.710 -0.2907 -0.0910  0.2248
  860MOL0     O15989  -0.692   2.772   3.725  0.0240  0.2367  0.0515
  860MOL0     C15990  -0.755   2.783   3.847 -0.5864  0.1410 -0.0069
  860MOL0     C15991  -0.801   2.900   3.906 -0.1214 -0.7922  1.5943
  860MOL0     C15992  -0.876   2.903   4.021  0.2275  0.1198  0.6810
  860MOL0     C15993  -0.928   3.032   4.081  0.7160  0.0298  0.1367
  860MOL0     C15994  -0.903   2.780   4.085 -0.7465  0.1351 -0.6636
  860MOL0     C15995  -0.967   2.771   4.214  0.0995 -0.2105  0.6560
  860MOL0     O15996  -1.039   2.655   4.239  0.3279  0.3118  0.1689
  860MOL0     C15997  -1.129   2.652   4.340  0.3038 -0.1720 -0.4673
  860MOL0     C15998  -1.193   2.765   4.392 -0.0526 -0.5083 -0.4301
  860MOL0     C15999  -1.298   2.752   4.484  0.1012 -0.2990  0.8049
  860MOL0     C16000  -1.318   2.626   4.543  0.3281 -0.3162  0.2726
  860MOL0     O16001  -1.401   2.633   4.660 -0.3604 -0.1495 -0.6294
  860MOL0     C16002  -1.424   2.511   4.725 -0.0330  0.5283  0.7485
  860MOL0     C16003  -1.496   2.541   4.862  0.8285 -0.0012 -0.8017
  860MOL0     C16004  -1.396   2.613   4.954 -0.2691  1.1332 -0.3741
  860MOL0     C16005  -1.246   2.570   4.943 -0.1009 -0.5613 -0.4684
  860MOL0     C16006  -1.151   2.605   5.066  0.8535  0.9227  0.1734
  860MOL0     C16007  -1.134   2.491   5.165 -1.0193  0.0907 -0.0623
  860MOL0     C16008  -1.045   2.520   5.284  0.2557 -0.2056  0.3563
  860MOL0     C16009  -1.033   2.397   5.377 -0.5073  0.1639  0.1731
  860MOL0    Cl16010  -0.940   2.460   5.506  0.3685 -0.1774  0.2230
  860MOL0     C16011  -1.258   2.512   4.486  0.6511  0.5234 -0.2482
  860MOL0     C16012  -1.158   2.519   4.391 -0.5747 -0.5876 -0.0979
  860MOL0     O16013  -0.924   2.856   4.289  0.2707  0.3785 -0.2579
  860MOL0     C16014  -0.860   2.662   4.020 -0.7336 -0.4469 -1.3500
  860MOL0     C16015  -0.788   2.662   3.899 -0.2461 -0.1514 -0.7064
  860MOL0     N16016  -0.110   3.067   3.464 -0.6711 -0.3072  0.7542
  860MOL0     N16017   0.019   3.087   3.488 -0.6432  0.1399  0.7612
  860MOL0     C16018   0.651   2.030   3.694  0.4466 -0.2450  0.1602
  860MOL0     C16019   0.707   1.959   3.796  0.2183  0.1052 -0.2527
  860MOL0     C16020   0.751   1.719   4.205  0.3529 -0.1113 -0.1745
  860MOL0     C16021   0.721   1.637   4.316 -0.3638 -0.6556 -0.0260
  860MOL0     C16022   0.806   1.619   4.420 -0.5369  0.4634  0.7358
  860MOL0     C16023   0.933   1.679   4.409 -0.5471  0.9231 -0.3145
  860MOL0     O16024   1.036   1.659   4.493  0.2393  0.2906  0.0541
  860MOL0     C16025   1.039   1.545   4.579  0.3289  0.1951 -0.6041
  860MOL0     C16026   1.173   1.516   4.650  0.3866 -0.1195  0.5813
  860MOL0     C16027   1.196   1.597   4.772 -1.0554 -0.3504 -0.4147
  860MOL0     C16028   1.193   1.754   4.752  1.4979 -0.9552 -1.0401
  860MOL0     C16029   1.169   1.836   4.868 -0.5620 -0.3045 -0.6393
  860MOL0     C16030   1.135   1.899   4.964  0.1687 -0.1739  0.7636
  860MOL0     C16031   0.967   1.760   4.296 -0.8438  0.4080  0.3655
  860MOL0     C16032   0.879   1.765   4.190  0.0998 -0.8762  1.3311
  860MOL0     H16033   0.430   1.855   3.965  1.0187 -1.6147  0.6713
  860MOL0     H16034   0.329   1.998   3.793 -0.4944  2.4787 -0.3932
  860MOL0     H16035   0.559   2.277   3.604  0.2071 -0.6832 -2.7646
  860MOL0     H16036   0.448   2.282   3.478  2.3039 -0.1069  0.1830
  860MOL0     H16037   0.256   2.284   3.655  1.1219 -1.5184 -2.8702
  860MOL0     H16038   0.391   2.308   3.772  0.0446 -0.0566 -0.1377
  860MOL0     H16039   0.469   2.511   3.681 -0.8650  3.5470  0.2122
  860MOL0     H16040   0.383   2.509   3.533 -1.0357  0.0323  0.0935
  860MOL0     H16041   0.188   2.549   3.635 -0.6580  0.1080 -0.1382
  860MOL0     H16042   0.249   2.507   3.800  4.5994 -0.7218  0.8862
  860MOL0     H16043   0.195   2.739   3.791  1.1519 -0.9499  0.9113
  860MOL0     H16044   0.370   2.732   3.766  0.7644  2.3653 -0.6624
  860MOL0     H16045   0.330   2.747   3.513  0.6414  0.7876  0.2900
  860MOL0     H16046   0.156   2.777   3.545 -0.8980  1.8634  0.9880
  860MOL0     H16047   0.375   2.980   3.620 -0.5509 -0.7241  2.1898
  860MOL0     H16048   0.257   2.979   3.484 -0.2233  0.2551 -0.1374
  860MOL0     H16049   0.204   3.127   3.660  1.7763 -0.0196  2.1706
  860MOL0     H16050   0.171   2.989   3.773  1.4918 -0.2955  0.1714
  860MOL0     H16051  -0.090   2.901   3.751 -0.9005 -0.9100  0.3270
  860MOL0     H16052  -0.331   2.984   3.701  1.0226 -4.5478 -0.2215
  860MOL0     H16053  -0.361   3.089   3.547  1.1577 -0.5328 -1.7875
  860MOL0     H16054  -0.352   2.783   3.574 -1.0269  1.1788  6.2256
  860MOL0     H16055  -0.382   2.881   3.422 -2.6417 -0.8233 -1.4168
  860MOL0     H16056  -0.582   2.773   3.511 -2.3740  1.9443  0.0497
  860MOL0     H16057  -0.581   2.945   3.505  4.2890  2.2091  1.0356
  860MOL0     H16058  -0.610   2.963   3.745  0.2160  0.6299 -1.3920
  860MOL0     H16059  -0.504   2.825   3.772  0.8549 -0.7550 -1.5910
  860MOL0     H16060  -0.778   3.000   3.870 -0.5483 -0.8941  1.0371
  860MOL0     H16061  -0.884   3.057   4.178  0.2065 -0.6715  0.5646
  860MOL0     H16062  -0.902   3.115   4.016  1.6010  0.2606  0.7661
  860MOL0     H16063  -1.036   3.030   4.096  0.6013 -0.0846 -0.6899
  860MOL0     H16064  -1.161   2.857   4.344 -2.1969  0.0361 -0.9311
  860MOL0     H16065  -1.359   2.833   4.523 -0.9596 -0.9011  0.4564
  860MOL0     H16066  -1.500   2.465   4.661 -0.9666  3.7731 -0.6704
  860MOL0     H16067  -1.342   2.446   4.755  0.7397  1.9629  1.8689
  860MOL0     H16068  -1.574   2.615   4.844 -0.3518 -1.3836 -1.6273
  860MOL0     H16069  -1.552   2.457   4.905  3.1018 -0.2135  2.0397
  860MOL0     H16070  -1.431   2.602   5.057 -0.3248  0.3976 -0.4619
  860MOL0     H16071  -1.409   2.720   4.935 -2.2643  0.7469 -1.4384
  860MOL0     H16072  -1.251   2.461   4.936  2.7370 -0.8748  1.1267
  860MOL0     H16073  -1.206   2.624   4.856  2.1276  0.5785  1.1659
  860MOL0     H16074  -1.182   2.693   5.123  1.2273  1.7570 -0.8926
  860MOL0     H16075  -1.049   2.624   5.030  1.4645 -0.7437  0.8702
  860MOL0     H16076  -1.228   2.458   5.211 -0.2721  0.8300  2.0952
  860MOL0     H16077  -1.104   2.395   5.120 -2.4591  0.1362 -1.2156
  860MOL0     H16078  -1.092   2.610   5.326  0.9012 -0.1100  0.8909
  860MOL0     H16079  -0.946   2.541   5.243 -0.4505 -0.1400 -1.3754
  860MOL0     H16080  -0.981   2.322   5.316  1.7941 -0.8015  3.1309
  860MOL0     H16081  -1.127   2.345   5.398 -0.9138 -0.7169 -3.1697
  860MOL0     H16082  -1.272   2.409   4.517  1.3200  0.4179 -0.2842
  860MOL0     H16083  -1.107   2.425   4.372  2.2784  0.1191  3.0891
  860MOL0     H16084  -0.877   2.564   4.063  1.2455  0.0073  0.7260
  860MOL0     H16085  -0.756   2.570   3.851 -1.3805 -1.5866  1.1573
  860MOL0     H16086   0.704   2.082   3.615  0.5479  0.8681  0.9315
  860MOL0     H16087   0.814   1.954   3.811 -0.0285 -1.5331  1.3218
  860MOL0     H16088   0.621   1.600   4.332 -0.4517  0.3002  2.0745
  860MOL0     H16089   0.777   1.571   4.514 -2.2750  0.5498  0.2893
  860MOL0     H16090   0.952   1.538   4.645 -1.2635 -5.4356 -2.7730
  860MOL0     H16091   1.034   1.460   4.510 -0.4577 -1.6671  1.6239
  860MOL0     H16092   1.248   1.547   4.577 -0.9108 -1.9039 -1.6379
  860MOL0     H16093   1.197   1.411   4.665  0.5360  0.0131  1.3022
  860MOL0     H16094   1.295   1.579   4.815  0.2253  4.3333 -0.8347
  860MOL0     H16095   1.123   1.570   4.848 -0.1760 -0.7393  0.3207
  860MOL0     H16096   1.118   1.785   4.679 -3.0751 -0.7636  3.1769
  860MOL0     H16097   1.280   1.784   4.693 -0.0641 -0.1910 -3.0552
  860MOL0     H16098   1.087   1.950   5.045 -2.2836 -0.5824 -0.3556
  860MOL0     H16099   1.064   1.808   4.290 -0.8479  0.2882 -0.9161
  860MOL0     H16100   0.916   1.822   4.105  2.5952 -3.5754  0.4362
  861MOL0     O16101   7.723  10.911   2.121  0.5396  0.7617 -0.1438
  861MOL0     C16102   7.693  11.021   2.164  0.1081  0.5317  0.1243
  861MOL0     O16103   7.564  11.070   2.184  0.0502  0.6894 -0.0914
  861MOL0     C16104   7.461  10.995   2.134  0.2591  0.7908 -0.0926
  861MOL0     C16105   7.434  10.865   2.195 -0.4196  0.3132  1.0578
  861MOL0     C16106   7.327  10.789   2.144 -0.0665  0.8959 -0.2003
  861MOL0     C16107   7.233  10.842   2.049 -0.2461 -0.1335 -0.5214
  861MOL0     O16108   7.121  10.767   2.005  0.0656 -0.2012 -0.2483
  861MOL0     C16109   7.113  10.633   2.037  0.2678  0.5071  0.8841
  861MOL0     C16110   6.986  10.576   1.977 -0.4662  0.2331 -0.0297
  861MOL0     C16111   6.953  10.440   2.044  0.1304  0.3705  0.5103
  861MOL0     C16112   6.838  10.366   1.971 -0.6958  0.3535  0.2217
  861MOL0     C16113   6.762  10.272   2.068  0.2396 -0.8051  0.3455
  861MOL0     C16114   6.639  10.201   2.000  0.6396 -0.3758  0.1622
  861MOL0     C16115   6.689  10.130   1.863  0.3453 -0.9573 -0.5651
  861MOL0     C16116   6.599  10.029   1.800  0.3563 -0.3261 -0.6074
  861MOL0     N16117   6.656   9.990   1.672  0.5589  0.6345 -0.1702
  861MOL0     C16118   6.723   9.868   1.652  0.4878 -0.8560 -0.3193
  861MOL0     C16119   6.815   9.897   1.553  0.7407 -0.6861 -0.6363
  861MOL0     C16120   6.918   9.799   1.492  0.3032  0.0514  0.2282
  861MOL0     C16121   7.060   9.806   1.552  0.0352  0.1993  0.5118
  861MOL0     C16122   7.168   9.784   1.448  0.8865 -0.5124 -0.1146
  861MOL0     C16123   7.310   9.791   1.493  0.1434 -0.1073  0.0579
  861MOL0     O16124   7.322   9.691   1.595 -0.0051 -0.7780  0.2336
  861MOL0     C16125   7.443   9.635   1.620  0.2599  0.0987  0.3281
  861MOL0     C16126   7.567   9.669   1.566 -0.0792 -0.0642  0.8873
  861MOL0     C16127   7.692   9.613   1.600 -0.0754  0.3222  0.2472
  861MOL0     C16128   7.819   9.668   1.524 -0.4071  1.1714 -0.5109
  861MOL0     C16129   7.683   9.508   1.700 -1.0429  0.3920 -0.2710
  861MOL0     C16130   7.805   9.437   1.752 -0.0330 -0.1569 -0.6496
  861MOL0     O16131   7.787   9.309   1.806 -0.3196  0.1233  0.5760
  861MOL0     C16132   7.883   9.243   1.870  0.3477 -0.4562 -0.4593
  861MOL0     C16133   7.869   9.107   1.872  0.5729 -0.5280  1.0336
  861MOL0     C16134   7.951   9.016   1.939 -0.1767 -0.9368 -0.0444
  861MOL0     C16135   8.063   9.071   2.009 -0.2966  0.2018 -0.5694
  861MOL0     O16136   8.155   8.999   2.085  0.7023  0.3523 -0.1712
  861MOL0     C16137   8.115   8.891   2.170  0.0667  0.9369  0.1997
  861MOL0     C16138   7.991   8.931   2.255  0.6054  0.7338 -0.0800
  861MOL0     C16139   8.021   9.060   2.337  0.1076 -1.0168  0.7918
  861MOL0     C16140   7.909   9.094   2.439 -1.1830 -0.1634  0.5214
  861MOL0     C16141   7.778   9.140   2.380  0.7129 -0.0837  0.5448
  861MOL0     C16142   7.777   9.255   2.270 -0.3315  0.8350  0.5133
  861MOL0     C16143   7.627   9.277   2.237 -0.8991 -0.1144  0.5900
  861MOL0     C16144   7.569   9.177   2.132 -0.2091 -0.2335 -0.5666
  861MOL0    Cl16145   7.388   9.232   2.111 -0.0735  0.4137  0.1070
  861MOL0     C16146   8.088   9.210   2.008 -0.7764 -0.4741  0.2693
  861MOL0     C16147   7.992   9.295   1.944  0.2605  0.1893  0.1132
  861MOL0     O16148   7.912   9.501   1.743 -0.8041  0.3142  0.2581
  861MOL0     C16149   7.550   9.459   1.740  0.1582 -0.3801  0.8163
  861MOL0     C16150   7.435   9.533   1.711 -0.3454 -0.9342 -0.6493
  861MOL0     N16151   6.798  10.024   1.510 -0.8800  0.1362  0.2289
  861MOL0     N16152   6.714  10.076   1.583  0.4320 -0.2954  1.2468
  861MOL0     C16153   7.248  10.977   2.010 -0.1497  0.4054 -0.1879
  861MOL0     C16154   7.365  11.047   2.046  0.4208  0.6077  0.3826
  861MOL0     C16155   7.804  11.103   2.223  0.0458  0.3185 -0.1942
  861MOL0     C16156   7.778  11.180   2.336  0.3443 -0.5589  0.2008
  861MOL0     C16157   7.882  11.245   2.394  0.9722 -0.2932 -0.9850
  861MOL0     C16158   8.008  11.241   2.353 -0.0928  0.1943  0.3665
  861MOL0     O16159   8.108  11.309   2.427  0.9178 -0.1710 -0.2801
  861MOL0     C16160   8.248  11.267   2.432 -0.3193  0.1250 -0.1043
  861MOL0     C16161   8.337  11.393   2.419  0.5244  0.2521 -0.5744
  861MOL0     C16162   8.487  11.353   2.434 -0.0220 -0.0579  0.1547
  861MOL0     C16163   8.562  11.486   2.418  0.2158 -0.0857 -0.7211
  861MOL0     C16164   8.702  11.494   2.371  0.1752 -0.2862  0.6626
  861MOL0     C16165   8.810  11.489   2.325 -0.1439 -1.1018 -0.2054
  861MOL0     C16166   8.038  11.169   2.232 -0.3574 -0.4315 -0.3875
  861MOL0     C16167   7.935  11.098   2.170  0.2781  0.5464  0.1270
  861MOL0     H16168   7.499  10.814   2.265  1.5388 -1.6998 -1.9886
  861MOL0     H16169   7.305  10.695   2.193  0.8803  0.6303 -0.2710
  861MOL0     H16170   7.199  10.583   1.993  0.9100  1.8098  0.5947
  861MOL0     H16171   7.123  10.619   2.146 -4.6975  4.3768  2.2050
  861MOL0     H16172   6.907  10.646   2.005  1.0730  1.7415  0.6836
  861MOL0     H16173   6.999  10.559   1.869 -0.7975 -2.2908  0.2654
  861MOL0     H16174   7.039  10.375   2.061 -0.0064  0.6238  2.4944
  861MOL0     H16175   6.922  10.471   2.145 -1.3904  1.5847 -0.2890
  861MOL0     H16176   6.765  10.439   1.933  1.8027  3.1911  0.4829
  861MOL0     H16177   6.880  10.301   1.893 -0.0504  1.3776 -0.3053
  861MOL0     H16178   6.834  10.202   2.113  2.7378 -0.7603 -3.1762
  861MOL0     H16179   6.722  10.335   2.148 -0.9960 -3.2339  1.7789
  861MOL0     H16180   6.616  10.121   2.071 -1.7809 -0.7048 -0.8947
  861MOL0     H16181   6.555  10.267   1.978  0.4550 -1.0302 -1.2095
  861MOL0     H16182   6.699  10.210   1.789  0.0975 -2.3280 -2.1271
  861MOL0     H16183   6.787  10.087   1.885  0.2188 -0.2893  1.5405
  861MOL0     H16184   6.502  10.076   1.780  0.4349  1.3380  2.2710
  861MOL0     H16185   6.584   9.941   1.863 -3.7250  0.1662 -0.6191
  861MOL0     H16186   6.697   9.779   1.708 -2.0348 -0.2341 -0.3835
  861MOL0     H16187   6.882   9.696   1.505 -0.3224  0.3987  1.4768
  861MOL0     H16188   6.925   9.831   1.388  1.9334  1.6510  0.7912
  861MOL0     H16189   7.072   9.737   1.636  0.5523 -0.1796  0.1314
  861MOL0     H16190   7.078   9.901   1.602  1.2528 -0.4311  1.3082
  861MOL0     H16191   7.148   9.855   1.367  1.1564 -0.2691  0.0295
  861MOL0     H16192   7.169   9.679   1.416  0.7112 -0.0998 -1.5825
  861MOL0     H16193   7.336   9.884   1.545 -0.9850 -1.0901  2.5305
  861MOL0     H16194   7.371   9.772   1.404 -2.7992 -1.7188 -1.8130
  861MOL0     H16195   7.563   9.747   1.490 -1.3680 -1.7711 -0.9000
  861MOL0     H16196   7.790   9.684   1.420 -3.7565 -1.0730 -0.1160
  861MOL0     H16197   7.860   9.756   1.573 -0.2399  1.2144 -0.7268
  861MOL0     H16198   7.907   9.604   1.522 -1.6583 -0.7838  1.7099
  861MOL0     H16199   7.787   9.064   1.814  2.0388 -1.4926 -0.4097
  861MOL0     H16200   7.933   8.910   1.927  0.2029 -1.2891  2.1084
  861MOL0     H16201   8.098   8.803   2.107  1.9665  0.3774  0.3982
  861MOL0     H16202   8.193   8.865   2.242 -0.5468  1.3301  1.0331
  861MOL0     H16203   7.903   8.941   2.192  2.2927 -0.0617 -2.7035
  861MOL0     H16204   7.969   8.850   2.326  2.1794 -0.5579 -0.9884
  861MOL0     H16205   8.050   9.140   2.268  0.5793 -1.1766  0.7972
  861MOL0     H16206   8.111   9.056   2.398  1.2423  2.0718 -0.4774
  861MOL0     H16207   7.868   9.007   2.491 -4.5956  0.0308 -1.5086
  861MOL0     H16208   7.946   9.172   2.506  0.6743 -1.1348  0.6931
  861MOL0     H16209   7.723   9.185   2.463  0.0239 -0.2576  0.1886
  861MOL0     H16210   7.725   9.054   2.339  2.6635 -1.6083  1.0976
  861MOL0     H16211   7.813   9.350   2.311 -0.0556  2.1928 -2.6080
  861MOL0     H16212   7.831   9.235   2.177 -3.2561 -0.0735 -1.1316
  861MOL0     H16213   7.611   9.377   2.196  0.7403 -0.0906 -0.0880
  861MOL0     H16214   7.573   9.287   2.331 -2.1682  0.4713 -0.1645
  861MOL0     H16215   7.568   9.075   2.172  1.1605 -0.5599 -1.3255
  861MOL0     H16216   7.639   9.184   2.049  2.7804 -0.4991  1.7809
  861MOL0     H16217   8.178   9.248   2.055  1.1490  0.9406 -4.0949
  861MOL0     H16218   7.998   9.402   1.962  1.3258  0.0537  0.6469
  861MOL0     H16219   7.529   9.372   1.802 -0.0450 -0.4979  0.5835
  861MOL0     H16220   7.344   9.517   1.768 -0.9264  3.6245  0.1309
  861MOL0     H16221   7.174  11.009   1.937  2.2117  0.2818 -2.8448
  861MOL0     H16222   7.383  11.148   2.010 -0.4245  0.4786 -0.4498
  861MOL0     H16223   7.679  11.178   2.380  0.7062 -0.8649  1.0338
  861MOL0     H16224   7.869  11.303   2.484  3.8199  0.7444 -1.1393
  861MOL0     H16225   8.257  11.224   2.532  1.2283  0.3575 -0.1194
  861MOL0     H16226   8.268  11.186   2.362  0.9807 -0.9583  1.4367
  861MOL0     H16227   8.302  11.464   2.495 -0.8821  0.6178 -1.5220
  861MOL0     H16228   8.322  11.443   2.323  2.1112  0.6897 -0.6187
  861MOL0     H16229   8.514  11.285   2.352  0.7826  1.3738 -0.8200
  861MOL0     H16230   8.516  11.295   2.523  0.3789  0.3050  0.2631
  861MOL0     H16231   8.554  11.536   2.515 -1.3150 -0.8026 -0.4405
  861MOL0     H16232   8.514  11.554   2.347  2.5375  2.8202  0.3048
  861MOL0     H16233   8.895  11.459   2.266  0.4709 -1.3416  0.7838
  861MOL0     H16234   8.137  11.168   2.187 -0.6028 -1.0313 -0.9228
  861MOL0     H16235   7.951  11.042   2.079  2.7016 -1.1485  1.4634
  862MOL0     O16236  10.106   6.472   3.170  0.3609  0.2798  0.4674
  862MOL0     C16237  10.050   6.367   3.190  0.5465 -0.0307 -0.3791
  862MOL0     O16238   9.912   6.346   3.209 -0.1224  0.2168  0.1709
  862MOL0     C16239   9.828   6.454   3.215 -0.3386  0.1848  0.3862
  862MOL0     C16240   9.767   6.468   3.342  0.4803 -0.2950  0.3207
  862MOL0     C16241   9.657   6.569   3.346 -0.0733 -0.8320 -0.3204
  862MOL0     C16242   9.634   6.654   3.237  1.0467  0.2900 -0.6353
  862MOL0     O16243   9.532   6.751   3.258  0.5966  0.4195  0.5398
  862MOL0     C16244   9.469   6.816   3.146 -0.2258  0.6896 -0.2029
  862MOL0     C16245   9.316   6.847   3.181 -0.0141 -0.5012  0.5494
  862MOL0     C16246   9.220   6.880   3.061 -0.4746  0.1533 -0.2750
  862MOL0     C16247   9.191   6.759   2.974 -0.7434 -0.3319 -0.9541
  862MOL0     C16248   9.092   6.657   3.037 -0.1262 -0.5553  0.2006
  862MOL0     C16249   9.041   6.550   2.942  0.4224  0.2978 -0.0463
  862MOL0     C16250   9.013   6.415   3.015  0.2062 -0.0314 -0.4252
  862MOL0     C16251   8.894   6.339   2.953  0.0469 -0.9086 -0.2255
  862MOL0     N16252   8.762   6.405   2.984 -0.7367  0.1090 -0.1634
  862MOL0     C16253   8.645   6.336   2.978  0.1995  0.2417  0.5130
  862MOL0     C16254   8.558   6.398   3.057  0.2993 -0.1022  0.7992
  862MOL0     C16255   8.413   6.357   3.083 -0.2700 -0.4750  0.2754
  862MOL0     C16256   8.369   6.377   3.228  0.1593 -0.0034  0.1804
  862MOL0     C16257   8.239   6.306   3.267  0.4482  0.6732  0.7243
  862MOL0     C16258   8.160   6.374   3.372 -0.1047 -0.5827  0.0417
  862MOL0     O16259   8.219   6.349   3.498  0.1109 -0.2146 -0.0481
  862MOL0     C16260   8.269   6.458   3.562  0.0485  0.5348 -0.2378
  862MOL0     C16261   8.394   6.455   3.617 -0.0584 -0.4775  0.0757
  862MOL0     C16262   8.443   6.542   3.716  1.3193  0.6504  0.3224
  862MOL0     C16263   8.579   6.507   3.772 -0.2875  0.0459  1.1175
  862MOL0     C16264   8.358   6.638   3.769 -0.8454 -0.5361  0.3344
  862MOL0     C16265   8.392   6.740   3.872 -0.6951  0.9006  0.1223
  862MOL0     O16266   8.299   6.844   3.890  0.4561  0.0753  0.5144
  862MOL0     C16267   8.312   6.923   4.002  0.5723  0.4963 -1.1025
  862MOL0     C16268   8.300   6.872   4.126  0.6458 -0.1170 -0.7725
  862MOL0     C16269   8.348   6.951   4.233 -0.4963  0.6592  1.5681
  862MOL0     C16270   8.401   7.087   4.216  0.7928  0.3230  1.6950
  862MOL0     O16271   8.453   7.169   4.310  0.1740  0.4862  0.0204
  862MOL0     C16272   8.507   7.119   4.436  0.1560  1.0556 -0.3863
  862MOL0     C16273   8.483   7.217   4.546 -0.1590 -0.0291 -0.4459
  862MOL0     C16274   8.555   7.353   4.535 -0.4891  0.5380 -1.1062
  862MOL0     C16275   8.678   7.346   4.619 -0.0669 -0.4536 -0.4393
  862MOL0     C16276   8.741   7.487   4.637  0.1153  0.6647 -0.3015
  862MOL0     C16277   8.886   7.483   4.675 -0.0618 -0.3139 -0.2540
  862MOL0     C16278   8.892   7.450   4.831  0.8478  0.1541  0.0282
  862MOL0     C16279   8.899   7.567   4.921 -0.3230 -0.1667  0.0622
  862MOL0    Cl16280   8.941   7.499   5.083  0.1457 -0.4832 -0.0223
  862MOL0     C16281   8.400   7.138   4.087 -0.5661  0.4105 -1.4681
  862MOL0     C16282   8.350   7.055   3.981  0.5350  0.4911 -0.1089
  862MOL0     O16283   8.495   6.725   3.933 -0.8245 -0.6494 -0.3735
  862MOL0     C16284   8.234   6.647   3.714 -0.4918  0.7398  0.9132
  862MOL0     C16285   8.191   6.569   3.607  0.5099  0.0204  0.0381
  862MOL0     N16286   8.625   6.509   3.106 -0.8384 -0.2667 -0.5313
  862MOL0     N16287   8.745   6.512   3.072 -0.2356 -0.1402  0.4113
  862MOL0     C16288   9.703   6.642   3.120 -0.4980  0.5303  0.6904
  862MOL0     C16289   9.804   6.542   3.110 -0.4649 -0.6837 -0.5732
  862MOL0     C16290  10.138   6.244   3.185 -0.0627  0.4347 -0.8796
  862MOL0     C16291  10.265   6.230   3.129 -0.8697 -0.5578  1.0377
  862MOL0     C16292  10.339   6.110   3.136 -0.2392 -1.1958  1.0812
  862MOL0     C16293  10.281   5.994   3.180  0.1211 -0.6276 -0.4624
  862MOL0     O16294  10.326   5.856   3.177 -0.6920  0.3413  0.0672
  862MOL0     C16295  10.452   5.830   3.117 -0.4163 -0.1825  0.9867
  862MOL0     C16296  10.490   5.684   3.121 -1.1419  0.3475  0.1145
  862MOL0     C16297  10.643   5.667   3.120 -0.6858  0.1515 -0.6344
  862MOL0     C16298  10.700   5.693   3.261  0.3028  0.7379 -0.2206
  862MOL0     C16299  10.838   5.661   3.276  0.1841 -0.1453  0.7784
  862MOL0     C16300  10.963   5.654   3.275  0.6290  0.0935  0.4794
  862MOL0     C16301  10.156   6.005   3.247 -0.4955 -0.0701  0.3928
  862MOL0     C16302  10.089   6.124   3.244  0.2285 -0.1438  0.0530
  862MOL0     H16303   9.801   6.406   3.425 -0.3327  0.2115  1.0451
  862MOL0     H16304   9.590   6.566   3.432 -1.6681  1.1523 -1.4043
  862MOL0     H16305   9.525   6.906   3.121  0.7055 -0.1163 -1.1261
  862MOL0     H16306   9.465   6.763   3.051 -1.5345  0.7356 -0.1919
  862MOL0     H16307   9.270   6.765   3.236 -0.2395 -0.0031  1.1265
  862MOL0     H16308   9.337   6.930   3.249 -0.8570 -0.8205  1.2170
  862MOL0     H16309   9.128   6.921   3.106 -1.4274  0.5771 -2.4885
  862MOL0     H16310   9.275   6.958   3.009  3.1303 -0.3569  2.3789
  862MOL0     H16311   9.146   6.792   2.880  0.8090  0.2450 -1.5117
  862MOL0     H16312   9.293   6.723   2.958  1.3573  4.2493  0.3178
  862MOL0     H16313   9.149   6.607   3.116  2.6728  1.3512 -0.4423
  862MOL0     H16314   9.009   6.711   3.082 -0.3409 -1.3009  0.7170
  862MOL0     H16315   8.948   6.583   2.895 -0.2459 -0.9895  0.2925
  862MOL0     H16316   9.108   6.531   2.858 -2.5821  0.1848 -2.5788
  862MOL0     H16317   9.094   6.346   2.988 -1.6857 -1.5615 -2.6385
  862MOL0     H16318   9.003   6.429   3.123  0.4951  1.0234 -0.5234
  862MOL0     H16319   8.889   6.236   2.989  4.2331 -0.1293  3.4021
  862MOL0     H16320   8.914   6.336   2.846  3.9660 -1.4947  0.3898
  862MOL0     H16321   8.626   6.246   2.921  2.7395  0.3400 -0.6493
  862MOL0     H16322   8.351   6.423   3.023 -2.3731 -2.5407 -0.0048
  862MOL0     H16323   8.411   6.251   3.056  3.2677  0.3358 -4.3097
  862MOL0     H16324   8.376   6.486   3.239  2.4375 -0.1669  0.9120
  862MOL0     H16325   8.447   6.331   3.289  0.5563  1.5606  0.9051
  862MOL0     H16326   8.244   6.205   3.309 -2.8316  0.3725  0.6232
  862MOL0     H16327   8.177   6.307   3.178 -0.0810 -2.5557  0.9608
  862MOL0     H16328   8.053   6.352   3.362 -0.0049 -0.2154 -2.4929
  862MOL0     H16329   8.156   6.481   3.349  3.6194 -0.4724 -0.6652
  862MOL0     H16330   8.460   6.371   3.598  1.4071  0.1883  1.9174
  862MOL0     H16331   8.616   6.413   3.730  0.2065  1.8726 -3.0025
  862MOL0     H16332   8.659   6.580   3.766  1.4511 -1.7725  1.1321
  862MOL0     H16333   8.582   6.490   3.880  0.4112 -3.3305  0.7050
  862MOL0     H16334   8.265   6.774   4.156  1.0472  0.2078  0.8326
  862MOL0     H16335   8.341   6.913   4.334 -2.4721  1.5829  1.8216
  862MOL0     H16336   8.460   7.023   4.461  2.8643 -0.1636  0.3684
  862MOL0     H16337   8.615   7.105   4.444  0.5173  4.0657  2.4002
  862MOL0     H16338   8.374   7.224   4.550 -0.5755 -4.2280  2.6001
  862MOL0     H16339   8.500   7.162   4.639 -1.2898 -0.3248 -0.4035
  862MOL0     H16340   8.491   7.418   4.596  0.3392 -1.6902  2.4647
  862MOL0     H16341   8.577   7.381   4.432  2.6962  1.8641 -0.1860
  862MOL0     H16342   8.663   7.296   4.715  1.7820 -0.9355 -0.3720
  862MOL0     H16343   8.758   7.292   4.567  0.9198 -1.0081  1.5790
  862MOL0     H16344   8.696   7.555   4.710  1.5824  1.9186 -0.5210
  862MOL0     H16345   8.734   7.532   4.537  0.2464  0.2947 -0.4795
  862MOL0     H16346   8.936   7.409   4.612 -1.5590 -2.9319  1.4363
  862MOL0     H16347   8.932   7.580   4.656  0.9723 -0.7008  0.1933
  862MOL0     H16348   8.985   7.400   4.855  2.0594  1.3984 -1.7969
  862MOL0     H16349   8.802   7.394   4.860  1.8820 -0.7621  1.5696
  862MOL0     H16350   8.816   7.638   4.920  1.3651  1.9072 -0.0515
  862MOL0     H16351   8.985   7.626   4.887  0.0268 -0.4602  0.4256
  862MOL0     H16352   8.454   7.231   4.072  0.8905  0.3556  2.4300
  862MOL0     H16353   8.359   7.098   3.882  3.2490  2.2756  0.8219
  862MOL0     H16354   8.168   6.728   3.742 -2.7859 -0.6192 -0.3016
  862MOL0     H16355   8.090   6.586   3.571  0.2038  1.3926  1.4367
  862MOL0     H16356   9.673   6.708   3.039 -4.0240 -0.8491  0.6907
  862MOL0     H16357   9.849   6.526   3.012  4.4893  2.4907  0.8414
  862MOL0     H16358  10.317   6.322   3.103 -2.3050 -0.0537 -0.2382
  862MOL0     H16359  10.432   6.102   3.081 -0.4078 -0.0291  0.5924
  862MOL0     H16360  10.460   5.857   3.011  0.3489  1.7821  1.4899
  862MOL0     H16361  10.527   5.894   3.164 -2.0749  3.9666 -1.4076
  862MOL0     H16362  10.456   5.623   3.037  0.0628 -0.1148 -0.0658
  862MOL0     H16363  10.454   5.636   3.213  0.6407  0.0215  0.6994
  862MOL0     H16364  10.689   5.738   3.051  0.2499  1.1594  0.9841
  862MOL0     H16365  10.673   5.564   3.097  0.8141  0.4445 -0.0989
  862MOL0     H16366  10.647   5.643   3.342  1.1636  0.6557  0.3003
  862MOL0     H16367  10.687   5.797   3.294 -0.2628  0.0887  1.7042
  862MOL0     H16368  11.068   5.638   3.286  0.4166 -1.1868  0.8495
  862MOL0     H16369  10.106   5.922   3.295 -2.9587 -1.1118 -3.4997
  862MOL0     H16370   9.992   6.134   3.291 -1.8915 -3.9973 -2.8944
  863MOL0     O16371   6.926   9.899  10.490 -0.4089 -0.0433 -0.1088
  863MOL0     C16372   6.990   9.933  10.587 -0.5385  0.4266 -0.0074
  863MOL0     O16373   7.009  10.060  10.630 -0.6802  0.4723  0.9725
  863MOL0     C16374   6.981  10.165  10.538 -0.7075 -0.2860 -0.7820
  863MOL0     C16375   6.849  10.184  10.484 -0.0331  0.5354 -0.1789
  863MOL0     C16376   6.810  10.292  10.406  0.2568 -0.2468  0.9302
  863MOL0     C16377   6.910  10.386  10.375  0.4469  0.4002  0.0522
  863MOL0     O16378   6.882  10.504  10.301  0.4349 -0.3312  0.0844
  863MOL0     C16379   6.753  10.561  10.285  0.3868  0.1146 -0.2270
  863MOL0     C16380   6.764  10.704  10.230  0.1691  0.4310 -0.3901
  863MOL0     C16381   6.829  10.790  10.339 -0.0415  0.1560 -0.4211
  863MOL0     C16382   6.807  10.932  10.300 -1.1487 -0.3451  0.8367
  863MOL0     C16383   6.845  11.026  10.417 -0.1946 -0.4623  0.1985
  863MOL0     C16384   6.837  11.171  10.383 -0.4279 -0.0478 -0.7933
  863MOL0     C16385   6.958  11.225  10.306  0.1418  0.1087 -0.1769
  863MOL0     C16386   7.096  11.228  10.369  0.1245 -0.2619  0.2547
  863MOL0     N16387   7.109  11.280  10.507  0.1789  0.8561 -0.4045
  863MOL0     C16388   7.093  11.415  10.534  0.5343 -1.2747  0.2448
  863MOL0     C16389   7.085  11.423  10.670 -0.1633 -0.3651 -0.7683
  863MOL0     C16390   7.084  11.557  10.739  0.5139  0.8901  0.7361
  863MOL0     C16391   7.217  11.591  10.798 -0.0754  0.3535  0.3485
  863MOL0     C16392   7.239  11.538  10.944  0.3431  0.2074 -0.5370
  863MOL0     C16393   7.137  11.581  11.050 -1.4252 -0.3090  0.6682
  863MOL0     O16394   7.197  11.562  11.177  0.3743 -0.2847 -0.5976
  863MOL0     C16395   7.150  11.636  11.282  0.4197  0.0470  0.3863
  863MOL0     C16396   7.219  11.701  11.383  0.0749 -0.0236 -0.5406
  863MOL0     C16397   7.149  11.753  11.499 -0.5921 -0.1099  0.4163
  863MOL0     C16398   7.236  11.805  11.613  0.0657  0.4173  0.9100
  863MOL0     C16399   7.006  11.752  11.503 -0.2548  0.1473 -0.8350
  863MOL0     C16400   6.922  11.810  11.603 -0.0853  0.2706 -0.4814
  863MOL0     O16401   6.801  11.751  11.626 -0.1801  0.1679 -0.4096
  863MOL0     C16402   6.727  11.813  11.717 -0.1231 -0.1993 -0.7063
  863MOL0     C16403   6.598  11.846  11.679 -0.5162  0.0199  0.4831
  863MOL0     C16404   6.510  11.895  11.770  0.8565  0.1353 -0.1199
  863MOL0     C16405   6.534  11.902  11.899  0.2445  0.9589 -0.5754
  863MOL0     O16406   6.443  11.970  11.966 -0.1458 -0.8782 -0.3491
  863MOL0     C16407   6.437  11.966  12.106 -0.0375 -0.1727 -1.0352
  863MOL0     C16408   6.393  11.825  12.155 -0.4688 -0.2786 -0.8390
  863MOL0     C16409   6.262  11.769  12.102  0.2225 -0.8273  0.7228
  863MOL0     C16410   6.209  11.653  12.174  0.7488 -0.1119  0.4333
  863MOL0     C16411   6.264  11.514  12.141  0.8402 -0.6639  0.8978
  863MOL0     C16412   6.193  11.409  12.243  0.4769 -0.3022  0.9517
  863MOL0     C16413   6.261  11.272  12.223 -0.8593  0.8218 -0.3810
  863MOL0     C16414   6.238  11.179  12.341 -0.5843 -0.1247 -0.1879
  863MOL0    Cl16415   6.323  11.039  12.305 -0.0181  0.0379  0.6518
  863MOL0     C16416   6.665  11.853  11.947  0.5180 -0.1404  0.5485
  863MOL0     C16417   6.764  11.819  11.855 -0.0341  0.2495  0.2595
  863MOL0     O16418   6.959  11.918  11.642  0.5425  0.2391 -0.8599
  863MOL0     C16419   6.941  11.679  11.402  0.1984 -0.8068  0.1188
  863MOL0     C16420   7.011  11.629  11.296  0.0062  0.4406 -0.3592
  863MOL0     N16421   7.100  11.291  10.722  0.6325 -0.3596  0.6493
  863MOL0     N16422   7.111  11.212  10.621  0.1913  0.2685 -0.6159
  863MOL0     C16423   7.045  10.361  10.410  0.4894 -0.1492 -1.1567
  863MOL0     C16424   7.078  10.253  10.496  0.5537 -0.4122  0.8242
  863MOL0     C16425   7.075   9.835  10.659 -0.1955 -0.7759  0.3057
  863MOL0     C16426   7.053   9.699  10.643 -0.0792  0.0462  0.0735
  863MOL0     C16427   7.145   9.611  10.700 -1.0794 -1.2212 -0.8680
  863MOL0     C16428   7.251   9.656  10.784 -0.0979 -0.7410  0.4347
  863MOL0     O16429   7.333   9.552  10.824 -0.3926  0.3870 -0.2257
  863MOL0     C16430   7.421   9.588  10.926 -0.3434 -0.9996 -0.2703
  863MOL0     C16431   7.524   9.485  10.939  0.1730  0.0841 -0.7711
  863MOL0     C16432   7.607   9.458  10.820  0.8012 -0.2920  0.0632
  863MOL0     C16433   7.693   9.326  10.846  0.0206 -0.3579  1.0737
  863MOL0     C16434   7.802   9.351  10.944 -1.4551  0.2544 -0.3653
  863MOL0     C16435   7.890   9.369  11.030 -0.5643 -0.0839 -0.9914
  863MOL0     C16436   7.259   9.795  10.815  0.9313  0.1113 -0.2420
  863MOL0     C16437   7.174   9.883  10.745 -0.1666 -0.8046  0.7901
  863MOL0     H16438   6.781  10.100  10.489 -0.7208  0.8901 -2.4306
  863MOL0     H16439   6.708  10.289  10.370  0.0441 -3.7955  1.4207
  863MOL0     H16440   6.697  10.492  10.220  1.0161 -1.5193  0.8951
  863MOL0     H16441   6.693  10.567  10.377 -0.4611  2.5248 -0.8707
  863MOL0     H16442   6.819  10.700  10.136  1.1611  4.0416 -0.0881
  863MOL0     H16443   6.659  10.731  10.215 -0.0705 -1.3206 -2.3104
  863MOL0     H16444   6.769  10.781  10.430  0.9817 -0.6699  0.1948
  863MOL0     H16445   6.934  10.770  10.362 -0.3049 -2.5480 -1.2322
  863MOL0     H16446   6.868  10.950  10.212  1.7514 -1.3273  2.5026
  863MOL0     H16447   6.701  10.940  10.274 -1.3410 -3.4575  0.2624
  863MOL0     H16448   6.772  11.011  10.497 -1.7046  1.1185 -0.7990
  863MOL0     H16449   6.949  11.002  10.441  1.5624  3.3309 -2.5712
  863MOL0     H16450   6.749  11.189  10.321 -1.1730 -2.1808 -0.4653
  863MOL0     H16451   6.835  11.226  10.477  1.9545 -2.1483  0.6390
  863MOL0     H16452   6.958  11.166  10.214 -0.9460 -0.2818  0.0531
  863MOL0     H16453   6.934  11.328  10.278 -2.1104 -0.8807 -2.1720
  863MOL0     H16454   7.157  11.272  10.290 -1.3358  0.9290 -0.2437
  863MOL0     H16455   7.120  11.121  10.376 -1.5979 -0.6403  0.8626
  863MOL0     H16456   7.091  11.490  10.455 -0.8384 -1.4609  0.0788
  863MOL0     H16457   7.062  11.634  10.664  2.3501  0.2149 -0.5757
  863MOL0     H16458   7.013  11.552  10.821  0.3437  2.5851  0.7410
  863MOL0     H16459   7.231  11.700  10.793 -0.9509  0.4251 -1.2001
  863MOL0     H16460   7.299  11.551  10.739  0.6938 -0.2058  1.7445
  863MOL0     H16461   7.330  11.580  10.987 -2.4004  1.0375  5.4135
  863MOL0     H16462   7.225  11.430  10.934 -1.2510  0.3890 -0.5597
  863MOL0     H16463   7.045  11.523  11.041 -1.3108 -0.3748 -0.2299
  863MOL0     H16464   7.114  11.687  11.036  2.0286  0.6304  1.1787
  863MOL0     H16465   7.326  11.705  11.364 -0.3349  1.0876 -3.0213
  863MOL0     H16466   7.177  11.782  11.702 -0.5706  0.9687  0.6398
  863MOL0     H16467   7.323  11.740  11.621  0.5171  0.2852 -3.0214
  863MOL0     H16468   7.267  11.910  11.601  0.3606  0.5618  2.7295
  863MOL0     H16469   6.555  11.822  11.582  0.5627 -4.4102  0.8984
  863MOL0     H16470   6.413  11.930  11.736  1.7668  2.0156 -0.9221
  863MOL0     H16471   6.532  11.999  12.151  0.2660 -4.2886  1.9030
  863MOL0     H16472   6.375  12.047  12.146 -0.6549 -0.6825 -0.9434
  863MOL0     H16473   6.471  11.748  12.150  0.4353  0.3630  1.7609
  863MOL0     H16474   6.376  11.839  12.262  0.1479 -1.4478 -0.5761
  863MOL0     H16475   6.267  11.769  11.993 -2.9566 -0.1226  0.4781
  863MOL0     H16476   6.183  11.839  12.131 -1.2562 -1.8976 -0.5196
  863MOL0     H16477   6.232  11.672  12.279  0.8846 -0.2857  0.4360
  863MOL0     H16478   6.101  11.640  12.158  0.4320  2.4632  0.0733
  863MOL0     H16479   6.374  11.521  12.145  0.8063 -0.6805  4.0494
  863MOL0     H16480   6.228  11.487  12.042 -0.5506  1.2738  0.8343
  863MOL0     H16481   6.215  11.441  12.345  0.8582 -0.1231  0.8154
  863MOL0     H16482   6.088  11.385  12.223  1.0262 -1.8039 -0.3091
  863MOL0     H16483   6.366  11.300  12.221 -0.4858 -0.5366 -0.5326
  863MOL0     H16484   6.231  11.224  12.129  1.4772  0.3673 -0.9623
  863MOL0     H16485   6.134  11.152  12.364 -0.8677  0.9669 -0.1044
  863MOL0     H16486   6.277  11.219  12.435 -4.3822 -0.0423  1.5344
  863MOL0     H16487   6.680  11.878  12.051  1.2854  1.1670  0.1524
  863MOL0     H16488   6.860  11.775  11.881  0.0340  1.6032  2.5712
  863MOL0     H16489   6.836  11.655  11.392  0.3977 -1.4411 -0.5919
  863MOL0     H16490   6.948  11.581  11.221 -1.5171  0.6552  0.7442
  863MOL0     H16491   7.117  10.440  10.394  0.1384 -0.2332 -3.5296
  863MOL0     H16492   7.180  10.250  10.533  0.1983 -2.4774  1.7753
  863MOL0     H16493   6.973   9.655  10.583  1.8269 -0.4723 -2.2380
  863MOL0     H16494   7.127   9.507  10.675 -1.5389 -1.4593  0.3721
  863MOL0     H16495   7.470   9.685  10.912 -0.4489 -0.9497 -0.2969
  863MOL0     H16496   7.367   9.616  11.017  2.7814  5.6199  0.1735
  863MOL0     H16497   7.477   9.397  10.983  1.2217  0.7775  1.9014
  863MOL0     H16498   7.592   9.517  11.018 -0.5762 -1.3688  0.5195
  863MOL0     H16499   7.656   9.553  10.799  1.5477 -1.1156 -2.1556
  863MOL0     H16500   7.548   9.442  10.729  1.6275 -1.2803 -0.3156
  863MOL0     H16501   7.744   9.286  10.758  2.7313  2.7922  1.0339
  863MOL0     H16502   7.633   9.243  10.884 -2.1848  0.7458  0.2106
  863MOL0     H16503   7.967   9.379  11.104 -2.7152  2.6189  1.0993
  863MOL0     H16504   7.309   9.841  10.900 -1.2113 -1.6268  2.1217
  863MOL0     H16505   7.187   9.988  10.770  1.1338 -1.0509  1.2138
  864MOL0     O16506   9.646   3.234   7.075 -0.1578 -0.2635  1.0462
  864MOL0     C16507   9.587   3.307   6.993 -0.3161 -0.8563  0.1283
  864MOL0     O16508   9.613   3.434   6.957  1.0677  0.4427  0.4947
  864MOL0     C16509   9.707   3.519   7.000 -0.3362  0.0399 -0.4025
  864MOL0     C16510   9.771   3.511   7.129  0.1374 -0.0159 -0.9172
  864MOL0     C16511   9.866   3.600   7.178 -0.0083  0.0941 -0.8532
  864MOL0     C16512   9.887   3.710   7.101 -0.8608  0.4820  1.0177
  864MOL0     O16513   9.960   3.822   7.133  0.0398  0.4296  0.5003
  864MOL0     C16514  10.038   3.818   7.252 -0.5440  0.2047 -0.0926
  864MOL0     C16515  10.092   3.959   7.263 -0.2913  0.9191 -0.7792
  864MOL0     C16516  10.201   3.981   7.163 -0.5597  0.5646 -0.6478
  864MOL0     C16517  10.262   4.124   7.177  0.6290  0.1022  0.3425
  864MOL0     C16518  10.398   4.146   7.098 -0.2394 -0.2503 -0.7226
  864MOL0     C16519  10.462   4.286   7.107  0.2588 -0.0554  0.4222
  864MOL0     C16520  10.611   4.297   7.052  0.8565 -0.1046  0.5942
  864MOL0     C16521  10.677   4.440   7.029 -0.4100  0.1906  0.6597
  864MOL0     N16522  10.713   4.483   7.158 -0.0941 -0.0987 -0.1319
  864MOL0     C16523  10.631   4.544   7.244  0.0928  0.1033 -0.6822
  864MOL0     C16524  10.705   4.553   7.360  0.0036  1.0465 -0.5271
  864MOL0     C16525  10.651   4.622   7.488 -0.3030  0.3819  0.8598
  864MOL0     C16526  10.568   4.509   7.565  0.6226 -0.4637  0.9030
  864MOL0     C16527  10.467   4.579   7.663  0.3818  0.1950  0.1954
  864MOL0     C16528  10.357   4.655   7.589 -0.2442  0.0040 -0.6256
  864MOL0     O16529  10.314   4.594   7.470  0.7268  0.2497  0.6572
  864MOL0     C16530  10.201   4.509   7.479 -0.4442 -0.1465  0.7176
  864MOL0     C16531  10.071   4.546   7.509 -0.4304 -0.7971 -0.2875
  864MOL0     C16532   9.968   4.449   7.525 -0.1206 -0.3511  0.7721
  864MOL0     C16533   9.831   4.499   7.550  0.0428 -0.1090  0.7763
  864MOL0     C16534   9.993   4.316   7.502 -0.5811  0.3639 -0.3034
  864MOL0     C16535   9.897   4.209   7.513 -0.2463 -0.4896 -0.6378
  864MOL0     O16536   9.760   4.233   7.494 -0.1561  0.3713  0.0639
  864MOL0     C16537   9.662   4.136   7.480  0.2984 -0.0237  0.4581
  864MOL0     C16538   9.683   4.004   7.434 -0.5716 -0.0247 -0.5270
  864MOL0     C16539   9.572   3.916   7.419 -0.0875 -0.6907 -0.4377
  864MOL0     C16540   9.435   3.951   7.452  0.6167  0.6097 -0.0450
  864MOL0     O16541   9.325   3.880   7.445  0.0965 -0.0913 -1.1235
  864MOL0     C16542   9.345   3.740   7.488  0.0495 -0.5595 -0.0106
  864MOL0     C16543   9.229   3.637   7.520 -0.1324 -0.3609  0.8284
  864MOL0     C16544   9.144   3.609   7.400  1.0297 -0.4023  0.2059
  864MOL0     C16545   9.038   3.512   7.425  0.6392 -0.1319 -0.1150
  864MOL0     C16546   9.087   3.369   7.441 -0.8610  0.9871  0.1455
  864MOL0     C16547   8.969   3.273   7.453 -0.6875 -0.1147  0.6257
  864MOL0     C16548   9.000   3.125   7.469  0.0520  0.2943 -1.3814
  864MOL0     C16549   9.056   3.071   7.608  0.1358  0.8847 -1.0024
  864MOL0    Cl16550   9.016   2.897   7.620 -0.2390 -0.3699 -0.4514
  864MOL0     C16551   9.419   4.087   7.495 -0.0506 -0.2344 -0.0070
  864MOL0     C16552   9.526   4.178   7.507 -0.3922  0.6720  0.5415
  864MOL0     O16553   9.942   4.105   7.546 -0.3433  0.3257  0.6001
  864MOL0     C16554  10.127   4.278   7.472  0.4730 -0.2097  1.5314
  864MOL0     C16555  10.225   4.372   7.450  0.2248  0.6159  0.5404
  864MOL0     N16556  10.833   4.502   7.323  0.3400 -0.0572 -0.3578
  864MOL0     N16557  10.833   4.450   7.207 -0.0835 -0.5541 -0.4897
  864MOL0     C16558   9.830   3.718   6.977  1.4857  0.0367  0.8907
  864MOL0     C16559   9.739   3.627   6.926 -0.4402  0.2593  0.5415
  864MOL0     C16560   9.463   3.245   6.928  0.1001 -0.6658  1.7119
  864MOL0     C16561   9.401   3.312   6.812 -0.2881  0.7574  0.4646
  864MOL0     C16562   9.297   3.262   6.736 -0.0763 -0.0010 -1.6872
  864MOL0     C16563   9.242   3.137   6.781 -0.1424  0.5853  0.7296
  864MOL0     O16564   9.129   3.093   6.719  0.6917  0.3251 -0.5162
  864MOL0     C16565   9.126   2.992   6.623  0.3502 -0.1673  0.9787
  864MOL0     C16566   9.066   3.049   6.493  0.1617  0.2403  0.0754
  864MOL0     C16567   9.187   3.047   6.394  0.4298  0.6563  0.3599
  864MOL0     C16568   9.155   3.131   6.273  0.0689  0.4503  0.1519
  864MOL0     C16569   9.031   3.089   6.208  0.4248  0.3193  0.1461
  864MOL0     C16570   8.928   3.047   6.159  0.5101  0.1594 -0.0393
  864MOL0     C16571   9.295   3.068   6.888  0.1684  0.3029  0.0475
  864MOL0     C16572   9.409   3.122   6.952  0.5770  0.5473 -0.7014
  864MOL0     H16573   9.753   3.424   7.191  0.9423  1.2215  1.1477
  864MOL0     H16574   9.908   3.587   7.278 -2.9784 -0.7763  0.3807
  864MOL0     H16575   9.977   3.794   7.340 -0.7647 -0.9025 -0.5302
  864MOL0     H16576  10.132   3.762   7.257 -0.2157  0.1703 -4.0831
  864MOL0     H16577  10.010   4.031   7.260 -0.8257  0.4329  1.0460
  864MOL0     H16578  10.125   3.967   7.367 -0.3150 -1.3738 -0.5536
  864MOL0     H16579  10.283   3.909   7.164  3.4106  4.4957 -3.8810
  864MOL0     H16580  10.164   3.961   7.062 -2.3376 -1.9472  0.3883
  864MOL0     H16581  10.186   4.198   7.149 -0.1801  0.2742  2.8009
  864MOL0     H16582  10.290   4.142   7.281  0.2289  2.4698  0.0973
  864MOL0     H16583  10.461   4.067   7.141 -0.6696 -1.5920 -2.4611
  864MOL0     H16584  10.389   4.129   6.991 -0.9548 -0.3148 -0.6557
  864MOL0     H16585  10.398   4.354   7.050 -0.4770 -1.4568 -0.4948
  864MOL0     H16586  10.463   4.323   7.209 -3.3321 -0.0911  0.5931
  864MOL0     H16587  10.680   4.247   7.121 -0.0660 -0.4501  1.2809
  864MOL0     H16588  10.611   4.249   6.954 -1.7033  4.0894 -1.7716
  864MOL0     H16589  10.609   4.513   6.983  0.2295 -0.5478 -1.5877
  864MOL0     H16590  10.764   4.427   6.963  0.7993 -0.7007  2.3663
  864MOL0     H16591  10.535   4.589   7.224 -0.3382  0.2459  1.4909
  864MOL0     H16592  10.738   4.660   7.542 -0.3540 -0.7557  1.8108
  864MOL0     H16593  10.588   4.707   7.461  0.3690  1.2307  1.9083
  864MOL0     H16594  10.638   4.449   7.625 -0.0894 -0.9994  1.2153
  864MOL0     H16595  10.514   4.444   7.495 -1.4900 -1.8195  3.5981
  864MOL0     H16596  10.518   4.634   7.743 -0.1485  1.3325 -0.2274
  864MOL0     H16597  10.421   4.490   7.707 -0.0938 -0.4111 -1.4452
  864MOL0     H16598  10.385   4.758   7.563 -0.7483  1.1269  2.7441
  864MOL0     H16599  10.277   4.669   7.663 -0.3216  1.1459 -0.9016
  864MOL0     H16600  10.059   4.654   7.515  0.2734 -0.7547  0.6052
  864MOL0     H16601   9.840   4.601   7.588 -1.6397  0.5135 -0.3758
  864MOL0     H16602   9.778   4.518   7.457  1.3386  2.2279  0.4322
  864MOL0     H16603   9.778   4.429   7.615 -3.0045  1.4233  0.0964
  864MOL0     H16604   9.783   3.963   7.427 -1.4978 -2.6262  0.0884
  864MOL0     H16605   9.578   3.815   7.380 -2.2303 -0.2890 -2.0305
  864MOL0     H16606   9.395   3.694   7.402  1.1455 -0.7436  0.6899
  864MOL0     H16607   9.412   3.743   7.575 -0.2547  1.5915  0.2019
  864MOL0     H16608   9.278   3.550   7.564 -0.7396 -0.8532  0.5372
  864MOL0     H16609   9.175   3.686   7.602  1.2828  1.2697  0.8630
  864MOL0     H16610   9.204   3.566   7.320  2.3209  1.6125  0.0025
  864MOL0     H16611   9.109   3.705   7.360 -0.5606 -2.0262 -2.5388
  864MOL0     H16612   8.984   3.542   7.515 -1.3418  1.4526 -1.7539
  864MOL0     H16613   8.973   3.510   7.338  0.6273  1.2299 -0.1657
  864MOL0     H16614   9.149   3.360   7.531  0.4147  0.3822 -0.7580
  864MOL0     H16615   9.148   3.341   7.354 -1.1615 -2.2680  0.8781
  864MOL0     H16616   8.905   3.303   7.537 -1.1260 -0.5143  0.4422
  864MOL0     H16617   8.900   3.286   7.369 -2.7545 -0.1461  2.2341
  864MOL0     H16618   9.070   3.095   7.390  0.3009  0.8859 -1.3883
  864MOL0     H16619   8.903   3.075   7.456 -1.4994  1.9310  2.4056
  864MOL0     H16620   9.000   3.117   7.690  2.2087  0.2019  0.9289
  864MOL0     H16621   9.163   3.085   7.629  0.2251 -2.3768  1.5852
  864MOL0     H16622   9.315   4.118   7.501 -0.0865 -0.3934  0.1948
  864MOL0     H16623   9.518   4.285   7.526  3.3179  1.0006  1.0373
  864MOL0     H16624  10.152   4.173   7.464 -1.5438 -0.5863 -3.9083
  864MOL0     H16625  10.321   4.336   7.417  1.1465  1.1039  2.5784
  864MOL0     H16626   9.869   3.781   6.897 -0.1158  0.0748  0.0925
  864MOL0     H16627   9.708   3.636   6.822  0.4132  2.0067  0.4039
  864MOL0     H16628   9.436   3.407   6.773  2.5588  0.4410  1.9649
  864MOL0     H16629   9.245   3.306   6.652 -0.6278  0.9382 -0.8809
  864MOL0     H16630   9.225   2.952   6.599  1.2702  2.1309  0.7158
  864MOL0     H16631   9.058   2.912   6.655 -1.6612  1.9347  2.2428
  864MOL0     H16632   9.034   3.153   6.509  1.6711  0.5411  1.3449
  864MOL0     H16633   8.981   2.987   6.462  0.7547  0.0628 -1.2835
  864MOL0     H16634   9.221   2.946   6.369  1.0271  0.3971  2.0895
  864MOL0     H16635   9.274   3.090   6.445  2.3712 -0.0329 -2.1502
  864MOL0     H16636   9.242   3.137   6.206  1.6611  0.8644  2.1679
  864MOL0     H16637   9.150   3.235   6.305 -1.1423  1.0592 -1.8042
  864MOL0     H16638   8.837   3.008   6.119 -1.6071  2.3546  2.2822
  864MOL0     H16639   9.260   2.975   6.930  2.8503 -0.7974  0.1042
  864MOL0     H16640   9.446   3.064   7.036 -1.7161 -0.5480 -0.3500
  865MOL0     O16641   6.853   9.612   9.114 -0.2407 -0.9115 -0.2755
  865MOL0     C16642   6.881   9.516   9.046 -0.3101 -0.0014  0.4703
  865MOL0     O16643   6.987   9.433   9.072  0.8203 -0.3156 -0.4012
  865MOL0     C16644   7.056   9.448   9.192  0.8902 -0.5359  0.7737
  865MOL0     C16645   7.045   9.360   9.296  0.4119 -0.9176 -0.7249
  865MOL0     C16646   7.108   9.392   9.418  0.4787  0.4091  0.1155
  865MOL0     C16647   7.200   9.498   9.427  0.2489 -0.0022  0.0495
  865MOL0     O16648   7.247   9.512   9.555  0.3139  0.2041  0.5848
  865MOL0     C16649   7.374   9.583   9.568 -0.1991  0.4712  0.4999
  865MOL0     C16650   7.389   9.556   9.722  0.3932 -0.1337 -0.0063
  865MOL0     C16651   7.458   9.418   9.737  0.0052  1.0233 -0.7243
  865MOL0     C16652   7.459   9.357   9.880 -0.3951 -0.5316  0.0242
  865MOL0     C16653   7.546   9.228   9.894 -0.0658 -0.2974  0.1970
  865MOL0     C16654   7.563   9.180  10.036 -0.1426 -1.0701 -0.0350
  865MOL0     C16655   7.445   9.094  10.092 -0.5911 -0.1048  0.1760
  865MOL0     C16656   7.444   8.952  10.039 -0.2875 -0.2831  0.0652
  865MOL0     N16657   7.550   8.861  10.101 -0.4337 -0.5103 -0.3929
  865MOL0     C16658   7.658   8.803  10.036  0.8132 -0.2636 -0.7710
  865MOL0     C16659   7.721   8.745  10.135 -0.9276  0.6457  0.2485
  865MOL0     C16660   7.853   8.671  10.101 -0.6959 -0.0430 -0.1500
  865MOL0     C16661   7.968   8.768  10.129  0.4281  0.6498  0.8222
  865MOL0     C16662   7.976   8.873  10.019 -0.6343 -0.6244 -0.4487
  865MOL0     C16663   8.098   8.958  10.058 -0.9852 -0.3277 -0.2347
  865MOL0     O16664   8.133   9.038   9.944  0.2766 -0.6650 -0.2929
  865MOL0     C16665   8.255   9.108   9.945 -0.0159  0.2617  0.8353
  865MOL0     C16666   8.337   9.125  10.061 -0.5275 -0.4666  0.2858
  865MOL0     C16667   8.448   9.213  10.057  0.0662  0.0065  0.3871
  865MOL0     C16668   8.510   9.237  10.191 -1.0775  0.1217  0.1989
  865MOL0     C16669   8.481   9.287   9.939  0.5456 -0.0345  0.7339
  865MOL0     C16670   8.589   9.388   9.918 -0.6315  0.3179  0.9905
  865MOL0     O16671   8.585   9.463   9.805  0.6861  0.0461  0.7716
  865MOL0     C16672   8.689   9.553   9.797 -0.0501 -0.2297 -0.3971
  865MOL0     C16673   8.771   9.579   9.689 -0.5834  1.1235  1.3264
  865MOL0     C16674   8.864   9.686   9.683 -1.1042 -0.1829  0.1468
  865MOL0     C16675   8.868   9.779   9.796 -0.1974  0.1540 -0.2451
  865MOL0     O16676   8.939   9.902   9.797  0.1999  0.0808 -0.1285
  865MOL0     C16677   8.976   9.953   9.666  0.1482  0.1801 -0.2609
  865MOL0     C16678   9.022  10.099   9.675 -0.1922  0.4807  0.3353
  865MOL0     C16679   9.061  10.152   9.528 -0.6425  0.4737 -0.0872
  865MOL0     C16680   9.119  10.287   9.531 -0.0757 -0.9162  0.5164
  865MOL0     C16681   9.163  10.343   9.395 -0.2218 -0.4162 -1.2997
  865MOL0     C16682   9.257  10.250   9.317  0.0756  0.0070 -0.6205
  865MOL0     C16683   9.392  10.247   9.386 -0.3558 -0.3374  0.9363
  865MOL0     C16684   9.507  10.251   9.285  0.2112  0.1100  0.1631
  865MOL0    Cl16685   9.655  10.207   9.359 -0.0753 -0.1589  0.0286
  865MOL0     C16686   8.787   9.752   9.904  0.3952 -0.0865  0.5936
  865MOL0     C16687   8.694   9.654   9.897 -0.0882 -0.7639 -0.0273
  865MOL0     O16688   8.692   9.364   9.984  0.5237 -0.6113  0.9116
  865MOL0     C16689   8.406   9.255   9.821 -0.5117  0.3328  0.7262
  865MOL0     C16690   8.297   9.167   9.827 -0.0880 -0.6181  0.9438
  865MOL0     N16691   7.644   8.764  10.249  0.2854 -0.0721 -0.5702
  865MOL0     N16692   7.542   8.839  10.232 -0.1144  0.3510  0.0325
  865MOL0     C16693   7.222   9.578   9.311 -0.4009  0.2400 -0.4390
  865MOL0     C16694   7.151   9.554   9.197 -0.6855  0.0351  0.9305
  865MOL0     C16695   6.782   9.473   8.939 -0.1881  0.1071 -0.3914
  865MOL0     C16696   6.649   9.498   8.951 -0.7180 -0.0517  0.2000
  865MOL0     C16697   6.554   9.430   8.883 -0.0348  0.0593 -0.0454
  865MOL0     C16698   6.594   9.338   8.781 -0.1797  0.8451 -0.3423
  865MOL0     O16699   6.505   9.264   8.700  0.3813  0.2326 -0.3952
  865MOL0     C16700   6.363   9.264   8.741 -0.4517  1.3213 -0.1124
  865MOL0     C16701   6.273   9.195   8.629 -0.5658  0.2142  0.0612
  865MOL0     C16702   6.275   9.038   8.619  0.2085 -0.4353  0.5932
  865MOL0     C16703   6.194   8.987   8.506 -1.1532  0.5636  0.3599
  865MOL0     C16704   6.231   9.025   8.373  0.0136 -0.0700  0.7798
  865MOL0     C16705   6.284   9.069   8.265  0.4117  0.2380 -0.3063
  865MOL0     C16706   6.723   9.319   8.762  0.1340  0.0475 -0.0565
  865MOL0     C16707   6.822   9.388   8.836 -0.4979 -0.9436  0.5589
  865MOL0     H16708   6.975   9.280   9.319  1.7097 -1.9329 -0.1590
  865MOL0     H16709   7.086   9.333   9.507  1.6941  1.3238  1.0628
  865MOL0     H16710   7.454   9.543   9.504 -0.1591  0.1520  0.7467
  865MOL0     H16711   7.359   9.687   9.539  2.8802  1.1388  0.9225
  865MOL0     H16712   7.441   9.643   9.765 -2.4956  2.0741 -0.7019
  865MOL0     H16713   7.288   9.543   9.761  0.1090 -0.1521 -0.7381
  865MOL0     H16714   7.398   9.343   9.685  0.1023  1.1039 -0.9542
  865MOL0     H16715   7.559   9.421   9.695 -0.0763  2.2653 -0.8888
  865MOL0     H16716   7.491   9.433   9.951 -0.6264 -0.0979 -0.3356
  865MOL0     H16717   7.363   9.328   9.924  0.9229  0.8337  4.1832
  865MOL0     H16718   7.504   9.144   9.838 -1.7985 -0.2851  1.4295
  865MOL0     H16719   7.651   9.241   9.866  0.6331 -0.3279  2.5861
  865MOL0     H16720   7.656   9.122  10.038 -0.4162 -1.4989  0.4854
  865MOL0     H16721   7.582   9.267  10.099  4.0573 -0.6165 -1.5764
  865MOL0     H16722   7.459   9.091  10.200  2.8052 -0.5722 -0.1675
  865MOL0     H16723   7.352   9.149  10.074  0.4640  1.5176 -0.5307
  865MOL0     H16724   7.454   8.936   9.932 -0.2084  1.7160 -0.2524
  865MOL0     H16725   7.345   8.911  10.062 -1.5437  1.9809 -1.0280
  865MOL0     H16726   7.692   8.813   9.934  3.1242  1.2666  0.0450
  865MOL0     H16727   7.860   8.591  10.176 -2.0188 -0.4086 -0.3960
  865MOL0     H16728   7.857   8.624  10.002 -2.5121 -3.0674  1.0680
  865MOL0     H16729   8.062   8.714  10.141 -0.2240 -1.0966 -1.3498
  865MOL0     H16730   7.952   8.800  10.233 -3.6066 -1.8523  1.2259
  865MOL0     H16731   7.889   8.940  10.014 -0.9773 -1.0083  0.2036
  865MOL0     H16732   8.014   8.834   9.924 -0.0365  0.1051 -0.5166
  865MOL0     H16733   8.188   8.903  10.084 -1.0885 -0.1339  0.5488
  865MOL0     H16734   8.072   9.029  10.137  2.5460  0.8241  0.0345
  865MOL0     H16735   8.308   9.076  10.153 -0.0267 -1.2623  0.0311
  865MOL0     H16736   8.483   9.342  10.208  1.0762  1.3437 -2.9251
  865MOL0     H16737   8.476   9.173  10.274 -0.9202  0.6379  0.6716
  865MOL0     H16738   8.619   9.224  10.192 -1.0425  0.3804 -0.1308
  865MOL0     H16739   8.767   9.515   9.602  2.2442  1.2736  0.9862
  865MOL0     H16740   8.937   9.689   9.603  0.1891 -0.2089  1.2844
  865MOL0     H16741   9.074   9.910   9.640  0.2591 -0.1059  0.5895
  865MOL0     H16742   8.897   9.935   9.593 -0.6681 -5.8489  1.5364
  865MOL0     H16743   8.946  10.164   9.719 -0.5886  0.4790 -0.3409
  865MOL0     H16744   9.113  10.111   9.735  0.9725  2.2841 -1.6570
  865MOL0     H16745   8.973  10.146   9.463 -2.4174  1.0316  2.1351
  865MOL0     H16746   9.136  10.080   9.494 -0.9559 -0.7657  1.7308
  865MOL0     H16747   9.043  10.360   9.559 -0.8951 -1.1572 -0.9839
  865MOL0     H16748   9.211  10.297   9.589  1.1278  0.6204 -1.4938
  865MOL0     H16749   9.210  10.441   9.407 -2.2884  0.6832 -1.8075
  865MOL0     H16750   9.078  10.359   9.328 -0.9813 -1.3992 -0.6056
  865MOL0     H16751   9.206  10.154   9.302  1.5765 -0.5924 -2.1178
  865MOL0     H16752   9.271  10.291   9.217  0.1961  0.0733 -0.5762
  865MOL0     H16753   9.393  10.152   9.439  0.2636 -0.3936  0.8218
  865MOL0     H16754   9.408  10.329   9.456 -1.1571  0.1510  0.5715
  865MOL0     H16755   9.508  10.355   9.250 -2.6999  0.5181  1.0259
  865MOL0     H16756   9.489  10.194   9.193  0.5527  3.8344 -2.4373
  865MOL0     H16757   8.774   9.817   9.989  0.7315  1.1419 -0.2586
  865MOL0     H16758   8.631   9.645   9.984 -1.8318 -1.4611 -1.3032
  865MOL0     H16759   8.452   9.283   9.727 -0.1023  0.1043  0.8578
  865MOL0     H16760   8.238   9.161   9.736  1.1913 -0.2551  0.0806
  865MOL0     H16761   7.290   9.663   9.311 -0.7547  0.5376  0.4533
  865MOL0     H16762   7.173   9.611   9.107  0.6967 -0.4292  0.9524
  865MOL0     H16763   6.611   9.555   9.036 -1.4903 -1.0019  0.5163
  865MOL0     H16764   6.449   9.446   8.905  0.3339  1.5541  0.7960
  865MOL0     H16765   6.364   9.216   8.839 -2.2712 -0.0109 -0.6849
  865MOL0     H16766   6.320   9.365   8.746 -0.9461  1.1297 -0.3747
  865MOL0     H16767   6.300   9.241   8.533  2.3861 -0.6035  0.4232
  865MOL0     H16768   6.167   9.212   8.651 -0.9066 -0.3936 -1.0532
  865MOL0     H16769   6.238   8.993   8.711  0.2666 -0.8926  0.3964
  865MOL0     H16770   6.376   8.995   8.615  0.6248  0.5037  0.7046
  865MOL0     H16771   6.095   9.031   8.522 -1.8274 -1.2853  1.6153
  865MOL0     H16772   6.194   8.877   8.508  0.9969  0.4605 -1.3594
  865MOL0     H16773   6.331   9.112   8.179  3.3400  0.2007  1.1481
  865MOL0     H16774   6.748   9.249   8.683  0.2619 -1.9902  1.7236
  865MOL0     H16775   6.929   9.367   8.829 -0.3246 -0.1528  0.7182
  866MOL0     O16776   8.363   1.201  11.103 -0.3720  0.1038 -0.2985
  866MOL0     C16777   8.459   1.137  11.160 -0.5019 -0.8626 -0.0377
  866MOL0     O16778   8.592   1.166  11.135  0.4506  0.0864  0.3289
  866MOL0     C16779   8.620   1.278  11.067 -0.4232 -0.2668 -0.8490
  866MOL0     C16780   8.639   1.276  10.934 -0.1021 -0.0870 -0.0176
  866MOL0     C16781   8.653   1.398  10.873  0.4032  0.2507  0.5033
  866MOL0     C16782   8.663   1.520  10.936  0.7341  1.0993 -0.2568
  866MOL0     O16783   8.714   1.634  10.878  0.3209  0.2462  0.2363
  866MOL0     C16784   8.786   1.731  10.956 -0.3271  0.3025 -0.3377
  866MOL0     C16785   8.808   1.833  10.857  0.5603 -0.5680 -0.5554
  866MOL0     C16786   8.872   1.959  10.915  0.0061 -0.1841  0.1628
  866MOL0     C16787   8.873   2.083  10.819 -0.1317  1.2158  0.1731
  866MOL0     C16788   8.939   2.201  10.897  0.3668 -0.1273 -0.2234
  866MOL0     C16789   8.939   2.335  10.825 -0.1740 -0.3070 -0.4367
  866MOL0     C16790   8.954   2.330  10.674 -0.1059 -0.3996  1.2701
  866MOL0     C16791   8.962   2.471  10.599 -0.0216  0.8160 -0.9993
  866MOL0     N16792   9.092   2.528  10.660  0.3022 -0.2011  0.3424
  866MOL0     C16793   9.226   2.483  10.662 -0.0789  0.0919 -0.0765
  866MOL0     C16794   9.291   2.580  10.719  0.2947 -0.3055 -1.1893
  866MOL0     C16795   9.431   2.578  10.755  0.7452  0.7805 -0.2512
  866MOL0     C16796   9.521   2.599  10.634  0.2120  0.1659 -0.3885
  866MOL0     C16797   9.670   2.595  10.653  0.0031  0.2828 -1.3474
  866MOL0     C16798   9.745   2.698  10.564  0.0452  0.1408 -1.0420
  866MOL0     O16799   9.886   2.664  10.597  0.0043 -0.3377  0.0036
  866MOL0     C16800   9.954   2.690  10.713 -0.6707  0.0675 -0.1458
  866MOL0     C16801   9.907   2.768  10.808  0.1365  0.1632 -0.3322
  866MOL0     C16802   9.985   2.788  10.927 -0.0159  0.2850  0.3256
  866MOL0     C16803   9.939   2.896  11.019  0.4913 -0.0275 -0.3771
  866MOL0     C16804  10.095   2.720  10.955  0.0967 -0.1840 -0.0104
  866MOL0     C16805  10.150   2.715  11.090 -0.6370  0.0050  0.5167
  866MOL0     O16806  10.286   2.742  11.091  0.8715 -0.2302  0.0692
  866MOL0     C16807  10.360   2.688  11.191  0.2120  0.8472 -0.4831
  866MOL0     C16808  10.419   2.565  11.181 -0.4768 -0.6887  0.0448
  866MOL0     C16809  10.507   2.516  11.279  0.2838  0.0614  1.3330
  866MOL0     C16810  10.516   2.579  11.405 -0.3633  0.5585 -0.6277
  866MOL0     O16811  10.599   2.545  11.511  0.3597  0.1040  1.3174
  866MOL0     C16812  10.684   2.429  11.503  0.7636 -1.1924  0.5738
  866MOL0     C16813  10.610   2.299  11.541 -0.2700  0.1873 -1.2374
  866MOL0     C16814  10.637   2.170  11.465  0.7399  0.5160  1.1691
  866MOL0     C16815  10.554   2.055  11.521 -0.4963  1.6554 -0.0720
  866MOL0     C16816  10.610   1.918  11.473  0.2866  0.3225  0.2691
  866MOL0     C16817  10.605   1.897  11.320  0.0648 -0.3009  0.8011
  866MOL0     C16818  10.704   1.795  11.270 -0.3115 -0.4900  0.6743
  866MOL0     C16819  10.707   1.778  11.116 -0.2105  0.4142 -0.4339
  866MOL0    Cl16820  10.807   1.642  11.059 -0.1023 -0.5434 -0.4603
  866MOL0     C16821  10.451   2.704  11.418 -0.1931  0.7026 -0.2508
  866MOL0     C16822  10.371   2.752  11.316  0.1553 -0.4406 -0.1366
  866MOL0     O16823  10.086   2.707  11.198  0.7082 -0.9971 -0.0888
  866MOL0     C16824  10.154   2.640  10.846  0.5808 -0.3305  0.7808
  866MOL0     C16825  10.083   2.626  10.728  1.3066 -0.5788 -0.7676
  866MOL0     N16826   9.202   2.682  10.750  0.1633  0.5484  0.9971
  866MOL0     N16827   9.083   2.653  10.713 -0.9462 -0.3337  0.6222
  866MOL0     C16828   8.644   1.515  11.079 -0.2071  0.2872 -1.4624
  866MOL0     C16829   8.627   1.392  11.145 -0.4899  0.2068 -0.1339
  866MOL0     C16830   8.421   1.027  11.243 -0.3410  0.2676 -0.8515
  866MOL0     C16831   8.288   0.991  11.280 -0.1764 -0.7149  0.4207
  866MOL0     C16832   8.255   0.871  11.347  0.1282  0.1594 -0.2322
  866MOL0     C16833   8.351   0.778  11.380  0.0337 -0.4101  0.7096
  866MOL0     O16834   8.317   0.660  11.443 -0.0176 -0.6316 -0.2989
  866MOL0     C16835   8.415   0.548  11.449 -0.1080 -0.5465 -0.0830
  866MOL0     C16836   8.343   0.426  11.502 -0.2456 -0.4043  1.0023
  866MOL0     C16837   8.429   0.300  11.494 -0.0533 -0.3216 -0.1318
  866MOL0     C16838   8.575   0.314  11.549 -0.7182 -0.3192  0.4759
  866MOL0     C16839   8.669   0.213  11.499 -0.2668 -0.3264 -0.8512
  866MOL0     C16840   8.735   0.120  11.477  0.9751 -0.3997 -0.0149
  866MOL0     C16841   8.485   0.823  11.357 -0.4003  0.5888 -0.2130
  866MOL0     C16842   8.517   0.940  11.301  0.8781 -0.7610  0.5758
  866MOL0     H16843   8.629   1.185  10.876 -0.1775 -0.3772  0.4437
  866MOL0     H16844   8.674   1.398  10.766 -1.6352 -0.7902  0.0581
  866MOL0     H16845   8.722   1.760  11.040  0.0043 -0.4357  0.1846
  866MOL0     H16846   8.879   1.697  11.003 -0.7183 -0.6053 -0.1939
  866MOL0     H16847   8.870   1.797  10.774 -1.6851 -0.8999 -2.1769
  866MOL0     H16848   8.712   1.861  10.814 -0.8038 -2.9019  0.7785
  866MOL0     H16849   8.828   1.981  11.012  0.9100  0.3543  0.4552
  866MOL0     H16850   8.973   1.948  10.955 -0.1172 -0.6369  0.3560
  866MOL0     H16851   8.927   2.070  10.725 -0.0794  4.1505 -0.3121
  866MOL0     H16852   8.770   2.099  10.784  0.2401 -0.7844 -2.0503
  866MOL0     H16853   8.882   2.207  10.990 -0.0537  0.6188 -0.5247
  866MOL0     H16854   9.041   2.172  10.926  0.1396 -1.1173 -0.3831
  866MOL0     H16855   8.846   2.387  10.851  0.5054  1.7579 -1.8341
  866MOL0     H16856   9.022   2.397  10.860 -0.3587  1.7093 -3.2322
  866MOL0     H16857   9.047   2.274  10.662 -1.0990 -1.9793  0.6512
  866MOL0     H16858   8.867   2.273  10.640 -0.6284 -1.3374  3.9110
  866MOL0     H16859   8.879   2.537  10.623  0.8235  1.9662 -1.1867
  866MOL0     H16860   8.962   2.456  10.490  4.1078 -0.7668 -0.9933
  866MOL0     H16861   9.266   2.392  10.618 -1.3341 -1.1761  1.2671
  866MOL0     H16862   9.458   2.656  10.826  2.4749 -0.3487  0.4157
  866MOL0     H16863   9.451   2.484  10.809 -1.8738  0.3636  0.1298
  866MOL0     H16864   9.485   2.695  10.596  1.1036  2.2903  3.5427
  866MOL0     H16865   9.504   2.523  10.557  1.9708  0.8311 -1.4731
  866MOL0     H16866   9.714   2.496  10.636  1.8516  0.8491 -0.0903
  866MOL0     H16867   9.696   2.612  10.757  1.6242 -3.9566 -0.8652
  866MOL0     H16868   9.716   2.799  10.596  5.1333  0.5684  3.5750
  866MOL0     H16869   9.728   2.690  10.456 -0.2173  1.6880 -1.1375
  866MOL0     H16870   9.809   2.815  10.809 -2.2341 -4.2240 -1.0274
  866MOL0     H16871  10.023   2.953  11.059  1.9336 -0.5266 -2.5572
  866MOL0     H16872   9.864   2.966  10.979 -0.9671  0.7738  3.3618
  866MOL0     H16873   9.892   2.851  11.106 -0.8088  2.3174  0.2360
  866MOL0     H16874  10.415   2.516  11.084 -0.5234  1.0792 -0.8721
  866MOL0     H16875  10.558   2.422  11.262  0.9670  1.0295 -3.7538
  866MOL0     H16876  10.722   2.417  11.401 -0.1124  3.1901 -0.4275
  866MOL0     H16877  10.767   2.441  11.573 -1.1309  0.8305  2.6016
  866MOL0     H16878  10.638   2.283  11.645  0.1725  1.8082 -1.0764
  866MOL0     H16879  10.503   2.320  11.535 -0.5988 -0.8505  0.4395
  866MOL0     H16880  10.741   2.138  11.482  0.7880 -2.0642 -2.7241
  866MOL0     H16881  10.625   2.179  11.357 -2.4759  4.3325  1.6584
  866MOL0     H16882  10.566   2.064  11.629 -1.4513  2.9328 -0.0466
  866MOL0     H16883  10.446   2.061  11.505 -0.8746 -1.5257  0.6027
  866MOL0     H16884  10.558   1.836  11.522  1.3299 -1.2995 -1.2168
  866MOL0     H16885  10.714   1.917  11.507  0.6660 -0.6088 -0.8248
  866MOL0     H16886  10.508   1.856  11.289  1.0966 -3.0617  0.9186
  866MOL0     H16887  10.599   1.990  11.264  2.7222 -1.7748 -2.3072
  866MOL0     H16888  10.677   1.700  11.318  0.3083 -1.2880 -0.4892
  866MOL0     H16889  10.794   1.843  11.310 -0.8583  0.3071  0.9570
  866MOL0     H16890  10.733   1.866  11.057 -1.2794  0.1880 -1.2608
  866MOL0     H16891  10.605   1.750  11.089  0.0323 -2.2742  1.0345
  866MOL0     H16892  10.477   2.746  11.515  3.5695 -0.9274 -0.3873
  866MOL0     H16893  10.310   2.841  11.328 -0.3961 -0.1908 -3.6901
  866MOL0     H16894  10.253   2.596  10.844  0.6663 -0.5436 -4.4353
  866MOL0     H16895  10.115   2.566  10.644  1.5057  0.3215 -1.3502
  866MOL0     H16896   8.652   1.600  11.145 -0.2311 -0.4329 -0.5121
  866MOL0     H16897   8.612   1.397  11.252 -1.5068 -1.6088 -0.1475
  866MOL0     H16898   8.222   1.066  11.238  0.8078 -0.7615 -1.2631
  866MOL0     H16899   8.159   0.842  11.389  1.0832 -1.5461  0.9206
  866MOL0     H16900   8.442   0.531  11.344 -1.3110  0.1895 -0.5446
  866MOL0     H16901   8.504   0.579  11.504 -0.7123 -0.2011  0.7152
  866MOL0     H16902   8.250   0.418  11.444  1.0136  0.4470 -1.2752
  866MOL0     H16903   8.306   0.427  11.605 -1.4232 -0.2193  0.5967
  866MOL0     H16904   8.434   0.275  11.387 -2.4382  1.9051 -0.8863
  866MOL0     H16905   8.373   0.221  11.544  1.7782  0.2959  3.2008
  866MOL0     H16906   8.582   0.299  11.657  0.4093 -2.8729  0.1318
  866MOL0     H16907   8.610   0.409  11.508 -3.2822 -0.0456 -1.3316
  866MOL0     H16908   8.778   0.024  11.455  2.1406 -0.8579  3.6033
  866MOL0     H16909   8.570   0.775  11.405  1.0108 -0.0534 -3.0966
  866MOL0     H16910   8.622   0.968  11.292  1.0566 -0.6585  2.5344
  867MOL0     O16911   1.382   1.004   0.020  0.9028 -0.4476 -0.3307
  867MOL0     C16912   1.477   1.007  -0.056  0.2527 -1.0752  0.1396
  867MOL0     O16913   1.477   0.986  -0.191 -0.1205 -1.0593 -0.5879
  867MOL0     C16914   1.375   0.918  -0.248 -0.1073  0.4631  0.4813
  867MOL0     C16915   1.364   0.776  -0.255  0.3411 -0.3849 -0.3647
  867MOL0     C16916   1.256   0.709  -0.317  0.2912  0.8975  0.8221
  867MOL0     C16917   1.146   0.782  -0.380 -0.2166  0.6470  0.8390
  867MOL0     O16918   1.036   0.736  -0.448 -0.1801  0.3889 -0.6459
  867MOL0     C16919   1.045   0.600  -0.496  1.1374 -1.1254 -1.1604
  867MOL0     C16920   0.917   0.589  -0.579  0.9596  0.5504  0.7876
  867MOL0     C16921   0.914   0.473  -0.681 -0.0518 -0.3720  0.1666
  867MOL0     C16922   0.805   0.490  -0.788 -1.1471  0.6118  0.4833
  867MOL0     C16923   0.820   0.375  -0.890 -0.1468  0.5255 -0.2414
  867MOL0     C16924   0.703   0.385  -0.990 -0.7019 -0.4492 -1.2283
  867MOL0     C16925   0.738   0.368  -1.141  0.0110  0.2398 -0.8337
  867MOL0     C16926   0.833   0.478  -1.206 -0.2739  0.1421  0.2311
  867MOL0     N16927   0.823   0.440  -1.346 -0.3759  0.3104 -0.0794
  867MOL0     C16928   0.717   0.479  -1.426 -0.8095 -0.2229 -0.7356
  867MOL0     C16929   0.747   0.429  -1.544  0.6677  0.2369  0.7530
  867MOL0     C16930   0.654   0.449  -1.660 -0.3861  0.9543 -0.3416
  867MOL0     C16931   0.713   0.419  -1.799 -0.1726  0.3740 -0.4690
  867MOL0     C16932   0.600   0.410  -1.902 -0.2579 -0.1086 -0.1521
  867MOL0     C16933   0.488   0.508  -1.891  0.3093  0.7909  0.0712
  867MOL0     O16934   0.535   0.641  -1.912 -0.1690  0.2366  0.0093
  867MOL0     C16935   0.436   0.736  -1.923 -0.6204 -0.6093 -0.0199
  867MOL0     C16936   0.477   0.871  -1.941  0.9229 -0.8776 -0.4804
  867MOL0     C16937   0.382   0.981  -1.951 -0.0418 -0.3722  0.2397
  867MOL0     C16938   0.440   1.125  -1.961 -0.8084 -0.1204  0.8669
  867MOL0     C16939   0.248   0.944  -1.964  0.4956 -1.1426 -1.0918
  867MOL0     C16940   0.150   1.044  -1.987  0.6691 -1.2232 -0.4227
  867MOL0     O16941   0.031   1.009  -1.936  0.0453 -1.1436 -0.4380
  867MOL0     C16942  -0.082   1.088  -1.959  0.0414  0.0774  0.1018
  867MOL0     C16943  -0.176   1.057  -2.064 -0.4734 -0.1994  0.0396
  867MOL0     C16944  -0.289   1.137  -2.079  0.0372  0.9048  0.0592
  867MOL0     C16945  -0.313   1.243  -1.993 -0.1424  0.3320 -0.7268
  867MOL0     O16946  -0.424   1.325  -1.991  0.7251  0.5876  0.0218
  867MOL0     C16947  -0.548   1.283  -2.044 -0.1678  0.1560  0.3771
  867MOL0     C16948  -0.623   1.190  -1.951 -1.0485 -0.2197  0.8800
  867MOL0     C16949  -0.762   1.136  -1.998 -0.0401 -0.5241  0.1471
  867MOL0     C16950  -0.876   1.234  -1.954 -1.3048  0.2130 -0.2092
  867MOL0     C16951  -1.010   1.164  -1.969 -0.4531  0.0423  0.3108
  867MOL0     C16952  -1.129   1.254  -1.951 -0.1844 -0.9403 -0.0236
  867MOL0     C16953  -1.144   1.357  -2.076  0.6083  0.1651 -1.1536
  867MOL0     C16954  -1.286   1.411  -2.097  0.0175  0.4001  1.2491
  867MOL0    Cl16955  -1.360   1.462  -1.935  0.5539 -0.1529 -0.2044
  867MOL0     C16956  -0.214   1.292  -1.905  0.4701  0.8399  0.4757
  867MOL0     C16957  -0.097   1.213  -1.894  0.6933 -0.2811 -0.1745
  867MOL0     O16958   0.170   1.155  -2.042  0.6337  0.2266 -0.8715
  867MOL0     C16959   0.208   0.817  -1.923  0.7622  0.0517  0.5098
  867MOL0     C16960   0.298   0.714  -1.906  0.1381  0.9360  0.5093
  867MOL0     N16961   0.869   0.363  -1.542 -0.6500  0.3484 -0.4196
  867MOL0     N16962   0.908   0.364  -1.418  0.3307 -0.8989 -0.5125
  867MOL0     C16963   1.164   0.921  -0.376 -0.5017 -0.3031  0.0073
  867MOL0     C16964   1.271   0.986  -0.316 -0.4021 -0.1935 -0.2122
  867MOL0     C16965   1.601   1.036   0.012 -1.3246  0.2244 -0.5681
  867MOL0     C16966   1.717   1.029  -0.060 -0.1775 -0.4730  0.4965
  867MOL0     C16967   1.843   1.065  -0.004  0.3267  0.6438 -0.2467
  867MOL0     C16968   1.848   1.101   0.131  0.2575  0.3297 -0.0826
  867MOL0     O16969   1.969   1.113   0.185 -0.5410  0.1985  0.4370
  867MOL0     C16970   2.004   1.064   0.312 -0.3610 -0.3184  0.0313
  867MOL0     C16971   1.993   0.909   0.311  0.0294 -0.1981  0.1423
  867MOL0     C16972   2.031   0.842   0.448 -0.1909  0.4272 -0.0127
  867MOL0     C16973   2.140   0.737   0.433 -0.7790  0.4470 -0.4702
  867MOL0     C16974   2.172   0.710   0.570 -0.1719  0.5662 -0.6120
  867MOL0     C16975   2.218   0.687   0.685 -0.0415 -0.2975  0.5841
  867MOL0     C16976   1.726   1.126   0.201 -0.2557  0.2735  0.1832
  867MOL0     C16977   1.611   1.099   0.139  0.2399  0.4007  0.4624
  867MOL0     H16978   1.449   0.718  -0.219  0.1014 -1.5316 -1.5966
  867MOL0     H16979   1.252   0.601  -0.309  1.8830  0.6229 -1.3201
  867MOL0     H16980   1.131   0.600  -0.563  0.8859  1.8266 -1.6106
  867MOL0     H16981   1.052   0.535  -0.408 -0.5887  0.8370  0.5293
  867MOL0     H16982   0.826   0.562  -0.524 -1.2955 -1.7230 -3.5749
  867MOL0     H16983   0.889   0.677  -0.637  1.1952  0.6381  0.8075
  867MOL0     H16984   1.012   0.476  -0.728  0.2748 -1.3996  0.7524
  867MOL0     H16985   0.898   0.374  -0.637 -1.8061 -0.3999 -0.4501
  867MOL0     H16986   0.710   0.477  -0.735  0.9589 -1.1164  4.2869
  867MOL0     H16987   0.818   0.590  -0.832  2.6676 -0.6921 -1.7690
  867MOL0     H16988   0.908   0.403  -0.950 -0.5513  0.1540 -1.0104
  867MOL0     H16989   0.839   0.281  -0.838  0.7898  1.3012  0.8887
  867MOL0     H16990   0.629   0.310  -0.961 -2.9227  1.1805 -2.4041
  867MOL0     H16991   0.643   0.476  -0.977  0.1597 -0.2660  2.4654
  867MOL0     H16992   0.769   0.264  -1.151 -0.1795  0.1983 -0.9943
  867MOL0     H16993   0.643   0.384  -1.192 -0.3675 -3.6819 -1.6275
  867MOL0     H16994   0.939   0.469  -1.178 -0.3472 -3.2227 -0.0563
  867MOL0     H16995   0.794   0.579  -1.191  1.4690  0.7785  0.7498
  867MOL0     H16996   0.645   0.558  -1.404  0.1447  0.3490  0.4385
  867MOL0     H16997   0.576   0.374  -1.646  0.8448 -0.3040  0.0276
  867MOL0     H16998   0.608   0.548  -1.650 -0.4299  0.7326  2.4444
  867MOL0     H16999   0.771   0.327  -1.802  0.5235  0.8318 -1.3620
  867MOL0     H17000   0.777   0.500  -1.834 -1.6390  1.4933 -0.7001
  867MOL0     H17001   0.557   0.310  -1.912  2.8260 -1.7731  1.7736
  867MOL0     H17002   0.654   0.429  -1.995 -0.5301  0.2683 -0.2368
  867MOL0     H17003   0.450   0.497  -1.790  2.8286 -1.1271  0.9126
  867MOL0     H17004   0.415   0.466  -1.961 -0.0745 -1.9223  1.9343
  867MOL0     H17005   0.582   0.896  -1.935  1.1105 -1.9283  3.3230
  867MOL0     H17006   0.402   1.179  -1.875  0.1748  0.0055  1.2400
  867MOL0     H17007   0.548   1.129  -1.944  0.0283  0.3461 -3.4680
  867MOL0     H17008   0.417   1.179  -2.054 -0.0670  1.5381  1.6131
  867MOL0     H17009  -0.153   0.969  -2.123  1.9896 -1.8722  3.1804
  867MOL0     H17010  -0.369   1.118  -2.150  0.8803 -0.8713 -0.4629
  867MOL0     H17011  -0.606   1.375  -2.051  1.7278  1.3642 -0.0592
  867MOL0     H17012  -0.534   1.242  -2.145  0.0262 -0.5244  0.6755
  867MOL0     H17013  -0.564   1.098  -1.949  1.8803  1.3128 -2.3407
  867MOL0     H17014  -0.630   1.227  -1.848 -2.9158 -2.0855  1.4766
  867MOL0     H17015  -0.773   1.039  -1.950  0.7508 -0.6325  0.1234
  867MOL0     H17016  -0.763   1.127  -2.107 -0.8317  0.2711  0.0775
  867MOL0     H17017  -0.850   1.259  -1.850 -0.4868 -2.0296  0.1994
  867MOL0     H17018  -0.876   1.322  -2.019  0.6365 -0.8512 -1.7502
  867MOL0     H17019  -1.018   1.073  -1.910 -0.0516 -0.4293 -0.3460
  867MOL0     H17020  -1.017   1.131  -2.073 -0.6603 -0.6607  0.5445
  867MOL0     H17021  -1.220   1.197  -1.932  0.5750 -1.8875  0.8424
  867MOL0     H17022  -1.099   1.307  -1.860  2.7062  0.3753 -1.6423
  867MOL0     H17023  -1.112   1.297  -2.162  0.5310 -4.4578  1.6864
  867MOL0     H17024  -1.075   1.441  -2.066  0.6457  0.3514 -2.6949
  867MOL0     H17025  -1.352   1.330  -2.131  0.6915 -0.0473  0.9886
  867MOL0     H17026  -1.290   1.489  -2.173  0.1793  0.1289  0.9588
  867MOL0     H17027  -0.215   1.382  -1.845  3.2468  0.8253  0.7071
  867MOL0     H17028  -0.015   1.252  -1.834  0.5040  1.1043 -0.7590
  867MOL0     H17029   0.104   0.791  -1.907  0.2985  0.2661 -1.8245
  867MOL0     H17030   0.254   0.616  -1.886  2.6774 -0.4395 -0.1983
  867MOL0     H17031   1.084   0.975  -0.425  2.2775  1.3928 -3.0474
  867MOL0     H17032   1.279   1.094  -0.316  3.7000 -0.2992  1.4445
  867MOL0     H17033   1.708   1.002  -0.165 -0.8964  0.9493  0.1594
  867MOL0     H17034   1.934   1.071  -0.062  0.6688 -0.9165  0.0931
  867MOL0     H17035   2.106   1.099   0.327 -0.4573  0.3256 -0.7372
  867MOL0     H17036   1.942   1.119   0.384 -1.0440 -0.6319 -0.3072
  867MOL0     H17037   2.058   0.875   0.230  0.0026  1.7183 -0.7410
  867MOL0     H17038   1.894   0.878   0.276 -1.1118  3.6632 -0.6576
  867MOL0     H17039   1.941   0.792   0.485  0.6045  0.1922  1.6992
  867MOL0     H17040   2.056   0.921   0.519  1.3146  1.1308 -1.2697
  867MOL0     H17041   2.224   0.786   0.383 -0.9937  1.7311  0.3785
  867MOL0     H17042   2.107   0.645   0.383 -0.8335  0.0094  0.3500
  867MOL0     H17043   2.254   0.673   0.785  4.0414 -0.4949 -0.7164
  867MOL0     H17044   1.711   1.144   0.307  2.5802 -2.8374  1.3010
  867MOL0     H17045   1.522   1.124   0.194  0.8644  1.2391  1.1208
  868MOL0     O17046   5.611   9.424   5.412 -0.1039  0.2588  0.5143
  868MOL0     C17047   5.675   9.394   5.309 -0.1159 -0.6561  0.3155
  868MOL0     O17048   5.636   9.324   5.200  0.2175  0.3114 -0.0790
  868MOL0     C17049   5.518   9.257   5.222  0.1590  0.3437 -0.5616
  868MOL0     C17050   5.477   9.175   5.325 -0.6938 -0.0931 -0.6243
  868MOL0     C17051   5.371   9.084   5.332  0.3687 -0.0699 -0.2250
  868MOL0     C17052   5.288   9.075   5.219  0.7663  0.7632  0.0407
  868MOL0     O17053   5.173   9.001   5.231  0.1738  0.0003  0.7039
  868MOL0     C17054   5.177   8.859   5.229  0.0685 -0.7349 -0.4142
  868MOL0     C17055   5.037   8.799   5.245  0.9598  0.1046 -1.6248
  868MOL0     C17056   5.003   8.790   5.393 -0.3695 -0.0011  0.0574
  868MOL0     C17057   4.857   8.815   5.429  0.2287  0.5310 -1.4297
  868MOL0     C17058   4.812   8.961   5.437  0.5821  0.1720  1.0529
  868MOL0     C17059   4.823   9.028   5.576 -0.5099 -1.0601 -0.9608
  868MOL0     C17060   4.972   9.053   5.614 -0.4438 -0.3559 -0.3598
  868MOL0     C17061   4.997   9.157   5.725 -0.0793  0.2816  0.9236
  868MOL0     N17062   5.133   9.137   5.790  1.1064 -1.1218 -1.1084
  868MOL0     C17063   5.247   9.173   5.720 -0.3934 -0.6523  0.3387
  868MOL0     C17064   5.356   9.194   5.795  0.6736  0.1624  0.5072
  868MOL0     C17065   5.501   9.227   5.764  0.0533 -0.4026  0.6804
  868MOL0     C17066   5.577   9.105   5.713  0.0186  0.4286  0.2265
  868MOL0     C17067   5.619   9.024   5.834 -0.0626 -0.4062  0.2808
  868MOL0     C17068   5.707   8.909   5.803  1.0785 -0.1290  0.5549
  868MOL0     O17069   5.648   8.816   5.710  0.5006  0.6746 -0.4862
  868MOL0     C17070   5.521   8.782   5.738  0.6937 -0.4168 -0.0948
  868MOL0     C17071   5.485   8.695   5.842  0.9600 -0.1762  0.1429
  868MOL0     C17072   5.353   8.657   5.873  0.1366  0.4202 -0.0415
  868MOL0     C17073   5.327   8.605   6.016  0.2948 -0.7686  0.1413
  868MOL0     C17074   5.249   8.675   5.762 -0.1359  0.3779 -0.2725
  868MOL0     C17075   5.102   8.646   5.783 -0.6032  0.3578  0.1758
  868MOL0     O17076   5.075   8.603   5.908  0.1727  0.1223  0.3738
  868MOL0     C17077   4.959   8.532   5.944 -0.9696 -0.0656 -0.2975
  868MOL0     C17078   4.859   8.478   5.862  0.8725 -0.0477  0.3202
  868MOL0     C17079   4.751   8.403   5.913  0.0450  0.5404 -0.2070
  868MOL0     C17080   4.754   8.371   6.047 -0.6098 -0.0654 -0.1464
  868MOL0     O17081   4.667   8.284   6.106 -0.1650  0.1798  0.2176
  868MOL0     C17082   4.563   8.226   6.018  0.7278 -0.1209  0.0832
  868MOL0     C17083   4.460   8.159   6.105 -0.2564 -0.0090 -0.4607
  868MOL0     C17084   4.354   8.083   6.022 -0.4716 -0.0654 -0.2342
  868MOL0     C17085   4.251   8.027   6.116  0.0377 -0.6950 -0.4690
  868MOL0     C17086   4.152   7.945   6.030  0.0813  0.0272 -0.3430
  868MOL0     C17087   4.019   7.955   6.108 -0.3998  0.7818 -0.9120
  868MOL0     C17088   3.895   7.893   6.036 -0.2121 -0.7673 -0.1003
  868MOL0     C17089   3.911   7.746   6.005 -0.7936 -0.0773  0.9842
  868MOL0    Cl17090   3.926   7.639   6.146 -0.2690 -0.1883 -0.5258
  868MOL0     C17091   4.854   8.422   6.130 -0.1146  0.7449  0.4511
  868MOL0     C17092   4.951   8.508   6.079  0.1107 -0.8342  0.5908
  868MOL0     O17093   5.026   8.645   5.686  0.7130  0.0420  0.6589
  868MOL0     C17094   5.299   8.736   5.645  0.2507 -0.0545 -0.3667
  868MOL0     C17095   5.429   8.795   5.635 -0.1157  0.6653 -1.2412
  868MOL0     N17096   5.303   9.182   5.923 -0.3253  0.1876  0.2229
  868MOL0     N17097   5.171   9.159   5.919 -0.3683  0.5321 -0.1550
  868MOL0     C17098   5.311   9.167   5.115 -0.1923 -1.0720 -0.7214
  868MOL0     C17099   5.432   9.250   5.113  0.2004 -0.0892  0.3603
  868MOL0     C17100   5.811   9.449   5.296 -0.8809  0.7509  0.8560
  868MOL0     C17101   5.904   9.357   5.238  0.1114  0.6045  0.8370
  868MOL0     C17102   6.038   9.393   5.214 -0.8296 -0.4859  0.1486
  868MOL0     C17103   6.088   9.519   5.258  0.4171 -0.2248 -0.3386
  868MOL0     O17104   6.212   9.574   5.244 -0.0196 -0.4698  1.0520
  868MOL0     C17105   6.290   9.530   5.123  0.1316  0.3128 -1.0446
  868MOL0     C17106   6.397   9.636   5.129 -0.5539 -0.1425  0.6673
  868MOL0     C17107   6.343   9.783   5.107 -0.0008  0.8734 -0.1300
  868MOL0     C17108   6.444   9.888   5.061 -0.8735  0.0147  0.1647
  868MOL0     C17109   6.549   9.898   5.164 -0.9048  0.5856 -0.1305
  868MOL0     C17110   6.657   9.907   5.242 -0.0225 -0.2551  0.1994
  868MOL0     C17111   5.996   9.602   5.324  0.1504  0.0685  0.3479
  868MOL0     C17112   5.861   9.567   5.351 -0.6991 -0.1119 -0.1751
  868MOL0     H17113   5.545   9.183   5.409  1.0144  0.1249 -1.9761
  868MOL0     H17114   5.360   9.006   5.407 -4.0380 -0.7440 -1.3012
  868MOL0     H17115   5.230   8.829   5.138 -2.2232  0.5339 -2.2720
  868MOL0     H17116   5.246   8.828   5.308  0.9177 -0.0588 -0.8719
  868MOL0     H17117   4.962   8.863   5.198 -1.9476 -1.5801  0.3903
  868MOL0     H17118   5.020   8.703   5.196  1.2403 -0.7946 -0.0159
  868MOL0     H17119   5.018   8.686   5.425  1.8232  0.4822  0.7798
  868MOL0     H17120   5.066   8.860   5.449 -1.2381  0.5030  0.4249
  868MOL0     H17121   4.794   8.756   5.362 -0.6406  1.1356 -1.1577
  868MOL0     H17122   4.839   8.763   5.523  1.0469 -1.0667 -2.1125
  868MOL0     H17123   4.864   9.028   5.367  0.5258  0.9976  1.7823
  868MOL0     H17124   4.704   8.950   5.418  0.3804 -4.3611  3.6816
  868MOL0     H17125   4.766   9.121   5.576  1.0965 -0.0357  0.5316
  868MOL0     H17126   4.773   8.975   5.657  0.6874 -0.9852 -0.1546
  868MOL0     H17127   5.001   8.954   5.650  1.8678 -0.3364 -1.9661
  868MOL0     H17128   5.027   9.077   5.523 -2.5759 -0.3178 -1.7135
  868MOL0     H17129   4.918   9.152   5.801 -1.2406  3.0075  0.0172
  868MOL0     H17130   4.982   9.257   5.683 -1.5210 -0.9710 -1.8189
  868MOL0     H17131   5.257   9.165   5.612  0.0859  0.0736  0.3261
  868MOL0     H17132   5.510   9.305   5.688  1.9489 -0.0405  1.2269
  868MOL0     H17133   5.549   9.269   5.852  0.9623 -0.6409  0.3106
  868MOL0     H17134   5.671   9.148   5.677  0.3618  0.2516  0.8785
  868MOL0     H17135   5.529   9.050   5.632 -0.9865  2.5893 -0.7394
  868MOL0     H17136   5.530   8.982   5.882 -2.4389  3.7242 -0.0724
  868MOL0     H17137   5.669   9.088   5.907  4.1030 -0.4035 -2.2464
  868MOL0     H17138   5.719   8.857   5.898  0.6089 -2.4896 -0.6162
  868MOL0     H17139   5.806   8.930   5.762  0.2848  0.5831 -1.1250
  868MOL0     H17140   5.555   8.653   5.913 -1.5970  0.2306  3.0835
  868MOL0     H17141   5.427   8.604   6.062  0.6516  1.2526 -0.5044
  868MOL0     H17142   5.274   8.682   6.072  0.9455 -1.5291  1.8737
  868MOL0     H17143   5.269   8.512   6.022  1.6648 -2.0615 -3.4952
  868MOL0     H17144   4.859   8.486   5.754  1.9643 -0.4232  0.2728
  868MOL0     H17145   4.675   8.375   5.840 -1.7060 -0.1192  1.7691
  868MOL0     H17146   4.507   8.307   5.970 -0.3263 -0.1888  1.1593
  868MOL0     H17147   4.608   8.156   5.947 -1.7827 -1.9674  0.1737
  868MOL0     H17148   4.505   8.083   6.170 -1.5620 -2.0351 -1.7775
  868MOL0     H17149   4.399   8.224   6.168  3.2655  1.0586  2.1681
  868MOL0     H17150   4.408   8.005   5.969  0.1510 -0.6343  1.1714
  868MOL0     H17151   4.312   8.164   5.962  1.8913  2.2784  1.0560
  868MOL0     H17152   4.294   7.967   6.197  3.1692 -0.5865 -1.9010
  868MOL0     H17153   4.206   8.111   6.169 -1.7670 -1.3608 -0.8784
  868MOL0     H17154   4.175   7.839   6.033 -0.3072 -0.0601  2.2653
  868MOL0     H17155   4.142   7.997   5.934  0.9390  0.0902 -0.3990
  868MOL0     H17156   4.030   7.917   6.210 -0.0569  0.3927 -1.0929
  868MOL0     H17157   3.994   8.061   6.117 -0.1043  0.8175 -0.4718
  868MOL0     H17158   3.877   7.944   5.941  2.9967  1.1849  0.1768
  868MOL0     H17159   3.806   7.918   6.095 -0.3801 -3.4607  0.9029
  868MOL0     H17160   4.000   7.728   5.943 -1.5009 -1.7112  0.3883
  868MOL0     H17161   3.831   7.696   5.951  1.2947 -4.1475  1.3140
  868MOL0     H17162   4.830   8.421   6.236 -2.5531 -0.8681 -0.0333
  868MOL0     H17163   5.036   8.545   6.136  0.6519  0.3561 -0.8995
  868MOL0     H17164   5.227   8.757   5.568 -1.5865 -0.4377  1.1694
  868MOL0     H17165   5.472   8.839   5.545  0.8666 -3.1869 -2.8971
  868MOL0     H17166   5.237   9.181   5.036  0.8884  0.5776 -1.4857
  868MOL0     H17167   5.441   9.311   5.023  0.8616 -1.8078 -0.7801
  868MOL0     H17168   5.873   9.258   5.205  1.4466  0.7748 -1.1551
  868MOL0     H17169   6.104   9.329   5.158  1.8516  3.0349 -1.0797
  868MOL0     H17170   6.324   9.429   5.148  1.9912  0.2833 -3.2607
  868MOL0     H17171   6.233   9.528   5.029 -1.5960  1.6175 -0.0773
  868MOL0     H17172   6.475   9.610   5.057 -0.6490  0.8864  0.1782
  868MOL0     H17173   6.446   9.641   5.227 -0.4216  3.0410  0.5384
  868MOL0     H17174   6.287   9.824   5.192 -2.4069 -1.0877 -0.6416
  868MOL0     H17175   6.267   9.783   5.028  0.0723  0.5605 -0.2025
  868MOL0     H17176   6.397   9.983   5.034 -1.0452 -0.5397 -1.6191
  868MOL0     H17177   6.487   9.840   4.973 -2.3982  0.3737 -0.8141
  868MOL0     H17178   6.743   9.918   5.304 -1.1110  3.3927  1.3083
  868MOL0     H17179   6.034   9.696   5.364  1.8588 -0.4560  0.0349
  868MOL0     H17180   5.792   9.628   5.407  0.4738  0.3465  0.8203
  869MOL0     O17181   0.531   9.032   8.328 -0.6581  0.2462 -0.3657
  869MOL0     C17182   0.463   9.129   8.364 -0.6148  0.3710  0.8881
  869MOL0     O17183   0.494   9.207   8.468  1.3077 -0.7064  0.0484
  869MOL0     C17184   0.604   9.185   8.548 -0.9202  0.1451  0.2018
  869MOL0     C17185   0.733   9.171   8.487  0.7267 -0.4661 -1.5095
  869MOL0     C17186   0.841   9.140   8.575  0.4391 -0.0068  0.5153
  869MOL0     C17187   0.824   9.104   8.714  0.8786  0.4366 -0.4764
  869MOL0     O17188   0.929   9.088   8.805 -0.0763  0.4428  0.9726
  869MOL0     C17189   1.058   9.137   8.760  0.4442 -0.1207  0.7404
  869MOL0     C17190   1.154   9.125   8.875  0.3466  0.1880 -0.9305
  869MOL0     C17191   1.299   9.152   8.819 -0.0804 -0.1368 -0.6843
  869MOL0     C17192   1.420   9.093   8.904 -0.6427 -0.2699 -0.2983
  869MOL0     C17193   1.545   9.129   8.829 -0.7875 -0.8083 -0.0999
  869MOL0     C17194   1.668   9.124   8.914 -0.3693  1.6675  0.3950
  869MOL0     C17195   1.688   9.257   8.982  0.7238  0.6175 -0.2926
  869MOL0     C17196   1.793   9.241   9.097  0.6252  0.4343 -0.4763
  869MOL0     N17197   1.820   9.369   9.159  0.3761 -0.1043  0.3389
  869MOL0     C17198   1.790   9.505   9.120  0.3089 -0.5109 -0.9692
  869MOL0     C17199   1.862   9.570   9.217 -0.5039 -0.6820  0.2737
  869MOL0     C17200   1.864   9.718   9.222 -0.1301 -0.6630  1.0035
  869MOL0     C17201   1.786   9.772   9.347 -0.1761 -0.8518  0.0698
  869MOL0     C17202   1.753   9.925   9.325 -0.4618  0.2329 -0.0471
  869MOL0     C17203   1.669   9.976   9.444 -0.6672  0.8491  0.1488
  869MOL0     O17204   1.655  10.115   9.418 -0.0402  0.3305 -0.2542
  869MOL0     C17205   1.527  10.157   9.393  0.1810 -0.1033 -0.5394
  869MOL0     C17206   1.419  10.175   9.485 -0.1905 -0.4782  0.8582
  869MOL0     C17207   1.294  10.213   9.445 -0.6768 -0.4023  0.5842
  869MOL0     C17208   1.190  10.206   9.558  0.6845 -0.3777  0.2841
  869MOL0     C17209   1.266  10.245   9.309 -0.6816  0.4873 -0.2987
  869MOL0     C17210   1.129  10.291   9.256  0.3224 -0.0229  0.1836
  869MOL0     O17211   1.030  10.312   9.350  0.3482 -0.2591  0.7151
  869MOL0     C17212   0.914  10.320   9.298 -0.5009  0.1639 -0.3561
  869MOL0     C17213   0.856  10.194   9.281 -0.4532 -0.0120 -0.0614
  869MOL0     C17214   0.725  10.193   9.230  0.2137  0.2535 -0.3576
  869MOL0     C17215   0.654  10.309   9.187  1.0344  0.3614  0.2001
  869MOL0     O17216   0.516  10.311   9.144 -0.4338  0.5549 -0.2681
  869MOL0     C17217   0.461  10.194   9.077 -0.3899 -0.3040 -1.0146
  869MOL0     C17218   0.353  10.222   8.976  0.4984 -0.2222 -0.5053
  869MOL0     C17219   0.409  10.297   8.860 -0.7457 -0.5236  0.7306
  869MOL0     C17220   0.354  10.265   8.724 -0.4436 -0.6785 -0.1440
  869MOL0     C17221   0.213  10.318   8.704  0.1102 -0.2276  0.0863
  869MOL0     C17222   0.181  10.373   8.564  0.2983  0.4795 -0.1530
  869MOL0     C17223   0.252  10.501   8.531  0.6966 -0.6494 -0.7617
  869MOL0     C17224   0.204  10.557   8.400  0.1415  0.2265  0.2321
  869MOL0    Cl17225   0.250  10.735   8.378 -0.0030  0.1463 -0.3784
  869MOL0     C17226   0.713  10.437   9.218 -0.4610 -0.2497  0.1061
  869MOL0     C17227   0.847  10.439   9.267  0.9004 -0.0711 -0.3338
  869MOL0     O17228   1.118  10.317   9.132 -0.5951 -0.1664  0.3606
  869MOL0     C17229   1.376  10.234   9.221 -0.3770  0.3095  0.0952
  869MOL0     C17230   1.496  10.196   9.261 -0.6729  0.3727 -0.0161
  869MOL0     N17231   1.923   9.482   9.298 -0.5292  0.2372  0.4702
  869MOL0     N17232   1.910   9.363   9.260 -0.4492  0.4157 -0.4972
  869MOL0     C17233   0.707   9.134   8.764  0.3336  0.1147  0.8621
  869MOL0     C17234   0.591   9.177   8.692 -1.0135 -0.4202  0.3157
  869MOL0     C17235   0.342   9.144   8.296  1.0379 -0.0492 -0.1574
  869MOL0     C17236   0.297   9.066   8.186 -0.1626  0.4567  0.6370
  869MOL0     C17237   0.177   9.084   8.122  0.1969 -0.1064  0.0024
  869MOL0     C17238   0.088   9.182   8.163  0.2337 -0.6587  0.2915
  869MOL0     O17239  -0.029   9.221   8.103  0.0354 -0.6517 -0.1321
  869MOL0     C17240  -0.097   9.131   8.018 -0.0726 -0.0936 -0.4182
  869MOL0     C17241  -0.232   9.183   7.974  0.1409  0.3640  0.5881
  869MOL0     C17242  -0.335   9.193   8.082  0.1910  0.6982  0.1813
  869MOL0     C17243  -0.444   9.293   8.061 -0.1893 -0.8634 -0.0441
  869MOL0     C17244  -0.533   9.307   8.176 -0.5687  0.1274  0.3903
  869MOL0     C17245  -0.613   9.301   8.259 -0.0244 -0.3423  0.0113
  869MOL0     C17246   0.125   9.254   8.281 -0.2203 -0.1021 -0.5025
  869MOL0     C17247   0.253   9.241   8.343  0.8150  0.2856  0.3009
  869MOL0     H17248   0.747   9.195   8.382  3.5116 -4.2193 -2.2058
  869MOL0     H17249   0.942   9.149   8.535  0.5628  0.9763  1.0000
  869MOL0     H17250   1.101   9.082   8.676 -1.2489 -3.0052  1.6209
  869MOL0     H17251   1.047   9.240   8.726 -0.5287 -0.4744 -0.0684
  869MOL0     H17252   1.126   9.197   8.952 -1.0182  0.1190 -1.3331
  869MOL0     H17253   1.141   9.026   8.919 -2.4772  0.3866 -1.1206
  869MOL0     H17254   1.313   9.116   8.717 -1.4895  1.9961 -1.7031
  869MOL0     H17255   1.307   9.261   8.810 -1.9067  0.1106  0.2146
  869MOL0     H17256   1.416   9.133   9.006 -1.9614 -0.0895 -0.4042
  869MOL0     H17257   1.412   8.984   8.908 -0.0876 -0.2989  0.2531
  869MOL0     H17258   1.555   9.054   8.750  4.3207 -1.9142  1.2100
  869MOL0     H17259   1.541   9.233   8.796 -0.0901  0.1537  2.5703
  869MOL0     H17260   1.655   9.057   8.999 -2.4332  1.5809  0.0634
  869MOL0     H17261   1.755   9.098   8.852 -0.2738  0.7370  0.8941
  869MOL0     H17262   1.726   9.331   8.911  2.8909  0.6486  0.8197
  869MOL0     H17263   1.588   9.286   9.015  0.1683  0.9526 -2.1252
  869MOL0     H17264   1.892   9.203   9.069  1.3030 -0.5595  2.8155
  869MOL0     H17265   1.747   9.176   9.172 -0.8721  2.2893  0.3028
  869MOL0     H17266   1.731   9.544   9.037 -0.6410 -0.0213 -0.0797
  869MOL0     H17267   1.969   9.747   9.215 -0.8099  1.5411 -1.8396
  869MOL0     H17268   1.812   9.755   9.133  3.0937 -0.6624 -1.0581
  869MOL0     H17269   1.844   9.752   9.437 -2.7387  1.0556  2.3183
  869MOL0     H17270   1.691   9.719   9.354  0.1445 -2.1927 -3.5327
  869MOL0     H17271   1.686   9.946   9.242 -2.1934  1.7276  1.6042
  869MOL0     H17272   1.842   9.987   9.308 -1.3950  2.4272  2.2475
  869MOL0     H17273   1.724   9.955   9.536  0.2885 -0.1847 -0.6291
  869MOL0     H17274   1.574   9.923   9.458 -1.1448  1.6237 -0.0935
  869MOL0     H17275   1.435  10.138   9.585 -0.9340 -0.2441  1.0674
  869MOL0     H17276   1.098  10.161   9.520  0.3864 -0.6515  1.3024
  869MOL0     H17277   1.213  10.152   9.650 -0.4225 -0.5971  0.4356
  869MOL0     H17278   1.165  10.303   9.601  4.1875  0.1205  1.5605
  869MOL0     H17279   0.907  10.107   9.320  1.9669  0.1581 -2.5470
  869MOL0     H17280   0.680  10.095   9.223  0.8721 -0.0334 -0.6644
  869MOL0     H17281   0.543  10.137   9.031 -0.5923 -2.1386  0.7516
  869MOL0     H17282   0.420  10.131   9.156  2.6460 -2.0462 -0.6671
  869MOL0     H17283   0.329  10.122   8.938 -0.0402  0.6143 -2.5311
  869MOL0     H17284   0.271  10.280   9.020  1.6795  3.7930 -3.0908
  869MOL0     H17285   0.515  10.268   8.850 -0.7202  0.1932 -1.5831
  869MOL0     H17286   0.391  10.400   8.889 -1.3024  0.8758 -3.8304
  869MOL0     H17287   0.415  10.328   8.658  0.1308  0.7603  1.6903
  869MOL0     H17288   0.365  10.161   8.690 -2.7981 -0.6086 -1.3293
  869MOL0     H17289   0.198  10.403   8.771 -2.8348  0.9818 -1.9271
  869MOL0     H17290   0.138  10.246   8.738  0.3385 -0.4994  0.0271
  869MOL0     H17291   0.180  10.294   8.488 -3.6246  0.1156  0.0857
  869MOL0     H17292   0.075  10.395   8.577  0.5911  1.6536  0.4259
  869MOL0     H17293   0.360  10.483   8.524  0.9870  0.5246  0.3692
  869MOL0     H17294   0.239  10.575   8.611  0.9291 -0.6075 -0.7611
  869MOL0     H17295   0.094  10.559   8.399 -0.1667 -4.3812  0.9271
  869MOL0     H17296   0.248  10.506   8.314  0.9517  0.0890  0.7211
  869MOL0     H17297   0.665  10.534   9.225 -0.6592 -0.4004  0.8575
  869MOL0     H17298   0.891  10.538   9.277 -0.8660  0.8016 -0.6807
  869MOL0     H17299   1.366  10.270   9.119 -0.7834  2.8353  0.9413
  869MOL0     H17300   1.567  10.203   9.179  0.4067 -1.8655  0.6338
  869MOL0     H17301   0.704   9.133   8.873 -1.0600  0.8403  0.8519
  869MOL0     H17302   0.490   9.180   8.733 -0.7582  2.0011  0.9289
  869MOL0     H17303   0.366   8.988   8.158  0.3805 -0.5057  4.1476
  869MOL0     H17304   0.151   9.019   8.039 -1.1495 -0.6335  0.7885
  869MOL0     H17305  -0.034   9.116   7.930  0.7042  2.4421 -0.3822
  869MOL0     H17306  -0.098   9.032   8.066  0.7801  0.5171  0.9283
  869MOL0     H17307  -0.261   9.111   7.896  1.4130  0.6458 -0.1701
  869MOL0     H17308  -0.225   9.286   7.937  0.4040  2.2118  5.1806
  869MOL0     H17309  -0.286   9.219   8.177  2.8807  1.6025 -1.3472
  869MOL0     H17310  -0.375   9.091   8.093  1.9350 -0.1995 -1.2696
  869MOL0     H17311  -0.495   9.275   7.965  1.0399  2.8692 -1.5907
  869MOL0     H17312  -0.402   9.393   8.051  0.3259 -0.4425  4.4749
  869MOL0     H17313  -0.672   9.311   8.348  2.9876  1.2881  1.9970
  869MOL0     H17314   0.046   9.318   8.318 -0.4348 -1.2744  1.1576
  869MOL0     H17315   0.277   9.300   8.431  0.4246 -0.8882  1.2270
  870MOL0     O17316   2.664   4.803   2.754 -0.1263  0.3103 -0.8542
  870MOL0     C17317   2.561   4.748   2.795  1.0279 -0.2158  0.8854
  870MOL0     O17318   2.553   4.672   2.902  0.4519  0.6196  0.3046
  870MOL0     C17319   2.659   4.608   2.966 -0.0365  0.0242 -0.7971
  870MOL0     C17320   2.629   4.477   3.016 -0.6150  2.2140 -0.2031
  870MOL0     C17321   2.727   4.403   3.069  0.7550  1.0001 -0.7106
  870MOL0     C17322   2.855   4.456   3.096 -0.4962 -0.1022 -0.0159
  870MOL0     O17323   2.955   4.371   3.150  0.2356 -0.1202 -0.1028
  870MOL0     C17324   3.090   4.403   3.103  0.6538 -0.4858 -0.3336
  870MOL0     C17325   3.198   4.307   3.151 -0.7821  0.1028 -0.0740
  870MOL0     C17326   3.184   4.256   3.296 -0.2999 -0.1236  1.1319
  870MOL0     C17327   3.305   4.171   3.345 -0.7973  0.1029  0.4167
  870MOL0     C17328   3.293   4.023   3.307  0.1461 -0.7414 -0.9561
  870MOL0     C17329   3.200   3.938   3.399  0.8894  0.5322  0.0837
  870MOL0     C17330   3.204   3.787   3.351  0.4860 -0.0657 -0.4490
  870MOL0     C17331   3.144   3.776   3.213 -0.5792  0.5971 -0.1009
  870MOL0     N17332   3.122   3.638   3.177  0.0277  0.6785  0.8939
  870MOL0     C17333   3.014   3.551   3.193  0.2468 -0.3973  0.4994
  870MOL0     C17334   3.058   3.428   3.150  0.6831 -0.4917  0.0835
  870MOL0     C17335   2.983   3.292   3.149 -0.3968 -0.0464 -0.0338
  870MOL0     C17336   2.963   3.225   3.282 -0.1802 -0.4321  0.3031
  870MOL0     C17337   2.883   3.100   3.274  0.7522  1.0741 -1.0345
  870MOL0     C17338   2.955   2.985   3.203  0.1841 -0.3035 -0.3987
  870MOL0     O17339   2.965   3.003   3.059 -0.1945 -0.4768 -0.2567
  870MOL0     C17340   3.060   2.923   3.002  1.3035 -0.2560  0.5904
  870MOL0     C17341   3.091   2.795   3.046 -0.5897 -0.0796 -0.2529
  870MOL0     C17342   3.178   2.713   2.970  0.4181  0.3260  0.0637
  870MOL0     C17343   3.190   2.572   3.018  0.2286  0.5308 -0.2042
  870MOL0     C17344   3.227   2.756   2.845 -0.3331 -0.6628 -0.0818
  870MOL0     C17345   3.307   2.680   2.751 -0.4843  0.3849  0.0922
  870MOL0     O17346   3.402   2.585   2.797  0.4485  0.9538 -0.8800
  870MOL0     C17347   3.499   2.525   2.725 -0.5784  0.3251 -0.3354
  870MOL0     C17348   3.529   2.534   2.592 -0.5618  0.5099  1.0107
  870MOL0     C17349   3.636   2.455   2.538  1.4744 -0.7348 -0.0166
  870MOL0     C17350   3.702   2.369   2.622 -0.3261  0.2530 -0.2953
  870MOL0     O17351   3.811   2.307   2.565  0.7327  0.5705  0.0079
  870MOL0     C17352   3.903   2.259   2.654  0.0704  0.0248  0.1696
  870MOL0     C17353   4.023   2.199   2.572 -0.3018  0.3699  0.6198
  870MOL0     C17354   4.143   2.298   2.558  0.5191 -0.5218  0.0967
  870MOL0     C17355   4.123   2.399   2.438 -0.4878  0.2728 -0.2630
  870MOL0     C17356   4.224   2.510   2.432  0.1450  0.0470 -0.4617
  870MOL0     C17357   4.276   2.507   2.288 -0.4736  0.6415 -0.1304
  870MOL0     C17358   4.381   2.404   2.273  0.0251  0.6123 -0.6994
  870MOL0     C17359   4.466   2.408   2.147  0.0551 -0.5279  0.1140
  870MOL0    Cl17360   4.368   2.377   1.998 -0.1701 -0.3331 -0.1963
  870MOL0     C17361   3.672   2.367   2.759 -0.2636  0.6261 -0.0242
  870MOL0     C17362   3.574   2.450   2.810 -0.4483 -1.0742 -0.4882
  870MOL0     O17363   3.286   2.706   2.632  0.4711 -0.0899  0.7075
  870MOL0     C17364   3.181   2.885   2.806 -0.0541 -0.5620  1.3097
  870MOL0     C17365   3.100   2.969   2.871 -0.9172 -0.3519 -1.0859
  870MOL0     N17366   3.189   3.444   3.117  0.4357  0.7532 -0.4274
  870MOL0     N17367   3.223   3.564   3.122  1.0722 -0.2304  0.2316
  870MOL0     C17368   2.869   4.595   3.063  0.3840  0.1448 -0.0171
  870MOL0     C17369   2.776   4.675   3.005  0.0148 -0.4615  0.8101
  870MOL0     C17370   2.436   4.759   2.726  0.0144 -0.3855 -0.4789
  870MOL0     C17371   2.425   4.864   2.632  0.0285 -0.0725 -0.7962
  870MOL0     C17372   2.308   4.881   2.555  0.1191  0.7717 -0.1536
  870MOL0     C17373   2.199   4.806   2.577  1.0545  1.0164 -0.5330
  870MOL0     O17374   2.081   4.838   2.517  0.0150  0.6111 -0.6472
  870MOL0     C17375   1.986   4.902   2.606 -0.6942 -0.4397  0.0707
  870MOL0     C17376   1.850   4.835   2.630  0.2748 -0.0225 -0.4418
  870MOL0     C17377   1.747   4.826   2.507 -1.0309  0.3031 -0.1674
  870MOL0     C17378   1.663   4.704   2.520 -0.5614 -0.6460 -0.2261
  870MOL0     C17379   1.556   4.732   2.618  0.0499 -0.6632  0.5337
  870MOL0     C17380   1.475   4.737   2.707 -0.7173  0.8071 -0.6547
  870MOL0     C17381   2.210   4.703   2.676  0.7933  0.7248  0.2468
  870MOL0     C17382   2.326   4.679   2.745  0.1310  0.0629  0.7881
  870MOL0     H17383   2.532   4.431   3.004 -0.6130  2.5914 -1.9054
  870MOL0     H17384   2.718   4.301   3.106  0.2305  1.4483  0.4710
  870MOL0     H17385   3.094   4.409   2.994  1.3667  0.1581 -0.2800
  870MOL0     H17386   3.114   4.504   3.138 -4.3040  1.8494 -2.6856
  870MOL0     H17387   3.197   4.213   3.095  0.7094  1.3035 -2.2495
  870MOL0     H17388   3.300   4.342   3.136 -1.0047  0.9908  0.3736
  870MOL0     H17389   3.172   4.346   3.358 -0.4576  0.3240  0.4664
  870MOL0     H17390   3.092   4.200   3.312  0.5098 -1.3879  1.4697
  870MOL0     H17391   3.400   4.213   3.308 -0.2003  0.0561  1.8399
  870MOL0     H17392   3.311   4.176   3.454 -1.5804 -3.3839  0.7373
  870MOL0     H17393   3.260   4.017   3.202 -1.3382  0.6190 -0.6090
  870MOL0     H17394   3.395   3.983   3.313 -0.0003 -0.9111  2.8729
  870MOL0     H17395   3.237   3.952   3.501 -3.9480 -0.0428  2.1609
  870MOL0     H17396   3.099   3.976   3.389  1.4964  1.9139 -1.1733
  870MOL0     H17397   3.304   3.743   3.359  0.0888 -0.7458  1.5532
  870MOL0     H17398   3.133   3.734   3.415 -0.7698  1.5205 -0.4624
  870MOL0     H17399   3.203   3.817   3.130  0.0295  0.5435  0.3009
  870MOL0     H17400   3.052   3.834   3.205 -0.9483  0.1843  0.9959
  870MOL0     H17401   2.913   3.575   3.225  0.4223  1.9943 -0.5274
  870MOL0     H17402   2.883   3.317   3.113 -0.6818 -1.8202 -0.5817
  870MOL0     H17403   3.033   3.232   3.073 -2.9310 -0.8016 -1.2199
  870MOL0     H17404   2.916   3.295   3.351  0.7818 -0.1239  0.6601
  870MOL0     H17405   3.055   3.183   3.324 -0.7626 -1.9844  0.1162
  870MOL0     H17406   2.786   3.105   3.223 -0.1714  0.1650  0.5457
  870MOL0     H17407   2.865   3.063   3.375  1.0935  1.6009 -0.7789
  870MOL0     H17408   2.902   2.892   3.228  1.0026 -0.9233 -0.8990
  870MOL0     H17409   3.059   2.976   3.237  1.6103  1.1116 -3.9021
  870MOL0     H17410   3.034   2.759   3.131  0.0565  0.9937  0.6591
  870MOL0     H17411   3.182   2.501   2.935 -0.3003 -0.6772  0.8230
  870MOL0     H17412   3.283   2.550   3.072  0.2741 -1.0602 -0.8700
  870MOL0     H17413   3.117   2.555   3.098  3.1502  1.7907  2.9753
  870MOL0     H17414   3.478   2.599   2.521  2.0808  0.4364 -1.1357
  870MOL0     H17415   3.663   2.474   2.435 -1.7137  0.4726 -0.7294
  870MOL0     H17416   3.943   2.343   2.712  1.1074 -0.2799 -0.0755
  870MOL0     H17417   3.855   2.175   2.704 -2.2508  0.6337 -0.9028
  870MOL0     H17418   4.043   2.105   2.625 -0.3513  0.1860  0.3151
  870MOL0     H17419   3.994   2.178   2.469 -0.5921  1.4144  0.4824
  870MOL0     H17420   4.237   2.244   2.553  2.9162  2.9351  2.7841
  870MOL0     H17421   4.151   2.358   2.650 -2.0211  2.6702 -1.5308
  870MOL0     H17422   4.132   2.340   2.347  3.2760  1.4147 -0.8193
  870MOL0     H17423   4.018   2.430   2.441 -1.2612 -1.6538 -3.1616
  870MOL0     H17424   4.308   2.497   2.501 -0.0585  0.2847 -0.1677
  870MOL0     H17425   4.180   2.609   2.446 -2.5706 -0.9220 -1.4968
  870MOL0     H17426   4.206   2.504   2.204 -0.4959 -0.8671 -0.0835
  870MOL0     H17427   4.336   2.594   2.260  2.0794 -0.4257  1.6386
  870MOL0     H17428   4.334   2.305   2.269  0.7920  0.2253 -0.4319
  870MOL0     H17429   4.446   2.409   2.361  1.8866  0.7140 -2.0462
  870MOL0     H17430   4.548   2.335   2.147  0.8607  0.2658 -2.3388
  870MOL0     H17431   4.501   2.510   2.131  0.0238 -0.1750  2.0198
  870MOL0     H17432   3.737   2.314   2.828  2.1354  2.5338 -0.6904
  870MOL0     H17433   3.540   2.454   2.913  0.1909  0.2620 -0.3025
  870MOL0     H17434   3.221   2.931   2.716 -0.1843 -0.2826  1.3928
  870MOL0     H17435   3.062   3.058   2.822 -1.5506  0.4863  0.8164
  870MOL0     H17436   2.963   4.649   3.067  1.3332 -1.0504 -3.2274
  870MOL0     H17437   2.780   4.783   2.993  0.8153 -0.4669  0.9741
  870MOL0     H17438   2.516   4.922   2.619  2.1558 -2.6842  1.1353
  870MOL0     H17439   2.302   4.955   2.476 -1.9657 -1.0256 -1.8060
  870MOL0     H17440   2.028   4.922   2.705  1.0465  0.7073 -0.8528
  870MOL0     H17441   1.975   5.001   2.561 -1.7664 -0.4956  0.1913
  870MOL0     H17442   1.796   4.899   2.699 -0.8082 -0.1227 -1.1733
  870MOL0     H17443   1.865   4.739   2.680 -1.0125  0.7199  1.4422
  870MOL0     H17444   1.792   4.817   2.408  0.7787  0.0921  0.6161
  870MOL0     H17445   1.693   4.921   2.505  1.7177  2.0379  1.0577
  870MOL0     H17446   1.712   4.608   2.539 -0.9056 -0.6486  0.6688
  870MOL0     H17447   1.616   4.686   2.423 -1.2477 -1.7149  0.2885
  870MOL0     H17448   1.400   4.736   2.782  0.9495  0.0264  1.0925
  870MOL0     H17449   2.118   4.648   2.694 -0.5240  2.3626 -1.0892
  870MOL0     H17450   2.337   4.593   2.810  0.2131  1.5356  2.8188
  871MOL0     O17451   6.414   3.765   2.833  0.8372 -0.0841  0.6653
  871MOL0     C17452   6.357   3.848   2.767 -0.7493 -0.0996 -0.1007
  871MOL0     O17453   6.412   3.957   2.716 -0.7965 -0.1520 -0.0064
  871MOL0     C17454   6.551   3.969   2.714 -0.0446 -0.4652 -0.0159
  871MOL0     C17455   6.606   4.084   2.756 -0.1584  0.2378 -0.4078
  871MOL0     C17456   6.745   4.109   2.746  0.2535 -0.9432  0.2424
  871MOL0     C17457   6.831   4.010   2.690  0.6486  0.2695  0.1231
  871MOL0     O17458   6.962   4.037   2.684  0.0457  0.9258 -0.6759
  871MOL0     C17459   7.057   3.971   2.594 -0.0409  0.1857 -0.9555
  871MOL0     C17460   7.025   4.018   2.460 -0.3933  0.0599  1.2863
  871MOL0     C17461   7.117   3.976   2.346  0.1125  0.0126 -0.0423
  871MOL0     C17462   7.256   4.061   2.349  1.4824  0.0934  0.9835
  871MOL0     C17463   7.345   4.002   2.236  0.8816  0.3223 -0.2143
  871MOL0     C17464   7.441   4.096   2.148 -0.4654  0.8335  0.0069
  871MOL0     C17465   7.553   4.026   2.079 -0.1807  0.2557  0.1384
  871MOL0     C17466   7.621   4.132   1.997  0.0764  0.0707 -0.1353
  871MOL0     N17467   7.729   4.063   1.935 -0.2692  0.0291 -0.4427
  871MOL0     C17468   7.707   3.979   1.826  0.5634 -1.3917 -1.0018
  871MOL0     C17469   7.817   3.900   1.823 -0.0222  1.0440  0.2040
  871MOL0     C17470   7.811   3.769   1.749  0.4520 -0.0801  0.2024
  871MOL0     C17471   7.859   3.789   1.607  0.7335  0.9353  0.1015
  871MOL0     C17472   7.735   3.841   1.534 -0.6216  0.1707  0.5426
  871MOL0     C17473   7.762   3.860   1.386 -0.0884  0.1025 -0.1791
  871MOL0     O17474   7.659   3.933   1.310  0.6285  0.2216 -0.1729
  871MOL0     C17475   7.529   3.887   1.316 -0.5729 -1.0384  1.2576
  871MOL0     C17476   7.483   3.763   1.363  0.2609 -0.8570 -0.2187
  871MOL0     C17477   7.354   3.732   1.364  1.1265 -0.6366 -0.3362
  871MOL0     C17478   7.327   3.587   1.406  0.7143 -0.0172 -0.3789
  871MOL0     C17479   7.261   3.823   1.306 -0.4492  0.3624  0.2056
  871MOL0     C17480   7.120   3.796   1.287 -1.1343 -0.0456 -0.4320
  871MOL0     O17481   7.057   3.723   1.390 -0.0347  0.8376  0.1317
  871MOL0     C17482   6.934   3.679   1.381  1.0557 -0.2919  1.0290
  871MOL0     C17483   6.831   3.774   1.350  0.2934 -0.4577  0.1372
  871MOL0     C17484   6.696   3.734   1.339 -0.3493 -0.2898 -0.0138
  871MOL0     C17485   6.661   3.602   1.374  0.1377 -0.4361  0.1126
  871MOL0     O17486   6.528   3.546   1.374 -0.1892 -0.0846  0.2104
  871MOL0     C17487   6.416   3.631   1.353  0.7017  0.0372  0.5046
  871MOL0     C17488   6.291   3.551   1.364 -0.3604 -0.2058 -0.3782
  871MOL0     C17489   6.278   3.414   1.294  0.2810  0.1806 -0.0427
  871MOL0     C17490   6.152   3.333   1.346  0.1333 -0.3080  0.2598
  871MOL0     C17491   6.017   3.358   1.268 -0.7830 -0.4111 -0.3494
  871MOL0     C17492   5.905   3.298   1.344  0.0115  0.0904  0.0480
  871MOL0     C17493   5.923   3.149   1.368 -0.5096  0.1032  0.0460
  871MOL0     C17494   5.922   3.053   1.244 -0.0674 -0.2060 -0.4630
  871MOL0    Cl17495   5.785   3.096   1.127  0.2796 -0.1392  0.3858
  871MOL0     C17496   6.763   3.505   1.405  0.8838  0.2516 -0.6840
  871MOL0     C17497   6.894   3.544   1.403  0.5237 -1.6667 -0.0643
  871MOL0     O17498   7.069   3.845   1.187  0.0982  0.1039  0.3125
  871MOL0     C17499   7.304   3.943   1.259 -0.2848 -0.4479  0.0467
  871MOL0     C17500   7.443   3.977   1.259  0.6547  0.4050 -0.5375
  871MOL0     N17501   7.910   3.940   1.920 -0.0812 -0.1177 -0.0123
  871MOL0     N17502   7.855   4.036   1.985  0.7713 -0.6381 -0.3955
  871MOL0     C17503   6.775   3.887   2.643 -0.4143 -0.3112 -0.5482
  871MOL0     C17504   6.636   3.868   2.662 -0.6303 -0.4688 -0.2753
  871MOL0     C17505   6.207   3.830   2.746 -0.5386 -0.2242  0.0706
  871MOL0     C17506   6.144   3.724   2.803 -0.5175  0.1214 -0.1660
  871MOL0     C17507   6.004   3.704   2.781  0.2635  0.7779 -0.4811
  871MOL0     C17508   5.931   3.811   2.704 -0.5372 -0.0764  0.8085
  871MOL0     O17509   5.803   3.814   2.690 -0.3092  0.4187 -0.0078
  871MOL0     C17510   5.740   3.678   2.694 -0.1285  0.1739  0.0966
  871MOL0     C17511   5.606   3.695   2.627  0.2361  0.8703  0.0097
  871MOL0     C17512   5.499   3.785   2.692 -1.2568 -1.1734  0.0865
  871MOL0     C17513   5.369   3.771   2.623  0.4182  0.1444 -0.1913
  871MOL0     C17514   5.281   3.891   2.641 -0.9663  1.2039 -0.5086
  871MOL0     C17515   5.220   4.000   2.658  0.3740 -0.6508 -0.0480
  871MOL0     C17516   5.997   3.917   2.656 -0.3639  0.9693  0.9524
  871MOL0     C17517   6.129   3.923   2.678 -0.7150  0.4876 -0.0790
  871MOL0     H17518   6.550   4.162   2.807 -0.2647  0.4778 -0.8808
  871MOL0     H17519   6.775   4.198   2.799 -1.9900 -0.1897  0.3636
  871MOL0     H17520   7.157   3.983   2.637 -0.6472 -0.5640  0.7432
  871MOL0     H17521   7.047   3.863   2.598 -1.9293  0.3511  1.7763
  871MOL0     H17522   6.923   3.987   2.433 -0.8327  1.1192  1.6668
  871MOL0     H17523   7.027   4.128   2.459  0.6498  0.0679  2.0520
  871MOL0     H17524   7.139   3.869   2.343  0.8753  0.1681 -0.2705
  871MOL0     H17525   7.056   3.989   2.257 -1.1558  0.6034  0.8840
  871MOL0     H17526   7.242   4.168   2.327  0.2371 -0.5018 -1.4163
  871MOL0     H17527   7.305   4.063   2.447 -0.3667 -0.0829  1.9600
  871MOL0     H17528   7.413   3.928   2.280 -1.8172 -5.2593 -4.3392
  871MOL0     H17529   7.284   3.938   2.173  1.3470  0.3245 -0.6687
  871MOL0     H17530   7.383   4.140   2.066  1.2379 -0.7424 -2.1717
  871MOL0     H17531   7.475   4.173   2.217  0.5870  0.1578  0.2584
  871MOL0     H17532   7.626   3.991   2.152  0.6576 -3.1156 -2.0852
  871MOL0     H17533   7.511   3.938   2.030 -1.0245  0.0911  1.1236
  871MOL0     H17534   7.647   4.205   2.074 -4.6277 -0.5966  2.4287
  871MOL0     H17535   7.564   4.187   1.922  2.2192  0.3172 -1.6849
  871MOL0     H17536   7.606   3.974   1.786  0.0734  1.0668 -0.2573
  871MOL0     H17537   7.874   3.689   1.788 -1.4794 -1.5827  0.3795
  871MOL0     H17538   7.705   3.742   1.759  0.5298  0.1816  2.1120
  871MOL0     H17539   7.896   3.695   1.565 -2.8415 -0.0821 -1.1667
  871MOL0     H17540   7.943   3.859   1.611  2.0190 -0.5073 -0.7719
  871MOL0     H17541   7.716   3.937   1.581 -3.9942 -0.9015  1.6372
  871MOL0     H17542   7.656   3.768   1.552 -0.5660  0.3076  1.3981
  871MOL0     H17543   7.773   3.762   1.339  0.2581  0.3829 -0.7056
  871MOL0     H17544   7.859   3.906   1.362  0.2443 -0.6693 -0.3376
  871MOL0     H17545   7.558   3.690   1.389  2.3881  1.7477  1.4794
  871MOL0     H17546   7.419   3.529   1.401  0.6869  0.0051 -4.2773
  871MOL0     H17547   7.277   3.580   1.503  0.0470 -1.5883 -0.8061
  871MOL0     H17548   7.256   3.538   1.338 -1.3268 -0.0816  1.6771
  871MOL0     H17549   6.856   3.879   1.341  0.2030 -0.3536  1.0924
  871MOL0     H17550   6.609   3.797   1.322 -3.0592 -4.1174 -2.0297
  871MOL0     H17551   6.418   3.704   1.435 -1.3087 -0.6741  1.2407
  871MOL0     H17552   6.410   3.682   1.257 -2.5857 -0.6188  0.2444
  871MOL0     H17553   6.277   3.551   1.473  1.2094  0.7936 -0.1423
  871MOL0     H17554   6.203   3.610   1.337 -1.6363 -1.5777  0.5877
  871MOL0     H17555   6.366   3.353   1.318  0.2835  0.4192  0.5444
  871MOL0     H17556   6.279   3.436   1.186  0.9879 -1.2606 -0.3619
  871MOL0     H17557   6.180   3.228   1.333 -0.2178 -0.4180  0.3738
  871MOL0     H17558   6.140   3.352   1.453 -0.2679 -0.6703  0.2845
  871MOL0     H17559   6.030   3.303   1.174  1.6836 -1.0587  0.3156
  871MOL0     H17560   5.996   3.463   1.242 -1.5581 -0.6191 -0.5860
  871MOL0     H17561   5.906   3.352   1.439 -0.6861 -0.6796  0.5052
  871MOL0     H17562   5.805   3.309   1.301  0.3576  1.2332 -0.4955
  871MOL0     H17563   5.842   3.115   1.434  0.1554  0.5019  1.0994
  871MOL0     H17564   6.011   3.125   1.429 -1.1017 -1.3450  0.3684
  871MOL0     H17565   5.933   2.950   1.278  0.8079 -0.2058 -0.7425
  871MOL0     H17566   6.018   3.073   1.197  0.7507  3.0495  2.1732
  871MOL0     H17567   6.746   3.400   1.422  3.8096  0.0147  1.3828
  871MOL0     H17568   6.981   3.482   1.423  1.4657 -0.0441  1.0603
  871MOL0     H17569   7.233   4.022   1.235 -1.3856 -1.5960 -0.5841
  871MOL0     H17570   7.463   4.078   1.225 -0.7353 -0.0604 -3.0065
  871MOL0     H17571   6.832   3.815   2.584 -2.9924 -2.5833 -0.4476
  871MOL0     H17572   6.590   3.775   2.632 -1.1770 -0.6787  1.1560
  871MOL0     H17573   6.200   3.657   2.868 -1.7158  1.6946  2.6893
  871MOL0     H17574   5.959   3.618   2.828  0.8702 -0.0316 -1.3413
  871MOL0     H17575   5.788   3.608   2.623 -2.4860 -0.6215 -0.8020
  871MOL0     H17576   5.729   3.636   2.794 -0.0418 -1.8697 -0.6920
  871MOL0     H17577   5.554   3.600   2.612 -1.6341  1.7297  0.6744
  871MOL0     H17578   5.625   3.729   2.525 -0.2145 -1.9384 -1.0815
  871MOL0     H17579   5.531   3.889   2.693 -1.8112 -0.9973  1.7332
  871MOL0     H17580   5.490   3.759   2.798  0.8699  0.6373  0.8009
  871MOL0     H17581   5.323   3.680   2.662 -0.4181  0.4388 -0.4573
  871MOL0     H17582   5.400   3.762   2.519  3.7444  1.0783  0.6157
  871MOL0     H17583   5.164   4.091   2.664  2.9771  1.0251  0.3869
  871MOL0     H17584   5.951   3.985   2.585  0.1826 -0.4742 -0.8541
  871MOL0     H17585   6.170   4.016   2.640  0.9660  0.6555  1.9213
  872MOL0     O17586   5.566   0.750   2.704 -0.7601  0.7449  0.0320
  872MOL0     C17587   5.629   0.666   2.768  0.7953  0.1887 -0.6209
  872MOL0     O17588   5.756   0.679   2.817  0.2153 -0.2429  0.0747
  872MOL0     C17589   5.840   0.768   2.762  0.2829 -0.7407  0.0195
  872MOL0     C17590   5.943   0.814   2.845  1.1295 -0.3120 -0.2997
  872MOL0     C17591   6.037   0.908   2.802  0.7465 -0.4487  0.1178
  872MOL0     C17592   6.036   0.954   2.665 -0.2792  0.5334 -0.3561
  872MOL0     O17593   6.143   1.029   2.615  0.4239 -0.8700  0.4436
  872MOL0     C17594   6.102   1.160   2.570  0.6562 -0.4862  0.1255
  872MOL0     C17595   6.221   1.260   2.557 -0.6512 -0.7382 -0.0978
  872MOL0     C17596   6.316   1.268   2.675  0.1447 -0.2303 -0.2676
  872MOL0     C17597   6.429   1.372   2.662  0.2114  0.8127 -0.0773
  872MOL0     C17598   6.538   1.377   2.776 -0.2643 -0.2927  0.1256
  872MOL0     C17599   6.637   1.482   2.748  0.0530  0.2165 -1.0719
  872MOL0     C17600   6.688   1.536   2.872 -0.9834 -0.2655 -0.8201
  872MOL0     C17601   6.811   1.624   2.851 -0.3072 -0.5035 -0.0444
  872MOL0     N17602   6.863   1.650   2.991  0.1096  0.3149 -0.3440
  872MOL0     C17603   6.981   1.593   3.037 -0.1867  0.1279  0.5372
  872MOL0     C17604   7.000   1.647   3.167  0.0743  0.0281  0.1060
  872MOL0     C17605   7.123   1.629   3.251 -0.1893  0.0006  0.6776
  872MOL0     C17606   7.141   1.484   3.303 -0.5615 -0.7121 -0.3807
  872MOL0     C17607   7.267   1.493   3.397 -0.5684 -0.3117  0.8402
  872MOL0     C17608   7.241   1.564   3.526 -0.1835 -0.0365 -0.0653
  872MOL0     O17609   7.357   1.548   3.620 -0.0462  0.3661  0.6084
  872MOL0     C17610   7.365   1.458   3.721 -0.6513 -0.1198  0.3738
  872MOL0     C17611   7.470   1.458   3.819 -1.1508 -0.0516  0.3876
  872MOL0     C17612   7.486   1.368   3.923  0.2845 -0.4318 -0.4014
  872MOL0     C17613   7.600   1.382   4.018  0.3132 -0.4342  0.0418
  872MOL0     C17614   7.390   1.264   3.930 -0.1811  0.1949  0.4925
  872MOL0     C17615   7.395   1.147   4.027  0.5291 -0.9068 -0.0022
  872MOL0     O17616   7.283   1.068   4.040 -0.3608  0.2087 -0.6084
  872MOL0     C17617   7.290   0.964   4.135 -0.3781  0.1793 -0.8454
  872MOL0     C17618   7.380   0.859   4.129  0.3381 -0.5033  0.2598
  872MOL0     C17619   7.384   0.749   4.218  0.8466  0.1492  0.6258
  872MOL0     C17620   7.285   0.749   4.322 -0.4360  0.1782 -0.7284
  872MOL0     O17621   7.295   0.644   4.406 -0.6954 -0.6786 -0.1888
  872MOL0     C17622   7.216   0.636   4.521  0.1970  0.7370 -0.3368
  872MOL0     C17623   7.292   0.588   4.643  0.2615  1.1929  0.2110
  872MOL0     C17624   7.367   0.692   4.723 -0.5781  0.0108 -0.0376
  872MOL0     C17625   7.474   0.778   4.642  0.1507 -0.0407 -0.0405
  872MOL0     C17626   7.582   0.702   4.556 -0.1526  0.4170 -0.1657
  872MOL0     C17627   7.698   0.651   4.652 -0.4524  0.4889  0.6337
  872MOL0     C17628   7.815   0.577   4.588  0.0169  0.6549 -0.0197
  872MOL0     C17629   7.922   0.668   4.525  0.5303 -0.1660 -0.5075
  872MOL0    Cl17630   8.041   0.738   4.640 -0.2287 -0.1107  0.2245
  872MOL0     C17631   7.191   0.851   4.327 -0.4592  0.2641  0.0314
  872MOL0     C17632   7.182   0.950   4.232 -0.4836 -0.6169 -0.3612
  872MOL0     O17633   7.497   1.138   4.095 -0.1215 -0.4885 -0.2907
  872MOL0     C17634   7.288   1.258   3.843  0.6898  0.0472  1.0658
  872MOL0     C17635   7.262   1.361   3.749  0.3127  0.1355 -0.4365
  872MOL0     N17636   6.888   1.724   3.188 -0.1531  0.2208  0.8171
  872MOL0     N17637   6.812   1.723   3.084  0.1673  0.0806  0.1256
  872MOL0     C17638   5.942   0.899   2.580  0.0616 -0.2292 -0.0107
  872MOL0     C17639   5.835   0.816   2.630 -0.2298 -0.2894  0.0979
  872MOL0     C17640   5.548   0.542   2.807  0.1110  0.5469 -1.7554
  872MOL0     C17641   5.406   0.536   2.787  0.0610 -0.1070 -0.3208
  872MOL0     C17642   5.334   0.424   2.819  0.2973  0.0134 -0.1506
  872MOL0     C17643   5.393   0.310   2.874 -0.0877 -0.4638  0.2933
  872MOL0     O17644   5.315   0.200   2.890 -0.2666  0.2478 -0.4635
  872MOL0     C17645   5.368   0.069   2.867 -0.9277  0.4455 -0.1976
  872MOL0     C17646   5.447   0.058   2.733  0.4831  0.1313  0.2384
  872MOL0     C17647   5.508  -0.078   2.712 -0.5777 -0.0420  0.0075
  872MOL0     C17648   5.536  -0.095   2.559  0.6028  1.1860 -0.6754
  872MOL0     C17649   5.405  -0.111   2.490 -0.9212  0.7031 -0.1987
  872MOL0     C17650   5.305  -0.151   2.442  0.5510  0.8101 -0.7477
  872MOL0     C17651   5.529   0.317   2.908 -0.4535  0.7633  0.6976
  872MOL0     C17652   5.611   0.431   2.874  0.7147  0.8198 -0.7811
  872MOL0     H17653   5.943   0.782   2.949 -1.0944  1.3874  0.3066
  872MOL0     H17654   6.108   0.957   2.869  0.0542  0.8366 -0.0620
  872MOL0     H17655   6.047   1.158   2.475  2.4373  3.3447 -1.2004
  872MOL0     H17656   6.032   1.194   2.647  0.0159 -1.8272  0.1703
  872MOL0     H17657   6.283   1.234   2.470  0.3485  1.3898 -0.0807
  872MOL0     H17658   6.180   1.359   2.535 -0.7554 -1.1145 -1.7931
  872MOL0     H17659   6.256   1.287   2.764 -0.5524  1.9538 -1.1187
  872MOL0     H17660   6.370   1.177   2.702  0.0186  0.3790  2.2861
  872MOL0     H17661   6.483   1.334   2.575 -3.6295 -3.2501 -1.0746
  872MOL0     H17662   6.390   1.470   2.634  1.4005  0.9156 -1.4930
  872MOL0     H17663   6.482   1.389   2.869  1.7990 -1.0952  1.5185
  872MOL0     H17664   6.592   1.283   2.786 -2.8618 -1.6134  3.2439
  872MOL0     H17665   6.718   1.431   2.694  0.8829  0.5516 -0.1650
  872MOL0     H17666   6.595   1.572   2.703 -0.4090  0.9248  0.7266
  872MOL0     H17667   6.602   1.590   2.914  1.4510  1.3824  2.4522
  872MOL0     H17668   6.717   1.451   2.935  1.9531 -2.4469 -4.6806
  872MOL0     H17669   6.782   1.716   2.800  1.9229  1.2318  1.6146
  872MOL0     H17670   6.882   1.568   2.789 -1.6614 -0.9175 -1.2814
  872MOL0     H17671   7.041   1.513   2.996  0.1577 -0.9791  3.0129
  872MOL0     H17672   7.211   1.660   3.194  1.3480  1.5286  3.6746
  872MOL0     H17673   7.117   1.694   3.338  1.1867 -1.0376  1.5865
  872MOL0     H17674   7.163   1.413   3.222  1.3163 -2.8679  1.8609
  872MOL0     H17675   7.055   1.449   3.359 -0.9133  2.7936  1.5347
  872MOL0     H17676   7.354   1.525   3.339  1.2044 -0.6995  3.1395
  872MOL0     H17677   7.286   1.390   3.430  0.6406 -0.5111 -0.3846
  872MOL0     H17678   7.152   1.517   3.569  0.3133 -5.6554 -4.1608
  872MOL0     H17679   7.215   1.669   3.508 -1.9262 -0.1365  1.5801
  872MOL0     H17680   7.543   1.537   3.802  0.0183 -1.2660 -0.3672
  872MOL0     H17681   7.674   1.445   3.966 -0.7581  0.5473 -0.3447
  872MOL0     H17682   7.572   1.432   4.111 -1.6327 -1.6123  0.1371
  872MOL0     H17683   7.657   1.293   4.045  1.4222  0.6292  1.3628
  872MOL0     H17684   7.451   0.857   4.047 -0.5528 -1.6023 -0.5289
  872MOL0     H17685   7.466   0.679   4.206  1.2742  0.7997 -0.4545
  872MOL0     H17686   7.180   0.731   4.562  1.3184 -0.0280  2.6706
  872MOL0     H17687   7.124   0.577   4.509  0.1126  0.2302  2.1959
  872MOL0     H17688   7.216   0.544   4.708  1.0831 -1.2566 -0.3800
  872MOL0     H17689   7.366   0.513   4.615  1.0672  1.5689  1.2621
  872MOL0     H17690   7.418   0.660   4.814 -1.8980  0.8060  1.0177
  872MOL0     H17691   7.296   0.760   4.771  2.0729  0.0537  4.3867
  872MOL0     H17692   7.407   0.828   4.571  0.8265 -0.4760 -0.9935
  872MOL0     H17693   7.525   0.856   4.699 -0.7126 -1.3560  2.7536
  872MOL0     H17694   7.634   0.773   4.491  1.9042 -2.8057 -2.2788
  872MOL0     H17695   7.541   0.620   4.497 -0.8103 -0.2378  1.1637
  872MOL0     H17696   7.737   0.737   4.707  1.1825 -1.4819  2.7303
  872MOL0     H17697   7.649   0.588   4.726 -0.5428 -0.2196 -0.0168
  872MOL0     H17698   7.762   0.511   4.519 -0.4164 -1.1160  1.9147
  872MOL0     H17699   7.867   0.513   4.659 -2.4547 -2.2305 -0.6116
  872MOL0     H17700   7.892   0.755   4.467  1.3371 -0.6943 -1.7402
  872MOL0     H17701   7.988   0.608   4.463  0.4806 -1.5019  0.6600
  872MOL0     H17702   7.120   0.856   4.409 -1.8643  1.6124 -1.2005
  872MOL0     H17703   7.105   1.026   4.237  1.4133  1.6324 -2.3685
  872MOL0     H17704   7.215   1.179   3.831 -0.0960  1.1454 -2.4396
  872MOL0     H17705   7.172   1.348   3.689  1.2297 -3.7702 -1.2609
  872MOL0     H17706   5.936   0.932   2.476  0.0309 -0.9783 -0.2574
  872MOL0     H17707   5.767   0.777   2.555  1.3248 -2.9940 -0.0201
  872MOL0     H17708   5.360   0.623   2.743 -0.5516 -0.4257 -0.3269
  872MOL0     H17709   5.228   0.424   2.795  0.1199 -0.4422  0.6031
  872MOL0     H17710   5.434   0.046   2.950  0.4314  0.1841 -1.3050
  872MOL0     H17711   5.288  -0.005   2.866 -0.9560  0.4666 -1.4116
  872MOL0     H17712   5.528   0.130   2.735 -0.3013  1.0608  3.2227
  872MOL0     H17713   5.367   0.085   2.664  1.1558  1.6453  0.0153
  872MOL0     H17714   5.434  -0.152   2.745  1.3062 -3.0711 -2.0537
  872MOL0     H17715   5.599  -0.077   2.773  0.2488 -1.5669 -1.1336
  872MOL0     H17716   5.596  -0.185   2.542 -1.6193  0.0843 -3.4997
  872MOL0     H17717   5.595  -0.010   2.522  3.4210  0.2708  1.4018
  872MOL0     H17718   5.214  -0.201   2.416  1.0596 -0.9960  0.7275
  872MOL0     H17719   5.593   0.234   2.937  0.2708  1.0375 -0.0757
  872MOL0     H17720   5.719   0.435   2.887  0.5609  3.4218  0.1309
  873MOL0     O17721   0.867   1.397   4.090 -0.3724 -0.3002  0.0360
  873MOL0     C17722   0.930   1.287   4.073  0.4628 -0.6346  0.1508
  873MOL0     O17723   0.886   1.181   3.994 -0.0697  0.8250  0.0564
  873MOL0     C17724   0.801   1.206   3.885 -0.0156 -0.1243  0.4700
  873MOL0     C17725   0.853   1.303   3.789 -0.0596 -0.0971  0.4305
  873MOL0     C17726   0.770   1.327   3.679 -0.6213 -1.6467  0.9947
  873MOL0     C17727   0.651   1.256   3.662  0.1801  0.6407  0.0211
  873MOL0     O17728   0.574   1.290   3.549 -0.0681  0.4791  0.8414
  873MOL0     C17729   0.443   1.332   3.582 -0.0015 -0.3151 -0.2684
  873MOL0     C17730   0.390   1.433   3.479  0.6747 -1.1460  0.7942
  873MOL0     C17731   0.259   1.516   3.524  0.4688 -0.0261  0.1188
  873MOL0     C17732   0.194   1.590   3.401 -0.1785  1.5348  0.1433
  873MOL0     C17733   0.123   1.718   3.430 -0.3118 -0.0575  0.5805
  873MOL0     C17734   0.069   1.784   3.301  0.3870  0.6162 -0.3659
  873MOL0     C17735   0.003   1.913   3.343 -0.3235  0.4875 -0.0415
  873MOL0     C17736   0.096   2.025   3.408  0.0267 -0.7645  0.4456
  873MOL0     N17737   0.037   2.159   3.397  0.6691 -0.3513  0.2745
  873MOL0     C17738  -0.089   2.204   3.435 -0.2018  0.3854 -0.5540
  873MOL0     C17739  -0.087   2.337   3.449  0.2757 -0.1063 -0.6264
  873MOL0     C17740  -0.190   2.434   3.500 -0.5628  0.2650  0.3943
  873MOL0     C17741  -0.146   2.497   3.630  0.3355 -0.0140 -1.4232
  873MOL0     C17742  -0.063   2.411   3.725 -0.6762 -0.7565  0.1690
  873MOL0     C17743  -0.139   2.287   3.784  0.1431  0.5677  0.8132
  873MOL0     O17744  -0.276   2.319   3.821 -0.2683 -1.4108  0.8531
  873MOL0     C17745  -0.366   2.222   3.843 -0.4575  0.0435  0.4533
  873MOL0     C17746  -0.497   2.253   3.879 -0.2797 -0.1852 -0.1880
  873MOL0     C17747  -0.589   2.158   3.926 -0.2550 -0.1316  0.8248
  873MOL0     C17748  -0.708   2.211   3.988  0.0457  0.3886 -0.1001
  873MOL0     C17749  -0.554   2.020   3.919  0.2967 -0.6492  0.5125
  873MOL0     C17750  -0.649   1.915   3.973  0.6702 -0.6496  1.0923
  873MOL0     O17751  -0.590   1.794   4.017 -0.2013 -0.2236  0.2181
  873MOL0     C17752  -0.660   1.684   4.061 -0.3429 -0.9336  0.0284
  873MOL0     C17753  -0.584   1.587   4.118  0.1015  0.3559 -0.4755
  873MOL0     C17754  -0.622   1.458   4.141  0.2480 -0.2678  0.0941
  873MOL0     C17755  -0.753   1.418   4.103 -0.1629  0.4597 -0.4113
  873MOL0     O17756  -0.808   1.292   4.121  0.0335 -0.9348  0.2393
  873MOL0     C17757  -0.728   1.177   4.106 -0.3390  0.7190 -0.2706
  873MOL0     C17758  -0.783   1.061   4.195 -0.7060  0.3210 -0.6654
  873MOL0     C17759  -0.929   1.029   4.176 -0.7122  0.1889 -0.1353
  873MOL0     C17760  -0.950   1.025   4.021  0.3162 -0.3146 -0.0527
  873MOL0     C17761  -1.080   0.953   4.002 -0.2879 -0.6310  0.1961
  873MOL0     C17762  -1.198   1.045   4.016 -0.3706 -0.2688 -0.0271
  873MOL0     C17763  -1.324   1.001   3.933  0.1915  0.3187 -0.3041
  873MOL0     C17764  -1.408   0.901   4.014 -0.3846 -0.1715  0.4053
  873MOL0    Cl17765  -1.503   0.996   4.126  0.0415  0.0634  0.1863
  873MOL0     C17766  -0.833   1.507   4.047  0.0898 -0.2943  0.1439
  873MOL0     C17767  -0.789   1.648   4.026  0.3152  0.2377  0.1972
  873MOL0     O17768  -0.772   1.940   3.955  0.2764 -0.1922 -0.4759
  873MOL0     C17769  -0.422   1.990   3.883  1.1702  0.9704  0.2965
  873MOL0     C17770  -0.333   2.082   3.838  0.1868 -0.6184 -0.2849
  873MOL0     N17771   0.037   2.375   3.407  0.1751 -0.6957  0.6136
  873MOL0     N17772   0.102   2.278   3.366 -0.6583 -0.1403  0.3200
  873MOL0     C17773   0.608   1.168   3.753  0.0661  0.4647 -0.3684
  873MOL0     C17774   0.681   1.133   3.864  0.5262  0.2046  0.1447
  873MOL0     C17775   1.063   1.272   4.130  0.2595 -0.6399 -0.3900
  873MOL0     C17776   1.105   1.359   4.241  0.1648 -0.0345  0.0206
  873MOL0     C17777   1.219   1.338   4.308 -0.2226  0.5542 -0.2446
  873MOL0     C17778   1.309   1.246   4.255 -0.6034  1.1035 -0.0796
  873MOL0     O17779   1.431   1.235   4.317  0.0250  0.5789 -0.3663
  873MOL0     C17780   1.441   1.228   4.452  0.2751  0.3612  0.2331
  873MOL0     C17781   1.348   1.111   4.507 -0.3535 -0.0081 -0.4420
  873MOL0     C17782   1.358   1.096   4.665  0.5578  0.5251 -0.1757
  873MOL0     C17783   1.376   0.951   4.718 -0.1066  0.1267  0.2500
  873MOL0     C17784   1.394   0.967   4.868 -0.1546 -0.5547  0.0430
  873MOL0     C17785   1.401   0.971   4.987  0.2759  0.6749  0.4323
  873MOL0     C17786   1.282   1.168   4.143  0.1408 -0.8930  0.0215
  873MOL0     C17787   1.151   1.175   4.081 -0.6184  0.3203  0.1655
  873MOL0     H17788   0.950   1.353   3.790  0.9639 -1.6631 -3.4964
  873MOL0     H17789   0.794   1.399   3.601 -2.7109 -2.3150 -0.3665
  873MOL0     H17790   0.375   1.247   3.581  0.3836 -0.6315  0.0124
  873MOL0     H17791   0.442   1.387   3.677 -1.4955  0.3745 -0.6596
  873MOL0     H17792   0.470   1.501   3.449  0.4595 -0.8171  0.9632
  873MOL0     H17793   0.375   1.392   3.379 -1.2558 -1.5442  1.2170
  873MOL0     H17794   0.179   1.449   3.558 -2.4907  1.3966 -3.3953
  873MOL0     H17795   0.279   1.584   3.607 -1.1707 -0.6545  1.0773
  873MOL0     H17796   0.281   1.610   3.337  1.9290 -1.1863  1.9092
  873MOL0     H17797   0.119   1.527   3.352  1.0346  1.0746 -1.1868
  873MOL0     H17798   0.039   1.693   3.496  1.9093 -0.0345  3.6528
  873MOL0     H17799   0.196   1.777   3.488  0.0871 -0.9256  0.9824
  873MOL0     H17800   0.150   1.800   3.230  0.4103  1.1974 -0.2110
  873MOL0     H17801   0.003   1.714   3.250 -0.8353  1.1948  0.3730
  873MOL0     H17802  -0.029   1.957   3.248 -1.1568 -0.5541 -0.2557
  873MOL0     H17803  -0.088   1.891   3.399  0.7222 -1.7871  0.8903
  873MOL0     H17804   0.198   2.021   3.369 -0.6307 -1.1621 -1.3339
  873MOL0     H17805   0.098   2.000   3.514 -0.5839  1.6227  1.0963
  873MOL0     H17806  -0.178   2.161   3.479 -2.7411  3.5151 -2.2577
  873MOL0     H17807  -0.208   2.519   3.434 -0.2071 -0.1944 -0.3034
  873MOL0     H17808  -0.283   2.381   3.520 -1.1989  1.4975  0.8231
  873MOL0     H17809  -0.230   2.539   3.685 -1.6713 -4.3046 -0.7476
  873MOL0     H17810  -0.080   2.579   3.602 -1.2416  1.2733 -1.4759
  873MOL0     H17811  -0.021   2.473   3.805  1.1414 -1.9789  0.2348
  873MOL0     H17812   0.029   2.378   3.676 -0.2714 -0.9412  1.0387
  873MOL0     H17813  -0.093   2.245   3.873 -2.1447 -0.8175  1.4252
  873MOL0     H17814  -0.154   2.208   3.710  0.9914 -0.6786  1.9397
  873MOL0     H17815  -0.506   2.359   3.898  1.2969 -0.2985  1.5403
  873MOL0     H17816  -0.699   2.208   4.097 -1.8197  1.9652  0.1497
  873MOL0     H17817  -0.731   2.306   3.939  2.0103  1.3187  0.6252
  873MOL0     H17818  -0.798   2.156   3.961  0.7082 -1.1877  0.7709
  873MOL0     H17819  -0.483   1.610   4.151  0.0654 -1.1336  0.7677
  873MOL0     H17820  -0.568   1.386   4.202  1.4552 -0.9902 -1.7389
  873MOL0     H17821  -0.717   1.158   3.999  0.7808  1.6975 -0.3602
  873MOL0     H17822  -0.625   1.185   4.143 -0.2227 -1.6136  0.0609
  873MOL0     H17823  -0.721   0.971   4.194 -1.8442 -0.4885 -0.3614
  873MOL0     H17824  -0.767   1.096   4.297  1.4398  1.0511 -1.1852
  873MOL0     H17825  -0.984   1.116   4.214  1.6135  2.0331 -0.7561
  873MOL0     H17826  -0.970   0.944   4.231 -1.7491  1.0834  0.5017
  873MOL0     H17827  -0.952   1.130   3.989  1.1719 -0.7348 -1.6047
  873MOL0     H17828  -0.877   0.978   3.954 -0.1375 -1.4161  0.2067
  873MOL0     H17829  -1.090   0.865   4.065 -2.5048  0.5013  1.5592
  873MOL0     H17830  -1.082   0.912   3.900 -1.2142 -2.8107  1.0223
  873MOL0     H17831  -1.209   1.056   4.125 -0.5714 -3.1754  0.3257
  873MOL0     H17832  -1.186   1.148   3.982 -0.7782 -0.2147 -0.0110
  873MOL0     H17833  -1.299   0.946   3.842 -0.2250 -4.0116  1.9261
  873MOL0     H17834  -1.385   1.091   3.918 -2.1030 -0.8632  1.3601
  873MOL0     H17835  -1.345   0.829   4.067  1.0945  0.1435 -0.8484
  873MOL0     H17836  -1.472   0.838   3.953 -0.8515 -0.3963  1.1113
  873MOL0     H17837  -0.933   1.474   4.020  0.6243  0.3292 -3.1102
  873MOL0     H17838  -0.860   1.722   3.992  1.7143  1.1315 -0.8777
  873MOL0     H17839  -0.395   1.885   3.890 -2.2090 -0.2235 -1.8221
  873MOL0     H17840  -0.231   2.051   3.818  1.3975  2.8710 -0.2694
  873MOL0     H17841   0.516   1.112   3.742 -0.1739  0.0426  2.8067
  873MOL0     H17842   0.661   1.057   3.938  3.7997 -0.5477  0.3967
  873MOL0     H17843   1.044   1.442   4.277 -1.3084 -0.1053 -2.0973
  873MOL0     H17844   1.248   1.410   4.384  0.9968 -0.9335  0.7652
  873MOL0     H17845   1.546   1.206   4.470 -0.2168 -1.1061  1.5691
  873MOL0     H17846   1.420   1.324   4.500 -2.4818  0.6722 -1.3677
  873MOL0     H17847   1.380   1.019   4.458  1.1213  0.6450 -0.7653
  873MOL0     H17848   1.243   1.119   4.477  0.0577 -2.6763 -3.0724
  873MOL0     H17849   1.284   1.163   4.709  3.6205  2.4624  2.5150
  873MOL0     H17850   1.450   1.147   4.694  0.4181  0.4097  0.4679
  873MOL0     H17851   1.458   0.894   4.674 -0.6659 -0.5830  0.1148
  873MOL0     H17852   1.288   0.893   4.690 -1.0631  0.2453  2.7837
  873MOL0     H17853   1.388   0.979   5.093 -1.5072 -0.4758  0.3420
  873MOL0     H17854   1.350   1.092   4.105 -2.8002 -2.6476 -2.1498
  873MOL0     H17855   1.121   1.120   3.992  1.6690 -0.5084 -0.1544
  874MOL0     O17856   9.595   3.532  10.773 -0.1379 -0.1347  0.1371
  874MOL0     C17857   9.601   3.522  10.647 -0.0913  0.6193 -0.1563
  874MOL0     O17858   9.711   3.553  10.561  0.6755 -0.0273  0.5409
  874MOL0     C17859   9.817   3.616  10.613 -0.4908  0.4281 -0.4205
  874MOL0     C17860   9.853   3.745  10.568 -0.7057 -0.5468 -0.1465
  874MOL0     C17861   9.956   3.817  10.629 -0.5205 -0.1152  0.6563
  874MOL0     C17862  10.025   3.758  10.732 -0.7676  0.4936  0.1984
  874MOL0     O17863  10.136   3.817  10.796  0.3005  1.1765 -0.0191
  874MOL0     C17864  10.145   3.954  10.787 -1.1426  0.5078  0.0342
  874MOL0     C17865  10.245   4.005  10.893  0.4789  0.4412  0.0559
  874MOL0     C17866  10.245   4.159  10.888  1.0050  0.6119  0.1407
  874MOL0     C17867  10.336   4.223  10.991 -0.1193 -1.0597 -0.3462
  874MOL0     C17868  10.325   4.378  11.004  0.4122 -0.3157  0.5433
  874MOL0     C17869  10.410   4.431  11.125 -0.4117 -0.3099  0.0611
  874MOL0     C17870  10.378   4.403  11.269 -0.2104 -0.5130 -0.4694
  874MOL0     C17871  10.244   4.451  11.330 -0.2446  0.2185 -0.2756
  874MOL0     N17872  10.117   4.381  11.281 -0.1978 -0.3182 -1.1238
  874MOL0     C17873  10.066   4.253  11.296  0.1937  0.1733  1.1378
  874MOL0     C17874   9.940   4.255  11.249  0.2803 -0.5233  0.6581
  874MOL0     C17875   9.835   4.147  11.250  0.2809  0.3510 -0.0912
  874MOL0     C17876   9.833   4.063  11.121  0.0016  0.0494  0.3981
  874MOL0     C17877   9.704   3.984  11.101 -0.0168  0.7587 -0.6203
  874MOL0     C17878   9.715   3.903  10.969 -0.3716  0.0363  0.4572
  874MOL0     O17879   9.663   4.000  10.880  0.5106 -0.0819 -0.5380
  874MOL0     C17880   9.602   3.953  10.768 -0.2611 -0.2691 -0.7256
  874MOL0     C17881   9.651   4.004  10.648  0.1727  1.6055 -0.4472
  874MOL0     C17882   9.598   3.957  10.527 -0.0992 -0.1475  0.0827
  874MOL0     C17883   9.649   4.024  10.401 -0.8329  0.4128  0.4190
  874MOL0     C17884   9.486   3.873  10.532  0.8268 -0.1897 -0.1767
  874MOL0     C17885   9.415   3.846  10.402  0.0041  0.3241 -0.0328
  874MOL0     O17886   9.307   3.918  10.366 -0.0767 -0.0161  0.5690
  874MOL0     C17887   9.219   3.886  10.260 -0.2072 -0.1503 -0.8690
  874MOL0     C17888   9.198   3.758  10.216 -0.0964  0.3117  0.1636
  874MOL0     C17889   9.120   3.736  10.100  0.3242  0.3009 -0.2357
  874MOL0     C17890   9.069   3.841  10.023  0.1003 -0.6063 -0.0455
  874MOL0     O17891   9.013   3.824   9.900 -0.1153  0.3918  0.4044
  874MOL0     C17892   8.971   3.690   9.872  0.3490 -0.7217  0.3821
  874MOL0     C17893   8.906   3.687   9.734  0.2598  0.5645 -0.4975
  874MOL0     C17894   8.784   3.775   9.728  0.5222  0.3493 -0.1859
  874MOL0     C17895   8.713   3.761   9.587  1.1701  0.2452 -0.6601
  874MOL0     C17896   8.589   3.851   9.570  0.2065  0.2766  0.3748
  874MOL0     C17897   8.626   3.999   9.548 -0.8214 -0.2142  0.3051
  874MOL0     C17898   8.606   4.050   9.406 -0.7104  0.3839  0.1713
  874MOL0     C17899   8.650   3.969   9.283  0.2160  0.6651 -0.6417
  874MOL0    Cl17900   8.567   4.027   9.140 -0.3421 -0.0174  0.4570
  874MOL0     C17901   9.099   3.974  10.068 -0.2618 -0.5285 -0.3590
  874MOL0     C17902   9.177   3.996  10.186 -0.5231  0.8092  0.6757
  874MOL0     O17903   9.464   3.759  10.326  0.1884 -0.3264 -0.6302
  874MOL0     C17904   9.430   3.829  10.650  0.3505  0.7643  0.2965
  874MOL0     C17905   9.500   3.869  10.766  0.2192 -0.5965  0.6272
  874MOL0     N17906   9.924   4.383  11.193  0.2960 -0.6416  0.3190
  874MOL0     N17907  10.023   4.454  11.222 -0.5282 -0.3804  0.4018
  874MOL0     C17908  10.002   3.626  10.766 -0.9893 -0.0594  1.2623
  874MOL0     C17909   9.897   3.555  10.705 -0.2060  0.0829  0.3501
  874MOL0     C17910   9.481   3.469  10.580 -0.1040 -0.7263  0.2306
  874MOL0     C17911   9.377   3.412  10.651  0.4396 -0.1577 -0.3383
  874MOL0     C17912   9.260   3.360  10.595 -0.0825 -0.8392  0.2148
  874MOL0     C17913   9.243   3.369  10.461  0.0154  0.6175  0.4268
  874MOL0     O17914   9.143   3.322  10.391 -0.0216 -0.0684 -0.1403
  874MOL0     C17915   9.017   3.289  10.441 -0.8493  0.0282 -0.0689
  874MOL0     C17916   8.904   3.302  10.346  0.0278 -0.3123  0.7581
  874MOL0     C17917   8.903   3.447  10.287  0.7106  0.6455  0.2705
  874MOL0     C17918   8.770   3.463  10.212  0.0516  0.0498 -1.1908
  874MOL0     C17919   8.779   3.412  10.077 -0.5563  0.8412  0.5694
  874MOL0     C17920   8.794   3.386   9.959 -0.1566  0.0538 -0.9082
  874MOL0     C17921   9.341   3.430  10.385  0.2335 -0.1196  0.0309
  874MOL0     C17922   9.466   3.468  10.442 -0.5786  0.5607  0.0881
  874MOL0     H17923   9.785   3.788  10.494  1.8252  2.1742 -1.0984
  874MOL0     H17924   9.977   3.915  10.588 -2.3618 -0.3333 -0.9813
  874MOL0     H17925  10.196   3.976  10.693 -1.6067 -1.2759 -0.6822
  874MOL0     H17926  10.050   4.010  10.789  0.3978  3.3733 -1.2055
  874MOL0     H17927  10.236   3.982  11.000  2.0756 -0.5777  0.0098
  874MOL0     H17928  10.343   3.962  10.869  0.6359 -0.4271  2.0747
  874MOL0     H17929  10.271   4.203  10.791 -0.3861  1.4359  0.1085
  874MOL0     H17930  10.144   4.185  10.921  1.1664  1.7272 -0.1863
  874MOL0     H17931  10.316   4.182  11.090  1.8961 -0.1362  0.4873
  874MOL0     H17932  10.436   4.185  10.974  0.8524  0.8213  0.7979
  874MOL0     H17933  10.367   4.418  10.911 -0.8392 -0.9349 -0.3073
  874MOL0     H17934  10.223   4.416  11.009  1.1150  1.6639  0.9006
  874MOL0     H17935  10.508   4.390  11.099 -1.0647 -0.3292 -2.6894
  874MOL0     H17936  10.411   4.539  11.111  0.5034 -0.1983  0.8931
  874MOL0     H17937  10.381   4.295  11.289  1.0189 -0.2648  0.9190
  874MOL0     H17938  10.462   4.445  11.325 -1.2517  0.5156  0.3809
  874MOL0     H17939  10.230   4.557  11.308  2.3300  0.6291 -0.2816
  874MOL0     H17940  10.250   4.444  11.439  0.7083  1.8863 -0.1811
  874MOL0     H17941  10.115   4.167  11.340  0.2987 -1.3686 -1.7504
  874MOL0     H17942   9.845   4.079  11.334 -1.9866  0.1167  0.0629
  874MOL0     H17943   9.734   4.189  11.262 -0.8870 -1.5644 -2.2989
  874MOL0     H17944   9.918   3.993  11.117 -1.2170 -1.4533 -0.1295
  874MOL0     H17945   9.836   4.132  11.036 -1.9907  0.2287  0.4342
  874MOL0     H17946   9.626   4.061  11.099  0.7360  1.5550 -0.1354
  874MOL0     H17947   9.686   3.920  11.189  3.2029 -0.1467 -0.4903
  874MOL0     H17948   9.654   3.815  10.990  0.5523 -0.6438  0.3458
  874MOL0     H17949   9.815   3.868  10.942 -0.5080  0.5987 -0.8477
  874MOL0     H17950   9.735   4.073  10.652  1.8745 -0.3144 -1.5532
  874MOL0     H17951   9.701   3.945  10.345 -3.3872 -0.8871 -0.2913
  874MOL0     H17952   9.567   4.053  10.335 -0.2671 -1.6239 -1.2963
  874MOL0     H17953   9.715   4.108  10.423 -1.3693  0.4944  1.8341
  874MOL0     H17954   9.233   3.670  10.268  2.8452  0.4709 -1.3156
  874MOL0     H17955   9.112   3.633  10.067  2.0568  0.4743 -1.2861
  874MOL0     H17956   9.058   3.625   9.858  1.9968  1.3111  0.7516
  874MOL0     H17957   8.897   3.663   9.948  0.2867  1.2647  1.0826
  874MOL0     H17958   8.977   3.727   9.662  1.3464 -1.8464 -0.8774
  874MOL0     H17959   8.886   3.582   9.709  2.3031 -0.7209  2.5419
  874MOL0     H17960   8.806   3.881   9.740 -1.5882  0.8423 -0.2582
  874MOL0     H17961   8.723   3.736   9.810  2.9113 -1.6615  0.7894
  874MOL0     H17962   8.788   3.780   9.510 -0.3289 -0.8418 -2.4791
  874MOL0     H17963   8.674   3.659   9.577  1.1949  0.3289 -1.7957
  874MOL0     H17964   8.517   3.844   9.651  3.9569 -1.7095  3.9220
  874MOL0     H17965   8.542   3.811   9.480  1.7947 -2.8465  0.7789
  874MOL0     H17966   8.566   4.068   9.608  2.7223  3.4227  0.0128
  874MOL0     H17967   8.728   4.015   9.584  0.0400 -2.8348 -0.7162
  874MOL0     H17968   8.653   4.148   9.400  2.4249 -1.0798 -1.3083
  874MOL0     H17969   8.497   4.061   9.395 -0.4504  2.4340 -0.8274
  874MOL0     H17970   8.636   3.860   9.286 -0.2311  0.7385  1.0942
  874MOL0     H17971   8.759   3.965   9.272  0.0970 -0.2917 -1.6908
  874MOL0     H17972   9.069   4.058  10.007 -1.9630  0.2247  1.4322
  874MOL0     H17973   9.202   4.095  10.222  0.1838  1.0338 -0.3899
  874MOL0     H17974   9.349   3.757  10.659  0.3885  0.7122  0.2280
  874MOL0     H17975   9.455   3.828  10.856 -1.7468  3.1536  1.5739
  874MOL0     H17976  10.050   3.578  10.850  1.4288 -1.6633 -0.8957
  874MOL0     H17977   9.869   3.454  10.734  1.0592 -0.7280 -1.0374
  874MOL0     H17978   9.385   3.402  10.759  1.7940  2.9001 -0.0455
  874MOL0     H17979   9.195   3.300  10.658 -2.6836  1.8436  0.3050
  874MOL0     H17980   9.023   3.199  10.502 -2.5452  0.4252  0.7347
  874MOL0     H17981   9.006   3.374  10.509  0.9060 -1.6700  2.5131
  874MOL0     H17982   8.812   3.284  10.402 -0.6678 -1.1737 -0.6034
  874MOL0     H17983   8.906   3.226  10.267 -3.5599 -0.8388  1.0442
  874MOL0     H17984   8.981   3.469  10.214  2.4951 -0.5840  1.6842
  874MOL0     H17985   8.907   3.521  10.367 -0.7277  2.3506 -1.1530
  874MOL0     H17986   8.759   3.571  10.197  0.0037  0.6372  2.3207
  874MOL0     H17987   8.690   3.419  10.272  0.1110 -0.3330 -1.3895
  874MOL0     H17988   8.801   3.361   9.855 -0.2308 -2.3409 -0.4026
  874MOL0     H17989   9.318   3.444  10.280 -3.5570  0.9226  0.8403
  874MOL0     H17990   9.550   3.500  10.382 -0.3489 -1.7725 -0.9309
  875MOL0     O17991   2.820   7.902   3.581  0.3406  0.0471  0.5320
  875MOL0     C17992   2.824   7.849   3.466  0.8002  1.1555 -0.0440
  875MOL0     O17993   2.929   7.859   3.378  0.1579  0.1856 -0.6711
  875MOL0     C17994   3.048   7.922   3.412  0.0558 -0.0610  0.3474
  875MOL0     C17995   3.123   7.976   3.306  0.0450 -0.2106  0.9406
  875MOL0     C17996   3.243   8.052   3.324 -0.2685 -0.3112 -0.0753
  875MOL0     C17997   3.286   8.088   3.449  0.5602  0.0829 -0.7300
  875MOL0     O17998   3.401   8.160   3.461 -0.1610 -0.0180  0.7122
  875MOL0     C17999   3.474   8.156   3.585  1.0473 -0.5933  1.0125
  875MOL0     C18000   3.597   8.240   3.588  0.2590  0.2053 -0.7293
  875MOL0     C18001   3.572   8.396   3.568  0.4084 -0.7087 -0.4859
  875MOL0     C18002   3.519   8.458   3.689 -0.3543 -0.4584 -0.0566
  875MOL0     C18003   3.517   8.614   3.689  0.0494 -1.0632 -0.4163
  875MOL0     C18004   3.487   8.667   3.835 -0.5483 -0.9671  0.8391
  875MOL0     C18005   3.499   8.823   3.857  0.0796  0.0933  0.5680
  875MOL0     C18006   3.405   8.899   3.759 -0.3442  1.0651 -0.4606
  875MOL0     N18007   3.265   8.862   3.774 -0.1640  0.0028  0.2914
  875MOL0     C18008   3.184   8.865   3.890  0.7981  0.2775 -0.4770
  875MOL0     C18009   3.075   8.792   3.856  0.2459  0.5129  0.0238
  875MOL0     C18010   2.978   8.757   3.951 -0.4618  0.6682  0.4218
  875MOL0     C18011   2.916   8.864   4.041  0.2188 -0.7953 -0.4142
  875MOL0     C18012   2.854   8.969   3.961  0.0841 -0.1027 -0.4461
  875MOL0     C18013   2.794   9.080   4.042  0.4063 -0.0582 -0.0188
  875MOL0     O18014   2.658   9.046   4.078 -0.9952 -0.3131 -0.1713
  875MOL0     C18015   2.604   9.090   4.192 -0.1651  1.0033  1.0982
  875MOL0     C18016   2.492   9.023   4.232 -0.8293 -0.7266 -0.0753
  875MOL0     C18017   2.409   9.067   4.338 -0.5083 -0.6681  0.0553
  875MOL0     C18018   2.289   8.986   4.369  0.1313  0.0604  0.9643
  875MOL0     C18019   2.448   9.193   4.398 -0.4311  0.8942  0.6232
  875MOL0     C18020   2.365   9.242   4.511  0.9443 -0.2902  0.0511
  875MOL0     O18021   2.433   9.311   4.608 -0.0277  0.1333 -0.0044
  875MOL0     C18022   2.364   9.352   4.718  0.4269  0.9674 -0.8254
  875MOL0     C18023   2.259   9.446   4.708 -0.5609 -0.2753 -0.0772
  875MOL0     C18024   2.184   9.497   4.818 -0.2784  0.1101 -1.2723
  875MOL0     C18025   2.230   9.452   4.948  0.0439 -0.3214  0.3325
  875MOL0     O18026   2.187   9.501   5.067 -0.5270  0.4858  0.0352
  875MOL0     C18027   2.198   9.647   5.068 -0.6877 -0.0982 -0.0662
  875MOL0     C18028   2.138   9.706   5.198  0.9084 -0.3123 -0.2000
  875MOL0     C18029   2.231   9.668   5.316  0.1372  0.4885  0.5441
  875MOL0     C18030   2.173   9.683   5.459 -0.1072 -0.3790  0.1392
  875MOL0     C18031   2.115   9.553   5.504  0.4704 -0.1220 -0.1894
  875MOL0     C18032   2.079   9.547   5.655 -0.2057 -0.5499  0.0138
  875MOL0     C18033   2.006   9.422   5.683 -0.6709  0.4971 -0.3541
  875MOL0     C18034   2.005   9.405   5.836  0.0728 -0.4706 -0.0576
  875MOL0    Cl18035   2.024   9.231   5.884 -0.2779  0.1837  0.0152
  875MOL0     C18036   2.329   9.353   4.961  0.2676  0.1822 -0.3426
  875MOL0     C18037   2.400   9.303   4.844 -0.2629 -0.2192 -0.6001
  875MOL0     O18038   2.244   9.227   4.503  0.0908 -0.0896 -0.0158
  875MOL0     C18039   2.564   9.254   4.362 -0.7261 -0.6697  0.6028
  875MOL0     C18040   2.645   9.201   4.266 -0.3052 -0.6284 -0.3021
  875MOL0     N18041   3.075   8.751   3.730  0.4528 -0.0625  0.2224
  875MOL0     N18042   3.189   8.791   3.682  0.4231  0.0729 -0.1619
  875MOL0     C18043   3.214   8.034   3.560  0.1850 -0.3407  0.2182
  875MOL0     C18044   3.098   7.949   3.540  0.2109  0.2025 -1.4178
  875MOL0     C18045   2.714   7.769   3.430  0.2821 -0.4952 -0.1545
  875MOL0     C18046   2.744   7.638   3.378 -0.1531  0.9606  0.5439
  875MOL0     C18047   2.640   7.555   3.329 -0.1457  0.7962  0.5180
  875MOL0     C18048   2.511   7.600   3.347  0.4778  0.5507  0.1537
  875MOL0     O18049   2.420   7.521   3.294 -0.2822  0.6242  0.0487
  875MOL0     C18050   2.387   7.392   3.361  0.2127 -0.4098 -0.4193
  875MOL0     C18051   2.235   7.371   3.353  0.2708 -0.3530 -0.2123
  875MOL0     C18052   2.165   7.496   3.418 -0.1166 -0.2629 -0.6448
  875MOL0     C18053   2.026   7.461   3.454 -0.0029  0.4845  0.3060
  875MOL0     C18054   1.951   7.461   3.332 -0.3148 -0.4757  0.3643
  875MOL0     C18055   1.889   7.494   3.230 -0.2347 -0.4691  0.3873
  875MOL0     C18056   2.484   7.727   3.402  1.1550  0.1635 -0.1388
  875MOL0     C18057   2.585   7.810   3.451  0.7585 -0.1789  0.7190
  875MOL0     H18058   3.093   7.944   3.207  0.4151 -3.6068  1.8132
  875MOL0     H18059   3.291   8.091   3.234  1.9304 -4.0605 -0.7113
  875MOL0     H18060   3.404   8.190   3.662 -0.2316  0.3526 -0.5217
  875MOL0     H18061   3.501   8.050   3.589 -0.9897 -1.1787  0.6548
  875MOL0     H18062   3.648   8.223   3.683  2.2311  1.7770 -1.4278
  875MOL0     H18063   3.668   8.209   3.510  3.6569  3.0144  0.9593
  875MOL0     H18064   3.661   8.455   3.544 -0.8742  1.6097  0.1621
  875MOL0     H18065   3.499   8.416   3.490  0.6533  2.4492 -0.0370
  875MOL0     H18066   3.417   8.424   3.710 -0.2157 -1.7751 -1.3552
  875MOL0     H18067   3.572   8.424   3.778 -2.0779 -2.3016  0.3674
  875MOL0     H18068   3.617   8.646   3.657 -0.6108 -0.7090 -2.3034
  875MOL0     H18069   3.448   8.668   3.623 -0.3556 -2.2853 -1.0154
  875MOL0     H18070   3.387   8.635   3.867 -1.0090 -1.7066 -1.1744
  875MOL0     H18071   3.559   8.621   3.904 -1.3176 -1.5061  1.2961
  875MOL0     H18072   3.481   8.835   3.964 -0.4262  0.2641  0.4617
  875MOL0     H18073   3.601   8.861   3.840 -0.2511  0.2856 -1.2404
  875MOL0     H18074   3.446   8.887   3.658  1.9606  3.0331  0.1407
  875MOL0     H18075   3.422   9.003   3.790  2.2482  0.6006 -0.0610
  875MOL0     H18076   3.208   8.904   3.988 -1.4647 -0.0704  0.2593
  875MOL0     H18077   2.899   8.705   3.896 -0.7184  0.6363  0.8198
  875MOL0     H18078   3.022   8.678   4.013 -0.2903  0.9677  0.6849
  875MOL0     H18079   2.994   8.916   4.098  1.2797 -1.4438 -1.2520
  875MOL0     H18080   2.836   8.831   4.108  0.3626 -1.6441 -0.6565
  875MOL0     H18081   2.778   8.927   3.894 -0.3029 -0.1597  0.0283
  875MOL0     H18082   2.928   9.021   3.899  0.0152 -1.2134 -1.5032
  875MOL0     H18083   2.785   9.173   3.984 -1.0789 -0.8553 -1.1391
  875MOL0     H18084   2.858   9.101   4.129 -1.0095  1.7385  0.6680
  875MOL0     H18085   2.471   8.932   4.177 -1.5620 -1.0119  0.6486
  875MOL0     H18086   2.297   8.884   4.330 -0.5266 -0.7152  2.7350
  875MOL0     H18087   2.267   8.964   4.474  1.1966  1.1897  1.4335
  875MOL0     H18088   2.203   9.040   4.328  0.2425 -0.4139  0.0828
  875MOL0     H18089   2.241   9.486   4.609 -2.2916 -2.0001 -0.5069
  875MOL0     H18090   2.114   9.580   4.812 -1.7323 -0.6572  2.3473
  875MOL0     H18091   2.301   9.685   5.058 -0.1704 -1.5912 -0.6101
  875MOL0     H18092   2.132   9.678   4.986 -0.6810 -0.5621 -0.2480
  875MOL0     H18093   2.105   9.810   5.192  2.4226  0.1634 -0.7514
  875MOL0     H18094   2.040   9.658   5.205  0.5827  0.4314  0.4419
  875MOL0     H18095   2.321   9.730   5.320  0.4292  0.2692 -1.4292
  875MOL0     H18096   2.258   9.562   5.307  1.5948  0.8962 -0.1964
  875MOL0     H18097   2.258   9.710   5.522 -0.1118 -0.6823  0.2775
  875MOL0     H18098   2.093   9.757   5.467  1.2415  1.2090 -0.5228
  875MOL0     H18099   2.189   9.474   5.486 -1.8911 -2.8481  1.2561
  875MOL0     H18100   2.026   9.537   5.444  0.1472 -0.6626  0.4195
  875MOL0     H18101   2.173   9.541   5.711  1.5730  3.0858 -2.1454
  875MOL0     H18102   2.021   9.637   5.676  3.2484  2.3962 -1.8077
  875MOL0     H18103   2.056   9.332   5.644 -1.3094 -1.1128  2.2353
  875MOL0     H18104   1.902   9.428   5.653 -0.4648  2.6084 -0.7867
  875MOL0     H18105   1.916   9.454   5.876  2.2445  0.6810  3.9189
  875MOL0     H18106   2.096   9.445   5.881  0.8528 -1.4709 -0.6897
  875MOL0     H18107   2.341   9.313   5.061  0.1866 -1.5223 -0.9787
  875MOL0     H18108   2.482   9.236   4.868  0.6125  1.1836  0.4944
  875MOL0     H18109   2.597   9.343   4.416 -0.3310  0.3415 -1.2007
  875MOL0     H18110   2.729   9.268   4.252 -1.7833  1.1839 -0.8216
  875MOL0     H18111   3.242   8.046   3.664 -2.5367 -0.0597  0.9982
  875MOL0     H18112   3.057   7.908   3.631  0.5344 -3.2124 -2.6851
  875MOL0     H18113   2.846   7.604   3.361 -0.1105 -0.1628  2.6459
  875MOL0     H18114   2.666   7.457   3.290 -1.7143 -0.0596  1.5323
  875MOL0     H18115   2.435   7.309   3.308 -2.2306 -3.2954  1.5352
  875MOL0     H18116   2.428   7.389   3.463 -3.4727 -0.3541  1.2333
  875MOL0     H18117   2.209   7.271   3.390 -1.7859  0.7825  1.6981
  875MOL0     H18118   2.215   7.366   3.246  2.4194  1.6836 -0.7719
  875MOL0     H18119   2.161   7.586   3.357 -1.1708 -0.4543 -0.8642
  875MOL0     H18120   2.229   7.522   3.503  1.8289  0.3850 -2.2387
  875MOL0     H18121   1.975   7.532   3.519  0.8322  1.7556 -0.3707
  875MOL0     H18122   2.036   7.364   3.503 -0.2705 -0.0251 -0.6234
  875MOL0     H18123   1.835   7.530   3.145  0.4948 -2.9785 -1.2567
  875MOL0     H18124   2.382   7.764   3.409  1.0745 -0.3775  2.2635
  875MOL0     H18125   2.575   7.915   3.476  0.1029 -0.4146  1.5173
  876MOL0     O18126   2.067   6.772   9.718  0.7632 -0.3027  0.4025
  876MOL0     C18127   2.156   6.782   9.804  0.1888 -0.0073  0.9001
  876MOL0     O18128   2.282   6.843   9.785  0.7763 -1.0359 -0.0789
  876MOL0     C18129   2.317   6.916   9.675  0.1635 -0.5613 -0.1602
  876MOL0     C18130   2.437   6.914   9.617 -0.0096  0.2704  0.0727
  876MOL0     C18131   2.467   6.999   9.508  0.7868 -0.1632 -0.5460
  876MOL0     C18132   2.370   7.089   9.454 -0.5181  0.1947 -1.1120
  876MOL0     O18133   2.390   7.176   9.348 -0.0708  0.1713 -0.3382
  876MOL0     C18134   2.521   7.189   9.292  0.0970 -0.2898 -1.3626
  876MOL0     C18135   2.586   7.302   9.384  0.0508  0.6658 -0.0053
  876MOL0     C18136   2.711   7.355   9.317  0.1096 -0.3410  0.5508
  876MOL0     C18137   2.760   7.481   9.392 -0.1533 -0.2318  0.1513
  876MOL0     C18138   2.883   7.555   9.328  0.2346  0.8153  0.6999
  876MOL0     C18139   3.007   7.565   9.418 -0.3512  1.0435  0.3545
  876MOL0     C18140   2.997   7.659   9.541 -0.4480 -0.6078 -0.1256
  876MOL0     C18141   3.119   7.657   9.633  0.3724 -0.4116 -0.2139
  876MOL0     N18142   3.216   7.737   9.568 -0.0961 -0.0927  0.3904
  876MOL0     C18143   3.237   7.861   9.613  0.0956  0.0216 -0.2492
  876MOL0     C18144   3.346   7.906   9.545 -0.8595 -0.8905  0.4186
  876MOL0     C18145   3.428   8.033   9.548 -0.1186  0.0152 -0.2386
  876MOL0     C18146   3.462   8.082   9.687  0.5942 -0.0544 -0.2181
  876MOL0     C18147   3.565   8.006   9.773 -0.0991 -0.4270 -0.9755
  876MOL0     C18148   3.501   7.906   9.869  0.8941  0.4844  0.3914
  876MOL0     O18149   3.442   7.984   9.973  0.9406 -0.2178  0.1645
  876MOL0     C18150   3.499   7.999  10.096 -0.5717 -1.1972  0.5172
  876MOL0     C18151   3.427   8.066  10.189  0.2868 -0.7230 -0.0007
  876MOL0     C18152   3.477   8.097  10.316  0.4595  0.3404 -0.2691
  876MOL0     C18153   3.379   8.162  10.400 -0.2163  0.1795 -0.7266
  876MOL0     C18154   3.602   8.053  10.360 -0.1249  0.7832  0.8122
  876MOL0     C18155   3.664   8.097  10.485 -0.3869 -0.3015 -0.0669
  876MOL0     O18156   3.798   8.093  10.484  0.0293  0.1089 -0.3277
  876MOL0     C18157   3.862   8.191  10.562  0.0025 -0.3041  0.4551
  876MOL0     C18158   3.825   8.319  10.548  0.7263  1.0800  0.4652
  876MOL0     C18159   3.868   8.431  10.612 -0.0575 -0.2337 -0.2156
  876MOL0     C18160   3.979   8.413  10.696  0.3133 -0.7507 -1.0614
  876MOL0     O18161   4.036   8.525  10.755  0.7698  0.3083 -0.2086
  876MOL0     C18162   4.144   8.510  10.838  0.2186 -0.5774 -0.3547
  876MOL0     C18163   4.084   8.470  10.968 -0.1321  0.0617  0.4296
  876MOL0     C18164   4.185   8.426  11.072 -0.7525 -0.2504  0.9795
  876MOL0     C18165   4.130   8.436  11.215  0.2799  1.1127 -0.3518
  876MOL0     C18166   4.244   8.444  11.316  0.0618  0.6989  0.0778
  876MOL0     C18167   4.191   8.425  11.460  0.4246 -0.2990 -0.9146
  876MOL0     C18168   4.142   8.283  11.496  0.4675  0.1994 -0.2345
  876MOL0     C18169   4.093   8.269  11.640 -0.0655  0.2257 -0.0968
  876MOL0    Cl18170   4.220   8.278  11.762  0.5044 -0.5298  0.3563
  876MOL0     C18171   4.028   8.278  10.714 -0.6339 -0.3185  0.0276
  876MOL0     C18172   3.969   8.166  10.651  0.6670  0.2599  0.1771
  876MOL0     O18173   3.596   8.140  10.581 -0.2095 -0.1972  0.9306
  876MOL0     C18174   3.677   7.978  10.264  0.0878 -0.4427  1.2095
  876MOL0     C18175   3.628   7.957  10.134 -0.2076 -0.1108 -0.2245
  876MOL0     N18176   3.391   7.802   9.464 -0.0415 -0.2038  0.8054
  876MOL0     N18177   3.310   7.709   9.474 -0.4770 -0.0907  0.9571
  876MOL0     C18178   2.247   7.094   9.518 -0.8579  0.1017  0.1796
  876MOL0     C18179   2.225   7.014   9.626 -0.3724  0.3993  0.1907
  876MOL0     C18180   2.126   6.708   9.925  1.0453  0.3089 -0.2593
  876MOL0     C18181   2.221   6.715  10.033  0.3042 -0.9087 -0.1702
  876MOL0     C18182   2.216   6.632  10.145 -1.2923 -0.2939  0.7541
  876MOL0     C18183   2.106   6.550  10.163  0.0619  0.3425  0.6917
  876MOL0     O18184   2.057   6.497  10.274 -0.1756  0.0556  0.6163
  876MOL0     C18185   2.121   6.532  10.397  0.5084 -0.1060  0.5933
  876MOL0     C18186   2.234   6.437  10.427 -1.2994  0.0130 -0.0779
  876MOL0     C18187   2.180   6.293  10.443 -0.0530  0.1780  0.7895
  876MOL0     C18188   2.293   6.210  10.506  0.1769 -1.0884 -1.1843
  876MOL0     C18189   2.293   6.072  10.457 -1.0234  0.2165  1.0312
  876MOL0     C18190   2.291   5.966  10.396 -0.8542  0.4843 -0.6904
  876MOL0     C18191   2.004   6.563  10.073  0.5298  0.4712  0.4218
  876MOL0     C18192   2.013   6.620   9.948  0.0957 -0.2219  0.5202
  876MOL0     H18193   2.508   6.840   9.655 -0.6606  1.0053  2.9535
  876MOL0     H18194   2.567   7.003   9.467  0.5323 -0.5416 -1.2253
  876MOL0     H18195   2.579   7.097   9.300 -0.3984 -0.4304  2.2308
  876MOL0     H18196   2.526   7.233   9.192 -0.0742  1.2537 -0.7210
  876MOL0     H18197   2.521   7.385   9.412 -0.6897 -0.8116  3.0808
  876MOL0     H18198   2.612   7.259   9.481  2.5628  1.7724 -0.1148
  876MOL0     H18199   2.791   7.281   9.313  0.7945  0.4107 -0.0903
  876MOL0     H18200   2.683   7.369   9.212 -0.8614 -1.8980  0.5771
  876MOL0     H18201   2.679   7.555   9.400  1.0853  1.0038  2.0131
  876MOL0     H18202   2.790   7.446   9.492  3.5232 -0.0481 -0.7460
  876MOL0     H18203   2.909   7.492   9.243  1.1460  0.1313  1.4567
  876MOL0     H18204   2.860   7.652   9.284 -0.4889 -0.7176 -2.5394
  876MOL0     H18205   3.022   7.462   9.450 -1.1678  1.6443  2.9171
  876MOL0     H18206   3.100   7.586   9.365  0.1923 -4.2439 -1.2858
  876MOL0     H18207   2.993   7.766   9.516  0.4950 -0.5481 -0.0551
  876MOL0     H18208   2.905   7.642   9.599  0.2324  0.8530  1.5134
  876MOL0     H18209   3.164   7.557   9.644 -0.8513 -1.0849 -1.0841
  876MOL0     H18210   3.082   7.688   9.730 -2.0218 -0.6787 -0.9810
  876MOL0     H18211   3.186   7.926   9.684  1.3155  0.6959  0.0440
  876MOL0     H18212   3.522   8.010   9.497 -1.4732  0.9769 -3.3842
  876MOL0     H18213   3.378   8.114   9.495 -1.9368 -0.9682 -0.0853
  876MOL0     H18214   3.376   8.108   9.749  1.2789  2.6711 -0.3153
  876MOL0     H18215   3.506   8.178   9.662  1.7006 -1.0407 -2.3130
  876MOL0     H18216   3.606   8.069   9.853 -1.2870 -1.5222  0.5646
  876MOL0     H18217   3.644   7.957   9.715  0.0514  0.5163 -1.5859
  876MOL0     H18218   3.590   7.850   9.901  0.9304  0.5757  0.4495
  876MOL0     H18219   3.432   7.838   9.818  0.8207  0.4764  0.5002
  876MOL0     H18220   3.327   8.099  10.164 -0.2341 -2.6786 -0.6418
  876MOL0     H18221   3.282   8.158  10.350 -0.6339 -0.7249  0.1062
  876MOL0     H18222   3.376   8.107  10.495  2.4678  1.6984  0.3330
  876MOL0     H18223   3.404   8.266  10.424  0.7120  0.0992 -1.3124
  876MOL0     H18224   3.744   8.346  10.481  0.5603  2.2592  1.1083
  876MOL0     H18225   3.833   8.533  10.602  1.0223  0.0973 -0.8363
  876MOL0     H18226   4.215   8.430  10.815  0.1184 -0.9017  0.4524
  876MOL0     H18227   4.198   8.606  10.843  0.3218 -0.7127  1.9176
  876MOL0     H18228   4.038   8.562  11.005  3.3565  2.3434 -0.4618
  876MOL0     H18229   4.001   8.399  10.966 -1.1208  0.9761  3.6162
  876MOL0     H18230   4.269   8.495  11.065 -2.5651  2.0766  1.0296
  876MOL0     H18231   4.216   8.323  11.050  0.6410  0.1922  0.7974
  876MOL0     H18232   4.052   8.513  11.218 -0.3989  0.4813 -1.1321
  876MOL0     H18233   4.082   8.338  11.226  1.6663  0.6695  2.6631
  876MOL0     H18234   4.302   8.535  11.302 -0.9635  1.5199  0.9526
  876MOL0     H18235   4.318   8.364  11.303 -1.6571 -0.9122 -0.2687
  876MOL0     H18236   4.266   8.450  11.535 -0.5412 -2.2956  0.8167
  876MOL0     H18237   4.104   8.492  11.469 -0.2527 -1.2884  0.1862
  876MOL0     H18238   4.229   8.216  11.493  1.9447  1.9457  1.1766
  876MOL0     H18239   4.070   8.254  11.419 -0.6786 -2.2533  1.5871
  876MOL0     H18240   4.055   8.168  11.661  1.5956  0.2885  4.1815
  876MOL0     H18241   4.018   8.343  11.670  0.2745 -0.1321  1.7389
  876MOL0     H18242   4.115   8.253  10.773  0.7612  3.1287 -0.2774
  876MOL0     H18243   3.997   8.063  10.674  1.4361  0.1725 -1.0546
  876MOL0     H18244   3.779   7.957  10.294  2.5592  2.2020 -4.0310
  876MOL0     H18245   3.692   7.898  10.069 -1.4169 -0.8041 -0.8337
  876MOL0     H18246   2.180   7.171   9.481 -0.5093  0.7039  0.7733
  876MOL0     H18247   2.125   7.016   9.668 -0.7368 -2.3205 -0.3948
  876MOL0     H18248   2.292   6.794  10.013 -2.1908  1.2211 -1.2625
  876MOL0     H18249   2.295   6.638  10.220  3.9073 -2.7079 -3.7983
  876MOL0     H18250   2.154   6.636  10.391  1.7724 -0.5748 -2.2697
  876MOL0     H18251   2.036   6.525  10.466 -2.5728  3.6800 -2.2845
  876MOL0     H18252   2.284   6.472  10.517 -0.0473  1.2168 -1.1975
  876MOL0     H18253   2.311   6.434  10.349 -0.2843  0.0464  0.9072
  876MOL0     H18254   2.160   6.256  10.342  1.1375 -0.9448  0.9327
  876MOL0     H18255   2.096   6.274  10.510 -0.6780  1.1766  0.3212
  876MOL0     H18256   2.265   6.216  10.612 -1.1315  1.0136 -1.6038
  876MOL0     H18257   2.391   6.259  10.501 -0.9210  1.3915 -0.0241
  876MOL0     H18258   2.275   5.880  10.334  0.2198  0.3656 -0.8249
  876MOL0     H18259   1.923   6.494  10.097  2.0034 -1.3829  0.2732
  876MOL0     H18260   1.932   6.599   9.878 -1.2228 -0.4353  2.0368
  877MOL0     O18261   5.730  11.429   3.028 -0.7037  0.1299  0.5827
  877MOL0     C18262   5.789  11.345   3.109  0.7067  0.1983 -0.3520
  877MOL0     O18263   5.833  11.222   3.072 -0.7148 -0.5590 -0.6363
  877MOL0     C18264   5.813  11.186   2.940 -0.6238 -0.2442 -0.4869
  877MOL0     C18265   5.681  11.136   2.909  0.5195  1.1200 -0.5018
  877MOL0     C18266   5.657  11.089   2.780 -0.4378 -0.1145 -0.3737
  877MOL0     C18267   5.761  11.085   2.689 -0.0274 -0.1742  1.0898
  877MOL0     O18268   5.755  11.024   2.559 -0.2882 -0.1500 -0.4855
  877MOL0     C18269   5.640  10.954   2.514  0.0699 -0.3044  0.3928
  877MOL0     C18270   5.637  10.942   2.357  0.8279  0.7085  0.4959
  877MOL0     C18271   5.494  10.974   2.320 -0.3455 -0.5427 -1.0753
  877MOL0     C18272   5.462  10.968   2.169  1.6121  0.4363  0.0550
  877MOL0     C18273   5.330  11.045   2.152  1.2625 -0.3071  0.1282
  877MOL0     C18274   5.216  10.985   2.238 -0.1185  0.3331  0.2119
  877MOL0     C18275   5.086  11.059   2.206 -0.1131 -0.1352  0.9546
  877MOL0     C18276   5.017  11.019   2.072 -0.6135 -0.6458 -0.4315
  877MOL0     N18277   4.958  10.889   2.057  0.2835  0.3326 -0.3323
  877MOL0     C18278   4.889  10.853   1.938 -0.1681 -0.0806 -0.0304
  877MOL0     C18279   4.858  10.723   1.950  0.7913 -0.0410  0.0614
  877MOL0     C18280   4.791  10.639   1.844  0.4547 -0.1960  0.1196
  877MOL0     C18281   4.907  10.573   1.765  0.7777 -0.6533 -0.1831
  877MOL0     C18282   4.838  10.481   1.662  0.5242 -0.1929 -0.5651
  877MOL0     C18283   4.926  10.413   1.569  0.0626  0.2435 -0.6737
  877MOL0     O18284   4.984  10.499   1.474 -0.1438 -0.6844  0.1505
  877MOL0     C18285   5.069  10.436   1.388  0.2246 -1.5239  0.5061
  877MOL0     C18286   5.025  10.391   1.268  0.0591  0.5345  0.1133
  877MOL0     C18287   5.107  10.333   1.169  0.6080  0.2061 -0.2693
  877MOL0     C18288   5.039  10.287   1.042  0.1319  0.2699  0.4469
  877MOL0     C18289   5.248  10.323   1.192 -0.7362 -0.5772  0.4650
  877MOL0     C18290   5.349  10.293   1.087  0.5329  0.3549 -0.3342
  877MOL0     O18291   5.470  10.344   1.107  0.1996  0.4681  0.1258
  877MOL0     C18292   5.566  10.308   1.013 -0.4000  0.3555  0.3005
  877MOL0     C18293   5.553  10.324   0.876 -0.0312 -0.3346 -0.7048
  877MOL0     C18294   5.652  10.277   0.783 -0.2534 -0.3557 -0.2380
  877MOL0     C18295   5.769  10.222   0.844 -0.2280  0.1498 -0.6670
  877MOL0     O18296   5.873  10.168   0.765 -0.1677  0.4699  0.5400
  877MOL0     C18297   5.915  10.258   0.652  0.5856 -0.5579 -0.8159
  877MOL0     C18298   5.893  10.185   0.519  0.5633  1.7325  0.0972
  877MOL0     C18299   5.935  10.040   0.527 -0.3135 -0.3492  1.1600
  877MOL0     C18300   5.930   9.970   0.391 -0.3115  0.3778  1.1321
  877MOL0     C18301   5.981   9.831   0.399 -0.3008  0.3761  0.5318
  877MOL0     C18302   5.937   9.767   0.267 -0.3481 -0.7363 -0.3590
  877MOL0     C18303   5.952   9.615   0.267 -0.3790  0.2039 -0.1223
  877MOL0     C18304   5.919   9.531   0.142  0.4744 -0.1312  0.0664
  877MOL0    Cl18305   5.968   9.354   0.163 -0.3731  0.0692 -0.2879
  877MOL0     C18306   5.790  10.210   0.981 -0.2133 -0.0221 -0.0136
  877MOL0     C18307   5.681  10.255   1.059 -0.0895 -0.3995 -0.6697
  877MOL0     O18308   5.313  10.216   1.000 -0.5834  1.1323 -0.4026
  877MOL0     C18309   5.285  10.373   1.321 -0.1100  0.5085  0.6182
  877MOL0     C18310   5.203  10.431   1.415 -0.2322  0.0342  0.6081
  877MOL0     N18311   4.908  10.685   2.076  0.7140  0.0460 -0.3412
  877MOL0     N18312   4.963  10.783   2.133 -0.1030 -0.6578 -0.3920
  877MOL0     C18313   5.893  11.118   2.731  0.0812  0.8077  0.0122
  877MOL0     C18314   5.927  11.165   2.854 -0.2515 -0.7973  1.0903
  877MOL0     C18315   5.802  11.383   3.257  0.3382 -0.0275 -0.0376
  877MOL0     C18316   5.839  11.280   3.355  0.2784 -0.3811 -0.1027
  877MOL0     C18317   5.861  11.320   3.492 -0.1362  1.1367  0.5850
  877MOL0     C18318   5.812  11.443   3.538 -0.3623 -0.1437 -0.0371
  877MOL0     O18319   5.824  11.466   3.676  0.0641  0.1257 -0.7181
  877MOL0     C18320   5.785  11.600   3.715 -1.1985  0.0402 -0.2296
  877MOL0     C18321   5.750  11.614   3.863 -0.1450  0.0593 -0.9474
  877MOL0     C18322   5.610  11.554   3.903  0.6584 -0.9678 -0.7599
  877MOL0     C18323   5.617  11.398   3.895 -0.2792 -0.3273 -0.6609
  877MOL0     C18324   5.501  11.338   3.957  0.4243  0.1898  0.8665
  877MOL0     C18325   5.400  11.288   3.986  0.6067  0.2993 -0.3319
  877MOL0     C18326   5.765  11.533   3.439 -0.3351  0.8313 -0.8968
  877MOL0     C18327   5.776  11.513   3.302 -0.7092  0.2120 -0.0369
  877MOL0     H18328   5.609  11.131   2.990  0.3418 -1.3987 -0.7347
  877MOL0     H18329   5.560  11.050   2.754 -1.9710  0.5420  3.6148
  877MOL0     H18330   5.636  10.861   2.570 -2.0904 -0.3210  0.2683
  877MOL0     H18331   5.555  11.015   2.544  0.1182 -0.6731  1.3043
  877MOL0     H18332   5.717  10.999   2.308 -0.8721  4.3600  1.5818
  877MOL0     H18333   5.648  10.838   2.327 -2.2034  0.3400  0.4302
  877MOL0     H18334   5.438  10.891   2.363 -0.3162 -0.9471 -1.8108
  877MOL0     H18335   5.472  11.077   2.350 -1.7193 -0.7712 -1.2364
  877MOL0     H18336   5.533  11.024   2.107  2.0048  0.3166  0.3967
  877MOL0     H18337   5.438  10.864   2.146 -1.4560  0.4783  2.4214
  877MOL0     H18338   5.345  11.148   2.186 -0.3827 -0.3872  1.2155
  877MOL0     H18339   5.289  11.055   2.051 -1.8909  3.5906  1.5382
  877MOL0     H18340   5.206  10.876   2.234 -3.3055  0.5369 -4.0109
  877MOL0     H18341   5.230  10.999   2.346  1.3265 -3.6921  0.7041
  877MOL0     H18342   5.014  11.038   2.286 -1.4744  2.8225  0.6016
  877MOL0     H18343   5.108  11.165   2.220  0.9838 -0.3897  1.2680
  877MOL0     H18344   5.094  11.022   1.994 -0.7806 -1.5119 -0.6390
  877MOL0     H18345   4.937  11.092   2.051 -0.3384 -0.0852  0.4389
  877MOL0     H18346   4.868  10.918   1.854 -1.7279 -0.7027 -0.1585
  877MOL0     H18347   4.723  10.570   1.894  0.7454  1.3926  2.9391
  877MOL0     H18348   4.732  10.705   1.779  0.4447 -1.8147 -1.5816
  877MOL0     H18349   4.977  10.521   1.832  2.1588 -1.3175 -2.0457
  877MOL0     H18350   4.967  10.652   1.718 -0.3273  0.6905  0.5812
  877MOL0     H18351   4.759  10.537   1.612  1.0855  0.2996 -0.9271
  877MOL0     H18352   4.782  10.413   1.726  1.6106 -0.6876 -0.1036
  877MOL0     H18353   4.861  10.337   1.523 -1.1140  0.6678  0.2266
  877MOL0     H18354   5.013  10.364   1.611 -0.5348  0.1890  0.5252
  877MOL0     H18355   4.917  10.404   1.262  0.2539  3.9634  1.5501
  877MOL0     H18356   4.935  10.321   1.032  0.7440  1.5729 -2.8547
  877MOL0     H18357   5.092  10.324   0.954  1.5444 -3.1585 -0.3079
  877MOL0     H18358   5.045  10.178   1.036  2.2309  0.3841 -0.3485
  877MOL0     H18359   5.463  10.380   0.851 -0.2657  1.7995  3.8275
  877MOL0     H18360   5.638  10.299   0.677  1.8219  0.7690 -0.3292
  877MOL0     H18361   5.853  10.348   0.650 -0.5491 -1.3311 -2.0532
  877MOL0     H18362   6.018  10.292   0.662 -0.0928  0.8562  2.9520
  877MOL0     H18363   5.788  10.181   0.491  0.7030  0.8721 -0.3263
  877MOL0     H18364   5.960  10.232   0.446  2.8690 -1.2471  0.0919
  877MOL0     H18365   5.865   9.999   0.600 -1.4498  1.5776  1.2017
  877MOL0     H18366   6.031  10.031   0.580  0.5929 -2.4042 -0.6623
  877MOL0     H18367   5.826   9.978   0.358 -0.7991  0.6776  2.6578
  877MOL0     H18368   5.987  10.030   0.320 -1.4504 -0.6393 -0.7053
  877MOL0     H18369   5.939   9.780   0.486  1.5353  2.7701  3.0017
  877MOL0     H18370   6.090   9.828   0.409 -0.0987 -1.0070 -1.4611
  877MOL0     H18371   5.831   9.794   0.263 -2.0145 -5.9877  0.6897
  877MOL0     H18372   6.001   9.808   0.188  1.2549  0.4095  1.4632
  877MOL0     H18373   5.901   9.571   0.353  0.0072 -0.9924 -0.4969
  877MOL0     H18374   6.061   9.603   0.273 -0.1943  1.4563 -0.5202
  877MOL0     H18375   5.988   9.570   0.067 -0.4543  2.2613  0.3843
  877MOL0     H18376   5.814   9.545   0.117  0.6807  1.7246  0.1237
  877MOL0     H18377   5.877  10.158   1.019 -0.4361  0.3227  1.0264
  877MOL0     H18378   5.682  10.243   1.167 -0.5198  0.2917 -0.5832
  877MOL0     H18379   5.393  10.374   1.333 -0.0914  0.7347  0.4425
  877MOL0     H18380   5.248  10.471   1.505 -2.0106  2.0749  0.6602
  877MOL0     H18381   5.975  11.100   2.664  1.4869 -0.8674  2.0579
  877MOL0     H18382   6.027  11.194   2.884 -0.3948  1.9098 -0.6825
  877MOL0     H18383   5.862  11.179   3.325 -1.0386 -0.8869  0.5166
  877MOL0     H18384   5.920  11.254   3.555  2.1511  2.1838 -0.3058
  877MOL0     H18385   5.882  11.649   3.702 -0.3366 -1.6727 -0.5749
  877MOL0     H18386   5.707  11.653   3.661 -0.3619 -0.1425 -1.6742
  877MOL0     H18387   5.752  11.719   3.892 -4.6619  0.3152 -0.9396
  877MOL0     H18388   5.827  11.563   3.923  0.8085  2.2632 -0.1679
  877MOL0     H18389   5.527  11.592   3.843  1.3609  0.2882 -0.9621
  877MOL0     H18390   5.590  11.591   4.005  0.6799  1.2159 -1.4903
  877MOL0     H18391   5.702  11.363   3.954  0.8661  1.2129 -1.3382
  877MOL0     H18392   5.625  11.356   3.794 -0.6819 -0.0103 -0.8300
  877MOL0     H18393   5.327  11.216   4.019  2.3561 -1.0532  0.8022
  877MOL0     H18394   5.735  11.635   3.462  1.9746  2.6062 -4.7388
  877MOL0     H18395   5.761  11.582   3.220 -3.0385 -0.6926 -0.4357
  878MOL0     O18396   9.308   8.197   4.630  0.9011  0.7556 -0.2853
  878MOL0     C18397   9.193   8.207   4.677  0.4293  0.7044  1.8911
  878MOL0     O18398   9.074   8.199   4.604 -0.3749  0.3922  0.2416
  878MOL0     C18399   9.081   8.164   4.472 -0.6910 -0.2955 -1.1791
  878MOL0     C18400   9.180   8.202   4.379 -0.3487  0.5725  0.0887
  878MOL0     C18401   9.161   8.179   4.239  0.8878  0.0861 -1.1334
  878MOL0     C18402   9.058   8.096   4.199 -0.2721 -0.3177 -0.1369
  878MOL0     O18403   9.053   8.087   4.059  1.5265  0.7792 -0.8101
  878MOL0     C18404   9.020   7.950   4.013  0.5092 -0.4037 -0.2313
  878MOL0     C18405   9.123   7.843   4.062  0.2521 -0.5274 -0.5545
  878MOL0     C18406   9.271   7.879   4.012  0.2972  0.6584 -1.2284
  878MOL0     C18407   9.277   7.871   3.862  0.0967  0.3782 -0.2274
  878MOL0     C18408   9.425   7.861   3.815 -0.0539 -1.1902 -1.0804
  878MOL0     C18409   9.517   7.977   3.853 -0.5950  0.4959 -0.8953
  878MOL0     C18410   9.473   8.105   3.790  0.4951  0.0081 -0.5367
  878MOL0     C18411   9.585   8.214   3.828  0.7371 -0.3984 -0.0045
  878MOL0     N18412   9.580   8.325   3.733  0.7141 -0.7459 -0.9847
  878MOL0     C18413   9.473   8.380   3.673 -0.4473 -0.4233 -0.7017
  878MOL0     C18414   9.525   8.479   3.588 -0.6473 -0.2636 -0.3152
  878MOL0     C18415   9.455   8.582   3.500  0.3593  0.0237 -0.0986
  878MOL0     C18416   9.316   8.533   3.452 -1.2960  0.4168  0.1544
  878MOL0     C18417   9.316   8.412   3.359 -0.1511  0.4634  0.1670
  878MOL0     C18418   9.174   8.377   3.308 -0.6215 -0.5129  0.2266
  878MOL0     O18419   9.175   8.272   3.208 -0.5191 -0.0178  0.1164
  878MOL0     C18420   9.128   8.148   3.238 -0.7064  0.9165 -0.7498
  878MOL0     C18421   9.132   8.089   3.369  1.4351  0.4173  0.0809
  878MOL0     C18422   9.056   7.972   3.406 -0.7723 -0.0840  0.0343
  878MOL0     C18423   9.065   7.919   3.549 -0.7789 -0.7550  0.2225
  878MOL0     C18424   8.991   7.899   3.306  0.0712  0.6231 -0.0862
  878MOL0     C18425   8.903   7.782   3.322  0.5424  0.2773 -0.1759
  878MOL0     O18426   8.841   7.730   3.211  0.0930  0.0668  0.0008
  878MOL0     C18427   8.773   7.611   3.188 -0.3508 -0.3638  0.3038
  878MOL0     C18428   8.775   7.508   3.285  0.6840  0.3951  0.3521
  878MOL0     C18429   8.710   7.389   3.261 -0.3624  0.0156  0.2608
  878MOL0     C18430   8.626   7.378   3.145  1.1707 -0.3946 -0.1265
  878MOL0     O18431   8.559   7.265   3.119  0.1179  0.3136  1.1066
  878MOL0     C18432   8.437   7.246   3.184 -0.1205 -0.0399 -0.5772
  878MOL0     C18433   8.391   7.102   3.191 -0.3422 -0.3408 -0.2160
  878MOL0     C18434   8.473   7.016   3.282 -0.6536  0.7721  0.0817
  878MOL0     C18435   8.405   6.880   3.317 -0.6812 -0.4762  0.3050
  878MOL0     C18436   8.438   6.833   3.455 -0.0551  0.4274  0.1937
  878MOL0     C18437   8.591   6.812   3.480 -1.0488  0.1745  0.0507
  878MOL0     C18438   8.642   6.705   3.381 -1.3247  0.5315  0.5395
  878MOL0     C18439   8.788   6.671   3.408 -0.5134  0.4085 -0.1550
  878MOL0    Cl18440   8.830   6.612   3.556  0.3488 -0.7193 -0.1889
  878MOL0     C18441   8.616   7.481   3.056  0.2517  0.3462 -0.6915
  878MOL0     C18442   8.698   7.591   3.072 -0.2303  0.0445 -0.8011
  878MOL0     O18443   8.889   7.737   3.433  0.4478 -0.5367 -0.5704
  878MOL0     C18444   8.985   7.954   3.175 -0.8073 -0.4415 -0.7031
  878MOL0     C18445   9.053   8.074   3.149  0.8724  0.8867  0.0176
  878MOL0     N18446   9.662   8.460   3.583 -0.9021 -0.3236  0.3409
  878MOL0     N18447   9.693   8.360   3.666 -0.8931 -0.5846 -0.5551
  878MOL0     C18448   8.958   8.056   4.291  0.5273 -0.8355 -0.0391
  878MOL0     C18449   8.970   8.096   4.428 -0.2817 -0.3542  0.0553
  878MOL0     C18450   9.170   8.232   4.825 -0.5598 -0.9435 -0.2217
  878MOL0     C18451   9.284   8.223   4.917  1.1472  0.3587  0.1668
  878MOL0     C18452   9.260   8.255   5.053 -0.1243 -0.3141  0.3613
  878MOL0     C18453   9.137   8.303   5.095  0.2379  0.4770  0.1526
  878MOL0     O18454   9.111   8.334   5.233  0.1084  0.3342 -0.0243
  878MOL0     C18455   9.211   8.367   5.332  0.3269 -0.3962 -0.1875
  878MOL0     C18456   9.291   8.496   5.295  0.0017 -0.2724  0.3246
  878MOL0     C18457   9.192   8.618   5.313  0.3554 -0.5761 -0.1395
  878MOL0     C18458   9.212   8.717   5.418 -0.0678 -0.5235 -0.2226
  878MOL0     C18459   9.190   8.657   5.547  0.2099  0.0581  0.1546
  878MOL0     C18460   9.163   8.591   5.640  0.1826  0.7844 -0.3674
  878MOL0     C18461   9.034   8.318   5.010 -0.1484  1.2327 -1.3400
  878MOL0     C18462   9.044   8.266   4.887 -0.3731  0.4121 -0.4232
  878MOL0     H18463   9.259   8.273   4.401  0.0163  0.4578 -0.8193
  878MOL0     H18464   9.229   8.241   4.181  2.2496 -0.8836 -0.6256
  878MOL0     H18465   8.919   7.929   4.051 -1.1065  1.4766 -3.1034
  878MOL0     H18466   9.001   7.947   3.905 -1.0879 -0.8492  0.0243
  878MOL0     H18467   9.119   7.846   4.171  0.1176 -0.8658 -0.5480
  878MOL0     H18468   9.083   7.744   4.040  0.0450 -0.8466  1.0915
  878MOL0     H18469   9.289   7.979   4.052 -0.6022  0.8388 -1.2626
  878MOL0     H18470   9.336   7.804   4.059 -0.8638 -0.7524 -1.7666
  878MOL0     H18471   9.219   7.788   3.823 -2.0528  0.8669  1.7065
  878MOL0     H18472   9.222   7.958   3.825 -2.8269  0.4076  3.5317
  878MOL0     H18473   9.469   7.769   3.854 -0.3014 -1.3999 -1.2955
  878MOL0     H18474   9.427   7.852   3.706  0.5842 -1.6779 -1.0297
  878MOL0     H18475   9.521   7.995   3.961  2.2389  1.3155 -1.0384
  878MOL0     H18476   9.619   7.948   3.824 -0.1833 -4.2618  3.8031
  878MOL0     H18477   9.474   8.085   3.682  0.0243  1.6514 -0.8640
  878MOL0     H18478   9.377   8.136   3.831  0.3038 -1.4652  0.2001
  878MOL0     H18479   9.689   8.179   3.829  1.1484  0.6836 -1.5081
  878MOL0     H18480   9.574   8.245   3.932  4.5199 -3.0759  1.4332
  878MOL0     H18481   9.367   8.364   3.691 -0.0262 -0.1402  2.7888
  878MOL0     H18482   9.440   8.675   3.555  2.4885 -1.4315  3.2702
  878MOL0     H18483   9.519   8.609   3.415  2.3251  2.9639  2.1088
  878MOL0     H18484   9.266   8.621   3.411 -0.4572  2.5009  3.1760
  878MOL0     H18485   9.253   8.500   3.536 -0.0508 -0.3459  0.8212
  878MOL0     H18486   9.360   8.318   3.394  1.4388 -0.3984 -3.6014
  878MOL0     H18487   9.384   8.436   3.277  2.1509  2.5648  2.5077
  878MOL0     H18488   9.128   8.455   3.247 -0.7298 -1.7363 -1.3232
  878MOL0     H18489   9.114   8.355   3.397  0.2766  0.6194  1.1399
  878MOL0     H18490   9.202   8.132   3.440  0.4895 -0.1649  1.4270
  878MOL0     H18491   9.100   7.815   3.544 -0.3674 -0.6231  0.2925
  878MOL0     H18492   9.141   7.976   3.604  1.8510 -1.0319 -2.8656
  878MOL0     H18493   8.965   7.918   3.593 -2.2511 -1.4795 -2.8750
  878MOL0     H18494   8.835   7.510   3.376 -1.4972  1.9203  1.8564
  878MOL0     H18495   8.723   7.308   3.332  1.8600  0.6638  0.6563
  878MOL0     H18496   8.452   7.264   3.291 -0.8388  3.5799 -0.9762
  878MOL0     H18497   8.362   7.313   3.141  0.2459 -0.8227 -2.5552
  878MOL0     H18498   8.286   7.105   3.220  0.1606 -1.8846  2.0847
  878MOL0     H18499   8.419   7.047   3.101  1.3623  0.5882 -0.2987
  878MOL0     H18500   8.492   7.064   3.379 -1.1830  1.0608  0.0507
  878MOL0     H18501   8.569   6.998   3.235 -2.7720 -3.0416 -3.3624
  878MOL0     H18502   8.296   6.889   3.316 -0.6796 -0.3987  0.8623
  878MOL0     H18503   8.422   6.799   3.245 -2.8871 -1.7715  1.1622
  878MOL0     H18504   8.392   6.736   3.477  1.2459 -0.2736 -0.1000
  878MOL0     H18505   8.391   6.908   3.520 -1.4657  0.4917 -0.8500
  878MOL0     H18506   8.657   6.899   3.474  3.0231 -2.7185 -0.9706
  878MOL0     H18507   8.594   6.779   3.584 -1.2341 -0.8238 -0.2490
  878MOL0     H18508   8.650   6.734   3.275 -0.7861 -1.2988  0.0341
  878MOL0     H18509   8.589   6.609   3.384  0.4341 -0.6138 -1.4703
  878MOL0     H18510   8.848   6.763   3.401  0.8154 -0.4138  0.0928
  878MOL0     H18511   8.811   6.591   3.337 -2.3593 -0.4379  0.1498
  878MOL0     H18512   8.573   7.477   2.957  1.6529 -2.3456 -1.2797
  878MOL0     H18513   8.681   7.668   2.998 -0.8419 -0.5978 -1.3530
  878MOL0     H18514   8.927   7.914   3.092  0.9231 -2.6698 -0.9393
  878MOL0     H18515   9.059   8.123   3.053  2.7166  0.0310 -0.3406
  878MOL0     H18516   8.876   7.995   4.257  0.2032 -0.4050 -0.0358
  878MOL0     H18517   8.883   8.060   4.483  1.0029  0.2152  2.6201
  878MOL0     H18518   9.384   8.206   4.879  0.5390 -0.5299 -1.1173
  878MOL0     H18519   9.341   8.242   5.124 -0.2602  1.5012  0.8964
  878MOL0     H18520   9.164   8.382   5.430 -0.9424  2.1288 -1.0811
  878MOL0     H18521   9.277   8.280   5.327 -1.4960 -1.7651 -1.2771
  878MOL0     H18522   9.329   8.478   5.194  2.4681  1.9756  0.7431
  878MOL0     H18523   9.371   8.523   5.365  0.4667  2.3548 -1.0782
  878MOL0     H18524   9.085   8.598   5.320  0.2012  0.7937  2.8306
  878MOL0     H18525   9.196   8.674   5.219  3.5041  1.3676  1.0145
  878MOL0     H18526   9.141   8.797   5.400 -0.5007 -1.1261 -1.2598
  878MOL0     H18527   9.312   8.763   5.417 -0.6137  0.7961  1.4574
  878MOL0     H18528   9.141   8.539   5.731 -0.8589  0.1223 -0.9651
  878MOL0     H18529   8.938   8.346   5.051 -0.4420 -0.8898 -0.4642
  878MOL0     H18530   8.966   8.273   4.811 -0.3357  1.0770 -0.4028
  879MOL0     O18531   9.378   8.083   0.401  0.3238 -0.2887  0.0165
  879MOL0     C18532   9.350   8.201   0.414  1.3835  0.2042  1.0993
  879MOL0     O18533   9.223   8.253   0.441 -0.0862  0.1129  0.3519
  879MOL0     C18534   9.107   8.169   0.432  0.8502  0.2973  0.1096
  879MOL0     C18535   8.986   8.215   0.500 -0.5703  0.2374 -0.7048
  879MOL0     C18536   8.868   8.145   0.497  0.4533 -0.1730 -0.1725
  879MOL0     C18537   8.855   8.020   0.429 -0.6403 -0.0705  0.5174
  879MOL0     O18538   8.735   7.956   0.435 -0.3629 -0.5367  0.6172
  879MOL0     C18539   8.682   7.931   0.302  0.6753 -0.5619 -0.3488
  879MOL0     C18540   8.645   7.782   0.295 -0.2519  0.8883 -0.2429
  879MOL0     C18541   8.615   7.738   0.148 -0.0789 -0.3144 -1.3919
  879MOL0     C18542   8.539   7.836   0.057  0.1862 -0.1383  0.2404
  879MOL0     C18543   8.447   7.761  -0.044 -0.3946 -0.3098  0.1653
  879MOL0     C18544   8.323   7.681  -0.012 -0.6554 -0.0959  0.1964
  879MOL0     C18545   8.207   7.759   0.059  0.2767 -1.3564 -0.4929
  879MOL0     C18546   8.160   7.886  -0.000 -0.7957  0.4553  0.3446
  879MOL0     N18547   8.056   7.952   0.065  0.6551  0.2832  0.1549
  879MOL0     C18548   7.925   7.902   0.066 -1.3935  0.3279  0.8289
  879MOL0     C18549   7.858   7.998   0.138  0.8874 -0.3665  0.5536
  879MOL0     C18550   7.708   7.977   0.169 -0.7957 -0.1587  0.3324
  879MOL0     C18551   7.702   7.870   0.278  0.9873 -0.0346 -0.0108
  879MOL0     C18552   7.564   7.852   0.344  0.1805  1.2152 -0.7937
  879MOL0     C18553   7.528   7.942   0.472 -0.7919 -0.0340  0.2164
  879MOL0     O18554   7.393   7.920   0.509 -0.0782  0.1373  0.2721
  879MOL0     C18555   7.299   8.005   0.451  0.2788  0.2560  0.2098
  879MOL0     C18556   7.198   8.042   0.534 -0.0892 -1.1500 -0.0450
  879MOL0     C18557   7.101   8.137   0.507 -0.4502  0.1935  1.1397
  879MOL0     C18558   6.994   8.165   0.611  0.0442 -0.8695 -0.4745
  879MOL0     C18559   7.112   8.205   0.388 -0.5826 -0.7432  0.8664
  879MOL0     C18560   7.039   8.332   0.353 -0.5174 -0.7265 -0.4475
  879MOL0     O18561   6.978   8.404   0.457  0.0046  0.3065 -0.0805
  879MOL0     C18562   6.889   8.504   0.433  0.6270 -0.4593 -0.5893
  879MOL0     C18563   6.821   8.533   0.303  0.9193 -0.6528 -0.1667
  879MOL0     C18564   6.723   8.645   0.294  0.0330  1.7736  0.1058
  879MOL0     C18565   6.680   8.696   0.416  0.0455 -0.3923  0.2377
  879MOL0     O18566   6.561   8.758   0.415  0.2318 -0.4543 -0.8835
  879MOL0     C18567   6.509   8.832   0.531  0.0411  0.6973 -0.5703
  879MOL0     C18568   6.404   8.928   0.486  0.7527 -0.0136 -0.8799
  879MOL0     C18569   6.335   8.980   0.619 -0.0834 -0.3972 -0.1413
  879MOL0     C18570   6.219   9.081   0.593  0.9966  0.6038 -0.0557
  879MOL0     C18571   6.096   9.011   0.519  0.5662  0.0725 -0.0138
  879MOL0     C18572   5.980   9.105   0.474  0.4982 -0.3395  0.6996
  879MOL0     C18573   5.870   9.027   0.388 -0.3084  0.5161 -0.7861
  879MOL0     C18574   5.900   8.969   0.246  0.0078  0.4936 -0.6603
  879MOL0    Cl18575   5.774   8.837   0.205  0.1967 -0.0926 -0.3635
  879MOL0     C18576   6.748   8.674   0.534  0.8912  0.2085 -0.0533
  879MOL0     C18577   6.849   8.579   0.542  0.8597 -0.6923 -1.6539
  879MOL0     O18578   7.038   8.360   0.239  0.5104  0.1420 -0.5102
  879MOL0     C18579   7.216   8.167   0.299  0.7009 -1.1354  0.4881
  879MOL0     C18580   7.314   8.069   0.323 -0.6840  0.6245 -0.6643
  879MOL0     N18581   7.934   8.104   0.174 -0.5627  1.0389  0.1557
  879MOL0     N18582   8.055   8.075   0.129  0.1274  0.0288  0.4332
  879MOL0     C18583   8.968   7.970   0.375 -0.7296 -0.6446 -0.0220
  879MOL0     C18584   9.092   8.039   0.360  0.5022  0.2875 -0.5895
  879MOL0     C18585   9.451   8.306   0.418 -0.2910 -0.2817 -0.6125
  879MOL0     C18586   9.417   8.442   0.400 -0.7909  0.2824  0.1518
  879MOL0     C18587   9.525   8.535   0.391  1.1186  1.7838  0.2974
  879MOL0     C18588   9.655   8.498   0.397  0.1399  0.7676 -0.5730
  879MOL0     O18589   9.761   8.587   0.386 -0.0418  0.3047 -0.1876
  879MOL0     C18590   9.779   8.636   0.254  0.1407 -0.3573  1.1234
  879MOL0     C18591   9.846   8.777   0.251  0.4797 -0.1869 -0.2307
  879MOL0     C18592   9.759   8.885   0.321  0.0301  0.8126  0.3649
  879MOL0     C18593   9.622   8.918   0.265 -0.6970  0.2739  0.0149
  879MOL0     C18594   9.565   9.038   0.323  0.4070  0.5048  0.0114
  879MOL0     C18595   9.500   9.134   0.361  0.5020  0.0473 -0.3770
  879MOL0     C18596   9.683   8.365   0.437  0.3037  0.2075 -0.5190
  879MOL0     C18597   9.586   8.267   0.443  0.3022 -0.0480 -0.5405
  879MOL0     H18598   8.982   8.299   0.569 -3.0402 -2.1962  2.4153
  879MOL0     H18599   8.783   8.171   0.560 -0.6760 -0.8882 -1.3501
  879MOL0     H18600   8.598   8.000   0.286  0.9706 -0.3586 -1.0564
  879MOL0     H18601   8.754   7.948   0.222 -0.3797  1.1608 -1.0103
  879MOL0     H18602   8.733   7.722   0.319 -2.3044 -3.4037 -2.1987
  879MOL0     H18603   8.556   7.752   0.351  0.5920 -2.6461 -0.5149
  879MOL0     H18604   8.702   7.720   0.083  0.6891 -0.1478 -0.4269
  879MOL0     H18605   8.564   7.641   0.150 -0.5959 -0.0468 -1.5365
  879MOL0     H18606   8.478   7.886   0.132  1.9498 -0.4015  1.9266
  879MOL0     H18607   8.612   7.897   0.004 -1.9107  0.0647 -2.6607
  879MOL0     H18608   8.421   7.830  -0.124  1.4547 -1.1438 -1.2294
  879MOL0     H18609   8.512   7.689  -0.095  0.3611  0.6328 -0.2260
  879MOL0     H18610   8.276   7.639  -0.101 -0.1356 -1.0908  0.3809
  879MOL0     H18611   8.359   7.601   0.053 -2.2575 -3.5087 -2.7801
  879MOL0     H18612   8.116   7.701   0.072  0.1470 -1.3393 -1.2763
  879MOL0     H18613   8.234   7.786   0.162 -0.7730 -1.1821 -0.2562
  879MOL0     H18614   8.112   7.858  -0.094 -0.0599 -0.2925  0.1706
  879MOL0     H18615   8.247   7.949  -0.022 -2.4061  3.6189  2.3305
  879MOL0     H18616   7.888   7.811   0.019  3.8365 -1.4556 -0.5198
  879MOL0     H18617   7.666   8.074   0.193 -1.8274 -0.4911 -0.0681
  879MOL0     H18618   7.661   7.937   0.079 -1.1949 -0.0299  0.4845
  879MOL0     H18619   7.775   7.886   0.358  2.4588  2.2250 -1.6672
  879MOL0     H18620   7.735   7.775   0.236  0.7489 -0.2382  0.2526
  879MOL0     H18621   7.559   7.745   0.366 -0.6829  1.1027 -1.4539
  879MOL0     H18622   7.496   7.862   0.259  1.5194  0.1502 -2.0554
  879MOL0     H18623   7.552   8.042   0.435 -1.4328 -0.1119 -0.4392
  879MOL0     H18624   7.602   7.919   0.549  0.0494  1.4366 -0.0974
  879MOL0     H18625   7.186   8.011   0.638 -0.0848  0.3395  0.4136
  879MOL0     H18626   6.897   8.205   0.580  0.0388 -1.5982 -1.4508
  879MOL0     H18627   6.976   8.080   0.678  1.8813 -0.7345  0.2526
  879MOL0     H18628   7.045   8.235   0.677 -2.7200  2.7203 -1.7991
  879MOL0     H18629   6.838   8.482   0.209 -0.3715  1.5558 -1.6887
  879MOL0     H18630   6.678   8.666   0.197 -2.0847 -1.0036  0.3598
  879MOL0     H18631   6.471   8.763   0.607 -3.1841  3.3533  0.4716
  879MOL0     H18632   6.592   8.887   0.578 -0.8596 -0.2137  2.3261
  879MOL0     H18633   6.444   9.018   0.439 -0.0412  0.2949 -0.9698
  879MOL0     H18634   6.342   8.880   0.409  1.1552 -0.2409 -1.0663
  879MOL0     H18635   6.410   9.036   0.676 -0.6678 -0.3337  0.5838
  879MOL0     H18636   6.300   8.894   0.676  1.0751 -2.9340 -2.9976
  879MOL0     H18637   6.195   9.124   0.691 -1.2709  0.0280 -0.3143
  879MOL0     H18638   6.252   9.157   0.521 -0.9965 -0.8038 -2.6146
  879MOL0     H18639   6.052   8.930   0.579 -1.7417 -0.0501 -1.7770
  879MOL0     H18640   6.144   8.960   0.435  4.6792 -2.5113  3.4235
  879MOL0     H18641   5.933   9.144   0.565 -1.9378  1.1905 -1.0721
  879MOL0     H18642   6.036   9.182   0.421  4.4642 -1.6142  2.6472
  879MOL0     H18643   5.785   9.095   0.372 -1.3105  0.2683  2.6037
  879MOL0     H18644   5.845   8.933   0.440 -1.7880  1.0252 -0.5335
  879MOL0     H18645   6.000   8.925   0.252  0.8560  2.4445 -0.0084
  879MOL0     H18646   5.915   9.043   0.167  4.8718  0.4806 -0.0459
  879MOL0     H18647   6.717   8.710   0.632 -0.9112 -0.0588 -0.5034
  879MOL0     H18648   6.891   8.562   0.640 -0.0020 -0.9904 -1.3306
  879MOL0     H18649   7.227   8.226   0.208 -0.8515 -0.4089  0.7282
  879MOL0     H18650   7.379   8.042   0.240  0.6611  2.9383 -0.4642
  879MOL0     H18651   8.954   7.868   0.339 -0.3838 -0.5327 -0.4881
  879MOL0     H18652   9.172   7.988   0.308 -1.1453 -0.4955 -2.4996
  879MOL0     H18653   9.322   8.491   0.378  0.6543  2.8982 -0.8008
  879MOL0     H18654   9.498   8.640   0.377 -0.3651  1.2527 -1.1906
  879MOL0     H18655   9.847   8.569   0.201 -1.6625 -2.8623  1.7512
  879MOL0     H18656   9.685   8.633   0.197  1.2150  1.7469 -0.9565
  879MOL0     H18657   9.869   8.810   0.149  1.8014 -1.8420 -0.5270
  879MOL0     H18658   9.939   8.771   0.308 -0.2731  1.4692  1.2520
  879MOL0     H18659   9.818   8.977   0.314  0.0433  0.7621 -0.2946
  879MOL0     H18660   9.757   8.856   0.426 -2.7906 -1.6027 -0.2240
  879MOL0     H18661   9.558   8.830   0.268 -1.0847  0.5514  0.0456
  879MOL0     H18662   9.623   8.935   0.157 -2.6667 -3.2440 -0.6898
  879MOL0     H18663   9.431   9.211   0.388  1.7772  0.7600  0.9870
  879MOL0     H18664   9.785   8.328   0.443  0.8681  1.6627 -0.6409
  879MOL0     H18665   9.613   8.165   0.470  3.0519  0.3233 -1.5669
  880MOL0     O18666   1.366   3.454   8.846 -0.9788 -0.5840  0.1375
  880MOL0     C18667   1.480   3.420   8.817 -0.4989  0.0893  0.7242
  880MOL0     O18668   1.518   3.294   8.782  0.5445  0.5867 -0.1498
  880MOL0     C18669   1.420   3.213   8.740  0.2295  0.0891 -0.0109
  880MOL0     C18670   1.359   3.109   8.817 -0.4727  0.3374  0.1622
  880MOL0     C18671   1.266   3.018   8.756 -0.4340 -0.1203 -0.1940
  880MOL0     C18672   1.231   3.036   8.620 -0.4503  0.3897 -0.3427
  880MOL0     O18673   1.139   2.957   8.552 -0.3172 -0.1030 -0.3362
  880MOL0     C18674   1.102   2.842   8.620 -0.6775  0.4324  0.3262
  880MOL0     C18675   1.007   2.761   8.529  0.0774 -0.2543  0.0268
  880MOL0     C18676   0.913   2.831   8.444  0.1841  0.0181 -0.8984
  880MOL0     C18677   0.842   2.742   8.340  0.3913 -0.1419 -0.3428
  880MOL0     C18678   0.735   2.794   8.254 -0.2069  0.0665 -0.6051
  880MOL0     C18679   0.604   2.795   8.329  0.3380  0.1128 -0.3522
  880MOL0     C18680   0.499   2.886   8.264 -0.5105  0.4239 -0.3318
  880MOL0     C18681   0.448   2.831   8.132  0.2875  0.2080  0.3871
  880MOL0     N18682   0.390   2.940   8.050  0.1333 -1.2047 -0.6293
  880MOL0     C18683   0.464   3.034   7.991 -0.5676  0.5358 -0.5467
  880MOL0     C18684   0.388   3.070   7.892 -0.8138 -0.5002  1.8078
  880MOL0     C18685   0.419   3.180   7.789 -0.4291  0.7752  0.2766
  880MOL0     C18686   0.562   3.227   7.789 -0.5735  0.3115 -0.2776
  880MOL0     C18687   0.571   3.346   7.690 -0.1222 -0.4929  0.2712
  880MOL0     C18688   0.722   3.383   7.692  0.4613 -1.0747  0.1569
  880MOL0     O18689   0.728   3.501   7.603 -0.6928  0.1636  0.2378
  880MOL0     C18690   0.853   3.550   7.567 -0.1352  0.1893 -0.5839
  880MOL0     C18691   0.849   3.642   7.463 -0.6283  0.2866 -0.6021
  880MOL0     C18692   0.972   3.690   7.407  0.3160 -0.6486 -0.2451
  880MOL0     C18693   0.958   3.812   7.314 -0.5470  0.4368  0.6109
  880MOL0     C18694   1.092   3.646   7.462 -0.3513 -0.3993  0.0667
  880MOL0     C18695   1.220   3.686   7.400 -0.8241  0.2458  0.2473
  880MOL0     O18696   1.230   3.741   7.271 -0.4401  0.4123 -0.5243
  880MOL0     C18697   1.347   3.736   7.207  0.0373  1.0140  0.6077
  880MOL0     C18698   1.435   3.838   7.213  0.1237  0.0791  0.4046
  880MOL0     C18699   1.547   3.834   7.136 -0.0079 -0.2740  0.8995
  880MOL0     C18700   1.588   3.713   7.073 -0.1394 -0.0519 -0.5122
  880MOL0     O18701   1.692   3.714   6.987  0.0102 -0.2201  0.2825
  880MOL0     C18702   1.818   3.749   7.032  0.2234 -0.5012  0.6130
  880MOL0     C18703   1.895   3.637   7.093  0.2716 -0.1053  0.2052
  880MOL0     C18704   1.935   3.537   6.981  0.0229 -0.6590 -1.0697
  880MOL0     C18705   2.058   3.447   7.023  0.6130 -0.9026 -0.4352
  880MOL0     C18706   2.025   3.325   7.112 -0.2260 -0.1151  0.2078
  880MOL0     C18707   2.147   3.232   7.130  1.0183  0.6103  0.5612
  880MOL0     C18708   2.250   3.296   7.205  0.9090  0.3848 -0.3060
  880MOL0     C18709   2.377   3.222   7.209  0.0326 -0.2279 -0.6517
  880MOL0    Cl18710   2.483   3.311   7.318 -0.4372 -0.6003  0.6343
  880MOL0     C18711   1.499   3.610   7.068 -0.4116  0.9591 -0.0572
  880MOL0     C18712   1.377   3.624   7.131 -0.5012 -0.0299  0.3715
  880MOL0     O18713   1.317   3.661   7.466 -0.0086  0.4535 -0.1937
  880MOL0     C18714   1.093   3.545   7.562 -0.8148  0.2886 -0.1105
  880MOL0     C18715   0.973   3.498   7.613 -1.0486  0.0777  0.3112
  880MOL0     N18716   0.266   3.003   7.895  0.4967  0.5197  0.6618
  880MOL0     N18717   0.265   2.933   7.998  0.4311 -0.5535  0.6438
  880MOL0     C18718   1.294   3.142   8.554  1.0402 -0.9352 -0.3715
  880MOL0     C18719   1.392   3.221   8.609 -0.9084  0.3982 -0.8807
  880MOL0     C18720   1.582   3.521   8.847 -0.2264  0.7030  0.0072
  880MOL0     C18721   1.721   3.489   8.837  0.5352 -0.6420 -0.0036
  880MOL0     C18722   1.812   3.585   8.858  1.4922  0.0318  0.0493
  880MOL0     C18723   1.779   3.720   8.901  0.6248  0.5224 -0.8689
  880MOL0     O18724   1.876   3.820   8.917 -0.2111 -0.6312 -0.1423
  880MOL0     C18725   1.839   3.948   8.967  0.0334 -0.2235  0.0937
  880MOL0     C18726   1.962   4.044   8.954 -0.6811 -0.7481 -0.7594
  880MOL0     C18727   2.093   4.007   9.020  0.5284 -0.0264 -0.0531
  880MOL0     C18728   2.067   3.994   9.177  0.2920  0.7509  0.7750
  880MOL0     C18729   2.052   4.124   9.232  0.9777  0.4494 -0.0360
  880MOL0     C18730   2.061   4.225   9.291  0.2824  0.0410  0.0464
  880MOL0     C18731   1.643   3.748   8.914 -0.4526 -0.0752  0.3589
  880MOL0     C18732   1.547   3.654   8.881  0.4548  0.4754  1.1817
  880MOL0     H18733   1.374   3.100   8.924  1.4490  1.9966  0.1006
  880MOL0     H18734   1.216   2.942   8.815  2.6759 -1.4620  0.9318
  880MOL0     H18735   1.185   2.791   8.668 -0.0712  2.4250  1.5237
  880MOL0     H18736   1.042   2.875   8.705  0.4686  0.5006  1.1226
  880MOL0     H18737   1.072   2.697   8.469 -0.2969  1.4531 -2.3523
  880MOL0     H18738   0.945   2.701   8.596 -2.5057  2.0065 -0.1727
  880MOL0     H18739   0.831   2.868   8.506  0.2321 -0.7663 -0.3538
  880MOL0     H18740   0.949   2.916   8.385  1.5581 -0.7626 -1.2063
  880MOL0     H18741   0.918   2.722   8.263  0.1685  0.8014 -0.8181
  880MOL0     H18742   0.814   2.652   8.396  0.0692  1.2168  1.8033
  880MOL0     H18743   0.751   2.892   8.207  0.7709 -0.8820 -2.3607
  880MOL0     H18744   0.735   2.729   8.166  1.4946 -0.9570  0.1069
  880MOL0     H18745   0.566   2.694   8.341 -0.0559  0.3257  0.2438
  880MOL0     H18746   0.616   2.836   8.430  3.4764 -1.9705  0.2697
  880MOL0     H18747   0.415   2.913   8.329 -0.3742  3.4992 -1.3074
  880MOL0     H18748   0.555   2.978   8.248  2.8435 -1.8005 -2.8699
  880MOL0     H18749   0.384   2.746   8.154 -2.2332  1.4583 -1.5972
  880MOL0     H18750   0.524   2.798   8.061 -1.8585  1.2475 -2.5608
  880MOL0     H18751   0.569   3.060   8.007 -0.6302  1.3206 -1.3192
  880MOL0     H18752   0.395   3.148   7.687 -0.0839 -0.5814  0.6014
  880MOL0     H18753   0.358   3.269   7.807 -1.7295  0.6818 -3.0554
  880MOL0     H18754   0.625   3.144   7.755  0.7020  0.5114  1.4375
  880MOL0     H18755   0.605   3.257   7.885 -2.6315  1.2547  0.4197
  880MOL0     H18756   0.511   3.431   7.726  0.6781  0.1047  0.2451
  880MOL0     H18757   0.535   3.305   7.596  4.9871  0.4914 -2.4913
  880MOL0     H18758   0.781   3.311   7.635  1.3832  0.6660 -1.2098
  880MOL0     H18759   0.761   3.408   7.792  2.4537 -1.3817 -0.4978
  880MOL0     H18760   0.760   3.691   7.425 -0.9442  1.1449  1.1564
  880MOL0     H18761   0.995   3.898   7.371 -2.4775  0.3913  2.0072
  880MOL0     H18762   0.997   3.797   7.213 -3.0034  1.5107 -0.5785
  880MOL0     H18763   0.854   3.834   7.287 -0.6274  0.8797  1.2517
  880MOL0     H18764   1.391   3.921   7.267 -2.3821 -2.9690  3.5111
  880MOL0     H18765   1.592   3.931   7.121 -1.0924  0.0559 -0.4610
  880MOL0     H18766   1.866   3.806   6.953 -0.7652 -0.4217  0.0470
  880MOL0     H18767   1.790   3.831   7.099 -4.2531 -1.7104  0.5797
  880MOL0     H18768   1.981   3.688   7.138  0.5370 -0.2805 -0.1074
  880MOL0     H18769   1.840   3.596   7.178 -3.7612  0.8849 -1.6991
  880MOL0     H18770   1.961   3.589   6.888 -1.3382 -0.6578 -1.4657
  880MOL0     H18771   1.843   3.482   6.960 -1.1398  1.3908 -1.5953
  880MOL0     H18772   2.110   3.413   6.933  2.6091  1.1760 -0.1769
  880MOL0     H18773   2.130   3.520   7.063 -0.4504  1.6738 -2.8613
  880MOL0     H18774   1.934   3.269   7.087 -1.5457  0.2076  3.8005
  880MOL0     H18775   1.994   3.359   7.211  0.9596 -1.0436  0.9165
  880MOL0     H18776   2.111   3.138   7.173  0.0947  0.2729 -0.8830
  880MOL0     H18777   2.199   3.196   7.041  0.9420 -2.8501  1.7710
  880MOL0     H18778   2.217   3.304   7.309  1.1794 -1.4363 -0.0356
  880MOL0     H18779   2.262   3.392   7.154 -4.2493  1.1796 -0.5625
  880MOL0     H18780   2.419   3.224   7.107  2.1200 -1.1074  0.1356
  880MOL0     H18781   2.364   3.122   7.250  1.2637  0.2038  0.9031
  880MOL0     H18782   1.518   3.524   7.005 -3.1042  1.6465 -2.0301
  880MOL0     H18783   1.299   3.550   7.115 -0.6330  0.1689  0.0958
  880MOL0     H18784   1.186   3.509   7.604 -2.5392 -2.4918  1.6747
  880MOL0     H18785   0.982   3.428   7.696  0.7123  1.4266  1.3394
  880MOL0     H18786   1.259   3.161   8.453 -5.1655 -0.7706  1.4054
  880MOL0     H18787   1.447   3.288   8.543 -0.4615  0.9365  0.0169
  880MOL0     H18788   1.756   3.390   8.812  1.4558 -0.1764 -0.6397
  880MOL0     H18789   1.915   3.549   8.860  1.1955 -0.8511  2.3672
  880MOL0     H18790   1.761   3.993   8.905  1.4619 -0.3559 -1.8993
  880MOL0     H18791   1.802   3.931   9.068  0.4434  1.8786  0.6366
  880MOL0     H18792   1.939   4.146   8.987  3.0794  0.4057 -1.1945
  880MOL0     H18793   1.994   4.057   8.850 -0.5741  2.2399 -0.4448
  880MOL0     H18794   2.168   4.080   8.987 -1.0333  2.5426  1.7067
  880MOL0     H18795   2.129   3.910   8.984  0.3431  0.0991 -0.5907
  880MOL0     H18796   2.154   3.947   9.225 -0.6276 -2.0112 -0.1035
  880MOL0     H18797   1.975   3.941   9.204  2.1570 -1.7557  2.7231
  880MOL0     H18798   2.067   4.322   9.335 -0.9934  0.7963 -1.3247
  880MOL0     H18799   1.606   3.846   8.943 -1.5611 -0.1148 -0.8131
  880MOL0     H18800   1.445   3.692   8.880  1.0027  2.0383  0.1156
  881MOL0     O18801   7.736   9.594  10.564 -0.1716  1.0579 -0.1248
  881MOL0     C18802   7.750   9.707  10.536 -0.2756 -0.8681  1.0283
  881MOL0     O18803   7.862   9.779  10.555  0.1674  0.7302  0.4755
  881MOL0     C18804   7.969   9.712  10.615  0.9766  0.3177 -1.1646
  881MOL0     C18805   7.947   9.685  10.754 -0.5550  0.5917 -0.8653
  881MOL0     C18806   8.052   9.640  10.829 -0.4230 -0.7326  0.2608
  881MOL0     C18807   8.188   9.631  10.778 -0.7535  0.2266  0.2929
  881MOL0     O18808   8.289   9.596  10.859 -0.1926 -0.0415 -0.1351
  881MOL0     C18809   8.285   9.473  10.937  0.2696 -0.3578 -0.4755
  881MOL0     C18810   8.425   9.449  10.998 -0.5165 -0.6854 -0.4321
  881MOL0     C18811   8.439   9.472  11.145 -0.1395  0.2531  0.1458
  881MOL0     C18812   8.416   9.340  11.222 -0.0221  0.3203 -0.1816
  881MOL0     C18813   8.360   9.347  11.366  0.0061 -0.3500 -1.0532
  881MOL0     C18814   8.438   9.275  11.467 -0.5437  0.4826  0.1411
  881MOL0     C18815   8.376   9.274  11.599  0.2066  0.7853  0.3328
  881MOL0     C18816   8.332   9.414  11.644  0.8711  0.0150  0.3193
  881MOL0     N18817   8.298   9.421  11.786 -0.2312 -0.7566  1.0569
  881MOL0     C18818   8.237   9.534  11.826 -0.3952 -0.5188 -0.5135
  881MOL0     C18819   8.207   9.505  11.952 -0.3395  0.0141  0.8359
  881MOL0     C18820   8.133   9.588  12.056 -0.0376  0.0008  1.1928
  881MOL0     C18821   7.981   9.541  12.053 -0.4074 -0.4301  0.9945
  881MOL0     C18822   7.917   9.575  12.187 -0.1142 -0.1027  0.1862
  881MOL0     C18823   7.775   9.536  12.186  0.1843  1.1694 -0.4874
  881MOL0     O18824   7.697   9.578  12.071 -0.1766  0.4689 -0.3327
  881MOL0     C18825   7.564   9.549  12.078 -0.3748  0.1292  0.4896
  881MOL0     C18826   7.510   9.437  12.128 -0.4310  0.2559  0.2165
  881MOL0     C18827   7.371   9.416  12.123  0.6412 -0.4412  0.0017
  881MOL0     C18828   7.314   9.285  12.184  0.6839  0.5485 -0.4138
  881MOL0     C18829   7.286   9.521  12.080 -0.2350  0.2588  0.2026
  881MOL0     C18830   7.147   9.518  12.068 -0.1233  0.2922 -0.7397
  881MOL0     O18831   7.084   9.630  12.030 -0.9462 -0.0998  0.2198
  881MOL0     C18832   6.956   9.670  12.050 -0.7991 -0.3909  1.5366
  881MOL0     C18833   6.843   9.596  12.040 -0.0810 -0.2348 -0.3124
  881MOL0     C18834   6.717   9.658  12.063  0.7799  0.3199  0.0898
  881MOL0     C18835   6.713   9.796  12.083 -0.2021 -0.3786  0.2045
  881MOL0     O18836   6.598   9.869  12.116 -0.1388  0.6054 -0.6385
  881MOL0     C18837   6.465   9.814  12.130 -0.4064 -0.1551 -0.0983
  881MOL0     C18838   6.350   9.879  12.051  0.3741 -0.2044 -0.1818
  881MOL0     C18839   6.363  10.033  12.047 -0.6304  0.7405 -1.4564
  881MOL0     C18840   6.354  10.097  12.187 -0.2805  0.3911  0.8640
  881MOL0     C18841   6.432  10.220  12.214 -0.2921 -0.2733 -0.0360
  881MOL0     C18842   6.585  10.194  12.217  0.5918 -0.4784  0.3599
  881MOL0     C18843   6.661  10.320  12.257 -0.2123 -0.7874  0.0681
  881MOL0     C18844   6.810  10.282  12.294 -0.6025 -0.2853  0.0519
  881MOL0    Cl18845   6.895  10.232  12.142 -0.1044  0.1840  0.2880
  881MOL0     C18846   6.833   9.869  12.062 -0.1507  0.1282  0.4598
  881MOL0     C18847   6.952   9.805  12.048  0.7299 -0.2151 -0.0665
  881MOL0     O18848   7.081   9.422  12.120 -0.4188 -0.0359  0.2202
  881MOL0     C18849   7.348   9.642  12.030 -0.0697  0.2724  0.9098
  881MOL0     C18850   7.483   9.654  12.031 -0.3579 -0.0271  0.3083
  881MOL0     N18851   8.244   9.368  11.975 -0.3924 -0.1483 -0.1092
  881MOL0     N18852   8.299   9.318  11.876 -0.6528  0.5881  0.0538
  881MOL0     C18853   8.209   9.662  10.647 -0.2424  0.1346  0.6233
  881MOL0     C18854   8.097   9.700  10.564  0.2626 -0.2265  0.9355
  881MOL0     C18855   7.644   9.774  10.482 -0.1396  0.2484 -0.6427
  881MOL0     C18856   7.505   9.725  10.497 -1.0750 -0.0246  0.3774
  881MOL0     C18857   7.400   9.795  10.438  0.6200  1.2303  0.6992
  881MOL0     C18858   7.426   9.895  10.343 -0.5359 -0.9812 -0.4252
  881MOL0     O18859   7.338   9.953  10.256  0.1819  0.4854 -0.0382
  881MOL0     C18860   7.201   9.903  10.251 -0.2223 -0.1131 -0.6532
  881MOL0     C18861   7.113  10.013  10.185  0.1748 -0.4464  0.6690
  881MOL0     C18862   7.138  10.025  10.031  0.1514  0.2848  0.0614
  881MOL0     C18863   7.226   9.919   9.968  0.6546 -0.0096 -0.0912
  881MOL0     C18864   7.236   9.960   9.829  1.1632  0.6453  0.5008
  881MOL0     C18865   7.241  10.004   9.714 -0.1589  0.0218 -0.0918
  881MOL0     C18866   7.555   9.940  10.320 -0.9978 -0.1635  0.3755
  881MOL0     C18867   7.665   9.882  10.391  0.2180 -0.8487  0.3894
  881MOL0     H18868   7.850   9.714  10.794 -1.6382 -3.6540  0.0784
  881MOL0     H18869   8.035   9.617  10.934 -6.0545  4.5877  1.0941
  881MOL0     H18870   8.213   9.481  11.018  1.0426 -0.1558  0.2048
  881MOL0     H18871   8.264   9.390  10.869 -0.2075 -1.7440  1.2967
  881MOL0     H18872   8.468   9.350  10.983 -0.7950 -1.0975  1.2560
  881MOL0     H18873   8.497   9.515  10.948  0.7740 -0.8792  1.0912
  881MOL0     H18874   8.539   9.511  11.169  0.4273 -1.2203  0.2566
  881MOL0     H18875   8.361   9.545  11.170  0.2665  1.2407 -1.3557
  881MOL0     H18876   8.345   9.278  11.166 -0.9062  0.0376  1.1951
  881MOL0     H18877   8.517   9.299  11.219  0.1150  0.0512  3.4033
  881MOL0     H18878   8.363   9.456  11.377 -0.1572 -0.3376 -1.1223
  881MOL0     H18879   8.261   9.302  11.376 -0.4743  0.9164  0.1862
  881MOL0     H18880   8.465   9.171  11.444  0.7609 -0.7936  5.8970
  881MOL0     H18881   8.529   9.333  11.476 -0.4557  0.3983 -0.1981
  881MOL0     H18882   8.291   9.206  11.592  2.3095 -1.9037 -4.1561
  881MOL0     H18883   8.453   9.236  11.667  3.7511 -2.9521 -4.9363
  881MOL0     H18884   8.245   9.449  11.587  0.6893 -2.4243 -1.0635
  881MOL0     H18885   8.421   9.477  11.632  0.1047  0.9697 -0.3908
  881MOL0     H18886   8.231   9.624  11.765  1.3590 -0.9533 -1.3989
  881MOL0     H18887   8.192   9.563  12.145 -0.9579 -3.8639  0.8855
  881MOL0     H18888   8.145   9.695  12.039 -1.3653 -0.0791 -0.5013
  881MOL0     H18889   7.984   9.432  12.050  2.1624 -0.4932  2.8273
  881MOL0     H18890   7.928   9.587  11.970 -1.9831 -0.9678  1.6559
  881MOL0     H18891   7.919   9.685  12.192  0.9519 -0.1295  0.5826
  881MOL0     H18892   7.978   9.517  12.256  2.4797 -2.7886 -3.9165
  881MOL0     H18893   7.722   9.578  12.272  1.3038  3.6591 -0.9269
  881MOL0     H18894   7.769   9.427  12.195  0.5737  1.2354  0.8964
  881MOL0     H18895   7.568   9.349  12.154  2.5466  1.7253 -0.9907
  881MOL0     H18896   7.392   9.213  12.210  0.2551  0.8662  1.9388
  881MOL0     H18897   7.268   9.295  12.282  0.0875 -1.6855 -0.4017
  881MOL0     H18898   7.234   9.239  12.125  1.9077 -1.4987 -0.5923
  881MOL0     H18899   6.866   9.490  12.043  0.6731 -0.0607  0.9787
  881MOL0     H18900   6.630   9.594  12.078  0.9039 -0.1810 -1.2006
  881MOL0     H18901   6.460   9.705  12.127 -3.8274 -0.1252  0.4501
  881MOL0     H18902   6.445   9.824  12.237  1.0101 -2.2870  0.4130
  881MOL0     H18903   6.352   9.850  11.945  0.5549  3.9176 -1.4903
  881MOL0     H18904   6.252   9.856  12.092 -1.1322  1.7360 -2.4313
  881MOL0     H18905   6.290  10.078  11.978 -1.4993  0.7428 -0.5589
  881MOL0     H18906   6.464  10.057  12.014  0.6842  0.0429  1.7078
  881MOL0     H18907   6.251  10.128  12.209 -0.1178  0.0074  2.2454
  881MOL0     H18908   6.381  10.024  12.264  2.3616  0.4798  0.1227
  881MOL0     H18909   6.407  10.261  12.312 -2.1755  1.1860 -1.0794
  881MOL0     H18910   6.419  10.303  12.144  2.5723 -0.8172 -1.3816
  881MOL0     H18911   6.612  10.107  12.277  1.0723  0.7805  2.0391
  881MOL0     H18912   6.627  10.167  12.120 -1.5319 -0.5546 -0.6092
  881MOL0     H18913   6.629  10.378  12.344 -0.2509  0.7617 -0.9431
  881MOL0     H18914   6.646  10.391  12.176  1.4418 -1.1104 -0.5651
  881MOL0     H18915   6.814  10.201  12.367 -0.2677 -0.5789 -0.2846
  881MOL0     H18916   6.854  10.365  12.350  0.1148  1.1484 -2.4910
  881MOL0     H18917   6.840   9.977  12.056  1.8518  0.2184  2.8177
  881MOL0     H18918   7.047   9.857  12.045 -0.1163  1.5915 -4.8283
  881MOL0     H18919   7.295   9.725  11.984  0.6677  0.5065  0.4679
  881MOL0     H18920   7.526   9.748  11.999 -2.6218  0.1515 -2.6407
  881MOL0     H18921   8.309   9.633  10.617  0.7906  0.3960  3.5612
  881MOL0     H18922   8.122   9.740  10.466  1.0619 -0.9452  0.8343
  881MOL0     H18923   7.476   9.632  10.544  0.9387 -0.6148  0.5341
  881MOL0     H18924   7.300   9.754  10.451  0.3613  1.2924 -0.9221
  881MOL0     H18925   7.195   9.808  10.199 -0.0337 -0.5377  0.0922
  881MOL0     H18926   7.154   9.890  10.349  0.3285  3.1001  0.1727
  881MOL0     H18927   7.140  10.113  10.222  4.5423  0.0853 -2.9860
  881MOL0     H18928   7.005  10.003  10.198 -0.0511  1.0452  0.1955
  881MOL0     H18929   7.180  10.123  10.007 -1.9949  1.3612  0.4043
  881MOL0     H18930   7.041  10.019   9.981  0.3311  1.8533 -0.5209
  881MOL0     H18931   7.165   9.828   9.971  1.5203 -0.5865  2.1561
  881MOL0     H18932   7.325   9.918  10.014  0.1236 -3.1377  1.2914
  881MOL0     H18933   7.224  10.048   9.617 -2.2419  1.1077  0.7031
  881MOL0     H18934   7.578  10.017  10.247 -1.1266 -3.4026 -3.3723
  881MOL0     H18935   7.766   9.919  10.376 -0.1894 -0.6177 -2.4206
  882MOL0     O18936   4.285   8.296   4.038 -0.4795  0.6535  0.0013
  882MOL0     C18937   4.354   8.359   4.114 -0.5326 -0.1680 -0.9244
  882MOL0     O18938   4.358   8.339   4.255 -0.7159 -0.2394  0.6731
  882MOL0     C18939   4.276   8.246   4.306  0.0892 -1.1422 -0.1088
  882MOL0     C18940   4.142   8.288   4.318 -0.2485  0.1495 -0.1143
  882MOL0     C18941   4.056   8.226   4.401  0.3607 -0.2013  0.1246
  882MOL0     C18942   4.095   8.107   4.464 -0.3461  0.2345  0.0335
  882MOL0     O18943   4.025   8.032   4.548  0.6792  0.3769 -0.1084
  882MOL0     C18944   3.881   8.056   4.559  0.4192  0.9936  0.9799
  882MOL0     C18945   3.805   8.010   4.432 -0.1412  0.2138 -0.2253
  882MOL0     C18946   3.849   7.873   4.373 -0.4678 -0.9009 -0.0378
  882MOL0     C18947   3.854   7.765   4.479  0.2888  0.1325  0.0631
  882MOL0     C18948   3.876   7.623   4.426 -0.2583 -0.3247  0.1212
  882MOL0     C18949   3.870   7.523   4.546  0.4580 -0.2609  0.6926
  882MOL0     C18950   3.994   7.534   4.644  0.1773  0.1657 -0.2288
  882MOL0     C18951   3.987   7.450   4.776 -0.1295  0.5082  0.7847
  882MOL0     N18952   4.021   7.310   4.755 -0.6958  0.0146  0.2254
  882MOL0     C18953   3.937   7.202   4.746 -0.3287 -0.3296 -0.8506
  882MOL0     C18954   4.015   7.101   4.720  0.6124 -0.1982  0.6321
  882MOL0     C18955   3.971   6.959   4.721 -0.2033  0.1465 -0.0356
  882MOL0     C18956   4.030   6.901   4.593 -0.0877  0.4902  0.0607
  882MOL0     C18957   3.984   6.751   4.589 -0.3024 -0.4522 -0.8675
  882MOL0     C18958   4.054   6.666   4.488 -0.6072  0.1569  0.3182
  882MOL0     O18959   3.995   6.539   4.478  0.2489 -0.4784 -0.5247
  882MOL0     C18960   3.871   6.516   4.419  0.8232 -0.4181 -0.6251
  882MOL0     C18961   3.803   6.623   4.362 -0.5643 -0.1039  1.0313
  882MOL0     C18962   3.680   6.605   4.300 -0.6381  0.5141 -0.5019
  882MOL0     C18963   3.615   6.722   4.236  0.0797 -0.2511  0.0641
  882MOL0     C18964   3.624   6.472   4.304 -0.9628  0.5804 -0.3386
  882MOL0     C18965   3.506   6.417   4.238  0.8450  0.1358 -0.1242
  882MOL0     O18966   3.476   6.290   4.264  0.4819 -0.4839  0.6669
  882MOL0     C18967   3.341   6.251   4.244 -0.4238  0.2757  0.0107
  882MOL0     C18968   3.329   6.115   4.253 -1.3869 -0.0266 -0.4824
  882MOL0     C18969   3.203   6.057   4.237 -0.2251 -0.3483 -0.2749
  882MOL0     C18970   3.087   6.131   4.217  0.0117 -0.3347  1.4951
  882MOL0     O18971   2.961   6.084   4.185  0.4633 -0.1060  0.2586
  882MOL0     C18972   2.911   6.016   4.297  0.4896  0.9407  0.1235
  882MOL0     C18973   2.763   5.977   4.264  0.3012  0.9525 -0.4260
  882MOL0     C18974   2.664   6.091   4.229 -0.2049 -0.3170  0.4462
  882MOL0     C18975   2.635   6.179   4.363  0.6494 -0.3449 -0.0645
  882MOL0     C18976   2.530   6.289   4.353  0.1103  0.6273  0.7197
  882MOL0     C18977   2.564   6.396   4.246  0.1939  0.4958  0.0082
  882MOL0     C18978   2.468   6.509   4.223 -0.3002 -0.4006  0.5522
  882MOL0     C18979   2.330   6.448   4.195  0.4647  0.0621 -0.1374
  882MOL0    Cl18980   2.331   6.327   4.052 -0.0836 -0.1609 -0.0862
  882MOL0     C18981   3.102   6.272   4.225  0.5823 -0.4229 -0.0265
  882MOL0     C18982   3.225   6.335   4.231  0.0088  0.4927 -0.3867
  882MOL0     O18983   3.452   6.496   4.155 -0.0315  0.5167  0.5449
  882MOL0     C18984   3.704   6.365   4.362 -0.6662  0.3765  0.6169
  882MOL0     C18985   3.820   6.397   4.424 -0.8152 -0.2475  0.4470
  882MOL0     N18986   4.141   7.149   4.688  0.1746 -0.2428 -0.9058
  882MOL0     N18987   4.146   7.282   4.712  1.0568  1.0551  0.1314
  882MOL0     C18988   4.222   8.061   4.449  0.7830  0.1040 -0.0142
  882MOL0     C18989   4.316   8.130   4.368 -0.0243  0.1319  0.2832
  882MOL0     C18990   4.429   8.466   4.048 -0.2453 -0.0235 -0.0756
  882MOL0     C18991   4.415   8.487   3.917 -0.0170 -0.1130  0.1796
  882MOL0     C18992   4.485   8.597   3.847 -0.0774 -0.6839 -0.6353
  882MOL0     C18993   4.589   8.660   3.912 -0.4007  0.1321 -1.9463
  882MOL0     O18994   4.669   8.763   3.856  1.4284  0.0966 -0.0549
  882MOL0     C18995   4.798   8.715   3.801  0.9213 -0.0614 -0.0504
  882MOL0     C18996   4.767   8.596   3.699 -0.0983  0.0754  0.1088
  882MOL0     C18997   4.769   8.449   3.766 -0.9408  0.1792  0.3060
  882MOL0     C18998   4.910   8.393   3.780  0.4290  0.2465  0.4723
  882MOL0     C18999   4.980   8.374   3.652  0.0507  0.2002  0.5031
  882MOL0     C19000   5.035   8.353   3.548 -0.6952  0.5729 -0.5855
  882MOL0     C19001   4.627   8.611   4.043  0.4325 -0.0051 -0.0004
  882MOL0     C19002   4.545   8.520   4.112  0.7572  0.5175  0.2091
  882MOL0     H19003   4.109   8.378   4.267 -0.3680  0.8653  1.1848
  882MOL0     H19004   3.951   8.251   4.401  0.4199  0.1502 -1.7585
  882MOL0     H19005   3.848   7.999   4.646  1.3533 -0.7160  0.2679
  882MOL0     H19006   3.864   8.163   4.578  0.4619  0.8284  1.9894
  882MOL0     H19007   3.696   8.014   4.445  0.0757  3.5890  1.8337
  882MOL0     H19008   3.824   8.079   4.349  1.2967  0.3888  0.2340
  882MOL0     H19009   3.792   7.829   4.292  0.7917 -1.5576 -0.5983
  882MOL0     H19010   3.951   7.886   4.334 -0.4243 -0.5790  0.1775
  882MOL0     H19011   3.938   7.793   4.543  0.0895  1.1002 -0.0849
  882MOL0     H19012   3.758   7.765   4.532 -0.3978 -0.5811 -1.1466
  882MOL0     H19013   3.804   7.614   4.345 -0.6361  2.8473  0.0080
  882MOL0     H19014   3.977   7.612   4.385 -0.2634 -1.1491  0.3054
  882MOL0     H19015   3.781   7.548   4.603  0.0133  1.9629 -0.8477
  882MOL0     H19016   3.852   7.423   4.507 -0.1370  0.5651 -1.2557
  882MOL0     H19017   4.091   7.514   4.596 -0.3966 -0.4851 -1.1469
  882MOL0     H19018   4.010   7.639   4.671  1.1645  0.0692 -0.3684
  882MOL0     H19019   3.881   7.447   4.805 -1.0551 -0.4475 -2.3360
  882MOL0     H19020   4.060   7.482   4.850  0.6223  1.1857 -0.2271
  882MOL0     H19021   3.832   7.205   4.771  0.1798  0.5903  1.3916
  882MOL0     H19022   4.014   6.919   4.813 -4.0998 -1.8021  1.1371
  882MOL0     H19023   3.864   6.939   4.725 -0.6630  2.4249  0.6930
  882MOL0     H19024   4.138   6.907   4.604 -0.3061  1.7994  2.1011
  882MOL0     H19025   4.004   6.964   4.507 -0.7714  2.6930  1.7881
  882MOL0     H19026   3.877   6.767   4.572  0.3582  4.1768 -1.7902
  882MOL0     H19027   3.998   6.706   4.687 -0.4304  0.9635 -0.1817
  882MOL0     H19028   4.162   6.663   4.506 -0.7149 -0.3369  0.8986
  882MOL0     H19029   4.040   6.717   4.392  0.1300  1.5495  0.9359
  882MOL0     H19030   3.857   6.713   4.334  1.7754 -1.9309 -0.8156
  882MOL0     H19031   3.653   6.822   4.262 -1.9880  0.0215  2.4041
  882MOL0     H19032   3.598   6.711   4.128  1.2224  0.3913 -0.2037
  882MOL0     H19033   3.515   6.736   4.278 -0.7527  0.7130 -2.0697
  882MOL0     H19034   3.420   6.059   4.273 -1.3947  0.7094  1.8006
  882MOL0     H19035   3.184   5.951   4.246  0.1334 -0.5124 -1.3103
  882MOL0     H19036   2.978   5.935   4.326 -3.4644 -2.0722  1.7141
  882MOL0     H19037   2.904   6.078   4.387 -1.2533  0.3885  0.4189
  882MOL0     H19038   2.755   5.904   4.182 -3.0621  3.5463 -2.6656
  882MOL0     H19039   2.719   5.923   4.348  1.3055 -0.4066 -0.7302
  882MOL0     H19040   2.570   6.046   4.194 -0.1566  1.5472 -2.3935
  882MOL0     H19041   2.705   6.162   4.156 -2.2407 -0.7125 -1.1959
  882MOL0     H19042   2.600   6.105   4.436  0.2752 -0.5803 -0.4841
  882MOL0     H19043   2.723   6.225   4.410 -0.8190  1.8777  0.6838
  882MOL0     H19044   2.529   6.341   4.450 -0.6669 -2.7609  2.7063
  882MOL0     H19045   2.435   6.240   4.332  0.9807  0.0669 -2.3951
  882MOL0     H19046   2.650   6.448   4.289  1.7801 -2.1895  0.3040
  882MOL0     H19047   2.594   6.348   4.153  0.1895 -1.4213  0.9463
  882MOL0     H19048   2.507   6.571   4.142 -1.5170  0.8229  0.8474
  882MOL0     H19049   2.466   6.576   4.310 -1.3438  1.4619 -0.8489
  882MOL0     H19050   2.251   6.520   4.173  0.7823  0.0389 -1.4430
  882MOL0     H19051   2.298   6.392   4.283  1.2252 -2.7369 -1.5249
  882MOL0     H19052   3.015   6.336   4.211  1.2442  1.1359  2.3217
  882MOL0     H19053   3.222   6.443   4.238  1.2350  0.6531 -1.7276
  882MOL0     H19054   3.691   6.257   4.353 -0.1676  0.4613 -1.8561
  882MOL0     H19055   3.886   6.331   4.480 -0.9678  0.1230  1.0771
  882MOL0     H19056   4.243   7.965   4.494 -0.1124  0.1042  0.4249
  882MOL0     H19057   4.419   8.094   4.368  0.4248  1.3838  0.0542
  882MOL0     H19058   4.339   8.443   3.852 -0.3980  1.4773 -0.4898
  882MOL0     H19059   4.476   8.627   3.743  0.7838 -0.2688 -0.5962
  882MOL0     H19060   4.835   8.796   3.738  2.0153  2.5506  3.6251
  882MOL0     H19061   4.886   8.702   3.865 -0.7698 -0.0824  2.3906
  882MOL0     H19062   4.829   8.592   3.609 -1.5224  0.1111 -0.9005
  882MOL0     H19063   4.666   8.608   3.659 -0.6065  1.9790  1.8114
  882MOL0     H19064   4.711   8.375   3.711 -1.2900  0.6331  0.0569
  882MOL0     H19065   4.729   8.451   3.867  0.1930 -0.9075  0.8108
  882MOL0     H19066   4.907   8.294   3.826 -2.6877  0.7598  1.5741
  882MOL0     H19067   4.965   8.469   3.837 -0.3281  1.6598 -0.6050
  882MOL0     H19068   5.075   8.346   3.449 -0.8480  0.7205 -0.6598
  882MOL0     H19069   4.721   8.644   4.087  0.8170  1.3175 -1.6932
  882MOL0     H19070   4.578   8.487   4.209  2.1179 -1.8535 -0.9747
  883MOL0     O19071  10.081   1.052   2.104 -0.4119 -0.7641 -0.5521
  883MOL0     C19072   9.961   1.039   2.126  0.6888  0.0560  0.0951
  883MOL0     O19073   9.894   0.919   2.158  0.4105  0.0183  0.0799
  883MOL0     C19074   9.955   0.800   2.197  0.1781  0.8181  0.0163
  883MOL0     C19075   9.865   0.691   2.233  0.4724  0.5721  0.7655
  883MOL0     C19076   9.910   0.577   2.290 -1.1431 -0.9897  0.7306
  883MOL0     C19077  10.048   0.560   2.318 -0.7593 -0.9382 -0.5355
  883MOL0     O19078  10.084   0.444   2.384 -0.4386  0.5764 -0.4490
  883MOL0     C19079  10.211   0.432   2.448  0.1554  0.4731 -0.4115
  883MOL0     C19080  10.203   0.325   2.550  0.9277  0.5564 -0.2763
  883MOL0     C19081  10.315   0.298   2.646 -0.4466 -0.5384  0.3201
  883MOL0     C19082  10.316   0.156   2.691 -0.1367  0.2430 -0.2296
  883MOL0     C19083  10.400   0.119   2.822 -0.4028  0.8732 -0.3356
  883MOL0     C19084  10.353   0.151   2.965 -0.0054  0.1814 -0.4739
  883MOL0     C19085  10.438   0.069   3.074 -0.0652  0.1010 -1.0346
  883MOL0     C19086  10.407  -0.081   3.072 -0.0256 -0.2378 -0.0351
  883MOL0     N19087  10.472  -0.150   3.194 -0.3735 -0.1439 -0.1732
  883MOL0     C19088  10.401  -0.258   3.251  1.0576  0.0054 -0.4924
  883MOL0     C19089  10.451  -0.276   3.375 -0.5073  0.4199  0.6459
  883MOL0     C19090  10.386  -0.349   3.490 -0.6011  0.1789  0.7068
  883MOL0     C19091  10.482  -0.360   3.606 -0.4355  0.3283 -0.2974
  883MOL0     C19092  10.435  -0.463   3.716 -0.6507  0.9045 -0.2718
  883MOL0     C19093  10.431  -0.607   3.673 -0.6986 -0.7760 -0.2472
  883MOL0     O19094  10.299  -0.649   3.724 -0.1742 -0.1495  0.3207
  883MOL0     C19095  10.213  -0.721   3.638  0.6287  0.6347 -0.8159
  883MOL0     C19096  10.120  -0.799   3.712  0.0435  0.0700 -0.2602
  883MOL0     C19097  10.017  -0.862   3.651  0.4672  0.3643  1.3911
  883MOL0     C19098   9.916  -0.936   3.744  0.3234 -1.0344 -0.6647
  883MOL0     C19099  10.011  -0.856   3.507 -0.2274 -0.0503  0.0506
  883MOL0     C19100   9.918  -0.927   3.432 -0.3179  0.3821  0.5715
  883MOL0     O19101   9.838  -0.835   3.354 -0.3325  0.0603  0.2925
  883MOL0     C19102   9.720  -0.878   3.310  0.3300 -0.2770  0.7547
  883MOL0     C19103   9.604  -0.843   3.380  0.3900 -0.6237  0.2716
  883MOL0     C19104   9.483  -0.870   3.325  0.2034 -0.4646 -0.6867
  883MOL0     C19105   9.465  -0.943   3.210  0.2493 -0.3890  0.6256
  883MOL0     O19106   9.335  -0.994   3.179  0.3979  0.4496  0.0055
  883MOL0     C19107   9.297  -1.028   3.042  0.0480 -0.6658 -0.1051
  883MOL0     C19108   9.237  -0.915   2.974 -1.3480 -1.3349  0.8884
  883MOL0     C19109   9.087  -0.912   3.003 -0.3304  0.3539  0.6973
  883MOL0     C19110   9.009  -0.983   2.892  0.3458  0.1419 -0.9855
  883MOL0     C19111   8.861  -0.999   2.933 -0.6339 -0.2864  0.4695
  883MOL0     C19112   8.777  -0.872   2.930  0.4876  0.2237  0.8012
  883MOL0     C19113   8.625  -0.919   2.905  0.4133 -0.1428 -1.2162
  883MOL0     C19114   8.577  -0.863   2.773 -0.4489 -0.5657  0.0832
  883MOL0    Cl19115   8.394  -0.880   2.759  0.1429 -0.1369 -0.4768
  883MOL0     C19116   9.583  -0.988   3.143 -0.7881 -0.2418  0.4642
  883MOL0     C19117   9.709  -0.948   3.192  0.4114  0.2704 -0.8057
  883MOL0     O19118   9.898  -1.049   3.449 -0.3771  0.2840 -0.3008
  883MOL0     C19119  10.102  -0.775   3.440 -0.2989 -0.3578  0.4384
  883MOL0     C19120  10.212  -0.720   3.501  0.5465 -0.2341  0.0337
  883MOL0     N19121  10.573  -0.209   3.381 -0.4634  0.5010  0.2577
  883MOL0     N19122  10.582  -0.130   3.275 -0.5883  0.0018 -0.5398
  883MOL0     C19123  10.140   0.659   2.274 -0.1088  0.3823 -0.2752
  883MOL0     C19124  10.089   0.782   2.221  0.1093 -0.3721 -0.0381
  883MOL0     C19125   9.882   1.161   2.118  0.6361 -0.1181  0.0741
  883MOL0     C19126   9.748   1.149   2.129 -0.1791  1.0876 -0.3476
  883MOL0     C19127   9.657   1.256   2.119 -0.4676 -0.6658 -0.2781
  883MOL0     C19128   9.712   1.386   2.099  0.0190  0.2391 -0.5896
  883MOL0     O19129   9.655   1.515   2.102  0.2473  0.0413 -0.1916
  883MOL0     C19130   9.514   1.528   2.122  1.2035  0.4308 -1.0906
  883MOL0     C19131   9.467   1.512   2.268  0.5520 -0.9859 -1.1745
  883MOL0     C19132   9.509   1.614   2.375 -0.2356 -0.2105 -0.1883
  883MOL0     C19133   9.639   1.562   2.435 -0.1461  0.0983  0.0944
  883MOL0     C19134   9.687   1.666   2.525 -0.1384 -0.4557 -0.6784
  883MOL0     C19135   9.725   1.753   2.601  0.2406  0.1604 -0.0522
  883MOL0     C19136   9.851   1.389   2.078  0.5553  0.6561 -0.5971
  883MOL0     C19137   9.933   1.280   2.087 -0.7580 -0.8083 -0.1098
  883MOL0     H19138   9.758   0.706   2.231  0.3473  0.5255  3.7084
  883MOL0     H19139   9.848   0.498   2.331  0.5175 -1.1230  3.2633
  883MOL0     H19140  10.292   0.425   2.374 -0.5827  0.0878 -1.1980
  883MOL0     H19141  10.230   0.525   2.503  4.9069  0.8090 -2.1270
  883MOL0     H19142  10.108   0.336   2.603 -1.1921  0.1635 -3.6812
  883MOL0     H19143  10.189   0.227   2.504  0.8123  0.6704 -0.4860
  883MOL0     H19144  10.407   0.307   2.587 -0.2115 -2.3676  0.3542
  883MOL0     H19145  10.308   0.369   2.729  1.4144  0.0003  0.0550
  883MOL0     H19146  10.209   0.135   2.700 -0.6854  1.7374 -2.5154
  883MOL0     H19147  10.353   0.088   2.614 -4.2280  0.2309 -2.4092
  883MOL0     H19148  10.389   0.010   2.826 -1.3435  0.9848  0.5034
  883MOL0     H19149  10.507   0.139   2.813  0.0771 -1.2495 -0.0166
  883MOL0     H19150  10.353   0.259   2.984  1.4538  0.1983 -0.4411
  883MOL0     H19151  10.247   0.126   2.967 -0.2180  1.0816  1.1240
  883MOL0     H19152  10.545   0.081   3.055  0.0402 -1.6306 -1.6373
  883MOL0     H19153  10.412   0.112   3.172  2.0413  0.4596 -0.5741
  883MOL0     H19154  10.451  -0.119   2.979 -0.9878  2.4587 -1.6890
  883MOL0     H19155  10.301  -0.109   3.067  0.0863 -0.8356  0.7037
  883MOL0     H19156  10.305  -0.301   3.224  1.1561 -0.7538  0.3111
  883MOL0     H19157  10.300  -0.292   3.526 -0.5793  1.4390 -1.1443
  883MOL0     H19158  10.352  -0.449   3.460  1.1276 -0.6026  1.1939
  883MOL0     H19159  10.482  -0.262   3.655 -1.6861 -1.2751  3.1977
  883MOL0     H19160  10.586  -0.382   3.581 -1.1785 -1.5904 -2.0407
  883MOL0     H19161  10.332  -0.435   3.742  0.0569  2.1294  1.3609
  883MOL0     H19162  10.499  -0.457   3.804  0.3091 -3.6847 -0.3764
  883MOL0     H19163  10.522  -0.647   3.718 -2.1397 -1.1375  2.6026
  883MOL0     H19164  10.446  -0.601   3.565  0.7559  0.7821  0.0067
  883MOL0     H19165  10.120  -0.805   3.821 -1.2455 -0.7387 -0.2813
  883MOL0     H19166   9.839  -0.985   3.684 -0.1841  0.0326 -0.9107
  883MOL0     H19167   9.979  -1.016   3.785  0.0048 -1.8763 -1.7651
  883MOL0     H19168   9.867  -0.872   3.818  3.4282  1.9040 -0.9056
  883MOL0     H19169   9.627  -0.800   3.477 -0.4813  3.6395 -1.1874
  883MOL0     H19170   9.396  -0.853   3.388  2.1954  1.6284  1.7458
  883MOL0     H19171   9.374  -1.079   2.984  0.2661 -0.4612  0.0024
  883MOL0     H19172   9.217  -1.101   3.055 -1.9036  1.4094  0.0710
  883MOL0     H19173   9.281  -0.822   3.013 -0.4123 -2.2563  2.1300
  883MOL0     H19174   9.260  -0.908   2.867 -0.5253 -1.1701  1.0672
  883MOL0     H19175   9.053  -0.808   3.014 -1.4074  0.1801 -0.6713
  883MOL0     H19176   9.060  -0.972   3.090  0.4667 -0.9322  0.0795
  883MOL0     H19177   9.002  -0.930   2.796  1.9934 -0.4428 -1.4618
  883MOL0     H19178   9.049  -1.079   2.858 -0.5445 -0.2075 -1.0813
  883MOL0     H19179   8.865  -1.039   3.035  2.4219 -0.7499  0.2542
  883MOL0     H19180   8.829  -1.072   2.859  0.5897 -0.8986  0.5199
  883MOL0     H19181   8.776  -0.830   3.031  0.1255 -1.0694  1.3605
  883MOL0     H19182   8.804  -0.791   2.862  1.0789  2.0637  3.0810
  883MOL0     H19183   8.571  -0.890   2.995 -0.1071 -2.3700 -0.7410
  883MOL0     H19184   8.631  -1.029   2.909  2.1701 -0.0493  1.2023
  883MOL0     H19185   8.627  -0.918   2.693  0.8839 -0.5453  0.8754
  883MOL0     H19186   8.602  -0.756   2.772 -1.7228 -0.2228  1.6947
  883MOL0     H19187   9.584  -1.037   3.047  1.9781  0.9492 -0.2261
  883MOL0     H19188   9.802  -0.953   3.137  0.2079  1.6289 -1.3026
  883MOL0     H19189  10.105  -0.760   3.332 -1.9434  1.3512  0.5886
  883MOL0     H19190  10.296  -0.681   3.444  0.4152  2.0299  1.2865
  883MOL0     H19191  10.247   0.650   2.291 -0.3441  2.4553  3.4204
  883MOL0     H19192  10.162   0.859   2.200 -0.1613 -0.0840  0.0598
  883MOL0     H19193   9.701   1.056   2.161 -1.7826  1.3210 -1.8694
  883MOL0     H19194   9.550   1.252   2.139 -0.2399  2.5862  2.7277
  883MOL0     H19195   9.482   1.627   2.090 -1.6038  0.1598  0.4775
  883MOL0     H19196   9.469   1.455   2.054 -0.6446  1.0278 -0.5723
  883MOL0     H19197   9.490   1.409   2.297 -0.9984 -0.5564  1.9402
  883MOL0     H19198   9.361   1.533   2.256  0.5846 -0.1090 -0.0959
  883MOL0     H19199   9.438   1.627   2.457 -0.5327 -1.6385 -0.1873
  883MOL0     H19200   9.529   1.708   2.323 -3.5123  0.8732  0.2619
  883MOL0     H19201   9.721   1.552   2.363  0.0241 -1.6500  0.4772
  883MOL0     H19202   9.628   1.465   2.484  0.2248  1.2425  2.5788
  883MOL0     H19203   9.767   1.825   2.669 -2.3936 -1.6527  3.8774
  883MOL0     H19204   9.888   1.490   2.064 -0.7098  1.7371  2.6574
  883MOL0     H19205  10.040   1.291   2.076 -1.1215  1.3715 -2.1547
  884MOL0     O19206  10.936   5.323  10.476 -0.6949 -0.3275 -1.0053
  884MOL0     C19207  11.046   5.372  10.457 -0.2134 -0.2161 -0.0864
  884MOL0     O19208  11.106   5.396  10.329 -0.8512  0.1267 -0.1752
  884MOL0     C19209  11.035   5.379  10.210 -0.1644 -0.2850 -0.2536
  884MOL0     C19210  11.117   5.348  10.099 -0.8038  0.7358 -0.0421
  884MOL0     C19211  11.058   5.329   9.978 -0.7012 -0.1296 -0.3030
  884MOL0     C19212  10.923   5.366   9.960 -0.2582 -0.2017  0.8521
  884MOL0     O19213  10.894   5.373   9.826 -0.2028  0.4425  0.0882
  884MOL0     C19214  10.748   5.391   9.799  0.6652  0.7565  0.5584
  884MOL0     C19215  10.688   5.251   9.809  0.1997 -0.2385  0.5339
  884MOL0     C19216  10.541   5.266   9.857  0.2182  0.1943  0.5590
  884MOL0     C19217  10.477   5.128   9.847  0.7162  0.6221 -0.7557
  884MOL0     C19218  10.324   5.128   9.864  0.1830 -0.5271 -0.6485
  884MOL0     C19219  10.283   5.180  10.003  0.4343 -0.1652 -0.0834
  884MOL0     C19220  10.131   5.202  10.018  0.3830 -0.1704  0.5884
  884MOL0     C19221  10.085   5.229  10.161  0.0096  0.7186 -0.7497
  884MOL0     N19222  10.086   5.368  10.197  0.0676  1.4618 -0.6366
  884MOL0     C19223   9.967   5.435  10.217 -1.3745  1.2342  0.4386
  884MOL0     C19224   9.999   5.544  10.286  0.4527 -0.2201 -0.3028
  884MOL0     C19225   9.908   5.659  10.324  0.3947  0.7016 -0.3712
  884MOL0     C19226   9.912   5.781  10.238 -0.4213 -0.3230 -0.4188
  884MOL0     C19227   9.920   5.762  10.086 -0.7990  0.8008 -0.2396
  884MOL0     C19228   9.972   5.889  10.010  0.1263 -0.2824 -0.4451
  884MOL0     O19229   9.982   5.845   9.874  0.2740 -1.4459 -0.1319
  884MOL0     C19230  10.101   5.793   9.827 -0.2339  0.3538 -0.1904
  884MOL0     C19231  10.198   5.737   9.906  0.5468 -0.1195  0.3870
  884MOL0     C19232  10.324   5.702   9.851 -0.1041 -0.2749  0.0690
  884MOL0     C19233  10.413   5.633   9.952 -0.7236 -0.2319 -0.7969
  884MOL0     C19234  10.350   5.726   9.717 -0.7395 -0.9597  0.2851
  884MOL0     C19235  10.486   5.701   9.651 -0.2979  0.1947  0.6375
  884MOL0     O19236  10.518   5.807   9.559 -0.2349  0.3623  0.4850
  884MOL0     C19237  10.578   5.765   9.444  1.0871  0.4144  0.1015
  884MOL0     C19238  10.702   5.820   9.413 -0.5468  0.2739 -0.2929
  884MOL0     C19239  10.772   5.767   9.299  0.0025  0.5536 -0.1165
  884MOL0     C19240  10.711   5.687   9.208 -0.0023  0.7514  0.4742
  884MOL0     O19241  10.782   5.636   9.093 -0.4707 -0.5126  0.3734
  884MOL0     C19242  10.705   5.599   8.971  0.4764 -0.2904 -0.5712
  884MOL0     C19243  10.798   5.612   8.856 -0.4444 -0.4170  0.5618
  884MOL0     C19244  10.912   5.520   8.846 -0.6611  0.4506  0.2898
  884MOL0     C19245  10.854   5.387   8.801 -0.0825  0.0756  1.1541
  884MOL0     C19246  10.957   5.272   8.800  0.0221 -0.2335 -0.6922
  884MOL0     C19247  10.879   5.139   8.775  0.0127  0.5108 -0.3532
  884MOL0     C19248  10.966   5.008   8.785 -0.0290  0.6593 -0.5278
  884MOL0     C19249  10.879   4.892   8.797 -0.2638  0.1461 -0.8441
  884MOL0    Cl19250  10.993   4.755   8.796 -0.2502  0.3613 -0.2946
  884MOL0     C19251  10.580   5.636   9.231  0.2946 -0.2619 -0.3847
  884MOL0     C19252  10.521   5.675   9.357  1.0473  1.3391  0.8654
  884MOL0     O19253  10.544   5.594   9.664 -0.1160  0.5490  0.2256
  884MOL0     C19254  10.253   5.779   9.639 -0.4496  0.3142 -0.2708
  884MOL0     C19255  10.126   5.809   9.693 -0.1475 -0.1007  0.4346
  884MOL0     N19256  10.131   5.555  10.304 -1.0597  0.2000 -0.0902
  884MOL0     N19257  10.186   5.444  10.258 -0.3786  0.2494 -1.2155
  884MOL0     C19258  10.845   5.400  10.070  0.3228 -0.4071 -0.3455
  884MOL0     C19259  10.899   5.407  10.196  0.6571 -0.2353  0.3070
  884MOL0     C19260  11.122   5.414  10.580  1.5220  0.0709  1.1356
  884MOL0     C19261  11.243   5.469  10.565 -0.1344  0.4766 -0.0558
  884MOL0     C19262  11.310   5.527  10.677 -0.7853  0.4019 -0.5617
  884MOL0     C19263  11.257   5.516  10.806  0.4018 -0.8706 -0.6145
  884MOL0     O19264  11.327   5.582  10.904  0.1590  0.3071  0.5604
  884MOL0     C19265  11.260   5.611  11.021  0.0740 -0.3354  0.1610
  884MOL0     C19266  11.325   5.729  11.076 -0.2659  0.4325  1.2751
  884MOL0     C19267  11.255   5.824  11.177 -0.6331  0.9617 -0.0967
  884MOL0     C19268  11.348   5.939  11.222  0.3336 -0.1069  0.3246
  884MOL0     C19269  11.286   6.004  11.335 -0.3407 -0.7842  0.2686
  884MOL0     C19270  11.208   6.055  11.407 -0.3075  0.5513 -0.1544
  884MOL0     C19271  11.133   5.445  10.823 -0.0490 -0.3614  0.3004
  884MOL0     C19272  11.064   5.396  10.711  0.7071  0.2250  1.1429
  884MOL0     H19273  11.225   5.354  10.111 -0.6008 -0.0118 -1.3314
  884MOL0     H19274  11.118   5.315   9.889  1.1262  0.9634  0.6933
  884MOL0     H19275  10.698   5.463   9.864 -0.1453  1.1167 -0.4319
  884MOL0     H19276  10.723   5.436   9.702  2.4699 -0.7169 -0.6658
  884MOL0     H19277  10.686   5.210   9.707 -0.5547  1.6683 -0.2694
  884MOL0     H19278  10.738   5.186   9.882 -1.1588 -2.7788 -0.6616
  884MOL0     H19279  10.543   5.312   9.956 -1.2960  1.6029 -0.0232
  884MOL0     H19280  10.482   5.327   9.789 -0.7771  0.0090  1.2319
  884MOL0     H19281  10.502   5.065   9.761  1.0060  1.4622 -1.3018
  884MOL0     H19282  10.527   5.069   9.924 -0.8947  0.0122 -0.1349
  884MOL0     H19283  10.277   5.193   9.789  1.6226  0.4804 -0.7027
  884MOL0     H19284  10.287   5.027   9.843  1.7589 -1.3682  0.4194
  884MOL0     H19285  10.327   5.108  10.072 -1.2233  0.2116  1.4376
  884MOL0     H19286  10.345   5.269  10.020 -3.0804  2.2438  1.3520
  884MOL0     H19287  10.103   5.292   9.962  1.9991  0.3966  0.6522
  884MOL0     H19288  10.083   5.111   9.978 -0.8303  0.8446 -0.3584
  884MOL0     H19289  10.157   5.184  10.230 -0.0833  2.0586  0.2555
  884MOL0     H19290   9.989   5.181  10.178 -0.1231  1.0723 -0.4996
  884MOL0     H19291   9.865   5.408  10.191 -1.0018  0.1174  0.0673
  884MOL0     H19292   9.808   5.616  10.308 -0.3066  2.1243  0.0822
  884MOL0     H19293   9.901   5.675  10.432 -2.9775 -3.3832  0.2740
  884MOL0     H19294   9.993   5.839  10.283 -3.0478  2.3473  1.2225
  884MOL0     H19295   9.826   5.840  10.272  0.2343  0.9652 -0.9280
  884MOL0     H19296   9.825   5.725  10.046 -2.3730  0.0174  3.7612
  884MOL0     H19297   9.984   5.678  10.057 -3.0329 -0.5300 -1.5530
  884MOL0     H19298  10.068   5.924  10.048  1.3559 -1.9216 -1.8859
  884MOL0     H19299   9.894   5.964  10.030 -0.9071 -1.8372  1.7043
  884MOL0     H19300  10.174   5.730  10.011 -1.0656  1.7466  0.1855
  884MOL0     H19301  10.514   5.633   9.911 -1.3964 -0.2570 -2.5441
  884MOL0     H19302  10.409   5.689  10.046  0.6966  0.9792 -1.4151
  884MOL0     H19303  10.390   5.526   9.965  1.3696 -0.6273  0.0611
  884MOL0     H19304  10.759   5.879   9.483 -0.1977 -0.0820 -0.2755
  884MOL0     H19305  10.877   5.793   9.295 -0.5694  3.6063  1.7805
  884MOL0     H19306  10.678   5.494   8.984 -0.1666 -0.2446 -1.4665
  884MOL0     H19307  10.623   5.671   8.967  2.0407  1.5947 -0.5331
  884MOL0     H19308  10.739   5.604   8.764  1.3196 -1.8570 -0.5059
  884MOL0     H19309  10.836   5.714   8.856  0.1329 -0.6223  1.3766
  884MOL0     H19310  10.973   5.504   8.935  1.9878 -0.3736 -1.5423
  884MOL0     H19311  10.989   5.556   8.778 -0.8106 -2.2013 -1.4457
  884MOL0     H19312  10.764   5.361   8.858 -0.8970  0.7075  0.1980
  884MOL0     H19313  10.820   5.401   8.697  1.8117  0.9226  0.6148
  884MOL0     H19314  11.001   5.270   8.900 -1.2289  0.4419 -0.1008
  884MOL0     H19315  11.015   5.304   8.714 -0.9161  1.0082 -0.8883
  884MOL0     H19316  10.818   5.109   8.862  1.3787 -0.5299  0.2711
  884MOL0     H19317  10.823   5.148   8.682  1.2975 -0.2213 -1.2078
  884MOL0     H19318  11.020   5.023   8.878 -1.4137 -0.1865  0.4593
  884MOL0     H19319  11.040   5.002   8.705  0.8469 -0.6850  0.3452
  884MOL0     H19320  10.808   4.884   8.714 -0.3065 -2.6008 -0.6188
  884MOL0     H19321  10.829   4.882   8.894  3.5853  1.2160  1.4346
  884MOL0     H19322  10.525   5.575   9.159 -2.7735 -0.4838  1.9182
  884MOL0     H19323  10.420   5.637   9.365  0.1895  3.2063 -0.3943
  884MOL0     H19324  10.273   5.793   9.533  1.5171 -1.2098 -0.1574
  884MOL0     H19325  10.047   5.850   9.631  0.6949 -1.8720 -1.9561
  884MOL0     H19326  10.742   5.431  10.060  1.6149  3.5989 -4.6323
  884MOL0     H19327  10.831   5.438  10.275  0.0716  0.2086 -0.3592
  884MOL0     H19328  11.298   5.492  10.474  2.3916  1.3174  1.5809
  884MOL0     H19329  11.405   5.578  10.680 -0.4180 -0.2516  2.5615
  884MOL0     H19330  11.160   5.638  10.985  1.5570  2.7923 -2.0107
  884MOL0     H19331  11.260   5.524  11.088  0.4053 -0.9564 -0.6266
  884MOL0     H19332  11.356   5.799  10.998 -2.1739 -0.2702 -0.1923
  884MOL0     H19333  11.424   5.692  11.105  0.0336 -0.0287 -0.2541
  884MOL0     H19334  11.239   5.763  11.267 -2.3553  1.4379 -0.0396
  884MOL0     H19335  11.162   5.861  11.133  0.8315  0.8543 -3.6058
  884MOL0     H19336  11.370   6.005  11.138  1.6472  1.2335  1.6570
  884MOL0     H19337  11.445   5.896  11.250  0.6909 -0.0571 -0.7962
  884MOL0     H19338  11.139   6.114  11.464  1.2379  3.9100 -1.5179
  884MOL0     H19339  11.104   5.428  10.927 -0.7886  0.2586  0.2127
  884MOL0     H19340  10.966   5.351  10.720  1.2176 -0.8277  1.6104
  885MOL0     O19341   2.201   2.490   8.939  0.4734 -1.0990  0.3451
  885MOL0     C19342   2.183   2.509   9.058 -0.3518 -1.0328 -0.5294
  885MOL0     O19343   2.073   2.572   9.105  0.0175  0.3651 -0.5815
  885MOL0     C19344   1.979   2.618   9.014  0.2186  1.0369 -0.2275
  885MOL0     C19345   1.883   2.526   8.972  0.2666  0.1600  0.7320
  885MOL0     C19346   1.793   2.554   8.871 -0.1453 -0.5503  0.5047
  885MOL0     C19347   1.797   2.682   8.810 -0.0969  0.3775  0.4360
  885MOL0     O19348   1.717   2.697   8.701 -0.0934 -1.0818  0.2555
  885MOL0     C19349   1.672   2.832   8.680  0.6788 -0.1033  0.3368
  885MOL0     C19350   1.549   2.848   8.583  0.7396  0.0614  1.1500
  885MOL0     C19351   1.555   2.783   8.446  0.5258 -1.1282 -0.0413
  885MOL0     C19352   1.434   2.825   8.361 -0.6396  1.0208 -0.3130
  885MOL0     C19353   1.430   2.717   8.254  0.3877 -0.0921 -0.0499
  885MOL0     C19354   1.352   2.771   8.132 -0.1303  0.7362 -0.7516
  885MOL0     C19355   1.211   2.822   8.165 -0.4047  1.4505 -0.0843
  885MOL0     C19356   1.142   2.848   8.030 -0.2025 -0.0167  0.1564
  885MOL0     N19357   1.054   2.963   8.041 -0.5485  0.0827 -0.3578
  885MOL0     C19358   1.087   3.089   8.086 -0.0664 -0.1722  0.4112
  885MOL0     C19359   0.970   3.161   8.083  0.2166  0.2780 -0.2931
  885MOL0     C19360   0.932   3.292   8.142 -0.7765  0.0572 -0.3579
  885MOL0     C19361   0.938   3.279   8.290  0.2038 -0.4013 -0.0653
  885MOL0     C19362   0.830   3.173   8.340  0.0188  1.1243 -0.4334
  885MOL0     C19363   0.689   3.237   8.362  0.6228  0.1664  0.5915
  885MOL0     O19364   0.614   3.146   8.442 -0.6609 -0.5705  0.3585
  885MOL0     C19365   0.493   3.186   8.488 -0.9634 -0.4475 -1.7011
  885MOL0     C19366   0.424   3.096   8.578 -0.9621 -0.2302  0.1823
  885MOL0     C19367   0.298   3.129   8.627 -0.1467 -0.5616  0.6893
  885MOL0     C19368   0.243   3.017   8.707  0.2189  0.4105  0.1100
  885MOL0     C19369   0.234   3.253   8.589 -0.6082  0.2178  0.3092
  885MOL0     C19370   0.098   3.278   8.626 -0.6456  0.1597 -0.0678
  885MOL0     O19371   0.029   3.375   8.555  0.8367 -0.5478  0.1326
  885MOL0     C19372  -0.083   3.426   8.609  0.1229  0.3342 -0.0360
  885MOL0     C19373  -0.205   3.359   8.610  0.0267  0.4243  0.5702
  885MOL0     C19374  -0.324   3.411   8.650 -0.7453 -0.2326 -0.1897
  885MOL0     C19375  -0.320   3.546   8.698 -0.4999  0.4274 -0.1902
  885MOL0     O19376  -0.435   3.611   8.727 -0.0366  0.3070 -0.4285
  885MOL0     C19377  -0.456   3.755   8.726 -1.5078  0.2544 -0.1327
  885MOL0     C19378  -0.609   3.772   8.763 -0.1186  1.2196 -0.9380
  885MOL0     C19379  -0.634   3.916   8.792 -0.5009 -0.0444  0.3107
  885MOL0     C19380  -0.643   4.000   8.664 -0.7347  0.2113  0.3205
  885MOL0     C19381  -0.655   4.140   8.696  0.2541 -1.0605 -0.3143
  885MOL0     C19382  -0.721   4.224   8.590 -0.0790 -1.2303  0.2372
  885MOL0     C19383  -0.684   4.380   8.601 -0.1426  0.0605 -0.3914
  885MOL0     C19384  -0.719   4.442   8.732 -0.0803 -0.6250 -0.5180
  885MOL0    Cl19385  -0.904   4.461   8.740 -0.1123  0.0868  0.0856
  885MOL0     C19386  -0.196   3.622   8.685  0.6811 -0.2418  0.2350
  885MOL0     C19387  -0.079   3.564   8.649  0.4830  0.9771  0.1971
  885MOL0     O19388   0.062   3.240   8.733  0.8936 -0.1734  0.5267
  885MOL0     C19389   0.309   3.341   8.510  0.3681  0.5120  0.0248
  885MOL0     C19390   0.433   3.304   8.458  0.5767  0.7816  1.5485
  885MOL0     N19391   0.881   3.084   8.009 -0.0952 -1.0843  0.6284
  885MOL0     N19392   0.931   2.965   7.994 -0.5807  0.4680 -0.2813
  885MOL0     C19393   1.888   2.780   8.860  0.7627 -0.1994  0.4627
  885MOL0     C19394   1.974   2.745   8.969  0.5418 -0.2940 -0.5004
  885MOL0     C19395   2.288   2.468   9.144  0.3551  0.2335  1.1038
  885MOL0     C19396   2.261   2.441   9.278  0.0550 -0.5101  0.5047
  885MOL0     C19397   2.350   2.379   9.366 -0.6102 -1.3657  0.7272
  885MOL0     C19398   2.478   2.362   9.320 -0.2167  0.9689 -0.9537
  885MOL0     O19399   2.567   2.281   9.388 -0.4006 -0.2330  0.1106
  885MOL0     C19400   2.555   2.263   9.532  0.4658 -0.6712  1.0399
  885MOL0     C19401   2.672   2.175   9.584  0.0591  0.6180  0.2913
  885MOL0     C19402   2.820   2.226   9.601 -0.2469  0.3192  0.2305
  885MOL0     C19403   2.856   2.322   9.494  0.0418 -1.8649  0.1658
  885MOL0     C19404   2.989   2.356   9.514 -0.2079  0.3112 -0.3165
  885MOL0     C19405   3.099   2.401   9.518  0.6986 -0.2365  0.6907
  885MOL0     C19406   2.512   2.398   9.192  0.6468  0.7281  1.0551
  885MOL0     C19407   2.419   2.455   9.105  0.1704  0.5823  0.9045
  885MOL0     H19408   1.875   2.430   9.022 -3.0739 -0.8341 -1.3367
  885MOL0     H19409   1.715   2.480   8.851  0.9101 -1.6477  0.3291
  885MOL0     H19410   1.634   2.868   8.776 -0.5457 -0.9204  0.1825
  885MOL0     H19411   1.746   2.894   8.629 -0.7410  0.6497 -0.8717
  885MOL0     H19412   1.458   2.802   8.625  1.5156  1.0623  4.1998
  885MOL0     H19413   1.529   2.955   8.574  3.2370  0.4435 -1.1153
  885MOL0     H19414   1.647   2.812   8.394  0.3956 -0.7398 -0.0498
  885MOL0     H19415   1.561   2.674   8.455  2.9059 -1.0244  0.2818
  885MOL0     H19416   1.355   2.803   8.433 -0.1420  0.4038  0.0604
  885MOL0     H19417   1.442   2.926   8.320  1.1695  0.9497 -0.2282
  885MOL0     H19418   1.534   2.696   8.226  0.9680  0.3850  1.6325
  885MOL0     H19419   1.381   2.629   8.296 -0.1075  0.3789  0.3696
  885MOL0     H19420   1.412   2.854   8.092  1.6447  0.0016  0.2731
  885MOL0     H19421   1.354   2.693   8.056 -0.4875 -1.3954  1.3144
  885MOL0     H19422   1.149   2.758   8.228  0.1930  1.6815  0.7536
  885MOL0     H19423   1.219   2.912   8.226  2.4674  1.2327  0.0342
  885MOL0     H19424   1.086   2.756   8.014 -1.8830  1.1938 -1.4001
  885MOL0     H19425   1.220   2.854   7.953 -1.1557 -1.0234 -0.9337
  885MOL0     H19426   1.184   3.119   8.122 -0.4125  3.0693 -1.0099
  885MOL0     H19427   1.004   3.361   8.096  0.2484 -2.7647 -3.4077
  885MOL0     H19428   0.834   3.323   8.106 -1.2034 -0.4075  0.3738
  885MOL0     H19429   0.909   3.376   8.331 -3.9444 -0.3483 -2.5520
  885MOL0     H19430   1.040   3.248   8.313  0.2787 -0.1603 -0.0656
  885MOL0     H19431   0.865   3.144   8.440  1.1847  1.9911 -0.5715
  885MOL0     H19432   0.823   3.082   8.279  2.4749  0.5824 -0.0260
  885MOL0     H19433   0.635   3.258   8.270  1.5108  0.3367  0.0942
  885MOL0     H19434   0.713   3.325   8.421 -0.0805  0.7871 -0.0317
  885MOL0     H19435   0.466   2.997   8.593  0.1904 -0.1311 -1.9677
  885MOL0     H19436   0.266   3.027   8.814  1.4794  2.7892 -0.3216
  885MOL0     H19437   0.136   2.998   8.697  0.5949 -1.0700 -1.5794
  885MOL0     H19438   0.289   2.924   8.672  1.9813  1.1018  0.4646
  885MOL0     H19439  -0.208   3.256   8.576  0.0788  0.2777  1.0032
  885MOL0     H19440  -0.419   3.360   8.657 -0.4441 -0.8177 -0.1972
  885MOL0     H19441  -0.389   3.814   8.790  1.2055 -1.4122 -1.2595
  885MOL0     H19442  -0.428   3.791   8.627  1.9700 -0.2809  0.5411
  885MOL0     H19443  -0.676   3.737   8.684 -2.4878  0.6121  1.2121
  885MOL0     H19444  -0.634   3.710   8.850  0.0403  2.6904  0.1962
  885MOL0     H19445  -0.556   3.946   8.862  0.4658 -1.5230 -0.0986
  885MOL0     H19446  -0.721   3.929   8.857 -0.0370 -1.5763  1.2871
  885MOL0     H19447  -0.562   3.982   8.593  0.3918  5.6094 -0.1661
  885MOL0     H19448  -0.735   3.966   8.615  0.4818 -0.1299 -1.8542
  885MOL0     H19449  -0.557   4.178   8.723  0.1251  0.6448 -2.0100
  885MOL0     H19450  -0.720   4.139   8.783  1.7111 -2.7131  0.8203
  885MOL0     H19451  -0.674   4.208   8.492  1.5228  0.2075  0.7274
  885MOL0     H19452  -0.827   4.197   8.587 -0.2389 -0.6802  0.8155
  885MOL0     H19453  -0.705   4.440   8.513  0.2719  2.6819  1.1984
  885MOL0     H19454  -0.575   4.391   8.597 -0.4726  5.3108 -2.9309
  885MOL0     H19455  -0.664   4.534   8.755 -0.5351 -0.9222  2.0520
  885MOL0     H19456  -0.690   4.380   8.817 -2.4552  2.1663  2.6168
  885MOL0     H19457  -0.185   3.729   8.703 -0.4319  0.0381 -0.6390
  885MOL0     H19458   0.007   3.630   8.640 -0.4067  1.8648 -3.0028
  885MOL0     H19459   0.271   3.437   8.478  1.8852  1.6443  1.4817
  885MOL0     H19460   0.479   3.370   8.385  2.2510 -0.4470  1.4490
  885MOL0     H19461   1.905   2.876   8.814  0.2694  0.2980  1.3030
  885MOL0     H19462   2.039   2.823   9.005  0.0776 -0.2820  0.3151
  885MOL0     H19463   2.161   2.453   9.317  0.2536 -3.8072  2.4195
  885MOL0     H19464   2.321   2.348   9.466  0.4781 -1.8532  0.9071
  885MOL0     H19465   2.554   2.364   9.574 -1.9430  0.8948 -2.2481
  885MOL0     H19466   2.456   2.219   9.550 -1.1614  2.1128 -0.3916
  885MOL0     H19467   2.678   2.077   9.535  1.4732  2.2097 -2.9862
  885MOL0     H19468   2.626   2.146   9.679 -0.2761  1.4312  0.3811
  885MOL0     H19469   2.895   2.147   9.603 -1.0033 -0.4534 -0.7820
  885MOL0     H19470   2.817   2.282   9.695  1.8135  1.8210 -0.5219
  885MOL0     H19471   2.783   2.403   9.484  2.3133  0.1776 -0.9776
  885MOL0     H19472   2.838   2.259   9.407  0.9198 -1.5145 -0.2738
  885MOL0     H19473   3.192   2.449   9.541  1.1537  0.2749 -1.8512
  885MOL0     H19474   2.616   2.371   9.173  0.1220 -1.4800  1.0454
  885MOL0     H19475   2.443   2.478   9.001 -0.6570 -3.4951 -0.3875
  886MOL0     O19476   6.165   5.519   9.073 -0.0829 -0.2600 -0.6229
  886MOL0     C19477   6.058   5.554   9.117  0.4887 -0.7396  0.3876
  886MOL0     O19478   5.989   5.496   9.220 -0.3245 -0.2625 -0.4833
  886MOL0     C19479   6.071   5.428   9.308  0.2764  0.4198 -1.3313
  886MOL0     C19480   6.166   5.331   9.274 -0.0453 -0.2019 -0.4813
  886MOL0     C19481   6.256   5.274   9.368 -0.6338 -0.3861 -0.3489
  886MOL0     C19482   6.255   5.322   9.495  0.7546  0.6529  0.1104
  886MOL0     O19483   6.341   5.259   9.578 -0.8512 -0.0925  0.6274
  886MOL0     C19484   6.353   5.315   9.702 -0.0001  0.0701  0.4394
  886MOL0     C19485   6.463   5.249   9.788 -0.2280 -0.0893  0.6950
  886MOL0     C19486   6.449   5.097   9.784  0.2071  0.2916 -0.3545
  886MOL0     C19487   6.554   5.034   9.877 -0.2770  0.5949  0.0832
  886MOL0     C19488   6.513   4.888   9.895  0.2137 -0.3204  0.4796
  886MOL0     C19489   6.596   4.813   9.988  0.3884  1.2122  0.7139
  886MOL0     C19490   6.551   4.660   9.985  0.7919 -0.0397  0.0354
  886MOL0     C19491   6.451   4.622  10.101  0.4211  1.0233  0.7102
  886MOL0     N19492   6.430   4.477  10.092 -0.4848  0.2417  0.6768
  886MOL0     C19493   6.344   4.408  10.015  0.3984 -0.1201  0.7324
  886MOL0     C19494   6.351   4.274  10.045 -0.4479 -0.5130 -1.0001
  886MOL0     C19495   6.278   4.156   9.985 -0.4349  0.8430  0.6460
  886MOL0     C19496   6.323   4.120   9.841 -0.8307  0.1430 -0.3436
  886MOL0     C19497   6.217   4.019   9.794  1.6570  0.4814  0.7288
  886MOL0     C19498   6.198   4.031   9.643  0.8244  0.7956  0.2560
  886MOL0     O19499   6.099   3.927   9.607 -0.1341  0.4338  0.6602
  886MOL0     C19500   6.048   3.916   9.478 -0.5090 -0.5632  1.1618
  886MOL0     C19501   6.086   4.008   9.377 -0.1276  0.1408 -0.4631
  886MOL0     C19502   6.038   4.010   9.245 -0.3106 -0.7731  0.0682
  886MOL0     C19503   6.101   4.116   9.151 -0.4174 -0.1519  0.3341
  886MOL0     C19504   5.929   3.921   9.216 -0.2700  0.6932 -0.7822
  886MOL0     C19505   5.861   3.910   9.086 -0.0229 -0.2965  0.6750
  886MOL0     O19506   5.715   3.907   9.081 -0.3460  0.2280 -0.6752
  886MOL0     C19507   5.660   3.891   8.961  0.0367 -0.6892  0.0209
  886MOL0     C19508   5.586   3.991   8.909  0.2576 -0.1642  0.1502
  886MOL0     C19509   5.549   3.984   8.772 -0.1925  0.0110  0.6146
  886MOL0     C19510   5.569   3.862   8.705 -0.0024  0.2322 -0.6542
  886MOL0     O19511   5.528   3.843   8.576 -0.1332  0.6126  0.0830
  886MOL0     C19512   5.468   3.951   8.506 -0.4266  1.6288  0.0855
  886MOL0     C19513   5.393   3.878   8.390 -0.0039  0.1524  0.0560
  886MOL0     C19514   5.323   3.991   8.306 -0.7000  0.5251  0.0176
  886MOL0     C19515   5.416   4.064   8.215 -0.8640  0.6583  0.2189
  886MOL0     C19516   5.465   3.978   8.089 -0.1890  0.6076  0.4927
  886MOL0     C19517   5.535   4.078   7.990 -0.1485  0.4687  0.5481
  886MOL0     C19518   5.646   4.173   8.047  0.8451 -0.9599  1.4713
  886MOL0     C19519   5.726   4.253   7.938  0.6808 -1.2118  0.4154
  886MOL0    Cl19520   5.801   4.128   7.834 -0.0375  0.2426 -0.0566
  886MOL0     C19521   5.641   3.752   8.760  0.1525 -0.5732 -0.3169
  886MOL0     C19522   5.682   3.769   8.896 -0.1249 -0.8265  0.8362
  886MOL0     O19523   5.939   3.886   8.990  0.5212 -0.7922  0.4988
  886MOL0     C19524   5.889   3.833   9.317 -0.2824  0.3540 -0.1046
  886MOL0     C19525   5.954   3.826   9.446 -0.5371  0.5002 -0.2601
  886MOL0     N19526   6.459   4.270  10.138  0.4385 -0.0574  0.1070
  886MOL0     N19527   6.512   4.391  10.158  0.1480  0.4779 -0.1240
  886MOL0     C19528   6.159   5.413   9.532  0.7199 -0.6032  1.1023
  886MOL0     C19529   6.072   5.474   9.440 -0.0558 -0.5347  0.8769
  886MOL0     C19530   5.992   5.649   9.033 -0.2032 -1.0800  0.5965
  886MOL0     C19531   5.848   5.650   9.028  0.5440  0.2750  0.3467
  886MOL0     C19532   5.778   5.730   8.936 -0.3897 -0.2211 -0.2883
  886MOL0     C19533   5.853   5.819   8.854  0.5528 -0.4460 -0.0856
  886MOL0     O19534   5.767   5.903   8.785 -0.2360  0.0023  0.5073
  886MOL0     C19535   5.811   5.972   8.663 -0.6383 -0.4560  0.2788
  886MOL0     C19536   5.727   5.926   8.538  0.1490  0.6559  0.0519
  886MOL0     C19537   5.786   5.970   8.408  0.4701  0.0424 -0.4377
  886MOL0     C19538   5.729   5.874   8.297 -0.8366 -0.0781  0.2016
  886MOL0     C19539   5.813   5.753   8.287 -1.1165  0.0995  0.4015
  886MOL0     C19540   5.890   5.658   8.297 -0.0119 -0.4229 -0.1677
  886MOL0     C19541   5.990   5.826   8.868 -0.4490  0.8594 -0.3845
  886MOL0     C19542   6.062   5.739   8.950 -0.2026 -0.3072  0.6955
  886MOL0     H19543   6.163   5.297   9.171 -1.1450  0.5938 -0.7320
  886MOL0     H19544   6.329   5.200   9.336  2.6325  1.7678  1.5514
  886MOL0     H19545   6.371   5.422   9.691  2.0614 -0.3210 -0.3761
  886MOL0     H19546   6.257   5.303   9.753 -0.5948 -0.8295 -0.8166
  886MOL0     H19547   6.566   5.274   9.762  0.1457  1.3751  3.2034
  886MOL0     H19548   6.448   5.287   9.890  0.5381  0.7422  0.5024
  886MOL0     H19549   6.349   5.075   9.823  0.8165 -1.1791  0.4495
  886MOL0     H19550   6.464   5.051   9.685  2.0314  0.9878 -0.4334
  886MOL0     H19551   6.656   5.043   9.839 -0.4041  1.7060 -0.0251
  886MOL0     H19552   6.555   5.099   9.965 -2.3685 -0.7700  1.2001
  886MOL0     H19553   6.407   4.888   9.921 -0.4331  2.2012 -1.6622
  886MOL0     H19554   6.522   4.840   9.797 -2.9185  1.0454 -0.6113
  886MOL0     H19555   6.697   4.802   9.946 -0.2122 -1.6884 -0.2055
  886MOL0     H19556   6.604   4.850  10.090  4.6784 -2.3068  1.9834
  886MOL0     H19557   6.502   4.638   9.890 -1.2053  0.4104  0.9245
  886MOL0     H19558   6.647   4.608   9.995  0.9894  0.3332  0.1262
  886MOL0     H19559   6.362   4.685  10.094  1.4035  2.3090 -0.5593
  886MOL0     H19560   6.486   4.647  10.202 -2.2145  2.8307  1.2886
  886MOL0     H19561   6.272   4.445   9.943 -2.2578  1.9555  4.1306
  886MOL0     H19562   6.280   4.063  10.042  0.0098 -0.8880 -2.0325
  886MOL0     H19563   6.175   4.192   9.977 -0.3150  1.0421 -0.0734
  886MOL0     H19564   6.415   4.062   9.851 -1.2649 -0.5705 -0.3776
  886MOL0     H19565   6.331   4.206   9.774 -0.7183  0.2101 -0.2422
  886MOL0     H19566   6.121   4.040   9.841  0.7685 -0.3711 -0.6463
  886MOL0     H19567   6.250   3.921   9.831  2.0999  0.6566  0.7980
  886MOL0     H19568   6.295   4.022   9.593  0.2262 -1.9215 -0.5615
  886MOL0     H19569   6.158   4.130   9.619  0.7761  0.4460 -1.1521
  886MOL0     H19570   6.153   4.089   9.405 -0.3397  0.5694 -1.1511
  886MOL0     H19571   6.039   4.136   9.064  1.6205  2.4448 -0.6406
  886MOL0     H19572   6.121   4.213   9.196  2.9831 -0.3109 -0.5697
  886MOL0     H19573   6.199   4.078   9.122 -1.6787  0.2023 -5.5557
  886MOL0     H19574   5.560   4.074   8.974 -1.4705  1.7891 -2.8325
  886MOL0     H19575   5.493   4.066   8.730 -1.6780 -0.8354  0.8866
  886MOL0     H19576   5.387   4.000   8.561 -1.7811 -1.2325  0.8285
  886MOL0     H19577   5.549   4.016   8.474  0.3794 -0.7924 -3.3698
  886MOL0     H19578   5.475   3.828   8.337  2.0231 -2.4001  4.8953
  886MOL0     H19579   5.322   3.805   8.430 -0.1386 -0.1825 -0.7676
  886MOL0     H19580   5.286   4.066   8.376 -0.4349 -2.1759  3.3421
  886MOL0     H19581   5.236   3.946   8.256  0.1002 -1.0486 -0.0197
  886MOL0     H19582   5.362   4.151   8.176 -0.4767  0.6045 -0.4625
  886MOL0     H19583   5.505   4.096   8.270  1.0299 -0.7390 -1.8265
  886MOL0     H19584   5.375   3.939   8.042 -1.5535  0.5278  2.9940
  886MOL0     H19585   5.529   3.893   8.112 -1.8098 -1.3449 -1.8072
  886MOL0     H19586   5.591   4.025   7.913  0.3204  0.2160  1.0538
  886MOL0     H19587   5.460   4.145   7.946  1.2328  2.0758  0.5487
  886MOL0     H19588   5.708   4.107   8.109  0.9672 -1.4176  0.8672
  886MOL0     H19589   5.601   4.247   8.115 -1.7914 -1.3070  0.2461
  886MOL0     H19590   5.792   4.336   7.963  1.8982 -1.4290 -1.8461
  886MOL0     H19591   5.653   4.305   7.875  0.5931 -0.3973  1.1619
  886MOL0     H19592   5.668   3.659   8.710  1.9441 -0.2181 -0.0611
  886MOL0     H19593   5.750   3.703   8.949 -0.1460 -1.8662 -0.3630
  886MOL0     H19594   5.797   3.776   9.312  1.1584 -2.1651  0.5624
  886MOL0     H19595   5.915   3.755   9.518  3.1930  0.2893  1.7901
  886MOL0     H19596   6.147   5.455   9.632  1.1608  0.5648  0.6801
  886MOL0     H19597   6.000   5.548   9.473  2.0104  1.2280  1.6710
  886MOL0     H19598   5.792   5.571   9.078  1.4230 -1.0624 -0.6832
  886MOL0     H19599   5.671   5.714   8.926 -0.3358 -3.6864  2.5450
  886MOL0     H19600   5.816   6.080   8.683 -1.8545 -0.2907 -0.2210
  886MOL0     H19601   5.912   5.940   8.634 -0.4646  0.9138 -0.7491
  886MOL0     H19602   5.625   5.965   8.538 -0.5629 -1.0357 -1.8760
  886MOL0     H19603   5.707   5.819   8.527 -1.4613  1.1946 -3.3951
  886MOL0     H19604   5.893   5.948   8.406  0.6642  0.3145 -5.4636
  886MOL0     H19605   5.768   6.077   8.395 -0.7798 -0.2731 -1.6030
  886MOL0     H19606   5.749   5.935   8.208 -0.0601  0.9374  1.0515
  886MOL0     H19607   5.625   5.845   8.312 -0.8822  0.2911  0.5926
  886MOL0     H19608   5.944   5.574   8.336 -1.0336  0.1083  2.5943
  886MOL0     H19609   6.048   5.905   8.821  0.9338  1.3297  1.9431
  886MOL0     H19610   6.170   5.737   8.957 -0.1028 -3.0576 -0.3185
  887MOL0     O19611   4.731   6.835   7.919 -0.7582  0.2011  0.9222
  887MOL0     C19612   4.725   6.784   8.027 -0.0786  0.3628  0.8043
  887MOL0     O19613   4.615   6.747   8.081  0.6274 -0.0269  0.0498
  887MOL0     C19614   4.485   6.776   8.035  0.3485 -1.1686 -0.4163
  887MOL0     C19615   4.385   6.756   8.126 -0.1001  0.7886 -0.1059
  887MOL0     C19616   4.252   6.783   8.096 -0.0855  0.2450 -0.3520
  887MOL0     C19617   4.222   6.828   7.974 -0.0524  0.7923 -0.3477
  887MOL0     O19618   4.083   6.838   7.948 -0.3851 -0.2991 -0.2040
  887MOL0     C19619   4.044   6.852   7.805 -0.3160  0.0884 -0.6512
  887MOL0     C19620   3.901   6.888   7.779  0.2059  0.9669  0.7995
  887MOL0     C19621   3.866   7.027   7.828 -0.0182 -0.0726  0.2960
  887MOL0     C19622   3.711   7.026   7.840 -0.6411 -0.8135  0.7720
  887MOL0     C19623   3.667   7.175   7.854  0.2911  0.6856 -0.7735
  887MOL0     C19624   3.675   7.223   7.999  0.5506 -0.3129  0.1852
  887MOL0     C19625   3.730   7.359   8.012  0.7765  0.6070  0.1061
  887MOL0     C19626   3.726   7.427   8.149 -0.2407  0.8232 -0.0803
  887MOL0     N19627   3.586   7.451   8.191 -0.5869  0.3762  0.2622
  887MOL0     C19628   3.552   7.433   8.322 -0.1825 -0.1771  0.2796
  887MOL0     C19629   3.421   7.449   8.328  0.4199 -0.5655 -0.1783
  887MOL0     C19630   3.331   7.449   8.453  0.0840 -0.1977 -0.5484
  887MOL0     C19631   3.200   7.520   8.423 -0.4276  0.0527 -0.6306
  887MOL0     C19632   3.105   7.522   8.545  0.1195 -0.8000 -0.1082
  887MOL0     C19633   3.076   7.383   8.610 -0.2099 -0.0228  0.3843
  887MOL0     O19634   3.039   7.297   8.506 -0.2532  0.3066 -0.3737
  887MOL0     C19635   3.000   7.172   8.543 -0.4803  0.4778 -0.5769
  887MOL0     C19636   2.960   7.090   8.437  0.6361  0.0284 -0.1499
  887MOL0     C19637   2.921   6.949   8.459  0.1331  0.0800 -0.6605
  887MOL0     C19638   2.896   6.861   8.342 -0.0064 -0.3937 -0.5361
  887MOL0     C19639   2.927   6.896   8.595  0.8261  0.5555  0.4684
  887MOL0     C19640   2.888   6.759   8.629 -0.7104  0.1521  0.6285
  887MOL0     O19641   2.921   6.714   8.751 -0.5849  0.4299 -1.1362
  887MOL0     C19642   2.882   6.604   8.820  0.0902  0.6528  0.1181
  887MOL0     C19643   2.955   6.554   8.939  0.8762 -0.1285 -0.4029
  887MOL0     C19644   2.891   6.457   9.021  0.4611 -1.2512 -0.7310
  887MOL0     C19645   2.762   6.398   8.995  0.3813  0.5328 -0.9656
  887MOL0     O19646   2.718   6.289   9.078  0.4638 -0.6226 -0.0479
  887MOL0     C19647   2.584   6.239   9.064  0.6262  1.4487  0.0983
  887MOL0     C19648   2.571   6.090   9.097 -0.1776  0.2595 -0.5092
  887MOL0     C19649   2.627   6.040   9.234 -0.1520 -0.6101  0.0410
  887MOL0     C19650   2.786   6.041   9.249  0.3713 -0.5477 -0.1530
  887MOL0     C19651   2.837   5.980   9.393  0.5325 -0.1794  0.6536
  887MOL0     C19652   2.768   6.049   9.514 -0.3558  0.0703 -0.5039
  887MOL0     C19653   2.864   6.077   9.635  0.3697  0.9554  0.2012
  887MOL0     C19654   2.807   6.076   9.780 -0.6072 -0.3085 -0.7820
  887MOL0    Cl19655   2.702   5.926   9.829  0.1031  0.5329  0.7056
  887MOL0     C19656   2.696   6.444   8.875  0.1562 -0.5541 -0.1558
  887MOL0     C19657   2.757   6.537   8.796 -1.0046  0.7766  0.4990
  887MOL0     O19658   2.801   6.709   8.556 -0.3806 -0.2023  0.5726
  887MOL0     C19659   2.961   6.984   8.699 -0.1884  0.0922  0.4635
  887MOL0     C19660   2.999   7.117   8.680 -0.1403  1.0868  0.9344
  887MOL0     N19661   3.371   7.493   8.206 -0.2966 -0.5701  0.6595
  887MOL0     N19662   3.470   7.488   8.122  0.0565  0.0797 -0.3026
  887MOL0     C19663   4.316   6.858   7.879  0.2519 -0.0393  0.1306
  887MOL0     C19664   4.450   6.840   7.918 -0.0827 -0.7715  0.3116
  887MOL0     C19665   4.848   6.740   8.106  0.1612  0.4151 -0.1194
  887MOL0     C19666   4.844   6.651   8.219 -0.0806  0.4818  0.7393
  887MOL0     C19667   4.958   6.610   8.290  0.2346  0.3897 -0.2052
  887MOL0     C19668   5.078   6.645   8.242  0.1751  0.0178 -0.9488
  887MOL0     O19669   5.203   6.609   8.300 -0.3727 -0.0717  0.3563
  887MOL0     C19670   5.205   6.559   8.434 -1.0026  0.1382 -0.4213
  887MOL0     C19671   5.198   6.678   8.526  0.9828 -0.0970  0.2248
  887MOL0     C19672   5.270   6.659   8.659 -0.2063 -0.1479  0.5914
  887MOL0     C19673   5.400   6.734   8.659 -0.0157  0.3888  0.3904
  887MOL0     C19674   5.395   6.876   8.691  1.3440 -0.8818 -0.5103
  887MOL0     C19675   5.409   6.998   8.723 -0.9852  0.8185  0.0485
  887MOL0     C19676   5.083   6.726   8.130 -0.0519 -0.2118 -0.1017
  887MOL0     C19677   4.975   6.780   8.064 -0.4730 -0.0670  0.6804
  887MOL0     H19678   4.401   6.725   8.229 -2.0072  4.7343  1.5699
  887MOL0     H19679   4.160   6.769   8.151 -0.7420  0.2209 -1.4261
  887MOL0     H19680   4.105   6.930   7.759  0.7301  1.0442  2.1145
  887MOL0     H19681   4.065   6.756   7.756 -2.9862  0.0237 -1.8437
  887MOL0     H19682   3.880   6.882   7.671  1.3515 -0.6017  0.6333
  887MOL0     H19683   3.841   6.813   7.829  3.1636 -2.7278 -0.7218
  887MOL0     H19684   3.918   7.053   7.921 -2.7299 -0.4518  2.0156
  887MOL0     H19685   3.902   7.104   7.760  0.3557  1.3747  2.0379
  887MOL0     H19686   3.669   6.998   7.743  0.6522  1.7005 -0.6218
  887MOL0     H19687   3.676   6.953   7.913 -0.4568 -2.5814 -0.8081
  887MOL0     H19688   3.735   7.234   7.792 -1.2268  0.3561 -2.8460
  887MOL0     H19689   3.570   7.190   7.806  0.1428 -2.2344 -1.5250
  887MOL0     H19690   3.581   7.203   8.052  1.1359 -0.5722  1.1567
  887MOL0     H19691   3.756   7.163   8.043  1.1250 -0.9724 -1.6896
  887MOL0     H19692   3.832   7.350   7.972  1.1852 -0.8657  1.4000
  887MOL0     H19693   3.679   7.425   7.942  0.5301 -1.6472 -1.9430
  887MOL0     H19694   3.783   7.520   8.135  0.5287  0.3274 -0.3147
  887MOL0     H19695   3.787   7.368   8.218  1.1212  0.0166 -1.8794
  887MOL0     H19696   3.626   7.411   8.397  1.8645 -0.6437 -1.7593
  887MOL0     H19697   3.308   7.351   8.497  0.8037 -0.2091 -0.1810
  887MOL0     H19698   3.377   7.520   8.523 -0.3558  0.3317 -0.7889
  887MOL0     H19699   3.146   7.472   8.340 -4.2580  2.1105  0.4523
  887MOL0     H19700   3.233   7.619   8.390 -1.6771  0.2034 -1.4615
  887MOL0     H19701   3.007   7.557   8.512 -0.5802 -1.3574  1.2758
  887MOL0     H19702   3.129   7.597   8.621  0.0238  0.2302 -1.0616
  887MOL0     H19703   2.980   7.393   8.662  0.5870  0.1708  1.8796
  887MOL0     H19704   3.160   7.339   8.665  1.4372 -1.7576 -3.2138
  887MOL0     H19705   2.958   7.118   8.333  3.6762  0.4287 -0.1935
  887MOL0     H19706   2.942   6.762   8.346  0.4424 -0.1570  1.0542
  887MOL0     H19707   2.788   6.858   8.331 -0.0624 -1.9751  0.1454
  887MOL0     H19708   2.943   6.913   8.258  1.3027 -0.6833 -0.0114
  887MOL0     H19709   3.050   6.593   8.974  0.7992  1.5567 -1.9073
  887MOL0     H19710   2.951   6.407   9.095  0.5039 -1.1202 -0.6757
  887MOL0     H19711   2.515   6.282   9.138  1.0153  1.1407  0.6548
  887MOL0     H19712   2.542   6.241   8.963  0.5158 -2.0674 -0.0399
  887MOL0     H19713   2.465   6.063   9.089 -0.3406  0.8634 -0.4743
  887MOL0     H19714   2.625   6.035   9.019 -1.7172 -1.9938 -0.0692
  887MOL0     H19715   2.591   5.937   9.241 -2.1632  0.1217  1.2362
  887MOL0     H19716   2.598   6.103   9.319  2.1913 -0.7366  1.0146
  887MOL0     H19717   2.836   5.979   9.174 -0.6592 -1.0841 -0.4196
  887MOL0     H19718   2.817   6.144   9.228  0.1102  0.1426  2.4319
  887MOL0     H19719   2.943   6.002   9.405  0.5320 -0.3556  0.9922
  887MOL0     H19720   2.828   5.871   9.388 -0.0724 -0.0972 -1.6139
  887MOL0     H19721   2.714   6.141   9.489 -0.2756  0.1440 -0.4052
  887MOL0     H19722   2.694   5.975   9.545 -0.2505 -0.2405 -0.9781
  887MOL0     H19723   2.894   6.178   9.609 -0.4852  1.8402  2.3426
  887MOL0     H19724   2.949   6.009   9.644 -2.9641 -3.9182 -1.3321
  887MOL0     H19725   2.737   6.160   9.779  0.7157  0.8232 -0.9565
  887MOL0     H19726   2.879   6.110   9.855 -1.8998  0.7163  0.0405
  887MOL0     H19727   2.595   6.407   8.859 -0.3170  0.8980 -0.6963
  887MOL0     H19728   2.689   6.568   8.718 -3.2662 -0.3576  1.8864
  887MOL0     H19729   2.963   6.939   8.797  0.1143 -3.8271 -1.1505
  887MOL0     H19730   3.034   7.177   8.763  2.6176  0.5647  0.2622
  887MOL0     H19731   4.302   6.899   7.779 -0.5731 -0.5046  0.0525
  887MOL0     H19732   4.507   6.869   7.830 -2.0628 -0.8014 -1.0602
  887MOL0     H19733   4.751   6.606   8.252  0.0794 -2.2884 -2.1301
  887MOL0     H19734   4.925   6.556   8.378 -3.0201  1.1203 -0.8339
  887MOL0     H19735   5.139   6.474   8.456  3.8893 -3.4886  2.1882
  887MOL0     H19736   5.301   6.510   8.451 -0.8863  1.2941  2.9782
  887MOL0     H19737   5.094   6.706   8.546  0.3326 -0.7679 -1.9144
  887MOL0     H19738   5.234   6.768   8.476  0.1647 -0.7739 -1.6719
  887MOL0     H19739   5.289   6.556   8.692 -0.0584 -0.1761  0.4192
  887MOL0     H19740   5.215   6.708   8.740  0.1289  0.4201  0.4759
  887MOL0     H19741   5.456   6.709   8.568 -0.1293 -2.4234  1.0048
  887MOL0     H19742   5.461   6.689   8.737 -0.6401  2.5528  2.2361
  887MOL0     H19743   5.414   7.103   8.744  2.7664  0.3218  2.6375
  887MOL0     H19744   5.180   6.739   8.084  0.5363  1.0956  1.4043
  887MOL0     H19745   4.983   6.845   7.977  0.0471  0.8136  1.3770
  888MOL0     O19746   9.294  10.332   5.956  0.2469  1.1521  0.8464
  888MOL0     C19747   9.236  10.438   5.910 -0.2287  1.2812  0.2389
  888MOL0     O19748   9.288  10.524   5.818 -0.6904  0.0962 -0.1765
  888MOL0     C19749   9.419  10.501   5.795 -0.3776 -0.2636 -0.1503
  888MOL0     C19750   9.506  10.588   5.848  0.7485 -0.4981  0.7383
  888MOL0     C19751   9.640  10.579   5.817 -0.0053  0.3928 -0.5568
  888MOL0     C19752   9.690  10.472   5.744  0.0163 -0.1267  0.2418
  888MOL0     O19753   9.831  10.459   5.747  0.2593 -0.0410 -0.2471
  888MOL0     C19754   9.888  10.337   5.696 -0.7320  0.9989 -0.8687
  888MOL0     C19755  10.017  10.344   5.760 -0.9142 -0.4410  0.1513
  888MOL0     C19756  10.108  10.228   5.718  0.3215 -0.7463  0.2513
  888MOL0     C19757  10.039  10.090   5.708  0.3477 -0.2295 -0.3817
  888MOL0     C19758  10.135   9.964   5.701  0.9755 -0.7480 -1.4091
  888MOL0     C19759  10.243   9.984   5.596 -0.5751 -0.6596  0.1743
  888MOL0     C19760  10.312   9.849   5.553  0.3312 -0.1888 -0.3894
  888MOL0     C19761  10.370   9.759   5.667  0.2467  1.3360 -0.6746
  888MOL0     N19762  10.446   9.660   5.592  0.4769 -0.5028 -0.5887
  888MOL0     C19763  10.564   9.683   5.534 -0.1193 -0.4449 -0.4084
  888MOL0     C19764  10.607   9.564   5.495 -0.6608  0.9936  0.9451
  888MOL0     C19765  10.738   9.522   5.420 -0.6983 -0.1525  0.3352
  888MOL0     C19766  10.822   9.404   5.463  0.0044 -1.0873  0.2742
  888MOL0     C19767  10.969   9.418   5.439 -0.1648 -0.2688 -0.4539
  888MOL0     C19768  11.034   9.285   5.486  0.5639  0.2807 -0.3121
  888MOL0     O19769  11.168   9.315   5.522  0.3334  0.0317 -0.9799
  888MOL0     C19770  11.279   9.290   5.434 -0.1713  0.0848 -0.8568
  888MOL0     C19771  11.411   9.287   5.485  0.2450 -0.4185 -0.2835
  888MOL0     C19772  11.516   9.266   5.397 -0.2254  0.8957 -0.9242
  888MOL0     C19773  11.655   9.273   5.474 -0.7923 -0.1114  1.2003
  888MOL0     C19774  11.498   9.232   5.266  0.1646 -0.5361  0.1910
  888MOL0     C19775  11.600   9.174   5.176 -0.3623  0.1976  0.2638
  888MOL0     O19776  11.564   9.154   5.044 -0.2795  0.0430 -0.2990
  888MOL0     C19777  11.658   9.097   4.955  0.3721  0.0486  0.0956
  888MOL0     C19778  11.679   8.961   4.960 -0.0524 -0.2896  1.2827
  888MOL0     C19779  11.765   8.903   4.868  0.0020 -0.1188  1.3068
  888MOL0     C19780  11.838   8.982   4.774 -0.3423  0.0507 -0.0508
  888MOL0     O19781  11.939   8.940   4.688  0.0566  0.4531 -0.5782
  888MOL0     C19782  11.955   8.800   4.661 -0.8620 -0.1138  0.4139
  888MOL0     C19783  12.062   8.782   4.562  0.1664 -0.8198 -0.1370
  888MOL0     C19784  12.092   8.630   4.538 -0.3270  0.5232  0.5492
  888MOL0     C19785  12.205   8.619   4.430 -0.0769  0.5156  0.2425
  888MOL0     C19786  12.165   8.676   4.281 -0.8314 -0.3249  0.0280
  888MOL0     C19787  12.248   8.613   4.173 -0.4118 -0.3505  1.0360
  888MOL0     C19788  12.229   8.685   4.041  0.4959  0.3292 -0.3918
  888MOL0     C19789  12.305   8.616   3.925 -0.0315  0.3890 -0.0837
  888MOL0    Cl19790  12.256   8.451   3.893  0.4596 -0.2542  0.1556
  888MOL0     C19791  11.810   9.120   4.765  1.0671 -0.6312 -0.6202
  888MOL0     C19792  11.716   9.180   4.854  0.2139 -0.1603 -0.1780
  888MOL0     O19793  11.713   9.155   5.226  0.4318 -0.2566 -0.4912
  888MOL0     C19794  11.374   9.247   5.217  0.0318  0.1225  1.1093
  888MOL0     C19795  11.267   9.273   5.295  0.6337  1.3243  0.0693
  888MOL0     N19796  10.514   9.472   5.536 -0.1762 -0.5387 -0.2157
  888MOL0     N19797  10.411   9.529   5.596 -0.1750  0.4600 -0.7586
  888MOL0     C19798   9.599  10.393   5.678 -0.5194  0.5866  0.5833
  888MOL0     C19799   9.462  10.415   5.700  0.4596 -0.8690 -0.4242
  888MOL0     C19800   9.087  10.444   5.944  0.0506  0.0922  0.3958
  888MOL0     C19801   9.029  10.570   5.937 -1.1792 -0.1600  0.2098
  888MOL0     C19802   8.898  10.584   5.970  0.3257  0.2834  0.7460
  888MOL0     C19803   8.815  10.476   6.003  0.4284  0.7700  0.6572
  888MOL0     O19804   8.676  10.496   6.012 -0.1535  1.0661 -0.3591
  888MOL0     C19805   8.584  10.397   6.047  0.1103 -0.3089 -0.0817
  888MOL0     C19806   8.445  10.450   6.004 -0.1058  0.9284  0.1006
  888MOL0     C19807   8.425  10.597   6.046 -0.0862  0.8686 -0.3013
  888MOL0     C19808   8.280  10.644   6.015 -0.3353  0.4114  1.1043
  888MOL0     C19809   8.172  10.580   6.093 -0.2972 -0.3801  0.3806
  888MOL0     C19810   8.076  10.555   6.162  1.3426  0.8765 -0.7253
  888MOL0     C19811   8.876  10.348   6.011  0.2912  0.8176  0.4690
  888MOL0     C19812   9.011  10.334   5.982  0.8675 -0.3974  0.1402
  888MOL0     H19813   9.457  10.664   5.907 -0.5794 -0.2137 -0.6568
  888MOL0     H19814   9.705  10.649   5.869 -2.0819 -0.8029  4.1924
  888MOL0     H19815   9.829  10.248   5.721  0.6358  0.0398 -0.9518
  888MOL0     H19816   9.901  10.325   5.588  0.9127 -3.9997 -0.3490
  888MOL0     H19817  10.073  10.429   5.718 -1.7161  0.3995  0.7465
  888MOL0     H19818  10.010  10.357   5.868 -1.3390  2.1877 -0.1285
  888MOL0     H19819  10.153  10.242   5.619  2.8676 -2.2055  1.1205
  888MOL0     H19820  10.186  10.225   5.794  0.0825  0.5696  0.5655
  888MOL0     H19821   9.980  10.077   5.800  2.4406  0.1486  1.0744
  888MOL0     H19822   9.975  10.087   5.619  0.1785 -0.6425 -0.2513
  888MOL0     H19823  10.178   9.947   5.800  0.5422  1.6309 -0.7541
  888MOL0     H19824  10.073   9.880   5.671 -1.7663  1.1801 -1.4722
  888MOL0     H19825  10.203  10.040   5.511 -2.9829 -0.0767  1.5992
  888MOL0     H19826  10.316  10.043   5.651  1.1221 -0.7748 -1.8381
  888MOL0     H19827  10.253   9.791   5.482 -1.2183  1.4122 -0.4627
  888MOL0     H19828  10.399   9.886   5.498 -0.7932  2.7605 -0.3673
  888MOL0     H19829  10.286   9.722   5.728  1.1262  0.1445 -0.1406
  888MOL0     H19830  10.432   9.812   5.740 -0.3432 -0.0908  0.9532
  888MOL0     H19831  10.607   9.783   5.525 -2.2200  0.4462 -1.2081
  888MOL0     H19832  10.724   9.515   5.311  2.7542 -1.6748 -0.1335
  888MOL0     H19833  10.799   9.613   5.425 -2.3843  0.9865  0.8904
  888MOL0     H19834  10.794   9.308   5.417  0.5626 -0.6289 -1.0637
  888MOL0     H19835  10.797   9.395   5.569 -1.5784  1.5010  0.1940
  888MOL0     H19836  11.011   9.500   5.497 -1.7271 -1.4665  2.5698
  888MOL0     H19837  10.996   9.436   5.334  0.8512 -0.2580 -0.2028
  888MOL0     H19838  11.040   9.215   5.402 -0.3421  0.6586 -0.7068
  888MOL0     H19839  10.983   9.238   5.572  0.0100  1.3250 -0.0523
  888MOL0     H19840  11.423   9.319   5.588 -0.8793 -3.0019  0.7476
  888MOL0     H19841  11.690   9.172   5.497  1.3430  0.3467  0.2422
  888MOL0     H19842  11.731   9.327   5.417 -0.3448  0.7161  2.5171
  888MOL0     H19843  11.639   9.339   5.560 -0.9580  2.1443 -0.4754
  888MOL0     H19844  11.619   8.903   5.030 -2.2103  0.5288  0.2171
  888MOL0     H19845  11.774   8.795   4.861  0.1039 -0.0180 -1.5076
  888MOL0     H19846  11.982   8.746   4.752  1.3192 -0.4326 -0.3596
  888MOL0     H19847  11.862   8.773   4.611 -0.6940 -1.3158  0.7203
  888MOL0     H19848  12.024   8.815   4.465 -0.9051  1.5172  1.0034
  888MOL0     H19849  12.150   8.837   4.594 -0.1520 -0.4969  0.1938
  888MOL0     H19850  11.999   8.595   4.494  0.7530 -0.7762 -0.8133
  888MOL0     H19851  12.116   8.569   4.627 -2.5021 -1.2138  0.0291
  888MOL0     H19852  12.294   8.670   4.467 -0.3754 -0.9739  3.2865
  888MOL0     H19853  12.233   8.514   4.415  0.7637  0.6199  0.9959
  888MOL0     H19854  12.185   8.783   4.295  0.4220  0.0775 -3.7802
  888MOL0     H19855  12.060   8.658   4.255 -0.1179 -3.0907 -1.2795
  888MOL0     H19856  12.355   8.618   4.197 -0.1724 -1.9468  0.4344
  888MOL0     H19857  12.214   8.510   4.157  0.8250 -0.6248 -0.0480
  888MOL0     H19858  12.271   8.786   4.050 -2.7822  1.9119 -1.1414
  888MOL0     H19859  12.120   8.691   4.029  0.6348  3.2195 -1.0103
  888MOL0     H19860  12.414   8.610   3.934  0.3302  0.1389 -3.5392
  888MOL0     H19861  12.294   8.674   3.833 -0.4002 -1.0567 -0.9788
  888MOL0     H19862  11.850   9.180   4.684 -0.9976  0.7289 -0.7070
  888MOL0     H19863  11.683   9.283   4.850 -0.5993 -0.4201 -0.4462
  888MOL0     H19864  11.347   9.206   5.120  2.9323 -2.2351  1.1546
  888MOL0     H19865  11.175   9.272   5.238  0.3533 -2.1998  0.3257
  888MOL0     H19866   9.639  10.314   5.615 -1.7216 -0.5293  1.1691
  888MOL0     H19867   9.384  10.360   5.647 -1.6538 -0.1829  1.7923
  888MOL0     H19868   9.093  10.653   5.907  1.6619 -2.2005  0.2418
  888MOL0     H19869   8.857  10.685   5.962  0.5262  0.5478  2.6222
  888MOL0     H19870   8.601  10.298   6.003 -1.5624 -1.7959  2.3938
  888MOL0     H19871   8.585  10.383   6.155  1.5181 -0.5938 -0.1132
  888MOL0     H19872   8.363  10.395   6.051 -1.2804  3.3186  1.0220
  888MOL0     H19873   8.443  10.441   5.895  1.6597  0.3032  0.0820
  888MOL0     H19874   8.492  10.672   6.002  0.6118 -0.7016 -2.0692
  888MOL0     H19875   8.434  10.605   6.155 -4.0463  0.9341  0.1740
  888MOL0     H19876   8.250  10.626   5.911 -2.6495 -0.0173  1.7720
  888MOL0     H19877   8.265  10.751   6.033  2.4061  1.5471 -2.2596
  888MOL0     H19878   7.991  10.531   6.223  2.7292 -0.4675  0.7894
  888MOL0     H19879   8.814  10.263   6.039 -1.4660  2.0084  0.3300
  888MOL0     H19880   9.057  10.236   5.971  0.8532 -0.2471 -1.4597
  889MOL0     O19881   5.208   8.747   8.889  0.6315 -0.0905 -0.2197
  889MOL0     C19882   5.230   8.814   8.790  0.7648 -0.2337  1.1347
  889MOL0     O19883   5.327   8.906   8.774 -1.3481  0.3033 -0.1765
  889MOL0     C19884   5.402   8.941   8.874  0.2094  0.1079  0.3481
  889MOL0     C19885   5.482   8.850   8.936  0.1441 -0.4138 -1.1391
  889MOL0     C19886   5.577   8.886   9.032  0.0007  0.1326 -0.2812
  889MOL0     C19887   5.589   9.022   9.073  0.5939 -0.4864  0.3169
  889MOL0     O19888   5.673   9.070   9.172  0.4150 -0.0368  0.3894
  889MOL0     C19889   5.790   8.996   9.191 -0.0285 -0.1669 -0.0488
  889MOL0     C19890   5.890   9.074   9.273 -0.6777  0.4660  0.4649
  889MOL0     C19891   5.834   9.114   9.412 -0.5211 -1.1743  0.4310
  889MOL0     C19892   5.845   9.000   9.517  0.7460  0.2477  0.0938
  889MOL0     C19893   5.794   9.043   9.658  0.2702  0.8969  0.5718
  889MOL0     C19894   5.877   9.145   9.726 -0.0040  0.3985  0.2860
  889MOL0     C19895   6.029   9.111   9.740 -1.1964 -0.7610 -0.0717
  889MOL0     C19896   6.110   9.212   9.821 -0.6875 -0.0987 -0.5573
  889MOL0     N19897   6.083   9.188   9.966  1.3266 -0.7018  0.3291
  889MOL0     C19898   6.095   9.073  10.033  1.1086  0.2315 -0.9223
  889MOL0     C19899   6.056   9.102  10.160 -0.8601  0.3612 -0.5095
  889MOL0     C19900   6.049   9.021  10.285 -0.6140 -0.0360 -0.1517
  889MOL0     C19901   6.177   9.012  10.370 -0.1171 -0.3655 -1.0102
  889MOL0     C19902   6.203   8.872  10.418  1.1941 -0.2846  0.0039
  889MOL0     C19903   6.321   8.856  10.517  0.4170  0.3433  0.3438
  889MOL0     O19904   6.449   8.879  10.451  0.1256  0.0004  0.1384
  889MOL0     C19905   6.556   8.880  10.538 -0.3711  0.3010  0.6245
  889MOL0     C19906   6.559   8.826  10.667  0.0825  0.2790 -0.1830
  889MOL0     C19907   6.671   8.836  10.756  0.4194 -0.3036  0.2619
  889MOL0     C19908   6.630   8.811  10.896  0.2611 -0.3395 -1.2748
  889MOL0     C19909   6.796   8.859  10.709  0.4834 -0.7244 -0.6059
  889MOL0     C19910   6.927   8.829  10.779 -0.1229 -0.6806  1.1690
  889MOL0     O19911   6.919   8.754  10.897  0.4329 -0.1725  0.3827
  889MOL0     C19912   7.028   8.740  10.980 -0.4298  0.8645 -0.2760
  889MOL0     C19913   7.039   8.606  11.019 -0.0909 -0.5895 -0.9480
  889MOL0     C19914   7.151   8.568  11.094 -0.5426 -0.4419  0.5334
  889MOL0     C19915   7.257   8.660  11.105  0.4951 -0.2610 -0.3603
  889MOL0     O19916   7.385   8.624  11.136  0.0514  0.0775  0.6662
  889MOL0     C19917   7.392   8.531  11.239 -0.4704  0.7694 -0.6138
  889MOL0     C19918   7.540   8.511  11.277  0.2083  0.4859  0.4844
  889MOL0     C19919   7.576   8.399  11.389  0.1575 -0.4227 -0.7835
  889MOL0     C19920   7.720   8.407  11.428  0.1538 -0.8671  0.1355
  889MOL0     C19921   7.749   8.525  11.509 -0.3195  0.0402  0.6338
  889MOL0     C19922   7.894   8.543  11.555 -0.0106 -0.1207 -0.2236
  889MOL0     C19923   7.916   8.468  11.684  0.6312  0.5628  0.0874
  889MOL0     C19924   7.873   8.542  11.811  1.0686  0.3667  0.4940
  889MOL0    Cl19925   7.894   8.469  11.972  0.0039 -0.1661 -0.0425
  889MOL0     C19926   7.243   8.795  11.073  0.4468 -0.1934  1.0413
  889MOL0     C19927   7.129   8.834  11.008  0.8820  0.1422  0.1040
  889MOL0     O19928   7.034   8.849  10.720  0.3305 -1.1406 -0.3954
  889MOL0     C19929   6.804   8.898  10.570  1.1197  0.0148 -0.0227
  889MOL0     C19930   6.687   8.911  10.487 -0.0004  0.5198 -1.1528
  889MOL0     N19931   6.046   9.241  10.161  1.0752 -0.5840  0.6597
  889MOL0     N19932   6.052   9.296  10.049 -0.3351 -0.1486  0.0037
  889MOL0     C19933   5.493   9.108   9.025  0.4161  0.4073  0.6901
  889MOL0     C19934   5.401   9.077   8.928 -0.2030  0.3665  0.9513
  889MOL0     C19935   5.138   8.785   8.666 -0.3285 -0.1880 -1.0114
  889MOL0     C19936   5.169   8.818   8.529  0.1382  0.1130  1.0475
  889MOL0     C19937   5.075   8.799   8.424  0.5728  0.3313 -0.1374
  889MOL0     C19938   4.943   8.750   8.456 -0.0361 -0.1982 -0.1869
  889MOL0     O19939   4.848   8.739   8.364 -0.7797  0.9888  0.5442
  889MOL0     C19940   4.819   8.600   8.334 -0.0590  0.2357 -0.2977
  889MOL0     C19941   4.736   8.598   8.205 -0.3632 -0.3701  0.2317
  889MOL0     C19942   4.598   8.661   8.216  0.6330  0.0640 -0.6750
  889MOL0     C19943   4.520   8.637   8.082  0.6388 -0.1989 -0.5500
  889MOL0     C19944   4.414   8.535   8.087 -0.6760 -0.3665  0.4996
  889MOL0     C19945   4.329   8.451   8.086  0.3066  0.2833  0.2689
  889MOL0     C19946   4.917   8.710   8.592  0.4727 -0.7054 -0.0641
  889MOL0     C19947   5.013   8.725   8.693  0.8258  0.4348  0.0557
  889MOL0     H19948   5.476   8.743   8.919 -2.8032 -1.4476  4.3132
  889MOL0     H19949   5.635   8.804   9.073 -0.9481  0.8456  2.8351
  889MOL0     H19950   5.758   8.910   9.250 -3.0526  0.8211 -0.0395
  889MOL0     H19951   5.838   8.974   9.095  1.2048 -2.2177  0.9713
  889MOL0     H19952   5.986   9.024   9.282 -0.1370  1.2895 -0.4995
  889MOL0     H19953   5.915   9.169   9.224  2.8971  0.8997  2.7975
  889MOL0     H19954   5.902   9.197   9.431  0.5289 -1.4246 -1.9131
  889MOL0     H19955   5.734   9.157   9.401  0.1834 -0.1248 -6.4636
  889MOL0     H19956   5.799   8.907   9.482  3.1184 -0.7942 -0.4296
  889MOL0     H19957   5.948   8.965   9.516  0.6122 -0.2197 -1.8236
  889MOL0     H19958   5.691   9.077   9.646 -0.1982 -1.3019 -3.8266
  889MOL0     H19959   5.790   8.957   9.725  2.3682  1.8341  2.0103
  889MOL0     H19960   5.866   9.242   9.677 -1.9557 -0.7840 -1.7491
  889MOL0     H19961   5.835   9.149   9.827  0.9279  0.8629  0.6671
  889MOL0     H19962   6.047   9.020   9.797  1.3094 -0.5908 -0.4428
  889MOL0     H19963   6.075   9.099   9.641 -2.0002  0.3050 -0.6038
  889MOL0     H19964   6.094   9.315   9.788  0.8563 -0.2982 -2.0835
  889MOL0     H19965   6.215   9.189   9.800  0.1501 -0.9508  3.5830
  889MOL0     H19966   6.126   8.975   9.997  0.9919 -1.0958  2.2729
  889MOL0     H19967   5.974   9.076  10.343 -0.2860  1.4189 -1.0351
  889MOL0     H19968   6.005   8.921  10.281  3.7967 -2.2812  1.0539
  889MOL0     H19969   6.171   9.068  10.464  3.2633 -1.4666  0.0241
  889MOL0     H19970   6.270   9.050  10.327  0.2234 -0.1526 -0.1130
  889MOL0     H19971   6.214   8.798  10.338 -0.3277 -0.3770 -0.1574
  889MOL0     H19972   6.113   8.847  10.475 -0.2715  0.9198 -1.6515
  889MOL0     H19973   6.331   8.751  10.547  2.4959  0.1247 -0.9429
  889MOL0     H19974   6.320   8.931  10.597  0.6603 -1.3934  2.0346
  889MOL0     H19975   6.466   8.781  10.702  1.2560 -0.8812  1.5871
  889MOL0     H19976   6.522   8.814  10.910  0.3047  0.3548 -1.0492
  889MOL0     H19977   6.669   8.714  10.929  0.9032 -0.4645 -2.3536
  889MOL0     H19978   6.688   8.889  10.946  1.0692  0.1385 -2.8757
  889MOL0     H19979   6.958   8.541  10.986 -0.2102 -0.6295 -0.5895
  889MOL0     H19980   7.160   8.464  11.123  1.5705 -0.3874  0.2095
  889MOL0     H19981   7.339   8.566  11.328  1.5814  0.5989  0.7170
  889MOL0     H19982   7.350   8.434  11.211 -0.9965  1.0931 -0.9754
  889MOL0     H19983   7.592   8.496  11.182 -2.1247  2.7251 -1.2522
  889MOL0     H19984   7.572   8.610  11.311  0.4393  1.0337 -1.2483
  889MOL0     H19985   7.550   8.300  11.352 -0.5466  0.6795 -3.4950
  889MOL0     H19986   7.521   8.412  11.482 -0.9609  1.6241 -1.6519
  889MOL0     H19987   7.737   8.318  11.490  2.9365 -0.4830  0.0706
  889MOL0     H19988   7.788   8.421  11.344 -0.8580  3.0919 -0.2133
  889MOL0     H19989   7.677   8.529  11.591 -0.4559 -3.4775  0.8573
  889MOL0     H19990   7.734   8.610  11.443 -1.0873 -2.0669 -2.1002
  889MOL0     H19991   7.971   8.516  11.481 -0.0476 -0.5042 -0.1282
  889MOL0     H19992   7.916   8.649  11.563  0.1264 -0.0743 -1.0554
  889MOL0     H19993   8.018   8.431  11.692  0.1087 -1.5012 -1.7517
  889MOL0     H19994   7.852   8.380  11.696  1.2118  0.3782  2.1822
  889MOL0     H19995   7.768   8.570  11.800  1.2604  2.0981  2.3792
  889MOL0     H19996   7.934   8.633  11.817  1.0526  0.2880  3.7392
  889MOL0     H19997   7.315   8.873  11.093 -0.4377  0.8007  0.4891
  889MOL0     H19998   7.127   8.940  10.981 -1.0216 -0.1251 -0.9882
  889MOL0     H19999   6.905   8.905  10.531  2.6344 -1.9173  3.1555
  889MOL0     H20000   6.689   8.931  10.380 -0.0735 -1.6094 -1.6058
  889MOL0     H20001   5.494   9.211   9.059 -1.0146  0.6561  0.0368
  889MOL0     H20002   5.346   9.163   8.890  3.3184  0.8735 -4.0544
  889MOL0     H20003   5.263   8.858   8.493 -0.3610 -1.2825 -2.0742
  889MOL0     H20004   5.105   8.837   8.327  0.0678 -1.2883 -0.9618
  889MOL0     H20005   4.914   8.547   8.324  0.0863 -0.8135  4.5574
  889MOL0     H20006   4.768   8.535   8.406  2.8132 -1.5744  0.2874
  889MOL0     H20007   4.718   8.494   8.175  2.5092 -0.2692 -2.3590
  889MOL0     H20008   4.797   8.642   8.125  1.3039 -4.7428 -1.2589
  889MOL0     H20009   4.604   8.769   8.232  0.0094 -0.3168  3.1041
  889MOL0     H20010   4.536   8.611   8.291  0.2967 -0.4110 -1.2620
  889MOL0     H20011   4.587   8.611   7.999  2.2655  1.1531  0.2702
  889MOL0     H20012   4.470   8.729   8.050 -1.2726 -0.5405  1.2751
  889MOL0     H20013   4.256   8.373   8.099 -1.5291  1.6555 -1.1950
  889MOL0     H20014   4.815   8.685   8.620  0.7223 -0.9032  0.6913
  889MOL0     H20015   4.973   8.711   8.793 -1.1675 -2.0020 -0.9809
  890MOL0     O20016   5.474   9.984   8.354 -1.0005  0.0526 -1.3037
  890MOL0     C20017   5.531  10.091   8.337 -0.1421 -0.1939  0.6383
  890MOL0     O20018   5.467  10.214   8.312  1.0748  0.6189 -0.9067
  890MOL0     C20019   5.334  10.195   8.328  0.3307 -0.2733 -0.0061
  890MOL0     C20020   5.298  10.194   8.464  0.3865 -0.8594 -0.1951
  890MOL0     C20021   5.156  10.199   8.490  0.5050 -0.0464  0.2227
  890MOL0     C20022   5.069  10.165   8.377 -0.2881  0.0722 -0.2421
  890MOL0     O20023   4.930  10.160   8.385  0.0328 -0.4517  0.4035
  890MOL0     C20024   4.875  10.135   8.517 -1.2387 -0.4865 -0.1777
  890MOL0     C20025   4.753  10.053   8.493  0.1873  1.1580 -0.1353
  890MOL0     C20026   4.735   9.970   8.621  0.2989  0.4460 -0.2681
  890MOL0     C20027   4.582   9.922   8.639 -0.6843 -0.9979  0.9368
  890MOL0     C20028   4.471  10.027   8.609  0.1459 -0.4260  0.1036
  890MOL0     C20029   4.483  10.160   8.683 -0.3898 -0.1477 -0.3671
  890MOL0     C20030   4.365  10.258   8.666  0.3831 -0.6230 -0.7927
  890MOL0     C20031   4.361  10.349   8.787  0.4760 -0.0310 -0.0335
  890MOL0     N20032   4.248  10.453   8.776 -0.5095 -0.1726  0.7698
  890MOL0     C20033   4.215  10.531   8.887 -0.6151 -0.2014  0.1777
  890MOL0     C20034   4.137  10.629   8.836  0.2161  0.0307 -0.1135
  890MOL0     C20035   4.091  10.753   8.902  0.8155  0.2238 -0.2604
  890MOL0     C20036   4.215  10.849   8.913 -0.8345  0.8917  0.7174
  890MOL0     C20037   4.175  10.990   8.931  1.1125 -0.1408 -0.8601
  890MOL0     C20038   4.291  11.075   8.993  0.2424 -1.0450 -0.0972
  890MOL0     O20039   4.412  11.039   8.937  0.2926 -0.5045 -0.1034
  890MOL0     C20040   4.531  11.041   9.000 -0.8654 -0.3228  0.0076
  890MOL0     C20041   4.556  11.102   9.121  0.5696 -0.2415  0.0930
  890MOL0     C20042   4.675  11.074   9.194  1.2631 -0.3401  0.2402
  890MOL0     C20043   4.666  11.143   9.326 -0.0494  0.7327  0.2769
  890MOL0     C20044   4.783  11.007   9.139  0.3197  0.4632  0.6272
  890MOL0     C20045   4.924  11.011   9.193 -0.6291 -0.6984 -1.2702
  890MOL0     O20046   5.020  10.963   9.108  0.2575 -0.0804 -0.0245
  890MOL0     C20047   5.149  10.982   9.136 -0.4919  0.2132  0.6526
  890MOL0     C20048   5.227  11.045   9.039 -0.7546 -1.0130  0.2819
  890MOL0     C20049   5.364  11.040   9.053 -0.4375  0.1400 -0.1298
  890MOL0     C20050   5.430  10.999   9.171 -0.1393 -0.6801 -0.0727
  890MOL0     O20051   5.574  10.991   9.177 -0.3452  0.9762  0.0713
  890MOL0     C20052   5.630  10.917   9.060  0.3523  0.4361  0.1921
  890MOL0     C20053   5.767  10.859   9.099 -0.2562  0.2402 -0.3956
  890MOL0     C20054   5.854  10.834   8.973  0.1015 -0.3711 -0.3978
  890MOL0     C20055   5.913  10.963   8.910  0.3866  0.0101  0.2954
  890MOL0     C20056   5.991  11.053   9.002 -0.6569  0.3938 -0.4541
  890MOL0     C20057   6.116  11.121   8.939  0.5039 -0.0539 -0.6508
  890MOL0     C20058   6.169  11.213   9.047 -0.9781 -0.6368  0.1715
  890MOL0     C20059   6.279  11.298   9.000 -0.4779  0.1519 -0.4802
  890MOL0    Cl20060   6.209  11.422   8.899  0.1143 -0.1293  0.0617
  890MOL0     C20061   5.346  10.960   9.277  0.4331  0.0792  0.2421
  890MOL0     C20062   5.214  10.944   9.256  0.4852  0.2656  0.5825
  890MOL0     O20063   4.949  11.059   9.306  0.0923 -0.0437 -1.0969
  890MOL0     C20064   4.757  10.945   9.012  0.2609 -0.1439  0.4403
  890MOL0     C20065   4.635  10.965   8.945 -0.2965 -0.1277  0.0449
  890MOL0     N20066   4.137  10.612   8.698  0.0605 -0.0383 -0.4503
  890MOL0     N20067   4.197  10.506   8.663  0.4278 -1.2697  0.3317
  890MOL0     C20068   5.120  10.166   8.245  0.4450  0.0823 -0.7772
  890MOL0     C20069   5.247  10.177   8.221  0.3847  0.6580 -1.0123
  890MOL0     C20070   5.673  10.094   8.308 -0.9625  0.0234 -0.0689
  890MOL0     C20071   5.744   9.980   8.331  0.3547 -0.3631  0.0120
  890MOL0     C20072   5.881   9.970   8.301 -0.5655 -0.6634 -0.5402
  890MOL0     C20073   5.949  10.073   8.244 -0.2858  0.1748 -0.0117
  890MOL0     O20074   6.085  10.056   8.233  0.5325 -0.2453 -0.3775
  890MOL0     C20075   6.128  10.035   8.096 -0.4698 -0.2440 -0.0811
  890MOL0     C20076   6.285  10.061   8.108 -0.4533  0.3611  0.1464
  890MOL0     C20077   6.367  10.016   7.987 -0.0623 -0.6608 -0.2546
  890MOL0     C20078   6.394   9.864   7.988 -0.6712 -0.0899 -0.4615
  890MOL0     C20079   6.510   9.835   8.070 -0.0337  0.9176  0.2692
  890MOL0     C20080   6.604   9.808   8.141  0.7668  0.7972 -1.5138
  890MOL0     C20081   5.888  10.197   8.222  0.4423 -0.9331 -0.7358
  890MOL0     C20082   5.750  10.203   8.250 -0.1331  0.0696  0.5603
  890MOL0     H20083   5.370  10.201   8.545 -2.7665 -0.2834  2.7877
  890MOL0     H20084   5.125  10.207   8.594  2.1064 -3.5541  1.1162
  890MOL0     H20085   4.942  10.081   8.584 -2.9547 -0.4555  1.6536
  890MOL0     H20086   4.854  10.227   8.573 -2.1794 -0.7248 -0.1344
  890MOL0     H20087   4.665  10.116   8.479  0.7066  1.9000 -0.0629
  890MOL0     H20088   4.768   9.979   8.413 -3.6854  2.6404 -2.4711
  890MOL0     H20089   4.798   9.882   8.634 -0.0687  0.1887 -0.2481
  890MOL0     H20090   4.769  10.038   8.700  2.5093  0.9474 -1.5435
  890MOL0     H20091   4.557   9.840   8.571  0.3689 -1.8693  1.5653
  890MOL0     H20092   4.566   9.900   8.745  0.9382  4.0074  2.4801
  890MOL0     H20093   4.473  10.055   8.503 -1.0155 -0.6080  0.0140
  890MOL0     H20094   4.372   9.986   8.634 -1.3170  0.3959 -3.5639
  890MOL0     H20095   4.474  10.136   8.789 -0.4511 -0.1144 -0.3641
  890MOL0     H20096   4.579  10.209   8.665 -1.2423  1.3785 -0.9449
  890MOL0     H20097   4.384  10.313   8.573 -1.4517  0.6941 -0.4475
  890MOL0     H20098   4.270  10.205   8.670  1.0412 -1.7765  0.6538
  890MOL0     H20099   4.451  10.409   8.779 -1.3686  2.6269 -4.3065
  890MOL0     H20100   4.353  10.305   8.888 -0.0900  2.0248  0.8692
  890MOL0     H20101   4.250  10.514   8.988  0.6131  1.1937  0.0219
  890MOL0     H20102   4.008  10.794   8.843 -0.1503 -0.4512  0.5732
  890MOL0     H20103   4.040  10.743   8.999 -0.8597  2.0634 -0.8789
  890MOL0     H20104   4.270  10.843   8.819 -1.7606 -2.2084  0.2567
  890MOL0     H20105   4.278  10.809   8.993 -2.0363 -0.1950  1.1535
  890MOL0     H20106   4.096  10.997   9.007  0.9305 -0.8560 -0.9804
  890MOL0     H20107   4.133  11.034   8.840  0.4701 -1.8305 -1.4046
  890MOL0     H20108   4.298  11.082   9.102 -2.3544 -0.0349  0.0753
  890MOL0     H20109   4.269  11.179   8.968 -0.2164 -0.6377  1.8990
  890MOL0     H20110   4.471  11.162   9.151  0.0495 -1.0835  0.3718
  890MOL0     H20111   4.726  11.235   9.329  0.0340  0.6718  0.5130
  890MOL0     H20112   4.568  11.175   9.361  0.0737  0.1461  1.2004
  890MOL0     H20113   4.714  11.079   9.400 -0.0133  2.0680  1.4713
  890MOL0     H20114   5.181  11.065   8.942 -1.3405  0.4938  0.8386
  890MOL0     H20115   5.416  11.077   8.965 -1.5110 -0.1770 -0.9137
  890MOL0     H20116   5.564  10.832   9.038  2.6629 -0.8913 -2.1190
  890MOL0     H20117   5.639  10.977   8.970 -1.4476 -0.2503 -0.4929
  890MOL0     H20118   5.817  10.929   9.166  4.3454 -1.0751 -2.0566
  890MOL0     H20119   5.742  10.767   9.153 -2.3038 -0.2744 -2.0968
  890MOL0     H20120   5.782  10.785   8.907  1.9330 -1.7698 -1.4408
  890MOL0     H20121   5.935  10.763   8.994  2.3746  1.8297 -1.2321
  890MOL0     H20122   5.994  10.936   8.841  0.8775  0.2692  0.7642
  890MOL0     H20123   5.846  11.026   8.851  2.1667  1.7715  0.0393
  890MOL0     H20124   6.034  10.994   9.083  3.6601  2.2200 -1.1762
  890MOL0     H20125   5.927  11.133   9.041 -3.2371 -1.6293 -0.2328
  890MOL0     H20126   6.186  11.040   8.921  0.4118 -0.9443  2.4899
  890MOL0     H20127   6.087  11.164   8.842  1.0299  2.0711  0.0635
  890MOL0     H20128   6.208  11.162   9.136  3.4131  0.5240 -0.8402
  890MOL0     H20129   6.088  11.278   9.082 -0.4833  0.3222 -0.4259
  890MOL0     H20130   6.354  11.240   8.945  0.7428  0.0234  1.2352
  890MOL0     H20131   6.318  11.339   9.095  0.2708 -0.2345 -0.6113
  890MOL0     H20132   5.381  10.921   9.373 -0.9115  1.3013  1.2687
  890MOL0     H20133   5.164  10.883   9.330 -2.5033 -0.1700 -1.6277
  890MOL0     H20134   4.835  10.884   8.966 -0.5011 -0.8219  0.0323
  890MOL0     H20135   4.610  10.905   8.859  0.7288 -1.0986  0.4080
  890MOL0     H20136   5.047  10.172   8.164  1.6826  2.9898 -1.8228
  890MOL0     H20137   5.297  10.187   8.125  1.8499 -0.8266 -0.4481
  890MOL0     H20138   5.697   9.885   8.354  1.2000 -0.1520  2.9292
  890MOL0     H20139   5.939   9.883   8.330  0.8792  1.8496  5.5673
  890MOL0     H20140   6.103   9.937   8.057  1.3798 -0.5985 -0.4820
  890MOL0     H20141   6.081  10.109   8.030  0.3619  0.7288  0.3703
  890MOL0     H20142   6.313  10.006   8.199 -1.3629  0.1710  0.3281
  890MOL0     H20143   6.309  10.167   8.115  0.9242 -0.0497  4.2492
  890MOL0     H20144   6.466  10.061   7.984 -0.2678  0.0800  1.9839
  890MOL0     H20145   6.312  10.052   7.899  0.6376 -1.3882 -1.0027
  890MOL0     H20146   6.419   9.830   7.887  2.3095 -0.7339  0.3961
  890MOL0     H20147   6.311   9.800   8.019 -0.3195 -0.8829 -1.1113
  890MOL0     H20148   6.673   9.784   8.219  0.5208  1.3552 -1.1142
  890MOL0     H20149   5.944  10.286   8.197 -2.0389  1.7518  2.3310
  890MOL0     H20150   5.700  10.294   8.219  0.8329 -0.1042 -1.7997
  891MOL0     O20151   3.230   1.153   5.838  0.9030 -0.1414  0.5262
  891MOL0     C20152   3.174   1.163   5.945  0.3071  0.6365 -0.2385
  891MOL0     O20153   3.235   1.207   6.056 -0.3591 -0.0840 -0.5586
  891MOL0     C20154   3.361   1.260   6.039  0.8121 -0.0043 -0.5214
  891MOL0     C20155   3.383   1.401   6.050  0.6253  0.3249 -0.1586
  891MOL0     C20156   3.510   1.444   6.042  0.0207 -0.3378  0.1162
  891MOL0     C20157   3.622   1.351   6.039  0.0721  1.0378 -0.9681
  891MOL0     O20158   3.748   1.399   6.034  0.7177 -0.0855  0.6335
  891MOL0     C20159   3.823   1.340   5.931 -0.2394 -0.3057  0.1934
  891MOL0     C20160   3.935   1.447   5.900 -0.4223 -0.2652 -0.4708
  891MOL0     C20161   4.033   1.380   5.797  0.2186 -0.5289 -0.6357
  891MOL0     C20162   4.148   1.474   5.745  0.0355  0.0819  0.3049
  891MOL0     C20163   4.237   1.413   5.639  0.8814  0.7086 -0.4639
  891MOL0     C20164   4.155   1.363   5.520 -0.3678 -0.8292 -0.0652
  891MOL0     C20165   4.239   1.304   5.401 -0.1466 -0.4843 -0.1740
  891MOL0     C20166   4.192   1.364   5.268  0.7381 -0.0927 -0.0701
  891MOL0     N20167   4.256   1.292   5.160  0.1270  0.2791 -0.1264
  891MOL0     C20168   4.389   1.309   5.111  0.6195  0.5592  0.8544
  891MOL0     C20169   4.404   1.218   5.016 -0.3701 -0.5850  0.3709
  891MOL0     C20170   4.525   1.196   4.926 -0.1219  0.2156  0.6951
  891MOL0     C20171   4.632   1.110   4.998 -0.3308  0.3214 -0.1644
  891MOL0     C20172   4.756   1.102   4.907 -0.5123 -0.8897  0.4096
  891MOL0     C20173   4.871   1.019   4.963 -0.1333  0.2078  1.4400
  891MOL0     O20174   4.952   0.968   4.851  0.5661  0.4986  0.1638
  891MOL0     C20175   4.931   0.855   4.772 -0.1273 -0.4320  0.0258
  891MOL0     C20176   5.041   0.796   4.714 -0.0935  0.8049 -0.1780
  891MOL0     C20177   5.044   0.662   4.655 -0.4487 -0.1486  0.6405
  891MOL0     C20178   5.166   0.623   4.575 -0.2258 -0.0099  0.4186
  891MOL0     C20179   4.921   0.588   4.663 -0.3528 -0.4387 -0.8542
  891MOL0     C20180   4.904   0.449   4.617  0.2174  0.4132  0.0557
  891MOL0     O20181   4.779   0.390   4.634  0.3782 -0.2776  0.9318
  891MOL0     C20182   4.768   0.262   4.594 -0.0296 -0.8402 -1.0325
  891MOL0     C20183   4.765   0.156   4.682  0.7102 -0.8810  0.8090
  891MOL0     C20184   4.732   0.025   4.640  0.0636  0.6634 -0.7569
  891MOL0     C20185   4.733  -0.001   4.505  0.0184 -0.0245 -0.1849
  891MOL0     O20186   4.755  -0.130   4.462  0.0845  0.1531  0.1392
  891MOL0     C20187   4.869  -0.150   4.369 -0.0739  0.0438 -0.2662
  891MOL0     C20188   4.865  -0.251   4.250 -0.0103  0.8463  0.2854
  891MOL0     C20189   4.908  -0.391   4.291  0.7593 -0.7212 -0.4456
  891MOL0     C20190   4.867  -0.490   4.188  0.2497  0.3112 -0.0610
  891MOL0     C20191   4.941  -0.619   4.212  0.5271 -0.1814  0.0091
  891MOL0     C20192   4.905  -0.710   4.105  0.1163 -0.2808 -0.2127
  891MOL0     C20193   4.958  -0.851   4.114 -0.7692 -0.5708 -0.4558
  891MOL0     C20194   4.886  -0.953   4.039  0.2092  0.1879  0.5902
  891MOL0    Cl20195   4.907  -0.931   3.860 -0.6813 -0.1407  0.4423
  891MOL0     C20196   4.713   0.102   4.414 -0.9703  0.1411 -0.7730
  891MOL0     C20197   4.732   0.237   4.464  0.0025 -0.6767 -0.9513
  891MOL0     O20198   4.997   0.379   4.575 -0.0439 -0.1182 -0.0762
  891MOL0     C20199   4.803   0.650   4.717 -0.6147  0.4987 -0.0303
  891MOL0     C20200   4.811   0.784   4.775 -0.6630 -0.1578 -0.6176
  891MOL0     N20201   4.283   1.142   5.010 -0.1045  0.5948  0.2781
  891MOL0     N20202   4.197   1.191   5.094 -0.4011 -0.1549 -0.4979
  891MOL0     C20203   3.596   1.214   6.045 -0.7466 -0.2605 -0.7524
  891MOL0     C20204   3.468   1.171   6.050  0.4572  0.2314 -0.4358
  891MOL0     C20205   3.048   1.093   5.965 -0.3412  0.7281 -0.7182
  891MOL0     C20206   3.028   1.043   6.089 -0.2738  0.3216 -0.1728
  891MOL0     C20207   2.902   0.977   6.114 -0.0938  0.7586 -0.2046
  891MOL0     C20208   2.808   0.964   6.014 -0.0370  0.0156  0.6861
  891MOL0     O20209   2.699   0.893   6.049  0.0890  0.7695 -0.1672
  891MOL0     C20210   2.617   0.834   5.955  0.0576 -0.6621  0.0805
  891MOL0     C20211   2.497   0.771   6.029  0.3360  0.6675  0.1448
  891MOL0     C20212   2.558   0.671   6.130  0.2416  0.3305  0.3706
  891MOL0     C20213   2.455   0.571   6.180  0.1253 -0.4069 -0.1926
  891MOL0     C20214   2.420   0.469   6.079  0.1159  0.0800  1.2496
  891MOL0     C20215   2.402   0.376   6.002  1.0167 -0.2572  0.5755
  891MOL0     C20216   2.833   1.005   5.877 -0.7077  0.5444 -0.4249
  891MOL0     C20217   2.956   1.073   5.857 -0.5036  0.4179 -0.8851
  891MOL0     H20218   3.300   1.470   6.062  1.5760  1.1529  2.3495
  891MOL0     H20219   3.526   1.552   6.048 -1.8153 -0.0956  2.0977
  891MOL0     H20220   3.865   1.241   5.952  1.0972 -0.1139 -1.3026
  891MOL0     H20221   3.755   1.328   5.846  0.5842 -1.3055 -0.3555
  891MOL0     H20222   3.900   1.543   5.860 -0.1088 -0.3614 -0.9794
  891MOL0     H20223   3.984   1.461   5.997 -0.6137 -0.9076 -0.2729
  891MOL0     H20224   4.078   1.298   5.853 -1.2053  1.6625  4.2776
  891MOL0     H20225   3.973   1.350   5.710  0.9596 -2.2326 -0.5988
  891MOL0     H20226   4.103   1.559   5.694 -0.0927 -0.4638 -0.4965
  891MOL0     H20227   4.207   1.496   5.835 -0.7774  2.9345  0.2308
  891MOL0     H20228   4.291   1.501   5.601 -0.6656  1.0012 -2.0772
  891MOL0     H20229   4.313   1.338   5.665  0.6846  0.1482 -1.4654
  891MOL0     H20230   4.082   1.289   5.555 -3.3400  2.1472  0.6329
  891MOL0     H20231   4.105   1.452   5.479  2.3028  0.7771 -0.0602
  891MOL0     H20232   4.345   1.322   5.416 -0.0543 -0.6739 -0.5933
  891MOL0     H20233   4.231   1.195   5.394 -1.0353 -0.5719  1.5703
  891MOL0     H20234   4.213   1.470   5.252  3.9325 -0.7917 -1.3679
  891MOL0     H20235   4.084   1.355   5.255  0.8950 -1.6179 -0.6449
  891MOL0     H20236   4.461   1.386   5.136  0.4565  2.2159 -3.0571
  891MOL0     H20237   4.501   1.157   4.827  0.3830 -2.9172  1.6967
  891MOL0     H20238   4.586   1.285   4.911  0.5024 -0.1928  0.7467
  891MOL0     H20239   4.594   1.010   5.022  2.9444 -0.4195  2.6459
  891MOL0     H20240   4.660   1.152   5.095 -0.3177  0.4131 -0.2074
  891MOL0     H20241   4.781   1.205   4.878 -0.4919 -0.7604  0.8833
  891MOL0     H20242   4.732   1.053   4.811  1.0700  1.2697 -1.1950
  891MOL0     H20243   4.811   0.938   5.006 -1.3671  1.8104  2.8681
  891MOL0     H20244   4.935   1.048   5.047  1.9326 -1.4434  0.5555
  891MOL0     H20245   5.121   0.866   4.691  0.7064 -0.2091 -0.5730
  891MOL0     H20246   5.187   0.517   4.559  1.3099 -0.0092  2.0638
  891MOL0     H20247   5.182   0.671   4.478 -0.7852  1.4496  1.0220
  891MOL0     H20248   5.260   0.650   4.626 -1.6381  2.1517  2.0679
  891MOL0     H20249   4.799   0.173   4.784 -0.4781 -0.1339  1.1003
  891MOL0     H20250   4.743  -0.058   4.708  0.5892 -0.9735 -2.7278
  891MOL0     H20251   4.884  -0.049   4.328 -2.1481  1.0828  1.3712
  891MOL0     H20252   4.961  -0.170   4.425 -0.9461 -0.7394  0.9088
  891MOL0     H20253   4.760  -0.254   4.220 -0.4847 -1.1445  1.8949
  891MOL0     H20254   4.927  -0.209   4.171  0.1142  0.4612  0.1750
  891MOL0     H20255   4.858  -0.427   4.381 -0.2228  0.9034 -0.3088
  891MOL0     H20256   5.016  -0.392   4.304  0.6775  1.5982  0.8788
  891MOL0     H20257   4.758  -0.491   4.188  0.1986 -1.0479  2.6634
  891MOL0     H20258   4.901  -0.450   4.091 -1.2248  3.1762  0.4972
  891MOL0     H20259   4.925  -0.665   4.310  3.4657  1.3618  1.3407
  891MOL0     H20260   5.048  -0.596   4.213  0.7041 -0.9811  0.1199
  891MOL0     H20261   4.802  -0.712   4.070  0.5725 -1.4424 -1.5653
  891MOL0     H20262   4.962  -0.671   4.021 -2.5672 -0.1141 -2.0738
  891MOL0     H20263   4.950  -0.879   4.219 -1.0538  0.6739 -0.1282
  891MOL0     H20264   5.060  -0.851   4.074 -1.0976 -1.1962 -1.3228
  891MOL0     H20265   4.778  -0.951   4.058 -0.1997  1.1506 -1.5866
  891MOL0     H20266   4.925  -1.053   4.061  1.3467 -0.9937 -5.1795
  891MOL0     H20267   4.697   0.092   4.307  0.5128 -1.6634 -0.8749
  891MOL0     H20268   4.715   0.322   4.399 -0.4742 -1.4450 -1.8736
  891MOL0     H20269   4.706   0.600   4.718 -0.3143 -0.1102 -0.4047
  891MOL0     H20270   4.718   0.821   4.817 -0.5586 -0.7641  0.1648
  891MOL0     H20271   3.677   1.143   6.060  1.7838  2.1486 -2.0172
  891MOL0     H20272   3.449   1.064   6.057 -1.8222  0.6509  0.8692
  891MOL0     H20273   3.101   1.039   6.170 -1.3729 -2.4180  0.8057
  891MOL0     H20274   2.888   0.942   6.215 -0.5714  1.7970  0.1020
  891MOL0     H20275   2.578   0.921   5.903  0.0560 -0.9568 -0.4137
  891MOL0     H20276   2.666   0.770   5.882  2.9264  0.5358  0.8219
  891MOL0     H20277   2.421   0.725   5.965 -1.3541  3.2756  0.1449
  891MOL0     H20278   2.453   0.858   6.079  0.7320 -0.5713  2.8144
  891MOL0     H20279   2.599   0.722   6.218 -2.4426  0.2874  1.7262
  891MOL0     H20280   2.641   0.614   6.088  3.4059  2.3432  3.3023
  891MOL0     H20281   2.359   0.622   6.195  0.3748  1.4418 -3.7321
  891MOL0     H20282   2.490   0.518   6.269 -2.4534 -2.3123 -0.1750
  891MOL0     H20283   2.395   0.290   5.939  1.4247 -0.7424  1.1894
  891MOL0     H20284   2.758   0.978   5.802 -0.4134 -1.5166 -0.0476
  891MOL0     H20285   2.981   1.113   5.759  2.8358  0.0730 -0.2984
  892MOL0     O20286   2.663  10.525   0.174  0.5760 -0.2274  0.1135
  892MOL0     C20287   2.704  10.638   0.153 -0.1856 -0.2364 -0.6479
  892MOL0     O20288   2.626  10.754   0.151 -0.2647  0.4669  0.1711
  892MOL0     C20289   2.513  10.754   0.228 -0.2868  0.2974 -0.7662
  892MOL0     C20290   2.408  10.663   0.214  0.8114  0.1182  0.3485
  892MOL0     C20291   2.286  10.669   0.289 -0.1169 -0.6727  0.4164
  892MOL0     C20292   2.270  10.769   0.386  0.0799 -0.7732 -0.6240
  892MOL0     O20293   2.147  10.768   0.451 -0.2191 -0.0746 -0.1027
  892MOL0     C20294   2.156  10.709   0.584  0.5249 -0.0571  0.6502
  892MOL0     C20295   2.047  10.604   0.586 -0.1007 -0.3701  0.7797
  892MOL0     C20296   2.032  10.540   0.717  0.3001  0.2487  0.1420
  892MOL0     C20297   1.937  10.411   0.715 -0.3806 -0.0003 -0.5831
  892MOL0     C20298   1.964  10.317   0.834  0.3791 -0.2227 -0.2854
  892MOL0     C20299   1.860  10.196   0.822 -0.1136  0.9055 -0.6512
  892MOL0     C20300   1.929  10.074   0.747  0.6835 -0.1714 -0.3283
  892MOL0     C20301   2.035   9.992   0.843  0.2421 -0.9493  0.9713
  892MOL0     N20302   1.971   9.914   0.948  0.1942  0.0914  0.0327
  892MOL0     C20303   1.911   9.796   0.918  0.2531 -1.3691  0.0556
  892MOL0     C20304   1.846   9.775   1.030 -1.3874  0.1548 -0.7476
  892MOL0     C20305   1.774   9.648   1.047  1.4945  0.2282  0.7498
  892MOL0     C20306   1.870   9.527   1.050 -0.1718 -0.3477 -0.0394
  892MOL0     C20307   1.809   9.400   0.999 -1.1232  0.6709 -0.6996
  892MOL0     C20308   1.915   9.294   0.986  0.3774  0.1440  0.1237
  892MOL0     O20309   1.970   9.291   0.848 -0.0072  0.1487  0.0701
  892MOL0     C20310   2.080   9.215   0.813  0.3031 -0.1233 -0.0908
  892MOL0     C20311   2.147   9.124   0.904  0.5775 -0.1039  0.5015
  892MOL0     C20312   2.261   9.047   0.857  0.0294  0.8744  0.0641
  892MOL0     C20313   2.323   8.939   0.943  0.5244 -0.5680  0.9355
  892MOL0     C20314   2.310   9.066   0.729 -0.2804  0.0310 -0.1510
  892MOL0     C20315   2.432   9.002   0.674  0.2787  0.0674  0.0453
  892MOL0     O20316   2.442   8.987   0.539 -0.1104 -0.5027 -0.1758
  892MOL0     C20317   2.498   8.879   0.489 -0.0343  0.3780 -0.5626
  892MOL0     C20318   2.549   8.893   0.362  0.3618  0.4061  0.8295
  892MOL0     C20319   2.631   8.796   0.312  0.3891  1.1779  0.8902
  892MOL0     C20320   2.655   8.669   0.374 -0.2910  0.1509  1.2985
  892MOL0     O20321   2.739   8.580   0.319 -0.3108 -0.0177  0.8928
  892MOL0     C20322   2.717   8.440   0.343  0.2486  0.2561 -0.6655
  892MOL0     C20323   2.575   8.387   0.298 -0.5988 -0.6778  0.4159
  892MOL0     C20324   2.572   8.415   0.147  0.2687 -0.0001 -0.2632
  892MOL0     C20325   2.458   8.326   0.077 -0.5477 -0.2291  1.4735
  892MOL0     C20326   2.429   8.348  -0.078 -0.1659  0.7356 -0.8740
  892MOL0     C20327   2.330   8.239  -0.128  0.6543 -0.0369 -0.1408
  892MOL0     C20328   2.328   8.260  -0.278  0.5681  0.2947  0.1344
  892MOL0     C20329   2.209   8.199  -0.335  0.4633 -1.6153 -0.0149
  892MOL0    Cl20330   2.194   8.027  -0.305  0.3703  0.2647  0.2436
  892MOL0     C20331   2.581   8.645   0.495 -0.6495  0.5632 -0.1737
  892MOL0     C20332   2.507   8.755   0.555  0.0070  0.9578 -0.8545
  892MOL0     O20333   2.524   8.986   0.753 -0.9236  0.5374  0.2179
  892MOL0     C20334   2.246   9.167   0.642 -0.4018  0.7845 -1.1826
  892MOL0     C20335   2.123   9.228   0.675 -0.1352 -0.2196 -0.6136
  892MOL0     N20336   1.871   9.873   1.125  0.0424 -0.1622  0.1668
  892MOL0     N20337   1.948   9.964   1.076 -0.3928  0.5625 -0.3382
  892MOL0     C20338   2.378  10.854   0.406 -0.4088 -0.2987  0.7272
  892MOL0     C20339   2.501  10.849   0.326 -0.6184  0.2348 -1.1935
  892MOL0     C20340   2.846  10.641   0.115  0.2168  0.6101 -0.8643
  892MOL0     C20341   2.931  10.518   0.112 -0.4840 -1.0413  0.7752
  892MOL0     C20342   3.062  10.515   0.066 -0.6690 -1.3865  0.5100
  892MOL0     C20343   3.119  10.639   0.020  0.1620  0.6032  0.7595
  892MOL0     O20344   3.243  10.622  -0.043  0.2854  0.0601  0.2704
  892MOL0     C20345   3.355  10.629   0.041  1.4102  0.1676 -0.7384
  892MOL0     C20346   3.428  10.497   0.058 -0.0829  0.2676 -0.1644
  892MOL0     C20347   3.464  10.442  -0.086  1.0019 -0.4948  0.1871
  892MOL0     C20348   3.561  10.323  -0.084  0.6085 -0.4333 -0.5155
  892MOL0     C20349   3.505  10.192  -0.059 -0.0712  0.3019  0.9367
  892MOL0     C20350   3.453  10.077  -0.037  0.1349  0.8462  0.2189
  892MOL0     C20351   3.049  10.756   0.028  0.5336  0.3172  1.1668
  892MOL0     C20352   2.914  10.756   0.074  0.3190  1.1638  0.2203
  892MOL0     H20353   2.427  10.587   0.138  0.1937 -1.4727  1.7261
  892MOL0     H20354   2.201  10.610   0.256 -3.1548  3.1266  0.7159
  892MOL0     H20355   2.254  10.670   0.612  0.8198 -0.5923 -0.9944
  892MOL0     H20356   2.138  10.795   0.649 -0.5454  0.7373 -0.6405
  892MOL0     H20357   1.950  10.636   0.549 -0.6840 -1.8985  0.9294
  892MOL0     H20358   2.087  10.535   0.512 -1.3288  1.1164 -1.3630
  892MOL0     H20359   2.132  10.517   0.755 -0.9532 -1.1430  2.8774
  892MOL0     H20360   1.982  10.605   0.789 -0.1392 -1.6484  1.6296
  892MOL0     H20361   1.836  10.453   0.728 -0.1750  0.9013 -1.7000
  892MOL0     H20362   1.941  10.365   0.616 -0.7205  1.4510 -1.2979
  892MOL0     H20363   2.069  10.287   0.840  0.1181 -0.9070  1.6702
  892MOL0     H20364   1.930  10.370   0.923 -2.0362  0.5925 -1.5897
  892MOL0     H20365   1.822  10.175   0.922 -0.3528 -0.2482 -0.9633
  892MOL0     H20366   1.770  10.228   0.770 -0.6115  1.2390  0.3883
  892MOL0     H20367   1.858  10.005   0.700  0.1299  0.5406 -0.5658
  892MOL0     H20368   1.992  10.119   0.669  2.8845  2.0764  2.5495
  892MOL0     H20369   2.098  10.070   0.887 -0.5663  0.1977  0.1302
  892MOL0     H20370   2.079   9.921   0.772 -0.7599  2.1114 -3.1200
  892MOL0     H20371   1.938   9.725   0.841  0.2884  0.6841 -1.9232
  892MOL0     H20372   1.718   9.645   1.142 -0.6830 -2.0140 -0.4997
  892MOL0     H20373   1.694   9.655   0.973  2.0857  3.8246  0.2784
  892MOL0     H20374   1.906   9.530   1.154  0.4500  1.9135 -0.2558
  892MOL0     H20375   1.956   9.549   0.986 -0.3881 -0.7532 -0.4683
  892MOL0     H20376   1.750   9.410   0.908  0.0561  0.8418 -1.4679
  892MOL0     H20377   1.740   9.377   1.081  1.8130 -0.4061  1.6773
  892MOL0     H20378   1.864   9.201   1.012  1.8522 -0.8979 -0.5924
  892MOL0     H20379   1.993   9.302   1.062 -0.6653 -1.8098  1.4966
  892MOL0     H20380   2.130   9.128   1.011  0.9724  1.0921  0.5376
  892MOL0     H20381   2.415   8.989   0.974 -1.4686  4.9907 -0.9271
  892MOL0     H20382   2.263   8.918   1.032  1.7705 -0.5161  1.8307
  892MOL0     H20383   2.329   8.846   0.886 -0.5126  0.8381 -1.6282
  892MOL0     H20384   2.527   8.988   0.314 -1.9844  0.2887  1.5439
  892MOL0     H20385   2.680   8.814   0.217 -0.7468  3.4586  0.6584
  892MOL0     H20386   2.794   8.378   0.296  0.3893  0.0049 -0.1110
  892MOL0     H20387   2.734   8.411   0.447 -0.1104 -0.0979 -0.7040
  892MOL0     H20388   2.580   8.279   0.316  0.8302 -0.8858 -0.9781
  892MOL0     H20389   2.489   8.434   0.347  2.0667  1.4119  3.5540
  892MOL0     H20390   2.671   8.413   0.102  0.3150  1.9156 -0.3104
  892MOL0     H20391   2.557   8.523   0.143 -1.6405 -0.0955  1.9122
  892MOL0     H20392   2.479   8.218   0.082  2.0387  0.2670  2.5396
  892MOL0     H20393   2.363   8.339   0.129 -0.9238 -1.6252  1.1844
  892MOL0     H20394   2.523   8.342  -0.134 -0.4870 -0.4650 -1.3184
  892MOL0     H20395   2.378   8.445  -0.083 -1.5581  0.0170 -0.9216
  892MOL0     H20396   2.369   8.138  -0.114 -1.1635 -0.6931  0.3730
  892MOL0     H20397   2.238   8.251  -0.071  1.6415 -0.3112  1.5862
  892MOL0     H20398   2.406   8.199  -0.325  0.2202 -0.2771  0.2918
  892MOL0     H20399   2.339   8.367  -0.299  0.0841 -0.1347 -2.8059
  892MOL0     H20400   2.213   8.208  -0.444 -0.6289 -1.2326 -0.0358
  892MOL0     H20401   2.124   8.259  -0.301  2.1904 -1.2908  4.3997
  892MOL0     H20402   2.584   8.552   0.550 -0.5642  1.5913  1.6770
  892MOL0     H20403   2.442   8.730   0.638  1.0763 -1.6064 -0.6836
  892MOL0     H20404   2.281   9.189   0.542  0.0251 -3.8615 -2.2870
  892MOL0     H20405   2.074   9.302   0.612  0.6646  0.8429 -0.0298
  892MOL0     H20406   2.378  10.929   0.484 -1.2720 -0.9921  1.4063
  892MOL0     H20407   2.579  10.916   0.361 -1.4602 -0.0697  1.5424
  892MOL0     H20408   2.887  10.427   0.152  2.4222 -1.9129  2.2559
  892MOL0     H20409   3.132  10.433   0.073  2.0884  0.9510  2.3274
  892MOL0     H20410   3.418  10.711   0.005  0.5514  0.1817 -2.2807
  892MOL0     H20411   3.319  10.651   0.142 -0.5908 -0.6994 -1.2289
  892MOL0     H20412   3.366  10.423   0.108  0.1401  0.5853  0.5987
  892MOL0     H20413   3.518  10.517   0.116  0.1335 -0.1824 -0.3431
  892MOL0     H20414   3.488  10.515  -0.164 -2.9136 -1.4426 -2.2048
  892MOL0     H20415   3.374  10.390  -0.119 -0.1167 -1.4384  4.1399
  892MOL0     H20416   3.628  10.345   0.000  0.6121  4.4939 -1.5207
  892MOL0     H20417   3.617  10.313  -0.177 -1.1816 -0.0092 -1.6751
  892MOL0     H20418   3.401   9.985  -0.018 -1.4630  0.5029 -4.4304
  892MOL0     H20419   3.091  10.843  -0.022  0.4575 -1.8313 -3.0621
  892MOL0     H20420   2.866  10.851   0.091  2.1300  1.5982  4.1883
  893MOL0     O20421   3.716   4.908   4.866 -0.4485 -0.3291 -0.3389
  893MOL0     C20422   3.746   4.997   4.797 -0.0745 -0.3165  1.0022
  893MOL0     O20423   3.867   5.067   4.800  0.0378 -0.5250  0.2169
  893MOL0     C20424   3.969   5.002   4.858  0.1016 -0.0946  0.0408
  893MOL0     C20425   4.019   4.887   4.807  0.4741  0.8205  0.8439
  893MOL0     C20426   4.095   4.804   4.889 -0.8896  0.9619 -1.1096
  893MOL0     C20427   4.143   4.856   5.017 -0.3695  0.2581 -0.0975
  893MOL0     O20428   4.229   4.799   5.106  0.3326 -0.3778 -1.3152
  893MOL0     C20429   4.234   4.656   5.100  0.9099  0.9503  0.7147
  893MOL0     C20430   4.324   4.603   5.214  0.3765 -0.4755 -1.5117
  893MOL0     C20431   4.279   4.627   5.360 -0.1457  0.3979  0.5363
  893MOL0     C20432   4.179   4.744   5.394 -0.6377  0.5670 -1.0434
  893MOL0     C20433   4.154   4.763   5.543 -0.6007  0.1416  0.5574
  893MOL0     C20434   4.056   4.872   5.569  0.4831  0.6412 -0.0436
  893MOL0     C20435   4.022   4.899   5.720  0.0786 -0.1169 -0.3130
  893MOL0     C20436   4.144   4.954   5.799  0.8357 -0.3608  0.3042
  893MOL0     N20437   4.106   4.951   5.945  0.1667 -0.3763 -0.3729
  893MOL0     C20438   4.030   5.038   6.027  0.8396  0.2462  0.6936
  893MOL0     C20439   4.022   4.975   6.149 -0.6019 -0.4171 -0.1859
  893MOL0     C20440   3.943   5.023   6.271  0.6119 -0.9066  1.0472
  893MOL0     C20441   4.026   5.074   6.379  0.6125 -0.4613  0.0444
  893MOL0     C20442   3.935   5.141   6.487 -0.1141  0.3008 -0.7882
  893MOL0     C20443   4.013   5.195   6.613  0.5035 -0.3524  0.2291
  893MOL0     O20444   4.056   5.085   6.690 -0.2501 -0.0872  0.1045
  893MOL0     C20445   4.132   5.103   6.804 -0.0516  1.0330  0.3947
  893MOL0     C20446   4.138   5.213   6.883  0.7895  0.5651  0.4105
  893MOL0     C20447   4.226   5.219   6.994  0.4111  0.4087  0.5873
  893MOL0     C20448   4.241   5.360   7.058  0.1596  0.4837  0.2301
  893MOL0     C20449   4.291   5.107   7.036 -0.3032  0.7631  1.0283
  893MOL0     C20450   4.368   5.094   7.162  0.0821 -0.0219 -0.0922
  893MOL0     O20451   4.390   5.209   7.238  0.7822  0.8384 -0.1290
  893MOL0     C20452   4.458   5.190   7.351 -0.0589  0.6190  0.0314
  893MOL0     C20453   4.599   5.213   7.347  0.6194  0.7009  0.0163
  893MOL0     C20454   4.679   5.189   7.454 -0.3444 -0.5556 -0.2370
  893MOL0     C20455   4.629   5.132   7.577 -0.2917  0.1879  0.4534
  893MOL0     O20456   4.700   5.077   7.678 -0.0995 -0.3949  0.0110
  893MOL0     C20457   4.821   5.007   7.645  0.1168 -0.1837 -0.3533
  893MOL0     C20458   4.921   4.978   7.771 -0.5982 -0.7095 -0.0901
  893MOL0     C20459   5.015   4.862   7.737  0.4051  0.0886  0.7592
  893MOL0     C20460   5.122   4.889   7.638  0.0087 -0.0317  0.4291
  893MOL0     C20461   5.212   4.773   7.598  0.0587  0.4679 -0.4515
  893MOL0     C20462   5.262   4.802   7.448  0.3275  0.1468  0.2088
  893MOL0     C20463   5.174   4.748   7.339 -0.4216  0.0963 -0.7080
  893MOL0     C20464   5.202   4.820   7.211 -0.3447 -0.5262 -0.2409
  893MOL0    Cl20465   5.373   4.794   7.150 -0.2373  0.1917 -0.1768
  893MOL0     C20466   4.489   5.113   7.577 -0.6278 -0.3799  0.1648
  893MOL0     C20467   4.409   5.144   7.467  0.8356 -0.0668 -0.2279
  893MOL0     O20468   4.405   4.979   7.200 -0.0737 -0.0373 -0.1036
  893MOL0     C20469   4.284   4.989   6.949 -0.3018 -0.2419  0.6904
  893MOL0     C20470   4.206   4.987   6.831 -0.7877  0.0000  0.4461
  893MOL0     N20471   4.098   4.860   6.145  0.8323  0.4688  0.6966
  893MOL0     N20472   4.147   4.848   6.030 -0.5163  0.3748  0.1510
  893MOL0     C20473   4.094   4.979   5.061  0.4643  0.1543  0.4030
  893MOL0     C20474   4.023   5.061   4.979  0.0256  0.9340 -0.5164
  893MOL0     C20475   3.640   5.052   4.704  0.5091 -0.0826 -0.7298
  893MOL0     C20476   3.515   4.994   4.697  0.1898 -0.1054 -0.7870
  893MOL0     C20477   3.418   5.044   4.611  1.2964  0.5567 -0.8509
  893MOL0     C20478   3.435   5.149   4.522 -0.2180 -0.3954  0.0539
  893MOL0     O20479   3.325   5.187   4.450 -0.2766  0.1019 -0.5214
  893MOL0     C20480   3.342   5.263   4.324 -0.5460 -0.6332 -0.7537
  893MOL0     C20481   3.339   5.420   4.348 -0.3310  0.5471  0.4199
  893MOL0     C20482   3.367   5.502   4.230  0.5532 -0.6392 -0.3608
  893MOL0     C20483   3.329   5.649   4.246  0.4796  1.0064 -0.1182
  893MOL0     C20484   3.291   5.712   4.117  0.1242 -0.9279 -0.2743
  893MOL0     C20485   3.246   5.771   4.021 -0.1471  0.4526 -0.2837
  893MOL0     C20486   3.564   5.209   4.529 -0.6531  0.5435 -0.1573
  893MOL0     C20487   3.665   5.162   4.617 -0.3181  0.2064  0.3922
  893MOL0     H20488   4.000   4.857   4.704  0.1636  0.1126  1.1024
  893MOL0     H20489   4.120   4.703   4.857 -3.8015  1.0831 -4.4172
  893MOL0     H20490   4.137   4.604   5.102  1.4200 -0.0323  2.4245
  893MOL0     H20491   4.277   4.631   5.003 -1.1596 -0.5241  0.1027
  893MOL0     H20492   4.328   4.495   5.198  3.4377 -0.4556 -1.4451
  893MOL0     H20493   4.428   4.635   5.212  0.8577 -0.8408  3.5238
  893MOL0     H20494   4.231   4.536   5.397  1.1905 -1.2065 -1.4462
  893MOL0     H20495   4.369   4.649   5.418  0.5235  2.9047 -1.2973
  893MOL0     H20496   4.216   4.837   5.349 -0.1008 -0.5559 -3.0315
  893MOL0     H20497   4.086   4.735   5.336 -1.6279  0.4230  0.5081
  893MOL0     H20498   4.124   4.666   5.583  3.6079 -1.4281  0.4039
  893MOL0     H20499   4.250   4.780   5.592 -0.1312 -1.4023  0.2345
  893MOL0     H20500   4.086   4.966   5.520 -0.2538  0.3427 -1.1087
  893MOL0     H20501   3.965   4.834   5.522  3.1567 -1.7149 -3.8859
  893MOL0     H20502   3.946   4.978   5.712  1.4178  1.0151 -4.1480
  893MOL0     H20503   3.980   4.810   5.767  1.2856 -0.6380 -0.2037
  893MOL0     H20504   4.181   5.050   5.763  1.2667 -0.7930 -0.4349
  893MOL0     H20505   4.230   4.888   5.784  0.1496 -0.6377 -3.1292
  893MOL0     H20506   3.968   5.125   6.004  0.3862 -0.0692  0.7176
  893MOL0     H20507   3.882   5.109   6.240  1.0599  0.1835  3.0039
  893MOL0     H20508   3.882   4.936   6.297  1.2011 -0.9205  2.4834
  893MOL0     H20509   4.104   5.142   6.345  0.1703 -0.0626 -0.1688
  893MOL0     H20510   4.080   4.989   6.423  1.2020 -0.6594 -1.0288
  893MOL0     H20511   3.855   5.078   6.528  0.5824  1.6187  2.9616
  893MOL0     H20512   3.886   5.225   6.438  2.5926  1.0994 -2.3126
  893MOL0     H20513   3.929   5.247   6.661 -1.2411  0.4653 -3.3746
  893MOL0     H20514   4.099   5.259   6.590 -0.7865  1.4874  0.3386
  893MOL0     H20515   4.093   5.306   6.852 -1.4814 -0.3430  0.8080
  893MOL0     H20516   4.217   5.448   6.998 -1.6657 -0.0460  0.1203
  893MOL0     H20517   4.177   5.356   7.147  2.9298 -3.8905  2.3593
  893MOL0     H20518   4.348   5.367   7.082 -0.4757  0.0398  3.6967
  893MOL0     H20519   4.646   5.261   7.262  1.8836  1.3877  1.0669
  893MOL0     H20520   4.784   5.214   7.447 -0.5817  0.7408  0.4562
  893MOL0     H20521   4.784   4.909   7.613 -0.1424 -1.4379  3.3164
  893MOL0     H20522   4.876   5.062   7.568 -2.0981 -0.6590 -2.3964
  893MOL0     H20523   4.981   5.067   7.792  1.9582 -1.2270 -4.1668
  893MOL0     H20524   4.858   4.951   7.856 -0.1616 -0.0659  0.4481
  893MOL0     H20525   4.959   4.778   7.695  3.0912 -2.4560  1.8324
  893MOL0     H20526   5.059   4.820   7.828 -1.0716 -0.8151  1.0898
  893MOL0     H20527   5.079   4.945   7.555  1.2034 -1.6893 -1.4005
  893MOL0     H20528   5.191   4.961   7.684 -0.9554  1.3428 -0.2005
  893MOL0     H20529   5.157   4.679   7.599  0.7766  0.0328  0.4877
  893MOL0     H20530   5.296   4.760   7.668  0.8259  0.1610 -1.4035
  893MOL0     H20531   5.274   4.911   7.445  0.7432  0.2468  3.0548
  893MOL0     H20532   5.361   4.756   7.435 -0.9124 -2.2092 -1.9523
  893MOL0     H20533   5.071   4.753   7.375 -0.1948  0.9695 -0.1637
  893MOL0     H20534   5.194   4.642   7.319 -0.8921 -0.0295 -0.5018
  893MOL0     H20535   5.201   4.929   7.224  0.5460 -0.5297 -0.0861
  893MOL0     H20536   5.134   4.797   7.129 -0.3222 -1.2782 -0.0578
  893MOL0     H20537   4.449   5.047   7.654  1.5753  1.3596  3.0329
  893MOL0     H20538   4.306   5.110   7.463  1.8832 -3.6502 -0.4070
  893MOL0     H20539   4.338   4.904   6.990 -0.6534 -0.9641 -0.3238
  893MOL0     H20540   4.200   4.902   6.764  0.0922  0.7518 -0.6259
  893MOL0     H20541   4.129   5.015   5.158 -3.8098  1.3318  1.7425
  893MOL0     H20542   4.009   5.165   5.008  0.5464  1.5440 -2.2690
  893MOL0     H20543   3.493   4.912   4.765  4.9685  0.3701  1.6880
  893MOL0     H20544   3.324   4.990   4.607  1.7131 -0.1770 -1.0606
  893MOL0     H20545   3.439   5.232   4.284 -1.0974 -2.5855 -0.6917
  893MOL0     H20546   3.263   5.226   4.257 -0.1026 -0.0859 -1.5905
  893MOL0     H20547   3.409   5.458   4.423 -0.6189  0.6258  0.6531
  893MOL0     H20548   3.239   5.436   4.390 -1.2495 -1.9925 -0.6126
  893MOL0     H20549   3.315   5.453   4.147 -2.8936 -1.0926  1.8459
  893MOL0     H20550   3.475   5.510   4.214  0.5670  0.4746  0.1700
  893MOL0     H20551   3.409   5.695   4.305 -1.9852  2.3440  2.4290
  893MOL0     H20552   3.239   5.657   4.307 -0.7675  0.6260 -1.8276
  893MOL0     H20553   3.202   5.808   3.930 -1.1421 -0.2950 -0.1306
  893MOL0     H20554   3.587   5.302   4.477 -0.1583  0.4417 -0.1242
  893MOL0     H20555   3.762   5.212   4.621 -0.5281  0.6441  0.1227
  894MOL0     O20556   0.093   2.656   2.496  0.1045  0.1850  0.2497
  894MOL0     C20557   0.180   2.727   2.450 -0.0188 -0.5804  0.8720
  894MOL0     O20558   0.201   2.755   2.322 -0.1910  0.4690  0.1847
  894MOL0     C20559   0.193   2.658   2.225 -0.4296  0.9459 -0.0412
  894MOL0     C20560   0.203   2.521   2.256 -0.3445  0.5841  0.2112
  894MOL0     C20561   0.191   2.434   2.152 -1.3427 -0.1339  0.2975
  894MOL0     C20562   0.182   2.470   2.020  0.3117 -0.5085 -0.0328
  894MOL0     O20563   0.193   2.399   1.905 -0.5699 -0.4199 -0.4160
  894MOL0     C20564   0.142   2.266   1.890  0.5762  0.5401  0.2753
  894MOL0     C20565   0.255   2.172   1.926  1.0810 -0.0239 -0.4568
  894MOL0     C20566   0.212   2.026   1.903 -0.4108 -0.4047 -0.1217
  894MOL0     C20567   0.260   1.924   2.006  0.0764 -0.2938 -0.6306
  894MOL0     C20568   0.229   1.779   1.981 -1.0852 -0.8049  0.4420
  894MOL0     C20569   0.091   1.741   2.026 -0.8038 -0.0778 -0.4883
  894MOL0     C20570   0.093   1.708   2.173  0.0212  0.4422 -0.5016
  894MOL0     C20571   0.164   1.585   2.227 -0.4659 -1.7658  1.0020
  894MOL0     N20572   0.057   1.486   2.218  0.1772  0.0355 -1.3586
  894MOL0     C20573  -0.032   1.457   2.320 -0.0232 -0.1059 -0.2365
  894MOL0     C20574  -0.104   1.357   2.276 -0.5286  0.2814  1.0153
  894MOL0     C20575  -0.199   1.269   2.337 -0.0549 -0.3524 -0.1597
  894MOL0     C20576  -0.288   1.339   2.441  0.0813 -0.0350  0.0226
  894MOL0     C20577  -0.414   1.411   2.399 -0.4259 -0.2963  0.5537
  894MOL0     C20578  -0.487   1.481   2.511 -0.3262 -0.6488  0.2142
  894MOL0     O20579  -0.447   1.624   2.515 -0.2407  0.1237  0.0005
  894MOL0     C20580  -0.549   1.704   2.559 -0.0156 -0.2461 -0.8564
  894MOL0     C20581  -0.609   1.678   2.678  0.8214 -0.6053 -0.2352
  894MOL0     C20582  -0.708   1.768   2.740 -0.4760 -0.5735 -0.3577
  894MOL0     C20583  -0.757   1.731   2.877  0.0088  0.6968 -0.3421
  894MOL0     C20584  -0.748   1.886   2.663  0.5230  0.0440  0.0635
  894MOL0     C20585  -0.846   1.992   2.706  0.1170 -0.8393  0.5581
  894MOL0     O20586  -0.865   2.098   2.622  0.1880 -0.1743 -0.3031
  894MOL0     C20587  -0.972   2.182   2.647  0.0905 -0.0465 -0.0966
  894MOL0     C20588  -1.097   2.137   2.633 -0.3989 -0.0254 -0.8306
  894MOL0     C20589  -1.206   2.232   2.643 -0.0572 -0.5027  0.7362
  894MOL0     C20590  -1.181   2.375   2.659  0.3625  0.1245  0.5760
  894MOL0     O20591  -1.267   2.482   2.639 -0.6203 -0.5851  0.1854
  894MOL0     C20592  -1.395   2.456   2.578  0.1620  0.7394  0.0617
  894MOL0     C20593  -1.360   2.398   2.438  0.8907 -0.0579  0.4386
  894MOL0     C20594  -1.423   2.495   2.328  1.0008  0.2231 -0.4661
  894MOL0     C20595  -1.434   2.429   2.195  0.4902 -0.3688  0.4273
  894MOL0     C20596  -1.529   2.497   2.094 -0.6296 -0.0666  0.3303
  894MOL0     C20597  -1.542   2.426   1.954 -0.3531 -1.2795 -0.1105
  894MOL0     C20598  -1.651   2.321   1.944 -0.4484  0.0269  0.9552
  894MOL0     C20599  -1.594   2.181   1.952  0.0443  0.6163  0.1758
  894MOL0    Cl20600  -1.718   2.062   1.956  0.2683  0.2712  0.3626
  894MOL0     C20601  -1.050   2.413   2.691 -1.1590 -0.0834  0.2705
  894MOL0     C20602  -0.943   2.317   2.671  0.6876 -0.0201  0.5949
  894MOL0     O20603  -0.907   1.979   2.809 -0.2893  0.4608  0.1498
  894MOL0     C20604  -0.681   1.903   2.540  0.3228 -0.3596  0.0392
  894MOL0     C20605  -0.582   1.825   2.497  0.6145  0.5213  0.1397
  894MOL0     N20606  -0.044   1.313   2.157  0.4689 -0.0556 -0.2172
  894MOL0     N20607   0.050   1.388   2.126  1.3553 -0.4804  0.3370
  894MOL0     C20608   0.192   2.609   1.995  0.1866  0.8017  0.2609
  894MOL0     C20609   0.189   2.703   2.094 -0.9165  0.6388  0.1095
  894MOL0     C20610   0.256   2.810   2.551 -0.3241  0.3427  0.3555
  894MOL0     C20611   0.200   2.858   2.663  0.3394 -1.1413  0.4987
  894MOL0     C20612   0.256   2.958   2.737  0.2019 -0.6356  1.0151
  894MOL0     C20613   0.387   3.001   2.701 -0.1293 -0.2468 -0.0237
  894MOL0     O20614   0.433   3.097   2.789  0.9073  0.3030  0.2657
  894MOL0     C20615   0.530   3.186   2.732  0.7749  0.1740  0.1101
  894MOL0     C20616   0.518   3.319   2.790  0.7952 -1.2397  0.9014
  894MOL0     C20617   0.653   3.369   2.834  0.2233  0.7190  0.1528
  894MOL0     C20618   0.624   3.501   2.893  0.1472  0.4438 -0.5662
  894MOL0     C20619   0.751   3.570   2.910  0.5256 -0.2424 -0.0675
  894MOL0     C20620   0.854   3.622   2.948 -0.7008 -0.1786 -0.0122
  894MOL0     C20621   0.452   2.950   2.589  0.7637  0.5565 -0.4623
  894MOL0     C20622   0.389   2.849   2.513  0.3912 -0.3124 -0.8318
  894MOL0     H20623   0.208   2.478   2.356 -0.0766  2.2531  0.9520
  894MOL0     H20624   0.208   2.328   2.170  1.1381  0.0378 -0.6034
  894MOL0     H20625   0.054   2.252   1.953 -1.0217  1.1144 -1.7470
  894MOL0     H20626   0.118   2.252   1.785  0.3118  0.2529  0.3735
  894MOL0     H20627   0.344   2.186   1.863 -0.2965 -1.7834 -2.9544
  894MOL0     H20628   0.282   2.186   2.031  1.3677 -0.0879 -0.5201
  894MOL0     H20629   0.103   2.026   1.897 -0.4194 -0.6939  0.0370
  894MOL0     H20630   0.247   2.001   1.802  0.1189 -1.4223  0.2973
  894MOL0     H20631   0.369   1.936   2.003  0.2729 -1.5956  0.3697
  894MOL0     H20632   0.222   1.949   2.105  0.1183  0.0308 -0.6949
  894MOL0     H20633   0.233   1.757   1.874  2.0444 -0.1885  0.3448
  894MOL0     H20634   0.299   1.715   2.036 -1.4249 -0.6285  1.0946
  894MOL0     H20635   0.020   1.819   2.000  2.1419  4.7319  4.0381
  894MOL0     H20636   0.069   1.649   1.970 -0.4363 -1.5439  1.6379
  894MOL0     H20637   0.143   1.785   2.232 -0.2093  0.4599 -0.3262
  894MOL0     H20638  -0.007   1.723   2.215  1.3173  4.3657  1.6770
  894MOL0     H20639   0.209   1.594   2.326  1.0395  0.5286  0.1861
  894MOL0     H20640   0.247   1.563   2.160 -0.5118  0.3525  0.1741
  894MOL0     H20641  -0.051   1.524   2.403 -0.7806 -1.9340  1.1314
  894MOL0     H20642  -0.254   1.219   2.257  1.7752 -2.7583 -0.0348
  894MOL0     H20643  -0.144   1.195   2.397  0.9539  0.8878  0.5078
  894MOL0     H20644  -0.228   1.400   2.510  2.6315 -1.2524 -0.9714
  894MOL0     H20645  -0.324   1.254   2.498  1.3060 -0.9289 -0.4917
  894MOL0     H20646  -0.487   1.331   2.382 -1.8280  0.2719  3.3555
  894MOL0     H20647  -0.401   1.473   2.310 -1.6013 -1.9912 -0.8671
  894MOL0     H20648  -0.472   1.425   2.604  1.3881 -0.3790  0.1326
  894MOL0     H20649  -0.592   1.473   2.485 -0.4411  1.5749 -0.2365
  894MOL0     H20650  -0.580   1.586   2.726  1.9987  0.9541  2.2764
  894MOL0     H20651  -0.737   1.810   2.951 -0.5639  0.0774  0.5031
  894MOL0     H20652  -0.864   1.708   2.885 -0.4163  2.6103  0.1270
  894MOL0     H20653  -0.703   1.642   2.910 -3.6489 -1.7199 -0.1872
  894MOL0     H20654  -1.112   2.032   2.606  5.6160 -0.9720 -1.8917
  894MOL0     H20655  -1.312   2.216   2.626 -0.4821  3.1688 -1.0593
  894MOL0     H20656  -1.466   2.395   2.635  0.9146 -1.2247 -0.9918
  894MOL0     H20657  -1.434   2.558   2.571  0.8110  0.8726 -3.5539
  894MOL0     H20658  -1.255   2.388   2.411  0.9006 -1.6172  0.9826
  894MOL0     H20659  -1.409   2.301   2.431 -1.6365  1.2546 -2.8905
  894MOL0     H20660  -1.372   2.591   2.325  1.1832  0.2976  2.3250
  894MOL0     H20661  -1.520   2.526   2.368  1.8290  0.8881  1.1229
  894MOL0     H20662  -1.334   2.427   2.153  1.6323 -0.2962  2.9493
  894MOL0     H20663  -1.474   2.328   2.209 -0.1370 -0.0167  1.2692
  894MOL0     H20664  -1.474   2.591   2.085  0.8699 -1.0751 -2.2323
  894MOL0     H20665  -1.630   2.523   2.126 -0.2336  1.0342  0.7165
  894MOL0     H20666  -1.561   2.506   1.881 -1.8433 -1.4532  0.0546
  894MOL0     H20667  -1.441   2.386   1.937 -0.1831 -0.1829 -2.0164
  894MOL0     H20668  -1.697   2.330   1.845 -1.1590 -2.6822  0.9714
  894MOL0     H20669  -1.722   2.338   2.026 -2.0967 -3.4259  0.4073
  894MOL0     H20670  -1.555   2.158   2.052 -0.5158 -1.8308 -0.0910
  894MOL0     H20671  -1.526   2.144   1.875  1.7098 -0.5050  2.0709
  894MOL0     H20672  -1.030   2.518   2.709 -1.7515  0.1414 -0.3189
  894MOL0     H20673  -0.838   2.340   2.681  0.3824  1.5234  0.4947
  894MOL0     H20674  -0.692   1.987   2.472 -2.6501 -2.0393 -1.7908
  894MOL0     H20675  -0.540   1.845   2.399  3.6390 -0.3444  1.1357
  894MOL0     H20676   0.190   2.647   1.894 -0.7389  0.5257  0.1641
  894MOL0     H20677   0.193   2.808   2.069  3.9715  1.6069  3.4279
  894MOL0     H20678   0.097   2.834   2.685  0.4986 -2.1779  0.1315
  894MOL0     H20679   0.203   2.992   2.825 -1.9326  1.4059 -0.9261
  894MOL0     H20680   0.623   3.134   2.756  0.1621 -0.8806  0.3038
  894MOL0     H20681   0.527   3.196   2.623 -0.6739 -0.4681  0.0620
  894MOL0     H20682   0.439   3.331   2.865  0.3887  4.6947  0.0265
  894MOL0     H20683   0.482   3.387   2.712  1.5512 -1.3903  0.4142
  894MOL0     H20684   0.722   3.364   2.750  0.1073 -2.7068  0.1478
  894MOL0     H20685   0.697   3.302   2.908 -0.9058 -0.9038 -0.5856
  894MOL0     H20686   0.569   3.475   2.984 -0.1099 -1.4206 -1.2217
  894MOL0     H20687   0.563   3.557   2.821  0.3613 -0.1417 -1.2082
  894MOL0     H20688   0.952   3.649   2.984  0.8378 -4.9724  0.0169
  894MOL0     H20689   0.555   2.972   2.563  1.2311  0.2859  1.0387
  894MOL0     H20690   0.438   2.806   2.426 -1.8740  1.2767 -3.0315
  895MOL0     O20691   2.520   5.775  10.738  1.0836  0.1705 -0.6325
  895MOL0     C20692   2.477   5.774  10.857  0.6930  0.1887 -0.1610
  895MOL0     O20693   2.550   5.731  10.969  0.2362  0.4067  0.2588
  895MOL0     C20694   2.657   5.656  10.951 -0.5105 -0.0442  0.2102
  895MOL0     C20695   2.682   5.555  11.046 -0.4557 -0.1036 -0.0943
  895MOL0     C20696   2.812   5.505  11.054  0.3087 -0.3416  0.8441
  895MOL0     C20697   2.913   5.540  10.965  0.3782 -0.6496 -0.9359
  895MOL0     O20698   3.045   5.495  10.979 -0.2841 -0.6058 -0.7594
  895MOL0     C20699   3.118   5.469  10.864 -0.1212 -0.8657 -0.3248
  895MOL0     C20700   3.234   5.573  10.864 -0.1450  0.0564 -0.1015
  895MOL0     C20701   3.336   5.528  10.766  0.4606 -0.4161  0.0029
  895MOL0     C20702   3.336   5.610  10.632  0.1647  0.0797 -0.4645
  895MOL0     C20703   3.446   5.559  10.543 -0.2150  0.6089  0.0219
  895MOL0     C20704   3.447   5.620  10.398  0.1068  0.9622 -0.0720
  895MOL0     C20705   3.319   5.615  10.328  0.4238  1.0128 -0.3601
  895MOL0     C20706   3.322   5.680  10.186  0.0041  0.4756  0.1466
  895MOL0     N20707   3.293   5.817  10.181 -0.0789 -0.3974  0.7191
  895MOL0     C20708   3.364   5.926  10.217  0.3624  0.2753  0.2131
  895MOL0     C20709   3.279   6.031  10.199 -0.4721 -0.2684  0.4360
  895MOL0     C20710   3.331   6.179  10.206 -0.0763 -0.1235 -0.0910
  895MOL0     C20711   3.211   6.259  10.276  0.2173  0.6561 -0.1970
  895MOL0     C20712   3.229   6.409  10.313  0.0682 -0.2565 -0.3920
  895MOL0     C20713   3.113   6.469  10.397 -1.1442  0.5265 -1.5260
  895MOL0     O20714   3.172   6.572  10.481  0.0859 -0.3510 -0.4865
  895MOL0     C20715   3.211   6.513  10.602 -0.2237 -0.2824  0.1113
  895MOL0     C20716   3.346   6.483  10.624 -0.1639  0.1258 -0.1284
  895MOL0     C20717   3.385   6.391  10.731  0.0936 -0.3900 -0.1374
  895MOL0     C20718   3.534   6.371  10.749  0.7535  0.7127  0.0701
  895MOL0     C20719   3.288   6.342  10.825 -0.5226 -1.0432 -0.6733
  895MOL0     C20720   3.313   6.279  10.956  0.3453 -0.1893 -0.6425
  895MOL0     O20721   3.212   6.211  11.007 -0.4031 -0.0278  0.0565
  895MOL0     C20722   3.208   6.185  11.141 -0.1789 -0.4989  0.4662
  895MOL0     C20723   3.163   6.055  11.173  0.1768  0.0506 -0.3936
  895MOL0     C20724   3.156   6.004  11.305  0.2717  0.2607  0.0550
  895MOL0     C20725   3.216   6.076  11.410  0.7224  0.1984  0.3335
  895MOL0     O20726   3.208   6.008  11.523  0.4064  0.2974 -0.8851
  895MOL0     C20727   3.323   6.014  11.608 -0.3248  0.2721  0.8671
  895MOL0     C20728   3.293   5.948  11.748 -0.1147 -0.4975  0.0326
  895MOL0     C20729   3.280   5.795  11.744 -0.2116  0.1446 -0.9107
  895MOL0     C20730   3.415   5.720  11.756 -0.2736  0.7604 -0.3890
  895MOL0     C20731   3.407   5.573  11.707  0.6809  0.7536 -0.5850
  895MOL0     C20732   3.543   5.493  11.709  0.5417  0.8310  0.6630
  895MOL0     C20733   3.605   5.504  11.852  0.6614  0.1653 -0.6293
  895MOL0     C20734   3.667   5.372  11.892  0.2434  0.0008 -0.4214
  895MOL0    Cl20735   3.822   5.361  11.802 -0.4582 -0.0165  0.1714
  895MOL0     C20736   3.267   6.209  11.386  0.6100  0.3696  0.3669
  895MOL0     C20737   3.256   6.262  11.251  0.6403  0.4419  0.7246
  895MOL0     O20738   3.422   6.302  11.010  0.1274  0.0972  0.7539
  895MOL0     C20739   3.154   6.387  10.801 -0.5483 -0.6956  0.2733
  895MOL0     C20740   3.117   6.472  10.699 -0.6528 -0.0551  0.2606
  895MOL0     N20741   3.162   5.992  10.135  0.8051 -0.3117 -0.1395
  895MOL0     N20742   3.165   5.859  10.147  0.7295 -0.0728  0.3288
  895MOL0     C20743   2.887   5.625  10.861  0.0307 -0.5298  0.5784
  895MOL0     C20744   2.757   5.682  10.857  0.7493 -0.9854  0.2572
  895MOL0     C20745   2.334   5.827  10.886 -0.1073 -0.3395  0.0738
  895MOL0     C20746   2.278   5.833  11.016 -1.1029 -0.3952  0.3741
  895MOL0     C20747   2.148   5.860  11.042  0.0186  0.6279 -0.9495
  895MOL0     C20748   2.058   5.906  10.941  0.4484  0.8921  0.0601
  895MOL0     O20749   1.937   5.950  10.953 -0.0149 -0.3879 -0.6785
  895MOL0     C20750   1.894   5.970  11.087 -0.2683 -0.9975 -0.2356
  895MOL0     C20751   1.741   5.996  11.082  0.1696  0.9191 -0.8713
  895MOL0     C20752   1.680   5.945  11.209  0.0245  0.1629 -0.3729
  895MOL0     C20753   1.544   5.988  11.249 -0.5805 -0.8133  0.0164
  895MOL0     C20754   1.455   5.911  11.158  0.1736 -1.3576  0.2179
  895MOL0     C20755   1.405   5.847  11.068 -0.1230 -0.4298 -0.3180
  895MOL0     C20756   2.100   5.884  10.811  0.0672  0.3777  0.3501
  895MOL0     C20757   2.237   5.862  10.787 -0.2648 -0.2742 -0.9689
  895MOL0     H20758   2.616   5.526  11.127 -0.9178 -1.0838 -0.8033
  895MOL0     H20759   2.825   5.432  11.133  0.0837 -0.2209  0.9937
  895MOL0     H20760   3.149   5.365  10.872  1.6443 -0.5086 -1.8184
  895MOL0     H20761   3.066   5.467  10.768 -0.0809  0.7496 -0.4184
  895MOL0     H20762   3.190   5.670  10.837  1.7999  1.1608  0.4689
  895MOL0     H20763   3.282   5.606  10.957 -2.2318  1.0649  0.7110
  895MOL0     H20764   3.435   5.546  10.809 -0.0373 -0.8629  1.3983
  895MOL0     H20765   3.326   5.423  10.737  0.9420 -1.0599  2.0063
  895MOL0     H20766   3.236   5.595  10.588 -0.7303  1.8004  0.8190
  895MOL0     H20767   3.347   5.718  10.649  3.9599 -0.1399 -0.7169
  895MOL0     H20768   3.545   5.580  10.583  1.6281 -2.7660 -2.3224
  895MOL0     H20769   3.444   5.451  10.527  0.3623  0.1918  2.4776
  895MOL0     H20770   3.480   5.724  10.400 -0.2588  1.0787  0.2540
  895MOL0     H20771   3.524   5.563  10.346  5.0058  2.5168  4.5606
  895MOL0     H20772   3.277   5.514  10.334 -2.3637  2.1650  2.1824
  895MOL0     H20773   3.246   5.673  10.385  0.9752 -0.7241  2.2855
  895MOL0     H20774   3.245   5.630  10.127 -2.0964  2.6563  0.8993
  895MOL0     H20775   3.419   5.669  10.135 -0.8966 -1.8771 -1.2202
  895MOL0     H20776   3.469   5.935  10.242  0.1557  0.8370  0.9136
  895MOL0     H20777   3.426   6.186  10.259 -0.9324 -0.1169  1.4826
  895MOL0     H20778   3.338   6.224  10.106  0.3658 -0.7620 -0.3513
  895MOL0     H20779   3.179   6.205  10.366 -2.0273  1.0780 -0.6956
  895MOL0     H20780   3.130   6.255  10.203  1.5418  0.5558 -1.7406
  895MOL0     H20781   3.235   6.475  10.226 -1.8550 -0.6542 -0.8755
  895MOL0     H20782   3.322   6.420  10.370  0.0907  2.3954 -0.8167
  895MOL0     H20783   3.072   6.384  10.454  1.9709  1.0944  1.9378
  895MOL0     H20784   3.028   6.507  10.340 -2.7887 -2.7050 -1.5111
  895MOL0     H20785   3.427   6.525  10.564  0.5467 -2.1109 -0.8284
  895MOL0     H20786   3.568   6.444  10.824 -0.0579  0.0159  1.1391
  895MOL0     H20787   3.568   6.274  10.787 -0.3239 -0.0920 -0.9325
  895MOL0     H20788   3.582   6.396  10.654  0.9218  1.9810  0.4615
  895MOL0     H20789   3.129   5.996  11.089 -0.6191 -0.6771  0.4279
  895MOL0     H20790   3.123   5.904  11.330 -1.4486  0.7592 -0.1215
  895MOL0     H20791   3.406   5.971  11.551  1.1718  3.7328  0.1553
  895MOL0     H20792   3.347   6.120  11.623  0.7016 -0.1714  2.8224
  895MOL0     H20793   3.371   5.983  11.817  0.2735 -0.1733 -0.5620
  895MOL0     H20794   3.199   5.986  11.791 -1.7150 -1.2405 -2.5920
  895MOL0     H20795   3.223   5.757  11.659 -1.2267 -1.8904  0.6170
  895MOL0     H20796   3.224   5.775  11.835  2.6691  2.1073  1.5128
  895MOL0     H20797   3.486   5.770  11.690  2.9730 -0.1839  2.0966
  895MOL0     H20798   3.447   5.739  11.859 -2.5739 -1.3359  0.8218
  895MOL0     H20799   3.354   5.575  11.611  0.8766  1.5545 -0.6853
  895MOL0     H20800   3.341   5.514  11.772 -0.8861  1.3482 -1.5812
  895MOL0     H20801   3.506   5.391  11.694 -2.4343  1.4336  2.9352
  895MOL0     H20802   3.615   5.530  11.635  3.1030 -2.7781  1.1253
  895MOL0     H20803   3.529   5.524  11.928  1.3962 -0.1644  0.2092
  895MOL0     H20804   3.687   5.577  11.856  1.4061 -0.5504 -2.0177
  895MOL0     H20805   3.599   5.289  11.873  3.9434 -4.4486  3.0905
  895MOL0     H20806   3.690   5.380  11.999  2.1923  1.6690 -0.8972
  895MOL0     H20807   3.314   6.264  11.467 -0.3796 -1.0348  1.9649
  895MOL0     H20808   3.294   6.363  11.238 -2.9725  1.6452 -2.5698
  895MOL0     H20809   3.068   6.357  10.859 -1.1573 -0.5907 -0.5473
  895MOL0     H20810   3.013   6.493  10.678 -0.7916 -0.1384  0.8719
  895MOL0     H20811   2.973   5.654  10.802 -0.8388 -0.7802 -0.8410
  895MOL0     H20812   2.744   5.762  10.785  1.9335 -1.3804 -0.4185
  895MOL0     H20813   2.340   5.804  11.100 -2.6991 -2.3830  0.9476
  895MOL0     H20814   2.132   5.873  11.148  2.3907  0.5555 -0.5311
  895MOL0     H20815   1.910   5.874  11.137 -2.9077 -2.4211 -1.9168
  895MOL0     H20816   1.947   6.055  11.133  1.1230 -2.2243  0.5362
  895MOL0     H20817   1.689   5.951  10.997  2.2113 -1.3658 -1.0252
  895MOL0     H20818   1.721   6.104  11.083 -0.3117  0.9138  2.3821
  895MOL0     H20819   1.743   5.980  11.292  2.4292 -0.1358 -1.9796
  895MOL0     H20820   1.676   5.836  11.217 -0.0168 -0.2163 -3.8779
  895MOL0     H20821   1.536   6.096  11.233  0.6810 -0.5193  1.2629
  895MOL0     H20822   1.528   5.966  11.355  1.3110  0.0543  0.5267
  895MOL0     H20823   1.352   5.781  11.002  1.8921  0.5507 -3.1115
  895MOL0     H20824   2.034   5.912  10.730 -1.2042  0.7650  1.4920
  895MOL0     H20825   2.277   5.870  10.686 -0.8457  0.7840 -1.1278
  896MOL0     O20826   6.786   8.479   5.581 -0.1963  0.2916  0.0734
  896MOL0     C20827   6.762   8.595   5.612 -0.1268  0.8488 -0.0327
  896MOL0     O20828   6.652   8.661   5.576 -0.1431 -0.5007  0.5114
  896MOL0     C20829   6.566   8.616   5.481 -0.4174 -0.8525  0.6494
  896MOL0     C20830   6.548   8.484   5.426  0.1194 -0.3763 -0.0589
  896MOL0     C20831   6.432   8.451   5.354  0.3747  0.4337 -0.4040
  896MOL0     C20832   6.337   8.545   5.317 -0.8932 -0.5970  0.2447
  896MOL0     O20833   6.237   8.509   5.237  0.9683  0.2678  0.1923
  896MOL0     C20834   6.116   8.588   5.249  0.7170 -0.5418  0.5632
  896MOL0     C20835   5.987   8.504   5.228 -0.2294 -0.3684 -0.0408
  896MOL0     C20836   5.978   8.460   5.083  0.0286 -0.0299  0.9810
  896MOL0     C20837   5.843   8.392   5.067 -0.1566  1.2368  0.2729
  896MOL0     C20838   5.848   8.271   4.974  0.1332 -0.0646 -0.2713
  896MOL0     C20839   5.756   8.154   5.018  0.4459 -0.1815  0.5924
  896MOL0     C20840   5.763   8.030   4.917 -0.7369 -1.0850 -0.5632
  896MOL0     C20841   5.743   8.044   4.764  0.2482 -0.6636 -0.4710
  896MOL0     N20842   5.601   8.097   4.745  0.6255 -0.3448 -0.0444
  896MOL0     C20843   5.503   8.037   4.671 -0.6193  0.0958 -0.7924
  896MOL0     C20844   5.406   8.129   4.673  1.3216  0.2232 -1.0067
  896MOL0     C20845   5.270   8.104   4.623 -0.2647  0.0252  0.4835
  896MOL0     C20846   5.194   8.014   4.737 -0.7055 -0.8800 -0.3557
  896MOL0     C20847   5.088   7.939   4.672  0.9714  0.3504 -0.1883
  896MOL0     C20848   5.022   7.849   4.777 -0.7336 -0.1124  0.0517
  896MOL0     O20849   4.957   7.927   4.880 -0.8207 -0.8674  0.1148
  896MOL0     C20850   4.832   7.897   4.924  0.2583 -1.1176  0.3002
  896MOL0     C20851   4.816   7.800   5.023 -0.3674 -0.5291 -0.1668
  896MOL0     C20852   4.691   7.772   5.067  0.1504  0.1749  0.2125
  896MOL0     C20853   4.701   7.673   5.177  0.4022  0.8998 -0.2503
  896MOL0     C20854   4.576   7.830   5.005  0.2276 -0.2855  0.8193
  896MOL0     C20855   4.442   7.782   5.041 -0.8970 -0.8592 -0.2352
  896MOL0     O20856   4.347   7.884   5.024  0.7394 -0.2670 -0.5998
  896MOL0     C20857   4.220   7.855   5.052  0.5004 -0.1211  0.1705
  896MOL0     C20858   4.173   7.826   5.177 -0.2026  0.2126 -1.2278
  896MOL0     C20859   4.030   7.827   5.211  0.5273 -0.5942 -0.0558
  896MOL0     C20860   3.934   7.831   5.102 -0.2424 -1.0903  0.0972
  896MOL0     O20861   3.800   7.829   5.128  0.0770 -0.8438  0.9298
  896MOL0     C20862   3.740   7.707   5.083 -0.3981  0.5623  0.6331
  896MOL0     C20863   3.606   7.703   5.156  0.1253 -0.6708  0.1894
  896MOL0     C20864   3.522   7.599   5.084 -0.7982  0.4085 -0.3737
  896MOL0     C20865   3.394   7.584   5.170  0.3646  0.0284 -0.4923
  896MOL0     C20866   3.300   7.485   5.105 -0.1529 -0.2434 -0.4097
  896MOL0     C20867   3.342   7.333   5.131 -0.0136  1.2769 -0.5605
  896MOL0     C20868   3.274   7.243   5.025 -0.0827 -1.0364 -0.1836
  896MOL0     C20869   3.128   7.255   5.033 -1.0572  0.7663 -0.7693
  896MOL0    Cl20870   3.066   7.191   5.184 -0.1555  0.1762 -0.2952
  896MOL0     C20871   3.987   7.845   4.966  0.4060 -0.4786  0.1413
  896MOL0     C20872   4.127   7.855   4.945  0.2939 -0.0994  0.6067
  896MOL0     O20873   4.420   7.676   5.095 -0.2683  0.0820  0.4191
  896MOL0     C20874   4.597   7.935   4.909 -0.2010 -0.5324 -0.1615
  896MOL0     C20875   4.727   7.974   4.871  0.2367 -0.3619 -0.2654
  896MOL0     N20876   5.439   8.240   4.740 -0.9555  0.4402 -0.0589
  896MOL0     N20877   5.565   8.219   4.771  0.6414 -0.1227  0.2825
  896MOL0     C20878   6.361   8.675   5.350 -0.5544  0.2992 -0.8427
  896MOL0     C20879   6.468   8.707   5.439 -0.5044  0.5335 -0.2669
  896MOL0     C20880   6.847   8.661   5.715  0.2315  0.1353  0.2104
  896MOL0     C20881   6.824   8.791   5.762 -0.3073  0.3930 -0.5555
  896MOL0     C20882   6.909   8.843   5.860 -0.9436  0.0791 -0.5528
  896MOL0     C20883   7.012   8.773   5.931  0.5909  0.0216  0.4579
  896MOL0     O20884   7.099   8.817   6.021  1.0752  1.0509  0.1274
  896MOL0     C20885   7.142   8.955   6.034  0.3136 -0.7349  0.5521
  896MOL0     C20886   7.255   8.998   5.943  0.4769 -0.1766  0.2738
  896MOL0     C20887   7.222   8.981   5.792 -0.1872 -0.2553  0.2525
  896MOL0     C20888   7.352   8.954   5.720 -0.7950  0.6613  0.1353
  896MOL0     C20889   7.429   9.087   5.700 -0.0079  0.4817  0.0149
  896MOL0     C20890   7.502   9.185   5.679  1.0513  0.2599  0.8914
  896MOL0     C20891   7.026   8.638   5.893 -0.3743 -0.4267  0.1027
  896MOL0     C20892   6.955   8.592   5.776  0.8822 -0.7756  0.4096
  896MOL0     H20893   6.618   8.403   5.441 -2.5299 -2.7703  0.2111
  896MOL0     H20894   6.413   8.350   5.318 -2.2513  0.7099  0.0311
  896MOL0     H20895   6.099   8.648   5.338 -0.2154 -2.5424  1.7902
  896MOL0     H20896   6.116   8.659   5.165 -2.4892  1.7277  2.2979
  896MOL0     H20897   6.000   8.421   5.298  0.0724  1.7534  2.6196
  896MOL0     H20898   5.894   8.547   5.265  0.1238  0.7131 -0.3679
  896MOL0     H20899   5.986   8.543   5.011  3.6531 -0.6157  0.5277
  896MOL0     H20900   6.055   8.389   5.055 -0.6222 -0.5712  0.5328
  896MOL0     H20901   5.809   8.342   5.158 -0.4540 -1.1865 -1.0769
  896MOL0     H20902   5.773   8.468   5.031 -0.5335  1.3575  1.2237
  896MOL0     H20903   5.810   8.305   4.878 -1.1986 -1.0327 -0.1112
  896MOL0     H20904   5.942   8.215   4.969 -2.0053 -3.8878 -2.1975
  896MOL0     H20905   5.778   8.122   5.121  4.3598 -0.9992 -0.3493
  896MOL0     H20906   5.649   8.176   5.013  0.1441 -0.6498  3.3727
  896MOL0     H20907   5.861   7.983   4.910  1.0957  2.5403 -2.3159
  896MOL0     H20908   5.688   7.957   4.948 -1.2983 -1.9003 -3.4826
  896MOL0     H20909   5.748   7.951   4.707  0.4710  0.0024 -1.5507
  896MOL0     H20910   5.813   8.122   4.733 -1.5487  0.9406 -0.6483
  896MOL0     H20911   5.503   7.941   4.621 -2.0347  0.1962 -1.0273
  896MOL0     H20912   5.217   8.196   4.597 -3.6264 -1.0801  2.7175
  896MOL0     H20913   5.256   8.048   4.531 -0.2936  1.6945 -0.5626
  896MOL0     H20914   5.168   8.079   4.821  2.3047 -3.5345  2.9182
  896MOL0     H20915   5.268   7.941   4.770  1.4587 -1.0142 -4.6975
  896MOL0     H20916   5.130   7.871   4.597 -1.6949  0.1919 -1.6691
  896MOL0     H20917   5.014   8.013   4.639  1.0019  0.5212  0.1214
  896MOL0     H20918   5.094   7.777   4.816 -0.9537  0.1836  1.0377
  896MOL0     H20919   4.948   7.786   4.727  0.2746 -1.6834  0.4729
  896MOL0     H20920   4.907   7.746   5.047 -0.4424 -0.7689 -0.4161
  896MOL0     H20921   4.780   7.696   5.249  1.1232  1.2475 -1.1404
  896MOL0     H20922   4.601   7.668   5.221  0.4637  1.0282 -0.0944
  896MOL0     H20923   4.718   7.577   5.128  1.2053 -1.3656  4.0033
  896MOL0     H20924   4.251   7.816   5.252 -0.9877  1.3408 -0.2195
  896MOL0     H20925   4.012   7.817   5.318  0.0150  0.2791 -0.0485
  896MOL0     H20926   3.724   7.705   4.975 -0.2860 -2.4797  0.5766
  896MOL0     H20927   3.806   7.624   5.108  0.3105 -0.1754 -3.1538
  896MOL0     H20928   3.611   7.678   5.263 -1.2761  1.1543  0.7465
  896MOL0     H20929   3.557   7.800   5.142 -1.8459 -1.7758 -0.9110
  896MOL0     H20930   3.583   7.509   5.087  3.2263  2.8946  1.6018
  896MOL0     H20931   3.498   7.627   4.980  1.1401 -1.5550 -1.4239
  896MOL0     H20932   3.419   7.554   5.272  0.5992  1.5146 -0.0870
  896MOL0     H20933   3.344   7.681   5.173  1.4999  0.6203 -0.0442
  896MOL0     H20934   3.306   7.495   4.996  0.6660 -1.3431 -0.4922
  896MOL0     H20935   3.197   7.504   5.134  0.1899  1.6646 -0.3149
  896MOL0     H20936   3.451   7.320   5.130 -0.3882 -4.3195  0.4311
  896MOL0     H20937   3.314   7.293   5.229 -0.3018  1.8882 -0.3912
  896MOL0     H20938   3.294   7.138   5.051 -4.3402 -1.3406  3.0833
  896MOL0     H20939   3.318   7.271   4.929  1.1522  2.6005  1.2702
  896MOL0     H20940   3.089   7.181   4.963  0.8423 -1.8249  0.7023
  896MOL0     H20941   3.094   7.358   5.024 -1.0447  1.1393  2.3689
  896MOL0     H20942   3.913   7.845   4.887  1.5508  0.5452 -0.9862
  896MOL0     H20943   4.159   7.868   4.842  2.4846 -1.1087  1.0876
  896MOL0     H20944   4.524   7.993   4.853  2.3079  0.2343 -2.8910
  896MOL0     H20945   4.740   8.051   4.795 -4.0109  0.0328 -0.8374
  896MOL0     H20946   6.293   8.755   5.323  1.5787  4.3662  4.0500
  896MOL0     H20947   6.468   8.807   5.483 -1.6341 -0.8932  3.3767
  896MOL0     H20948   6.754   8.856   5.710 -0.2562  0.7884 -0.1405
  896MOL0     H20949   6.902   8.946   5.894 -0.0975 -0.6170  1.9971
  896MOL0     H20950   7.059   9.024   6.016  0.9466  0.4722  2.0768
  896MOL0     H20951   7.170   8.959   6.139  0.3727  1.1044  0.4997
  896MOL0     H20952   7.346   8.944   5.974  0.9493  1.4617  1.9536
  896MOL0     H20953   7.286   9.102   5.951  1.1082 -0.3078 -0.3544
  896MOL0     H20954   7.179   9.072   5.749  0.6860  0.9451  1.8228
  896MOL0     H20955   7.157   8.894   5.777 -2.2103  0.9700  1.4655
  896MOL0     H20956   7.336   8.923   5.616 -2.2318  0.4838  0.3927
  896MOL0     H20957   7.419   8.886   5.773  1.4834  2.0473 -0.8234
  896MOL0     H20958   7.555   9.263   5.627 -0.8178 -0.6977 -2.7923
  896MOL0     H20959   7.093   8.584   5.958  1.2648 -1.1158 -2.0582
  896MOL0     H20960   6.977   8.491   5.742 -0.9736 -0.7946 -0.8360
  897MOL0     O20961   2.007   9.111   4.082 -0.3896  0.3505 -0.6741
  897MOL0     C20962   2.113   9.147   4.022  0.6385  1.0354  0.7312
  897MOL0     O20963   2.163   9.091   3.911 -0.1534 -0.3589  0.4678
  897MOL0     C20964   2.102   8.976   3.857  1.1784  0.2379  0.2949
  897MOL0     C20965   2.003   8.977   3.758 -0.9561  0.0983  0.1520
  897MOL0     C20966   1.940   8.859   3.702 -0.0011  0.6940 -0.3483
  897MOL0     C20967   1.981   8.735   3.760  0.3664 -0.7965 -0.1741
  897MOL0     O20968   1.921   8.625   3.703 -0.5505  0.1537 -0.4327
  897MOL0     C20969   2.012   8.528   3.652  0.0365 -0.4850  0.1933
  897MOL0     C20970   1.924   8.443   3.553  0.3750 -0.1973  0.2232
  897MOL0     C20971   1.820   8.344   3.618 -0.9775 -0.5307  0.5094
  897MOL0     C20972   1.719   8.306   3.509  0.0416  0.5131  0.1857
  897MOL0     C20973   1.623   8.207   3.585  0.0007 -0.8737 -0.2813
  897MOL0     C20974   1.524   8.133   3.496  0.0001  1.0218 -0.1559
  897MOL0     C20975   1.398   8.214   3.475 -0.1453  0.1187  0.1599
  897MOL0     C20976   1.301   8.133   3.398  0.6802  0.5317 -0.7365
  897MOL0     N20977   1.237   8.039   3.495 -0.4542  0.8287 -0.9806
  897MOL0     C20978   1.202   8.045   3.631  0.2107 -0.4189  0.0529
  897MOL0     C20979   1.155   7.932   3.674  1.7973  0.0386  0.1525
  897MOL0     C20980   1.080   7.879   3.793 -0.5103  0.1948  0.9136
  897MOL0     C20981   1.157   7.799   3.884 -0.4744  0.0176 -0.8976
  897MOL0     C20982   1.171   7.649   3.829  0.2079  0.2072  0.5977
  897MOL0     C20983   1.050   7.558   3.838  0.7788  0.7387  0.1914
  897MOL0     O20984   1.086   7.430   3.776 -0.3714  0.0011  0.1651
  897MOL0     C20985   1.172   7.344   3.837 -0.6018 -0.0822 -0.1719
  897MOL0     C20986   1.247   7.274   3.749 -0.7584  0.0221  0.6480
  897MOL0     C20987   1.335   7.167   3.785  0.8414  0.0271  1.0865
  897MOL0     C20988   1.418   7.107   3.673  0.1727  0.9832 -0.4284
  897MOL0     C20989   1.359   7.138   3.928  0.3026  0.2198  0.1324
  897MOL0     C20990   1.452   7.031   3.972  0.5974 -0.6175 -0.7656
  897MOL0     O20991   1.410   6.904   3.986  0.0604 -0.4043 -0.0961
  897MOL0     C20992   1.487   6.822   4.058  0.1305  0.8189 -0.2316
  897MOL0     C20993   1.475   6.689   4.030  0.5863 -0.0830  0.0787
  897MOL0     C20994   1.530   6.588   4.116  0.2629 -0.3850 -0.3170
  897MOL0     C20995   1.588   6.618   4.236  0.3485 -0.4004 -0.1380
  897MOL0     O20996   1.636   6.510   4.303 -0.2298 -0.5252 -0.7226
  897MOL0     C20997   1.538   6.442   4.381  0.3430 -0.3632  0.5944
  897MOL0     C20998   1.611   6.309   4.407 -0.5116 -0.8410  0.6703
  897MOL0     C20999   1.728   6.304   4.499 -0.5261 -0.1990 -0.3206
  897MOL0     C21000   1.859   6.325   4.428 -0.7015  0.0692  0.1637
  897MOL0     C21001   1.970   6.328   4.530 -0.4958 -1.1717 -0.7708
  897MOL0     C21002   2.057   6.453   4.519 -0.0364 -0.0531  0.2246
  897MOL0     C21003   1.974   6.583   4.537  0.1279 -0.4777 -0.5857
  897MOL0     C21004   2.044   6.696   4.461  0.1009  0.2944 -1.2923
  897MOL0    Cl21005   2.218   6.692   4.482  0.1306 -0.2898  0.1377
  897MOL0     C21006   1.595   6.751   4.269 -0.5019  1.2490  0.1967
  897MOL0     C21007   1.544   6.847   4.190 -0.3632 -0.0526  1.0713
  897MOL0     O21008   1.555   7.077   4.009  0.2505 -0.4543 -0.1713
  897MOL0     C21009   1.281   7.216   4.023 -0.0429 -0.2864  0.6351
  897MOL0     C21010   1.189   7.311   3.972 -0.3046 -0.5439 -0.9501
  897MOL0     N21011   1.174   7.839   3.566 -0.0260  0.5501 -0.4331
  897MOL0     N21012   1.228   7.905   3.465  0.2747  0.7951 -0.5479
  897MOL0     C21013   2.086   8.732   3.854 -0.0787  0.6651  0.6762
  897MOL0     C21014   2.141   8.849   3.900 -0.8170  0.6767 -0.0050
  897MOL0     C21015   2.199   9.260   4.069  0.7457  0.3540  0.6002
  897MOL0     C21016   2.338   9.257   4.036  0.4275  0.8688 -0.2874
  897MOL0     C21017   2.418   9.356   4.089 -0.8679  0.2025  0.1785
  897MOL0     C21018   2.363   9.466   4.160 -0.0015  0.1557 -0.0074
  897MOL0     O21019   2.444   9.568   4.198  0.6894  0.1572  1.0969
  897MOL0     C21020   2.422   9.641   4.317  0.7466 -0.0189 -0.4567
  897MOL0     C21021   2.348   9.772   4.315  0.6698 -0.2265  1.2003
  897MOL0     C21022   2.401   9.876   4.204  0.8213 -1.0106 -0.0158
  897MOL0     C21023   2.308  10.000   4.178 -0.0724  0.0053  0.8784
  897MOL0     C21024   2.390  10.105   4.106 -0.1805 -0.3223  0.1675
  897MOL0     C21025   2.442  10.201   4.055  0.5504  0.0111  0.4324
  897MOL0     C21026   2.229   9.457   4.195  0.2057 -1.2354 -0.5868
  897MOL0     C21027   2.149   9.348   4.156  0.3529 -0.7186  0.2590
  897MOL0     H21028   1.973   9.073   3.718  0.9761  1.2357  1.2636
  897MOL0     H21029   1.870   8.860   3.619 -0.5845 -1.0367  0.0762
  897MOL0     H21030   2.097   8.580   3.607 -1.0244 -0.2953 -1.7333
  897MOL0     H21031   2.057   8.465   3.729 -0.5743  0.2735  1.1972
  897MOL0     H21032   1.873   8.503   3.478 -0.6147 -0.5839  0.5699
  897MOL0     H21033   2.002   8.386   3.501  0.1744  0.3350 -0.6859
  897MOL0     H21034   1.871   8.255   3.655  2.5934  1.3814  0.6382
  897MOL0     H21035   1.772   8.392   3.704  3.0224  0.3425  2.5094
  897MOL0     H21036   1.657   8.389   3.473 -2.2824  0.1370  2.9468
  897MOL0     H21037   1.767   8.250   3.428  0.4430  2.0678 -0.6875
  897MOL0     H21038   1.689   8.133   3.630  0.2340 -0.8844 -0.6363
  897MOL0     H21039   1.563   8.258   3.661  1.0432 -2.3830  1.6360
  897MOL0     H21040   1.571   8.102   3.402  1.7008  0.8496  0.7168
  897MOL0     H21041   1.498   8.036   3.541 -0.6776  0.6059 -1.3803
  897MOL0     H21042   1.350   8.247   3.567 -3.5691 -0.4960 -1.2333
  897MOL0     H21043   1.423   8.303   3.416  1.1302 -0.5125 -0.2978
  897MOL0     H21044   1.345   8.079   3.314 -0.1625 -0.8469 -0.3212
  897MOL0     H21045   1.226   8.202   3.358  0.6147  0.6943 -0.3441
  897MOL0     H21046   1.220   8.138   3.684  1.6351  0.4736 -1.8653
  897MOL0     H21047   1.038   7.961   3.852 -1.4363  1.3644 -1.2556
  897MOL0     H21048   0.991   7.828   3.756  0.0313  0.2418 -0.5071
  897MOL0     H21049   1.103   7.793   3.979  0.8180 -0.7912 -0.1796
  897MOL0     H21050   1.259   7.833   3.906 -1.0594  1.5286 -0.4345
  897MOL0     H21051   1.249   7.606   3.892  0.5253  2.1120  1.5658
  897MOL0     H21052   1.204   7.645   3.724 -0.7891 -1.4345  0.3075
  897MOL0     H21053   0.960   7.605   3.796 -0.0978 -0.6947  0.3901
  897MOL0     H21054   1.031   7.546   3.946 -1.2544 -1.9659 -0.3433
  897MOL0     H21055   1.253   7.306   3.645  0.8121  1.6892  1.1892
  897MOL0     H21056   1.350   7.040   3.619 -1.6720  1.6303  0.9788
  897MOL0     H21057   1.445   7.187   3.604 -3.6502  2.2670 -0.6802
  897MOL0     H21058   1.500   7.039   3.698 -1.6175 -0.6139  1.4572
  897MOL0     H21059   1.436   6.662   3.932  2.2153  1.6811 -1.1237
  897MOL0     H21060   1.521   6.481   4.103  1.1250 -0.4654 -0.2618
  897MOL0     H21061   1.523   6.497   4.475 -1.4515  1.6366 -0.7635
  897MOL0     H21062   1.440   6.434   4.333  0.3015 -3.5321  0.9938
  897MOL0     H21063   1.536   6.240   4.445  0.3599 -1.1033  1.9566
  897MOL0     H21064   1.637   6.264   4.311 -0.9837 -0.8111  0.5237
  897MOL0     H21065   1.744   6.204   4.541 -1.5104 -0.9891 -1.7419
  897MOL0     H21066   1.706   6.381   4.573 -2.3563 -1.3485  0.3883
  897MOL0     H21067   1.879   6.240   4.362  2.4755  0.7679  0.0850
  897MOL0     H21068   1.864   6.411   4.362  0.7682  1.0988  1.5424
  897MOL0     H21069   2.029   6.239   4.509 -0.8769 -1.4977 -0.4787
  897MOL0     H21070   1.927   6.321   4.630 -0.5120 -0.1067 -0.6939
  897MOL0     H21071   2.146   6.454   4.583 -1.4639 -0.7434  2.3291
  897MOL0     H21072   2.093   6.444   4.416 -2.4267 -0.4497 -0.6430
  897MOL0     H21073   1.965   6.606   4.643  0.1932 -0.3569 -0.6067
  897MOL0     H21074   1.873   6.573   4.496 -1.6815  1.0783  3.0682
  897MOL0     H21075   2.007   6.796   4.485  1.5004  0.4544  0.3650
  897MOL0     H21076   2.021   6.668   4.357  3.2497 -0.5424 -1.8489
  897MOL0     H21077   1.649   6.781   4.358 -0.3458  1.1416  0.1381
  897MOL0     H21078   1.552   6.948   4.228 -2.1728  0.4474  0.2300
  897MOL0     H21079   1.285   7.202   4.131 -1.7784 -0.1053  0.7501
  897MOL0     H21080   1.130   7.364   4.046 -1.7575 -2.9800 -0.2244
  897MOL0     H21081   2.123   8.635   3.884 -0.8076  0.3328  0.5181
  897MOL0     H21082   2.214   8.843   3.981 -1.6741  3.1647  1.0587
  897MOL0     H21083   2.362   9.184   3.960 -2.5211 -2.1448  1.4144
  897MOL0     H21084   2.519   9.368   4.051 -0.6627  0.8086  0.8977
  897MOL0     H21085   2.377   9.584   4.399 -1.2329 -1.4798 -2.4600
  897MOL0     H21086   2.524   9.659   4.354  0.2048  0.4733  0.8789
  897MOL0     H21087   2.347   9.818   4.415  1.9620  2.6714 -0.0114
  897MOL0     H21088   2.246   9.753   4.281  0.1659 -1.2533  3.1387
  897MOL0     H21089   2.413   9.819   4.112 -1.7454 -1.9355  0.1334
  897MOL0     H21090   2.490   9.930   4.238 -0.0306  2.8597 -3.1733
  897MOL0     H21091   2.271  10.041   4.272  2.7680  0.6558  1.8051
  897MOL0     H21092   2.212   9.979   4.130 -1.3980  2.3235  2.2932
  897MOL0     H21093   2.483  10.290   4.012 -2.5674  0.6598 -1.4563
  897MOL0     H21094   2.194   9.549   4.242 -0.4385 -0.5257 -2.3779
  897MOL0     H21095   2.047   9.343   4.193 -0.0602 -2.2070 -0.9672
  898MOL0     O21096   8.344   5.459   6.545  1.2201 -0.2684 -0.0343
  898MOL0     C21097   8.336   5.550   6.465 -0.2518 -0.4765  1.0795
  898MOL0     O21098   8.302   5.534   6.326  0.4866 -0.2463 -1.0063
  898MOL0     C21099   8.271   5.405   6.296  0.2648 -0.2297  0.3848
  898MOL0     C21100   8.365   5.305   6.250  0.3131  0.4764  0.0849
  898MOL0     C21101   8.330   5.180   6.192 -0.0913  0.4859 -1.5168
  898MOL0     C21102   8.199   5.154   6.175 -0.2947 -0.2274 -0.3088
  898MOL0     O21103   8.144   5.049   6.118 -0.2979  0.7197 -0.6341
  898MOL0     C21104   8.084   4.935   6.193  0.4528  0.9567 -0.5215
  898MOL0     C21105   8.078   4.803   6.112 -0.3344 -0.0088  0.1566
  898MOL0     C21106   7.981   4.822   5.995  0.4480  0.3497  0.7746
  898MOL0     C21107   7.924   4.681   5.954  0.1750 -0.0503  0.6852
  898MOL0     C21108   7.811   4.695   5.854  0.0842 -0.4539 -0.2206
  898MOL0     C21109   7.753   4.558   5.816 -0.3254 -0.0182 -0.3043
  898MOL0     C21110   7.622   4.571   5.734 -0.9128 -0.2407  0.3980
  898MOL0     C21111   7.641   4.605   5.585 -0.1142 -0.2274  0.3620
  898MOL0     N21112   7.664   4.748   5.560 -0.4643  0.2735 -0.4952
  898MOL0     C21113   7.560   4.841   5.563  0.3219 -0.8607 -1.1359
  898MOL0     C21114   7.625   4.953   5.510  0.9270 -0.1814  0.2458
  898MOL0     C21115   7.547   5.080   5.481  0.2386 -0.5055 -0.2336
  898MOL0     C21116   7.535   5.087   5.331 -0.8839 -0.1852  0.7572
  898MOL0     C21117   7.446   5.206   5.286  0.8162 -0.1981  0.3527
  898MOL0     C21118   7.374   5.177   5.155 -0.3315  0.5232 -0.2201
  898MOL0     O21119   7.287   5.284   5.118 -0.0245  0.0869  0.0634
  898MOL0     C21120   7.354   5.401   5.099  0.9665 -0.0610  0.5567
  898MOL0     C21121   7.469   5.419   5.031  0.4354  0.7649  0.5837
  898MOL0     C21122   7.535   5.540   5.017  0.1548 -0.7642  0.3249
  898MOL0     C21123   7.662   5.558   4.940  0.3544 -0.2510 -1.4440
  898MOL0     C21124   7.475   5.659   5.085  0.1673  1.0462  1.3959
  898MOL0     C21125   7.548   5.781   5.119 -0.0158  0.0607 -0.3811
  898MOL0     O21126   7.470   5.892   5.143 -0.6931 -0.1612 -0.2155
  898MOL0     C21127   7.538   6.009   5.168  0.2842  0.0564  0.6160
  898MOL0     C21128   7.592   6.036   5.298  0.0404 -0.2383  0.0621
  898MOL0     C21129   7.668   6.159   5.306  0.0773  0.6610  0.5720
  898MOL0     C21130   7.675   6.261   5.212 -0.4151 -0.8797  0.5381
  898MOL0     O21131   7.761   6.365   5.214 -0.2358  0.9042 -0.6306
  898MOL0     C21132   7.844   6.386   5.320  0.4723 -0.5260 -0.0458
  898MOL0     C21133   7.900   6.531   5.322 -0.1756  1.2304 -0.0872
  898MOL0     C21134   7.981   6.564   5.198 -0.2175  0.5040 -0.2198
  898MOL0     C21135   8.008   6.716   5.201 -0.5452 -0.1683 -0.1297
  898MOL0     C21136   8.086   6.751   5.067 -0.3715  0.4169  0.0220
  898MOL0     C21137   8.046   6.890   5.031  0.1429 -0.0539 -0.7104
  898MOL0     C21138   8.136   6.928   4.912 -0.6275 -0.4335  0.9452
  898MOL0     C21139   8.096   7.064   4.872  1.6664  0.1743  0.5830
  898MOL0    Cl21140   8.242   7.151   4.806 -0.0234 -0.3001  0.1017
  898MOL0     C21141   7.612   6.232   5.091 -0.4933 -0.8694  0.5599
  898MOL0     C21142   7.541   6.107   5.066  1.4905 -0.2198 -0.2408
  898MOL0     O21143   7.667   5.773   5.136  0.1035  0.2930 -0.1593
  898MOL0     C21144   7.337   5.644   5.121 -0.1406 -0.1024 -0.0559
  898MOL0     C21145   7.282   5.514   5.127  0.5067  0.1685  0.0546
  898MOL0     N21146   7.748   4.926   5.466  0.6473  0.9277  0.3833
  898MOL0     N21147   7.774   4.802   5.500  0.5112  1.1876  0.3367
  898MOL0     C21148   8.105   5.250   6.204  0.7147 -0.4579 -0.8061
  898MOL0     C21149   8.142   5.374   6.271  0.5805 -0.1254 -0.6260
  898MOL0     C21150   8.341   5.687   6.531 -0.3363  0.4337  0.2098
  898MOL0     C21151   8.340   5.703   6.668  0.0243 -0.4142 -0.6165
  898MOL0     C21152   8.337   5.832   6.728  0.3083  0.2327  0.1431
  898MOL0     C21153   8.338   5.940   6.639  0.8842  0.5242 -0.2127
  898MOL0     O21154   8.338   6.064   6.685 -1.0130 -0.2594  0.3191
  898MOL0     C21155   8.376   6.099   6.824  0.6392 -0.5565  0.6023
  898MOL0     C21156   8.321   6.235   6.848 -0.4133  0.1110  0.2871
  898MOL0     C21157   8.433   6.327   6.796 -0.0144  0.2205  0.4336
  898MOL0     C21158   8.472   6.311   6.650 -0.6783  0.7253 -0.7405
  898MOL0     C21159   8.580   6.406   6.615  0.1722 -0.3236  1.7342
  898MOL0     C21160   8.676   6.476   6.590  0.3288  0.7775 -0.3694
  898MOL0     C21161   8.346   5.921   6.500 -0.5512  0.1800 -0.9431
  898MOL0     C21162   8.340   5.795   6.447  0.5251 -0.3426  0.6925
  898MOL0     H21163   8.469   5.336   6.254 -0.0503  1.7610  0.1711
  898MOL0     H21164   8.402   5.108   6.156  2.1013  1.3494  0.8298
  898MOL0     H21165   8.146   4.906   6.278 -1.1947 -0.0681  0.3924
  898MOL0     H21166   7.983   4.963   6.226  0.7529 -0.3261  1.6501
  898MOL0     H21167   8.176   4.773   6.074 -0.6310 -0.1587 -0.5057
  898MOL0     H21168   8.040   4.722   6.175 -0.4636 -2.3249 -2.6869
  898MOL0     H21169   7.899   4.890   6.019 -0.3773 -0.9209  1.6279
  898MOL0     H21170   8.040   4.856   5.909 -0.8426 -0.7498 -0.5968
  898MOL0     H21171   8.002   4.619   5.910  1.0766  0.7219  1.1764
  898MOL0     H21172   7.880   4.628   6.040  0.1074  0.0593  0.7184
  898MOL0     H21173   7.729   4.761   5.887  1.4236  0.5839  1.2032
  898MOL0     H21174   7.849   4.739   5.762 -1.8399 -1.2884 -1.4787
  898MOL0     H21175   7.838   4.508   5.767 -0.3394 -2.0646  1.6057
  898MOL0     H21176   7.730   4.506   5.909 -0.0868  1.4940  0.6281
  898MOL0     H21177   7.574   4.472   5.735 -0.3818 -0.5237 -0.6354
  898MOL0     H21178   7.553   4.646   5.774  0.0010 -0.7429  3.1215
  898MOL0     H21179   7.549   4.566   5.539  0.5993 -2.3846  0.6283
  898MOL0     H21180   7.716   4.539   5.541 -0.2045  0.5469 -1.0010
  898MOL0     H21181   7.457   4.831   5.595 -0.3905  1.1051 -2.5588
  898MOL0     H21182   7.456   5.076   5.541  2.2040 -0.4033  2.9995
  898MOL0     H21183   7.605   5.162   5.525 -2.2014  1.4309 -0.3815
  898MOL0     H21184   7.479   4.998   5.303 -1.3952  0.9123 -2.1124
  898MOL0     H21185   7.630   5.086   5.276 -1.1306 -0.9238  0.3354
  898MOL0     H21186   7.489   5.307   5.280 -2.2696  1.1194 -2.5422
  898MOL0     H21187   7.373   5.218   5.367  2.7667  2.2543  1.9014
  898MOL0     H21188   7.308   5.090   5.164 -0.4120  0.7069  1.3398
  898MOL0     H21189   7.447   5.152   5.077  1.5658 -2.3307  2.2302
  898MOL0     H21190   7.532   5.343   4.986  1.3400  2.0153 -0.3127
  898MOL0     H21191   7.671   5.646   4.877  0.9221  1.1163  0.4497
  898MOL0     H21192   7.737   5.565   5.019  0.0246  0.3316 -1.1782
  898MOL0     H21193   7.687   5.470   4.880  1.3596  0.9760 -2.8872
  898MOL0     H21194   7.595   5.962   5.377 -1.4173  0.9277  1.2613
  898MOL0     H21195   7.737   6.171   5.389  2.2767 -3.1020 -0.4594
  898MOL0     H21196   7.791   6.365   5.414 -0.8875  0.1549 -0.6333
  898MOL0     H21197   7.922   6.309   5.315  1.2017  0.2830 -1.8037
  898MOL0     H21198   7.809   6.589   5.338  0.3058  1.6701  1.2867
  898MOL0     H21199   7.967   6.545   5.408  1.1958 -1.5300 -0.5828
  898MOL0     H21200   7.930   6.543   5.103  1.3695  0.4963 -1.1186
  898MOL0     H21201   8.070   6.501   5.205 -0.6032  0.1461  2.6535
  898MOL0     H21202   7.921   6.781   5.210  0.6088  1.4081  0.0944
  898MOL0     H21203   8.064   6.740   5.292  1.4329  0.2261 -1.3732
  898MOL0     H21204   8.042   6.704   4.979  1.5590  2.2844 -2.0532
  898MOL0     H21205   8.195   6.747   5.074  0.0528  5.8768  1.2997
  898MOL0     H21206   7.943   6.886   4.993  0.6484 -2.0216 -1.9841
  898MOL0     H21207   8.057   6.953   5.120  0.4936 -1.2853  0.1414
  898MOL0     H21208   8.126   6.863   4.825  1.6763 -1.2379  1.2042
  898MOL0     H21209   8.243   6.930   4.934  0.0134  1.3944 -1.8885
  898MOL0     H21210   8.059   7.128   4.952  2.2599 -1.0126  1.8334
  898MOL0     H21211   8.010   7.052   4.804  1.5944  0.4125  0.6288
  898MOL0     H21212   7.623   6.295   5.003 -1.9696 -1.2817  0.0391
  898MOL0     H21213   7.478   6.090   4.979 -0.3215 -1.6738  1.2867
  898MOL0     H21214   7.276   5.731   5.145  2.2281  1.9749 -1.1986
  898MOL0     H21215   7.178   5.503   5.158  1.1518  0.7205  2.7183
  898MOL0     H21216   8.003   5.236   6.169  0.8791  1.3871 -2.1852
  898MOL0     H21217   8.052   5.431   6.291  2.2123  2.4502 -0.1348
  898MOL0     H21218   8.340   5.612   6.728 -1.8954 -0.0180  0.0757
  898MOL0     H21219   8.355   5.834   6.835  1.6700 -2.1729  0.0255
  898MOL0     H21220   8.325   6.039   6.899 -3.6435 -0.0908 -1.5993
  898MOL0     H21221   8.483   6.101   6.845  1.0823 -0.0401 -1.4467
  898MOL0     H21222   8.299   6.252   6.953 -0.3093  0.2961  0.2795
  898MOL0     H21223   8.229   6.253   6.791 -0.4036  0.8323  0.4999
  898MOL0     H21224   8.527   6.308   6.849 -0.8288  1.8200  2.5971
  898MOL0     H21225   8.401   6.430   6.813 -0.0923  0.1986  0.4175
  898MOL0     H21226   8.392   6.322   6.576  1.6177 -1.3680 -3.8228
  898MOL0     H21227   8.519   6.215   6.625  0.4025  0.7681  0.9769
  898MOL0     H21228   8.763   6.531   6.560  0.5502  1.0749  0.7743
  898MOL0     H21229   8.339   6.013   6.443 -1.9189  0.9587  0.3852
  898MOL0     H21230   8.322   5.793   6.340  0.0095  2.4497  0.6628
  899MOL0     O21231   0.364   3.373   3.847  0.6695  0.5945 -0.5744
  899MOL0     C21232   0.419   3.265   3.854  0.3955 -0.0169  0.7145
  899MOL0     O21233   0.549   3.237   3.823  0.0939  0.8114 -0.4294
  899MOL0     C21234   0.632   3.338   3.775 -0.0195  0.0406 -0.0895
  899MOL0     C21235   0.765   3.326   3.806 -0.3449 -0.1524  1.1425
  899MOL0     C21236   0.860   3.414   3.769  0.3212 -0.8956 -0.0116
  899MOL0     C21237   0.824   3.530   3.701 -0.1004 -0.1807 -0.2684
  899MOL0     O21238   0.913   3.626   3.670 -0.0846 -0.1770  0.1643
  899MOL0     C21239   1.042   3.637   3.749  0.1150 -0.7529  0.2515
  899MOL0     C21240   1.155   3.582   3.678 -0.2202 -0.0909  0.0712
  899MOL0     C21241   1.276   3.608   3.763  0.3911  0.1311  0.2559
  899MOL0     C21242   1.394   3.518   3.743  0.0136  0.3610  0.2472
  899MOL0     C21243   1.485   3.544   3.623 -0.8198  0.2473  0.2445
  899MOL0     C21244   1.613   3.460   3.614 -0.4661  0.3398  0.7252
  899MOL0     C21245   1.674   3.494   3.482  0.1620  0.2364 -0.2652
  899MOL0     C21246   1.818   3.457   3.478 -1.0914 -0.1695  0.5430
  899MOL0     N21247   1.839   3.314   3.468 -0.3174 -0.2134  0.6103
  899MOL0     C21248   1.838   3.235   3.360  0.2198 -0.0534  0.3975
  899MOL0     C21249   1.844   3.108   3.413 -0.3062  0.5677 -0.5583
  899MOL0     C21250   1.808   2.987   3.336  0.0641  1.0690  0.6893
  899MOL0     C21251   1.902   2.968   3.217 -0.3334 -0.4170  0.0567
  899MOL0     C21252   2.036   2.901   3.265 -0.3975 -0.5726  0.3782
  899MOL0     C21253   2.113   2.841   3.154 -1.3715 -0.8899  0.1562
  899MOL0     O21254   2.253   2.887   3.155 -0.5492  0.0077  0.7778
  899MOL0     C21255   2.339   2.824   3.068  0.1898 -0.1686  0.5964
  899MOL0     C21256   2.475   2.869   3.056  0.8255  1.1449 -0.4933
  899MOL0     C21257   2.573   2.801   2.984  0.2430 -0.8610  1.1112
  899MOL0     C21258   2.715   2.862   2.990 -0.1426 -0.7353 -1.0349
  899MOL0     C21259   2.543   2.681   2.926 -0.5224  0.0354  0.1264
  899MOL0     C21260   2.642   2.599   2.858 -1.0669  0.3564  0.8320
  899MOL0     O21261   2.781   2.598   2.896  1.0300 -0.6445 -0.0205
  899MOL0     C21262   2.868   2.515   2.829 -0.7101 -1.3699  0.6730
  899MOL0     C21263   2.900   2.386   2.890  0.8368  0.4936  0.1781
  899MOL0     C21264   3.007   2.314   2.845  0.7419  0.6483  0.6150
  899MOL0     C21265   3.078   2.351   2.727  0.1659 -0.3642  0.0776
  899MOL0     O21266   3.167   2.264   2.665  0.1465 -0.0776 -0.4980
  899MOL0     C21267   3.227   2.297   2.542 -0.6036  0.4207  0.6702
  899MOL0     C21268   3.351   2.203   2.500 -0.4684  0.6484  0.8377
  899MOL0     C21269   3.313   2.069   2.427  0.4046 -0.2271 -0.6386
  899MOL0     C21270   3.252   1.973   2.532  0.0679  0.0886 -0.2530
  899MOL0     C21271   3.254   1.838   2.476  0.0509  1.0897 -0.4138
  899MOL0     C21272   3.218   1.726   2.583  0.3161 -0.1665  0.5257
  899MOL0     C21273   3.075   1.729   2.615 -0.2291 -0.8352  1.1848
  899MOL0     C21274   3.023   1.599   2.669 -0.8671  0.2710 -0.1573
  899MOL0    Cl21275   3.031   1.460   2.550 -0.0315  0.5035  0.1076
  899MOL0     C21276   3.037   2.469   2.653 -1.0407  0.2931  0.8811
  899MOL0     C21277   2.939   2.553   2.716 -0.6660 -0.5364 -0.0968
  899MOL0     O21278   2.607   2.553   2.747 -0.3735 -0.4155  0.1991
  899MOL0     C21279   2.408   2.631   2.932 -0.4294  1.2878 -0.4328
  899MOL0     C21280   2.313   2.702   3.003 -0.5122  0.1950  0.5175
  899MOL0     N21281   1.863   3.115   3.546  0.1559 -0.0824 -0.0501
  899MOL0     N21282   1.856   3.237   3.582  0.5981  0.5718 -0.2422
  899MOL0     C21283   0.689   3.551   3.671 -0.8404  0.4727  0.1333
  899MOL0     C21284   0.595   3.449   3.698  0.4555 -1.4953  0.0201
  899MOL0     C21285   0.354   3.168   3.937 -0.0122  0.3604  0.1781
  899MOL0     C21286   0.416   3.041   3.968 -0.8854 -0.5595 -0.6497
  899MOL0     C21287   0.360   2.956   4.065  0.2984  0.2342  0.5523
  899MOL0     C21288   0.237   2.988   4.118 -0.2189 -0.0443  0.2164
  899MOL0     O21289   0.201   2.898   4.209 -0.4877  0.0265 -0.5070
  899MOL0     C21290   0.101   2.924   4.303 -0.6300 -0.5550  0.0554
  899MOL0     C21291   0.069   2.787   4.366  1.0816  0.2415  0.2760
  899MOL0     C21292  -0.063   2.796   4.443 -0.6835  0.6861 -0.7850
  899MOL0     C21293  -0.065   2.899   4.560  0.2478 -0.1066 -0.0611
  899MOL0     C21294  -0.018   2.829   4.684 -0.1162  0.2761 -0.2659
  899MOL0     C21295   0.028   2.766   4.778 -0.1470  0.3418 -0.3497
  899MOL0     C21296   0.168   3.107   4.083  0.1633  0.6549 -0.4751
  899MOL0     C21297   0.229   3.197   3.993  0.0439  0.7505  0.9217
  899MOL0     H21298   0.798   3.232   3.848  1.2150  0.0625  0.4342
  899MOL0     H21299   0.965   3.402   3.794  0.9175  3.1928  0.2288
  899MOL0     H21300   1.049   3.744   3.771 -0.5222 -0.5253 -0.5936
  899MOL0     H21301   1.044   3.603   3.853  3.4976  0.2268  0.6479
  899MOL0     H21302   1.148   3.475   3.656  0.1114 -0.0055 -0.4894
  899MOL0     H21303   1.157   3.633   3.581 -1.0553 -1.2371 -0.5722
  899MOL0     H21304   1.307   3.710   3.736  1.9403 -0.6840 -1.2132
  899MOL0     H21305   1.253   3.603   3.869  0.2424 -0.5852  0.1909
  899MOL0     H21306   1.455   3.522   3.835 -0.5937  1.0875  0.6321
  899MOL0     H21307   1.362   3.414   3.740  0.8992 -0.0118  2.0742
  899MOL0     H21308   1.423   3.525   3.534 -2.2435 -1.0216  1.4300
  899MOL0     H21309   1.502   3.651   3.634 -0.0653  0.0846  0.6910
  899MOL0     H21310   1.684   3.483   3.694 -0.3562 -1.9825  1.3713
  899MOL0     H21311   1.594   3.353   3.628 -0.1978  0.1766 -0.1075
  899MOL0     H21312   1.628   3.421   3.415 -0.6771 -0.7754  1.3669
  899MOL0     H21313   1.659   3.595   3.441  2.2390  1.4911  1.8017
  899MOL0     H21314   1.869   3.481   3.572 -2.2771  0.9269  0.9365
  899MOL0     H21315   1.872   3.515   3.402  0.4110 -1.5246  0.5217
  899MOL0     H21316   1.814   3.264   3.259  1.1983  1.8278  0.6576
  899MOL0     H21317   1.811   2.899   3.402  0.5706  0.5587  0.0016
  899MOL0     H21318   1.711   3.007   3.290  0.8833  1.8051 -0.7831
  899MOL0     H21319   1.925   3.053   3.153  3.6235 -1.7145 -0.5287
  899MOL0     H21320   1.862   2.898   3.143 -0.4975  0.5713 -0.8102
  899MOL0     H21321   2.016   2.831   3.346  3.4671 -0.8305  1.3064
  899MOL0     H21322   2.102   2.982   3.298  0.0310  0.1245 -1.9376
  899MOL0     H21323   2.062   2.850   3.058 -0.3291  2.9275 -0.2091
  899MOL0     H21324   2.129   2.735   3.174  0.7646 -0.9647 -1.6142
  899MOL0     H21325   2.491   2.964   3.106 -0.0201  1.3042 -0.5154
  899MOL0     H21326   2.712   2.970   2.980 -0.1787 -0.7284 -0.9525
  899MOL0     H21327   2.758   2.837   3.088 -1.3456  0.5388 -0.1330
  899MOL0     H21328   2.775   2.832   2.904  3.2099  1.4286  0.3502
  899MOL0     H21329   2.855   2.369   2.987  1.4253  2.7325  0.9018
  899MOL0     H21330   3.017   2.224   2.905 -1.8571  0.8266  1.4405
  899MOL0     H21331   3.163   2.306   2.454  0.1476  3.9964  0.3298
  899MOL0     H21332   3.272   2.395   2.556 -2.4022  1.1602  1.6166
  899MOL0     H21333   3.423   2.262   2.442 -2.1293  2.2435  0.2891
  899MOL0     H21334   3.406   2.176   2.590  1.2126  0.0274 -0.3251
  899MOL0     H21335   3.403   2.022   2.385 -1.8832 -1.7042 -4.4051
  899MOL0     H21336   3.248   2.081   2.339  0.3716 -0.3631 -0.6341
  899MOL0     H21337   3.311   1.974   2.624 -1.9612  2.9030  1.1984
  899MOL0     H21338   3.150   2.010   2.548 -0.9014 -3.2218  2.4010
  899MOL0     H21339   3.354   1.829   2.434  0.1996  2.1992 -0.3309
  899MOL0     H21340   3.191   1.824   2.387 -2.2242 -2.4833  1.5057
  899MOL0     H21341   3.251   1.632   2.539 -0.7206 -0.6581  0.7532
  899MOL0     H21342   3.266   1.741   2.680 -1.6312  1.4118  1.3251
  899MOL0     H21343   3.030   1.762   2.521  5.1095  1.1195 -1.1294
  899MOL0     H21344   3.044   1.800   2.693 -2.2097  0.8716 -0.9994
  899MOL0     H21345   2.916   1.610   2.690 -1.0340 -1.5143  0.1160
  899MOL0     H21346   3.082   1.567   2.756 -1.1926 -2.1470 -0.7457
  899MOL0     H21347   3.097   2.516   2.577 -1.2486  2.1426  1.8057
  899MOL0     H21348   2.918   2.647   2.667 -3.6995 -1.2911 -0.4172
  899MOL0     H21349   2.375   2.540   2.882 -5.1663  1.7313  1.3052
  899MOL0     H21350   2.216   2.656   3.018  0.2713 -1.1355  1.7423
  899MOL0     H21351   0.657   3.635   3.610 -1.4664 -0.1470 -0.4136
  899MOL0     H21352   0.499   3.470   3.653 -0.4108 -1.4603  1.8357
  899MOL0     H21353   0.509   3.017   3.918 -1.2759  0.2451 -1.8020
  899MOL0     H21354   0.408   2.873   4.116 -1.0287  0.4846  2.2900
  899MOL0     H21355   0.120   3.000   4.379 -1.7883 -0.9674  0.7807
  899MOL0     H21356   0.009   2.963   4.257 -0.6705  2.3589  2.3168
  899MOL0     H21357   0.146   2.737   4.426  0.5496  0.3756  1.0888
  899MOL0     H21358   0.051   2.717   4.284  0.5837  1.9236 -1.1227
  899MOL0     H21359  -0.083   2.693   4.475  1.5649 -0.3318 -2.3664
  899MOL0     H21360  -0.142   2.822   4.371 -0.3515 -0.4166 -1.5836
  899MOL0     H21361  -0.166   2.939   4.577  0.4930  0.4566  0.1252
  899MOL0     H21362  -0.018   2.996   4.539 -1.0300 -0.0469 -3.2658
  899MOL0     H21363   0.057   2.697   4.855 -1.5308 -0.1967 -0.2774
  899MOL0     H21364   0.075   3.135   4.132  1.8163  2.5766  1.8941
  899MOL0     H21365   0.183   3.294   3.974 -2.6264 -0.5239  0.4027
  900MOL0     O21366   3.917  10.578   1.725 -0.0861  0.0811  0.3273
  900MOL0     C21367   3.815  10.647   1.715  0.6252 -0.3822 -0.4281
  900MOL0     O21368   3.699  10.598   1.669  0.3998  0.0527 -0.5140
  900MOL0     C21369   3.675  10.462   1.660  0.8299  0.3985  0.1045
  900MOL0     C21370   3.757  10.380   1.575  0.6772  0.4296  0.2074
  900MOL0     C21371   3.732  10.240   1.569 -0.4638 -0.3020 -1.0778
  900MOL0     C21372   3.630  10.185   1.637  0.1611  0.5413  0.2765
  900MOL0     O21373   3.602  10.054   1.612  0.4520 -0.4143 -1.3412
  900MOL0     C21374   3.704   9.970   1.662 -0.3718  0.3186 -0.0097
  900MOL0     C21375   3.719   9.857   1.552 -0.1029 -0.0127 -0.3845
  900MOL0     C21376   3.602   9.749   1.573 -0.1558  0.5495 -0.0632
  900MOL0     C21377   3.618   9.644   1.455  0.7968  0.0081  0.8680
  900MOL0     C21378   3.531   9.518   1.464  0.3913  0.0188  0.1232
  900MOL0     C21379   3.539   9.435   1.339 -0.7039 -0.9325  0.6759
  900MOL0     C21380   3.666   9.430   1.265  0.8467  0.3307 -0.2548
  900MOL0     C21381   3.637   9.336   1.147 -0.0581  0.9612 -0.2548
  900MOL0     N21382   3.764   9.308   1.079 -0.2858 -0.3508 -0.2040
  900MOL0     C21383   3.796   9.327   0.948  0.0123  0.4719  0.4811
  900MOL0     C21384   3.884   9.231   0.913 -0.3936  0.2988 -0.4585
  900MOL0     C21385   3.933   9.203   0.773 -0.3520 -0.6116 -0.4272
  900MOL0     C21386   3.981   9.322   0.699  0.0479  0.4820  0.1328
  900MOL0     C21387   4.099   9.389   0.759 -1.2931  0.8791  1.3870
  900MOL0     C21388   4.063   9.532   0.812  0.2127 -0.3683  1.2515
  900MOL0     O21389   4.170   9.624   0.857 -0.7849 -0.9100  0.7535
  900MOL0     C21390   4.155   9.741   0.927  0.0042 -0.5695 -0.5278
  900MOL0     C21391   4.042   9.822   0.921  0.4169 -0.2200  0.9232
  900MOL0     C21392   4.031   9.952   0.982  0.3396 -0.3519  0.2566
  900MOL0     C21393   3.922  10.046   0.946  0.6316  0.0029  0.8552
  900MOL0     C21394   4.144   9.993   1.057 -0.4736  0.8028 -0.9289
  900MOL0     C21395   4.154  10.120   1.131  0.7567 -0.4321  0.1699
  900MOL0     O21396   4.045  10.198   1.167  0.6506  0.3438  0.0907
  900MOL0     C21397   4.083  10.308   1.241  0.6777 -0.5975  0.5596
  900MOL0     C21398   4.104  10.312   1.382 -0.1639 -0.2117  0.7996
  900MOL0     C21399   4.109  10.428   1.456 -0.1671  0.7074  0.0544
  900MOL0     C21400   4.093  10.553   1.392  0.2304 -0.2579  0.9263
  900MOL0     O21401   4.094  10.666   1.477 -0.4458 -0.2661 -0.3021
  900MOL0     C21402   4.056  10.787   1.417 -0.6510 -0.2645 -0.4946
  900MOL0     C21403   4.112  10.910   1.505  0.1408  0.1025  0.5698
  900MOL0     C21404   4.091  11.058   1.455  0.3401  0.5020  0.0015
  900MOL0     C21405   4.159  11.152   1.559  0.6367  0.2458 -0.2133
  900MOL0     C21406   4.175  11.290   1.508  0.2502  0.3464  0.6588
  900MOL0     C21407   4.247  11.355   1.638 -0.2290 -0.1242 -0.0414
  900MOL0     C21408   4.291  11.502   1.623 -0.8934  0.0909  1.1142
  900MOL0     C21409   4.283  11.572   1.755  0.5685 -0.2773 -0.7433
  900MOL0    Cl21410   4.364  11.492   1.893  0.0108  0.3366 -0.1522
  900MOL0     C21411   4.079  10.552   1.250  0.0607  0.3265  0.3729
  900MOL0     C21412   4.072  10.432   1.174  0.3628 -0.1466  0.3777
  900MOL0     O21413   4.268  10.159   1.132 -0.4502  0.1425  0.3750
  900MOL0     C21414   4.263   9.904   1.056  0.2981 -1.2400 -0.4076
  900MOL0     C21415   4.267   9.785   0.996 -0.4529 -0.1350 -0.9053
  900MOL0     N21416   3.929   9.182   1.037  0.3027 -0.0258  0.0186
  900MOL0     N21417   3.857   9.223   1.136  0.9104  0.0049  0.3324
  900MOL0     C21418   3.561  10.260   1.732  0.1478 -0.1440 -0.4221
  900MOL0     C21419   3.577  10.399   1.738  0.2110  0.2054  0.3121
  900MOL0     C21420   3.823  10.791   1.744 -0.5567 -0.2424 -0.7808
  900MOL0     C21421   3.883  10.847   1.863 -0.6096  0.3042 -0.4726
  900MOL0     C21422   3.892  10.984   1.871 -0.0984 -0.0358 -0.6048
  900MOL0     C21423   3.834  11.072   1.776 -0.1657  0.1967  0.5072
  900MOL0     O21424   3.832  11.212   1.776 -0.1153  0.7537 -0.7218
  900MOL0     C21425   3.875  11.283   1.893 -0.1668  0.3851  0.6193
  900MOL0     C21426   3.766  11.304   1.999 -0.2329  0.5871  1.0244
  900MOL0     C21427   3.814  11.393   2.103  0.3522 -0.9135  0.3081
  900MOL0     C21428   3.725  11.403   2.225 -0.1963 -1.3304 -0.4835
  900MOL0     C21429   3.802  11.451   2.343  0.3796 -0.2811 -0.2674
  900MOL0     C21430   3.873  11.492   2.434 -0.2498  0.2780  0.5117
  900MOL0     C21431   3.783  11.010   1.664  0.5040 -0.3476 -0.5165
  900MOL0     C21432   3.776  10.875   1.638 -0.6222  0.8856 -1.6327
  900MOL0     H21433   3.826  10.435   1.512 -0.7053  0.7999 -1.0300
  900MOL0     H21434   3.774  10.177   1.491 -2.5238 -1.7363 -1.1015
  900MOL0     H21435   3.806  10.006   1.674  0.9563 -3.0176 -0.1613
  900MOL0     H21436   3.689   9.923   1.760  2.4413  1.7156  1.2010
  900MOL0     H21437   3.708   9.909   1.456 -1.2253 -1.3889 -1.0272
  900MOL0     H21438   3.819   9.813   1.550 -1.4613 -3.5472  1.1166
  900MOL0     H21439   3.629   9.689   1.660  1.3278  3.2213  1.4618
  900MOL0     H21440   3.504   9.797   1.568 -0.4695 -0.2132 -2.7946
  900MOL0     H21441   3.594   9.695   1.361 -1.6460 -1.0041  0.8846
  900MOL0     H21442   3.720   9.607   1.438 -0.1474 -1.9131 -1.2405
  900MOL0     H21443   3.565   9.464   1.553 -1.0808  2.1456  2.1049
  900MOL0     H21444   3.426   9.544   1.478  0.4974  2.1702 -2.3044
  900MOL0     H21445   3.511   9.335   1.373  1.2559 -1.9578 -0.4983
  900MOL0     H21446   3.471   9.470   1.261  1.7601 -0.3546 -1.3789
  900MOL0     H21447   3.694   9.524   1.217 -0.3150  0.4443 -0.7449
  900MOL0     H21448   3.744   9.389   1.330  0.0429  1.1391  1.2676
  900MOL0     H21449   3.567   9.377   1.073  0.9636 -0.1347 -1.8704
  900MOL0     H21450   3.590   9.239   1.165 -1.2810  1.7841  1.2646
  900MOL0     H21451   3.743   9.393   0.880 -1.4038  0.6200  1.6800
  900MOL0     H21452   4.008   9.126   0.795 -0.2300  0.0841  1.7475
  900MOL0     H21453   3.856   9.146   0.720  0.9743 -1.1186 -1.9210
  900MOL0     H21454   3.894   9.388   0.693 -1.7984 -1.9233 -1.6354
  900MOL0     H21455   4.000   9.288   0.597  1.4118  1.4165  0.0421
  900MOL0     H21456   4.179   9.388   0.685 -2.9811 -0.2860 -0.5163
  900MOL0     H21457   4.132   9.327   0.843 -3.9423 -4.1601 -0.8233
  900MOL0     H21458   3.989   9.525   0.893 -0.9597 -0.4647  0.2035
  900MOL0     H21459   4.019   9.573   0.720  2.1263  0.0932  0.5085
  900MOL0     H21460   3.961   9.787   0.859 -0.6569  0.6759  1.7674
  900MOL0     H21461   3.974  10.139   0.922 -1.2637  0.7727 -0.5549
  900MOL0     H21462   3.890  10.009   0.848  4.6933  1.4169 -1.2015
  900MOL0     H21463   3.837  10.067   1.012 -0.9588 -0.7775 -0.8299
  900MOL0     H21464   4.095  10.220   1.439 -3.0013 -0.7721 -0.3635
  900MOL0     H21465   4.130  10.425   1.562  2.1811 -2.0558 -0.3506
  900MOL0     H21466   4.103  10.797   1.318 -0.1081  0.5368 -0.1663
  900MOL0     H21467   3.947  10.786   1.417 -0.8145 -1.8117  3.7332
  900MOL0     H21468   4.069  10.895   1.605  1.7758 -1.7391  1.0653
  900MOL0     H21469   4.220  10.900   1.517  0.3082  0.7384 -0.3285
  900MOL0     H21470   3.986  11.089   1.445  0.9113  2.1714 -1.3016
  900MOL0     H21471   4.136  11.066   1.355 -0.9917  3.5411 -0.4555
  900MOL0     H21472   4.099  11.158   1.650  3.8288  1.2256  1.9951
  900MOL0     H21473   4.250  11.100   1.592 -0.7525 -1.4661  1.1451
  900MOL0     H21474   4.079  11.342   1.497 -0.0820 -0.1149  1.3250
  900MOL0     H21475   4.222  11.295   1.410 -2.4676  1.2245 -0.6823
  900MOL0     H21476   4.167  11.351   1.713  1.1560 -1.9611  1.4058
  900MOL0     H21477   4.335  11.302   1.674 -1.2980 -2.7696 -1.0776
  900MOL0     H21478   4.232  11.565   1.556 -0.5835  0.9086  1.6083
  900MOL0     H21479   4.390  11.492   1.577 -1.6127 -1.1579 -0.2657
  900MOL0     H21480   4.178  11.572   1.788  1.8757 -1.5697  4.1980
  900MOL0     H21481   4.308  11.678   1.740 -2.3357  0.3339 -2.1154
  900MOL0     H21482   4.068  10.644   1.193  2.1790 -0.1060 -0.8455
  900MOL0     H21483   4.043  10.441   1.069 -0.1767  0.9973  0.6172
  900MOL0     H21484   4.356   9.930   1.105  0.0396  0.9656 -1.0021
  900MOL0     H21485   4.363   9.735   0.991 -0.9162 -0.9666 -1.6683
  900MOL0     H21486   3.489  10.214   1.799 -0.5562  1.7115  0.1637
  900MOL0     H21487   3.513  10.454   1.808 -1.6518  1.1653 -1.9938
  900MOL0     H21488   3.924  10.780   1.938 -3.0995  1.5294  2.1851
  900MOL0     H21489   3.939  11.040   1.952 -2.5752  2.0587 -0.4939
  900MOL0     H21490   3.967  11.242   1.934  2.2537  3.7183 -0.9236
  900MOL0     H21491   3.897  11.383   1.853 -3.9123  1.6870  1.3327
  900MOL0     H21492   3.753  11.201   2.035  4.9521 -0.7594 -0.1239
  900MOL0     H21493   3.680  11.340   1.942 -1.6058 -2.1283  1.2056
  900MOL0     H21494   3.848  11.487   2.058 -0.9143 -1.3619 -1.6667
  900MOL0     H21495   3.913  11.360   2.138  0.0301 -1.4320  0.7494
  900MOL0     H21496   3.680  11.307   2.252 -0.1542 -0.6096  2.5987
  900MOL0     H21497   3.646  11.474   2.201  0.4022 -1.1173 -1.9006
  900MOL0     H21498   3.948  11.531   2.501 -1.0466  0.6464  1.2174
  900MOL0     H21499   3.751  11.070   1.580  0.2169 -3.0208 -2.4604
  900MOL0     H21500   3.736  10.845   1.542  1.1317 -0.0258 -2.1249
  901MOL0     O21501   4.277   6.787   1.394 -0.3459 -0.5274  0.9076
  901MOL0     C21502   4.288   6.669   1.357 -0.1444 -0.6217 -0.5029
  901MOL0     O21503   4.347   6.563   1.429  0.5098 -0.5095 -0.0035
  901MOL0     C21504   4.458   6.571   1.499  0.1773 -0.5332  0.0033
  901MOL0     C21505   4.542   6.682   1.510  0.7328 -0.0741  0.0339
  901MOL0     C21506   4.660   6.669   1.586 -0.4593 -0.6453 -0.1475
  901MOL0     C21507   4.685   6.562   1.666 -1.4678  0.2134 -0.1156
  901MOL0     O21508   4.792   6.558   1.754  0.4222  0.4526  0.0339
  901MOL0     C21509   4.844   6.430   1.787  1.0328  1.0695  0.1979
  901MOL0     C21510   4.986   6.447   1.845 -0.4057 -0.7106  0.4355
  901MOL0     C21511   5.051   6.331   1.920 -0.7514  0.6599 -0.9105
  901MOL0     C21512   5.201   6.356   1.939  0.7234 -0.9511 -0.7075
  901MOL0     C21513   5.275   6.338   1.811 -1.2409  0.3718  0.3433
  901MOL0     C21514   5.428   6.347   1.836 -0.0759  0.2640 -0.2862
  901MOL0     C21515   5.468   6.486   1.851 -0.8612 -0.6642 -0.1430
  901MOL0     C21516   5.592   6.508   1.938 -0.1094  0.6503 -0.2510
  901MOL0     N21517   5.720   6.489   1.868 -0.1650  0.6354 -0.6830
  901MOL0     C21518   5.795   6.586   1.814  0.0790 -0.0466  0.0202
  901MOL0     C21519   5.889   6.518   1.749 -0.1714 -0.9383  0.8031
  901MOL0     C21520   5.994   6.590   1.680 -0.8811  0.0271 -0.1730
  901MOL0     C21521   6.134   6.559   1.756  0.7842 -0.3145  0.1743
  901MOL0     C21522   6.232   6.661   1.716 -0.4851 -0.5256 -0.4854
  901MOL0     C21523   6.366   6.615   1.784  0.1796  0.1212  0.5040
  901MOL0     O21524   6.461   6.713   1.757  0.2488  0.1578  0.0889
  901MOL0     C21525   6.596   6.682   1.749 -0.0789 -0.3603  0.4414
  901MOL0     C21526   6.663   6.558   1.757 -0.1101  0.1360 -0.1824
  901MOL0     C21527   6.806   6.553   1.750  0.3966  0.6630  0.1579
  901MOL0     C21528   6.867   6.417   1.774 -1.2274  0.6050  0.0428
  901MOL0     C21529   6.877   6.668   1.744 -0.2246  0.2694  0.9715
  901MOL0     C21530   7.020   6.674   1.746  0.0070  0.7275 -0.5326
  901MOL0     O21531   7.075   6.757   1.654  0.1249  0.4842  0.2615
  901MOL0     C21532   7.203   6.785   1.660 -0.4951 -0.2347 -1.0872
  901MOL0     C21533   7.305   6.696   1.623 -0.0419 -0.2378  0.6987
  901MOL0     C21534   7.434   6.743   1.608  0.5251  0.5252 -0.8659
  901MOL0     C21535   7.469   6.877   1.655  0.0597  0.7750 -0.2307
  901MOL0     O21536   7.595   6.921   1.634 -0.4522  0.3871 -0.4716
  901MOL0     C21537   7.645   6.930   1.499 -0.1545 -0.1696 -0.4921
  901MOL0     C21538   7.765   7.017   1.473  0.9957  0.1628  0.5795
  901MOL0     C21539   7.758   7.165   1.525 -0.3196 -0.0359  0.9317
  901MOL0     C21540   7.889   7.247   1.520  0.8749 -0.8706  0.5866
  901MOL0     C21541   8.002   7.213   1.619 -0.3797 -0.3437  0.7276
  901MOL0     C21542   8.124   7.308   1.633  0.0999  1.3247 -0.1052
  901MOL0     C21543   8.087   7.467   1.643  0.7182 -0.1985  1.0571
  901MOL0     C21544   8.190   7.540   1.719  0.1070  0.3492  0.0660
  901MOL0    Cl21545   8.126   7.589   1.882  0.3836  0.1543 -0.0624
  901MOL0     C21546   7.366   6.965   1.690  0.0723  0.1494  0.6472
  901MOL0     C21547   7.235   6.921   1.691  0.2935  0.6668 -0.1354
  901MOL0     O21548   7.075   6.604   1.826  0.1241 -0.2452 -0.6701
  901MOL0     C21549   6.812   6.792   1.729  0.6707  0.6271 -0.5144
  901MOL0     C21550   6.671   6.796   1.725 -0.3448  0.0633 -1.5953
  901MOL0     N21551   5.866   6.386   1.748 -0.2508  0.4686 -0.2277
  901MOL0     N21552   5.764   6.368   1.826 -0.5251  0.2052 -0.4381
  901MOL0     C21553   4.596   6.457   1.664 -0.3528  0.4422  1.0653
  901MOL0     C21554   4.483   6.462   1.578  0.9269  0.4400  0.9663
  901MOL0     C21555   4.229   6.632   1.237 -0.1350  1.0636 -0.2458
  901MOL0     C21556   4.125   6.709   1.174  1.0252  0.3774 -0.8559
  901MOL0     C21557   4.068   6.663   1.062 -0.0751  0.9350 -0.7629
  901MOL0     C21558   4.116   6.556   0.986  0.0475  0.3824  0.5115
  901MOL0     O21559   4.071   6.515   0.864  0.9096 -0.0990 -0.7047
  901MOL0     C21560   3.928   6.526   0.861  0.2860 -0.3104  0.6739
  901MOL0     C21561   3.886   6.460   0.735 -1.0268  0.5884 -0.0397
  901MOL0     C21562   3.919   6.301   0.727 -0.4539  0.1622 -0.8773
  901MOL0     C21563   3.849   6.226   0.834 -0.7742 -0.2845 -0.0294
  901MOL0     C21564   3.706   6.232   0.816  0.1982 -0.5130 -0.1956
  901MOL0     C21565   3.602   6.248   0.767  0.4508  0.3872  0.1797
  901MOL0     C21566   4.228   6.493   1.037  0.1301 -0.1487 -1.0486
  901MOL0     C21567   4.287   6.532   1.162  0.3064 -0.0276  0.3758
  901MOL0     H21568   4.525   6.770   1.450 -0.6957 -0.8778 -0.7863
  901MOL0     H21569   4.724   6.757   1.594  0.3554 -1.0964 -1.3214
  901MOL0     H21570   4.792   6.384   1.872 -0.0872 -1.1584 -1.5814
  901MOL0     H21571   4.851   6.363   1.701 -0.3456  1.8693 -0.5692
  901MOL0     H21572   5.055   6.472   1.764  2.4313 -0.6291  2.7194
  901MOL0     H21573   4.975   6.527   1.919 -2.6675 -0.6777  0.1559
  901MOL0     H21574   4.995   6.339   2.014 -1.8037 -0.8072 -1.3849
  901MOL0     H21575   5.023   6.236   1.874 -0.7716 -0.8661  2.0404
  901MOL0     H21576   5.201   6.456   1.983 -1.1108 -0.7735 -1.0222
  901MOL0     H21577   5.250   6.285   2.006  1.3081 -1.1524 -1.3351
  901MOL0     H21578   5.239   6.242   1.773 -3.8217  0.8279  1.3822
  901MOL0     H21579   5.247   6.416   1.739 -2.7757  0.0679  0.5818
  901MOL0     H21580   5.441   6.283   1.924 -5.0903 -0.9644 -0.0773
  901MOL0     H21581   5.483   6.302   1.754 -4.9980 -1.1569 -3.2454
  901MOL0     H21582   5.493   6.526   1.752  1.4383 -0.3408  0.5099
  901MOL0     H21583   5.396   6.552   1.900 -0.2725 -0.3212  0.2799
  901MOL0     H21584   5.588   6.449   2.030  1.1166  1.5216  0.3906
  901MOL0     H21585   5.587   6.612   1.973  1.7144  1.0549 -1.0971
  901MOL0     H21586   5.805   6.694   1.817 -0.4161  0.0970 -2.2215
  901MOL0     H21587   6.007   6.552   1.578  2.1962 -0.7356  0.3916
  901MOL0     H21588   5.977   6.699   1.680  1.1740  0.4860 -3.4092
  901MOL0     H21589   6.162   6.460   1.721  0.6654 -0.3689  0.2351
  901MOL0     H21590   6.119   6.574   1.864 -2.2866  1.2108 -0.3788
  901MOL0     H21591   6.202   6.761   1.749 -1.0279 -0.2465 -1.7666
  901MOL0     H21592   6.239   6.647   1.608 -1.8931 -0.3539 -0.6128
  901MOL0     H21593   6.402   6.520   1.744 -0.4468 -0.2510  0.8144
  901MOL0     H21594   6.354   6.610   1.893 -2.3413  0.2233  0.2684
  901MOL0     H21595   6.602   6.475   1.790 -2.6042  2.0837  0.4202
  901MOL0     H21596   6.971   6.405   1.742 -2.2258 -3.1764 -2.3437
  901MOL0     H21597   6.847   6.383   1.876 -0.3133  0.0538  0.0492
  901MOL0     H21598   6.814   6.337   1.722 -2.0833  1.6707 -0.7777
  901MOL0     H21599   7.277   6.593   1.602  2.3321 -0.9185  0.6717
  901MOL0     H21600   7.511   6.669   1.590 -2.8760 -3.3427 -0.9611
  901MOL0     H21601   7.679   6.835   1.456  1.8364 -1.2049  3.0214
  901MOL0     H21602   7.555   6.953   1.441 -1.3872  0.3043  1.5062
  901MOL0     H21603   7.851   6.968   1.521  0.5732 -3.0422 -1.6409
  901MOL0     H21604   7.775   7.004   1.365  4.4424 -1.6902  0.9584
  901MOL0     H21605   7.726   7.160   1.630 -0.3253  0.8738  0.9817
  901MOL0     H21606   7.679   7.217   1.470 -0.1566  0.1964  0.9182
  901MOL0     H21607   7.929   7.252   1.419  3.0862  1.9297  1.4908
  901MOL0     H21608   7.852   7.345   1.554 -1.6621 -2.2210  2.1102
  901MOL0     H21609   8.045   7.118   1.584 -3.0799 -1.7486  0.9959
  901MOL0     H21610   7.959   7.195   1.718  1.8361  1.5827  2.1500
  901MOL0     H21611   8.178   7.261   1.716 -2.8171 -1.5555  0.3628
  901MOL0     H21612   8.191   7.288   1.549 -0.1734 -0.1920  0.0125
  901MOL0     H21613   7.987   7.490   1.682  0.4075  0.0576  0.1373
  901MOL0     H21614   8.084   7.511   1.543 -2.4714  3.7727  2.6026
  901MOL0     H21615   8.221   7.627   1.660  1.4900 -0.4422 -0.4306
  901MOL0     H21616   8.283   7.482   1.717  0.9565  1.6828 -1.7728
  901MOL0     H21617   7.391   7.070   1.703  0.2082  0.0866  0.8946
  901MOL0     H21618   7.159   6.994   1.717  1.1490  1.6001 -0.1602
  901MOL0     H21619   6.865   6.887   1.731  3.6647 -0.8608  3.3395
  901MOL0     H21620   6.612   6.886   1.729  1.5724  1.3399  0.6188
  901MOL0     H21621   4.598   6.371   1.731  0.9725 -0.3942  0.0052
  901MOL0     H21622   4.410   6.381   1.581  1.7914 -0.4840 -0.7937
  901MOL0     H21623   4.078   6.793   1.224  2.4285  0.1336  1.0398
  901MOL0     H21624   3.978   6.711   1.023  0.5832  1.1357 -2.0801
  901MOL0     H21625   3.877   6.496   0.953  1.9129  0.1558  1.7718
  901MOL0     H21626   3.900   6.631   0.848 -2.3165 -0.8924  1.0721
  901MOL0     H21627   3.945   6.503   0.653 -0.2654 -2.2674 -1.0946
  901MOL0     H21628   3.780   6.470   0.713 -1.2949  0.4176  1.0935
  901MOL0     H21629   4.028   6.292   0.730 -0.2010  1.7352 -2.8565
  901MOL0     H21630   3.899   6.258   0.628 -1.0960 -2.0903  0.1746
  901MOL0     H21631   3.885   6.267   0.929  4.0740 -0.8450 -1.3131
  901MOL0     H21632   3.889   6.124   0.827  1.4412  0.4717  0.5471
  901MOL0     H21633   3.510   6.252   0.712  1.5989 -1.5260 -2.0784
  901MOL0     H21634   4.279   6.414   0.984  2.6586 -0.1966  1.1944
  901MOL0     H21635   4.380   6.490   1.198  2.3177  1.1913 -2.8692
  902MOL0     O21636   4.176  10.073   9.979  0.3344  0.0277 -0.2628
  902MOL0     C21637   4.052  10.056   9.969 -0.4831 -0.3325  0.3489
  902MOL0     O21638   3.995   9.977   9.875 -0.1454  0.1957 -0.0391
  902MOL0     C21639   4.056   9.856   9.842 -0.1705 -0.3028 -0.1248
  902MOL0     C21640   4.172   9.840   9.760  0.2994  0.3386 -0.0537
  902MOL0     C21641   4.222   9.707   9.741 -0.5070 -0.2892  0.2194
  902MOL0     C21642   4.168   9.594   9.808  0.5798  0.3886 -0.5784
  902MOL0     O21643   4.201   9.466   9.780  0.2507  0.2078 -0.0113
  902MOL0     C21644   4.297   9.446   9.680 -0.5586  0.6502  0.5426
  902MOL0     C21645   4.211   9.438   9.548 -0.4664 -0.1586  0.0341
  902MOL0     C21646   4.304   9.394   9.431  0.6075 -0.5270  0.0493
  902MOL0     C21647   4.235   9.410   9.295  0.2999  0.3336 -0.5036
  902MOL0     C21648   4.313   9.350   9.191 -0.0258  0.4334  0.4936
  902MOL0     C21649   4.252   9.399   9.067  0.4906  0.1843  0.7734
  902MOL0     C21650   4.303   9.359   8.928 -0.0494  0.7448  0.3782
  902MOL0     C21651   4.260   9.212   8.894  0.1684  0.1882  0.0701
  902MOL0     N21652   4.115   9.204   8.866 -0.7061  0.3910  0.4635
  902MOL0     C21653   4.071   9.237   8.741  0.2883  0.0333  0.0829
  902MOL0     C21654   3.933   9.234   8.757 -0.6937  0.2517  1.2109
  902MOL0     C21655   3.832   9.278   8.659  0.2952 -0.1188  1.2760
  902MOL0     C21656   3.834   9.178   8.534 -0.3007 -0.4785  0.1396
  902MOL0     C21657   3.696   9.157   8.459 -0.4477 -0.8832 -0.9129
  902MOL0     C21658   3.676   9.282   8.370 -0.8287 -0.1521  0.9152
  902MOL0     O21659   3.555   9.283   8.296  0.7183 -0.5733 -0.2278
  902MOL0     C21660   3.437   9.319   8.359 -0.4456 -0.3249  0.8911
  902MOL0     C21661   3.331   9.343   8.272 -0.9091  0.2215  0.7242
  902MOL0     C21662   3.201   9.386   8.319 -0.0679  0.4898  0.3055
  902MOL0     C21663   3.086   9.406   8.215  0.2703 -0.5402 -0.6876
  902MOL0     C21664   3.180   9.391   8.465  0.2595 -0.3001  0.3063
  902MOL0     C21665   3.046   9.401   8.532  0.6918 -0.4258  0.6800
  902MOL0     O21666   3.029   9.366   8.661 -1.1582  0.7501 -0.0468
  902MOL0     C21667   2.926   9.389   8.737  0.5078  0.1326 -0.3037
  902MOL0     C21668   2.861   9.515   8.731 -0.7031  0.7857 -0.3410
  902MOL0     C21669   2.739   9.540   8.797 -0.4971  0.3811  1.0828
  902MOL0     C21670   2.677   9.435   8.867 -0.4443 -0.8176  0.2780
  902MOL0     O21671   2.547   9.456   8.912 -0.2526  0.4685 -0.7893
  902MOL0     C21672   2.493   9.354   9.004 -0.6834 -0.1767  0.6219
  902MOL0     C21673   2.337   9.384   9.023 -0.6505 -0.3930 -0.3554
  902MOL0     C21674   2.293   9.518   9.085 -0.6669 -0.1970  0.8177
  902MOL0     C21675   2.373   9.554   9.208  0.0479 -0.1347  0.7944
  902MOL0     C21676   2.319   9.673   9.282 -0.1176  0.1613 -0.5634
  902MOL0     C21677   2.415   9.721   9.392 -0.1836  0.4594  0.2793
  902MOL0     C21678   2.412   9.869   9.393  0.6362 -1.1266  0.2172
  902MOL0     C21679   2.524   9.930   9.474 -0.2615 -1.1245  0.8830
  902MOL0    Cl21680   2.514   9.894   9.647  0.3802  0.0756  0.3359
  902MOL0     C21681   2.750   9.315   8.885  0.3496 -0.1843 -0.5208
  902MOL0     C21682   2.872   9.291   8.818  0.3005  0.3487 -0.4854
  902MOL0     O21683   2.957   9.440   8.461  0.0541  0.4985 -0.0388
  902MOL0     C21684   3.290   9.356   8.547  0.0060 -0.0438 -0.5924
  902MOL0     C21685   3.418   9.333   8.491 -0.0392 -0.9359 -0.8088
  902MOL0     N21686   3.900   9.198   8.891 -0.0363 -0.6229 -0.4681
  902MOL0     N21687   4.009   9.177   8.958  0.2693 -0.0007 -0.1144
  902MOL0     C21688   4.062   9.618   9.893  0.7151  0.6040  1.0846
  902MOL0     C21689   4.007   9.745   9.906  0.5562 -0.0807  0.0968
  902MOL0     C21690   3.961  10.125  10.064 -0.3135  0.3585  0.7600
  902MOL0     C21691   3.832  10.160  10.024 -0.3581 -0.3202  0.0987
  902MOL0     C21692   3.747  10.225  10.116  0.3983  0.2452 -0.1253
  902MOL0     C21693   3.792  10.264  10.243  1.1265 -0.5098  0.1413
  902MOL0     O21694   3.714  10.330  10.338 -0.4991 -0.0266  0.4618
  902MOL0     C21695   3.585  10.380  10.308 -0.0475  0.4178 -0.5107
  902MOL0     C21696   3.517  10.407  10.442  0.0418 -0.2855  0.7855
  902MOL0     C21697   3.373  10.449  10.422 -0.8707  0.0963 -0.1689
  902MOL0     C21698   3.300  10.465  10.547  0.1714 -0.7702 -0.7528
  902MOL0     C21699   3.169  10.536  10.516 -1.9039 -1.0952 -1.2418
  902MOL0     C21700   3.063  10.579  10.483  0.1359  0.1850  0.2010
  902MOL0     C21701   3.926  10.235  10.281 -0.0843  0.0337  0.1678
  902MOL0     C21702   4.008  10.162  10.193 -0.1803  0.7534  0.3524
  902MOL0     H21703   4.210   9.927   9.707 -0.2327  1.7485  1.7742
  902MOL0     H21704   4.303   9.711   9.668 -0.9752  1.2975 -0.2571
  902MOL0     H21705   4.387   9.508   9.670  0.7570 -1.3656 -1.1824
  902MOL0     H21706   4.342   9.348   9.700 -0.4412  0.7262  0.6496
  902MOL0     H21707   4.136   9.361   9.568  1.0612 -1.6740  0.2167
  902MOL0     H21708   4.175   9.540   9.535  2.3346  1.2513  2.1508
  902MOL0     H21709   4.390   9.461   9.429 -1.8637  2.9800  1.0194
  902MOL0     H21710   4.333   9.290   9.444  1.1470 -0.6312 -1.7760
  902MOL0     H21711   4.141   9.355   9.307  0.9203 -0.2612  2.3123
  902MOL0     H21712   4.214   9.515   9.269 -1.0325 -0.2607 -2.0832
  902MOL0     H21713   4.420   9.369   9.198  0.4186 -0.6253 -2.0881
  902MOL0     H21714   4.297   9.242   9.194 -0.4811  0.2191 -3.7171
  902MOL0     H21715   4.146   9.376   9.084  0.3610 -1.2095 -1.4826
  902MOL0     H21716   4.263   9.507   9.076  2.0936 -0.1098  3.2817
  902MOL0     H21717   4.245   9.420   8.859  1.5790  0.0068 -1.7612
  902MOL0     H21718   4.408   9.383   8.914 -0.1699  1.7484  1.0768
  902MOL0     H21719   4.260   9.151   8.986 -0.1209 -0.0789 -0.1040
  902MOL0     H21720   4.323   9.168   8.816  0.3549  3.8671 -2.0635
  902MOL0     H21721   4.128   9.260   8.652  2.2202  4.2723  2.1288
  902MOL0     H21722   3.732   9.272   8.703 -0.4945  0.2655 -0.3827
  902MOL0     H21723   3.838   9.383   8.629  1.0236 -0.2782  0.8333
  902MOL0     H21724   3.876   9.084   8.572  4.3430  1.1475 -0.3034
  902MOL0     H21725   3.914   9.212   8.469 -0.3976  1.5247  0.9894
  902MOL0     H21726   3.617   9.153   8.534 -0.8353 -0.8453 -1.3141
  902MOL0     H21727   3.706   9.060   8.408  1.7411 -0.3594 -1.5920
  902MOL0     H21728   3.759   9.273   8.299  0.3452 -0.6024  2.2929
  902MOL0     H21729   3.675   9.380   8.420 -2.2248  1.6370 -2.3475
  902MOL0     H21730   3.343   9.332   8.165  1.6173 -2.0702  1.1168
  902MOL0     H21731   3.122   9.397   8.112 -3.5976  0.8353 -2.3431
  902MOL0     H21732   3.005   9.334   8.228 -0.7906  0.8023  0.4470
  902MOL0     H21733   3.049   9.507   8.230  0.5934  0.1130 -3.7000
  902MOL0     H21734   2.898   9.590   8.661  0.3012 -2.4764 -3.6189
  902MOL0     H21735   2.675   9.625   8.777 -1.8887 -0.7552  0.5686
  902MOL0     H21736   2.503   9.253   8.964 -3.0434  0.3280 -1.4906
  902MOL0     H21737   2.541   9.363   9.102 -4.0527 -2.4832  2.7057
  902MOL0     H21738   2.299   9.392   8.920  0.5412 -0.5761 -0.8262
  902MOL0     H21739   2.293   9.302   9.080  1.8812 -0.7162  1.3032
  902MOL0     H21740   2.187   9.507   9.107 -0.8174 -0.5068 -0.0288
  902MOL0     H21741   2.308   9.596   9.009  4.8895  0.0279  1.7203
  902MOL0     H21742   2.389   9.464   9.268  0.9893 -0.7657 -0.3553
  902MOL0     H21743   2.476   9.582   9.183  0.6969 -1.8154  1.4214
  902MOL0     H21744   2.220   9.663   9.327 -0.5456  2.6641 -0.7945
  902MOL0     H21745   2.316   9.752   9.206  0.9224  3.2025  2.2854
  902MOL0     H21746   2.378   9.680   9.487  0.6712 -2.0551 -0.3918
  902MOL0     H21747   2.515   9.680   9.379 -1.1725 -1.1523 -3.8716
  902MOL0     H21748   2.318   9.908   9.433 -0.3273 -2.2443 -0.8519
  902MOL0     H21749   2.420   9.907   9.291 -0.6113 -0.9176  0.1734
  902MOL0     H21750   2.518  10.036   9.449  1.3689 -1.3632 -0.8099
  902MOL0     H21751   2.619   9.898   9.429  1.2333  1.4709  1.9583
  902MOL0     H21752   2.720   9.228   8.941  1.5666 -1.4907 -1.7899
  902MOL0     H21753   2.925   9.197   8.816  0.5201  0.4858 -1.4688
  902MOL0     H21754   3.278   9.349   8.655  0.2114 -0.0207 -0.5673
  902MOL0     H21755   3.498   9.314   8.561 -0.9416 -2.4873 -0.1517
  902MOL0     H21756   4.030   9.533   9.952  0.8845 -1.9241 -2.1835
  902MOL0     H21757   3.920   9.758   9.970 -0.9141 -1.6631 -1.4812
  902MOL0     H21758   3.793  10.144   9.924 -3.3720  0.3215  1.0364
  902MOL0     H21759   3.650  10.254  10.078  0.8644  1.2730 -0.5725
  902MOL0     H21760   3.589  10.467  10.242  2.2374  2.4565  2.0697
  902MOL0     H21761   3.533  10.301  10.253  3.9638 -2.6688 -0.3136
  902MOL0     H21762   3.575  10.485  10.493  0.9991 -0.6683  0.3106
  902MOL0     H21763   3.518  10.314  10.499 -0.1833 -1.4995 -1.1047
  902MOL0     H21764   3.332  10.376  10.351 -0.1840 -0.6349  0.1591
  902MOL0     H21765   3.367  10.548  10.376  1.8967  1.3333  1.8372
  902MOL0     H21766   3.356  10.524  10.620 -1.3245  0.5934 -0.6578
  902MOL0     H21767   3.278  10.366  10.589  0.3723 -1.7790 -2.8870
  902MOL0     H21768   2.963  10.618  10.481 -0.5986 -1.0025  4.1569
  902MOL0     H21769   3.958  10.266  10.380 -0.7143 -1.5653  0.9029
  902MOL0     H21770   4.109  10.134  10.221 -0.5366 -2.6889 -1.2694
  903MOL0     O21771   5.918   6.563   8.411 -0.1687  0.2544  0.1948
  903MOL0     C21772   5.872   6.597   8.516  1.4878  0.4448  0.2377
  903MOL0     O21773   5.748   6.562   8.560 -0.0685  0.3261 -0.6619
  903MOL0     C21774   5.682   6.463   8.492  0.7889 -0.2976 -0.0596
  903MOL0     C21775   5.634   6.364   8.573  0.5781  0.5835  0.6917
  903MOL0     C21776   5.559   6.261   8.516 -0.3983  0.2164  0.0933
  903MOL0     C21777   5.517   6.261   8.388 -0.0645 -0.0932  0.5661
  903MOL0     O21778   5.440   6.156   8.341  0.0027 -0.1759  0.5944
  903MOL0     C21779   5.372   6.174   8.214 -0.3713  0.0333  0.0232
  903MOL0     C21780   5.220   6.176   8.245  0.8207  0.9016 -0.4508
  903MOL0     C21781   5.125   6.131   8.134  0.2447  1.0050  0.1674
  903MOL0     C21782   5.087   6.252   8.049 -0.2089  0.1368  0.3535
  903MOL0     C21783   4.938   6.234   8.014 -0.4017  0.0910 -0.6386
  903MOL0     C21784   4.898   6.298   7.878  0.4171  0.4202  0.3689
  903MOL0     C21785   4.921   6.456   7.889  0.2515  0.4508  0.9010
  903MOL0     C21786   4.885   6.526   7.754 -0.9226 -0.1780 -0.1141
  903MOL0     N21787   4.757   6.483   7.694 -0.2594 -0.3602  0.2241
  903MOL0     C21788   4.640   6.545   7.729 -0.0723  1.0068 -1.0120
  903MOL0     C21789   4.549   6.491   7.651 -0.0454  1.2927  0.3425
  903MOL0     C21790   4.413   6.533   7.645  0.3287  0.0643 -0.3253
  903MOL0     C21791   4.346   6.537   7.508  0.7169 -0.1520  0.1022
  903MOL0     C21792   4.201   6.586   7.511 -0.2407  0.3833 -0.1801
  903MOL0     C21793   4.151   6.652   7.380  1.3601 -0.3046 -1.2575
  903MOL0     O21794   4.023   6.709   7.410 -0.1086  0.3167 -0.4715
  903MOL0     C21795   3.909   6.639   7.403  0.0448  0.8451  0.4519
  903MOL0     C21796   3.907   6.501   7.368 -0.7231 -0.9150 -0.3051
  903MOL0     C21797   3.791   6.425   7.379  0.1161  0.4782 -0.8632
  903MOL0     C21798   3.807   6.278   7.346  0.8410  0.1390  0.4246
  903MOL0     C21799   3.671   6.492   7.410  0.3014 -1.3617  0.4523
  903MOL0     C21800   3.539   6.423   7.415 -0.0059  0.3667 -0.1498
  903MOL0     O21801   3.543   6.301   7.476  0.4519  0.9608  0.6126
  903MOL0     C21802   3.424   6.234   7.482 -0.3894  0.0981 -0.3291
  903MOL0     C21803   3.332   6.260   7.582 -0.3540  0.5560 -0.7936
  903MOL0     C21804   3.211   6.183   7.581 -0.0739  0.1326  0.6330
  903MOL0     C21805   3.194   6.075   7.484  0.1785 -0.5098 -0.9355
  903MOL0     O21806   3.075   6.003   7.466  0.0868 -0.0218  0.4430
  903MOL0     C21807   3.095   5.862   7.462  0.3022  0.1414 -0.8497
  903MOL0     C21808   2.987   5.781   7.546 -0.7071 -0.0121 -0.2229
  903MOL0     C21809   3.011   5.639   7.538  0.0275 -0.1906 -0.6766
  903MOL0     C21810   3.033   5.591   7.398  0.3961  0.3812  0.6144
  903MOL0     C21811   2.991   5.440   7.388 -0.4341 -0.8669  0.1851
  903MOL0     C21812   2.840   5.421   7.406  0.5966  0.6406  0.2017
  903MOL0     C21813   2.804   5.280   7.378  0.2220  0.2739  0.8995
  903MOL0     C21814   2.654   5.273   7.342  0.3540  0.3432  0.6178
  903MOL0    Cl21815   2.600   5.127   7.262  0.2894 -0.2161  0.1864
  903MOL0     C21816   3.302   6.054   7.402  0.4719  0.3514 -0.4236
  903MOL0     C21817   3.411   6.132   7.402  0.7795 -0.5423 -0.4035
  903MOL0     O21818   3.440   6.483   7.366  0.0500  0.1644  0.5750
  903MOL0     C21819   3.674   6.636   7.432 -1.0114 -0.3849  0.0297
  903MOL0     C21820   3.789   6.707   7.429 -0.1335  0.4806 -0.9041
  903MOL0     N21821   4.599   6.389   7.575  0.0604  0.3234 -0.2794
  903MOL0     N21822   4.726   6.388   7.600  0.5134 -0.8842  0.1223
  903MOL0     C21823   5.560   6.372   8.303  0.4614 -0.2331 -0.3146
  903MOL0     C21824   5.641   6.474   8.355 -0.0058  0.0660 -0.3068
  903MOL0     C21825   5.954   6.660   8.623 -0.0567 -0.3500 -1.2962
  903MOL0     C21826   6.094   6.662   8.610  0.1328  0.4096  0.3231
  903MOL0     C21827   6.171   6.720   8.713  0.3373  0.2814  0.7677
  903MOL0     C21828   6.112   6.780   8.827 -0.6962 -0.2848  0.6601
  903MOL0     O21829   6.203   6.850   8.903 -0.7261 -0.4481 -0.0147
  903MOL0     C21830   6.163   6.901   9.030 -0.2259  0.3194  0.0181
  903MOL0     C21831   6.215   6.810   9.142 -1.0423  0.5746  0.6430
  903MOL0     C21832   6.120   6.690   9.142  1.0695  0.6045 -0.5016
  903MOL0     C21833   6.175   6.600   9.253  0.3160 -0.6672 -0.6728
  903MOL0     C21834   6.100   6.477   9.244  0.6592  1.3849  0.5699
  903MOL0     C21835   6.036   6.366   9.244  0.2232  0.2998  0.2046
  903MOL0     C21836   5.976   6.780   8.835  0.3741 -0.5441  1.2278
  903MOL0     C21837   5.887   6.724   8.731 -0.2228  0.4394  0.0851
  903MOL0     H21838   5.652   6.370   8.680  0.0184 -1.0604  0.9010
  903MOL0     H21839   5.539   6.180   8.586 -0.3272 -0.4757 -0.6624
  903MOL0     H21840   5.395   6.258   8.149 -0.6426 -2.3328 -3.4175
  903MOL0     H21841   5.399   6.088   8.152  0.3627  2.2219 -2.8988
  903MOL0     H21842   5.204   6.116   8.336  0.9211  3.9061  1.6887
  903MOL0     H21843   5.194   6.279   8.271 -1.8593  0.5599 -1.4464
  903MOL0     H21844   5.165   6.048   8.074  1.9572  1.5849  0.4614
  903MOL0     H21845   5.034   6.090   8.178  1.8593 -0.5107  2.2846
  903MOL0     H21846   5.094   6.353   8.091 -2.1010 -0.0338  1.1599
  903MOL0     H21847   5.150   6.241   7.961 -1.1868 -3.5115 -0.0410
  903MOL0     H21848   4.906   6.130   8.012 -0.6467  0.1036  1.4351
  903MOL0     H21849   4.873   6.280   8.089 -0.3163 -0.1752 -0.4002
  903MOL0     H21850   4.949   6.255   7.791 -0.0784  3.2361 -1.4689
  903MOL0     H21851   4.790   6.284   7.866  0.5645 -0.2470 -0.2183
  903MOL0     H21852   4.869   6.506   7.972 -1.4063  1.2534 -0.5593
  903MOL0     H21853   5.025   6.481   7.912 -0.3936  2.5987  1.7652
  903MOL0     H21854   4.969   6.518   7.686  1.6036  0.3869  2.7209
  903MOL0     H21855   4.877   6.628   7.791 -3.3542  0.2256 -1.5340
  903MOL0     H21856   4.638   6.623   7.805  0.9017 -1.9327  2.3440
  903MOL0     H21857   4.346   6.487   7.719 -0.3243  0.0402 -0.9185
  903MOL0     H21858   4.412   6.639   7.673 -1.7899 -0.3501  1.3941
  903MOL0     H21859   4.354   6.436   7.464  0.0082 -0.7453  1.3034
  903MOL0     H21860   4.405   6.616   7.460  1.4553 -1.0011 -0.4354
  903MOL0     H21861   4.180   6.661   7.587 -0.0846  0.3496 -0.1017
  903MOL0     H21862   4.139   6.497   7.527 -0.1732  0.2809 -0.4736
  903MOL0     H21863   4.141   6.584   7.295 -0.7808 -3.1477  1.0603
  903MOL0     H21864   4.219   6.736   7.363  2.2268 -0.6577  0.2310
  903MOL0     H21865   3.999   6.453   7.336  0.7545  1.8439 -0.4960
  903MOL0     H21866   3.902   6.268   7.292  0.4096  1.6734 -0.7167
  903MOL0     H21867   3.818   6.210   7.431  1.7285  0.4780  0.5938
  903MOL0     H21868   3.719   6.254   7.285 -0.6956 -3.0862  3.5754
  903MOL0     H21869   3.351   6.334   7.659 -4.2530  1.1189 -0.1820
  903MOL0     H21870   3.135   6.204   7.656 -2.8669 -1.2982 -1.5845
  903MOL0     H21871   3.113   5.842   7.356  1.3816  0.5755 -0.7530
  903MOL0     H21872   3.187   5.842   7.516 -0.3175  0.2841  0.2913
  903MOL0     H21873   2.968   5.808   7.650 -0.4875 -0.7372  0.0145
  903MOL0     H21874   2.890   5.800   7.499  0.0406  2.1586 -0.9941
  903MOL0     H21875   2.924   5.595   7.588 -0.2905 -1.1743 -2.0566
  903MOL0     H21876   3.097   5.617   7.602  0.4664  0.7136 -0.9429
  903MOL0     H21877   2.983   5.656   7.326  1.0207  0.1224 -0.0618
  903MOL0     H21878   3.139   5.589   7.370 -0.5805 -1.0361 -3.7426
  903MOL0     H21879   3.044   5.371   7.454  0.3457  0.4035  0.9261
  903MOL0     H21880   3.030   5.414   7.289  1.3403 -0.4506  0.7363
  903MOL0     H21881   2.823   5.447   7.511  1.0447  4.2621 -0.4699
  903MOL0     H21882   2.785   5.493   7.345  4.1226  1.1179 -2.7879
  903MOL0     H21883   2.819   5.206   7.457 -3.0547 -1.9050 -0.3181
  903MOL0     H21884   2.861   5.251   7.289 -1.5364  1.2089 -0.5985
  903MOL0     H21885   2.632   5.355   7.273  0.3471 -0.0556  0.1386
  903MOL0     H21886   2.603   5.291   7.437 -0.2210  3.8204 -0.1856
  903MOL0     H21887   3.299   5.988   7.317  1.0709  0.0242 -0.1948
  903MOL0     H21888   3.487   6.096   7.333 -1.4782 -1.9402 -2.2969
  903MOL0     H21889   3.590   6.700   7.459 -0.1323  0.4622  0.8605
  903MOL0     H21890   3.798   6.814   7.445  1.1231  0.0112  1.9410
  903MOL0     H21891   5.533   6.382   8.198 -2.3643  1.8982  0.5115
  903MOL0     H21892   5.672   6.560   8.297  1.9345  1.1210  2.1178
  903MOL0     H21893   6.145   6.617   8.525 -1.4484 -0.5574 -0.1544
  903MOL0     H21894   6.279   6.708   8.705  0.6389 -0.3376  4.2905
  903MOL0     H21895   6.225   6.991   9.026 -0.2358  0.3729  0.8760
  903MOL0     H21896   6.060   6.936   9.047 -1.4577 -1.6491 -2.6469
  903MOL0     H21897   6.207   6.859   9.240 -2.1745 -0.4334  1.0945
  903MOL0     H21898   6.319   6.781   9.126 -0.6624  0.6334  2.7197
  903MOL0     H21899   6.142   6.637   9.048  1.9429 -1.8277  0.9867
  903MOL0     H21900   6.020   6.732   9.152  1.2095  1.6590 -2.8126
  903MOL0     H21901   6.178   6.647   9.352 -2.7528 -0.0870 -0.7778
  903MOL0     H21902   6.281   6.576   9.242  1.2501  1.9722  1.5498
  903MOL0     H21903   5.984   6.273   9.250 -1.4548  1.1909  0.0479
  903MOL0     H21904   5.936   6.824   8.926  1.5251  1.0718  1.0065
  903MOL0     H21905   5.780   6.719   8.746  0.0256 -6.7599  3.6056
  904MOL0     O21906   1.517  11.229   6.504 -0.2754 -0.0590  0.1689
  904MOL0     C21907   1.484  11.336   6.541  0.2283 -0.9002 -0.3887
  904MOL0     O21908   1.405  11.365   6.647 -0.4046  0.3062  0.3721
  904MOL0     C21909   1.332  11.277   6.721 -0.3846 -0.4961  0.4347
  904MOL0     C21910   1.235  11.339   6.803  0.6940 -0.1755 -0.5855
  904MOL0     C21911   1.153  11.270   6.894  0.6051  1.3635  0.2267
  904MOL0     C21912   1.172  11.135   6.918  1.3883 -0.0043  0.0849
  904MOL0     O21913   1.111  11.056   7.019  0.9302 -0.1276  0.1460
  904MOL0     C21914   1.031  11.123   7.123  0.4349 -1.0488  0.1004
  904MOL0     C21915   0.983  11.017   7.221  0.2299 -0.8560  0.1222
  904MOL0     C21916   0.956  10.883   7.152  0.1521  0.4236 -0.3408
  904MOL0     C21917   0.884  10.782   7.239 -0.1064 -0.2015  0.5998
  904MOL0     C21918   0.797  10.679   7.175 -0.3761  1.0731  0.0837
  904MOL0     C21919   0.730  10.581   7.278  0.6955 -0.2019  0.8207
  904MOL0     C21920   0.639  10.641   7.382 -0.8094 -0.2863 -1.0095
  904MOL0     C21921   0.535  10.543   7.443 -0.2882 -0.4281 -0.1295
  904MOL0     N21922   0.405  10.600   7.462 -0.4647  0.2341  0.4849
  904MOL0     C21923   0.294  10.587   7.376  0.6161  0.4222 -0.0187
  904MOL0     C21924   0.200  10.663   7.436 -0.6541  0.6799 -0.1531
  904MOL0     C21925   0.062  10.674   7.382 -0.1668  0.3499 -0.8831
  904MOL0     C21926  -0.002  10.531   7.368 -0.1526  0.5958 -0.3884
  904MOL0     C21927  -0.047  10.485   7.512  0.7584  0.2736 -0.1963
  904MOL0     C21928  -0.121  10.345   7.499  0.6239 -0.7724  0.0645
  904MOL0     O21929  -0.068  10.254   7.408  0.4107 -0.3407 -0.0609
  904MOL0     C21930   0.037  10.165   7.443 -0.4391  0.3818 -0.3552
  904MOL0     C21931   0.099  10.169   7.573  0.0593  0.4774  0.3298
  904MOL0     C21932   0.206  10.069   7.609  0.1011  0.5416  1.0446
  904MOL0     C21933   0.254  10.069   7.751  0.5964 -0.3979  0.6323
  904MOL0     C21934   0.246   9.977   7.507 -0.0008  1.1556  0.6545
  904MOL0     C21935   0.336   9.861   7.526 -0.6805 -0.0758  0.3259
  904MOL0     O21936   0.324   9.756   7.431 -0.5252  0.1879  0.5986
  904MOL0     C21937   0.401   9.649   7.459  0.2910 -0.8428 -0.1490
  904MOL0     C21938   0.527   9.662   7.432 -0.5026  0.1450  0.4517
  904MOL0     C21939   0.616   9.547   7.434 -1.1627  0.2118 -0.2011
  904MOL0     C21940   0.565   9.419   7.465 -0.1189 -0.4735 -0.4398
  904MOL0     O21941   0.651   9.312   7.461 -0.2130  0.2229  0.0730
  904MOL0     C21942   0.599   9.186   7.415  0.1832 -0.1157 -0.4052
  904MOL0     C21943   0.725   9.102   7.400  0.2248 -0.5163  0.0305
  904MOL0     C21944   0.678   8.971   7.350 -0.5258  0.6387 -0.6710
  904MOL0     C21945   0.774   8.865   7.409  0.7186  1.1902 -0.2117
  904MOL0     C21946   0.755   8.734   7.327 -0.5102  0.8528  0.3507
  904MOL0     C21947   0.832   8.601   7.384  0.2315 -0.2568 -0.3046
  904MOL0     C21948   0.778   8.537   7.514 -0.2778  0.8846 -1.4638
  904MOL0     C21949   0.625   8.550   7.533 -0.4565  0.1179  0.2572
  904MOL0    Cl21950   0.550   8.432   7.632 -0.0663 -0.0319 -0.3081
  904MOL0     C21951   0.424   9.409   7.491 -0.6427  0.2841  0.0309
  904MOL0     C21952   0.345   9.526   7.482  0.2049 -0.3442 -0.8805
  904MOL0     O21953   0.415   9.863   7.615 -0.1960 -0.8165 -0.1172
  904MOL0     C21954   0.189   9.982   7.375  1.1668  0.0452  0.4828
  904MOL0     C21955   0.079  10.068   7.349  0.3055 -0.0585 -0.5530
  904MOL0     N21956   0.257  10.717   7.556  0.8706  0.9532  0.1278
  904MOL0     N21957   0.378  10.684   7.563 -0.3226 -0.8796 -0.1599
  904MOL0     C21958   1.268  11.069   6.833 -0.0918 -0.4611  0.0696
  904MOL0     C21959   1.348  11.142   6.735  0.4971  0.3931 -0.0038
  904MOL0     C21960   1.539  11.450   6.454  0.5000 -0.3707 -0.5567
  904MOL0     C21961   1.482  11.579   6.466 -0.2341  0.8783 -0.2263
  904MOL0     C21962   1.516  11.685   6.378  0.4749  0.2927 -0.6515
  904MOL0     C21963   1.617  11.673   6.293 -0.7794 -0.8230  0.5920
  904MOL0     O21964   1.663  11.772   6.208  0.1323 -0.9120 -0.6152
  904MOL0     C21965   1.620  11.908   6.229 -0.4618  0.4412 -0.4861
  904MOL0     C21966   1.730  11.999   6.162  1.4451 -0.4523 -0.5329
  904MOL0     C21967   1.703  12.015   6.009  0.4477 -0.6276  0.5095
  904MOL0     C21968   1.787  12.128   5.957 -1.2631  0.3484 -0.4042
  904MOL0     C21969   1.936  12.110   5.995 -0.9171 -1.0208 -0.5831
  904MOL0     C21970   2.056  12.105   6.029  0.1560  0.4767  0.2567
  904MOL0     C21971   1.659  11.543   6.263 -0.1451 -0.3610 -0.0689
  904MOL0     C21972   1.630  11.430   6.343  0.3122 -0.1538 -0.1211
  904MOL0     H21973   1.221  11.446   6.791 -0.8585 -0.3165 -0.3558
  904MOL0     H21974   1.073  11.321   6.946 -0.8389  0.1218 -0.6840
  904MOL0     H21975   1.077  11.211   7.169 -1.8508  0.9094 -1.1761
  904MOL0     H21976   0.945  11.168   7.073  0.7478 -2.8590 -2.2441
  904MOL0     H21977   1.050  11.011   7.308  1.5396 -0.3699 -0.8056
  904MOL0     H21978   0.887  11.047   7.263  0.3655 -2.3354  1.6022
  904MOL0     H21979   0.892  10.905   7.067  1.0113 -1.6741 -1.6078
  904MOL0     H21980   1.047  10.836   7.113 -1.1469 -1.5803 -1.0662
  904MOL0     H21981   0.965  10.737   7.298  1.2897  0.9176 -0.3800
  904MOL0     H21982   0.821  10.827   7.317  0.4193 -0.0043  0.9244
  904MOL0     H21983   0.715  10.726   7.121 -1.2089  1.3201  1.5150
  904MOL0     H21984   0.862  10.630   7.101 -0.6022  1.7916 -0.6008
  904MOL0     H21985   0.674  10.509   7.218 -2.3868  1.6074  1.2896
  904MOL0     H21986   0.805  10.529   7.339  1.5778 -0.3976 -0.3962
  904MOL0     H21987   0.701  10.687   7.460  0.7128 -2.6763 -0.6975
  904MOL0     H21988   0.579  10.723   7.342 -2.9329 -1.2540  0.0140
  904MOL0     H21989   0.571  10.500   7.537 -3.1507 -0.2706  1.1398
  904MOL0     H21990   0.522  10.466   7.366  2.4965  0.1729 -1.3235
  904MOL0     H21991   0.277  10.542   7.279  0.1204  1.9286 -0.6677
  904MOL0     H21992  -0.005  10.742   7.437 -0.2584  2.0333 -2.9590
  904MOL0     H21993   0.064  10.720   7.283 -2.3956  0.1927 -1.0696
  904MOL0     H21994   0.075  10.461   7.334  1.7228  0.1053  4.1033
  904MOL0     H21995  -0.084  10.524   7.297  2.1087 -4.7253 -3.0572
  904MOL0     H21996  -0.111  10.561   7.557  1.0095 -0.1883  0.9822
  904MOL0     H21997   0.038  10.472   7.579  1.8908  0.6978 -1.5047
  904MOL0     H21998  -0.220  10.366   7.457  1.1429  0.5725 -0.5466
  904MOL0     H21999  -0.133  10.301   7.598 -1.0989 -0.6835 -0.0756
  904MOL0     H22000   0.065  10.242   7.646  0.8972 -0.4372  1.6995
  904MOL0     H22001   0.274   9.963   7.771  0.6598 -0.5855 -0.3966
  904MOL0     H22002   0.354  10.114   7.754  1.1006 -1.4529  0.1111
  904MOL0     H22003   0.187  10.122   7.820 -0.8613 -0.0608 -0.9917
  904MOL0     H22004   0.563   9.763   7.417  1.0577 -0.2645  1.1945
  904MOL0     H22005   0.720   9.547   7.405 -0.6937 -1.5368  1.2923
  904MOL0     H22006   0.534   9.151   7.496  0.9493  0.7897  0.6304
  904MOL0     H22007   0.549   9.202   7.319  0.5611  3.1317 -0.1597
  904MOL0     H22008   0.788   9.150   7.325  4.3332  0.1052  3.4856
  904MOL0     H22009   0.780   9.119   7.494 -0.8434  2.7530  0.1769
  904MOL0     H22010   0.687   8.967   7.241  2.7425 -1.6085 -0.4468
  904MOL0     H22011   0.580   8.949   7.394 -0.5297  1.6490 -0.1467
  904MOL0     H22012   0.881   8.888   7.404  1.1756 -1.0351 -2.9219
  904MOL0     H22013   0.744   8.826   7.507 -3.1287 -1.6294 -2.2547
  904MOL0     H22014   0.802   8.767   7.234  0.2168  1.3700  0.8863
  904MOL0     H22015   0.649   8.711   7.312 -1.1498  3.4447  0.2983
  904MOL0     H22016   0.823   8.524   7.306  0.1959  2.4655 -3.2100
  904MOL0     H22017   0.937   8.626   7.400  1.1073 -0.6460 -4.2423
  904MOL0     H22018   0.825   8.579   7.603 -2.4958 -1.0356  0.7762
  904MOL0     H22019   0.802   8.430   7.523  0.2796  1.1996  4.3947
  904MOL0     H22020   0.582   8.548   7.432  1.6633 -3.4308 -0.7740
  904MOL0     H22021   0.609   8.651   7.571 -1.5134  0.3719 -0.8066
  904MOL0     H22022   0.391   9.310   7.520 -0.3936  0.2715  0.2719
  904MOL0     H22023   0.237   9.525   7.494  0.2941 -1.5294  0.0425
  904MOL0     H22024   0.213   9.912   7.296  2.4116  1.2815 -0.2797
  904MOL0     H22025   0.031  10.072   7.252 -1.2913 -1.8929  0.0870
  904MOL0     H22026   1.295  10.965   6.848  1.0233  0.1384  2.8552
  904MOL0     H22027   1.414  11.075   6.679 -1.5165 -1.1824 -0.6049
  904MOL0     H22028   1.404  11.584   6.541  2.2796 -1.5946  2.8573
  904MOL0     H22029   1.454  11.775   6.372 -0.1777 -0.2320 -2.3225
  904MOL0     H22030   1.520  11.928   6.190 -0.2614  3.6316  0.4150
  904MOL0     H22031   1.618  11.924   6.338 -1.5987 -3.0043  0.1294
  904MOL0     H22032   1.820  11.944   6.190 -1.1026 -4.9889 -0.2214
  904MOL0     H22033   1.723  12.098   6.207  0.2108 -0.8008  0.0820
  904MOL0     H22034   1.603  12.041   5.975  1.8870  0.1939 -3.5778
  904MOL0     H22035   1.724  11.919   5.961 -0.5702  0.4099 -2.1516
  904MOL0     H22036   1.755  12.227   5.989  1.1018  2.0815 -2.9135
  904MOL0     H22037   1.791  12.134   5.848  2.9354 -0.4217 -0.4645
  904MOL0     H22038   2.161  12.098   6.049  0.3823  3.1348  0.4110
  904MOL0     H22039   1.725  11.527   6.179  0.4055 -1.1177  0.4994
  904MOL0     H22040   1.667  11.331   6.319 -1.8790 -1.5355  1.8033
  905MOL0     O22041   8.555   9.202   1.859 -1.0644  0.6807  0.3484
  905MOL0     C22042   8.660   9.161   1.799  0.7777 -0.0216 -0.5867
  905MOL0     O22043   8.712   9.038   1.821 -0.1663 -0.5829  0.6960
  905MOL0     C22044   8.670   8.937   1.904  0.1953 -1.3776  0.1012
  905MOL0     C22045   8.533   8.919   1.930  0.2330 -0.1628 -0.6233
  905MOL0     C22046   8.489   8.810   2.003 -0.5318  0.1764 -0.3004
  905MOL0     C22047   8.589   8.715   2.043 -0.2575  0.2176  0.2679
  905MOL0     O22048   8.553   8.613   2.117  0.4935  0.4960  0.0594
  905MOL0     C22049   8.563   8.481   2.076  0.2393  0.4261  0.6994
  905MOL0     C22050   8.460   8.445   1.970  0.5295  0.0162  0.8976
  905MOL0     C22051   8.500   8.323   1.885  0.3798 -0.4880 -0.4155
  905MOL0     C22052   8.575   8.380   1.763 -0.4502 -0.4363  0.0540
  905MOL0     C22053   8.678   8.291   1.726  0.5009 -0.5169  0.5708
  905MOL0     C22054   8.623   8.143   1.697 -0.1805 -0.4948  0.2712
  905MOL0     C22055   8.726   8.059   1.624 -0.6362  0.5664 -0.2252
  905MOL0     C22056   8.687   7.899   1.638 -0.0080  0.1625  0.1353
  905MOL0     N22057   8.571   7.846   1.564  0.7862 -0.2342  0.0763
  905MOL0     C22058   8.547   7.872   1.424  0.0436 -0.6302  0.0718
  905MOL0     C22059   8.438   7.799   1.399 -0.3425  0.5473  0.2302
  905MOL0     C22060   8.355   7.788   1.274 -0.7266 -0.0799  0.0176
  905MOL0     C22061   8.230   7.883   1.296 -0.2136 -0.9768 -0.1626
  905MOL0     C22062   8.125   7.817   1.374  0.1204  0.3942  0.1960
  905MOL0     C22063   8.011   7.915   1.405 -0.6468 -0.0482 -0.4037
  905MOL0     O22064   7.921   7.846   1.493  0.9122  0.8316 -0.2695
  905MOL0     C22065   7.859   7.900   1.597  0.0765  1.0305  0.4270
  905MOL0     C22066   7.842   7.843   1.722 -0.1009 -0.2808  0.4899
  905MOL0     C22067   7.744   7.889   1.814 -0.1320  0.7293  0.5938
  905MOL0     C22068   7.723   7.813   1.942 -0.1386  0.4045 -0.3411
  905MOL0     C22069   7.663   8.002   1.784 -0.7742 -0.1512 -0.8342
  905MOL0     C22070   7.561   8.067   1.876 -0.6309  0.6941  0.0807
  905MOL0     O22071   7.540   8.012   2.000 -1.0039 -0.8024 -0.4262
  905MOL0     C22072   7.491   8.094   2.105  0.2273  1.2039 -0.2107
  905MOL0     C22073   7.357   8.141   2.105  1.4834  0.5790  0.4640
  905MOL0     C22074   7.302   8.202   2.229 -0.6022  0.6203 -0.0820
  905MOL0     C22075   7.383   8.205   2.346 -1.1356  0.1047  0.0407
  905MOL0     O22076   7.341   8.276   2.454  0.0428 -0.3398  0.5278
  905MOL0     C22077   7.430   8.337   2.553 -0.2029  1.2106 -0.0431
  905MOL0     C22078   7.351   8.459   2.609  0.1403 -0.3508  0.0256
  905MOL0     C22079   7.416   8.544   2.721 -1.2359  0.2292  0.3320
  905MOL0     C22080   7.382   8.491   2.851  0.2148 -0.5963 -0.9396
  905MOL0     C22081   7.418   8.588   2.972  0.6419  1.0450  0.2522
  905MOL0     C22082   7.568   8.629   2.977  0.2347 -0.1330 -0.1255
  905MOL0     C22083   7.586   8.756   3.062  0.2328 -0.8739 -1.1003
  905MOL0     C22084   7.519   8.738   3.204 -0.5724  0.4623  0.2796
  905MOL0    Cl22085   7.542   8.882   3.305  0.4073 -0.2875 -0.2858
  905MOL0     C22086   7.517   8.149   2.339  0.3835 -0.5857 -0.5901
  905MOL0     C22087   7.566   8.092   2.223  0.5940 -0.7508 -0.1680
  905MOL0     O22088   7.509   8.170   1.835  0.2382 -0.0490 -0.6622
  905MOL0     C22089   7.699   8.080   1.672 -0.2652 -0.0516 -0.1224
  905MOL0     C22090   7.801   8.025   1.583 -0.0599 -0.3843  0.2351
  905MOL0     N22091   8.412   7.724   1.510 -0.3876 -0.7390 -0.6129
  905MOL0     N22092   8.488   7.753   1.604  0.2577  0.3472  0.1707
  905MOL0     C22093   8.725   8.740   2.015 -0.6422  0.9378 -0.1147
  905MOL0     C22094   8.772   8.856   1.955  0.5664 -0.0547  0.3128
  905MOL0     C22095   8.734   9.261   1.730 -0.9327 -0.0657  0.0689
  905MOL0     C22096   8.874   9.239   1.703  0.0893  0.2040 -0.4444
  905MOL0     C22097   8.949   9.344   1.651 -0.0273  0.5872  0.0278
  905MOL0     C22098   8.888   9.463   1.619 -0.2936 -1.2514 -0.1255
  905MOL0     O22099   8.975   9.559   1.572 -0.1221  0.1842  0.0326
  905MOL0     C22100   8.939   9.614   1.440  0.8063  0.2026  0.2757
  905MOL0     C22101   9.046   9.709   1.378 -0.7501 -0.6088  0.6612
  905MOL0     C22102   9.090   9.826   1.481 -0.2800 -0.1940  0.4113
  905MOL0     C22103   8.978   9.893   1.560  0.3800  0.1251  0.4072
  905MOL0     C22104   8.974   9.889   1.707 -0.1342 -0.2003  0.3821
  905MOL0     C22105   8.953   9.886   1.828 -0.4687 -0.7810  0.6016
  905MOL0     C22106   8.755   9.486   1.643 -1.1852  0.1078 -0.6670
  905MOL0     C22107   8.676   9.384   1.693 -0.4110  0.9889  1.3044
  905MOL0     H22108   8.459   8.991   1.899  1.6155 -0.1025 -4.1845
  905MOL0     H22109   8.383   8.798   2.024 -0.4312 -2.0939 -0.7795
  905MOL0     H22110   8.664   8.458   2.041  0.6207 -1.7151  2.9405
  905MOL0     H22111   8.560   8.405   2.154  2.1776 -3.2241 -2.3936
  905MOL0     H22112   8.370   8.434   2.032 -0.7041  3.6967  0.0214
  905MOL0     H22113   8.431   8.522   1.897 -1.0741 -0.7481  0.6783
  905MOL0     H22114   8.566   8.263   1.948  2.2419 -0.7000 -2.4465
  905MOL0     H22115   8.413   8.261   1.863 -0.1921  0.6298 -1.4062
  905MOL0     H22116   8.501   8.385   1.683 -1.8860 -2.4382  1.1772
  905MOL0     H22117   8.614   8.481   1.780 -0.5246 -0.2910 -0.6213
  905MOL0     H22118   8.735   8.324   1.638 -1.0840  0.9991  0.0573
  905MOL0     H22119   8.750   8.284   1.808 -1.4925  0.1925  2.4950
  905MOL0     H22120   8.601   8.102   1.796  1.6178 -1.3599  0.3577
  905MOL0     H22121   8.540   8.145   1.626  0.6565 -0.0665 -0.7118
  905MOL0     H22122   8.734   8.080   1.517 -2.0865  0.2626 -0.4219
  905MOL0     H22123   8.824   8.064   1.672 -0.5843  2.9359 -0.4978
  905MOL0     H22124   8.679   7.894   1.747  0.8480  1.7004  0.3026
  905MOL0     H22125   8.765   7.828   1.607 -1.3254 -0.5491 -1.7278
  905MOL0     H22126   8.595   7.953   1.371 -1.5286  2.0965  2.4857
  905MOL0     H22127   8.408   7.811   1.182  0.2465 -1.8854  0.0733
  905MOL0     H22128   8.317   7.688   1.255 -0.5967 -0.1876  0.3104
  905MOL0     H22129   8.197   7.934   1.206  0.4803 -0.0777  0.0808
  905MOL0     H22130   8.270   7.970   1.348 -1.8803  1.9405 -3.4083
  905MOL0     H22131   8.165   7.783   1.469  1.1805  1.3339  0.1026
  905MOL0     H22132   8.088   7.730   1.320 -0.6586 -0.9162  2.7041
  905MOL0     H22133   7.962   7.952   1.315 -0.4446 -0.0015 -0.4941
  905MOL0     H22134   8.050   8.002   1.458 -2.0775  1.1809 -1.2736
  905MOL0     H22135   7.902   7.754   1.740  0.3830  0.2277  1.4609
  905MOL0     H22136   7.734   7.878   2.029 -0.9222 -1.1013  0.9280
  905MOL0     H22137   7.620   7.776   1.950 -0.3638  0.7212 -1.5150
  905MOL0     H22138   7.791   7.728   1.958 -1.1270  0.0610  2.5295
  905MOL0     H22139   7.303   8.108   2.017 -0.7898 -0.4089  2.1233
  905MOL0     H22140   7.201   8.241   2.224  0.0030  2.0561 -3.3142
  905MOL0     H22141   7.435   8.272   2.641 -1.4632  1.4907  0.2492
  905MOL0     H22142   7.531   8.356   2.513  2.5884 -5.1958  2.5755
  905MOL0     H22143   7.350   8.523   2.521 -1.7691 -2.7674 -1.8713
  905MOL0     H22144   7.251   8.426   2.639  0.3335  0.3295  1.5240
  905MOL0     H22145   7.376   8.645   2.719 -0.2764  0.6507  1.0013
  905MOL0     H22146   7.525   8.553   2.708 -1.1530 -1.1302 -0.1086
  905MOL0     H22147   7.280   8.452   2.856  0.5184 -1.2795  0.5439
  905MOL0     H22148   7.434   8.396   2.869 -1.9711 -1.8221 -0.6589
  905MOL0     H22149   7.382   8.535   3.060 -0.8466 -1.3371 -1.6582
  905MOL0     H22150   7.353   8.675   2.958  0.7527  1.7962  3.5672
  905MOL0     H22151   7.642   8.552   3.005 -0.2904 -0.1614  1.2808
  905MOL0     H22152   7.610   8.652   2.879  3.3530 -2.0194  0.6257
  905MOL0     H22153   7.549   8.846   3.012  0.1110  0.2709  0.9709
  905MOL0     H22154   7.691   8.777   3.085 -0.7855  3.0820  0.7288
  905MOL0     H22155   7.575   8.657   3.251  1.1214  1.8229  0.7104
  905MOL0     H22156   7.414   8.708   3.204 -0.6054  0.5711  0.6651
  905MOL0     H22157   7.578   8.140   2.428  0.9635  2.5095 -0.5496
  905MOL0     H22158   7.655   8.030   2.224  0.4874 -1.0925  3.9112
  905MOL0     H22159   7.649   8.170   1.638  0.1524 -0.3930 -1.7031
  905MOL0     H22160   7.805   8.071   1.485  0.0896 -1.3245 -0.2071
  905MOL0     H22161   8.796   8.666   2.050  0.2293  1.8168  0.0219
  905MOL0     H22162   8.874   8.858   1.918  0.6001  0.0710  0.4109
  905MOL0     H22163   8.924   9.145   1.724  1.2988  0.3165 -2.5731
  905MOL0     H22164   9.054   9.334   1.625 -0.6495 -1.9662 -1.7593
  905MOL0     H22165   8.935   9.526   1.375  3.0126 -0.6604  1.1823
  905MOL0     H22166   8.838   9.655   1.435  0.2552 -1.0543  0.7081
  905MOL0     H22167   9.007   9.764   1.292 -0.8950  2.6848  2.6476
  905MOL0     H22168   9.138   9.657   1.350 -0.5954  0.3902 -0.8016
  905MOL0     H22169   9.151   9.904   1.435  0.7767 -0.6074  1.0757
  905MOL0     H22170   9.162   9.785   1.554  0.5940  0.7051  0.0753
  905MOL0     H22171   8.877   9.855   1.540  1.1467 -2.0366  0.4427
  905MOL0     H22172   8.964   9.991   1.513 -2.7519 -1.5044 -2.5253
  905MOL0     H22173   8.916   9.883   1.929  0.0887 -0.3218  0.8275
  905MOL0     H22174   8.723   9.589   1.633 -3.1943  0.1487  3.8270
  905MOL0     H22175   8.569   9.396   1.699 -1.1293 -1.6648 -2.5701
  906MOL0     O22176  11.060   1.105   0.229 -0.2027  0.5368  0.1748
  906MOL0     C22177  11.157   1.177   0.197  0.5096  0.0239 -0.4758
  906MOL0     O22178  11.277   1.188   0.262 -0.1037  0.8390 -0.0903
  906MOL0     C22179  11.300   1.121   0.386  0.4785 -0.3648 -0.0106
  906MOL0     C22180  11.207   1.119   0.489  0.4236  0.1830 -0.5336
  906MOL0     C22181  11.235   1.051   0.607  0.8374 -1.0012 -0.4021
  906MOL0     C22182  11.361   1.003   0.636  0.9047  0.4919 -0.2050
  906MOL0     O22183  11.370   0.953   0.768 -0.3614 -0.4049  0.5794
  906MOL0     C22184  11.487   0.862   0.796  0.5285 -0.8497 -0.2582
  906MOL0     C22185  11.493   0.852   0.950 -0.6727 -0.0121 -0.5082
  906MOL0     C22186  11.598   0.739   0.986  0.2252  0.9550  0.9585
  906MOL0     C22187  11.641   0.748   1.131  0.2027 -0.6216  0.7794
  906MOL0     C22188  11.733   0.632   1.177  0.2525  0.6767  0.2532
  906MOL0     C22189  11.850   0.576   1.085 -0.3607 -0.1342 -0.0516
  906MOL0     C22190  11.985   0.657   1.094 -0.8009  0.1150  0.2928
  906MOL0     C22191  12.104   0.595   1.008 -0.0922 -0.0114 -0.6492
  906MOL0     N22192  12.196   0.700   0.957 -0.4385 -0.1700  0.0221
  906MOL0     C22193  12.153   0.785   0.848 -1.4218  0.3339 -0.5915
  906MOL0     C22194  12.269   0.848   0.828 -0.3060  0.0527  0.1765
  906MOL0     C22195  12.282   0.951   0.718  0.9571  0.6293 -0.1761
  906MOL0     C22196  12.401   1.039   0.720 -0.2537  0.6122  0.0125
  906MOL0     C22197  12.426   1.119   0.592 -0.3714  0.5256  0.4564
  906MOL0     C22198  12.307   1.171   0.514  0.5470 -1.4816 -0.4285
  906MOL0     O22199  12.263   1.293   0.571 -0.1575  0.8483  0.6346
  906MOL0     C22200  12.325   1.404   0.529 -0.5639  0.0255 -0.2727
  906MOL0     C22201  12.390   1.486   0.617  0.7279 -0.0517 -0.2656
  906MOL0     C22202  12.437   1.615   0.581  0.7468 -0.2972  0.3451
  906MOL0     C22203  12.523   1.689   0.690  0.0322  0.4962  0.4079
  906MOL0     C22204  12.390   1.662   0.458 -0.3546  0.1104 -0.5368
  906MOL0     C22205  12.418   1.800   0.414  0.2168 -0.1015  0.6016
  906MOL0     O22206  12.484   1.814   0.296 -0.1890  0.0201  0.3033
  906MOL0     C22207  12.467   1.946   0.253 -1.0272  0.1062  0.4096
  906MOL0     C22208  12.357   1.987   0.173 -0.1576  0.2352  0.6518
  906MOL0     C22209  12.350   2.111   0.116 -0.1444  0.0967  0.6331
  906MOL0     C22210  12.461   2.194   0.116 -0.5414 -0.2861 -0.6162
  906MOL0     O22211  12.486   2.303   0.035 -0.4376 -0.6619  0.0283
  906MOL0     C22212  12.436   2.431   0.090 -0.2635 -0.6749  0.6470
  906MOL0     C22213  12.326   2.488  -0.004  0.3628  0.9671 -0.4615
  906MOL0     C22214  12.183   2.447   0.030  0.2700  0.1426 -0.2158
  906MOL0     C22215  12.127   2.346  -0.075 -0.2820  0.5086  0.4629
  906MOL0     C22216  12.004   2.285  -0.015  0.5157 -0.0441  1.5245
  906MOL0     C22217  11.986   2.157  -0.102 -0.6031 -0.5036  0.1966
  906MOL0     C22218  11.893   2.068  -0.027 -0.0318 -0.0040  0.6729
  906MOL0     C22219  11.849   1.945  -0.109 -0.2481  0.2344  0.6533
  906MOL0    Cl22220  11.784   1.827   0.010 -0.0006  0.3528 -0.3052
  906MOL0     C22221  12.572   2.156   0.194  0.6263 -0.4982 -1.5424
  906MOL0     C22222  12.572   2.039   0.259  0.1647  0.3532 -0.2503
  906MOL0     O22223  12.396   1.884   0.498 -0.4511  0.5123  0.6312
  906MOL0     C22224  12.336   1.577   0.361 -0.5453  0.6897 -1.0620
  906MOL0     C22225  12.297   1.454   0.401  0.0471 -0.6350 -0.7266
  906MOL0     N22226  12.369   0.784   0.906 -0.5427  0.7050  0.2457
  906MOL0     N22227  12.324   0.699   0.989 -0.0083 -0.2819  0.4622
  906MOL0     C22228  11.462   1.020   0.534  0.4218  0.4117 -0.4200
  906MOL0     C22229  11.427   1.067   0.406 -0.7966 -0.0836  0.0489
  906MOL0     C22230  11.128   1.257   0.080 -0.0453 -0.1316  0.2654
  906MOL0     C22231  11.233   1.333   0.018  0.4857 -0.2045 -0.3584
  906MOL0     C22232  11.217   1.383  -0.112  0.1908  0.0959  0.0826
  906MOL0     C22233  11.087   1.382  -0.186 -0.2463  0.4224  1.0123
  906MOL0     O22234  11.063   1.439  -0.303  1.8782 -0.5222  0.5251
  906MOL0     C22235  11.123   1.559  -0.348  0.1806 -0.2552  0.2762
  906MOL0     C22236  11.255   1.560  -0.418 -1.0651 -0.0426 -0.2490
  906MOL0     C22237  11.324   1.700  -0.418 -1.3473 -0.0755 -0.5581
  906MOL0     C22238  11.479   1.699  -0.420 -1.0632 -0.3178  0.2786
  906MOL0     C22239  11.529   1.703  -0.558  0.3621 -0.3819 -0.0023
  906MOL0     C22240  11.573   1.699  -0.664 -0.7289 -0.8500 -0.1790
  906MOL0     C22241  10.985   1.317  -0.119 -0.5964  0.2014 -0.0752
  906MOL0     C22242  11.003   1.255   0.001 -0.9767  1.1968 -0.6987
  906MOL0     H22243  11.116   1.177   0.476 -0.9060 -1.5908  0.3462
  906MOL0     H22244  11.155   1.035   0.680  0.9655 -3.9491 -0.7701
  906MOL0     H22245  11.471   0.764   0.751  0.5053 -1.6696  1.4379
  906MOL0     H22246  11.579   0.911   0.764  1.1630 -2.7256 -1.4688
  906MOL0     H22247  11.525   0.949   0.989 -1.0949  1.2118 -3.0174
  906MOL0     H22248  11.389   0.833   0.980 -0.4238 -1.2035 -0.3816
  906MOL0     H22249  11.545   0.646   0.966  1.8042  0.7522 -3.1656
  906MOL0     H22250  11.686   0.743   0.922  0.5607 -1.1622  1.2252
  906MOL0     H22251  11.685   0.846   1.148 -0.3722 -0.2769  0.2859
  906MOL0     H22252  11.552   0.765   1.194 -0.0713 -1.1166  0.5336
  906MOL0     H22253  11.772   0.651   1.278  1.2132 -4.2300  1.0865
  906MOL0     H22254  11.669   0.545   1.196 -3.3854  3.5836  2.7624
  906MOL0     H22255  11.871   0.474   1.119 -0.4231 -0.0462  0.2573
  906MOL0     H22256  11.810   0.563   0.984  1.2794  1.0030 -0.9014
  906MOL0     H22257  11.977   0.761   1.060  1.7380 -0.5173 -2.6343
  906MOL0     H22258  12.021   0.677   1.195  0.4456 -1.2831  0.1455
  906MOL0     H22259  12.062   0.545   0.921 -0.0893 -0.4126 -0.4208
  906MOL0     H22260  12.151   0.516   1.068 -1.5725 -0.4064  0.0278
  906MOL0     H22261  12.058   0.816   0.805 -0.3080  1.8160 -2.1538
  906MOL0     H22262  12.281   0.900   0.622 -2.4152  2.7198 -1.4364
  906MOL0     H22263  12.195   1.018   0.720 -0.5149 -1.1530 -1.0216
  906MOL0     H22264  12.486   0.973   0.737  0.6142  1.4592 -0.8966
  906MOL0     H22265  12.396   1.116   0.799  0.4519  0.3774  0.2964
  906MOL0     H22266  12.477   1.053   0.520  1.1743  0.0359  1.9390
  906MOL0     H22267  12.502   1.195   0.612  1.2488 -0.3750 -1.7928
  906MOL0     H22268  12.222   1.102   0.518 -0.6896 -0.0145 -0.6562
  906MOL0     H22269  12.329   1.186   0.408 -0.5311  1.7891 -0.2939
  906MOL0     H22270  12.410   1.458   0.720  0.6218  1.1847  0.1125
  906MOL0     H22271  12.576   1.611   0.746  0.7401  2.2939  2.4076
  906MOL0     H22272  12.582   1.776   0.660  1.5765 -0.3135  0.9422
  906MOL0     H22273  12.466   1.727   0.775  0.6691  0.3252  0.9197
  906MOL0     H22274  12.284   1.907   0.164 -0.9835  0.7590  2.3207
  906MOL0     H22275  12.269   2.113   0.043  0.8020  0.8088 -0.4314
  906MOL0     H22276  12.393   2.416   0.189  0.4059 -0.3061  1.0050
  906MOL0     H22277  12.523   2.497   0.097  0.1698 -1.2965  1.2549
  906MOL0     H22278  12.335   2.592   0.026 -0.9336  0.6020  1.3528
  906MOL0     H22279  12.342   2.462  -0.109 -0.1195 -4.0752  0.4324
  906MOL0     H22280  12.128   2.542   0.032  4.1782  2.7106 -1.9787
  906MOL0     H22281  12.177   2.394   0.125 -2.0141  2.5356  1.1260
  906MOL0     H22282  12.098   2.396  -0.168 -3.3789 -0.3321  0.8716
  906MOL0     H22283  12.197   2.265  -0.098 -0.5389  0.4286 -0.0458
  906MOL0     H22284  11.915   2.348  -0.010  0.3328 -0.3175  1.6823
  906MOL0     H22285  12.035   2.257   0.086  1.4198  1.1986  1.6133
  906MOL0     H22286  11.950   2.179  -0.202 -0.9670 -1.9086  0.0022
  906MOL0     H22287  12.079   2.106  -0.129 -0.4200 -0.5204  0.8375
  906MOL0     H22288  11.802   2.125  -0.007 -0.1135 -0.1726  0.7775
  906MOL0     H22289  11.940   2.036   0.066  0.6014  3.1041  1.5607
  906MOL0     H22290  11.941   1.913  -0.159  1.5075  1.1121  3.1032
  906MOL0     H22291  11.775   1.983  -0.180  1.5682  4.3069  0.6889
  906MOL0     H22292  12.655   2.226   0.200 -1.0574  1.4925  0.5145
  906MOL0     H22293  12.652   2.007   0.325 -1.2560 -3.2915 -0.0608
  906MOL0     H22294  12.322   1.600   0.256  2.3383  1.3339 -1.3698
  906MOL0     H22295  12.242   1.390   0.333  3.0580 -1.4856 -2.5722
  906MOL0     H22296  11.564   0.988   0.552  0.4239 -0.2980 -1.6268
  906MOL0     H22297  11.495   1.075   0.322 -0.2822 -0.0467  0.4581
  906MOL0     H22298  11.329   1.345   0.066  0.7731 -1.9717 -0.4174
  906MOL0     H22299  11.306   1.431  -0.152  1.9025 -2.3639  0.7228
  906MOL0     H22300  11.049   1.614  -0.406 -1.8517 -0.9849  2.0229
  906MOL0     H22301  11.139   1.615  -0.255 -1.3501 -0.6155  0.7954
  906MOL0     H22302  11.254   1.522  -0.521 -0.0262  1.4221 -0.8297
  906MOL0     H22303  11.313   1.497  -0.349  0.3397 -0.7394 -1.9720
  906MOL0     H22304  11.311   1.749  -0.321 -4.2290 -0.6585 -0.5612
  906MOL0     H22305  11.284   1.762  -0.499 -1.3973 -0.9438 -1.2112
  906MOL0     H22306  11.506   1.620  -0.349 -3.1980  1.5884  3.4539
  906MOL0     H22307  11.511   1.791  -0.370 -3.1663  0.6642 -0.1039
  906MOL0     H22308  11.613   1.700  -0.764  3.2969 -1.2791  1.2134
  906MOL0     H22309  10.890   1.312  -0.172 -1.9565 -2.2020  2.3109
  906MOL0     H22310  10.921   1.214   0.059  1.2449 -0.6756  1.3459
  907MOL0     O22311   8.032   7.856   6.249  0.6659  0.0269 -0.3514
  907MOL0     C22312   7.975   7.816   6.150  0.1580  0.4414  0.0610
  907MOL0     O22313   7.967   7.880   6.030  0.0757  0.1143  0.7266
  907MOL0     C22314   8.003   8.003   6.002  0.3563  0.5321 -0.8612
  907MOL0     C22315   7.943   8.049   5.889 -0.9685  0.6920 -1.0467
  907MOL0     C22316   7.951   8.189   5.847  0.2424 -0.2510 -0.5529
  907MOL0     C22317   8.014   8.277   5.934 -0.5790  0.2741  0.1201
  907MOL0     O22318   8.046   8.406   5.910  0.0120 -0.1537  0.0454
  907MOL0     C22319   8.009   8.471   5.790  0.5891  0.2670  0.6611
  907MOL0     C22320   8.050   8.621   5.787  0.1414  0.1175 -1.2124
  907MOL0     C22321   7.997   8.712   5.912 -0.0536  0.4824  0.3585
  907MOL0     C22322   8.110   8.794   5.976  0.8490 -0.7346  0.0615
  907MOL0     C22323   8.064   8.901   6.084  0.3541 -1.5956  0.0806
  907MOL0     C22324   7.980   8.840   6.192 -0.8716  0.1372 -0.8004
  907MOL0     C22325   7.945   8.950   6.291  0.0822  0.9454 -0.8663
  907MOL0     C22326   7.863   8.890   6.413 -0.8586 -0.7958 -0.5452
  907MOL0     N22327   7.942   8.777   6.468 -0.0313  0.9231 -0.7009
  907MOL0     C22328   7.894   8.653   6.493 -0.2876  0.4726  0.9836
  907MOL0     C22329   8.003   8.585   6.530 -0.1624 -0.4672 -0.4650
  907MOL0     C22330   8.002   8.434   6.560  0.5850  0.0021 -1.1817
  907MOL0     C22331   8.133   8.360   6.525  0.5402 -0.8718 -0.4585
  907MOL0     C22332   8.124   8.205   6.516 -0.3416 -0.1360 -1.1491
  907MOL0     C22333   8.262   8.156   6.478 -0.0243  0.1415 -0.1012
  907MOL0     O22334   8.281   8.151   6.338  0.0497 -0.2848  0.2532
  907MOL0     C22335   8.392   8.093   6.295  0.4510  0.3912  0.1844
  907MOL0     C22336   8.510   8.131   6.358 -0.0818  0.0656  0.4760
  907MOL0     C22337   8.633   8.099   6.306 -0.2410  0.4308  0.0425
  907MOL0     C22338   8.748   8.168   6.350  0.1275  1.0241  0.1830
  907MOL0     C22339   8.637   7.998   6.195  0.8973 -0.2050  0.7271
  907MOL0     C22340   8.754   7.953   6.127 -0.3858  0.3108  0.8598
  907MOL0     O22341   8.755   7.901   6.001 -0.5419  0.1709  0.3285
  907MOL0     C22342   8.869   7.841   5.940  1.0581  0.0663 -0.1547
  907MOL0     C22343   8.965   7.763   5.998 -0.5218 -0.3023 -0.6774
  907MOL0     C22344   9.045   7.681   5.926  0.4848 -0.8228 -0.4918
  907MOL0     C22345   9.024   7.661   5.785 -0.1959  0.2485  0.0545
  907MOL0     O22346   9.094   7.573   5.699  0.7702 -0.3401 -0.1029
  907MOL0     C22347   9.195   7.486   5.747  0.0763  0.0645  0.0704
  907MOL0     C22348   9.205   7.369   5.655  1.0003 -0.8668  0.1575
  907MOL0     C22349   9.228   7.414   5.510  0.5675 -0.3767  0.9771
  907MOL0     C22350   9.296   7.310   5.436 -0.3070  0.2092  0.4896
  907MOL0     C22351   9.299   7.338   5.282  0.7586 -0.0467 -0.3636
  907MOL0     C22352   9.424   7.439   5.270  0.8285  0.1090  0.3343
  907MOL0     C22353   9.442   7.459   5.118 -0.6755  0.5138 -0.0874
  907MOL0     C22354   9.331   7.536   5.054  1.0794 -0.0162  0.2820
  907MOL0    Cl22355   9.363   7.634   4.907 -0.3900  0.3176 -0.6039
  907MOL0     C22356   8.921   7.739   5.730  0.4946  0.6043  0.9049
  907MOL0     C22357   8.846   7.829   5.798 -0.3096 -0.1984 -0.5796
  907MOL0     O22358   8.856   7.958   6.198 -0.8883  0.4151  0.0846
  907MOL0     C22359   8.522   7.950   6.141 -0.1247 -0.6648  0.1966
  907MOL0     C22360   8.395   8.003   6.187 -0.2077  0.2277 -0.0359
  907MOL0     N22361   8.113   8.663   6.538  0.0082  0.2891 -0.1608
  907MOL0     N22362   8.077   8.777   6.495  0.7076 -0.3157  0.4684
  907MOL0     C22363   8.072   8.228   6.057 -0.0087 -0.7509 -0.2186
  907MOL0     C22364   8.058   8.093   6.097  0.3382 -0.5417 -0.1228
  907MOL0     C22365   7.950   7.669   6.142  1.2194 -0.6845 -0.0355
  907MOL0     C22366   7.863   7.628   6.041  0.3302  0.1127  0.1717
  907MOL0     C22367   7.818   7.495   6.035 -0.5475 -1.1499  0.3418
  907MOL0     C22368   7.860   7.405   6.122  0.3285 -0.3405  0.1803
  907MOL0     O22369   7.826   7.273   6.113  0.3630 -0.5307 -0.3316
  907MOL0     C22370   7.711   7.223   6.186  0.6719  0.2601  1.0332
  907MOL0     C22371   7.750   7.180   6.322  1.1962 -0.0269 -0.1107
  907MOL0     C22372   7.673   7.062   6.378  0.7624 -0.0346  1.6866
  907MOL0     C22373   7.720   6.933   6.301 -0.2158 -0.0645 -0.3715
  907MOL0     C22374   7.828   6.864   6.376  0.6434  0.5273 -0.3114
  907MOL0     C22375   7.918   6.810   6.434  0.1783  0.3240  0.5131
  907MOL0     C22376   7.938   7.447   6.229 -0.2953  0.5185  0.4127
  907MOL0     C22377   7.995   7.575   6.241  0.1365  0.3702 -0.3516
  907MOL0     H22378   7.888   7.979   5.827  1.7626  0.3110 -3.2191
  907MOL0     H22379   7.903   8.226   5.757  0.6877  0.7460 -0.4005
  907MOL0     H22380   8.061   8.425   5.705 -0.8177  0.3495 -0.2831
  907MOL0     H22381   7.904   8.457   5.763  1.0836 -1.7483 -0.4598
  907MOL0     H22382   8.159   8.629   5.777  0.4174 -1.2484  0.3126
  907MOL0     H22383   8.015   8.672   5.697  0.5750  0.3975 -1.2290
  907MOL0     H22384   7.931   8.786   5.866 -1.5156 -1.6391 -1.1200
  907MOL0     H22385   7.940   8.660   5.990  0.7758  0.3951  0.9215
  907MOL0     H22386   8.179   8.728   6.030 -0.9688 -0.6663  2.6566
  907MOL0     H22387   8.160   8.850   5.897 -0.8169  0.9165  0.1080
  907MOL0     H22388   8.148   8.959   6.124 -1.5297 -0.7665  3.2403
  907MOL0     H22389   8.001   8.961   6.017 -1.1852 -4.0616 -0.8210
  907MOL0     H22390   7.885   8.794   6.163  0.7132 -3.8226 -0.2078
  907MOL0     H22391   8.045   8.766   6.239  1.9508  3.1517  0.4216
  907MOL0     H22392   8.031   9.012   6.319 -0.1151  0.6815  0.3746
  907MOL0     H22393   7.876   9.019   6.243 -2.1402 -1.0993 -0.7753
  907MOL0     H22394   7.767   8.857   6.373 -1.7344  1.0820 -0.1110
  907MOL0     H22395   7.835   8.971   6.481 -2.0915 -0.1118 -1.8117
  907MOL0     H22396   7.792   8.616   6.494 -0.0347 -0.3071  2.7836
  907MOL0     H22397   7.982   8.425   6.667 -0.8553  2.4449 -1.1820
  907MOL0     H22398   7.931   8.377   6.500  0.9205  2.1696 -3.8409
  907MOL0     H22399   8.199   8.404   6.600 -2.9303  2.5269  0.9959
  907MOL0     H22400   8.173   8.394   6.429  2.2065  0.4497  0.6540
  907MOL0     H22401   8.039   8.181   6.451 -2.4673  1.2951  0.9436
  907MOL0     H22402   8.105   8.169   6.617  0.4561  2.6157  0.0713
  907MOL0     H22403   8.272   8.053   6.512 -3.1862 -1.3232 -3.0359
  907MOL0     H22404   8.341   8.218   6.522  0.1261 -1.2175  1.6722
  907MOL0     H22405   8.507   8.211   6.431 -0.7788  1.1876 -0.7392
  907MOL0     H22406   8.782   8.238   6.274 -0.8042  0.2063 -1.0111
  907MOL0     H22407   8.729   8.231   6.438  0.0443 -0.5000  1.3123
  907MOL0     H22408   8.824   8.097   6.387 -1.3683 -0.6448  0.1901
  907MOL0     H22409   8.983   7.773   6.105 -0.9220 -0.5515 -0.5851
  907MOL0     H22410   9.122   7.634   5.987 -0.3203 -0.8708  0.5285
  907MOL0     H22411   9.293   7.533   5.751  0.1017 -0.0811  1.7423
  907MOL0     H22412   9.182   7.449   5.849  1.4785  1.2404  0.6931
  907MOL0     H22413   9.293   7.312   5.688  1.5983  0.5638  1.1279
  907MOL0     H22414   9.117   7.304   5.651  0.0506  0.4372 -0.5060
  907MOL0     H22415   9.304   7.491   5.525  2.0050 -1.7731  1.2053
  907MOL0     H22416   9.138   7.457   5.465 -0.0796 -0.1395  2.4314
  907MOL0     H22417   9.397   7.312   5.477  0.5042  2.9476 -1.3344
  907MOL0     H22418   9.256   7.211   5.462 -4.2119  1.5924  0.4710
  907MOL0     H22419   9.207   7.384   5.246 -0.6395 -0.8256  2.0020
  907MOL0     H22420   9.317   7.239   5.239 -2.1338 -1.6587  1.8067
  907MOL0     H22421   9.410   7.535   5.322  2.1563  0.0344  0.8694
  907MOL0     H22422   9.512   7.397   5.318  3.4156  3.2301 -1.2388
  907MOL0     H22423   9.468   7.362   5.075 -2.0193 -0.5672  1.4422
  907MOL0     H22424   9.532   7.521   5.106  0.4726 -0.8351  1.1966
  907MOL0     H22425   9.279   7.604   5.122 -1.8733 -1.8909  0.0927
  907MOL0     H22426   9.256   7.459   5.032  0.0114  0.1983  2.8670
  907MOL0     H22427   8.896   7.730   5.625 -1.7262  1.2865  1.3227
  907MOL0     H22428   8.756   7.870   5.754 -0.2828 -1.1673 -1.5692
  907MOL0     H22429   8.526   7.868   6.069  1.0184 -2.6265  2.3437
  907MOL0     H22430   8.299   7.975   6.145  0.0351 -3.2508  1.3780
  907MOL0     H22431   8.124   8.299   6.120 -0.6049 -1.3143  0.9320
  907MOL0     H22432   8.094   8.080   6.198  0.4675 -0.8701 -0.2077
  907MOL0     H22433   7.831   7.699   5.967 -0.7902  1.6631  2.0564
  907MOL0     H22434   7.759   7.484   5.944 -0.0195  2.2365 -0.5628
  907MOL0     H22435   7.633   7.298   6.173  1.2200  0.4019 -2.3466
  907MOL0     H22436   7.673   7.132   6.138 -1.2231  1.1113  0.8266
  907MOL0     H22437   7.752   7.265   6.392 -0.1456  1.1991 -1.4919
  907MOL0     H22438   7.854   7.147   6.318  1.9335  1.7680  2.0489
  907MOL0     H22439   7.565   7.079   6.366  1.1291  1.5270  0.2261
  907MOL0     H22440   7.663   7.047   6.486 -3.2882 -1.3889  1.3316
  907MOL0     H22441   7.747   6.942   6.195 -2.6377 -3.6827 -1.4922
  907MOL0     H22442   7.637   6.861   6.301 -0.3200  0.0516  0.4003
  907MOL0     H22443   7.984   6.758   6.501 -2.3207 -0.5722  2.4769
  907MOL0     H22444   7.973   7.367   6.293 -0.9138 -0.0698  0.0260
  907MOL0     H22445   8.054   7.618   6.322 -2.6797  2.8889  0.5833
  908MOL0     O22446   4.299   1.160   1.547 -0.5221  0.4619  0.1667
  908MOL0     C22447   4.251   1.259   1.496  0.0283  0.0219 -0.2819
  908MOL0     O22448   4.313   1.339   1.405 -0.0885 -0.3731  0.4914
  908MOL0     C22449   4.444   1.316   1.389 -0.0002  0.7403 -0.2743
  908MOL0     C22450   4.496   1.259   1.277  0.1454 -0.1926  0.3287
  908MOL0     C22451   4.628   1.231   1.252 -0.1383 -0.1605  0.6362
  908MOL0     C22452   4.715   1.253   1.355 -0.9785 -0.7338 -0.0207
  908MOL0     O22453   4.840   1.198   1.366  0.2781 -0.4618 -0.7437
  908MOL0     C22454   4.866   1.077   1.282  0.5135  0.0436 -0.6819
  908MOL0     C22455   5.011   1.029   1.310  0.1752  0.5248  0.1227
  908MOL0     C22456   5.058   0.897   1.232  1.9789  0.0318 -0.4864
  908MOL0     C22457   4.946   0.811   1.186  0.9493 -0.7041 -0.1710
  908MOL0     C22458   4.985   0.687   1.119  0.0679 -0.3578  0.6889
  908MOL0     C22459   5.077   0.598   1.206 -0.1482 -0.1716  0.0573
  908MOL0     C22460   5.018   0.566   1.336 -0.3548 -0.8158  0.2520
  908MOL0     C22461   5.099   0.462   1.418  0.3729  0.2954  0.3353
  908MOL0     N22462   5.036   0.414   1.550 -1.0128 -0.2389  0.0725
  908MOL0     C22463   5.104   0.363   1.663  0.8977 -0.2447  0.3304
  908MOL0     C22464   5.012   0.361   1.767  1.1760 -0.5442  0.6631
  908MOL0     C22465   5.041   0.329   1.907 -0.5901 -0.3708  0.2098
  908MOL0     C22466   5.143   0.217   1.905 -0.6263 -0.3200  0.0192
  908MOL0     C22467   5.173   0.151   2.042  0.3506  0.8874 -0.6001
  908MOL0     C22468   5.312   0.085   2.030  0.6368 -0.7576  1.2166
  908MOL0     O22469   5.426   0.170   2.001 -0.1182  0.4330 -0.3551
  908MOL0     C22470   5.494   0.193   2.117 -0.3007 -0.0796  0.2068
  908MOL0     C22471   5.610   0.127   2.163  0.9345 -0.6537 -0.3017
  908MOL0     C22472   5.680   0.152   2.283  0.7411 -0.6338  0.0138
  908MOL0     C22473   5.815   0.066   2.306  0.1738 -0.0327  0.6435
  908MOL0     C22474   5.644   0.264   2.358  0.8727 -0.3120  0.5318
  908MOL0     C22475   5.721   0.316   2.471  0.6862 -0.7845 -0.2466
  908MOL0     O22476   5.811   0.228   2.527 -0.9310 -0.2900  0.6075
  908MOL0     C22477   5.871   0.252   2.652 -0.1510  0.0788  0.1556
  908MOL0     C22478   5.881   0.154   2.754 -0.2518  0.5359  0.0200
  908MOL0     C22479   5.935   0.186   2.882  0.6429 -0.6798  0.2469
  908MOL0     C22480   5.999   0.310   2.907  1.0517 -0.0389  0.1633
  908MOL0     O22481   6.060   0.338   3.028 -0.1596  0.4868 -0.0475
  908MOL0     C22482   5.982   0.291   3.144  0.1601  0.0231 -0.8179
  908MOL0     C22483   5.845   0.373   3.175  0.8452  0.5580  0.3491
  908MOL0     C22484   5.859   0.526   3.168 -0.3338  0.4277  0.7124
  908MOL0     C22485   5.729   0.599   3.212  0.0504  0.8268 -0.4325
  908MOL0     C22486   5.756   0.753   3.201  0.0068  0.1501  0.2417
  908MOL0     C22487   5.650   0.840   3.266  0.2549 -0.3828  0.6645
  908MOL0     C22488   5.680   0.986   3.235 -0.5710 -0.0841 -0.2325
  908MOL0     C22489   5.599   1.091   3.320  0.3531 -1.2387  0.7760
  908MOL0    Cl22490   5.612   1.239   3.228 -0.2508  0.1604  0.1215
  908MOL0     C22491   5.982   0.410   2.807 -0.3662 -0.1229  0.1249
  908MOL0     C22492   5.923   0.383   2.687 -1.0024  0.8043 -0.0440
  908MOL0     O22493   5.705   0.435   2.509 -0.5944 -0.2449  0.2797
  908MOL0     C22494   5.517   0.332   2.321 -1.7217  1.1205  0.3027
  908MOL0     C22495   5.452   0.303   2.204 -0.6821  0.0114  0.2790
  908MOL0     N22496   4.895   0.401   1.700  0.2671 -0.5438  0.3703
  908MOL0     N22497   4.912   0.443   1.582  0.0471 -0.4482  0.4177
  908MOL0     C22498   4.670   1.316   1.472  0.4497  0.0303  0.0789
  908MOL0     C22499   4.534   1.349   1.496 -0.6197  0.0521  0.0358
  908MOL0     C22500   4.118   1.307   1.538  0.4273 -0.4403 -0.0256
  908MOL0     C22501   4.082   1.436   1.506 -0.0573 -1.1083 -0.5492
  908MOL0     C22502   3.951   1.487   1.546  1.2657  0.3726  0.0575
  908MOL0     C22503   3.859   1.399   1.611 -0.4107 -1.4648 -0.0838
  908MOL0     O22504   3.739   1.457   1.649  0.3216  0.8356  0.3778
  908MOL0     C22505   3.637   1.406   1.739  0.2486  0.1526 -0.9610
  908MOL0     C22506   3.651   1.453   1.879  0.0801 -1.3315 -1.2346
  908MOL0     C22507   3.579   1.595   1.892 -0.7318  0.6706 -0.6347
  908MOL0     C22508   3.642   1.709   1.813  0.3316  0.4167 -0.4496
  908MOL0     C22509   3.570   1.828   1.863  0.3222 -0.7867  0.4626
  908MOL0     C22510   3.517   1.937   1.900  0.7913  0.2458 -0.2560
  908MOL0     C22511   3.897   1.273   1.640 -0.2361  0.7983 -0.1427
  908MOL0     C22512   4.030   1.225   1.597  0.1648  0.3233 -0.1720
  908MOL0     H22513   4.433   1.247   1.190  0.8452  2.2496 -0.6060
  908MOL0     H22514   4.665   1.192   1.158 -2.9514 -0.7652 -0.3350
  908MOL0     H22515   4.793   0.999   1.308 -2.4911  2.6502 -0.6649
  908MOL0     H22516   4.857   1.085   1.173 -2.0919 -0.9620 -0.6265
  908MOL0     H22517   5.092   1.094   1.276  2.4902 -3.0147 -1.8736
  908MOL0     H22518   5.022   1.008   1.417  2.8492  3.0171  0.4679
  908MOL0     H22519   5.109   0.936   1.143 -2.5537  0.3763 -3.2842
  908MOL0     H22520   5.113   0.844   1.310 -0.7115  0.8821  2.1580
  908MOL0     H22521   4.872   0.799   1.266 -1.7183 -1.7581 -2.6065
  908MOL0     H22522   4.892   0.871   1.112  0.4978 -1.0883 -0.1594
  908MOL0     H22523   4.897   0.628   1.090  1.2735 -1.1220 -1.7031
  908MOL0     H22524   5.029   0.702   1.020 -1.4287 -0.6201 -0.0497
  908MOL0     H22525   5.107   0.508   1.150  0.5645 -0.3810  0.7568
  908MOL0     H22526   5.175   0.639   1.231 -0.3766  1.1276 -1.0451
  908MOL0     H22527   4.991   0.648   1.402  1.8058  2.1236 -2.2451
  908MOL0     H22528   4.925   0.509   1.324  1.0463 -3.8515  2.4088
  908MOL0     H22529   5.178   0.529   1.453  1.0276 -0.9291  1.2701
  908MOL0     H22530   5.144   0.378   1.366 -3.6283 -1.5690 -0.5052
  908MOL0     H22531   5.209   0.337   1.659  1.0639  0.1236  1.8000
  908MOL0     H22532   5.092   0.405   1.967  3.4763 -1.5233 -1.3750
  908MOL0     H22533   4.951   0.292   1.957  1.0517 -1.0734  2.8628
  908MOL0     H22534   5.240   0.254   1.871  0.4770 -1.0819  2.1370
  908MOL0     H22535   5.119   0.140   1.832 -0.1482 -0.5970  0.1449
  908MOL0     H22536   5.102   0.077   2.079 -0.7838  2.2435  0.0491
  908MOL0     H22537   5.192   0.224   2.121 -3.6250  0.9420  0.5040
  908MOL0     H22538   5.312   0.007   1.953 -1.8897 -1.2579  1.6495
  908MOL0     H22539   5.323   0.028   2.122  1.3734 -0.2267  1.4659
  908MOL0     H22540   5.660   0.051   2.103  5.1969 -1.9565  4.2359
  908MOL0     H22541   5.902   0.129   2.326 -0.4281  0.4655  1.8079
  908MOL0     H22542   5.804  -0.004   2.389 -0.1287  0.5512  1.1054
  908MOL0     H22543   5.828   0.021   2.207 -3.0582  0.2709 -0.0383
  908MOL0     H22544   5.840   0.054   2.745  2.9135 -1.0570  1.8625
  908MOL0     H22545   5.915   0.116   2.962 -0.0911  1.0869  1.6775
  908MOL0     H22546   5.970   0.182   3.140 -1.8184 -0.0480  2.7469
  908MOL0     H22547   6.040   0.311   3.234 -1.9403  2.0546  0.1980
  908MOL0     H22548   5.771   0.341   3.101  0.1242 -2.2989  2.1291
  908MOL0     H22549   5.800   0.335   3.267 -1.9883  0.6784 -0.8949
  908MOL0     H22550   5.882   0.566   3.068 -2.5838  0.5139  0.1585
  908MOL0     H22551   5.947   0.548   3.229  0.3328 -0.5376  0.1227
  908MOL0     H22552   5.642   0.562   3.157 -0.9299  0.6362  1.1801
  908MOL0     H22553   5.706   0.573   3.315 -5.8233  2.9725 -0.8382
  908MOL0     H22554   5.760   0.774   3.094  0.8493 -1.4453 -0.0796
  908MOL0     H22555   5.854   0.781   3.241  1.1381 -1.6708 -1.1333
  908MOL0     H22556   5.545   0.831   3.236  0.8491 -0.6754 -1.5231
  908MOL0     H22557   5.647   0.830   3.375  3.2980 -0.8818  0.7982
  908MOL0     H22558   5.646   0.999   3.132 -0.2085 -0.3980 -0.3925
  908MOL0     H22559   5.786   1.011   3.249  0.7991 -4.5528 -1.2047
  908MOL0     H22560   5.636   1.078   3.422 -3.2942 -5.6760  1.9159
  908MOL0     H22561   5.493   1.063   3.316  0.0041  0.0923 -1.8548
  908MOL0     H22562   6.014   0.513   2.821 -3.0075  0.7983 -0.0481
  908MOL0     H22563   5.936   0.459   2.611 -1.8471 -2.0062 -3.2635
  908MOL0     H22564   5.473   0.403   2.391 -2.8760 -1.0896  1.9364
  908MOL0     H22565   5.370   0.369   2.174 -0.2173 -0.0520 -1.2191
  908MOL0     H22566   4.743   1.324   1.552 -2.6123  0.3879  3.0637
  908MOL0     H22567   4.507   1.412   1.580 -3.2920  0.9571 -1.3762
  908MOL0     H22568   4.147   1.511   1.462  1.2529 -0.8099  1.7480
  908MOL0     H22569   3.926   1.590   1.526 -3.3343  0.2300  3.4279
  908MOL0     H22570   3.541   1.429   1.691 -0.8317 -2.2065 -0.1112
  908MOL0     H22571   3.645   1.297   1.747  2.6601  0.3728  0.4226
  908MOL0     H22572   3.753   1.470   1.914  0.2242  3.4283 -3.1886
  908MOL0     H22573   3.600   1.378   1.940 -0.2700 -0.9789 -1.0903
  908MOL0     H22574   3.581   1.628   1.997  1.5993  0.6544 -0.6288
  908MOL0     H22575   3.477   1.589   1.853 -1.3802 -2.3993  1.1501
  908MOL0     H22576   3.636   1.702   1.704  1.0951  1.6467 -0.5988
  908MOL0     H22577   3.749   1.718   1.836  0.2713 -0.7181  0.3279
  908MOL0     H22578   3.464   2.016   1.950 -2.4662 -0.7884 -1.7707
  908MOL0     H22579   3.838   1.198   1.693  0.3995  0.5549  0.2395
  908MOL0     H22580   4.052   1.120   1.617  0.1008  0.1062 -1.1865
  909MOL0     O22581   0.420   5.737   6.209 -0.4597  0.5492 -0.3146
  909MOL0     C22582   0.353   5.647   6.155  0.5053  0.0335  0.4858
  909MOL0     O22583   0.214   5.639   6.144  0.4131  0.1203  0.2669
  909MOL0     C22584   0.140   5.742   6.194 -0.5682  0.3023  0.9842
  909MOL0     C22585   0.122   5.855   6.119  0.6935 -0.6628  0.5182
  909MOL0     C22586   0.059   5.972   6.165  0.3106  0.2325 -0.3698
  909MOL0     C22587   0.011   5.980   6.288  0.2802 -0.1693 -0.1283
  909MOL0     O22588  -0.038   6.096   6.339 -0.4244 -0.0255 -0.5441
  909MOL0     C22589   0.047   6.186   6.400 -0.5627 -0.0132  1.0753
  909MOL0     C22590  -0.026   6.309   6.434  0.1197  0.2894  0.5746
  909MOL0     C22591  -0.080   6.378   6.305  0.1840 -0.2065  0.5521
  909MOL0     C22592  -0.227   6.351   6.293 -0.3357  0.1450 -0.6741
  909MOL0     C22593  -0.313   6.411   6.172 -0.5442  0.6507 -0.3482
  909MOL0     C22594  -0.247   6.388   6.036 -0.1180 -0.7497 -0.9206
  909MOL0     C22595  -0.273   6.244   5.988  0.5694  0.4101  1.2408
  909MOL0     C22596  -0.173   6.229   5.862 -0.5421 -0.0672 -0.8350
  909MOL0     N22597  -0.186   6.098   5.806  0.1548  0.1166  0.4973
  909MOL0     C22598  -0.284   6.054   5.715  0.0661 -0.0607 -0.6716
  909MOL0     C22599  -0.249   5.932   5.679 -0.9916  0.5973 -1.2479
  909MOL0     C22600  -0.330   5.829   5.607  0.0695 -0.1824  0.1040
  909MOL0     C22601  -0.483   5.829   5.602  0.9012 -0.7902 -0.5205
  909MOL0     C22602  -0.531   5.839   5.746  0.2774  0.0428 -1.1287
  909MOL0     C22603  -0.680   5.842   5.745 -0.2637 -0.8425 -0.2400
  909MOL0     O22604  -0.724   5.789   5.869  0.2932 -0.3635  0.5122
  909MOL0     C22605  -0.863   5.771   5.891 -0.9910  0.2025 -0.1662
  909MOL0     C22606  -0.893   5.708   6.010  0.7009 -1.4909  0.1404
  909MOL0     C22607  -1.023   5.672   6.037 -0.0186 -0.0656 -0.3508
  909MOL0     C22608  -1.042   5.594   6.161 -0.5143 -0.6741 -0.1139
  909MOL0     C22609  -1.129   5.693   5.931 -0.4818 -0.1222  0.0292
  909MOL0     C22610  -1.265   5.644   5.947  1.1438  0.4042  0.6016
  909MOL0     O22611  -1.352   5.706   5.856  0.1131 -0.0295 -0.0195
  909MOL0     C22612  -1.475   5.661   5.833 -0.0240  0.0932  0.6225
  909MOL0     C22613  -1.513   5.527   5.827 -0.4104  0.2453 -0.3392
  909MOL0     C22614  -1.641   5.479   5.813  0.6346 -0.3412 -0.4091
  909MOL0     C22615  -1.742   5.574   5.782 -0.5261 -0.7545  0.5807
  909MOL0     O22616  -1.874   5.526   5.772 -0.8364  0.2154  0.6105
  909MOL0     C22617  -1.886   5.410   5.693 -0.4003 -0.7563 -0.1014
  909MOL0     C22618  -1.943   5.462   5.565 -0.2871 -0.0909 -0.2151
  909MOL0     C22619  -1.936   5.371   5.439 -0.1599 -0.5902 -0.8543
  909MOL0     C22620  -2.056   5.275   5.430  0.7859  0.5324 -0.0737
  909MOL0     C22621  -2.030   5.184   5.321  0.2995  0.2727  0.2022
  909MOL0     C22622  -2.150   5.084   5.304 -0.5108  0.1315  1.0623
  909MOL0     C22623  -2.186   5.009   5.427  0.2077  0.0857  0.2675
  909MOL0     C22624  -2.259   4.876   5.395 -0.5520 -0.5320 -0.3774
  909MOL0    Cl22625  -2.424   4.902   5.345  0.1618  0.5849 -0.3740
  909MOL0     C22626  -1.706   5.714   5.779  0.8893  0.0609  0.2629
  909MOL0     C22627  -1.576   5.760   5.808  0.3976 -0.2199 -0.3127
  909MOL0     O22628  -1.293   5.556   6.030  0.4644  0.0977 -0.0877
  909MOL0     C22629  -1.090   5.763   5.815 -0.2592  0.0563  0.6062
  909MOL0     C22630  -0.962   5.801   5.806 -0.7683 -0.2514  1.0357
  909MOL0     N22631  -0.130   5.905   5.743 -0.8302  0.3510  0.4182
  909MOL0     N22632  -0.093   6.002   5.813  0.2068 -0.8416  0.2499
  909MOL0     C22633   0.015   5.866   6.362  0.6220  0.1394 -0.2166
  909MOL0     C22634   0.082   5.740   6.319 -0.3056 -0.6071 -0.2418
  909MOL0     C22635   0.423   5.520   6.101 -0.2189 -0.7734 -0.7006
  909MOL0     C22636   0.369   5.441   5.998 -0.5636 -0.4509 -0.3750
  909MOL0     C22637   0.433   5.330   5.953  0.5652  0.4310 -0.2508
  909MOL0     C22638   0.563   5.301   5.994 -0.0099 -0.3014 -0.3008
  909MOL0     O22639   0.620   5.192   5.928 -0.4612 -0.4082 -0.5112
  909MOL0     C22640   0.758   5.153   5.967  0.1564  0.0363 -0.2269
  909MOL0     C22641   0.854   5.212   5.862 -0.0895 -0.4592 -1.0774
  909MOL0     C22642   0.808   5.334   5.784  0.8691 -0.2735 -0.6387
  909MOL0     C22643   0.936   5.420   5.751 -0.0342 -0.5000 -0.6214
  909MOL0     C22644   0.961   5.520   5.864  1.3986  0.1632 -0.4110
  909MOL0     C22645   0.986   5.613   5.946  0.7092  0.0346 -0.1787
  909MOL0     C22646   0.626   5.385   6.092 -0.1266  0.8870  0.2523
  909MOL0     C22647   0.553   5.496   6.134  0.0125  0.1547 -0.9234
  909MOL0     H22648   0.160   5.864   6.017 -3.5738 -0.2341 -1.2406
  909MOL0     H22649   0.051   6.061   6.102 -2.3473  2.9381  3.3607
  909MOL0     H22650   0.083   6.125   6.484  0.9219 -0.1289  0.3932
  909MOL0     H22651   0.123   6.199   6.323 -0.3959  1.0102  1.3987
  909MOL0     H22652  -0.103   6.284   6.508 -0.7323 -1.4736 -0.8435
  909MOL0     H22653   0.044   6.374   6.488 -0.1467  1.3636 -0.3335
  909MOL0     H22654  -0.070   6.486   6.309 -1.8142 -0.0118  1.2372
  909MOL0     H22655  -0.030   6.352   6.211 -2.3729  0.7186 -1.1646
  909MOL0     H22656  -0.252   6.245   6.308  0.4952  0.0715  0.3212
  909MOL0     H22657  -0.278   6.401   6.376 -0.5309  0.2210 -0.8392
  909MOL0     H22658  -0.407   6.354   6.170 -0.1179 -0.4535  3.3869
  909MOL0     H22659  -0.331   6.517   6.195 -0.1154  0.1213  2.9604
  909MOL0     H22660  -0.290   6.469   5.978 -0.3074  0.0348  0.2860
  909MOL0     H22661  -0.139   6.401   6.049 -0.5403  2.8510  0.0898
  909MOL0     H22662  -0.253   6.178   6.072  3.3981  1.7201  1.7050
  909MOL0     H22663  -0.377   6.236   5.955  0.6300 -0.3996  1.2296
  909MOL0     H22664  -0.073   6.250   5.900 -0.9381  0.8028 -0.2416
  909MOL0     H22665  -0.206   6.315   5.803 -0.0109 -0.0636 -1.1312
  909MOL0     H22666  -0.367   6.112   5.675  0.6988  0.4948 -1.1843
  909MOL0     H22667  -0.292   5.839   5.505  1.1345  1.4711  0.6213
  909MOL0     H22668  -0.306   5.735   5.658 -0.2183 -0.2546  0.1141
  909MOL0     H22669  -0.526   5.742   5.551 -1.2698  0.3722 -0.8046
  909MOL0     H22670  -0.525   5.920   5.557 -1.0673 -1.0551  0.6834
  909MOL0     H22671  -0.495   5.934   5.785  1.5246 -1.2041  0.9820
  909MOL0     H22672  -0.485   5.764   5.813 -0.7482  1.1559  0.9092
  909MOL0     H22673  -0.709   5.793   5.651  0.9003 -0.2033 -0.9521
  909MOL0     H22674  -0.711   5.946   5.738  0.7776 -0.2802  2.3079
  909MOL0     H22675  -0.812   5.676   6.074  2.0308  1.2384 -0.0409
  909MOL0     H22676  -1.064   5.489   6.145  0.1921 -0.5531 -2.0893
  909MOL0     H22677  -0.954   5.611   6.225 -0.7070  0.2590 -0.0819
  909MOL0     H22678  -1.123   5.656   6.200  0.6060  0.9131 -0.1855
  909MOL0     H22679  -1.430   5.459   5.840 -1.3088 -1.0208 -0.9369
  909MOL0     H22680  -1.659   5.372   5.820 -3.2468  0.2436  1.4162
  909MOL0     H22681  -1.802   5.346   5.662 -1.2739 -2.4505  0.8739
  909MOL0     H22682  -1.955   5.339   5.739 -0.7094 -2.1394 -2.5216
  909MOL0     H22683  -2.048   5.467   5.594 -0.1437 -1.5306  0.6023
  909MOL0     H22684  -1.904   5.561   5.540 -2.7004  0.4090 -2.4247
  909MOL0     H22685  -1.841   5.317   5.439  0.7012  0.7386  1.9812
  909MOL0     H22686  -1.936   5.438   5.352  2.7382  1.6724  0.7025
  909MOL0     H22687  -2.069   5.217   5.521  0.4900 -1.3658 -1.2703
  909MOL0     H22688  -2.147   5.334   5.413 -1.4907 -2.8066 -0.3647
  909MOL0     H22689  -1.936   5.133   5.343  1.6716  1.2584 -2.7791
  909MOL0     H22690  -2.018   5.227   5.221 -0.2528  1.4927  0.6487
  909MOL0     H22691  -2.240   5.142   5.279  0.7642  1.4071 -0.8667
  909MOL0     H22692  -2.127   5.009   5.227  1.1122 -0.2562  1.8814
  909MOL0     H22693  -2.257   5.071   5.484  1.7705  0.2548  2.1386
  909MOL0     H22694  -2.102   4.986   5.494 -0.0458 -1.0634  0.2149
  909MOL0     H22695  -2.260   4.824   5.491 -3.1281  0.9599  0.4752
  909MOL0     H22696  -2.212   4.816   5.316  2.4748  0.9915  0.1268
  909MOL0     H22697  -1.796   5.773   5.767 -1.0388 -3.1583 -3.6995
  909MOL0     H22698  -1.555   5.866   5.817  2.7312  0.1622 -6.1148
  909MOL0     H22699  -1.151   5.772   5.727  0.9786  0.4952 -0.2395
  909MOL0     H22700  -0.933   5.857   5.718  1.4084 -1.2053  1.0739
  909MOL0     H22701  -0.008   5.878   6.467  3.3065 -0.8387  0.5763
  909MOL0     H22702   0.094   5.650   6.380  0.0722  0.6346  1.6119
  909MOL0     H22703   0.269   5.467   5.966 -1.8420  1.4704  4.2732
  909MOL0     H22704   0.379   5.272   5.880  1.3070 -2.1668  1.1398
  909MOL0     H22705   0.773   5.167   6.075 -0.8347  0.0268 -0.0821
  909MOL0     H22706   0.765   5.044   5.960 -1.0630 -0.0431 -0.2649
  909MOL0     H22707   0.862   5.128   5.793 -0.0989 -1.4836  0.1123
  909MOL0     H22708   0.948   5.228   5.916 -1.0606  0.9476  0.3070
  909MOL0     H22709   0.736   5.400   5.834  4.1840  3.3391 -0.1413
  909MOL0     H22710   0.762   5.296   5.692  0.7836 -0.3589 -0.5608
  909MOL0     H22711   0.916   5.473   5.657  3.4097  1.1812 -0.5685
  909MOL0     H22712   1.027   5.360   5.747  0.1051 -0.5380  1.8850
  909MOL0     H22713   1.005   5.685   6.023  0.5412 -0.5852  0.4638
  909MOL0     H22714   0.731   5.385   6.118 -0.3330  2.6518  1.2490
  909MOL0     H22715   0.602   5.562   6.205 -2.7354  1.3621 -0.0305
  910MOL0     O22716  11.187   9.956   7.144 -0.8245  0.5670  0.1148
  910MOL0     C22717  11.122   9.969   7.242  0.2958 -0.6046 -0.9217
  910MOL0     O22718  10.991  10.010   7.240 -0.3338 -1.5455  0.0177
  910MOL0     C22719  10.916  10.039   7.120  0.3944  0.3838 -0.7362
  910MOL0     C22720  10.962  10.104   7.009 -1.1171  1.1283 -0.3940
  910MOL0     C22721  10.873  10.143   6.904  0.7964  0.2087 -0.5391
  910MOL0     C22722  10.728  10.139   6.921 -0.3490 -0.5823  0.1647
  910MOL0     O22723  10.622  10.184   6.846  1.1272  0.5256  0.7808
  910MOL0     C22724  10.650  10.217   6.710 -0.5795  0.0346 -0.3448
  910MOL0     C22725  10.523  10.250   6.638  1.3794  0.1776  0.6298
  910MOL0     C22726  10.440  10.120   6.612  0.1305 -0.4361 -0.0114
  910MOL0     C22727  10.435  10.091   6.457  0.1966  0.6226 -0.0378
  910MOL0     C22728  10.336   9.976   6.426  0.1918 -0.0682  0.2713
  910MOL0     C22729  10.193  10.021   6.461 -0.9768  1.4401  0.1281
  910MOL0     C22730  10.095   9.920   6.390  0.5568  0.3689  0.8870
  910MOL0     C22731   9.956   9.985   6.391 -0.2218 -0.3980  0.8289
  910MOL0     N22732   9.879   9.899   6.304  0.5186  0.4327 -0.1532
  910MOL0     C22733   9.761   9.835   6.347 -0.2827  0.2660  0.2101
  910MOL0     C22734   9.709   9.782   6.227  0.4887 -0.0327  1.2765
  910MOL0     C22735   9.584   9.704   6.208  0.5703  0.2848 -0.5786
  910MOL0     C22736   9.600   9.560   6.172  0.5427  0.1749  0.1062
  910MOL0     C22737   9.469   9.482   6.187 -0.0433  0.9742 -0.2628
  910MOL0     C22738   9.380   9.479   6.057  0.4592  0.4184  0.0979
  910MOL0     O22739   9.279   9.382   6.060  0.6135 -0.4212 -0.5579
  910MOL0     C22740   9.162   9.398   6.132 -0.4259 -0.4564  0.3289
  910MOL0     C22741   9.115   9.511   6.192  0.6149 -1.0277 -0.3139
  910MOL0     C22742   8.986   9.523   6.234 -0.5558  0.8976 -0.9712
  910MOL0     C22743   8.934   9.650   6.286  0.1211 -0.2125 -0.1822
  910MOL0     C22744   8.905   9.400   6.245 -0.3105  0.1921  0.1176
  910MOL0     C22745   8.760   9.391   6.267  0.5169 -0.1362 -0.4630
  910MOL0     O22746   8.713   9.295   6.352  0.0922  0.5135  0.3677
  910MOL0     C22747   8.577   9.287   6.388 -0.0745 -0.0119 -0.8895
  910MOL0     C22748   8.481   9.211   6.324  1.0467  0.3325  0.0666
  910MOL0     C22749   8.355   9.194   6.374 -0.0522  0.4335 -0.1407
  910MOL0     C22750   8.312   9.270   6.478 -0.6369 -0.1675 -0.5782
  910MOL0     O22751   8.182   9.242   6.514 -0.1088  0.1996  0.9463
  910MOL0     C22752   8.139   9.307   6.639 -0.9058  0.2152  0.2535
  910MOL0     C22753   8.006   9.246   6.664  0.1802  0.7771 -0.2966
  910MOL0     C22754   7.895   9.272   6.558 -0.3062 -0.4643  0.3576
  910MOL0     C22755   7.761   9.233   6.621 -0.7028  0.0918 -0.3604
  910MOL0     C22756   7.650   9.262   6.531  0.2912  0.8764  0.1474
  910MOL0     C22757   7.514   9.253   6.603  0.5578 -0.4410  0.0357
  910MOL0     C22758   7.408   9.285   6.493  0.8435 -0.0897  0.4698
  910MOL0     C22759   7.266   9.255   6.542 -0.3096  0.8138 -0.8442
  910MOL0    Cl22760   7.156   9.233   6.407 -0.2523  0.1093  0.4238
  910MOL0     C22761   8.405   9.354   6.539 -0.4431 -0.7121  0.8354
  910MOL0     C22762   8.533   9.378   6.489 -0.0289 -0.3271  0.9691
  910MOL0     O22763   8.687   9.479   6.218 -0.0522  0.2067  0.2613
  910MOL0     C22764   8.964   9.277   6.200  0.3276 -0.5585  0.7963
  910MOL0     C22765   9.084   9.286   6.131  0.0777  0.6405  0.0979
  910MOL0     N22766   9.796   9.810   6.126  0.1919  0.9587  0.5091
  910MOL0     N22767   9.895   9.880   6.169  0.0059 -0.3302  0.5862
  910MOL0     C22768  10.690  10.095   7.046 -0.6763 -0.0198 -0.8368
  910MOL0     C22769  10.779  10.044   7.140 -0.5798  0.6302 -0.9176
  910MOL0     C22770  11.188   9.957   7.371 -0.8168  1.0801  0.1606
  910MOL0     C22771  11.286   9.863   7.394 -0.0221  0.5156 -0.2711
  910MOL0     C22772  11.334   9.833   7.528  0.4562 -0.5168  0.8726
  910MOL0     C22773  11.291   9.910   7.635  0.0182  0.4001  0.6972
  910MOL0     O22774  11.362   9.904   7.757 -0.5107  0.4236  0.4148
  910MOL0     C22775  11.334  10.006   7.861 -1.1679  0.0388 -0.1419
  910MOL0     C22776  11.428   9.976   7.980  0.4209  0.1548  0.2560
  910MOL0     C22777  11.409  10.076   8.093 -0.0636 -0.4918  0.8610
  910MOL0     C22778  11.510  10.056   8.208 -0.6960 -0.1175 -0.0733
  910MOL0     C22779  11.451  10.113   8.329  0.4908 -0.0506  0.2608
  910MOL0     C22780  11.401  10.165   8.424  0.5472 -0.7799 -0.1620
  910MOL0     C22781  11.190  10.008   7.611 -0.1138 -0.9347 -0.1454
  910MOL0     C22782  11.135  10.025   7.485  0.2164  0.2641  0.2804
  910MOL0     H22783  11.068  10.127   7.005 -0.8104  0.3900  2.1973
  910MOL0     H22784  10.911  10.184   6.811 -1.4567  0.8286 -1.2534
  910MOL0     H22785  10.721  10.300   6.708 -0.0158 -0.3802  1.0107
  910MOL0     H22786  10.687  10.122   6.670 -0.0213 -0.7808  1.9064
  910MOL0     H22787  10.460  10.311   6.704  0.8481  1.3927 -0.9227
  910MOL0     H22788  10.534  10.303   6.543  3.9480 -2.9675 -1.0271
  910MOL0     H22789  10.477  10.034   6.669 -0.5173 -0.4978  0.3264
  910MOL0     H22790  10.335  10.127   6.642 -1.0302 -1.5161 -3.3037
  910MOL0     H22791  10.408  10.183   6.404 -1.3352  1.7446  2.5044
  910MOL0     H22792  10.538  10.070   6.428  0.5568  0.9856  0.9268
  910MOL0     H22793  10.335   9.958   6.318 -1.7374 -2.1737  0.5504
  910MOL0     H22794  10.362   9.888   6.486 -0.9125  0.1715  1.1426
  910MOL0     H22795  10.153  10.038   6.562 -1.0825  0.1379  0.3169
  910MOL0     H22796  10.193  10.119   6.412  1.9752  0.2237 -2.5708
  910MOL0     H22797  10.127   9.911   6.286 -0.1286 -3.2451  0.8741
  910MOL0     H22798  10.092   9.827   6.447 -1.5566  0.3234  0.7815
  910MOL0     H22799   9.953  10.088   6.355 -2.6668 -0.9382 -0.7556
  910MOL0     H22800   9.908   9.991   6.489  0.7299  1.8074  1.2105
  910MOL0     H22801   9.716   9.828   6.446 -1.8241 -2.6677 -0.5826
  910MOL0     H22802   9.530   9.710   6.303  0.9527 -2.5187 -0.0849
  910MOL0     H22803   9.529   9.755   6.129  1.2328  2.4332  0.2784
  910MOL0     H22804   9.677   9.514   6.236  1.6813  2.4896  0.5211
  910MOL0     H22805   9.638   9.567   6.070  1.5241  1.0776  0.5111
  910MOL0     H22806   9.415   9.511   6.278  3.4477 -0.5202  2.5832
  910MOL0     H22807   9.500   9.381   6.219  1.4002  1.7111  0.7795
  910MOL0     H22808   9.443   9.470   5.969 -0.0870 -1.0595 -0.1707
  910MOL0     H22809   9.336   9.579   6.052  0.1036  0.3244  1.1235
  910MOL0     H22810   9.184   9.593   6.208  0.7351 -0.9432 -1.2116
  910MOL0     H22811   9.007   9.730   6.272  0.5701 -0.7067 -0.7046
  910MOL0     H22812   8.848   9.681   6.225 -0.3015 -1.3690 -0.2087
  910MOL0     H22813   8.899   9.639   6.389 -0.9252 -0.4902 -0.5462
  910MOL0     H22814   8.521   9.157   6.238  3.2372  0.4845  0.9408
  910MOL0     H22815   8.275   9.134   6.333 -0.4927  2.3968 -2.4052
  910MOL0     H22816   8.201   9.261   6.717 -2.8778 -2.1171  0.5491
  910MOL0     H22817   8.141   9.415   6.628  1.6696  0.3974  1.7009
  910MOL0     H22818   8.025   9.138   6.669 -0.9819  0.5298 -0.9399
  910MOL0     H22819   7.962   9.287   6.755 -0.4691  2.6814 -1.4160
  910MOL0     H22820   7.913   9.242   6.455  0.6201  0.8509  0.1064
  910MOL0     H22821   7.903   9.381   6.550 -0.7839  0.0752  4.6150
  910MOL0     H22822   7.768   9.125   6.638 -0.3598  0.1737  0.0343
  910MOL0     H22823   7.737   9.277   6.718  1.3099  2.9748 -1.0463
  910MOL0     H22824   7.651   9.198   6.442  1.0487  0.6216  0.3277
  910MOL0     H22825   7.654   9.360   6.483  0.7597  1.3211  1.0910
  910MOL0     H22826   7.500   9.147   6.627  1.3405 -0.6292 -0.3124
  910MOL0     H22827   7.511   9.318   6.691  0.7796  0.9730 -0.9817
  910MOL0     H22828   7.418   9.220   6.405  0.4957 -0.0297  0.3856
  910MOL0     H22829   7.404   9.389   6.460  1.3901 -0.4091 -0.6525
  910MOL0     H22830   7.242   9.340   6.607  0.2341  1.4679 -1.4715
  910MOL0     H22831   7.270   9.167   6.606  1.1577 -0.7040 -2.8772
  910MOL0     H22832   8.372   9.404   6.629  2.3604  2.3512  0.3670
  910MOL0     H22833   8.615   9.433   6.534  1.7932 -2.8413  0.9423
  910MOL0     H22834   8.907   9.184   6.209 -0.9049  0.2790  2.0664
  910MOL0     H22835   9.107   9.205   6.062 -0.7394  1.6790 -1.4617
  910MOL0     H22836  10.588  10.098   7.082  0.0208  0.3977  1.2819
  910MOL0     H22837  10.750  10.009   7.238  0.4983  0.9150 -0.4833
  910MOL0     H22838  11.322   9.794   7.319 -4.6997 -1.0842 -1.4167
  910MOL0     H22839  11.413   9.762   7.554 -0.3400 -0.3192  4.2503
  910MOL0     H22840  11.344  10.110   7.827 -0.9813  0.2657  0.5987
  910MOL0     H22841  11.231   9.996   7.895 -1.1156 -0.1112 -0.0308
  910MOL0     H22842  11.535   9.984   7.957  0.0579  3.3571 -0.8106
  910MOL0     H22843  11.394   9.878   8.014 -1.9786 -0.2727 -2.8786
  910MOL0     H22844  11.304  10.058   8.116  0.0557 -0.9811  1.0333
  910MOL0     H22845  11.417  10.172   8.042  1.0973 -0.4334  1.1223
  910MOL0     H22846  11.606  10.106   8.197 -0.8443  0.5552  1.5119
  910MOL0     H22847  11.520   9.948   8.220 -2.5440 -0.0332  3.2949
  910MOL0     H22848  11.344  10.201   8.507 -0.7066 -1.9073 -0.4939
  910MOL0     H22849  11.142  10.056   7.696 -2.0261 -1.4317 -0.8831
  910MOL0     H22850  11.047  10.088   7.481  0.6552  0.8576 -0.1842
  911MOL0     O22851   9.196   3.744   0.113  0.2538  0.5296 -0.6929
  911MOL0     C22852   9.279   3.831   0.101  0.0747  0.4274  0.2797
  911MOL0     O22853   9.393   3.824   0.028 -0.7181  0.0361 -0.5512
  911MOL0     C22854   9.512   3.845   0.097  0.6247 -0.3339  0.2752
  911MOL0     C22855   9.628   3.911   0.042  0.3898  0.9299  0.8206
  911MOL0     C22856   9.747   3.922   0.116  0.4285 -0.6566 -0.0916
  911MOL0     C22857   9.761   3.866   0.246  0.9974  0.6383  0.8651
  911MOL0     O22858   9.866   3.879   0.331 -0.2725  0.8982 -0.6486
  911MOL0     C22859  10.002   3.851   0.278 -0.4035  0.5003 -0.5641
  911MOL0     C22860  10.047   3.714   0.312  0.1051 -0.3091  0.3327
  911MOL0     C22861  10.181   3.676   0.249  0.2770 -1.5180 -0.4253
  911MOL0     C22862  10.310   3.732   0.304  0.1990 -0.7465 -0.2510
  911MOL0     C22863  10.421   3.708   0.197  0.2325  0.5866  0.0274
  911MOL0     C22864  10.564   3.725   0.254  1.4460  0.0317 -0.5950
  911MOL0     C22865  10.658   3.697   0.147  0.0868  0.2204  0.7486
  911MOL0     C22866  10.802   3.705   0.203  0.3267  0.3550 -0.3015
  911MOL0     N22867  10.899   3.664   0.098 -0.2144 -0.5226  0.5320
  911MOL0     C22868  10.948   3.741   0.006 -0.1217  0.1895  0.0281
  911MOL0     C22869  11.055   3.675  -0.045 -0.1620  0.1777  0.4042
  911MOL0     C22870  11.137   3.724  -0.161 -0.6387 -0.6487  0.7901
  911MOL0     C22871  11.285   3.743  -0.124 -0.5279 -0.9422 -0.2427
  911MOL0     C22872  11.370   3.616  -0.071  1.8589 -0.6296 -0.3418
  911MOL0     C22873  11.350   3.491  -0.167 -0.0175  0.0503  0.4519
  911MOL0     O22874  11.405   3.532  -0.288  0.8384 -0.7184  0.1649
  911MOL0     C22875  11.528   3.484  -0.324 -1.0624 -0.0265 -1.1469
  911MOL0     C22876  11.560   3.523  -0.450  0.4922 -0.2325 -0.2464
  911MOL0     C22877  11.675   3.470  -0.524  0.8674 -0.7223  0.1381
  911MOL0     C22878  11.701   3.514  -0.663  0.7525 -0.0910  0.2297
  911MOL0     C22879  11.774   3.389  -0.457  0.3161  0.3180  0.5884
  911MOL0     C22880  11.904   3.351  -0.518 -0.0013  0.5800  0.1621
  911MOL0     O22881  11.993   3.323  -0.422  0.0929 -0.0222  0.5421
  911MOL0     C22882  12.119   3.291  -0.458 -0.0482 -0.9792 -0.2751
  911MOL0     C22883  12.162   3.169  -0.515  0.6997 -0.1399 -0.5491
  911MOL0     C22884  12.298   3.135  -0.538 -0.9351  0.0548 -0.5755
  911MOL0     C22885  12.392   3.227  -0.487 -0.5175 -1.0233  0.5979
  911MOL0     O22886  12.528   3.215  -0.472  0.2316  0.0827  0.0847
  911MOL0     C22887  12.589   3.084  -0.469  0.7175  0.0047  0.0026
  911MOL0     C22888  12.688   3.072  -0.347  0.6764 -0.3566  0.8049
  911MOL0     C22889  12.806   2.981  -0.371  0.4737  0.3262 -0.2525
  911MOL0     C22890  12.891   2.978  -0.236 -1.1691  0.1843  0.2650
  911MOL0     C22891  13.032   2.922  -0.261  0.1239 -0.0213 -0.5789
  911MOL0     C22892  13.109   2.895  -0.133 -0.8566 -1.1074  1.4839
  911MOL0     C22893  13.116   3.011  -0.020  0.1808 -0.5353  0.5868
  911MOL0     C22894  13.169   2.971   0.116  0.0779 -0.0249 -0.2582
  911MOL0    Cl22895  13.056   2.874   0.217  0.2744 -0.6208  0.2249
  911MOL0     C22896  12.347   3.349  -0.425  0.0445 -0.3885 -0.3673
  911MOL0     C22897  12.214   3.386  -0.417  0.0102  0.3997 -0.0456
  911MOL0     O22898  11.912   3.330  -0.635 -0.4532 -0.2497  0.2134
  911MOL0     C22899  11.741   3.356  -0.329  0.7329 -0.0525  0.7675
  911MOL0     C22900  11.618   3.396  -0.258  0.4911 -0.2393 -0.4401
  911MOL0     N22901  11.064   3.553   0.009  0.0643  0.6246 -0.1494
  911MOL0     N22902  10.970   3.551   0.100 -0.0625  0.5367 -0.5525
  911MOL0     C22903   9.642   3.818   0.302 -0.5182 -1.1555 -0.3281
  911MOL0     C22904   9.528   3.808   0.226  0.5401 -0.2158 -0.0345
  911MOL0     C22905   9.250   3.954   0.162 -0.3711 -0.2414 -0.4097
  911MOL0     C22906   9.296   4.073   0.102 -0.5467 -0.2300  0.7222
  911MOL0     C22907   9.253   4.204   0.153  0.1013  0.5728  0.0132
  911MOL0     C22908   9.164   4.218   0.256 -1.0541  0.5274  0.1429
  911MOL0     O22909   9.126   4.343   0.304 -0.4991 -0.3147  0.5176
  911MOL0     C22910   8.982   4.371   0.297  0.1835  0.6678 -0.1710
  911MOL0     C22911   8.949   4.424   0.160 -0.0163 -0.2197 -1.1463
  911MOL0     C22912   9.036   4.538   0.100 -0.4307 -0.3279  0.3420
  911MOL0     C22913   8.981   4.631  -0.007 -0.3306  0.3326 -0.7725
  911MOL0     C22914   8.860   4.699   0.050 -0.5966  0.2192 -0.3493
  911MOL0     C22915   8.774   4.755   0.115 -0.0686 -0.0959  0.2875
  911MOL0     C22916   9.121   4.093   0.316  1.7720  0.9103 -0.5999
  911MOL0     C22917   9.162   3.969   0.276 -0.4508  1.2649  0.5542
  911MOL0     H22918   9.629   3.942  -0.063  4.4932 -4.6043 -1.2523
  911MOL0     H22919   9.831   3.980   0.081  2.2891 -1.6693  2.3967
  911MOL0     H22920  10.017   3.881   0.173  0.1804  0.6463 -0.4431
  911MOL0     H22921  10.065   3.917   0.339  1.0744 -0.9761 -0.4301
  911MOL0     H22922  10.046   3.705   0.421 -1.8962  2.4121  0.6599
  911MOL0     H22923   9.974   3.650   0.263 -0.9434  0.9246  0.2186
  911MOL0     H22924  10.181   3.568   0.268 -0.0221 -1.6085 -0.9295
  911MOL0     H22925  10.166   3.704   0.144 -1.5604 -0.0430  0.1550
  911MOL0     H22926  10.299   3.837   0.333  1.7319 -0.3622 -0.9784
  911MOL0     H22927  10.332   3.682   0.399  2.2218  2.2878  1.0121
  911MOL0     H22928  10.401   3.610   0.153  0.0200  0.3443  0.6652
  911MOL0     H22929  10.403   3.772   0.110 -0.2083 -0.1382 -0.4173
  911MOL0     H22930  10.581   3.828   0.288  2.4083 -0.6508  1.0913
  911MOL0     H22931  10.570   3.661   0.342 -0.3513  0.4887 -0.0866
  911MOL0     H22932  10.646   3.598   0.102  0.4758  0.2277  0.6259
  911MOL0     H22933  10.643   3.767   0.064 -0.3920 -2.3318 -1.4793
  911MOL0     H22934  10.804   3.633   0.286 -0.8145  1.6980  0.9721
  911MOL0     H22935  10.832   3.805   0.237  1.1957 -1.4807  5.4399
  911MOL0     H22936  10.912   3.838  -0.027  0.6821 -0.3870 -2.8405
  911MOL0     H22937  11.140   3.645  -0.236  3.0000  0.1979 -0.1816
  911MOL0     H22938  11.107   3.822  -0.200 -1.4043 -1.6635 -1.2660
  911MOL0     H22939  11.289   3.813  -0.039  0.0983 -2.5798  1.1366
  911MOL0     H22940  11.332   3.781  -0.215 -1.8005  2.6165  0.4049
  911MOL0     H22941  11.340   3.589   0.031  1.0756 -1.7470 -0.8454
  911MOL0     H22942  11.474   3.645  -0.084  1.1000  1.1395 -3.5799
  911MOL0     H22943  11.242   3.477  -0.178  0.2102 -0.9588 -0.8303
  911MOL0     H22944  11.385   3.395  -0.127  0.8605  0.7397  1.3861
  911MOL0     H22945  11.486   3.585  -0.499  0.8518  0.4814  0.0926
  911MOL0     H22946  11.633   3.593  -0.697 -3.6443 -3.6636 -0.1605
  911MOL0     H22947  11.801   3.557  -0.676  0.7023 -0.5261 -2.2093
  911MOL0     H22948  11.690   3.433  -0.735  1.2009 -1.5665  1.7672
  911MOL0     H22949  12.084   3.100  -0.545  0.1511 -0.5107  1.6112
  911MOL0     H22950  12.336   3.039  -0.573  2.7693  0.8804  0.6420
  911MOL0     H22951  12.516   3.004  -0.454  0.2356  0.5097  0.3454
  911MOL0     H22952  12.642   3.063  -0.563  0.6067 -1.5244  0.2548
  911MOL0     H22953  12.704   3.176  -0.317 -1.7966  1.4555 -3.3177
  911MOL0     H22954  12.632   3.022  -0.268 -1.6940 -0.6391 -0.9490
  911MOL0     H22955  12.867   3.015  -0.455 -0.0345 -3.7000 -2.4725
  911MOL0     H22956  12.771   2.882  -0.400  0.1857  0.9097 -2.0350
  911MOL0     H22957  12.901   3.084  -0.209 -2.1857  0.8959 -1.8877
  911MOL0     H22958  12.839   2.912  -0.165  2.7764 -3.6178 -0.0023
  911MOL0     H22959  13.073   2.996  -0.330 -1.3231  2.6231  1.2612
  911MOL0     H22960  13.032   2.819  -0.299 -2.5443 -2.0694  4.0782
  911MOL0     H22961  13.065   2.811  -0.078  2.7385 -2.2186  2.9534
  911MOL0     H22962  13.207   2.857  -0.163 -0.5352  1.1596 -0.6337
  911MOL0     H22963  13.013   3.042   0.003  0.4054 -1.8975  4.0870
  911MOL0     H22964  13.166   3.097  -0.065  3.2289 -2.5032 -0.0064
  911MOL0     H22965  13.197   3.060   0.173  2.6376 -2.4918  2.7204
  911MOL0     H22966  13.262   2.917   0.097  2.1765  3.5346 -0.9340
  911MOL0     H22967  12.407   3.417  -0.367 -1.4102 -1.5233  2.6999
  911MOL0     H22968  12.185   3.478  -0.368 -3.6029  0.0958 -1.3186
  911MOL0     H22969  11.824   3.296  -0.292  1.5792 -0.7574 -2.0353
  911MOL0     H22970  11.618   3.354  -0.158  1.1116 -0.3760 -0.4978
  911MOL0     H22971   9.627   3.786   0.404  2.9683 -1.0855  0.3369
  911MOL0     H22972   9.449   3.753   0.277 -0.3615 -1.1028 -2.2348
  911MOL0     H22973   9.349   4.079   0.008 -1.2856 -0.2727  0.3007
  911MOL0     H22974   9.298   4.287   0.099  1.7277  0.2253  0.7607
  911MOL0     H22975   8.931   4.275   0.312  2.0157 -0.4666 -0.7761
  911MOL0     H22976   8.959   4.437   0.380 -2.5547 -0.8194  0.3574
  911MOL0     H22977   8.849   4.467   0.175 -0.7725 -1.5849 -2.0179
  911MOL0     H22978   8.942   4.355   0.075 -0.1350 -0.8566 -0.6244
  911MOL0     H22979   9.111   4.476   0.050 -2.5053 -0.6273 -2.6611
  911MOL0     H22980   9.086   4.592   0.181  0.7963 -0.3263 -0.3779
  911MOL0     H22981   8.939   4.562  -0.082 -1.6140 -1.0228  1.1069
  911MOL0     H22982   9.049   4.704  -0.052 -2.3712  0.7567 -3.4501
  911MOL0     H22983   8.705   4.821   0.164 -3.6834  1.5466 -5.9392
  911MOL0     H22984   9.061   4.080   0.406  0.4834 -0.0530 -1.5721
  911MOL0     H22985   9.123   3.885   0.332 -0.5279  2.8960  3.0853
  912MOL0     O22986   5.616   3.961   4.473 -0.5618 -0.3695 -0.0125
  912MOL0     C22987   5.718   3.959   4.405  0.2396  0.3258  0.2468
  912MOL0     O22988   5.731   3.901   4.277  0.1654 -0.0593  0.0267
  912MOL0     C22989   5.635   3.824   4.225  0.5989  0.0158  0.6273
  912MOL0     C22990   5.500   3.869   4.195 -0.9049  0.8597  0.8932
  912MOL0     C22991   5.401   3.776   4.157  0.4688  0.1389  0.1532
  912MOL0     C22992   5.435   3.647   4.112 -0.1666  0.5632 -0.9986
  912MOL0     O22993   5.356   3.557   4.055  0.0626 -0.7515 -0.6359
  912MOL0     C22994   5.228   3.596   3.981  0.0220 -1.0656 -1.5400
  912MOL0     C22995   5.250   3.685   3.854  0.0759 -0.4550  0.4985
  912MOL0     C22996   5.278   3.603   3.727  0.5471  0.0559 -0.4584
  912MOL0     C22997   5.243   3.675   3.599 -0.1894 -0.3456 -0.1859
  912MOL0     C22998   5.273   3.592   3.471 -0.1946  0.9937 -0.1349
  912MOL0     C22999   5.226   3.679   3.346 -0.2091  1.1453  0.1341
  912MOL0     C23000   5.333   3.779   3.290  1.0859  0.5031 -0.8391
  912MOL0     C23001   5.351   3.796   3.138 -0.2242 -0.2823 -0.1896
  912MOL0     N23002   5.435   3.701   3.070 -0.1109 -0.3955 -0.2397
  912MOL0     C23003   5.388   3.580   3.026  0.2723 -0.0201 -0.8209
  912MOL0     C23004   5.498   3.512   2.986 -0.6612  0.2184  1.2007
  912MOL0     C23005   5.498   3.365   2.929  0.3217 -0.1237 -0.8969
  912MOL0     C23006   5.627   3.338   2.859 -0.1709 -0.3639 -0.3882
  912MOL0     C23007   5.738   3.288   2.965  0.6190 -0.7477  0.4265
  912MOL0     C23008   5.876   3.257   2.911  0.5505 -0.1246 -0.8330
  912MOL0     O23009   5.971   3.242   3.020  0.4890  0.1752  0.4930
  912MOL0     C23010   6.016   3.360   3.084  0.6284 -0.0004 -0.2917
  912MOL0     C23011   5.964   3.493   3.066  0.1747  0.8143 -0.5854
  912MOL0     C23012   6.012   3.608   3.132 -0.6656  0.2899  0.2097
  912MOL0     C23013   5.935   3.737   3.128 -0.6048 -0.3791  0.2742
  912MOL0     C23014   6.118   3.591   3.217 -0.2922  0.1130  0.9111
  912MOL0     C23015   6.172   3.694   3.302  0.2044 -0.8465 -0.0687
  912MOL0     O23016   6.199   3.660   3.437  1.3393  0.7034  1.1042
  912MOL0     C23017   6.246   3.750   3.531  0.7792  0.7783 -0.5127
  912MOL0     C23018   6.355   3.832   3.509  0.1947 -0.3325 -0.2333
  912MOL0     C23019   6.394   3.922   3.610  0.0496 -0.3005  1.2442
  912MOL0     C23020   6.326   3.932   3.730  0.8237 -0.5328  0.1042
  912MOL0     O23021   6.375   4.028   3.807 -0.0807  0.7074 -0.0584
  912MOL0     C23022   6.340   4.029   3.945 -0.1199 -0.0972  0.3100
  912MOL0     C23023   6.428   4.136   4.005 -0.8298 -0.3063 -0.4570
  912MOL0     C23024   6.414   4.153   4.148  0.6900  0.5374 -0.5189
  912MOL0     C23025   6.537   4.242   4.194 -0.7617  0.1030  0.6091
  912MOL0     C23026   6.528   4.263   4.342 -0.5630  0.1925  0.7466
  912MOL0     C23027   6.596   4.383   4.393 -0.3492 -0.8300 -0.8283
  912MOL0     C23028   6.746   4.340   4.409 -0.8179  0.1560  0.1875
  912MOL0     C23029   6.832   4.422   4.502 -0.0472  0.1795  0.7621
  912MOL0    Cl23030   6.852   4.588   4.459 -0.1696  0.3221  0.0587
  912MOL0     C23031   6.223   3.844   3.751  1.1074 -0.1335 -0.8926
  912MOL0     C23032   6.189   3.743   3.664 -0.6599  1.0180  0.6762
  912MOL0     O23033   6.183   3.809   3.258 -0.2186  0.5124 -0.2286
  912MOL0     C23034   6.173   3.462   3.241 -0.3216  0.6903 -1.0058
  912MOL0     C23035   6.114   3.348   3.179 -0.0046  0.3736  0.1105
  912MOL0     N23036   5.608   3.592   3.009  0.6812  0.8884  0.2580
  912MOL0     N23037   5.571   3.702   3.065  0.2905 -0.6878 -0.0179
  912MOL0     C23038   5.575   3.607   4.130  0.0212 -0.0982 -0.6132
  912MOL0     C23039   5.677   3.693   4.189  0.9942 -0.2997 -0.2798
  912MOL0     C23040   5.818   4.036   4.479  0.6418  0.2341  1.1269
  912MOL0     C23041   5.936   4.056   4.411 -0.0646  0.2142  0.6097
  912MOL0     C23042   6.041   4.117   4.470  0.4359 -0.2841 -0.2584
  912MOL0     C23043   6.035   4.172   4.601 -0.8708 -0.5332  0.7267
  912MOL0     O23044   6.152   4.228   4.659 -0.4592  0.6703 -0.8101
  912MOL0     C23045   6.158   4.213   4.802  0.2184 -0.1007  0.5738
  912MOL0     C23046   6.292   4.245   4.862 -0.2503  0.1458  0.0821
  912MOL0     C23047   6.395   4.144   4.839  0.2631  0.7899  0.5446
  912MOL0     C23048   6.455   4.134   4.695 -0.2017 -0.2843  0.1666
  912MOL0     C23049   6.585   4.060   4.710  0.0334  0.5069 -0.2430
  912MOL0     C23050   6.671   3.977   4.735 -0.9275  0.7058 -0.4146
  912MOL0     C23051   5.919   4.152   4.670  0.0103 -0.1635 -1.1324
  912MOL0     C23052   5.803   4.099   4.602  0.2661 -0.4271 -0.4715
  912MOL0     H23053   5.471   3.973   4.195 -2.5319  0.4466  0.1735
  912MOL0     H23054   5.296   3.802   4.151  0.6514  0.6885 -0.8318
  912MOL0     H23055   5.176   3.505   3.951  0.6983 -1.5011 -1.4093
  912MOL0     H23056   5.163   3.654   4.047  0.5517 -1.0351 -1.0317
  912MOL0     H23057   5.159   3.741   3.832 -0.1209  0.9253  4.0374
  912MOL0     H23058   5.333   3.756   3.860 -1.1040  1.2325 -1.5993
  912MOL0     H23059   5.384   3.576   3.729  1.0102  1.7785 -0.2779
  912MOL0     H23060   5.219   3.511   3.728  1.2478 -0.4093 -1.0905
  912MOL0     H23061   5.142   3.716   3.593  0.1432  0.4955 -0.2020
  912MOL0     H23062   5.302   3.767   3.601 -0.5993 -0.0557  2.6504
  912MOL0     H23063   5.380   3.579   3.456 -0.5899 -2.9960 -0.4836
  912MOL0     H23064   5.215   3.499   3.480 -0.0760  1.0876  2.2030
  912MOL0     H23065   5.216   3.598   3.272 -4.1249 -0.2317  1.8843
  912MOL0     H23066   5.133   3.736   3.357 -2.2924 -1.9870  0.2990
  912MOL0     H23067   5.306   3.874   3.335 -0.0596  0.4470 -1.3512
  912MOL0     H23068   5.435   3.767   3.327  0.3979 -1.0068  0.6908
  912MOL0     H23069   5.390   3.896   3.112 -1.1525 -0.2062 -1.3545
  912MOL0     H23070   5.249   3.797   3.099 -0.4647 -3.3102  0.1516
  912MOL0     H23071   5.282   3.555   3.023 -0.0093  1.2210 -2.2356
  912MOL0     H23072   5.460   3.287   2.996 -5.1786  1.1492 -2.0094
  912MOL0     H23073   5.414   3.367   2.858  1.0238 -1.1122 -1.7879
  912MOL0     H23074   5.660   3.429   2.809 -0.2442 -0.4447 -0.5837
  912MOL0     H23075   5.605   3.264   2.782 -3.0549 -1.0324  0.9483
  912MOL0     H23076   5.702   3.193   3.005 -1.7137 -0.0944  0.0113
  912MOL0     H23077   5.733   3.363   3.045 -2.1993  1.0681 -1.2887
  912MOL0     H23078   5.905   3.335   2.840  3.0889 -2.5565 -2.6904
  912MOL0     H23079   5.877   3.155   2.870 -1.3344 -0.6244  0.2233
  912MOL0     H23080   5.881   3.506   2.998 -1.0517 -0.8261  0.5070
  912MOL0     H23081   5.993   3.824   3.098  1.2698 -1.9413 -0.9202
  912MOL0     H23082   5.859   3.730   3.050  0.1371 -1.2467 -0.3966
  912MOL0     H23083   5.873   3.754   3.217 -0.2890  0.0263  0.4158
  912MOL0     H23084   6.414   3.837   3.418  1.3830  1.9494  0.5706
  912MOL0     H23085   6.488   3.975   3.598  1.4872 -2.4114  2.5436
  912MOL0     H23086   6.233   4.047   3.957  0.3532  1.4965  2.8340
  912MOL0     H23087   6.370   3.932   3.986  1.7941  0.2809 -0.0820
  912MOL0     H23088   6.530   4.111   3.975 -0.7965 -1.1273  0.2835
  912MOL0     H23089   6.402   4.229   3.954 -1.7095 -2.2371 -3.8672
  912MOL0     H23090   6.419   4.060   4.204  1.5677  1.2345  0.6022
  912MOL0     H23091   6.314   4.197   4.156  0.6003  0.5241 -1.4292
  912MOL0     H23092   6.634   4.200   4.165 -1.5730 -0.9204 -0.6836
  912MOL0     H23093   6.527   4.342   4.151 -4.2454  0.2731  1.5749
  912MOL0     H23094   6.566   4.182   4.405 -2.0206 -0.7252  0.4914
  912MOL0     H23095   6.424   4.273   4.375  0.4012 -0.0056  4.2600
  912MOL0     H23096   6.592   4.462   4.317  3.2040  2.3448  1.8990
  912MOL0     H23097   6.564   4.425   4.489  2.4243 -0.2358 -0.0748
  912MOL0     H23098   6.785   4.339   4.307  1.2676  2.6176  0.8740
  912MOL0     H23099   6.761   4.240   4.451  1.8610 -0.1604 -1.3330
  912MOL0     H23100   6.937   4.390   4.502  1.2518  3.9562  0.9589
  912MOL0     H23101   6.800   4.407   4.606  1.6225 -0.9788  1.1400
  912MOL0     H23102   6.170   3.852   3.846 -1.9281  1.4369 -2.5716
  912MOL0     H23103   6.129   3.655   3.685  0.8517  0.0830  1.2199
  912MOL0     H23104   6.247   3.442   3.317  0.3298  0.9874 -1.5551
  912MOL0     H23105   6.148   3.246   3.196  1.5512  0.7114 -0.8245
  912MOL0     H23106   5.617   3.510   4.106 -0.4113 -0.1465 -1.1807
  912MOL0     H23107   5.782   3.664   4.193  0.9810 -0.3153  0.0366
  912MOL0     H23108   5.956   4.007   4.316 -0.4960 -0.7877  1.0239
  912MOL0     H23109   6.138   4.128   4.422  1.5609 -0.6266  1.8347
  912MOL0     H23110   6.084   4.282   4.845 -0.0732 -1.3970  2.2558
  912MOL0     H23111   6.128   4.110   4.824 -1.2538 -0.0806 -1.1362
  912MOL0     H23112   6.279   4.263   4.969 -0.2904  1.2704 -0.1001
  912MOL0     H23113   6.313   4.344   4.819  0.7176 -0.3602 -0.6570
  912MOL0     H23114   6.347   4.047   4.855  2.6554 -0.7556 -1.0257
  912MOL0     H23115   6.472   4.160   4.915  1.6432  0.6840 -0.7708
  912MOL0     H23116   6.476   4.234   4.656 -1.4015 -0.6013 -1.4029
  912MOL0     H23117   6.396   4.077   4.622  2.9252 -1.7735 -1.3895
  912MOL0     H23118   6.755   3.915   4.758 -0.7277  0.8272 -0.8180
  912MOL0     H23119   5.902   4.155   4.778 -2.6974 -4.0437 -1.2159
  912MOL0     H23120   5.715   4.097   4.666 -1.4236  2.5690 -2.4827
  913MOL0     O23121   3.693   0.438   8.433 -0.2953 -0.0656  0.4607
  913MOL0     C23122   3.642   0.366   8.519  0.4055  0.4855 -0.4753
  913MOL0     O23123   3.540   0.281   8.492  0.2750 -0.5864  0.2000
  913MOL0     C23124   3.465   0.305   8.373 -0.6904  0.9877  0.9301
  913MOL0     C23125   3.336   0.336   8.380  0.0106 -0.0972  0.1428
  913MOL0     C23126   3.253   0.330   8.267 -0.6935  0.8618  0.0943
  913MOL0     C23127   3.300   0.291   8.138  0.8204 -0.5081  0.1084
  913MOL0     O23128   3.224   0.266   8.026 -0.7674  0.4180  0.4311
  913MOL0     C23129   3.092   0.214   8.048 -0.0320 -0.7815  1.2455
  913MOL0     C23130   3.107   0.059   8.071 -0.7274  0.4347 -0.1826
  913MOL0     C23131   2.983  -0.021   8.051 -0.1864 -0.0377 -0.0470
  913MOL0     C23132   3.011  -0.163   8.011  0.2497  0.2222 -0.0136
  913MOL0     C23133   2.884  -0.237   7.979 -0.1264  0.0650 -0.0227
  913MOL0     C23134   2.772  -0.254   8.081 -0.0099 -0.4579  0.3694
  913MOL0     C23135   2.820  -0.334   8.199 -0.9131  0.9332  0.2249
  913MOL0     C23136   2.710  -0.340   8.310 -0.8575 -0.1460  0.3353
  913MOL0     N23137   2.733  -0.445   8.412  0.0385 -0.0954  0.2309
  913MOL0     C23138   2.737  -0.573   8.376 -0.3638  0.3204  0.3515
  913MOL0     C23139   2.786  -0.639   8.480  0.3095  0.2848 -0.2562
  913MOL0     C23140   2.817  -0.781   8.474 -0.2492 -0.2651 -0.9562
  913MOL0     C23141   2.950  -0.821   8.547  0.5655  0.1734  0.7542
  913MOL0     C23142   2.951  -0.808   8.696 -0.9986 -0.2675 -0.5588
  913MOL0     C23143   3.100  -0.784   8.749 -0.4134 -0.6695 -0.3546
  913MOL0     O23144   3.120  -0.850   8.878 -0.3365 -0.1017  0.4426
  913MOL0     C23145   3.202  -0.956   8.888  0.0622 -0.1082 -0.5221
  913MOL0     C23146   3.261  -1.035   8.787 -0.4943  0.2736  0.1262
  913MOL0     C23147   3.350  -1.144   8.823 -0.3715 -0.2296 -0.0112
  913MOL0     C23148   3.426  -1.216   8.719  0.1250  0.4914  0.4323
  913MOL0     C23149   3.372  -1.173   8.965 -0.2116 -0.3622 -0.1964
  913MOL0     C23150   3.471  -1.276   9.020  0.3132  0.3130 -0.1753
  913MOL0     O23151   3.506  -1.252   9.151 -0.3421  0.0958 -0.7535
  913MOL0     C23152   3.573  -1.344   9.231 -0.1194 -0.2927  0.9583
  913MOL0     C23153   3.573  -1.481   9.212 -0.4685  0.5904 -0.1587
  913MOL0     C23154   3.637  -1.570   9.292  0.0912 -0.2988 -0.2112
  913MOL0     C23155   3.706  -1.515   9.403  0.9451 -0.0644  0.7464
  913MOL0     O23156   3.775  -1.578   9.494 -0.2309  0.5359  0.3749
  913MOL0     C23157   3.775  -1.721   9.487  0.9288  0.4744 -0.9867
  913MOL0     C23158   3.821  -1.792   9.620 -0.6598  0.4923  0.2531
  913MOL0     C23159   3.847  -1.949   9.602  0.4572 -0.7878  0.2725
  913MOL0     C23160   3.713  -2.013   9.600  0.3284 -0.5831  0.4097
  913MOL0     C23161   3.719  -2.165   9.612  0.5192 -1.1261  0.5536
  913MOL0     C23162   3.793  -2.217   9.742 -0.3222  0.1967  0.2841
  913MOL0     C23163   3.811  -2.368   9.735  0.3619  0.1161  0.6611
  913MOL0     C23164   3.869  -2.436   9.863 -0.6904  0.4117  0.2910
  913MOL0    Cl23165   3.757  -2.571   9.898 -0.2039  0.0323 -0.0520
  913MOL0     C23166   3.713  -1.381   9.427  0.7677  0.0910  0.6719
  913MOL0     C23167   3.647  -1.284   9.338 -0.5344  0.7925  0.7570
  913MOL0     O23168   3.506  -1.365   8.948  0.7361  0.5002 -0.1219
  913MOL0     C23169   3.287  -1.109   9.064  0.6995 -0.3101  0.8316
  913MOL0     C23170   3.214  -1.000   9.027  0.1006 -0.7245  1.0053
  913MOL0     N23171   2.777  -0.557   8.586  0.1745 -0.0737  1.2837
  913MOL0     N23172   2.758  -0.434   8.540  0.5870  0.3396 -0.2519
  913MOL0     C23173   3.436   0.261   8.130 -0.1790  0.4619  0.3976
  913MOL0     C23174   3.517   0.264   8.249  0.3886  0.4862 -0.0694
  913MOL0     C23175   3.691   0.342   8.660  0.2423  0.9290 -0.0560
  913MOL0     C23176   3.613   0.279   8.756 -0.5444 -0.8312  0.0742
  913MOL0     C23177   3.668   0.253   8.884  0.1342 -0.3384  0.7611
  913MOL0     C23178   3.797   0.311   8.923 -0.4848 -0.0536  0.7308
  913MOL0     O23179   3.834   0.301   9.052 -0.1081 -0.5687  0.5502
  913MOL0     C23180   3.794   0.406   9.144  0.9693  1.1323  0.2495
  913MOL0     C23181   3.840   0.395   9.286 -0.4736 -0.1738 -0.5190
  913MOL0     C23182   3.876   0.250   9.323 -0.6949  0.3912 -0.1208
  913MOL0     C23183   3.841   0.215   9.465 -0.0187 -0.0855  0.7814
  913MOL0     C23184   3.918   0.302   9.556 -0.3879 -0.1042 -0.8683
  913MOL0     C23185   3.992   0.354   9.641 -0.0115  0.1738  0.8841
  913MOL0     C23186   3.875   0.369   8.824  0.4398 -0.4771  0.3344
  913MOL0     C23187   3.830   0.374   8.688  0.8941 -0.4195 -0.5548
  913MOL0     H23188   3.296   0.371   8.475 -0.5343 -1.2317  0.3492
  913MOL0     H23189   3.149   0.354   8.284 -1.0888  0.7000 -1.9009
  913MOL0     H23190   3.037   0.267   8.127 -1.0490 -1.5068  1.0420
  913MOL0     H23191   3.039   0.230   7.954  0.0320  1.0526  1.4957
  913MOL0     H23192   3.182   0.025   7.999  0.1840 -1.9403  1.7273
  913MOL0     H23193   3.144   0.035   8.171  0.0846 -0.5720 -0.7078
  913MOL0     H23194   2.929  -0.035   8.146  0.1971 -0.2427  0.1419
  913MOL0     H23195   2.921   0.035   7.981  0.9712  1.6662  0.2399
  913MOL0     H23196   3.092  -0.162   7.938  1.7197  1.7664  1.5173
  913MOL0     H23197   3.061  -0.199   8.102  1.5829  0.0704 -0.7743
  913MOL0     H23198   2.840  -0.177   7.898 -1.3898  1.6731  1.7718
  913MOL0     H23199   2.906  -0.332   7.930  3.9834  1.9942 -2.4860
  913MOL0     H23200   2.725  -0.163   8.119 -0.4324 -0.6118  0.2219
  913MOL0     H23201   2.696  -0.313   8.029  1.5527 -3.9390  1.7306
  913MOL0     H23202   2.828  -0.437   8.162  3.0531  0.2603  2.4370
  913MOL0     H23203   2.913  -0.295   8.242 -0.8881 -1.0324  2.1085
  913MOL0     H23204   2.609  -0.338   8.269 -0.8826  0.9055  0.4314
  913MOL0     H23205   2.714  -0.245   8.363  2.0341 -1.3596  2.5084
  913MOL0     H23206   2.739  -0.616   8.277 -1.3692 -1.8064  1.1889
  913MOL0     H23207   2.730  -0.843   8.499 -0.8572 -0.7956 -4.0076
  913MOL0     H23208   2.835  -0.804   8.369  1.8111 -0.1125 -0.6802
  913MOL0     H23209   3.029  -0.764   8.497 -0.6919 -1.3869 -3.4557
  913MOL0     H23210   2.962  -0.926   8.517 -1.1342  1.0226 -3.6803
  913MOL0     H23211   2.906  -0.903   8.728  1.9601 -2.3623 -2.1811
  913MOL0     H23212   2.886  -0.736   8.747 -0.2403  0.2700 -0.3369
  913MOL0     H23213   3.121  -0.677   8.762 -3.2465  0.0791 -1.1967
  913MOL0     H23214   3.173  -0.819   8.675  2.3246  0.8102  1.4934
  913MOL0     H23215   3.255  -1.006   8.683  2.2938 -1.5061 -0.6302
  913MOL0     H23216   3.535  -1.205   8.725  0.3868 -0.5124 -1.6608
  913MOL0     H23217   3.416  -1.324   8.735  0.3602  0.9672  4.8039
  913MOL0     H23218   3.392  -1.194   8.617 -3.2657 -3.6857  0.3988
  913MOL0     H23219   3.516  -1.531   9.135 -0.7247 -1.2637  1.1579
  913MOL0     H23220   3.627  -1.675   9.264  0.4643 -1.4413  3.4488
  913MOL0     H23221   3.680  -1.767   9.459  1.6050 -3.3589  2.1318
  913MOL0     H23222   3.853  -1.751   9.416  1.1228  0.8083 -0.9155
  913MOL0     H23223   3.921  -1.752   9.642  0.0117 -0.1687 -1.4382
  913MOL0     H23224   3.760  -1.780   9.709 -0.0077 -1.1056  0.9591
  913MOL0     H23225   3.910  -1.996   9.678  1.0561  1.6358  1.3653
  913MOL0     H23226   3.900  -1.957   9.507 -1.3616  1.3268 -1.0364
  913MOL0     H23227   3.661  -1.976   9.689 -3.0564  0.5410 -1.8341
  913MOL0     H23228   3.644  -1.985   9.520  2.3773  1.3093 -0.7958
  913MOL0     H23229   3.778  -2.198   9.526  1.5368  1.5984  0.0827
  913MOL0     H23230   3.617  -2.205   9.607  1.1533 -2.8471  0.8599
  913MOL0     H23231   3.895  -2.183   9.761  0.2170 -0.5120 -1.1619
  913MOL0     H23232   3.725  -2.189   9.822 -1.0503  0.5648 -0.4431
  913MOL0     H23233   3.883  -2.383   9.654 -0.8322 -0.6881 -0.2910
  913MOL0     H23234   3.711  -2.408   9.719  0.8281 -1.2615  1.0087
  913MOL0     H23235   3.874  -2.363   9.945  2.4694  0.9241 -0.2382
  913MOL0     H23236   3.974  -2.461   9.844 -0.2464  0.5483  2.3430
  913MOL0     H23237   3.780  -1.354   9.508 -0.8454  0.4521  1.9317
  913MOL0     H23238   3.660  -1.177   9.353  0.2226  0.6305  1.3392
  913MOL0     H23239   3.299  -1.125   9.171  1.1480 -0.3223  0.7803
  913MOL0     H23240   3.150  -0.939   9.089  0.4499 -0.8556  1.5026
  913MOL0     H23241   3.481   0.219   8.041 -0.0748 -1.2369  1.2085
  913MOL0     H23242   3.622   0.236   8.245 -0.0833 -1.3935 -4.4159
  913MOL0     H23243   3.512   0.245   8.737 -1.0226 -0.0187  1.0079
  913MOL0     H23244   3.601   0.212   8.959 -0.6395  0.6377  0.6187
  913MOL0     H23245   3.834   0.497   9.097  0.2645  0.7134 -1.2254
  913MOL0     H23246   3.686   0.421   9.142  0.9514  1.0111  0.3157
  913MOL0     H23247   3.758   0.424   9.353  0.9173  1.5689  0.5068
  913MOL0     H23248   3.916   0.471   9.305  0.5281 -0.9932 -1.1787
  913MOL0     H23249   3.983   0.235   9.308 -0.4004  1.5371  0.7045
  913MOL0     H23250   3.822   0.182   9.255 -2.0055  1.8967 -0.6385
  913MOL0     H23251   3.862   0.109   9.482  0.7758 -0.0929 -0.1405
  913MOL0     H23252   3.736   0.237   9.486 -1.0437 -2.6572 -1.1481
  913MOL0     H23253   4.059   0.387   9.717 -2.7757  2.2930  2.6205
  913MOL0     H23254   3.977   0.400   8.844  2.5042 -6.2224  0.5438
  913MOL0     H23255   3.895   0.409   8.608  3.5129  0.0502  1.6296
  914MOL0     O23256   3.594  10.196   8.220  0.9963 -0.5194  0.8112
  914MOL0     C23257   3.517  10.137   8.145 -0.4113  0.0217  0.0211
  914MOL0     O23258   3.556  10.046   8.057 -0.4629 -0.0081 -0.2330
  914MOL0     C23259   3.695  10.025   8.033 -0.1157  0.6450  0.0370
  914MOL0     C23260   3.766  10.118   7.955  0.0158  0.2821 -0.0646
  914MOL0     C23261   3.896  10.081   7.915  0.3180 -0.2090  0.0467
  914MOL0     C23262   3.952   9.963   7.955  0.0394  0.1522  0.1165
  914MOL0     O23263   4.076   9.941   7.890 -0.1529 -0.5391  0.1670
  914MOL0     C23264   4.130   9.814   7.936 -0.3533 -0.4080 -0.5461
  914MOL0     C23265   4.266   9.787   7.861 -0.1529 -1.0120  0.5411
  914MOL0     C23266   4.341   9.663   7.904  0.1643  0.4143 -0.5266
  914MOL0     C23267   4.438   9.626   7.796 -0.6760  0.1082 -0.4407
  914MOL0     C23268   4.539   9.529   7.826  0.1798  0.0378  0.5786
  914MOL0     C23269   4.649   9.570   7.926 -1.1562 -0.7712 -0.5956
  914MOL0     C23270   4.762   9.467   7.927 -0.0282 -0.0984  0.7381
  914MOL0     C23271   4.863   9.485   7.810  0.1445  0.7031  0.6503
  914MOL0     N23272   4.969   9.392   7.805  0.4298  0.0293  0.3675
  914MOL0     C23273   5.057   9.360   7.908  0.2705  0.7060 -0.2976
  914MOL0     C23274   5.129   9.258   7.858 -0.1497 -0.2676  1.3526
  914MOL0     C23275   5.225   9.168   7.921  0.4225  0.0256 -1.3333
  914MOL0     C23276   5.144   9.071   8.003  0.5259 -0.5696  0.3362
  914MOL0     C23277   5.221   8.952   8.073 -0.2578  0.3574  0.5247
  914MOL0     C23278   5.357   8.976   8.149 -0.1945 -0.5355  0.0024
  914MOL0     O23279   5.337   9.001   8.295 -0.1609 -1.0123  0.2998
  914MOL0     C23280   5.447   9.037   8.367  0.2863 -0.6193 -0.0415
  914MOL0     C23281   5.585   9.026   8.326  0.4851  1.5053  0.4089
  914MOL0     C23282   5.687   9.074   8.409 -0.8387  0.0575  0.5689
  914MOL0     C23283   5.823   9.063   8.342 -0.0748 -0.4899  0.2503
  914MOL0     C23284   5.661   9.123   8.540  0.1160  0.1881 -0.2554
  914MOL0     C23285   5.763   9.168   8.635 -0.6261  0.1997  0.7986
  914MOL0     O23286   5.720   9.257   8.731 -0.3726 -0.1670  0.2229
  914MOL0     C23287   5.811   9.325   8.809 -1.3916  1.1108 -0.0774
  914MOL0     C23288   5.791   9.335   8.947 -0.0578  0.6737 -0.5523
  914MOL0     C23289   5.888   9.396   9.026 -0.4657  0.0969 -0.4359
  914MOL0     C23290   6.003   9.450   8.971 -0.9749  0.5238 -0.0170
  914MOL0     O23291   6.115   9.496   9.036 -0.6199  0.6684  0.1128
  914MOL0     C23292   6.116   9.499   9.180 -0.5876 -0.3538 -0.9271
  914MOL0     C23293   6.034   9.618   9.241 -0.0297  0.3146 -0.1051
  914MOL0     C23294   6.061   9.640   9.388  0.4366 -0.4617 -0.0476
  914MOL0     C23295   5.971   9.547   9.479 -0.9391 -0.0057  0.3023
  914MOL0     C23296   5.943   9.609   9.616  0.0085 -0.0158 -0.8732
  914MOL0     C23297   6.071   9.604   9.705 -0.2044 -0.4049  0.5239
  914MOL0     C23298   6.036   9.629   9.846  0.1779 -0.0897  0.1876
  914MOL0     C23299   6.145   9.621   9.937 -0.4170 -0.5858 -0.0584
  914MOL0    Cl23300   6.274   9.740   9.894 -0.1995  0.2779  0.1816
  914MOL0     C23301   6.016   9.447   8.833 -0.2507 -0.4016 -0.4575
  914MOL0     C23302   5.921   9.383   8.751 -0.4337 -1.1412 -0.0851
  914MOL0     O23303   5.875   9.118   8.625 -1.2796  0.7353  0.0627
  914MOL0     C23304   5.527   9.127   8.585 -0.0110 -0.2058  0.4319
  914MOL0     C23305   5.423   9.087   8.499  0.1955 -1.0232 -0.2455
  914MOL0     N23306   5.079   9.222   7.732  0.4978 -0.8843 -0.0895
  914MOL0     N23307   4.990   9.313   7.698 -0.7259  1.4180  0.4273
  914MOL0     C23308   3.882   9.878   8.045  0.9442  0.2240  0.1612
  914MOL0     C23309   3.755   9.908   8.083  0.5024  0.0706  0.5180
  914MOL0     C23310   3.373  10.159   8.165  0.6980  0.1258  0.2581
  914MOL0     C23311   3.271  10.142   8.064 -0.2827 -0.1911 -0.1661
  914MOL0     C23312   3.138  10.166   8.100 -0.1139  0.3619  2.2406
  914MOL0     C23313   3.096  10.203   8.221  0.0096  1.2491 -0.0792
  914MOL0     O23314   2.969  10.218   8.267 -0.1743 -0.4115 -0.6678
  914MOL0     C23315   2.859  10.179   8.187  0.0480  0.2041 -0.4827
  914MOL0     C23316   2.826  10.296   8.096 -0.0634  0.5960 -0.5625
  914MOL0     C23317   2.768  10.414   8.170  0.3991  0.1866  0.3696
  914MOL0     C23318   2.718  10.524   8.077 -0.0179  0.3697  0.7885
  914MOL0     C23319   2.611  10.611   8.141 -0.4342  0.5245  0.9297
  914MOL0     C23320   2.539  10.682   8.194  0.2035 -0.4768 -0.0546
  914MOL0     C23321   3.201  10.224   8.317  0.5601 -0.2612 -0.1459
  914MOL0     C23322   3.334  10.211   8.286  0.0874 -0.2886  0.6381
  914MOL0     H23323   3.725  10.216   7.934 -0.1398  1.1718  3.6936
  914MOL0     H23324   3.956  10.146   7.852  0.6234 -2.0896 -1.6726
  914MOL0     H23325   4.158   9.815   8.042  0.5550 -2.1291 -0.7400
  914MOL0     H23326   4.068   9.727   7.912  3.2511 -3.2203 -0.4632
  914MOL0     H23327   4.243   9.790   7.754 -0.7091 -3.0932  0.5516
  914MOL0     H23328   4.332   9.871   7.884 -2.4685  1.8964 -2.4676
  914MOL0     H23329   4.396   9.687   7.996 -3.6876  2.1400  1.5570
  914MOL0     H23330   4.279   9.581   7.940  1.5868  0.5391  2.5447
  914MOL0     H23331   4.373   9.581   7.720 -0.6538  0.1497 -0.4848
  914MOL0     H23332   4.480   9.721   7.761 -2.0220 -0.0344 -2.6885
  914MOL0     H23333   4.493   9.446   7.879 -1.0188  1.7141  2.2899
  914MOL0     H23334   4.578   9.496   7.729 -4.2819  2.1644 -2.2583
  914MOL0     H23335   4.694   9.661   7.884 -0.1281 -1.6083 -1.3691
  914MOL0     H23336   4.609   9.587   8.026  1.4607  0.7829  0.2924
  914MOL0     H23337   4.818   9.499   8.016 -0.2564  1.6230  0.2939
  914MOL0     H23338   4.720   9.367   7.940  3.1497 -1.6112  0.3374
  914MOL0     H23339   4.905   9.586   7.808  1.4848  0.1854  1.2239
  914MOL0     H23340   4.816   9.465   7.713  3.0896  0.1837 -0.7976
  914MOL0     H23341   5.060   9.393   8.011 -0.4867  3.0245 -0.9549
  914MOL0     H23342   5.277   9.110   7.844  0.1262 -2.7913  0.4127
  914MOL0     H23343   5.301   9.223   7.977  1.2143 -2.2692 -0.0124
  914MOL0     H23344   5.053   9.028   7.962  1.2671 -0.3315 -1.6554
  914MOL0     H23345   5.097   9.134   8.080  1.4932  1.4002 -0.6063
  914MOL0     H23346   5.242   8.876   7.997 -2.1979 -1.0682  1.3322
  914MOL0     H23347   5.151   8.919   8.150 -0.7891  2.2530  0.9097
  914MOL0     H23348   5.409   9.056   8.095 -0.5920 -0.5638 -0.4339
  914MOL0     H23349   5.419   8.886   8.148  1.3740  0.5165 -0.4403
  914MOL0     H23350   5.609   8.990   8.226  1.3015  0.9752  0.7891
  914MOL0     H23351   5.864   9.165   8.342  0.8686 -0.8587 -0.0453
  914MOL0     H23352   5.892   9.006   8.404  1.8663  1.9054  0.4618
  914MOL0     H23353   5.831   9.023   8.241  0.6505  1.6401 -0.6019
  914MOL0     H23354   5.711   9.277   8.992  1.9806 -0.9503  1.2224
  914MOL0     H23355   5.878   9.383   9.134 -0.2813 -3.3031 -0.7205
  914MOL0     H23356   6.080   9.406   9.225  2.3438 -1.0632  0.2003
  914MOL0     H23357   6.219   9.500   9.217 -1.0148 -3.9330  0.7377
  914MOL0     H23358   6.069   9.705   9.184 -0.4840 -1.3224 -3.0841
  914MOL0     H23359   5.930   9.597   9.217 -0.4319 -1.2329  2.5773
  914MOL0     H23360   6.026   9.742   9.403  0.0640 -0.8056  1.5833
  914MOL0     H23361   6.166   9.640   9.419  0.1733 -4.3425  1.4247
  914MOL0     H23362   5.871   9.546   9.434  0.0519  0.9787 -2.0757
  914MOL0     H23363   6.015   9.447   9.485 -1.4123 -0.2126  0.3923
  914MOL0     H23364   5.871   9.539   9.658 -2.4968  2.0427 -1.4939
  914MOL0     H23365   5.899   9.709   9.617 -0.0165 -0.0088 -1.5887
  914MOL0     H23366   6.120   9.506   9.702  0.3592 -0.1091 -0.2910
  914MOL0     H23367   6.147   9.668   9.659 -1.4424 -0.5617 -1.9594
  914MOL0     H23368   5.981   9.540   9.876  1.3210 -0.3380  1.7096
  914MOL0     H23369   5.983   9.724   9.864  3.1431  1.8556 -0.6103
  914MOL0     H23370   6.187   9.522   9.956  0.3007  0.3002  4.0374
  914MOL0     H23371   6.107   9.649  10.036  0.2384 -0.1665  0.0865
  914MOL0     H23372   6.104   9.491   8.787  1.0165 -1.2701  1.0398
  914MOL0     H23373   5.933   9.385   8.643  3.8634 -1.4723  0.1961
  914MOL0     H23374   5.499   9.164   8.683  1.6174  3.5098 -0.3005
  914MOL0     H23375   5.319   9.093   8.531  0.5612  4.2190  0.8309
  914MOL0     H23376   3.934   9.794   8.090 -0.0702  1.3632  3.7718
  914MOL0     H23377   3.695   9.833   8.134  1.7083  0.0434  1.9964
  914MOL0     H23378   3.294  10.108   7.963  4.6336  1.8372  0.0123
  914MOL0     H23379   3.067  10.168   8.018  0.9530  1.4737  1.3061
  914MOL0     H23380   2.872  10.090   8.125  1.0238 -0.4033  0.5427
  914MOL0     H23381   2.768  10.165   8.246  0.2840  0.1089 -0.1374
  914MOL0     H23382   2.763  10.277   8.009 -0.2278 -1.5840 -0.0105
  914MOL0     H23383   2.920  10.318   8.044  0.9998 -1.1915  0.4850
  914MOL0     H23384   2.842  10.450   8.243  0.7654  0.5270 -0.1651
  914MOL0     H23385   2.680  10.375   8.221  0.6796  0.1458  0.8254
  914MOL0     H23386   2.694  10.470   7.985 -0.4917  2.1984 -0.2110
  914MOL0     H23387   2.805  10.587   8.054 -1.0466  1.0802 -1.4534
  914MOL0     H23388   2.466  10.749   8.235 -0.6046 -1.8713  0.8767
  914MOL0     H23389   3.176  10.232   8.423  3.2367  1.2139  0.4675
  914MOL0     H23390   3.403  10.211   8.370  0.5530 -1.2317  0.2739
  915MOL0     O23391   3.700   5.057   4.018  0.5364 -0.0018 -0.6828
  915MOL0     C23392   3.770   5.154   4.046 -0.2171 -0.8038 -0.6495
  915MOL0     O23393   3.845   5.165   4.165  0.1037  0.3363 -0.2476
  915MOL0     C23394   3.825   5.069   4.258 -0.2749  0.4834  0.0172
  915MOL0     C23395   3.943   5.006   4.298  0.0191 -0.2413 -1.2945
  915MOL0     C23396   3.934   4.915   4.407  0.8312  0.0273 -0.4872
  915MOL0     C23397   3.807   4.876   4.465  0.2486  0.8591 -0.4565
  915MOL0     O23398   3.801   4.783   4.566  0.4923  0.4261  0.6318
  915MOL0     C23399   3.695   4.693   4.549 -0.6195 -0.1331 -0.5219
  915MOL0     C23400   3.685   4.602   4.429  0.4310  0.3071 -0.3779
  915MOL0     C23401   3.617   4.469   4.467  0.3302 -0.1154 -0.7464
  915MOL0     C23402   3.573   4.397   4.341 -0.1723 -0.3689 -0.3546
  915MOL0     C23403   3.578   4.247   4.353  0.2402  0.1620 -0.1848
  915MOL0     C23404   3.489   4.200   4.463  1.4700  0.4137  0.2084
  915MOL0     C23405   3.504   4.041   4.486  0.1559 -0.2023 -0.0984
  915MOL0     C23406   3.394   3.985   4.571  0.3872 -0.0230 -0.0586
  915MOL0     N23407   3.442   3.849   4.610 -0.0810 -0.3363  0.4960
  915MOL0     C23408   3.484   3.735   4.539 -0.1540  0.1934  0.5141
  915MOL0     C23409   3.514   3.640   4.627 -0.9202  0.8521  0.3031
  915MOL0     C23410   3.578   3.507   4.597  0.2955  0.7878  0.0130
  915MOL0     C23411   3.500   3.403   4.674  0.2484  0.1010  0.5708
  915MOL0     C23412   3.364   3.380   4.611  0.0425 -0.2116  0.0615
  915MOL0     C23413   3.359   3.310   4.470 -0.4251  1.3413 -0.7139
  915MOL0     O23414   3.450   3.197   4.465  0.0179  0.6115  0.0312
  915MOL0     C23415   3.384   3.076   4.455 -0.7843 -0.0982 -0.0242
  915MOL0     C23416   3.379   2.988   4.561 -0.1556 -0.3628 -0.9203
  915MOL0     C23417   3.298   2.864   4.541 -0.4644  0.4420 -0.2231
  915MOL0     C23418   3.288   2.775   4.666 -0.0195  0.7067  0.0185
  915MOL0     C23419   3.247   2.832   4.406  1.1199  0.2099 -0.2306
  915MOL0     C23420   3.169   2.702   4.379  0.4981  0.1730  0.3818
  915MOL0     O23421   3.106   2.639   4.484  0.6647  0.0514  0.2163
  915MOL0     C23422   3.033   2.526   4.452 -0.6053  0.7128 -0.3277
  915MOL0     C23423   3.093   2.399   4.456 -0.4617  0.8669 -0.3660
  915MOL0     C23424   3.018   2.281   4.442  0.7506 -0.0801 -0.1463
  915MOL0     C23425   2.884   2.293   4.419  1.0227 -0.4411  0.1219
  915MOL0     O23426   2.802   2.179   4.412  0.2098  0.4392 -0.0352
  915MOL0     C23427   2.667   2.180   4.473 -0.8017 -0.7218  0.1681
  915MOL0     C23428   2.630   2.041   4.499  0.3462 -0.1957 -0.6377
  915MOL0     C23429   2.489   2.024   4.536  0.8496  0.0527 -0.0665
  915MOL0     C23430   2.442   1.874   4.533 -0.5666  0.2726 -0.3371
  915MOL0     C23431   2.294   1.855   4.543 -0.8896 -0.6482  0.0409
  915MOL0     C23432   2.267   1.700   4.523  0.0666 -0.9523  0.0397
  915MOL0     C23433   2.121   1.656   4.505  0.2795  1.2543  0.7151
  915MOL0     C23434   2.109   1.542   4.392  0.2295  0.8032 -0.4853
  915MOL0    Cl23435   1.945   1.502   4.357 -0.0507  0.1031  0.3270
  915MOL0     C23436   2.824   2.421   4.409 -0.0366  0.3974  0.4966
  915MOL0     C23437   2.898   2.534   4.423  0.1096  0.4258  0.3071
  915MOL0     O23438   3.160   2.668   4.265  0.3217  0.2815  0.4430
  915MOL0     C23439   3.272   2.919   4.307 -0.0241  0.3004  0.6864
  915MOL0     C23440   3.329   3.042   4.330 -0.3003  0.1651 -0.0284
  915MOL0     N23441   3.512   3.694   4.750 -0.1726  0.0217 -0.1372
  915MOL0     N23442   3.474   3.816   4.744  0.6894  0.5739  1.4460
  915MOL0     C23443   3.689   4.926   4.407 -0.3787 -0.0034 -0.0053
  915MOL0     C23444   3.693   5.024   4.307 -0.0912  0.3541  0.2696
  915MOL0     C23445   3.777   5.262   3.940 -1.0255 -0.2379 -1.1519
  915MOL0     C23446   3.898   5.320   3.910  0.3197  0.5206 -0.5744
  915MOL0     C23447   3.912   5.425   3.814  0.1614  0.7425 -1.1300
  915MOL0     C23448   3.802   5.453   3.736 -0.8517  0.0408  0.3329
  915MOL0     O23449   3.807   5.570   3.658  0.6677 -1.5350  0.9668
  915MOL0     C23450   3.924   5.627   3.607 -0.1597  0.2955  0.4675
  915MOL0     C23451   3.971   5.579   3.469  0.8557 -1.0404  0.2426
  915MOL0     C23452   3.957   5.433   3.425 -0.8951 -0.6913 -0.0641
  915MOL0     C23453   4.022   5.409   3.290 -0.3161 -0.8452  0.4291
  915MOL0     C23454   4.013   5.265   3.267  0.0323 -0.3315  0.8915
  915MOL0     C23455   3.996   5.146   3.249  0.5475 -0.3375 -0.2649
  915MOL0     C23456   3.674   5.405   3.764 -0.4186 -0.0311  0.4744
  915MOL0     C23457   3.660   5.301   3.858 -0.7672  0.8360 -0.2964
  915MOL0     H23458   4.036   5.039   4.253  1.5607 -0.0313  1.7801
  915MOL0     H23459   4.029   4.871   4.437  1.3128  0.4112 -1.4286
  915MOL0     H23460   3.727   4.633   4.635 -2.1679 -0.4563 -0.1436
  915MOL0     H23461   3.594   4.727   4.575 -1.1993 -2.8398  1.1763
  915MOL0     H23462   3.640   4.658   4.346 -0.2887  1.7796  0.9594
  915MOL0     H23463   3.790   4.584   4.404  0.1185 -1.0278 -0.7953
  915MOL0     H23464   3.690   4.404   4.518 -2.4343 -2.9516 -0.0950
  915MOL0     H23465   3.531   4.481   4.533  0.6250 -2.5423  0.2006
  915MOL0     H23466   3.481   4.441   4.302  1.0458  0.5076 -2.4057
  915MOL0     H23467   3.652   4.416   4.267  1.5339 -0.5006  1.3504
  915MOL0     H23468   3.553   4.192   4.262  0.8278  1.4806 -1.1757
  915MOL0     H23469   3.682   4.224   4.377  0.0760  0.0250  0.4155
  915MOL0     H23470   3.521   4.244   4.558 -2.5932  0.8004  1.5960
  915MOL0     H23471   3.383   4.228   4.456  1.0117 -1.1982  0.3821
  915MOL0     H23472   3.512   3.979   4.396  5.7735 -0.3546  0.1061
  915MOL0     H23473   3.601   4.022   4.533 -0.2294  0.7291  1.1135
  915MOL0     H23474   3.295   3.989   4.524 -1.3158  2.4708  3.3606
  915MOL0     H23475   3.391   4.054   4.656  1.5712 -0.5070  0.3943
  915MOL0     H23476   3.487   3.729   4.431 -2.5438 -0.2245  0.4124
  915MOL0     H23477   3.578   3.490   4.489 -0.2678 -0.1762  0.1574
  915MOL0     H23478   3.678   3.498   4.639 -1.2192 -0.7322  3.7620
  915MOL0     H23479   3.496   3.437   4.778  2.5910 -0.7623  1.0084
  915MOL0     H23480   3.557   3.310   4.669 -1.2401 -0.7828 -0.9973
  915MOL0     H23481   3.314   3.477   4.600 -1.0200 -0.9452 -2.2146
  915MOL0     H23482   3.303   3.321   4.680  0.0078 -1.4077 -0.9439
  915MOL0     H23483   3.399   3.371   4.389  1.7847 -1.4111 -1.8791
  915MOL0     H23484   3.255   3.289   4.441  0.1277 -0.2898 -1.6834
  915MOL0     H23485   3.421   3.020   4.655 -0.8282  0.4655 -0.8924
  915MOL0     H23486   3.327   2.836   4.748 -1.6185  0.5622  0.9207
  915MOL0     H23487   3.182   2.754   4.684  0.2525 -1.3720 -0.4708
  915MOL0     H23488   3.342   2.680   4.655  1.6249  1.0122  3.9238
  915MOL0     H23489   3.196   2.377   4.480 -0.5085 -1.6839 -2.0589
  915MOL0     H23490   3.054   2.182   4.467 -0.7243 -0.2008  1.7343
  915MOL0     H23491   2.672   2.244   4.561  0.3578  1.5083 -1.4321
  915MOL0     H23492   2.593   2.219   4.403  1.1035  2.5244 -0.2362
  915MOL0     H23493   2.649   1.984   4.408 -0.7215 -2.0634  0.2331
  915MOL0     H23494   2.681   1.991   4.582 -1.0423 -0.2100  0.2534
  915MOL0     H23495   2.421   2.079   4.470  2.2039 -0.1851 -1.7088
  915MOL0     H23496   2.486   2.046   4.643  3.1958 -5.1547  1.3615
  915MOL0     H23497   2.469   1.830   4.436 -3.9890 -0.6834 -0.9994
  915MOL0     H23498   2.496   1.822   4.612  1.0912  1.4395 -0.6567
  915MOL0     H23499   2.246   1.907   4.460  0.3474 -1.7734 -1.4280
  915MOL0     H23500   2.249   1.882   4.640 -0.4637 -3.2994  1.0579
  915MOL0     H23501   2.318   1.657   4.437  1.4908 -0.0546  0.4122
  915MOL0     H23502   2.306   1.641   4.607  3.0368  4.0815  2.6683
  915MOL0     H23503   2.044   1.730   4.485 -1.0975  0.2556  2.0838
  915MOL0     H23504   2.094   1.618   4.604  2.5309 -0.5975  0.6990
  915MOL0     H23505   2.155   1.444   4.409  1.4313  1.1353 -1.6199
  915MOL0     H23506   2.165   1.561   4.300 -0.8676 -1.1071 -1.6052
  915MOL0     H23507   2.721   2.411   4.376  0.5518  1.0264 -1.6884
  915MOL0     H23508   2.849   2.631   4.424 -0.5395  0.1222 -0.3972
  915MOL0     H23509   3.246   2.878   4.210  1.2994 -0.7348  0.7398
  915MOL0     H23510   3.338   3.111   4.247  0.6820 -0.1733 -0.2299
  915MOL0     H23511   3.590   4.905   4.447 -0.9774 -0.9604 -1.8455
  915MOL0     H23512   3.599   5.064   4.271  0.1921  0.4631 -0.3667
  915MOL0     H23513   3.987   5.303   3.969  0.1403 -2.0643 -0.9315
  915MOL0     H23514   4.009   5.470   3.796  0.9025 -1.3929 -2.9230
  915MOL0     H23515   3.885   5.727   3.583 -1.3743 -0.5233 -1.1914
  915MOL0     H23516   4.002   5.639   3.683 -3.0915  0.6969  3.6292
  915MOL0     H23517   4.076   5.610   3.468  0.9603 -1.3714  0.4905
  915MOL0     H23518   3.913   5.634   3.395 -0.1943 -0.2044  1.6320
  915MOL0     H23519   3.851   5.417   3.404 -0.8141 -0.3060 -0.8149
  915MOL0     H23520   3.997   5.356   3.491  2.1476 -1.0440 -2.0913
  915MOL0     H23521   4.128   5.435   3.287 -0.2613 -1.0643  0.4918
  915MOL0     H23522   3.963   5.463   3.215  1.9798  1.2817  0.0156
  915MOL0     H23523   3.991   5.040   3.260  4.0157 -0.7167 -1.0340
  915MOL0     H23524   3.591   5.431   3.699 -0.9853 -1.8012  0.4246
  915MOL0     H23525   3.562   5.253   3.859 -0.4273 -0.0119 -2.4766
  916MOL0     O23526   3.277   9.419   3.214  0.0186  0.5246  0.7852
  916MOL0     C23527   3.169   9.408   3.164  0.2777 -0.0442  0.0597
  916MOL0     O23528   3.097   9.285   3.129  0.4962 -0.1333  0.7511
  916MOL0     C23529   3.136   9.159   3.163  0.6531  0.3960 -0.3384
  916MOL0     C23530   3.246   9.114   3.235  0.5032  0.4413  0.3212
  916MOL0     C23531   3.276   8.975   3.264  0.3807 -0.3953  0.0202
  916MOL0     C23532   3.191   8.880   3.205  1.2634  0.3246  0.3463
  916MOL0     O23533   3.208   8.743   3.213 -0.0322 -0.1503  0.5852
  916MOL0     C23534   3.264   8.687   3.323 -0.1381 -0.4586 -1.1265
  916MOL0     C23535   3.410   8.647   3.291 -0.3096  0.1872  0.4996
  916MOL0     C23536   3.418   8.502   3.232  1.0378 -0.3748  0.2985
  916MOL0     C23537   3.551   8.466   3.169  0.2654 -0.4361  0.5859
  916MOL0     C23538   3.563   8.323   3.128  0.4047 -0.3530  0.3227
  916MOL0     C23539   3.694   8.280   3.066 -1.0261 -0.1483 -0.1428
  916MOL0     C23540   3.729   8.369   2.945  0.2666  0.9325 -0.6840
  916MOL0     C23541   3.830   8.299   2.843  0.0209  0.2613 -0.6842
  916MOL0     N23542   3.962   8.274   2.906  0.4353 -0.5974 -0.0174
  916MOL0     C23543   3.990   8.155   2.965 -0.8603 -0.6373 -0.6281
  916MOL0     C23544   4.097   8.189   3.044 -0.2507  0.3068 -0.4552
  916MOL0     C23545   4.171   8.098   3.140  0.8247 -1.5543  0.0835
  916MOL0     C23546   4.197   7.963   3.080 -0.8876  0.4090  0.3995
  916MOL0     C23547   4.257   7.859   3.178 -0.0935 -0.4806  0.2507
  916MOL0     C23548   4.400   7.885   3.207  0.6926  1.2186  0.0037
  916MOL0     O23549   4.465   7.759   3.237 -0.2533  0.1191 -0.8456
  916MOL0     C23550   4.598   7.758   3.268  0.8925 -0.5284  0.1136
  916MOL0     C23551   4.637   7.641   3.329 -0.0097  0.5151  0.2747
  916MOL0     C23552   4.772   7.613   3.356  0.2623 -0.7800 -0.1335
  916MOL0     C23553   4.819   7.479   3.410 -0.2039 -0.3641 -0.2321
  916MOL0     C23554   4.868   7.715   3.321 -0.4928  0.3242  0.1135
  916MOL0     C23555   5.014   7.695   3.345 -0.1070  0.3226 -0.0583
  916MOL0     O23556   5.043   7.668   3.467  0.0061 -0.6183 -0.3517
  916MOL0     C23557   5.173   7.670   3.506 -1.0104  0.5268  0.1913
  916MOL0     C23558   5.259   7.781   3.498  0.3560 -0.4783  0.2532
  916MOL0     C23559   5.384   7.780   3.562  0.0816 -0.1291  0.2962
  916MOL0     C23560   5.437   7.661   3.611 -0.4946 -0.0579  0.9938
  916MOL0     O23561   5.547   7.642   3.682  0.0657 -0.2412  0.0902
  916MOL0     C23562   5.631   7.748   3.742  0.3247 -0.0121 -0.4923
  916MOL0     C23563   5.739   7.687   3.835 -0.8557 -0.3004  0.8703
  916MOL0     C23564   5.807   7.804   3.915  0.5400  0.6575 -0.2784
  916MOL0     C23565   5.921   7.873   3.832 -1.1587 -0.4858 -0.0283
  916MOL0     C23566   6.007   7.954   3.944 -0.4910 -0.3397  0.3112
  916MOL0     C23567   5.949   8.089   3.981  0.8459  0.1568  0.5283
  916MOL0     C23568   6.057   8.170   4.055  0.5831 -1.1595  0.2084
  916MOL0     C23569   6.002   8.275   4.161  0.2132  0.1768  0.3185
  916MOL0    Cl23570   5.876   8.375   4.101 -0.1791  0.0961 -0.7357
  916MOL0     C23571   5.356   7.548   3.611  0.3163 -0.2931 -0.1680
  916MOL0     C23572   5.229   7.556   3.560 -0.4047  0.6444 -0.0703
  916MOL0     O23573   5.100   7.723   3.254  0.6456  0.0049  0.1745
  916MOL0     C23574   4.827   7.830   3.263  0.0247 -0.3604  0.0128
  916MOL0     C23575   4.689   7.857   3.239  0.0103 -0.3078 -0.3445
  916MOL0     N23576   4.128   8.327   3.038 -0.0275 -0.8807  0.7648
  916MOL0     N23577   4.043   8.368   2.952 -0.2673 -0.7190 -0.1390
  916MOL0     C23578   3.086   8.920   3.133 -0.5381 -0.4246 -0.1505
  916MOL0     C23579   3.050   9.057   3.112  0.0564  0.0911  0.0925
  916MOL0     C23580   3.086   9.531   3.131  0.8127  0.2426  0.3389
  916MOL0     C23581   2.958   9.523   3.071  0.2382 -0.2027  0.0975
  916MOL0     C23582   2.899   9.642   3.029  0.3063 -0.1992 -0.1380
  916MOL0     C23583   2.953   9.771   3.059 -0.1711 -0.3929  0.6742
  916MOL0     O23584   2.883   9.881   3.023 -0.7774  0.1871 -0.3729
  916MOL0     C23585   2.941  10.013   3.039 -0.4637 -0.6934 -0.2045
  916MOL0     C23586   2.849  10.134   3.011  1.0954  0.0789  0.2161
  916MOL0     C23587   2.930  10.263   3.027  0.3153 -1.2260  0.0168
  916MOL0     C23588   2.858  10.388   2.951  0.7166  0.3244  0.3009
  916MOL0     C23589   2.854  10.362   2.811 -0.1489  0.0653 -0.1072
  916MOL0     C23590   2.856  10.330   2.700 -0.2230  0.2448  0.3015
  916MOL0     C23591   3.077   9.771   3.129 -0.2312  0.1991 -0.3404
  916MOL0     C23592   3.141   9.652   3.169 -0.1461  0.3439 -0.1347
  916MOL0     H23593   3.310   9.188   3.284 -1.3317  1.7775  0.8072
  916MOL0     H23594   3.355   8.939   3.329  1.5920  2.3360  0.1908
  916MOL0     H23595   3.260   8.748   3.413 -1.1112 -1.8711 -0.1756
  916MOL0     H23596   3.206   8.601   3.356 -0.2704  0.2837  0.7134
  916MOL0     H23597   3.456   8.711   3.215 -2.1393 -1.5062 -2.1802
  916MOL0     H23598   3.476   8.665   3.377  0.1804  1.7856 -0.1643
  916MOL0     H23599   3.396   8.439   3.319  2.1953 -0.2602  0.6928
  916MOL0     H23600   3.347   8.486   3.150 -1.2781  2.1936  1.6499
  916MOL0     H23601   3.557   8.520   3.074 -1.3748 -3.1746 -1.2220
  916MOL0     H23602   3.627   8.498   3.240  0.4462 -2.6320  1.4567
  916MOL0     H23603   3.523   8.260   3.208  1.6215  1.3732  2.3869
  916MOL0     H23604   3.478   8.315   3.059 -1.4240  2.1222  2.1158
  916MOL0     H23605   3.777   8.287   3.138  0.2329 -1.9127 -1.3352
  916MOL0     H23606   3.689   8.176   3.034  4.6109 -1.3543  1.6518
  916MOL0     H23607   3.637   8.384   2.887  0.2950 -1.0916 -1.3374
  916MOL0     H23608   3.771   8.464   2.979 -1.1471  1.5349 -0.5608
  916MOL0     H23609   3.840   8.357   2.751  3.6668 -2.8223 -2.4868
  916MOL0     H23610   3.787   8.207   2.802  1.1612 -0.2115 -0.8297
  916MOL0     H23611   3.942   8.060   2.942 -1.0760 -0.1774 -2.2043
  916MOL0     H23612   4.265   8.148   3.164 -0.2085  0.0854  0.8646
  916MOL0     H23613   4.098   8.087   3.221 -3.0144  2.6955 -2.3589
  916MOL0     H23614   4.246   7.977   2.984 -1.0333  0.2310  0.2985
  916MOL0     H23615   4.100   7.924   3.049 -1.2069  2.5382 -1.5501
  916MOL0     H23616   4.244   7.765   3.124 -0.3082  1.3886 -3.3013
  916MOL0     H23617   4.199   7.845   3.270  1.0405 -3.3572  0.6388
  916MOL0     H23618   4.404   7.942   3.301 -0.1613 -0.6114  1.2062
  916MOL0     H23619   4.446   7.940   3.124  1.0378 -0.4466 -0.9314
  916MOL0     H23620   4.555   7.571   3.341 -0.3089  0.3282 -2.3478
  916MOL0     H23621   4.755   7.400   3.370 -2.8744  2.0453 -1.0257
  916MOL0     H23622   4.923   7.449   3.392  0.4272 -0.2537  2.7704
  916MOL0     H23623   4.814   7.458   3.517 -0.0508 -0.0051 -0.1549
  916MOL0     H23624   5.223   7.874   3.455  2.1783  0.7417  1.2655
  916MOL0     H23625   5.448   7.867   3.574  0.1963 -0.2548  0.6024
  916MOL0     H23626   5.672   7.792   3.651  0.0408 -1.5615 -1.4040
  916MOL0     H23627   5.568   7.821   3.794 -0.4357 -0.4017 -0.8513
  916MOL0     H23628   5.699   7.607   3.899  1.6111 -1.6189  0.8968
  916MOL0     H23629   5.818   7.635   3.779 -1.0781  1.2413 -0.9815
  916MOL0     H23630   5.850   7.763   4.008  2.1302  1.6302 -0.5428
  916MOL0     H23631   5.736   7.883   3.941 -1.0033  0.4785 -3.5071
  916MOL0     H23632   5.994   7.810   3.780 -0.7299  2.0602 -2.7579
  916MOL0     H23633   5.893   7.943   3.753  3.0836 -0.9284 -2.2336
  916MOL0     H23634   6.103   7.979   3.898 -0.4063 -0.3032  0.5086
  916MOL0     H23635   6.014   7.897   4.037 -2.1027  3.8536  3.2843
  916MOL0     H23636   5.927   8.138   3.885  0.3948 -0.9968  0.0210
  916MOL0     H23637   5.850   8.074   4.025  0.8888 -2.7574 -0.1860
  916MOL0     H23638   6.096   8.234   3.976 -0.7690  1.9899  1.9019
  916MOL0     H23639   6.129   8.100   4.099  0.9531 -1.6181 -1.0993
  916MOL0     H23640   6.085   8.345   4.175  0.7308 -0.1017 -1.1636
  916MOL0     H23641   5.973   8.216   4.249  0.4364  0.4382  0.5704
  916MOL0     H23642   5.392   7.457   3.659  2.6045  2.8939  5.0347
  916MOL0     H23643   5.180   7.460   3.544 -1.4706  1.2004 -0.2354
  916MOL0     H23644   4.896   7.911   3.241 -0.2079 -0.5722 -1.6730
  916MOL0     H23645   4.660   7.944   3.181 -3.6347 -1.2619 -0.2067
  916MOL0     H23646   3.023   8.841   3.092  0.2990  0.6158 -3.7969
  916MOL0     H23647   2.971   9.097   3.048 -0.3876  0.3393  0.7848
  916MOL0     H23648   2.903   9.432   3.047 -0.7515  1.2358 -3.8713
  916MOL0     H23649   2.802   9.620   2.987 -0.8435  1.2511  1.5786
  916MOL0     H23650   2.980  10.015   3.141  0.2635 -1.5522 -0.4489
  916MOL0     H23651   3.021  10.027   2.966 -0.3131  0.8337  0.2368
  916MOL0     H23652   2.770  10.128   3.086 -1.0318 -0.2792 -1.9341
  916MOL0     H23653   2.804  10.121   2.913  2.8546 -2.9108 -0.3293
  916MOL0     H23654   3.028  10.247   2.982 -0.4469 -2.9844 -1.1512
  916MOL0     H23655   2.951  10.282   3.133  0.7553 -1.6192 -0.0019
  916MOL0     H23656   2.909  10.478   2.985  1.8123 -0.3406  0.4692
  916MOL0     H23657   2.759  10.399   2.996  0.2079  0.3343 -0.8057
  916MOL0     H23658   2.843  10.304   2.597  3.2348  1.1226 -0.4989
  916MOL0     H23659   3.127   9.865   3.149 -0.0864  0.0367  0.0687
  916MOL0     H23660   3.231   9.661   3.229 -0.4086 -4.2010  1.3268
  917MOL0     O23661   3.147  10.330   2.033  0.4348  0.5139 -0.0490
  917MOL0     C23662   3.116  10.418   2.113  0.4236  0.2922  0.2928
  917MOL0     O23663   3.110  10.398   2.253 -0.0955 -0.0265  0.2621
  917MOL0     C23664   3.122  10.279   2.315  0.3391 -1.1014  0.5354
  917MOL0     C23665   3.061  10.164   2.262  0.0758  0.3335 -1.5417
  917MOL0     C23666   3.066  10.043   2.329  0.9536  0.3157 -0.8520
  917MOL0     C23667   3.111  10.042   2.467 -0.2918  0.1761  0.2856
  917MOL0     O23668   3.106   9.926   2.535  0.4981 -0.3146  0.3071
  917MOL0     C23669   3.221   9.886   2.603  0.1275 -0.2717  0.1505
  917MOL0     C23670   3.196   9.742   2.653  0.3876  0.0058 -0.8448
  917MOL0     C23671   3.323   9.688   2.709  0.4110  0.0703 -0.1868
  917MOL0     C23672   3.302   9.538   2.747  0.0295  0.7055 -0.2714
  917MOL0     C23673   3.427   9.476   2.814  0.2740 -0.2763 -0.9613
  917MOL0     C23674   3.407   9.324   2.842  0.2261  0.4031 -0.1798
  917MOL0     C23675   3.523   9.278   2.934  0.1783 -0.3669 -0.3057
  917MOL0     C23676   3.487   9.131   2.963 -0.3506  0.3971 -0.4587
  917MOL0     N23677   3.597   9.064   3.030 -1.0864 -0.6147 -0.0996
  917MOL0     C23678   3.689   8.973   2.974  1.4925 -0.1446  0.5388
  917MOL0     C23679   3.762   8.933   3.078  0.4763  0.6410  0.4477
  917MOL0     C23680   3.878   8.836   3.080  0.9053  0.1626  0.2402
  917MOL0     C23681   3.941   8.838   3.219 -0.8417  0.2252 -0.6256
  917MOL0     C23682   4.044   8.725   3.236  0.6961 -0.3191  0.7910
  917MOL0     C23683   4.145   8.705   3.121 -0.2149 -0.6595 -0.2937
  917MOL0     O23684   4.245   8.805   3.098  0.4615  0.2738 -0.1473
  917MOL0     C23685   4.356   8.816   3.184 -0.1754 -0.5230  0.6037
  917MOL0     C23686   4.451   8.912   3.143 -0.2190  0.8816 -0.0086
  917MOL0     C23687   4.578   8.926   3.200  0.4787 -0.0463 -1.0251
  917MOL0     C23688   4.662   9.038   3.134 -0.1882 -0.2141 -0.7107
  917MOL0     C23689   4.618   8.834   3.303 -0.0229 -0.2200  0.7816
  917MOL0     C23690   4.756   8.831   3.361 -0.6873  0.1262 -1.2060
  917MOL0     O23691   4.860   8.839   3.276  0.0000  0.2734  0.3049
  917MOL0     C23692   4.980   8.885   3.329  0.4372  0.3426  0.7893
  917MOL0     C23693   5.075   8.798   3.390 -0.0728 -0.1222 -0.3262
  917MOL0     C23694   5.182   8.843   3.469 -0.0132 -0.6799  0.4260
  917MOL0     C23695   5.192   8.981   3.473 -1.2283 -0.3278  0.5231
  917MOL0     O23696   5.297   9.053   3.535 -0.4139  0.4046 -0.9497
  917MOL0     C23697   5.341   9.010   3.668 -0.4218 -0.3187 -0.5038
  917MOL0     C23698   5.461   9.101   3.702  0.1029  0.0397  0.2859
  917MOL0     C23699   5.505   9.065   3.845 -0.4718  0.6476  0.1544
  917MOL0     C23700   5.416   9.139   3.950  0.4909  0.5921  0.2750
  917MOL0     C23701   5.453   9.132   4.096 -0.3014  0.8511  0.9037
  917MOL0     C23702   5.498   8.994   4.141  0.2290  0.1119 -0.4437
  917MOL0     C23703   5.524   9.003   4.288 -0.1637 -0.7241 -0.6268
  917MOL0     C23704   5.581   8.876   4.335 -0.0664 -0.0270  0.1644
  917MOL0    Cl23705   5.747   8.872   4.301 -0.7136  0.2906 -0.0746
  917MOL0     C23706   5.112   9.076   3.408 -0.9314  0.4993 -0.3726
  917MOL0     C23707   4.996   9.025   3.340  0.1819  0.0418 -0.5107
  917MOL0     O23708   4.761   8.818   3.482 -0.0660  0.4902 -0.6202
  917MOL0     C23709   4.524   8.745   3.348 -0.1867  0.3704  0.4973
  917MOL0     C23710   4.395   8.724   3.284 -0.0020  0.3456 -1.1343
  917MOL0     N23711   3.721   9.004   3.193 -0.1766 -0.7215 -0.9172
  917MOL0     N23712   3.623   9.088   3.161 -0.7071 -0.2978 -0.2564
  917MOL0     C23713   3.177  10.161   2.516 -0.0274 -0.6446 -0.4472
  917MOL0     C23714   3.181  10.275   2.442 -0.3810  0.2128  0.3970
  917MOL0     C23715   3.121  10.557   2.061  0.2011  0.3255 -0.7613
  917MOL0     C23716   3.106  10.667   2.149 -0.3721 -0.3020 -0.5764
  917MOL0     C23717   3.121  10.801   2.107 -0.2268  0.3229  0.2186
  917MOL0     C23718   3.128  10.825   1.968 -0.0378  0.2698  0.4247
  917MOL0     O23719   3.108  10.945   1.908 -0.5451  0.1740 -0.3103
  917MOL0     C23720   3.103  11.067   1.977  0.2205 -0.4448  1.0741
  917MOL0     C23721   3.087  11.182   1.871  0.1643 -0.7340 -0.3390
  917MOL0     C23722   2.943  11.159   1.816 -0.5828 -0.5616  0.2283
  917MOL0     C23723   2.901  11.249   1.689  0.2880  0.5641 -0.7110
  917MOL0     C23724   2.923  11.393   1.714  0.4189 -0.2284  0.4267
  917MOL0     C23725   2.947  11.505   1.736 -0.0746 -0.5373 -0.3595
  917MOL0     C23726   3.140  10.711   1.887  0.1368 -0.4641  0.4480
  917MOL0     C23727   3.146  10.583   1.928 -0.8012 -0.2591  0.5222
  917MOL0     H23728   3.009  10.166   2.166 -0.5527 -3.1724 -1.3935
  917MOL0     H23729   3.027   9.949   2.291  1.5257  1.6846 -5.4724
  917MOL0     H23730   3.307   9.898   2.536 -1.4892 -2.0440 -2.4289
  917MOL0     H23731   3.228   9.957   2.686 -3.5211  2.1434 -1.3344
  917MOL0     H23732   3.117   9.729   2.728  0.3921 -1.2865 -1.0416
  917MOL0     H23733   3.162   9.701   2.558 -1.5743  2.7256 -1.4530
  917MOL0     H23734   3.408   9.711   2.645  2.7028 -2.3201  1.8077
  917MOL0     H23735   3.348   9.744   2.799  1.1775 -0.5797  0.0100
  917MOL0     H23736   3.210   9.518   2.802 -0.5466 -0.4210 -1.5772
  917MOL0     H23737   3.282   9.479   2.657 -2.5618  1.6928 -0.4375
  917MOL0     H23738   3.521   9.495   2.761  0.7308 -1.5527 -0.6405
  917MOL0     H23739   3.445   9.518   2.913 -1.7891 -1.9769  0.2015
  917MOL0     H23740   3.323   9.320   2.912  1.4828 -1.4985  1.3374
  917MOL0     H23741   3.374   9.276   2.749 -2.2646  0.5840  0.5611
  917MOL0     H23742   3.622   9.291   2.890  1.5788 -0.8148  2.5121
  917MOL0     H23743   3.521   9.335   3.027 -1.3773 -0.8784  0.0119
  917MOL0     H23744   3.473   9.079   2.868 -2.3746 -1.7231  0.8724
  917MOL0     H23745   3.395   9.120   3.022  1.3774  0.2066  2.3577
  917MOL0     H23746   3.691   8.947   2.869  0.6632  1.3495  0.1270
  917MOL0     H23747   3.833   8.739   3.056  1.5336 -0.7705  2.5407
  917MOL0     H23748   3.957   8.865   3.010  1.7366 -0.4843  0.8847
  917MOL0     H23749   3.865   8.811   3.293 -0.3070 -0.3192 -0.2689
  917MOL0     H23750   3.986   8.935   3.244  0.6108  0.5501 -3.9899
  917MOL0     H23751   3.988   8.634   3.258 -0.7250  1.0365  3.3251
  917MOL0     H23752   4.101   8.757   3.324  1.1676  0.2198  0.3000
  917MOL0     H23753   4.091   8.714   3.026 -0.2804  4.2526 -0.0548
  917MOL0     H23754   4.190   8.605   3.123  0.1778 -0.6374 -3.3163
  917MOL0     H23755   4.408   8.983   3.073  1.0409  3.2172  1.4493
  917MOL0     H23756   4.624   9.063   3.034  0.9015 -1.9762 -1.6239
  917MOL0     H23757   4.671   9.119   3.206  0.5896 -0.9799  0.0736
  917MOL0     H23758   4.758   8.991   3.110  1.8486  3.6803 -0.8465
  917MOL0     H23759   5.050   8.693   3.398  1.8512 -0.4786  2.8744
  917MOL0     H23760   5.244   8.779   3.531  2.1032 -0.7041 -1.5581
  917MOL0     H23761   5.258   9.008   3.739 -1.2968 -1.3879 -1.5228
  917MOL0     H23762   5.388   8.912   3.661 -0.3090 -0.1452 -2.6828
  917MOL0     H23763   5.542   9.083   3.631  2.1095  1.3861  2.1086
  917MOL0     H23764   5.438   9.207   3.690  2.9642  0.5893 -1.2743
  917MOL0     H23765   5.609   9.097   3.855 -0.2068 -0.4736  1.1928
  917MOL0     H23766   5.503   8.957   3.862  0.1888  0.2503 -1.9720
  917MOL0     H23767   5.423   9.245   3.923 -2.1599  0.5837 -0.8557
  917MOL0     H23768   5.317   9.107   3.916  0.2801  1.7005 -0.1947
  917MOL0     H23769   5.369   9.166   4.157 -0.6923  0.9601  0.3098
  917MOL0     H23770   5.537   9.202   4.106  0.4076  0.9403 -3.4430
  917MOL0     H23771   5.411   8.930   4.129  0.9519 -1.3410  1.6175
  917MOL0     H23772   5.579   8.951   4.081 -0.5468  0.2373 -1.6315
  917MOL0     H23773   5.431   9.026   4.340 -0.4340 -1.0461 -0.9632
  917MOL0     H23774   5.607   9.073   4.303  1.6118 -2.8362 -0.0683
  917MOL0     H23775   5.534   8.785   4.296  0.7746 -1.3668  2.0863
  917MOL0     H23776   5.558   8.879   4.442  2.3642  3.3730  0.7710
  917MOL0     H23777   5.126   9.183   3.409  4.2895  0.0865  1.2089
  917MOL0     H23778   4.922   9.090   3.294 -1.3258 -0.5934  0.9135
  917MOL0     H23779   4.552   8.678   3.429 -3.7901 -0.2593  1.4065
  917MOL0     H23780   4.331   8.643   3.317  2.2166 -0.8593  0.5122
  917MOL0     H23781   3.224  10.152   2.614 -2.1920 -1.5786  0.5727
  917MOL0     H23782   3.252  10.354   2.464  2.5870 -2.7853  2.5160
  917MOL0     H23783   3.088  10.641   2.253 -0.2154  1.7681  0.0087
  917MOL0     H23784   3.108  10.883   2.178 -3.1295 -0.0404  0.2353
  917MOL0     H23785   3.021  11.055   2.049  1.9529 -1.9177  2.9301
  917MOL0     H23786   3.179  11.083   2.054  1.7285  0.7331 -0.5870
  917MOL0     H23787   3.166  11.189   1.796  0.6966 -0.5298  0.2259
  917MOL0     H23788   3.086  11.283   1.913 -0.2607 -0.6172 -0.6217
  917MOL0     H23789   2.871  11.172   1.898  0.1828  1.6918  0.6146
  917MOL0     H23790   2.931  11.057   1.779 -2.2821 -0.0878 -0.6445
  917MOL0     H23791   2.798  11.224   1.662 -0.2257  0.0222  1.5271
  917MOL0     H23792   2.965  11.216   1.606 -1.6169 -1.6407 -1.4269
  917MOL0     H23793   2.960  11.610   1.753  2.7972 -1.0756  1.3283
  917MOL0     H23794   3.157  10.731   1.782 -0.3737  0.5755  0.5492
  917MOL0     H23795   3.179  10.499   1.868 -0.0625 -0.5204  1.2709
  918MOL0     O23796   4.905  10.884  11.087 -0.7077 -0.2558 -0.2399
  918MOL0     C23797   5.004  10.961  11.060  0.8699 -0.2271 -0.1731
  918MOL0     O23798   5.094  10.947  10.957  0.5349 -0.4305 -0.9829
  918MOL0     C23799   5.095  10.836  10.880 -0.4607  0.1948 -0.4848
  918MOL0     C23800   5.002  10.825  10.782 -0.2202 -0.7442  0.2272
  918MOL0     C23801   5.009  10.703  10.710  0.8750 -0.4804 -0.7973
  918MOL0     C23802   5.098  10.594  10.736 -0.0604  0.0908  0.3323
  918MOL0     O23803   5.089  10.481  10.671  0.4950  0.2244  0.1406
  918MOL0     C23804   4.951  10.430  10.625 -0.2894 -0.2443  0.4553
  918MOL0     C23805   4.940  10.436  10.475  0.3631  0.1690  0.8388
  918MOL0     C23806   5.048  10.373  10.384  0.8041  0.0203  0.2179
  918MOL0     C23807   4.987  10.330  10.243 -0.4282 -0.5195 -0.1983
  918MOL0     C23808   5.082  10.254  10.158 -1.0520  1.0107 -0.5235
  918MOL0     C23809   5.227  10.311  10.162  0.9055 -0.2011  0.0398
  918MOL0     C23810   5.330  10.210  10.081  0.0528  0.2530  0.5442
  918MOL0     C23811   5.334  10.071  10.159 -0.4411  0.7599 -0.7495
  918MOL0     N23812   5.407   9.962  10.084  0.4751  0.4158 -0.0481
  918MOL0     C23813   5.471   9.858  10.144  0.9867  0.1586 -0.5006
  918MOL0     C23814   5.517   9.777  10.052 -0.6319 -0.2304 -0.5824
  918MOL0     C23815   5.588   9.646  10.084  0.0443 -0.5177 -0.0603
  918MOL0     C23816   5.498   9.519  10.049 -0.1128  0.7169 -0.1657
  918MOL0     C23817   5.575   9.394  10.100  0.1007  1.1215 -0.1059
  918MOL0     C23818   5.577   9.369  10.258  0.5037 -0.0268 -0.8857
  918MOL0     O23819   5.447   9.390  10.315 -0.3958  0.0129  0.1523
  918MOL0     C23820   5.431   9.404  10.450 -0.3240  1.1571 -0.3895
  918MOL0     C23821   5.291   9.413  10.494 -0.2899 -0.0135  0.1208
  918MOL0     C23822   5.253   9.393  10.629  0.4818 -0.3477  0.5613
  918MOL0     C23823   5.101   9.398  10.655  0.0142 -0.1846 -0.3154
  918MOL0     C23824   5.348   9.369  10.727 -0.0669 -0.5292  0.0820
  918MOL0     C23825   5.329   9.340  10.874  0.7242 -0.5198  0.2128
  918MOL0     O23826   5.440   9.316  10.951  0.6994 -0.1892 -0.2477
  918MOL0     C23827   5.420   9.264  11.081  0.2194 -0.6726  0.0350
  918MOL0     C23828   5.307   9.214  11.147 -0.4744  0.5047 -0.5821
  918MOL0     C23829   5.320   9.180  11.285  0.2687 -0.5347  0.1267
  918MOL0     C23830   5.444   9.192  11.352 -0.0066  0.4603  0.8846
  918MOL0     O23831   5.447   9.182  11.484  0.1139  0.6358  0.0772
  918MOL0     C23832   5.566   9.166  11.560 -0.0457 -0.2480  0.3407
  918MOL0     C23833   5.611   9.301  11.614  0.1147 -0.1540 -0.6930
  918MOL0     C23834   5.513   9.346  11.727  0.3174  0.0421 -0.0778
  918MOL0     C23835   5.598   9.424  11.829 -0.6714  0.5603  0.3045
  918MOL0     C23836   5.526   9.474  11.945  0.4514 -0.1284 -0.7868
  918MOL0     C23837   5.613   9.542  12.045  0.3698 -0.2333 -0.1790
  918MOL0     C23838   5.652   9.687  12.005  0.5390 -0.8543  0.0728
  918MOL0     C23839   5.538   9.778  12.010  0.0932 -0.5482  0.0523
  918MOL0    Cl23840   5.590   9.955  12.013 -0.4085  0.1506  0.5908
  918MOL0     C23841   5.557   9.235  11.283 -1.1874  0.7205  0.1462
  918MOL0     C23842   5.544   9.269  11.151 -0.6795 -0.6332  0.5323
  918MOL0     O23843   5.217   9.354  10.925  0.3313  0.2932  0.1276
  918MOL0     C23844   5.481   9.385  10.688  0.1453 -0.5317  0.3642
  918MOL0     C23845   5.526   9.388  10.555 -0.0198 -1.4519 -0.1440
  918MOL0     N23846   5.469   9.827   9.935 -0.5934  0.9030 -0.1117
  918MOL0     N23847   5.408   9.943   9.949 -0.0357  0.5837 -0.9057
  918MOL0     C23848   5.188  10.607  10.833 -0.4259 -0.0390  0.0104
  918MOL0     C23849   5.190  10.735  10.906  0.0722  1.1045  0.9439
  918MOL0     C23850   5.014  11.081  11.140 -0.6791  0.3410  0.4346
  918MOL0     C23851   4.963  11.083  11.269  0.6389 -0.3509  0.3023
  918MOL0     C23852   4.987  11.192  11.351 -0.1645  0.0362  0.2754
  918MOL0     C23853   5.069  11.299  11.309  0.0930  0.5479  0.7862
  918MOL0     O23854   5.093  11.397  11.404 -0.4478 -0.3908  0.4762
  918MOL0     C23855   5.102  11.539  11.354  0.1242  0.3014 -0.8652
  918MOL0     C23856   5.122  11.639  11.474  0.4570  0.5287 -0.5507
  918MOL0     C23857   5.258  11.644  11.533 -0.3532  0.7202  0.5581
  918MOL0     C23858   5.350  11.745  11.452  0.4633  0.1163 -0.6043
  918MOL0     C23859   5.329  11.884  11.491  0.3056  0.6253  0.9345
  918MOL0     C23860   5.321  11.997  11.530  0.0699 -0.1852  0.2313
  918MOL0     C23861   5.118  11.298  11.174 -0.6189  0.5902 -0.1545
  918MOL0     C23862   5.097  11.185  11.090 -0.4013  0.5570  0.3843
  918MOL0     H23863   4.929  10.903  10.761 -2.5920 -3.2157 -1.3421
  918MOL0     H23864   4.926  10.700  10.640  1.1087  1.1451 -1.1954
  918MOL0     H23865   4.948  10.324  10.652  1.2638 -0.0820  1.3995
  918MOL0     H23866   4.869  10.477  10.680 -0.4759 -0.7494  0.6163
  918MOL0     H23867   4.846  10.391  10.444  0.3422  2.6908 -3.4443
  918MOL0     H23868   4.937  10.543  10.453 -0.9410  0.0061  0.1653
  918MOL0     H23869   5.135  10.439  10.384 -0.5692  1.9302  1.1279
  918MOL0     H23870   5.085  10.279  10.426  1.4683 -0.0285 -0.4466
  918MOL0     H23871   4.896  10.269  10.243 -0.2198 -0.9184 -2.5709
  918MOL0     H23872   4.974  10.420  10.183  3.7777  0.1211 -0.4600
  918MOL0     H23873   5.094  10.157  10.207  2.4961  2.0533  1.0734
  918MOL0     H23874   5.029  10.231  10.065 -2.3821 -0.9287  0.6364
  918MOL0     H23875   5.227  10.408  10.112  2.9057 -0.9200 -1.5205
  918MOL0     H23876   5.267  10.314  10.264 -0.0881  1.8054  0.4044
  918MOL0     H23877   5.290  10.179   9.984  2.8275 -1.8363 -0.0313
  918MOL0     H23878   5.426  10.246  10.045  0.8260 -0.6159  1.6835
  918MOL0     H23879   5.238  10.021  10.174  1.1985 -2.7780 -1.1629
  918MOL0     H23880   5.379  10.082  10.258 -0.0442 -0.6033 -0.7676
  918MOL0     H23881   5.479   9.848  10.251 -2.3476 -1.3865 -0.2847
  918MOL0     H23882   5.677   9.644  10.021 -2.1016 -2.9244 -3.3548
  918MOL0     H23883   5.601   9.638  10.192  0.6651 -2.6167 -0.2422
  918MOL0     H23884   5.488   9.516   9.941 -0.4139 -1.0372 -0.1150
  918MOL0     H23885   5.401   9.534  10.097  0.7171  3.5375  0.8430
  918MOL0     H23886   5.678   9.405  10.067 -0.0199  0.2656 -0.8373
  918MOL0     H23887   5.548   9.299  10.053 -0.4755  0.4561  1.5087
  918MOL0     H23888   5.645   9.435  10.312 -1.1432 -0.1343  1.4885
  918MOL0     H23889   5.613   9.267  10.276  0.2412 -0.3652 -2.1396
  918MOL0     H23890   5.218   9.436  10.417  0.0766  4.8319  0.9071
  918MOL0     H23891   5.042   9.442  10.573  1.5960  0.3871 -1.1841
  918MOL0     H23892   5.066   9.294  10.650 -3.2958  0.7574  0.3762
  918MOL0     H23893   5.070   9.429  10.755 -1.0407  0.8598 -0.9319
  918MOL0     H23894   5.209   9.201  11.103 -1.2327  1.0549  0.8478
  918MOL0     H23895   5.229   9.150  11.336  0.9671  0.9935  2.4785
  918MOL0     H23896   5.546   9.101  11.646 -1.9250 -0.4375 -0.1940
  918MOL0     H23897   5.644   9.118  11.499 -1.9200 -0.0512 -2.3892
  918MOL0     H23898   5.708   9.276  11.658 -1.6256 -3.1774  1.7815
  918MOL0     H23899   5.645   9.380  11.546  1.0043  0.3252  0.2815
  918MOL0     H23900   5.462   9.261  11.773 -2.5879 -0.7304 -4.1377
  918MOL0     H23901   5.434   9.410  11.687  0.7835  0.0587 -0.9959
  918MOL0     H23902   5.672   9.355  11.871 -1.9180 -1.7209 -1.0307
  918MOL0     H23903   5.652   9.506  11.780 -1.0008  0.0869 -0.8856
  918MOL0     H23904   5.485   9.385  11.994 -1.1938  0.4284 -1.0973
  918MOL0     H23905   5.443   9.540  11.918  2.4007  1.9885 -1.9668
  918MOL0     H23906   5.568   9.543  12.145 -3.1256 -1.0219 -1.5972
  918MOL0     H23907   5.706   9.484  12.049  1.3058  1.0321 -1.8895
  918MOL0     H23908   5.704   9.683  11.909 -1.9378 -1.2498 -1.3161
  918MOL0     H23909   5.723   9.715  12.084 -0.6097 -4.0706  2.4969
  918MOL0     H23910   5.470   9.773  12.095 -4.4498 -1.3344 -3.2802
  918MOL0     H23911   5.486   9.750  11.919  1.3100 -0.7637 -0.5964
  918MOL0     H23912   5.656   9.250  11.325 -1.5212  0.3564  1.1091
  918MOL0     H23913   5.632   9.289  11.092 -3.3846  0.2945 -3.6656
  918MOL0     H23914   5.560   9.374  10.761 -1.2649 -2.3269  1.6979
  918MOL0     H23915   5.630   9.390  10.526 -0.0115  0.4140 -0.0895
  918MOL0     H23916   5.263  10.531  10.854 -1.3492 -1.0760 -0.3939
  918MOL0     H23917   5.263  10.753  10.985  1.0441  0.0974  0.3019
  918MOL0     H23918   4.897  11.002  11.298 -3.2701  2.2517 -0.5043
  918MOL0     H23919   4.941  11.193  11.449 -7.5350 -1.2935 -2.4359
  918MOL0     H23920   5.184  11.538  11.281 -1.2562 -0.4051 -2.4572
  918MOL0     H23921   5.011  11.563  11.299 -0.0244  1.0946 -0.2823
  918MOL0     H23922   5.059  11.612  11.560  1.1602 -0.3722 -0.3068
  918MOL0     H23923   5.090  11.737  11.437 -3.7667 -0.6175 -0.4665
  918MOL0     H23924   5.316  11.551  11.527  0.1916  1.0012  1.4384
  918MOL0     H23925   5.256  11.685  11.634 -1.1270  1.0661  0.4123
  918MOL0     H23926   5.333  11.731  11.345  1.7666 -3.2713 -0.5098
  918MOL0     H23927   5.450  11.704  11.472 -0.6115 -2.9046 -0.8750
  918MOL0     H23928   5.313  12.099  11.563 -2.6520  0.0457 -0.8469
  918MOL0     H23929   5.172  11.387  11.145 -0.6541  1.0241  1.0475
  918MOL0     H23930   5.128  11.179  10.986  3.2395  1.1275  1.3097
  919MOL0     O23931   4.442   3.735   4.393 -0.5813  0.1997  0.3780
  919MOL0     C23932   4.391   3.822   4.466 -0.9600  0.4903  0.4060
  919MOL0     O23933   4.358   3.947   4.423  0.2485  0.5127  0.7771
  919MOL0     C23934   4.418   3.984   4.308  0.6450  0.9818 -0.2011
  919MOL0     C23935   4.339   4.039   4.210 -0.4799  0.9638  0.2171
  919MOL0     C23936   4.395   4.100   4.096  0.5492  0.2851  0.4559
  919MOL0     C23937   4.534   4.101   4.069 -0.1695  0.1188 -1.0496
  919MOL0     O23938   4.583   4.153   3.952 -0.2303  0.0145  0.0655
  919MOL0     C23939   4.607   4.294   3.953 -0.0130 -0.9919 -0.5143
  919MOL0     C23940   4.563   4.355   3.822  0.6050  0.7099  0.6301
  919MOL0     C23941   4.414   4.337   3.790  0.1887  0.3471 -0.2503
  919MOL0     C23942   4.402   4.394   3.647 -0.1031  0.2298  0.3197
  919MOL0     C23943   4.273   4.364   3.587  0.5754  0.4636  0.2168
  919MOL0     C23944   4.242   4.455   3.465  0.1516  0.4497 -0.5731
  919MOL0     C23945   4.121   4.429   3.392  0.9821 -0.0512 -0.3685
  919MOL0     C23946   4.127   4.353   3.260  0.4765  0.1737  0.3955
  919MOL0     N23947   4.120   4.211   3.288 -0.2711  0.6961  0.0911
  919MOL0     C23948   4.003   4.150   3.326 -0.7241 -0.0466 -0.4599
  919MOL0     C23949   4.042   4.018   3.318 -1.4690  0.0860 -0.7710
  919MOL0     C23950   3.958   3.902   3.340  0.6096  1.1297 -0.4489
  919MOL0     C23951   4.019   3.823   3.455 -0.4826 -0.9417 -0.0178
  919MOL0     C23952   3.938   3.704   3.491 -0.9648 -0.5825  0.5359
  919MOL0     C23953   3.994   3.626   3.609  0.5511 -0.2411  0.6040
  919MOL0     O23954   3.904   3.517   3.624 -0.1109  0.5441  0.5405
  919MOL0     C23955   3.954   3.407   3.691 -0.5319  0.2795  0.1947
  919MOL0     C23956   3.875   3.292   3.682  0.5672  0.7765  0.6659
  919MOL0     C23957   3.911   3.178   3.750 -0.0094 -0.2284  0.5950
  919MOL0     C23958   3.806   3.069   3.730 -0.7401 -0.4801 -1.3477
  919MOL0     C23959   4.035   3.172   3.824  0.2336  0.3853  0.3080
  919MOL0     C23960   4.083   3.053   3.894  0.2558 -0.7584 -1.0769
  919MOL0     O23961   4.215   3.064   3.949 -0.1768  1.1976  0.1682
  919MOL0     C23962   4.253   2.989   4.052  0.0259 -0.5863 -0.0583
  919MOL0     C23963   4.224   3.033   4.187  0.5677  0.1477  0.6664
  919MOL0     C23964   4.262   2.948   4.285  0.4640  0.4237 -0.2321
  919MOL0     C23965   4.333   2.823   4.265 -1.3523  0.1744 -0.1259
  919MOL0     O23966   4.363   2.751   4.376 -0.0428 -0.1293  0.5453
  919MOL0     C23967   4.421   2.620   4.353  0.1445  0.4253 -0.6799
  919MOL0     C23968   4.573   2.626   4.349 -0.0701 -0.1212 -0.0831
  919MOL0     C23969   4.629   2.501   4.277  0.5522 -0.0932  0.2098
  919MOL0     C23970   4.684   2.395   4.383 -0.3590  0.7684 -0.1195
  919MOL0     C23971   4.724   2.263   4.306  0.3421 -0.2310 -1.4668
  919MOL0     C23972   4.780   2.151   4.394  0.7983 -0.3158 -0.0129
  919MOL0     C23973   4.918   2.180   4.441 -1.1813  0.7058 -0.5727
  919MOL0     C23974   4.950   2.090   4.569  0.0595 -0.6215  0.0846
  919MOL0    Cl23975   4.924   1.908   4.541  0.0419 -0.0260  0.0142
  919MOL0     C23976   4.364   2.788   4.136  0.2606  0.0211 -0.0712
  919MOL0     C23977   4.316   2.863   4.030  0.5482 -0.2466 -0.5502
  919MOL0     O23978   4.007   2.962   3.910  0.3036  0.7823  1.5873
  919MOL0     C23979   4.115   3.287   3.823  0.8286  0.3826 -0.4137
  919MOL0     C23980   4.076   3.391   3.750  0.9448 -0.7926  1.2926
  919MOL0     N23981   4.178   4.006   3.269  0.0581  0.1072  0.4900
  919MOL0     N23982   4.219   4.121   3.252  0.8253 -1.2149 -0.4686
  919MOL0     C23983   4.616   4.038   4.174 -0.3709 -0.7355  0.8182
  919MOL0     C23984   4.556   3.978   4.289 -0.1608  0.0708  0.2495
  919MOL0     C23985   4.358   3.782   4.598  0.3182  0.0833 -0.5226
  919MOL0     C23986   4.305   3.869   4.694 -0.3276 -0.0409  0.4750
  919MOL0     C23987   4.284   3.838   4.832  0.0883  0.0286  0.0099
  919MOL0     C23988   4.340   3.712   4.875  0.7658 -0.7171  0.7183
  919MOL0     O23989   4.353   3.670   5.006  0.4674 -0.1829  0.1796
  919MOL0     C23990   4.338   3.765   5.115 -0.4563  0.0411  0.4113
  919MOL0     C23991   4.475   3.751   5.185 -0.3385 -0.8303  0.3789
  919MOL0     C23992   4.488   3.844   5.311  0.1883  1.1019  0.0390
  919MOL0     C23993   4.637   3.860   5.328  0.2985 -0.1887  0.0454
  919MOL0     C23994   4.655   3.946   5.443  0.3603 -0.3500  0.6652
  919MOL0     C23995   4.670   4.034   5.525  0.2417  0.7967 -0.6529
  919MOL0     C23996   4.392   3.625   4.781 -0.5685 -0.4939 -0.2976
  919MOL0     C23997   4.407   3.663   4.648  0.1683  0.3533 -0.3120
  919MOL0     H23998   4.231   4.035   4.224 -0.4638 -0.6339  0.0709
  919MOL0     H23999   4.331   4.144   4.021 -0.1930 -3.7590 -1.5561
  919MOL0     H24000   4.547   4.354   4.023  1.5833  1.2267 -0.9337
  919MOL0     H24001   4.711   4.320   3.976 -0.0563 -1.3900  0.1464
  919MOL0     H24002   4.569   4.464   3.820 -1.8531  0.9032  0.1019
  919MOL0     H24003   4.623   4.308   3.743 -0.8579 -1.1134  0.5348
  919MOL0     H24004   4.395   4.229   3.802 -2.0128  0.9315  2.9046
  919MOL0     H24005   4.351   4.384   3.866  0.7633 -1.3158  1.3575
  919MOL0     H24006   4.429   4.500   3.642  0.6624  0.1723  2.1657
  919MOL0     H24007   4.477   4.344   3.584  0.1127  1.6755 -0.6201
  919MOL0     H24008   4.252   4.260   3.562  0.9686 -0.2654  2.6214
  919MOL0     H24009   4.202   4.395   3.665 -2.6902 -0.9989 -1.9276
  919MOL0     H24010   4.249   4.557   3.504  0.8014  1.2425 -2.6352
  919MOL0     H24011   4.331   4.445   3.402  1.5354  2.9696  0.8382
  919MOL0     H24012   4.049   4.375   3.454  2.4014 -3.2753 -1.2958
  919MOL0     H24013   4.073   4.525   3.372 -3.1761 -1.7351  0.4963
  919MOL0     H24014   4.224   4.373   3.215 -0.1580 -0.4851 -1.3322
  919MOL0     H24015   4.050   4.386   3.190 -0.8488  2.1283  2.6100
  919MOL0     H24016   3.904   4.180   3.359 -2.3171 -4.6455 -0.3163
  919MOL0     H24017   3.862   3.938   3.378  1.0616 -0.5362  2.6174
  919MOL0     H24018   3.941   3.844   3.250  1.2483  0.2043  0.0093
  919MOL0     H24019   4.034   3.890   3.540  0.5124  0.5765 -1.3373
  919MOL0     H24020   4.117   3.785   3.426 -0.5172 -0.7553 -0.3791
  919MOL0     H24021   3.933   3.637   3.404 -1.4117  0.8181 -0.5524
  919MOL0     H24022   3.832   3.728   3.502 -1.1157  0.6824 -2.5530
  919MOL0     H24023   3.986   3.695   3.693  2.5359 -0.4074  0.9873
  919MOL0     H24024   4.101   3.609   3.588  0.5103 -0.0171  0.2046
  919MOL0     H24025   3.780   3.293   3.629  0.3887 -1.6977  0.8179
  919MOL0     H24026   3.780   3.043   3.833 -1.1669 -1.6727 -1.7352
  919MOL0     H24027   3.716   3.101   3.676 -2.4269  1.0301  2.0074
  919MOL0     H24028   3.860   2.986   3.683 -3.3348 -1.9315 -1.9671
  919MOL0     H24029   4.166   3.120   4.214 -0.5566 -0.5828  0.6641
  919MOL0     H24030   4.234   2.972   4.387 -0.2438  3.1313 -0.9904
  919MOL0     H24031   4.396   2.569   4.446 -4.6644  3.0046 -0.2593
  919MOL0     H24032   4.372   2.563   4.273 -2.1691 -0.2573  1.1200
  919MOL0     H24033   4.592   2.720   4.295 -0.0775 -0.3190 -0.4294
  919MOL0     H24034   4.604   2.628   4.454 -0.1454 -1.1346 -0.0377
  919MOL0     H24035   4.713   2.523   4.211  1.8209 -1.7405  1.2071
  919MOL0     H24036   4.556   2.447   4.216 -0.4143  0.4544  0.8525
  919MOL0     H24037   4.773   2.438   4.430  1.8145 -0.6643 -2.6500
  919MOL0     H24038   4.601   2.365   4.448  0.0091  2.3052  1.1162
  919MOL0     H24039   4.809   2.290   4.243  1.2375 -0.2008 -0.2729
  919MOL0     H24040   4.642   2.227   4.243 -2.3207  1.2056  0.9294
  919MOL0     H24041   4.713   2.138   4.480  0.6122  1.4695  0.1459
  919MOL0     H24042   4.769   2.054   4.345 -4.0463  0.3401 -0.7528
  919MOL0     H24043   4.914   2.285   4.473 -4.4416 -0.0585  2.1819
  919MOL0     H24044   4.989   2.163   4.360 -0.3791 -0.1299  0.2882
  919MOL0     H24045   4.899   2.123   4.660  0.6909 -0.0625  0.2453
  919MOL0     H24046   5.056   2.110   4.586  0.0172  1.9415 -2.0663
  919MOL0     H24047   4.408   2.690   4.119 -0.8650 -0.7893  1.4123
  919MOL0     H24048   4.331   2.822   3.930 -0.5481  0.7712 -1.1514
  919MOL0     H24049   4.216   3.291   3.863  1.4135 -0.0993 -1.7553
  919MOL0     H24050   4.145   3.474   3.753 -1.5455  1.4151  1.0285
  919MOL0     H24051   4.722   4.052   4.156 -0.3242 -2.1857 -0.2539
  919MOL0     H24052   4.619   3.947   4.372 -0.3209  1.4806  0.9209
  919MOL0     H24053   4.278   3.967   4.655  2.9677  1.0881  0.6988
  919MOL0     H24054   4.236   3.905   4.902 -1.4819  0.6747 -1.6035
  919MOL0     H24055   4.325   3.869   5.083 -0.6918 -0.4508 -1.1873
  919MOL0     H24056   4.248   3.749   5.176  0.9775  2.0327  3.2736
  919MOL0     H24057   4.552   3.784   5.115 -0.7923  0.7974  0.6175
  919MOL0     H24058   4.483   3.647   5.218  0.4168 -0.8027  0.2907
  919MOL0     H24059   4.433   3.802   5.396 -1.4937  1.1073 -0.9965
  919MOL0     H24060   4.446   3.942   5.286 -1.5615  0.1982 -0.7730
  919MOL0     H24061   4.695   3.891   5.241 -0.2990 -0.5315 -0.4855
  919MOL0     H24062   4.670   3.758   5.350  1.3526  0.2029  0.3155
  919MOL0     H24063   4.700   4.116   5.588 -0.7270  2.0815 -1.8078
  919MOL0     H24064   4.429   3.529   4.815 -0.1979 -0.7724 -1.4456
  919MOL0     H24065   4.461   3.592   4.585 -0.5867  0.0372 -0.6101
  920MOL0     O24066   6.742  11.214   6.209 -0.3105 -0.0486  0.4189
  920MOL0     C24067   6.775  11.329   6.180  0.1029 -1.6372  0.7561
  920MOL0     O24068   6.897  11.378   6.209  0.3284 -0.4080  0.1062
  920MOL0     C24069   6.997  11.303   6.269 -0.0800  1.8387  0.7839
  920MOL0     C24070   7.044  11.197   6.199  0.3073  0.2477  0.4042
  920MOL0     C24071   7.154  11.123   6.245  0.8722 -0.9310  0.5244
  920MOL0     C24072   7.229  11.172   6.358  0.1692 -0.2350 -0.6836
  920MOL0     O24073   7.338  11.095   6.385 -0.2166  0.5558 -0.0858
  920MOL0     C24074   7.456  11.164   6.430 -0.7200 -0.2952  0.1904
  920MOL0     C24075   7.577  11.070   6.446  0.0409  0.2872  0.8012
  920MOL0     C24076   7.580  10.974   6.566  1.0913 -0.5376 -0.7850
  920MOL0     C24077   7.616  11.034   6.705 -0.4543 -0.4844 -0.4610
  920MOL0     C24078   7.573  10.953   6.822  0.9000  0.5821  0.3572
  920MOL0     C24079   7.543  11.055   6.940 -1.0531 -0.4745  0.5688
  920MOL0     C24080   7.485  10.991   7.067 -0.3078  0.1799 -0.6995
  920MOL0     C24081   7.586  10.922   7.161 -0.4543  0.9625  0.1529
  920MOL0     N24082   7.517  10.891   7.288 -0.1997 -0.2200  0.2574
  920MOL0     C24083   7.432  10.789   7.305  0.8731  0.7777  0.7212
  920MOL0     C24084   7.396  10.805   7.431 -0.0760  0.6551 -1.1116
  920MOL0     C24085   7.283  10.721   7.499  0.5136 -0.3856  0.3055
  920MOL0     C24086   7.309  10.570   7.494  0.5533 -0.1230  0.7359
  920MOL0     C24087   7.206  10.485   7.573 -0.1115  0.4637 -0.3075
  920MOL0     C24088   7.236  10.335   7.536  1.0366  0.4932 -0.0902
  920MOL0     O24089   7.173  10.241   7.629 -0.0569 -0.1399 -0.0222
  920MOL0     C24090   7.240  10.143   7.706  0.3830 -0.6922 -0.0221
  920MOL0     C24091   7.154  10.050   7.753  0.7712 -0.2120  0.9757
  920MOL0     C24092   7.206   9.940   7.822  0.3426  0.3335 -0.2109
  920MOL0     C24093   7.095   9.849   7.870 -0.1512  0.9356  0.6599
  920MOL0     C24094   7.340   9.923   7.850 -0.1677  0.2698 -0.4500
  920MOL0     C24095   7.404   9.813   7.926 -0.2525 -0.0107 -0.0327
  920MOL0     O24096   7.526   9.834   7.969  0.1903 -0.2732 -0.6187
  920MOL0     C24097   7.589   9.735   8.051 -0.9560  0.4527  0.3527
  920MOL0     C24098   7.556   9.724   8.183 -0.6470  0.2974 -1.0202
  920MOL0     C24099   7.617   9.612   8.253 -0.7743  0.1210 -0.0274
  920MOL0     C24100   7.700   9.516   8.194 -0.4210 -0.4250 -0.8905
  920MOL0     O24101   7.761   9.405   8.251  0.3150 -0.0198 -0.4557
  920MOL0     C24102   7.672   9.322   8.327  0.0304 -0.0427  0.0313
  920MOL0     C24103   7.749   9.185   8.327 -0.4297  0.2973 -0.7412
  920MOL0     C24104   7.685   9.097   8.432 -1.4943  0.2822 -0.1515
  920MOL0     C24105   7.731   8.950   8.400  0.6493 -0.2622  0.2642
  920MOL0     C24106   7.696   8.866   8.523 -0.7689  1.2372 -0.3789
  920MOL0     C24107   7.805   8.749   8.545 -0.6310 -0.3505  0.8239
  920MOL0     C24108   7.756   8.649   8.645 -0.3690 -0.4033 -0.2432
  920MOL0     C24109   7.863   8.544   8.685 -0.2421  0.3750 -0.0761
  920MOL0    Cl24110   7.921   8.460   8.534 -0.5097 -0.1870 -0.2285
  920MOL0     C24111   7.734   9.539   8.060  0.0259  0.5421  0.4564
  920MOL0     C24112   7.679   9.645   7.989  0.4766 -0.5539 -0.2088
  920MOL0     O24113   7.332   9.714   7.945  0.3589 -0.0228  0.8062
  920MOL0     C24114   7.426  10.016   7.792  0.3527  1.3269  0.3985
  920MOL0     C24115   7.371  10.130   7.721 -0.3710  0.2269  0.5842
  920MOL0     N24116   7.459  10.911   7.491  0.2498  0.4948 -0.2378
  920MOL0     N24117   7.540  10.964   7.398  0.3177  0.2565 -0.3523
  920MOL0     C24118   7.189  11.283   6.417  0.0965 -0.3185 -0.5901
  920MOL0     C24119   7.066  11.345   6.379  0.1012 -0.1050  0.2990
  920MOL0     C24120   6.689  11.402   6.093 -0.1059  0.3737  0.0520
  920MOL0     C24121   6.582  11.343   6.016  0.6846 -0.2297 -0.5314
  920MOL0     C24122   6.494  11.429   5.937  0.0327  0.0074 -1.2797
  920MOL0     C24123   6.513  11.569   5.933 -0.4206  0.0252  1.0005
  920MOL0     O24124   6.423  11.645   5.861  0.4195  0.0397 -0.0334
  920MOL0     C24125   6.395  11.779   5.876 -0.1041 -0.2040 -0.6077
  920MOL0     C24126   6.258  11.810   5.932  0.0111  1.0176 -0.9629
  920MOL0     C24127   6.254  11.788   6.085 -0.1885  0.5355 -0.5886
  920MOL0     C24128   6.309  11.922   6.139 -0.2569 -0.6450  0.9370
  920MOL0     C24129   6.276  11.923   6.279  0.2130 -1.0579 -0.1456
  920MOL0     C24130   6.256  11.922   6.400 -0.2673  0.3999  0.0655
  920MOL0     C24131   6.634  11.621   5.993  0.2645  0.3916 -0.3198
  920MOL0     C24132   6.723  11.538   6.070  0.0765  0.2493 -0.0759
  920MOL0     H24133   6.992  11.157   6.113  0.3427 -0.4313  0.6835
  920MOL0     H24134   7.189  11.029   6.203 -0.6910 -1.5530  0.5512
  920MOL0     H24135   7.482  11.240   6.356 -1.4660  0.0388  0.2692
  920MOL0     H24136   7.439  11.226   6.519  2.2347 -0.5644  1.0632
  920MOL0     H24137   7.574  11.022   6.348 -0.4336  1.5876  0.1513
  920MOL0     H24138   7.672  11.125   6.445  0.9952 -1.3276 -0.2531
  920MOL0     H24139   7.479  10.932   6.571  0.5690  0.7996  1.3262
  920MOL0     H24140   7.651  10.892   6.552  2.9140  0.9900 -0.8375
  920MOL0     H24141   7.720  11.063   6.719 -0.4287 -1.3364  1.4496
  920MOL0     H24142   7.565  11.130   6.706  2.1284  1.0417  2.7345
  920MOL0     H24143   7.476  10.907   6.803  1.8662 -0.9636 -1.0817
  920MOL0     H24144   7.637  10.874   6.862  1.2917  1.7081  2.1025
  920MOL0     H24145   7.642  11.097   6.961  0.2526 -1.5813 -2.6917
  920MOL0     H24146   7.475  11.136   6.915 -0.6994 -0.4487 -0.3413
  920MOL0     H24147   7.428  11.058   7.132 -0.6251 -2.0692  1.4766
  920MOL0     H24148   7.412  10.919   7.027 -2.1987  0.9777  1.1044
  920MOL0     H24149   7.671  10.988   7.183 -0.6122  0.4371  2.6216
  920MOL0     H24150   7.636  10.834   7.121 -0.6751  0.5963  0.6738
  920MOL0     H24151   7.392  10.718   7.233 -1.7643  2.6487  0.1710
  920MOL0     H24152   7.263  10.745   7.603  0.7860 -0.9061  0.4828
  920MOL0     H24153   7.186  10.738   7.451 -0.0227  1.1869  1.8414
  920MOL0     H24154   7.411  10.536   7.518  1.0682 -0.4819 -1.6962
  920MOL0     H24155   7.284  10.545   7.390  0.9658  0.2064  0.5516
  920MOL0     H24156   7.107  10.525   7.551 -0.8453 -0.8754  0.4269
  920MOL0     H24157   7.212  10.498   7.681 -0.6310  2.7126 -0.5035
  920MOL0     H24158   7.344  10.321   7.537  1.7719  4.6311 -0.3601
  920MOL0     H24159   7.202  10.320   7.433  0.7229  3.4045 -0.5190
  920MOL0     H24160   7.047  10.059   7.736  0.8979  1.4041  0.9331
  920MOL0     H24161   7.116   9.810   7.970  0.6169  1.0502  0.5498
  920MOL0     H24162   6.996   9.896   7.872 -1.6334 -1.9018  0.1891
  920MOL0     H24163   7.082   9.760   7.807 -0.8481 -0.2883  2.4611
  920MOL0     H24164   7.487   9.798   8.223 -0.2916 -1.1328  2.6769
  920MOL0     H24165   7.584   9.599   8.356 -1.0531 -3.2846 -0.4250
  920MOL0     H24166   7.652   9.369   8.424 -4.3652  1.1100 -1.2333
  920MOL0     H24167   7.580   9.306   8.272 -1.4798  0.2043  2.3459
  920MOL0     H24168   7.769   9.137   8.231  3.6904 -0.8670  0.4916
  920MOL0     H24169   7.855   9.197   8.354  0.0891  0.2982 -2.6417
  920MOL0     H24170   7.576   9.092   8.422 -1.6425 -0.4416  1.5151
  920MOL0     H24171   7.705   9.118   8.537 -1.0515 -0.5907 -0.0528
  920MOL0     H24172   7.689   8.907   8.309  2.1635  1.8189 -1.5359
  920MOL0     H24173   7.837   8.959   8.374  0.1526  3.3569 -1.1772
  920MOL0     H24174   7.598   8.819   8.509 -0.9022  1.5611 -0.5446
  920MOL0     H24175   7.686   8.921   8.616  0.5757 -1.5139  1.5180
  920MOL0     H24176   7.835   8.695   8.455  0.0826  1.1861  0.1012
  920MOL0     H24177   7.900   8.796   8.574 -0.0839  0.7950 -2.4317
  920MOL0     H24178   7.661   8.604   8.617 -0.9027  1.1433 -1.0287
  920MOL0     H24179   7.740   8.701   8.741  0.7569  1.0475 -0.8009
  920MOL0     H24180   7.825   8.464   8.750  3.4676 -2.2730 -0.8795
  920MOL0     H24181   7.951   8.595   8.725  0.7580  0.1942 -1.9473
  920MOL0     H24182   7.802   9.462   8.022  0.0584 -0.9796  3.3536
  920MOL0     H24183   7.702   9.658   7.883  1.2632  1.6884  0.1853
  920MOL0     H24184   7.535  10.018   7.797  0.3106  0.9261  2.6385
  920MOL0     H24185   7.433  10.204   7.670  0.1317 -0.0792  0.7422
  920MOL0     H24186   7.253  11.320   6.496  0.6227 -0.5617 -0.9025
  920MOL0     H24187   7.017  11.426   6.433  0.7389  0.6617 -0.2458
  920MOL0     H24188   6.562  11.237   6.030 -2.0299  0.5082  2.2923
  920MOL0     H24189   6.407  11.388   5.887  0.5418  0.7074 -2.8126
  920MOL0     H24190   6.471  11.831   5.934 -1.1561 -0.5632  1.1812
  920MOL0     H24191   6.404  11.833   5.782 -0.7540  0.7292 -0.1455
  920MOL0     H24192   6.174  11.753   5.893  1.2697 -2.8580  1.4655
  920MOL0     H24193   6.235  11.914   5.907  2.2868  2.0643  0.8699
  920MOL0     H24194   6.302  11.696   6.118  0.1966  0.4568 -1.3361
  920MOL0     H24195   6.146  11.779   6.102 -0.0025  0.4597  0.5850
  920MOL0     H24196   6.259  12.010   6.097  0.1859 -1.9246 -2.6194
  920MOL0     H24197   6.417  11.930   6.126 -0.4171  0.2499  0.0735
  920MOL0     H24198   6.234  11.923   6.505 -2.3355  3.4162 -0.2666
  920MOL0     H24199   6.648  11.727   6.012  3.2063  0.1083 -0.5295
  920MOL0     H24200   6.807  11.586   6.118  0.0447  0.8184 -0.5760
  921MOL0     O24201   9.289   7.096   0.922 -0.5457 -0.4623  0.3245
  921MOL0     C24202   9.329   7.200   0.866 -0.1735 -0.1730 -1.1586
  921MOL0     O24203   9.254   7.282   0.800 -0.1598  0.3727  0.1182
  921MOL0     C24204   9.124   7.256   0.774  1.0667  0.2492 -0.0978
  921MOL0     C24205   9.069   7.133   0.738 -0.6987 -1.0818 -0.0279
  921MOL0     C24206   8.932   7.102   0.751  0.4514 -0.1840  0.7411
  921MOL0     C24207   8.840   7.205   0.778 -0.8568 -0.2955  0.5586
  921MOL0     O24208   8.712   7.174   0.808 -0.5182  0.1488  0.4876
  921MOL0     C24209   8.650   7.230   0.930  0.1976  0.4222 -0.2934
  921MOL0     C24210   8.527   7.142   0.963 -0.2100  0.9912 -0.1633
  921MOL0     C24211   8.454   7.192   1.090 -1.2516 -0.6891  0.2896
  921MOL0     C24212   8.358   7.088   1.140 -0.2875  0.6570 -0.0476
  921MOL0     C24213   8.293   7.135   1.273 -0.7078  0.7847  0.6465
  921MOL0     C24214   8.380   7.083   1.390 -0.2397  0.9368 -0.1713
  921MOL0     C24215   8.341   6.944   1.433  0.0169 -0.8177 -0.5192
  921MOL0     C24216   8.413   6.910   1.562  0.1486  1.1186  0.5172
  921MOL0     N24217   8.366   6.982   1.686  0.4346  1.0669 -0.4047
  921MOL0     C24218   8.253   6.937   1.756  0.2337 -0.4980  0.1731
  921MOL0     C24219   8.261   6.996   1.876 -0.2706  0.1656  0.3625
  921MOL0     C24220   8.178   6.957   1.995  0.0008 -0.3422  0.9934
  921MOL0     C24221   8.043   7.029   1.984  0.1678  1.5142  0.2770
  921MOL0     C24222   7.981   7.062   2.113  0.4042 -0.0872 -0.0663
  921MOL0     C24223   7.840   7.110   2.092 -0.0451  0.5311  0.5140
  921MOL0     O24224   7.837   7.220   2.010  0.5241  0.1504  0.8360
  921MOL0     C24225   7.723   7.271   1.943  0.0674  0.2902 -1.0419
  921MOL0     C24226   7.729   7.376   1.862  0.5487 -0.3046 -0.3344
  921MOL0     C24227   7.615   7.434   1.798  0.2910 -0.0571 -0.9636
  921MOL0     C24228   7.637   7.547   1.701  0.2298  0.8751 -0.5648
  921MOL0     C24229   7.485   7.390   1.834 -0.0174  0.9206 -0.4570
  921MOL0     C24230   7.356   7.459   1.806 -0.6125 -0.8442  0.1414
  921MOL0     O24231   7.238   7.387   1.832 -0.0596  0.0196  0.1293
  921MOL0     C24232   7.106   7.432   1.815 -0.3443  0.2103  0.1713
  921MOL0     C24233   7.014   7.331   1.790  0.2053  1.1966  0.0846
  921MOL0     C24234   6.875   7.372   1.778 -0.2987 -0.9271  0.3878
  921MOL0     C24235   6.839   7.509   1.797  0.3638 -0.9762  0.5379
  921MOL0     O24236   6.703   7.535   1.813 -0.0053 -0.2586  0.0322
  921MOL0     C24237   6.671   7.678   1.828 -0.5107 -0.3043  0.3202
  921MOL0     C24238   6.521   7.702   1.831 -0.7379 -0.4581  0.4043
  921MOL0     C24239   6.484   7.859   1.865  0.6748  0.0954  0.5050
  921MOL0     C24240   6.471   7.923   1.723  0.4621  0.5002  0.4253
  921MOL0     C24241   6.388   8.056   1.716  0.5889  1.2656  0.1405
  921MOL0     C24242   6.380   8.102   1.578 -0.0286 -0.2575 -1.7249
  921MOL0     C24243   6.293   8.233   1.571 -0.6450 -0.1822 -0.5081
  921MOL0     C24244   6.198   8.232   1.440 -0.7768  0.2849  0.8195
  921MOL0    Cl24245   6.292   8.174   1.297 -0.0353 -0.3453  0.1020
  921MOL0     C24246   6.944   7.606   1.826  0.6622 -0.2866 -0.2695
  921MOL0     C24247   7.075   7.564   1.839 -0.2367 -0.2396  0.8049
  921MOL0     O24248   7.366   7.577   1.785 -0.4441 -1.1333  0.8074
  921MOL0     C24249   7.481   7.273   1.916 -0.3251 -0.5207 -0.1155
  921MOL0     C24250   7.601   7.218   1.976 -0.4906  0.0046  0.0061
  921MOL0     N24251   8.380   7.067   1.888  0.5976  0.4319  0.2312
  921MOL0     N24252   8.442   7.054   1.771 -0.0333 -0.7486 -0.6444
  921MOL0     C24253   8.897   7.326   0.795 -0.7142 -0.6348  0.9966
  921MOL0     C24254   9.036   7.351   0.798  0.1537 -0.5415  0.6231
  921MOL0     C24255   9.476   7.228   0.867  0.8547 -0.1873 -0.1899
  921MOL0     C24256   9.570   7.142   0.919 -0.1199  0.2491  0.1421
  921MOL0     C24257   9.707   7.158   0.899  0.4570  0.1419 -0.0151
  921MOL0     C24258   9.764   7.262   0.824  0.4079  0.4374  0.4115
  921MOL0     O24259   9.900   7.285   0.820  0.1692 -0.4400  0.8980
  921MOL0     C24260   9.986   7.172   0.840 -0.5055  0.3656  0.2561
  921MOL0     C24261  10.127   7.191   0.779  0.2119  0.6240  0.2114
  921MOL0     C24262  10.112   7.225   0.626  0.4618  0.2511  0.3160
  921MOL0     C24263  10.118   7.374   0.616  0.3675  0.5108 -0.5587
  921MOL0     C24264  10.129   7.408   0.470 -0.2989 -0.3156  0.1710
  921MOL0     C24265  10.154   7.445   0.358  0.4942 -0.7078 -0.1215
  921MOL0     C24266   9.671   7.350   0.767 -0.0499  0.3721  0.5472
  921MOL0     C24267   9.533   7.333   0.791 -0.5715  0.3707 -0.4526
  921MOL0     H24268   9.131   7.046   0.721  0.7134 -0.1243  0.1068
  921MOL0     H24269   8.912   6.997   0.731  2.8527 -0.4699 -0.6267
  921MOL0     H24270   8.718   7.222   1.016  2.7241  0.2596 -2.1778
  921MOL0     H24271   8.624   7.335   0.912 -0.6433 -0.2003 -3.2434
  921MOL0     H24272   8.462   7.135   0.876  2.1986  0.7268 -2.0303
  921MOL0     H24273   8.569   7.044   0.988 -1.5811  0.3874 -0.1298
  921MOL0     H24274   8.528   7.200   1.170  1.7287  2.7808 -2.4684
  921MOL0     H24275   8.403   7.289   1.080 -1.7721 -1.2536 -5.1981
  921MOL0     H24276   8.275   7.069   1.070  2.5950 -2.4048 -3.0049
  921MOL0     H24277   8.406   6.992   1.160 -1.4646  0.5766  2.8940
  921MOL0     H24278   8.275   7.243   1.274  1.5389  1.2791 -1.4264
  921MOL0     H24279   8.197   7.084   1.278 -0.8870  0.7171 -1.9781
  921MOL0     H24280   8.483   7.088   1.355  0.1572  2.0484  1.0794
  921MOL0     H24281   8.379   7.153   1.474 -1.1810 -1.2049  1.7319
  921MOL0     H24282   8.234   6.946   1.455  0.3412  0.5225  1.1953
  921MOL0     H24283   8.344   6.863   1.359  0.2298 -0.7431 -0.5953
  921MOL0     H24284   8.522   6.912   1.557  0.2732 -0.2126  1.8637
  921MOL0     H24285   8.382   6.806   1.575 -4.2587  2.0485 -0.7328
  921MOL0     H24286   8.184   6.856   1.734 -0.7622  0.3447  0.1320
  921MOL0     H24287   8.150   6.851   1.993 -3.5840  0.4000  3.0387
  921MOL0     H24288   8.231   6.983   2.088 -0.3902  3.2134  0.3490
  921MOL0     H24289   7.979   6.953   1.940  0.5958 -1.5259  4.3250
  921MOL0     H24290   8.037   7.112   1.913 -0.9494 -0.0181 -1.5034
  921MOL0     H24291   8.033   7.144   2.164 -0.6884 -1.7196  4.1653
  921MOL0     H24292   7.981   6.981   2.187 -0.2033 -0.5339 -0.5401
  921MOL0     H24293   7.789   7.140   2.184 -0.2750  1.0058  0.2361
  921MOL0     H24294   7.802   7.024   2.036  0.9395  0.0230  0.5963
  921MOL0     H24295   7.829   7.419   1.856  1.2257 -1.4141  1.8154
  921MOL0     H24296   7.738   7.554   1.660  0.4549 -0.1014 -0.1837
  921MOL0     H24297   7.581   7.517   1.611  1.0969  0.2454 -0.9019
  921MOL0     H24298   7.601   7.647   1.730 -1.0209 -0.1777  1.7560
  921MOL0     H24299   7.058   7.234   1.770 -1.9179  0.3711 -1.0023
  921MOL0     H24300   6.800   7.299   1.753 -1.4972  0.4659 -0.2392
  921MOL0     H24301   6.707   7.721   1.921 -1.3771  0.4264  0.3365
  921MOL0     H24302   6.713   7.730   1.741  1.8173 -1.6011  0.5973
  921MOL0     H24303   6.484   7.671   1.733  0.8512 -0.3800 -0.2494
  921MOL0     H24304   6.475   7.639   1.908  0.7129 -1.0257  0.8477
  921MOL0     H24305   6.564   7.912   1.918  0.3062  2.3269 -0.9943
  921MOL0     H24306   6.389   7.856   1.918  0.5263 -4.3349  0.3002
  921MOL0     H24307   6.560   7.964   1.673 -0.8659  3.1369  0.0070
  921MOL0     H24308   6.426   7.856   1.649  1.2835  0.2734  0.1180
  921MOL0     H24309   6.443   8.132   1.773  3.9438  0.2466 -1.5111
  921MOL0     H24310   6.285   8.037   1.748  1.2826 -1.2610  1.0223
  921MOL0     H24311   6.483   8.112   1.542  1.0424  1.7361  1.4643
  921MOL0     H24312   6.341   8.020   1.517 -2.3467 -1.2605  0.8970
  921MOL0     H24313   6.367   8.313   1.566 -3.4952  2.7664  0.8932
  921MOL0     H24314   6.230   8.244   1.659  0.2032 -4.1659  0.7871
  921MOL0     H24315   6.153   8.331   1.424 -1.6773 -0.1998  0.2765
  921MOL0     H24316   6.115   8.164   1.465  0.7956 -1.7741  0.6865
  921MOL0     H24317   6.924   7.712   1.842  0.9706 -0.4378  1.2114
  921MOL0     H24318   7.158   7.632   1.854  1.9414 -2.4115 -0.7823
  921MOL0     H24319   7.383   7.240   1.948 -0.6100 -0.9669 -1.3962
  921MOL0     H24320   7.585   7.126   2.031 -2.2011  0.6792  0.6849
  921MOL0     H24321   8.844   7.418   0.817 -2.5067 -1.3172 -0.2684
  921MOL0     H24322   9.080   7.449   0.814  2.2738 -1.6183  1.8418
  921MOL0     H24323   9.533   7.066   0.988  0.8258  1.8363  2.5250
  921MOL0     H24324   9.778   7.082   0.930  1.9113  0.3330 -2.6489
  921MOL0     H24325  10.003   7.151   0.946  0.9561 -0.5484 -0.1173
  921MOL0     H24326   9.938   7.085   0.793 -4.1965  1.9347  0.7632
  921MOL0     H24327  10.181   7.096   0.789  0.0717  0.5155 -0.0371
  921MOL0     H24328  10.190   7.261   0.834  1.5257 -0.5241  0.2182
  921MOL0     H24329  10.016   7.185   0.591  0.7185  0.0457 -0.1691
  921MOL0     H24330  10.184   7.169   0.565 -0.7260 -2.9339  1.6155
  921MOL0     H24331  10.207   7.402   0.673  0.1814 -0.9215  0.4834
  921MOL0     H24332  10.029   7.415   0.664  0.2538  0.5748 -0.8189
  921MOL0     H24333  10.170   7.491   0.262 -0.9862  0.4567  0.1537
  921MOL0     H24334   9.687   7.427   0.692 -0.6846  2.2490  2.2425
  921MOL0     H24335   9.469   7.414   0.757 -1.8558  0.9263  2.9360
  922MOL0     O24336   7.058   2.343   3.172  0.1064 -0.9110  0.0461
  922MOL0     C24337   6.952   2.386   3.120  0.3782  0.4699 -1.1922
  922MOL0     O24338   6.913   2.522   3.101 -0.3314 -0.2475  0.6091
  922MOL0     C24339   6.997   2.627   3.142 -0.6142 -0.2009 -0.7109
  922MOL0     C24340   6.914   2.739   3.186 -0.0063  0.1489  0.1735
  922MOL0     C24341   6.973   2.858   3.200 -0.0745 -0.3826  0.1449
  922MOL0     C24342   7.112   2.873   3.180 -0.8988  0.1417 -0.5388
  922MOL0     O24343   7.188   2.989   3.172 -0.2827  0.5668 -0.0465
  922MOL0     C24344   7.137   3.108   3.240  0.0387 -0.0106 -0.7096
  922MOL0     C24345   7.245   3.215   3.238  0.3429 -0.4989  0.2867
  922MOL0     C24346   7.203   3.340   3.296 -0.6915 -0.6767  0.6576
  922MOL0     C24347   7.330   3.433   3.315  0.0888  0.1491 -0.5386
  922MOL0     C24348   7.299   3.558   3.391 -0.0888  0.0967 -0.4413
  922MOL0     C24349   7.428   3.637   3.384 -0.4608 -0.6604 -0.4023
  922MOL0     C24350   7.535   3.599   3.481 -0.0478  0.3082 -0.5626
  922MOL0     C24351   7.650   3.699   3.508 -0.3338  0.0963  0.4474
  922MOL0     N24352   7.757   3.638   3.598  0.5536 -0.1907  1.0589
  922MOL0     C24353   7.738   3.615   3.732  0.5614  0.8426 -0.4577
  922MOL0     C24354   7.859   3.591   3.778 -0.2151 -0.4490 -0.1353
  922MOL0     C24355   7.905   3.591   3.922  0.6974 -0.1807 -0.2857
  922MOL0     C24356   7.800   3.590   4.033 -0.4555  0.1220 -0.2315
  922MOL0     C24357   7.857   3.603   4.173  0.9079  0.0512  0.2264
  922MOL0     C24358   7.771   3.588   4.287 -0.6630 -0.1450 -0.3032
  922MOL0     O24359   7.698   3.467   4.291  0.9318  0.3649  0.2882
  922MOL0     C24360   7.564   3.492   4.289 -0.2745 -0.8930  0.1130
  922MOL0     C24361   7.492   3.558   4.392  0.1086  0.0827  1.0208
  922MOL0     C24362   7.353   3.565   4.402 -0.0097  0.3444 -0.4627
  922MOL0     C24363   7.302   3.637   4.525 -0.1287 -0.2886 -0.5460
  922MOL0     C24364   7.273   3.483   4.312 -0.9708 -1.0193 -0.5705
  922MOL0     C24365   7.125   3.485   4.306 -0.4614  0.2566  0.0032
  922MOL0     O24366   7.068   3.494   4.182  0.5032  0.2253  0.3225
  922MOL0     C24367   6.931   3.508   4.161 -0.8652  0.3055 -0.0990
  922MOL0     C24368   6.892   3.603   4.063 -0.3257  0.4516  0.3910
  922MOL0     C24369   6.765   3.627   4.042 -0.6747 -0.8820 -0.7470
  922MOL0     C24370   6.660   3.545   4.084  0.3592 -0.2010 -0.1515
  922MOL0     O24371   6.523   3.566   4.064 -0.5518  0.0023  0.0173
  922MOL0     C24372   6.482   3.646   3.949 -0.1816 -1.0206  0.6980
  922MOL0     C24373   6.484   3.576   3.817 -0.3341 -0.2006  0.6517
  922MOL0     C24374   6.383   3.465   3.825  0.4947 -0.4622 -0.0323
  922MOL0     C24375   6.351   3.397   3.702 -0.1975  1.0172  0.4600
  922MOL0     C24376   6.217   3.326   3.733 -0.3730  0.5599  0.9289
  922MOL0     C24377   6.191   3.242   3.595  0.1949  0.3530 -1.0334
  922MOL0     C24378   6.049   3.189   3.591  0.1064  0.7478  1.0748
  922MOL0     C24379   6.006   3.078   3.702 -0.1412 -1.1646  0.4282
  922MOL0    Cl24380   6.131   2.956   3.722 -0.6152  0.0762  0.4357
  922MOL0     C24381   6.692   3.447   4.175  0.3934  0.1312  1.0401
  922MOL0     C24382   6.832   3.426   4.208 -0.1952 -0.0706  0.4939
  922MOL0     O24383   7.057   3.480   4.415 -0.5767 -0.4072 -0.3779
  922MOL0     C24384   7.345   3.411   4.211  0.5841 -0.2445  0.2168
  922MOL0     C24385   7.485   3.423   4.195 -0.5450 -0.2435 -0.3614
  922MOL0     N24386   7.949   3.584   3.681 -0.3496 -0.6415  1.0103
  922MOL0     N24387   7.884   3.623   3.562  0.3077 -0.0044  0.7795
  922MOL0     C24388   7.192   2.764   3.146 -0.0075  0.3039  0.5933
  922MOL0     C24389   7.140   2.637   3.131  0.2198 -0.2373  0.2889
  922MOL0     C24390   6.848   2.285   3.071  0.6235 -0.7890 -0.1294
  922MOL0     C24391   6.870   2.151   3.069 -0.5047 -0.3839 -0.1252
  922MOL0     C24392   6.771   2.071   3.035  0.4301  1.3156 -0.1275
  922MOL0     C24393   6.640   2.117   3.026  0.2520 -0.1542 -0.1944
  922MOL0     O24394   6.528   2.034   2.998  0.4220  0.3697 -0.4169
  922MOL0     C24395   6.545   1.897   2.983  0.2059 -0.3951  0.4485
  922MOL0     C24396   6.406   1.828   2.979 -0.3475 -0.4697 -0.6918
  922MOL0     C24397   6.322   1.876   2.855 -0.4186 -0.3858 -0.2199
  922MOL0     C24398   6.366   1.809   2.720 -0.2641 -0.6331 -0.8554
  922MOL0     C24399   6.248   1.761   2.640  0.3776 -0.6850  0.0585
  922MOL0     C24400   6.153   1.738   2.566 -0.7124 -0.2484 -1.0919
  922MOL0     C24401   6.611   2.250   3.028  1.0724  0.7545  0.6509
  922MOL0     C24402   6.711   2.337   3.048  0.3735  0.6560  0.8868
  922MOL0     H24403   6.814   2.711   3.216 -0.7633  0.0565 -2.2130
  922MOL0     H24404   6.917   2.945   3.234  2.0565  0.5184  1.5393
  922MOL0     H24405   7.052   3.153   3.188 -0.9245 -1.8537 -0.8007
  922MOL0     H24406   7.103   3.089   3.343  0.7200 -2.0429 -0.8297
  922MOL0     H24407   7.328   3.186   3.303  1.3822 -1.6268 -1.4613
  922MOL0     H24408   7.286   3.240   3.139  3.2959  0.8039  1.7070
  922MOL0     H24409   7.139   3.393   3.223  2.1155 -3.0634 -4.0017
  922MOL0     H24410   7.150   3.326   3.391  0.6988  0.2164  1.5955
  922MOL0     H24411   7.392   3.376   3.384 -0.5221  1.7971  1.5062
  922MOL0     H24412   7.388   3.446   3.224  1.5501 -1.3143  0.1296
  922MOL0     H24413   7.225   3.607   3.327  1.5432  2.6992 -0.4828
  922MOL0     H24414   7.260   3.548   3.492  4.5397  2.2319  1.8481
  922MOL0     H24415   7.477   3.625   3.287  0.6938 -1.2531  0.2372
  922MOL0     H24416   7.404   3.744   3.386 -0.5576 -0.6878  0.0428
  922MOL0     H24417   7.477   3.573   3.570 -1.8100 -0.2214 -1.8234
  922MOL0     H24418   7.571   3.503   3.441 -1.9564 -0.1476 -1.3019
  922MOL0     H24419   7.606   3.794   3.539  0.4189  0.5731  0.0703
  922MOL0     H24420   7.692   3.724   3.411  0.9403  1.1740  1.2489
  922MOL0     H24421   7.640   3.626   3.778  0.2809  0.3000 -0.8990
  922MOL0     H24422   7.973   3.506   3.928 -0.5898 -1.3613 -1.7038
  922MOL0     H24423   7.969   3.679   3.931 -2.1046  1.9678  0.2085
  922MOL0     H24424   7.742   3.498   4.017  1.9595 -0.9208 -4.7236
  922MOL0     H24425   7.730   3.674   4.021  1.8541  2.1465 -0.2345
  922MOL0     H24426   7.891   3.707   4.174 -0.8228  0.6527 -0.1490
  922MOL0     H24427   7.944   3.539   4.189  0.9451 -0.3114 -1.2669
  922MOL0     H24428   7.702   3.671   4.273 -3.1520 -2.2270 -1.0613
  922MOL0     H24429   7.842   3.595   4.370  1.4650 -1.0486 -1.9410
  922MOL0     H24430   7.562   3.613   4.454  2.8453 -2.1578  0.1845
  922MOL0     H24431   7.367   3.719   4.555  0.9768 -1.8367  1.6600
  922MOL0     H24432   7.201   3.675   4.506  0.0489 -1.1257 -3.7469
  922MOL0     H24433   7.300   3.579   4.618  0.2967  3.8802  2.3497
  922MOL0     H24434   6.973   3.665   4.025  0.5595 -1.7737 -1.6347
  922MOL0     H24435   6.739   3.712   3.980 -2.6802 -0.0799  1.0608
  922MOL0     H24436   6.374   3.660   3.960 -0.6841 -3.8762  0.2455
  922MOL0     H24437   6.531   3.744   3.950  0.4471 -1.3360  1.1418
  922MOL0     H24438   6.472   3.644   3.733  0.9192 -0.4313  0.2707
  922MOL0     H24439   6.581   3.526   3.807 -0.4140 -0.5125  1.3412
  922MOL0     H24440   6.287   3.508   3.856  0.0586 -1.1284 -0.4379
  922MOL0     H24441   6.419   3.386   3.891  1.7781 -1.4518 -1.8306
  922MOL0     H24442   6.337   3.467   3.618 -3.2067 -0.4956 -0.4471
  922MOL0     H24443   6.427   3.329   3.664 -0.3377  2.7961 -3.4381
  922MOL0     H24444   6.130   3.389   3.753 -1.7062 -0.8932 -0.1074
  922MOL0     H24445   6.230   3.260   3.820  2.3163  0.0566  0.2453
  922MOL0     H24446   6.202   3.311   3.511  1.5849  0.5501 -0.7157
  922MOL0     H24447   6.266   3.165   3.573  0.8298  0.6379  0.0548
  922MOL0     H24448   6.032   3.155   3.489 -2.9431 -1.3995  2.1414
  922MOL0     H24449   5.984   3.276   3.603  0.1114  0.7447  1.1250
  922MOL0     H24450   5.901   3.052   3.682 -0.8815  2.5277 -1.2705
  922MOL0     H24451   5.992   3.132   3.796 -0.0200 -1.7700  0.8047
  922MOL0     H24452   6.609   3.390   4.216  3.2896 -2.7609  3.3054
  922MOL0     H24453   6.861   3.352   4.282 -2.6860 -3.1641 -1.3541
  922MOL0     H24454   7.292   3.353   4.136 -1.1429  2.7343 -1.0433
  922MOL0     H24455   7.536   3.362   4.122 -0.1221  0.1380 -0.3895
  922MOL0     H24456   7.297   2.788   3.143  0.4319 -1.5211  0.0422
  922MOL0     H24457   7.186   2.544   3.100 -3.4205 -1.9615 -0.4651
  922MOL0     H24458   6.977   2.131   3.081 -0.2334  1.9743  2.2476
  922MOL0     H24459   6.800   1.967   3.048  3.9325  2.2711  0.9612
  922MOL0     H24460   6.596   1.886   2.887 -0.2248  2.1918 -0.1366
  922MOL0     H24461   6.611   1.854   3.059  1.4944 -3.1126 -2.0002
  922MOL0     H24462   6.355   1.858   3.071  3.2618  0.7828  1.0648
  922MOL0     H24463   6.420   1.720   2.987 -3.2491 -0.9992 -1.6904
  922MOL0     H24464   6.355   1.980   2.848  0.0258 -0.3269  2.0447
  922MOL0     H24465   6.213   1.870   2.868 -0.2504 -0.4891  1.3525
  922MOL0     H24466   6.421   1.718   2.743  1.8391  0.6884 -0.4404
  922MOL0     H24467   6.435   1.880   2.675 -2.3506  0.0431 -3.2266
  922MOL0     H24468   6.066   1.727   2.504 -1.8076  0.9667  0.1591
  922MOL0     H24469   6.505   2.273   3.029  0.6053 -0.5461 -3.1280
  922MOL0     H24470   6.685   2.442   3.057 -1.0157  1.3076 -5.8212
  923MOL0     O24471   1.904  10.901   1.270  0.2640 -0.2013 -1.1213
  923MOL0     C24472   1.933  10.795   1.326 -0.2205  0.2471 -0.0830
  923MOL0     O24473   2.018  10.697   1.285 -0.8945 -0.0529 -0.1836
  923MOL0     C24474   2.100  10.722   1.185 -0.3553  0.5769 -0.4105
  923MOL0     C24475   2.225  10.662   1.206  0.0581 -0.9066 -0.4066
  923MOL0     C24476   2.325  10.680   1.100  0.4181  0.0646  0.0628
  923MOL0     C24477   2.288  10.728   0.972  0.7182  0.1787  0.6871
  923MOL0     O24478   2.378  10.743   0.861  0.0828 -0.0360  0.2624
  923MOL0     C24479   2.522  10.736   0.879 -0.2239 -0.3310 -0.5076
  923MOL0     C24480   2.570  10.709   0.739 -0.1621 -0.3013 -0.3278
  923MOL0     C24481   2.712  10.666   0.738  0.6502 -0.5907  0.3440
  923MOL0     C24482   2.751  10.572   0.617 -0.2568  0.2394 -0.4183
  923MOL0     C24483   2.896  10.530   0.634 -0.5203 -1.0392 -0.6667
  923MOL0     C24484   2.941  10.447   0.516 -0.4354  0.6060  0.3661
  923MOL0     C24485   3.063  10.502   0.446  0.2656  0.9186 -0.3228
  923MOL0     C24486   3.157  10.391   0.385  0.1360  0.0708  0.5491
  923MOL0     N24487   3.253  10.339   0.479  0.1145  0.0449 -0.5554
  923MOL0     C24488   3.251  10.218   0.539  0.0082  0.1409  0.6624
  923MOL0     C24489   3.380  10.191   0.570 -0.3244  0.4578 -0.6597
  923MOL0     C24490   3.420  10.084   0.665 -0.3965  1.1563  0.6871
  923MOL0     C24491   3.353   9.950   0.637 -0.7441 -1.1357 -0.3747
  923MOL0     C24492   3.386   9.898   0.495  0.2583 -0.4701  0.0415
  923MOL0     C24493   3.293   9.788   0.442  1.3238 -0.0428  0.9052
  923MOL0     O24494   3.288   9.686   0.532  0.2882 -0.4807  0.1044
  923MOL0     C24495   3.248   9.561   0.497 -0.1375 -0.5268 -0.1224
  923MOL0     C24496   3.267   9.464   0.600  0.2380 -0.0738 -0.1719
  923MOL0     C24497   3.259   9.321   0.581  0.4283  0.7126 -1.4534
  923MOL0     C24498   3.298   9.230   0.695 -1.4819  0.4106 -0.3766
  923MOL0     C24499   3.211   9.287   0.452 -0.2576  0.2977  0.5057
  923MOL0     C24500   3.195   9.153   0.413  0.7111  0.1443  0.5265
  923MOL0     O24501   3.099   9.131   0.320  0.0894 -0.1295  0.4673
  923MOL0     C24502   3.100   9.002   0.261  0.2742  1.1387  0.6236
  923MOL0     C24503   3.018   8.894   0.294  0.3313 -0.0039  0.9182
  923MOL0     C24504   3.014   8.776   0.216  0.2086  0.4815 -0.2564
  923MOL0     C24505   3.099   8.758   0.109 -0.4877  0.1292 -0.0990
  923MOL0     O24506   3.108   8.639   0.039 -0.0483 -0.3586  0.6038
  923MOL0     C24507   2.991   8.554   0.012 -0.2491 -0.9685  0.3571
  923MOL0     C24508   2.980   8.482  -0.121 -0.4540 -0.5606  0.4799
  923MOL0     C24509   3.122   8.424  -0.165 -0.8347  0.0106  0.1238
  923MOL0     C24510   3.098   8.376  -0.315  1.2080  0.3010 -0.1942
  923MOL0     C24511   3.172   8.250  -0.366 -0.1750  1.1389  0.2345
  923MOL0     C24512   3.160   8.232  -0.520  0.2994 -0.2592 -0.4697
  923MOL0     C24513   3.212   8.098  -0.573  0.7404 -0.1611  0.0398
  923MOL0     C24514   3.237   8.107  -0.727 -0.3281  0.7807 -0.0807
  923MOL0    Cl24515   3.090   8.108  -0.827  0.4673 -0.1294  0.2987
  923MOL0     C24516   3.193   8.857   0.068  0.2343  0.9125 -0.2861
  923MOL0     C24517   3.194   8.972   0.148  0.2602  0.0165  0.8669
  923MOL0     O24518   3.278   9.070   0.449 -0.0490 -0.2155  0.2958
  923MOL0     C24519   3.169   9.388   0.361  0.5599 -0.5142  0.0905
  923MOL0     C24520   3.193   9.523   0.382 -0.3472  0.7280 -0.5100
  923MOL0     N24521   3.461  10.286   0.519  0.6072  0.2024 -1.8436
  923MOL0     N24522   3.385  10.379   0.469 -0.2112  0.8929 -0.5106
  923MOL0     C24523   2.161  10.787   0.952  0.2014 -0.2786  0.4714
  923MOL0     C24524   2.067  10.778   1.058  0.5859  0.4891  1.2309
  923MOL0     C24525   1.863  10.771   1.456 -0.5613 -0.5179 -0.9808
  923MOL0     C24526   1.918  10.686   1.553  0.4012 -0.4472  0.5000
  923MOL0     C24527   1.851  10.668   1.678  0.2353 -0.5557 -0.4186
  923MOL0     C24528   1.741  10.747   1.710 -0.3476 -0.4963  0.2626
  923MOL0     O24529   1.688  10.745   1.835  0.6127 -0.1387  0.4759
  923MOL0     C24530   1.697  10.865   1.917 -0.6809  0.3777 -0.3178
  923MOL0     C24531   1.800  10.851   2.032  0.2454  0.4942  0.1052
  923MOL0     C24532   1.767  10.737   2.132 -0.1099 -0.1724 -0.1981
  923MOL0     C24533   1.766  10.594   2.074  0.3662  0.0722 -0.4974
  923MOL0     C24534   1.791  10.505   2.186 -0.1155  0.4393  0.0816
  923MOL0     C24535   1.814  10.431   2.277 -0.5077  1.0608 -0.1713
  923MOL0     C24536   1.685  10.838   1.619  0.8970 -0.1535  0.4643
  923MOL0     C24537   1.753  10.851   1.497  0.4406 -0.7062  0.1185
  923MOL0     H24538   2.270  10.612   1.292 -1.2278  1.4029  1.7497
  923MOL0     H24539   2.427  10.643   1.109 -0.4386 -2.5727 -0.3095
  923MOL0     H24540   2.566  10.829   0.916  5.5921 -2.3418 -1.3197
  923MOL0     H24541   2.552  10.651   0.940  0.4712 -1.5530 -2.4655
  923MOL0     H24542   2.526  10.619   0.696  1.7983 -1.9702  0.9727
  923MOL0     H24543   2.544  10.793   0.673 -2.6333  0.1022  1.0364
  923MOL0     H24544   2.768  10.759   0.729  0.2456 -0.4577 -1.0405
  923MOL0     H24545   2.737  10.610   0.829 -1.6754 -3.6591 -0.7157
  923MOL0     H24546   2.680  10.489   0.607 -3.6961  3.1163 -2.0011
  923MOL0     H24547   2.734  10.626   0.524 -0.1998  1.6858  0.3789
  923MOL0     H24548   2.959  10.619   0.646  3.1382 -3.0591 -3.0188
  923MOL0     H24549   2.918  10.475   0.726 -1.6338 -0.0030  0.2503
  923MOL0     H24550   2.945  10.348   0.563 -2.9993 -1.2682 -2.8699
  923MOL0     H24551   2.853  10.432   0.452 -0.0244  3.6781 -1.0650
  923MOL0     H24552   3.025  10.573   0.372 -2.5271  0.6913  0.7838
  923MOL0     H24553   3.117  10.559   0.523 -2.0137 -0.2365  2.3024
  923MOL0     H24554   3.199  10.428   0.291 -1.6543  2.5913  0.6253
  923MOL0     H24555   3.091  10.307   0.365  1.1325 -0.6341  0.1423
  923MOL0     H24556   3.164  10.158   0.564  0.6594 -1.7284 -1.2474
  923MOL0     H24557   3.525  10.065   0.641 -0.3514 -0.0941  1.7657
  923MOL0     H24558   3.407  10.121   0.767 -3.2329  2.6021 -0.0924
  923MOL0     H24559   3.249   9.954   0.669 -0.8539  0.8065 -0.8681
  923MOL0     H24560   3.404   9.881   0.705  0.1950  0.5674  0.7155
  923MOL0     H24561   3.486   9.857   0.484  0.0857 -1.2840  1.3129
  923MOL0     H24562   3.375   9.982   0.426 -0.2360 -1.4135 -1.0643
  923MOL0     H24563   3.320   9.754   0.342  0.6057 -1.6280  1.2135
  923MOL0     H24564   3.195   9.836   0.434  0.5727 -1.3067  1.9734
  923MOL0     H24565   3.302   9.481   0.701  1.2792 -3.1305  0.0852
  923MOL0     H24566   3.387   9.170   0.678  0.3908  1.8969  3.0998
  923MOL0     H24567   3.319   9.281   0.789 -0.0937  0.4409 -0.6890
  923MOL0     H24568   3.211   9.168   0.718 -1.7799  1.2543  0.8676
  923MOL0     H24569   2.955   8.905   0.381  0.2324 -0.2088  0.8724
  923MOL0     H24570   2.954   8.696   0.256 -1.0578  1.0431 -0.9736
  923MOL0     H24571   3.003   8.468   0.078 -0.8407 -1.2573  0.0969
  923MOL0     H24572   2.897   8.602   0.040 -0.0628 -2.0895  3.2846
  923MOL0     H24573   2.914   8.396  -0.101 -0.8365 -0.0165  1.6211
  923MOL0     H24574   2.931   8.537  -0.202 -1.0298 -3.2554 -1.1218
  923MOL0     H24575   3.139   8.331  -0.110 -1.5065  0.0391  0.4000
  923MOL0     H24576   3.208   8.491  -0.155 -1.0583  0.0638  2.0809
  923MOL0     H24577   2.991   8.356  -0.331  0.4775 -0.3570  4.2327
  923MOL0     H24578   3.118   8.468  -0.371 -2.8244  3.0271  2.2605
  923MOL0     H24579   3.110   8.167  -0.332  2.5110 -1.2713 -0.3954
  923MOL0     H24580   3.272   8.244  -0.322 -0.9143 -0.2863  1.8399
  923MOL0     H24581   3.058   8.232  -0.561 -1.2451  1.5401  2.9679
  923MOL0     H24582   3.217   8.316  -0.562  4.7798 -1.2674  2.8700
  923MOL0     H24583   3.151   8.010  -0.549  0.2312  0.6700  1.9917
  923MOL0     H24584   3.306   8.076  -0.520  0.6748 -0.1274  0.1697
  923MOL0     H24585   3.295   8.015  -0.740  0.4465  1.3679 -0.8862
  923MOL0     H24586   3.308   8.183  -0.760 -0.5757  0.3495 -1.7274
  923MOL0     H24587   3.259   8.845  -0.017  1.5173  0.5665  0.7258
  923MOL0     H24588   3.258   9.056   0.122  0.1503 -0.3069 -0.4841
  923MOL0     H24589   3.118   9.365   0.267  0.8182 -3.6539  0.6069
  923MOL0     H24590   3.164   9.610   0.325  1.9706  1.8538 -0.0738
  923MOL0     H24591   2.124  10.815   0.854 -1.0850 -1.9586  0.4295
  923MOL0     H24592   1.963  10.806   1.046  0.1211 -0.5611  2.6343
  923MOL0     H24593   2.014  10.637   1.544  0.3796 -0.4969  0.5405
  923MOL0     H24594   1.895  10.609   1.758 -1.7301  1.9327  2.7134
  923MOL0     H24595   1.705  10.958   1.861 -2.5399  1.6345  1.3375
  923MOL0     H24596   1.603  10.877   1.972  1.7928  1.0338  4.3395
  923MOL0     H24597   1.808  10.944   2.089  1.2177 -1.4474  3.3994
  923MOL0     H24598   1.898  10.837   1.987 -0.7257  0.0443 -1.9917
  923MOL0     H24599   1.669  10.738   2.180  1.3098 -1.4062  3.0236
  923MOL0     H24600   1.840  10.749   2.212  1.9576 -0.2859 -1.9690
  923MOL0     H24601   1.851  10.581   2.008  0.1642  1.6418 -1.1051
  923MOL0     H24602   1.664  10.574   2.038 -0.8631 -0.6778  2.9676
  923MOL0     H24603   1.834  10.373   2.365 -1.3097  1.4395  0.2700
  923MOL0     H24604   1.610  10.913   1.642  1.1928  1.2502 -2.5844
  923MOL0     H24605   1.707  10.931   1.441  1.1507  0.2105  0.7987
  924MOL0     O24606   7.923   8.871   2.862  0.5054  0.2412 -0.0132
  924MOL0     C24607   7.985   8.966   2.804 -0.0604 -0.0633 -0.1075
  924MOL0     O24608   7.941   9.096   2.795 -0.6015  0.3975  0.1385
  924MOL0     C24609   7.821   9.119   2.858  0.6010  0.5839  0.3720
  924MOL0     C24610   7.792   9.093   2.999 -0.1086 -0.2843  1.6004
  924MOL0     C24611   7.682   9.149   3.061 -0.0365  0.0315  0.1896
  924MOL0     C24612   7.587   9.208   2.986 -0.3136  0.6470  0.0370
  924MOL0     O24613   7.472   9.251   3.045  0.0094  0.6107 -0.0251
  924MOL0     C24614   7.422   9.376   3.003 -0.4374 -0.3753  0.1657
  924MOL0     C24615   7.510   9.499   3.017  0.1094 -0.2805 -0.6473
  924MOL0     C24616   7.431   9.620   2.961  0.5051 -0.5860 -1.0773
  924MOL0     C24617   7.312   9.657   3.041 -0.0836  0.4074 -0.2934
  924MOL0     C24618   7.295   9.810   3.059  0.0446 -0.1602 -0.0044
  924MOL0     C24619   7.164   9.830   3.134  0.3296  0.0145 -0.4409
  924MOL0     C24620   7.146   9.969   3.179 -0.3802 -0.4633 -0.8417
  924MOL0     C24621   7.163  10.087   3.075  1.1015  0.3343  1.0778
  924MOL0     N24622   7.089  10.059   2.949 -0.5514 -0.5880 -0.8516
  924MOL0     C24623   6.956  10.090   2.943  0.8644  1.4504  0.5590
  924MOL0     C24624   6.931  10.081   2.807 -0.6528 -1.0203 -0.7410
  924MOL0     C24625   6.798  10.095   2.730  1.2075 -0.1315  0.6442
  924MOL0     C24626   6.746   9.966   2.666 -0.4213 -0.6385 -0.4298
  924MOL0     C24627   6.725   9.848   2.762  0.4512  0.8997  0.1228
  924MOL0     C24628   6.627   9.857   2.889  0.2210 -0.9599  0.3756
  924MOL0     O24629   6.486   9.864   2.856  0.0906 -0.1616  0.3129
  924MOL0     C24630   6.403   9.799   2.936 -0.3249 -0.0866  0.1561
  924MOL0     C24631   6.341   9.858   3.042 -0.6167  0.4464  1.3565
  924MOL0     C24632   6.260   9.786   3.132 -0.5155  0.1668  0.3494
  924MOL0     C24633   6.216   9.883   3.245 -0.3744 -0.2302 -0.2504
  924MOL0     C24634   6.221   9.653   3.113 -0.4963 -0.7493  0.6899
  924MOL0     C24635   6.138   9.572   3.199 -0.3189  0.5830 -0.0746
  924MOL0     O24636   6.151   9.436   3.177  0.2856 -0.3218 -0.6540
  924MOL0     C24637   6.058   9.355   3.229 -0.5850  0.9507  0.8452
  924MOL0     C24638   6.053   9.323   3.361 -0.1715  0.2730 -0.9339
  924MOL0     C24639   5.966   9.232   3.419  0.0571  0.6724 -0.2805
  924MOL0     C24640   5.864   9.174   3.335  0.0751  0.7059  0.4678
  924MOL0     O24641   5.778   9.076   3.386  0.8721 -0.1295 -0.2685
  924MOL0     C24642   5.695   8.997   3.303  0.0584  0.2778  0.3766
  924MOL0     C24643   5.570   9.071   3.255  0.6272  0.0386  0.9411
  924MOL0     C24644   5.453   8.992   3.195  0.0230  1.0451  0.2195
  924MOL0     C24645   5.340   9.078   3.142 -0.1179 -0.4780  0.1744
  924MOL0     C24646   5.234   8.987   3.078  0.0792  0.0819  0.5010
  924MOL0     C24647   5.136   9.073   2.999 -0.4949 -0.6105 -0.8558
  924MOL0     C24648   5.041   8.987   2.914 -0.2096  0.0692  0.1346
  924MOL0     C24649   4.954   9.058   2.807 -0.1159 -0.5483  0.2650
  924MOL0    Cl24650   4.867   9.193   2.890 -0.1790 -0.1870 -0.0081
  924MOL0     C24651   5.873   9.205   3.195  0.5085  1.4889  0.4803
  924MOL0     C24652   5.970   9.286   3.143  0.5438 -0.6736 -0.4759
  924MOL0     O24653   6.066   9.624   3.283 -0.4522 -0.2335 -0.2534
  924MOL0     C24654   6.284   9.598   3.000  0.1763  0.2018 -0.5736
  924MOL0     C24655   6.369   9.665   2.913 -0.0438 -0.0688  0.3454
  924MOL0     N24656   7.043  10.042   2.741 -0.2714 -0.2104  0.0563
  924MOL0     N24657   7.142  10.042   2.821  0.5063 -0.0602 -0.1511
  924MOL0     C24658   7.612   9.239   2.849  0.8665  0.0670  0.0514
  924MOL0     C24659   7.729   9.202   2.789  0.1193 -0.3348 -0.6105
  924MOL0     C24660   8.111   8.941   2.737 -0.0115 -0.1592  0.3290
  924MOL0     C24661   8.154   8.814   2.719 -0.0655  0.7683 -0.6092
  924MOL0     C24662   8.280   8.786   2.671  0.0627  0.0699 -0.7822
  924MOL0     C24663   8.366   8.883   2.619 -0.0800  0.7118 -0.0585
  924MOL0     O24664   8.494   8.845   2.589 -0.0820  0.3002 -0.3072
  924MOL0     C24665   8.520   8.807   2.454 -0.8734 -0.3863 -0.8829
  924MOL0     C24666   8.528   8.927   2.362  0.1859  0.8026  0.0484
  924MOL0     C24667   8.612   9.039   2.419  0.0305 -0.0170  0.6481
  924MOL0     C24668   8.761   9.019   2.424  0.8133  0.3108 -0.2150
  924MOL0     C24669   8.827   9.112   2.514  0.0575  0.5837  0.3099
  924MOL0     C24670   8.891   9.176   2.596  0.3403  1.2099  0.5328
  924MOL0     C24671   8.322   9.018   2.612  0.5443 -0.3649  0.3114
  924MOL0     C24672   8.189   9.046   2.662 -0.6843 -0.6829  0.1945
  924MOL0     H24673   7.861   9.044   3.067 -0.0421 -1.7924  0.5119
  924MOL0     H24674   7.658   9.136   3.167 -0.7518 -0.3665 -0.0095
  924MOL0     H24675   7.384   9.380   2.901 -1.0638  2.2539  0.4240
  924MOL0     H24676   7.340   9.393   3.074 -1.0911  0.2873 -0.7295
  924MOL0     H24677   7.526   9.534   3.120  1.3719  0.9052 -1.2179
  924MOL0     H24678   7.602   9.474   2.962  0.6197 -1.7773  0.7710
  924MOL0     H24679   7.494   9.710   2.972 -2.2122  1.4685 -1.2791
  924MOL0     H24680   7.411   9.606   2.855  0.6729 -1.1327 -1.0382
  924MOL0     H24681   7.229   9.608   2.990 -0.0369 -0.7895  0.7416
  924MOL0     H24682   7.325   9.624   3.144  0.8858  0.7728 -0.2875
  924MOL0     H24683   7.383   9.846   3.113 -0.3356 -0.0319  0.5335
  924MOL0     H24684   7.300   9.858   2.961  2.7205 -2.5942 -1.1893
  924MOL0     H24685   7.079   9.802   3.071 -0.2655 -1.6197  1.0007
  924MOL0     H24686   7.156   9.761   3.219  0.9804 -0.1912 -0.5418
  924MOL0     H24687   7.043   9.986   3.211 -0.2136  3.4843 -1.8554
  924MOL0     H24688   7.230   9.988   3.247  1.8714 -1.7083 -3.0938
  924MOL0     H24689   7.268  10.099   3.050  0.7074  0.5626 -0.5918
  924MOL0     H24690   7.136  10.184   3.118 -1.9375  0.5967 -1.0399
  924MOL0     H24691   6.882  10.101   3.022 -0.9676  0.4274 -0.9218
  924MOL0     H24692   6.727  10.142   2.798  3.2960  2.0035  1.5040
  924MOL0     H24693   6.826  10.159   2.646  3.0204 -0.9431  0.5843
  924MOL0     H24694   6.821   9.942   2.590  0.1968 -0.0905 -0.0068
  924MOL0     H24695   6.651   9.978   2.613 -0.9472  0.5905  0.7459
  924MOL0     H24696   6.818   9.815   2.809  1.3440  2.2219 -0.6494
  924MOL0     H24697   6.681   9.766   2.705 -0.3492  0.7951  0.8832
  924MOL0     H24698   6.645   9.947   2.948 -1.6550 -1.4497  1.8199
  924MOL0     H24699   6.645   9.768   2.951  1.6226 -1.4922 -0.7358
  924MOL0     H24700   6.347   9.966   3.054 -2.8454  0.9070 -0.9568
  924MOL0     H24701   6.277   9.868   3.334 -0.7991  0.6275  0.1956
  924MOL0     H24702   6.224   9.988   3.217 -0.0094  0.3999  2.0044
  924MOL0     H24703   6.113   9.858   3.268  0.1494 -1.7297  0.5975
  924MOL0     H24704   6.133   9.366   3.420 -0.5299 -2.5612  1.8925
  924MOL0     H24705   5.968   9.207   3.525  0.4364 -2.8425 -0.9825
  924MOL0     H24706   5.751   8.960   3.216 -0.7728  3.1361 -1.5508
  924MOL0     H24707   5.670   8.904   3.353  1.4964 -0.4856 -0.2825
  924MOL0     H24708   5.540   9.131   3.341  0.8616  1.5189  0.0288
  924MOL0     H24709   5.597   9.156   3.191 -0.9840 -0.3234 -0.2788
  924MOL0     H24710   5.411   8.916   3.262  0.8577  1.4118  1.1665
  924MOL0     H24711   5.498   8.937   3.112  1.2130 -0.7365  1.9581
  924MOL0     H24712   5.296   9.137   3.224  0.0956 -0.2002  0.0871
  924MOL0     H24713   5.377   9.151   3.070 -3.5053  0.5740 -0.6843
  924MOL0     H24714   5.173   8.944   3.158  0.8342  0.3470  1.2452
  924MOL0     H24715   5.276   8.913   3.009  0.3210  0.5214  0.1718
  924MOL0     H24716   5.075   9.130   3.070  2.4056  0.2693  1.1110
  924MOL0     H24717   5.196   9.146   2.943  0.1801  1.4666  2.2837
  924MOL0     H24718   4.973   8.940   2.985 -0.6612  1.1049  0.3994
  924MOL0     H24719   5.099   8.912   2.858 -3.6831 -1.3088 -1.9616
  924MOL0     H24720   4.881   8.992   2.760 -1.9374  0.7369  1.1292
  924MOL0     H24721   5.016   9.099   2.727 -0.5567 -0.7166 -0.1622
  924MOL0     H24722   5.803   9.176   3.117  2.5201  0.4958 -1.0457
  924MOL0     H24723   5.981   9.296   3.035 -0.5865 -1.4578 -0.6859
  924MOL0     H24724   6.265   9.492   2.984  0.5308  0.4649 -3.2689
  924MOL0     H24725   6.420   9.619   2.828 -0.3189  0.6150 -0.2031
  924MOL0     H24726   7.532   9.272   2.782  1.6056 -2.2446 -2.1017
  924MOL0     H24727   7.755   9.243   2.692 -1.4101 -1.1763 -1.4072
  924MOL0     H24728   8.105   8.725   2.757  1.1552 -1.0487 -2.9766
  924MOL0     H24729   8.313   8.683   2.656  0.5786  0.0657  0.2899
  924MOL0     H24730   8.605   8.738   2.445 -0.1403 -0.1704  2.7853
  924MOL0     H24731   8.436   8.746   2.419 -0.3061 -1.4938 -0.3751
  924MOL0     H24732   8.425   8.962   2.355 -0.7299 -1.7848 -0.3930
  924MOL0     H24733   8.573   8.892   2.268  0.7396 -4.0002  1.8126
  924MOL0     H24734   8.569   9.061   2.518  0.9036 -0.0994  1.0567
  924MOL0     H24735   8.589   9.125   2.356  0.1791 -1.5391 -1.5991
  924MOL0     H24736   8.793   9.040   2.321  1.3107 -1.8206 -0.5323
  924MOL0     H24737   8.784   8.916   2.450  2.0341  1.1169  2.2003
  924MOL0     H24738   8.957   9.233   2.658  1.0389  2.3987 -1.2359
  924MOL0     H24739   8.383   9.105   2.588 -1.2160  0.9196  0.2160
  924MOL0     H24740   8.149   9.147   2.656 -3.1472 -1.1553  4.3232
  925MOL0     O24741   4.624  11.049   6.029  0.1488 -0.4068  0.4211
  925MOL0     C24742   4.647  10.976   6.124  0.1078  0.4229  0.0478
  925MOL0     O24743   4.551  10.912   6.206 -0.0532  1.3489  0.1111
  925MOL0     C24744   4.426  10.941   6.192 -0.2343 -0.6254 -0.7329
  925MOL0     C24745   4.338  10.848   6.144 -0.1306  0.5443 -0.6156
  925MOL0     C24746   4.204  10.867   6.124 -0.2082 -0.6691 -0.1200
  925MOL0     C24747   4.153  10.996   6.163  0.2287 -0.4566 -0.4550
  925MOL0     O24748   4.022  11.028   6.180  0.0173 -0.9505 -0.0788
  925MOL0     C24749   3.921  10.945   6.118  0.2022  0.0125  0.3367
  925MOL0     C24750   3.781  11.010   6.137  0.2400 -0.8606 -0.1652
  925MOL0     C24751   3.792  11.151   6.070 -0.2949  0.6427  0.3167
  925MOL0     C24752   3.676  11.242   6.126 -0.0318  0.7246 -0.0612
  925MOL0     C24753   3.692  11.385   6.086  0.3059  0.0109  0.2690
  925MOL0     C24754   3.647  11.427   5.940  0.3372 -0.8362  0.1010
  925MOL0     C24755   3.691  11.571   5.904  0.1271 -0.7269  1.2360
  925MOL0     C24756   3.587  11.676   5.948 -1.0329 -0.3313  0.0470
  925MOL0     N24757   3.456  11.645   5.893  0.3195 -0.5223 -0.3496
  925MOL0     C24758   3.417  11.621   5.761 -0.7131 -0.7332 -1.3115
  925MOL0     C24759   3.286  11.576   5.761  0.1022  0.7039  0.7924
  925MOL0     C24760   3.207  11.532   5.653  0.2988 -0.0572 -0.7850
  925MOL0     C24761   3.151  11.391   5.655  0.2434  0.8550 -0.1733
  925MOL0     C24762   3.040  11.363   5.758 -0.3388 -0.8265 -0.3035
  925MOL0     C24763   3.009  11.212   5.784 -0.4739  0.9627 -1.2749
  925MOL0     O24764   2.950  11.158   5.661 -0.1730  0.6758 -0.2654
  925MOL0     C24765   2.865  11.059   5.697  1.0971  0.9745  0.5945
  925MOL0     C24766   2.878  10.959   5.794  0.5645 -0.0388  0.5412
  925MOL0     C24767   2.781  10.869   5.840  1.1024  0.4204  0.0997
  925MOL0     C24768   2.816  10.785   5.968  0.0992 -0.4664 -0.2212
  925MOL0     C24769   2.659  10.868   5.766 -0.4602 -0.4049  0.4736
  925MOL0     C24770   2.542  10.782   5.801 -0.8598  0.1728 -1.3610
  925MOL0     O24771   2.427  10.797   5.727 -0.6805 -0.6423 -0.4116
  925MOL0     C24772   2.308  10.738   5.765 -1.2708 -0.7424 -0.7765
  925MOL0     C24773   2.212  10.695   5.681 -0.1992 -0.8910 -0.7573
  925MOL0     C24774   2.090  10.647   5.725  0.6977  0.0977 -0.0102
  925MOL0     C24775   2.051  10.643   5.859  0.4391 -0.4437  0.2950
  925MOL0     O24776   1.928  10.598   5.891 -0.4423  0.2103 -0.2716
  925MOL0     C24777   1.879  10.621   6.030  0.2777 -0.0882  0.1379
  925MOL0     C24778   1.824  10.760   6.036  0.0412 -0.1266  0.2852
  925MOL0     C24779   1.685  10.775   5.955  1.0108  1.9568 -0.2503
  925MOL0     C24780   1.705  10.830   5.811 -0.1695  0.6679 -0.4728
  925MOL0     C24781   1.578  10.802   5.728  0.6187  0.1984 -0.5948
  925MOL0     C24782   1.521  10.933   5.667  0.6077 -0.0625 -0.1021
  925MOL0     C24783   1.404  10.880   5.581 -0.3508  0.4095 -0.2132
  925MOL0     C24784   1.369  11.007   5.503 -0.5589  0.0338  0.3249
  925MOL0    Cl24785   1.205  10.970   5.441 -0.3413 -0.1279 -0.2173
  925MOL0     C24786   2.154  10.685   5.952 -0.2782 -0.0489  0.3752
  925MOL0     C24787   2.275  10.730   5.909  0.4755  0.9766  0.5089
  925MOL0     O24788   2.556  10.698   5.893  0.0868  0.1074  0.1368
  925MOL0     C24789   2.644  10.963   5.653 -0.4740  0.9647  0.5317
  925MOL0     C24790   2.743  11.062   5.624 -0.2348  0.9303 -0.2282
  925MOL0     N24791   3.244  11.590   5.894 -0.3068  0.4671 -0.2206
  925MOL0     N24792   3.347  11.623   5.967  0.1335  0.2863  0.5124
  925MOL0     C24793   4.242  11.091   6.206  0.0657 -0.7445 -0.2907
  925MOL0     C24794   4.376  11.064   6.217 -0.9807 -1.0404 -0.3247
  925MOL0     C24795   4.790  10.939   6.162  0.1561 -0.3624  1.2232
  925MOL0     C24796   4.820  10.809   6.190  0.7433  0.5546  0.4978
  925MOL0     C24797   4.946  10.764   6.229  0.3282  0.3685 -0.6491
  925MOL0     C24798   5.052  10.856   6.239 -0.6536 -1.0205 -0.0647
  925MOL0     O24799   5.176  10.813   6.286  0.6335 -0.6879  0.0419
  925MOL0     C24800   5.281  10.914   6.289  0.5602 -0.6867 -0.3842
  925MOL0     C24801   5.400  10.853   6.336  0.4143  0.1579  0.0297
  925MOL0     C24802   5.521  10.946   6.352 -0.4647 -0.0326 -0.8834
  925MOL0     C24803   5.637  10.853   6.410 -0.6627 -0.3988 -0.6630
  925MOL0     C24804   5.698  10.781   6.291  0.4971 -0.4001 -0.0585
  925MOL0     C24805   5.749  10.733   6.192 -0.7337 -0.6816 -0.0979
  925MOL0     C24806   5.022  10.987   6.181  0.0452  0.8202  0.1333
  925MOL0     C24807   4.888  11.029   6.147 -0.4851  0.5063  0.4650
  925MOL0     H24808   4.372  10.750   6.112  0.1335 -0.0394  1.3513
  925MOL0     H24809   4.128  10.794   6.098  3.2999 -4.1279 -1.5357
  925MOL0     H24810   3.949  10.938   6.013  0.3918  0.5997  0.3429
  925MOL0     H24811   3.927  10.846   6.164  1.0291 -1.1727 -2.1745
  925MOL0     H24812   3.715  10.940   6.086  2.3597 -1.6656 -1.9375
  925MOL0     H24813   3.765  11.019   6.245  1.0363  1.4599 -0.1772
  925MOL0     H24814   3.884  11.202   6.099 -0.3818  2.1923 -1.8639
  925MOL0     H24815   3.794  11.139   5.961 -1.1902  1.2317  0.2213
  925MOL0     H24816   3.578  11.208   6.093  1.0388 -1.3979 -1.2194
  925MOL0     H24817   3.683  11.236   6.235 -0.7559  2.2822  0.0973
  925MOL0     H24818   3.633  11.445   6.157 -0.4576 -0.6690  0.2260
  925MOL0     H24819   3.798  11.409   6.097  0.3730 -0.3817  0.5036
  925MOL0     H24820   3.703  11.359   5.875 -2.2499 -2.2689 -0.7501
  925MOL0     H24821   3.545  11.405   5.909  0.3662  0.1086 -0.7046
  925MOL0     H24822   3.786  11.582   5.956  0.0279  2.1776  0.9643
  925MOL0     H24823   3.713  11.565   5.797  1.9167 -3.2359  1.6357
  925MOL0     H24824   3.636  11.770   5.919  2.4251 -1.7474  0.7427
  925MOL0     H24825   3.582  11.672   6.057 -0.1727 -2.0351  0.0523
  925MOL0     H24826   3.484  11.627   5.675 -1.2878  1.8019 -1.6638
  925MOL0     H24827   3.120  11.598   5.646  0.9417  0.6840 -1.9878
  925MOL0     H24828   3.269  11.545   5.564  0.5421  1.9422 -0.3667
  925MOL0     H24829   3.231  11.322   5.685 -0.4825  1.2425  2.9338
  925MOL0     H24830   3.112  11.350   5.561 -1.8258 -3.4821  2.2937
  925MOL0     H24831   2.950  11.407   5.714 -2.4580 -3.9818  0.5446
  925MOL0     H24832   3.073  11.405   5.854  3.0264 -4.1540  0.2158
  925MOL0     H24833   2.935  11.209   5.865 -2.8415 -1.3850 -3.3413
  925MOL0     H24834   3.094  11.155   5.822 -2.4526 -0.5632  1.2102
  925MOL0     H24835   2.967  10.966   5.855  0.1290 -1.1135  1.3352
  925MOL0     H24836   2.741  10.783   6.047  2.4052  0.9597  2.1710
  925MOL0     H24837   2.823  10.677   5.951  1.1046 -0.2262 -1.5231
  925MOL0     H24838   2.911  10.816   6.012  0.2008  1.0229 -1.4316
  925MOL0     H24839   2.234  10.702   5.575  2.7154 -1.9119 -0.3155
  925MOL0     H24840   2.016  10.614   5.652  0.8519  1.1329 -0.6619
  925MOL0     H24841   1.794  10.554   6.049  0.3042  0.0007  0.5920
  925MOL0     H24842   1.959  10.609   6.104  1.3303  1.3718 -0.7228
  925MOL0     H24843   1.808  10.794   6.139  0.5507  0.5840  0.1395
  925MOL0     H24844   1.895  10.832   5.995  1.4418 -0.0187  2.6902
  925MOL0     H24845   1.618  10.848   6.002 -0.7580  1.0607 -1.2344
  925MOL0     H24846   1.620  10.687   5.962 -0.7271  3.1012 -1.2529
  925MOL0     H24847   1.737  10.934   5.824  0.8129  0.3111  0.0875
  925MOL0     H24848   1.787  10.780   5.760 -0.4174  0.2194 -0.4355
  925MOL0     H24849   1.493  10.772   5.790 -2.3764 -0.0224 -4.4749
  925MOL0     H24850   1.594  10.722   5.656 -0.0969 -0.8365  0.3639
  925MOL0     H24851   1.496  11.010   5.740 -1.2682 -0.6237 -0.1209
  925MOL0     H24852   1.603  10.964   5.602  0.5951  0.2461  0.0319
  925MOL0     H24853   1.323  10.857   5.652 -1.6536  0.9859 -1.4550
  925MOL0     H24854   1.427  10.788   5.527  2.3918  0.7326  0.2556
  925MOL0     H24855   1.439  11.024   5.420  0.6612  0.7723  1.4579
  925MOL0     H24856   1.356  11.088   5.576 -2.2309 -1.1065  1.3717
  925MOL0     H24857   2.142  10.670   6.059  1.7410 -2.5175  0.3352
  925MOL0     H24858   2.347  10.753   5.987  0.0055 -0.7712  1.5156
  925MOL0     H24859   2.555  10.953   5.592 -0.7358 -0.1081  1.0605
  925MOL0     H24860   2.723  11.142   5.553  1.2250  1.8993  0.4031
  925MOL0     H24861   4.211  11.195   6.208 -0.0852 -0.7407  2.9185
  925MOL0     H24862   4.451  11.136   6.248 -1.6038 -0.9226  0.9465
  925MOL0     H24863   4.751  10.726   6.196 -4.1274  4.2552  1.2389
  925MOL0     H24864   4.974  10.660   6.244  0.9593  0.6211 -0.0357
  925MOL0     H24865   5.298  10.960   6.191  0.1932 -0.5388 -0.3813
  925MOL0     H24866   5.251  10.996   6.355  1.5349  0.5401 -1.3972
  925MOL0     H24867   5.433  10.787   6.256  1.8400  0.7888  0.0801
  925MOL0     H24868   5.386  10.795   6.428 -1.8949  0.6218  0.0432
  925MOL0     H24869   5.496  11.019   6.429  0.4891  1.3122 -1.8016
  925MOL0     H24870   5.546  11.008   6.265  0.4491  1.0651  0.1272
  925MOL0     H24871   5.590  10.794   6.490 -1.1493  2.3253  1.2130
  925MOL0     H24872   5.707  10.918   6.463  1.4961 -1.0572 -2.5957
  925MOL0     H24873   5.807  10.694   6.110 -0.0731 -1.3038  0.6387
  925MOL0     H24874   5.104  11.056   6.164  0.4298 -0.1300 -2.2550
  925MOL0     H24875   4.854  11.127   6.117 -1.0716 -0.7543 -3.6540
  926MOL0     O24876   4.659   6.092   7.961  0.6766 -0.2408 -0.3662
  926MOL0     C24877   4.582   5.992   7.937 -0.5165  0.3734 -0.0341
  926MOL0     O24878   4.606   5.864   7.986  0.1382 -0.3386 -0.2238
  926MOL0     C24879   4.736   5.839   8.033 -0.4820  1.0624  0.1469
  926MOL0     C24880   4.823   5.783   7.940 -0.6217  0.1111 -0.3466
  926MOL0     C24881   4.946   5.738   7.989 -0.2912 -0.6191  0.4801
  926MOL0     C24882   4.993   5.765   8.115  0.1986  0.1367  0.2818
  926MOL0     O24883   5.119   5.734   8.158  0.4307 -0.0284  0.0281
  926MOL0     C24884   5.223   5.745   8.065 -0.0970  0.5813 -0.0052
  926MOL0     C24885   5.363   5.750   8.125  0.4263  0.2728  0.2607
  926MOL0     C24886   5.413   5.624   8.202 -0.1152  0.8320 -0.2080
  926MOL0     C24887   5.344   5.605   8.337  0.2627  0.2775 -0.2051
  926MOL0     C24888   5.395   5.500   8.439  0.0905  0.1430 -0.2578
  926MOL0     C24889   5.521   5.532   8.503 -0.8824 -0.6127  0.5055
  926MOL0     C24890   5.548   5.417   8.595  0.2948  0.3773  0.0396
  926MOL0     C24891   5.674   5.461   8.684 -0.3200  0.7029 -0.5566
  926MOL0     N24892   5.699   5.386   8.808 -1.1615 -0.6799 -0.6271
  926MOL0     C24893   5.817   5.314   8.829  0.3975 -0.9017 -0.8267
  926MOL0     C24894   5.820   5.283   8.957  0.0186 -0.9649 -1.2410
  926MOL0     C24895   5.936   5.214   9.022  0.1481  0.7632  0.0088
  926MOL0     C24896   5.932   5.057   9.005 -1.0231  0.1150  0.7735
  926MOL0     C24897   5.807   4.986   9.058  0.5161 -0.0047  0.1136
  926MOL0     C24898   5.763   5.014   9.199  0.1800 -0.1997 -0.5558
  926MOL0     O24899   5.861   5.053   9.299 -0.6242  0.6489 -0.3336
  926MOL0     C24900   5.883   4.965   9.398  0.6568  0.1635  0.4238
  926MOL0     C24901   5.798   4.956   9.510  0.6468  0.4133  0.3599
  926MOL0     C24902   5.833   4.876   9.623 -0.0892 -0.0345 -0.2325
  926MOL0     C24903   5.750   4.883   9.744 -0.0838  0.3363  0.2709
  926MOL0     C24904   5.951   4.804   9.619  0.5207  0.2568 -0.7048
  926MOL0     C24905   5.990   4.718   9.736  0.2054 -0.9706  0.4545
  926MOL0     O24906   5.897   4.647   9.808 -0.2447 -0.4756  0.0435
  926MOL0     C24907   5.938   4.603   9.935  0.6127  1.1753  0.2218
  926MOL0     C24908   5.993   4.680  10.039  0.1633  0.0697 -0.0431
  926MOL0     C24909   6.049   4.621  10.151 -0.4805  0.2080  0.9873
  926MOL0     C24910   6.032   4.481  10.165  0.7707  0.0421  0.0784
  926MOL0     O24911   6.064   4.404  10.275  0.0459 -0.3968 -1.0376
  926MOL0     C24912   6.137   4.463  10.385 -0.1883  0.3809 -0.1319
  926MOL0     C24913   6.175   4.355  10.487  0.3369  0.2688 -0.4496
  926MOL0     C24914   6.250   4.233  10.419 -0.3837  0.1622  0.0098
  926MOL0     C24915   6.239   4.101  10.512 -0.4882 -0.4614 -0.3485
  926MOL0     C24916   6.329   4.120  10.633 -0.7416 -0.1229 -0.5922
  926MOL0     C24917   6.481   4.135  10.603 -0.1306 -1.3982 -0.2812
  926MOL0     C24918   6.553   4.028  10.511  0.0784 -0.1737  0.8252
  926MOL0     C24919   6.574   3.892  10.565 -0.5943 -0.3564 -0.6711
  926MOL0    Cl24920   6.684   3.898  10.704 -0.5626 -0.5865 -0.0454
  926MOL0     C24921   5.955   4.413  10.074  0.7479  0.4343 -0.0017
  926MOL0     C24922   5.914   4.466   9.955 -0.6609  0.3734 -0.2669
  926MOL0     O24923   6.112   4.720   9.767 -0.4175 -0.2011 -0.1615
  926MOL0     C24924   6.041   4.828   9.514  0.8247 -1.4316 -0.3347
  926MOL0     C24925   6.008   4.904   9.398  0.4011 -0.4234 -1.0754
  926MOL0     N24926   5.712   5.347   9.020  0.4672  0.0963 -0.4776
  926MOL0     N24927   5.639   5.403   8.927  0.6975  0.5381 -0.2687
  926MOL0     C24928   4.907   5.830   8.201 -0.6987  0.4527 -0.2341
  926MOL0     C24929   4.776   5.865   8.166 -0.4345 -0.3307  0.6111
  926MOL0     C24930   4.469   6.019   7.848  0.4716 -0.2892 -0.3790
  926MOL0     C24931   4.371   5.923   7.814 -0.3114  0.3345 -0.2347
  926MOL0     C24932   4.265   5.952   7.722 -0.2254  0.4477 -0.4221
  926MOL0     C24933   4.259   6.067   7.656  0.3317  0.3391 -1.1829
  926MOL0     O24934   4.170   6.104   7.565 -0.1635 -0.2310  0.0120
  926MOL0     C24935   4.046   6.036   7.555 -0.5332 -1.5193  0.0367
  926MOL0     C24936   4.062   5.907   7.477  0.8907  0.0706 -0.1429
  926MOL0     C24937   4.078   5.931   7.327 -0.7073  0.8039 -0.1158
  926MOL0     C24938   4.082   5.801   7.248 -0.4526  0.4832  0.4226
  926MOL0     C24939   4.180   5.700   7.289 -0.2999 -0.2065 -0.2648
  926MOL0     C24940   4.261   5.619   7.335  0.4340  0.6130 -0.0560
  926MOL0     C24941   4.355   6.168   7.691 -0.0085  0.3580 -0.3666
  926MOL0     C24942   4.449   6.152   7.793  0.2254  0.6138  0.1073
  926MOL0     H24943   4.799   5.780   7.835 -1.3720 -1.7998 -0.1622
  926MOL0     H24944   5.020   5.695   7.922  0.0704 -0.8426  1.0193
  926MOL0     H24945   5.224   5.660   7.996  3.1597  1.0889 -0.7578
  926MOL0     H24946   5.200   5.837   8.011  0.7102  0.2432 -0.9669
  926MOL0     H24947   5.430   5.767   8.041 -0.1642  2.2546  0.1447
  926MOL0     H24948   5.366   5.840   8.188  2.7947  0.5123 -0.0796
  926MOL0     H24949   5.402   5.540   8.132  1.2684 -2.4557  3.1489
  926MOL0     H24950   5.522   5.625   8.210 -0.1508  1.5796  0.2567
  926MOL0     H24951   5.316   5.696   8.392  3.3126  0.4415  1.3190
  926MOL0     H24952   5.247   5.562   8.311 -0.2513 -0.7388  2.8835
  926MOL0     H24953   5.319   5.479   8.514  1.7347 -2.7611  0.7342
  926MOL0     H24954   5.399   5.404   8.388  0.2634 -1.0949  1.9576
  926MOL0     H24955   5.597   5.543   8.426  0.3018 -2.8437  1.2662
  926MOL0     H24956   5.524   5.618   8.570 -2.3155 -2.1990  2.7572
  926MOL0     H24957   5.466   5.391   8.663  1.4295 -1.8386  0.6669
  926MOL0     H24958   5.568   5.323   8.543 -4.7138 -1.0384  0.0871
  926MOL0     H24959   5.679   5.567   8.710  3.2612  1.3792 -3.2105
  926MOL0     H24960   5.761   5.442   8.620 -0.6731  2.7199 -1.7425
  926MOL0     H24961   5.894   5.285   8.757  2.1910 -2.4569  1.5674
  926MOL0     H24962   6.037   5.249   8.997  0.7240  0.7649  2.1784
  926MOL0     H24963   5.917   5.227   9.128 -0.7389  0.6483 -0.1288
  926MOL0     H24964   6.022   5.011   9.045 -0.2279  2.6974  2.1568
  926MOL0     H24965   5.930   5.047   8.896 -3.0050  4.2619  0.2203
  926MOL0     H24966   5.834   4.880   9.055  1.0638  0.1017  0.9927
  926MOL0     H24967   5.723   4.996   8.988 -0.3046 -3.5810  0.3901
  926MOL0     H24968   5.686   4.941   9.224 -2.4411  1.5905 -2.7668
  926MOL0     H24969   5.700   5.102   9.182  0.4703  0.0100 -0.5488
  926MOL0     H24970   5.700   5.002   9.520 -0.6973 -1.5115 -2.6511
  926MOL0     H24971   5.814   4.875   9.833  1.3646  0.6184 -0.7151
  926MOL0     H24972   5.698   4.979   9.747  2.2094  1.6233  2.3932
  926MOL0     H24973   5.680   4.800   9.756  3.2510 -3.0066 -1.4081
  926MOL0     H24974   6.012   4.787  10.032 -3.3698  1.0351  2.6035
  926MOL0     H24975   6.095   4.671  10.236 -2.3665 -0.4278  2.4628
  926MOL0     H24976   6.222   4.522  10.350 -1.1092  0.2349 -2.8435
  926MOL0     H24977   6.060   4.532  10.420 -0.2785 -0.1192  0.6706
  926MOL0     H24978   6.245   4.402  10.557  0.8001 -1.2804  0.1583
  926MOL0     H24979   6.097   4.302  10.542  1.9134 -1.7721 -0.0627
  926MOL0     H24980   6.352   4.261  10.392 -0.9072  2.7328  0.4693
  926MOL0     H24981   6.212   4.208  10.319 -2.5825 -2.4678  1.3910
  926MOL0     H24982   6.134   4.081  10.536 -0.0055 -2.3541  0.3279
  926MOL0     H24983   6.268   4.006  10.466 -0.8656 -1.5628  1.5683
  926MOL0     H24984   6.324   4.032  10.698  0.3954  0.3775  0.2129
  926MOL0     H24985   6.292   4.202  10.696  0.3798  0.4714 -0.6928
  926MOL0     H24986   6.489   4.239  10.570 -2.3626 -0.9820  0.2890
  926MOL0     H24987   6.533   4.132  10.699 -2.7399  0.0597  1.2875
  926MOL0     H24988   6.646   4.073  10.474  0.3355  1.2487  3.0149
  926MOL0     H24989   6.490   4.017  10.423  0.2899  1.0507  0.5040
  926MOL0     H24990   6.615   3.829  10.486 -2.2270 -2.7048  0.2378
  926MOL0     H24991   6.487   3.835  10.600  1.0467 -2.0537  0.8609
  926MOL0     H24992   5.940   4.306  10.086 -0.8157  0.6400  0.1702
  926MOL0     H24993   5.855   4.400   9.892 -1.7217  1.2238 -0.1989
  926MOL0     H24994   6.146   4.812   9.536  1.4632  0.5037 -1.7711
  926MOL0     H24995   6.087   4.924   9.327  0.9265 -1.3920 -0.7799
  926MOL0     H24996   4.940   5.850   8.302 -0.7972  2.9881 -0.6493
  926MOL0     H24997   4.713   5.916   8.237  2.3323  0.4648  2.6523
  926MOL0     H24998   4.381   5.821   7.851 -0.9295  0.3697  0.0455
  926MOL0     H24999   4.190   5.873   7.715 -1.0250  1.0818  0.6394
  926MOL0     H25000   4.002   6.005   7.650 -0.1640 -2.0226  0.0489
  926MOL0     H25001   3.978   6.105   7.505  1.9787  0.6353 -0.6592
  926MOL0     H25002   3.961   5.871   7.500  0.4262  3.0459  3.5002
  926MOL0     H25003   4.143   5.843   7.513 -0.3911 -1.9925 -0.7598
  926MOL0     H25004   4.171   5.981   7.299 -1.3402  0.8987 -2.1754
  926MOL0     H25005   3.990   5.987   7.294 -1.8417 -0.4476  0.6779
  926MOL0     H25006   4.084   5.818   7.140 -2.2729  0.0775  0.2970
  926MOL0     H25007   3.985   5.751   7.260  0.7052 -1.6042  1.6055
  926MOL0     H25008   4.340   5.560   7.377  0.5524 -0.9897 -2.3919
  926MOL0     H25009   4.338   6.268   7.654  0.3678 -0.5812 -3.3276
  926MOL0     H25010   4.501   6.243   7.821 -1.4047  1.6457 -0.0498
  927MOL0     O25011   6.592   2.631   4.915  0.3681  0.2123 -0.1720
  927MOL0     C25012   6.625   2.590   4.802 -0.9460  0.4807 -0.6297
  927MOL0     O25013   6.667   2.459   4.775  0.3287  0.0608 -0.0440
  927MOL0     C25014   6.633   2.368   4.865  0.6893 -0.0313  0.0130
  927MOL0     C25015   6.726   2.319   4.958  0.5655  0.4212  0.1227
  927MOL0     C25016   6.701   2.224   5.058  0.7033 -0.1195 -0.3973
  927MOL0     C25017   6.565   2.186   5.068 -0.1761  0.6096  0.0935
  927MOL0     O25018   6.544   2.102   5.175 -0.3330  0.7413 -0.0802
  927MOL0     C25019   6.410   2.053   5.205 -0.5578  0.2018  0.0359
  927MOL0     C25020   6.404   1.975   5.344  0.3440  0.9361  0.8047
  927MOL0     C25021   6.514   1.874   5.360 -0.1764  0.0149  0.8428
  927MOL0     C25022   6.541   1.817   5.503 -0.8351 -0.3647  1.0251
  927MOL0     C25023   6.432   1.720   5.530  0.6324  0.2548  0.0595
  927MOL0     C25024   6.451   1.647   5.662 -0.1740  0.0463  0.3987
  927MOL0     C25025   6.320   1.564   5.693 -1.1637 -0.9062  0.1313
  927MOL0     C25026   6.343   1.461   5.815 -0.3374  0.2239  0.1204
  927MOL0     N25027   6.443   1.352   5.808 -0.8304  0.1116  0.2536
  927MOL0     C25028   6.585   1.368   5.839  0.7042 -0.2939  0.4613
  927MOL0     C25029   6.634   1.247   5.810 -0.1903 -0.5403 -0.5661
  927MOL0     C25030   6.775   1.219   5.831 -0.5761  1.0898  0.2859
  927MOL0     C25031   6.825   1.105   5.743  0.0730  0.4976 -0.5518
  927MOL0     C25032   6.794   1.147   5.601 -0.0328 -0.1270  0.3017
  927MOL0     C25033   6.884   1.079   5.505  1.0892  0.1227 -0.1001
  927MOL0     O25034   6.872   0.935   5.498  0.3859 -0.2680 -0.2875
  927MOL0     C25035   6.946   0.876   5.401  0.5512 -0.2104  0.4056
  927MOL0     C25036   7.063   0.932   5.353  0.4062  0.1277  0.2322
  927MOL0     C25037   7.143   0.864   5.265 -0.3994  0.0990  1.0643
  927MOL0     C25038   7.275   0.934   5.229  1.0088 -0.0503 -0.4008
  927MOL0     C25039   7.104   0.750   5.210  0.1545 -0.0466 -0.7128
  927MOL0     C25040   7.179   0.672   5.115 -0.9980  0.1448 -0.0331
  927MOL0     O25041   7.137   0.546   5.098 -0.2059  0.0517  0.6003
  927MOL0     C25042   7.197   0.465   5.002  0.0724 -0.6595 -0.5322
  927MOL0     C25043   7.116   0.373   4.939  0.1054  0.3076 -0.6212
  927MOL0     C25044   7.182   0.270   4.865  0.3318 -0.2443 -0.7207
  927MOL0     C25045   7.321   0.253   4.855  0.2394 -0.2686  0.7738
  927MOL0     O25046   7.387   0.155   4.783  0.1448  0.6913  0.5641
  927MOL0     C25047   7.529   0.136   4.762  1.6188  0.4172  0.0331
  927MOL0     C25048   7.589   0.226   4.656  0.4261  0.1289 -0.2064
  927MOL0     C25049   7.547   0.184   4.511  0.5267  0.4138  0.5318
  927MOL0     C25050   7.614   0.280   4.401  0.2446  1.4141  0.2889
  927MOL0     C25051   7.563   0.237   4.261 -0.4995 -0.5175 -0.7160
  927MOL0     C25052   7.642   0.297   4.149  0.4863  0.1503  0.6065
  927MOL0     C25053   7.554   0.300   4.021  0.9558  0.3908  0.7467
  927MOL0     C25054   7.630   0.325   3.888 -0.2039 -0.2040  0.0868
  927MOL0    Cl25055   7.523   0.364   3.757 -0.0048 -0.1949  0.0261
  927MOL0     C25056   7.400   0.350   4.923 -0.3382 -0.5835  0.1840
  927MOL0     C25057   7.336   0.454   4.988 -0.1820 -0.8796  0.3485
  927MOL0     O25058   7.267   0.729   5.045  0.8668 -1.0094 -0.0513
  927MOL0     C25059   6.985   0.691   5.264 -0.5941  1.2815 -0.3311
  927MOL0     C25060   6.907   0.749   5.358  0.6840 -0.0240  0.1951
  927MOL0     N25061   6.536   1.156   5.775  0.2359  0.5540  0.6347
  927MOL0     N25062   6.431   1.222   5.771  0.1622  0.9405  0.4474
  927MOL0     C25063   6.471   2.236   4.970  0.5073  0.4678 -0.0628
  927MOL0     C25064   6.509   2.316   4.865  0.4153  0.0862  0.8722
  927MOL0     C25065   6.660   2.687   4.697  0.3288  0.2553  0.4417
  927MOL0     C25066   6.685   2.634   4.565  0.2742  0.2325  0.5130
  927MOL0     C25067   6.704   2.726   4.460 -0.4779  0.7722 -0.1386
  927MOL0     C25068   6.712   2.861   4.479  0.2631 -0.0451  0.4224
  927MOL0     O25069   6.734   2.925   4.358 -0.0700  0.2958 -0.3867
  927MOL0     C25070   6.725   3.069   4.360 -0.6288 -0.5495 -0.4658
  927MOL0     C25071   6.584   3.135   4.388  0.9065 -0.1852  1.5317
  927MOL0     C25072   6.495   3.086   4.278  0.1107 -0.3395  0.2577
  927MOL0     C25073   6.356   3.110   4.307  0.5191  0.1920 -0.0833
  927MOL0     C25074   6.263   3.096   4.190  0.1128 -0.2332 -0.6979
  927MOL0     C25075   6.178   3.094   4.102 -0.5812  0.5446  0.4698
  927MOL0     C25076   6.697   2.914   4.610 -0.0828  0.0954  0.2842
  927MOL0     C25077   6.660   2.827   4.710 -0.1146 -0.6906 -0.3174
  927MOL0     H25078   6.819   2.373   4.944 -0.9147  4.2053  3.1924
  927MOL0     H25079   6.781   2.187   5.121 -0.6089 -0.0448  1.3920
  927MOL0     H25080   6.344   2.140   5.213  1.5691  1.9100 -0.0452
  927MOL0     H25081   6.376   1.994   5.120  3.6693  0.9502 -2.4783
  927MOL0     H25082   6.417   2.048   5.425 -1.3029  0.5272  1.4851
  927MOL0     H25083   6.311   1.919   5.357  3.0369 -4.3143 -0.0617
  927MOL0     H25084   6.502   1.787   5.295  0.6904  0.7522 -0.3430
  927MOL0     H25085   6.612   1.913   5.332  1.1601 -3.9824 -0.8268
  927MOL0     H25086   6.639   1.771   5.515 -0.4905  0.3518  1.0284
  927MOL0     H25087   6.517   1.893   5.578  1.8199  1.1866  0.4106
  927MOL0     H25088   6.330   1.760   5.531  0.8213  0.7392  0.7292
  927MOL0     H25089   6.417   1.647   5.449  1.1401  1.2498 -0.9541
  927MOL0     H25090   6.539   1.583   5.647  1.2108  2.0174 -0.2758
  927MOL0     H25091   6.478   1.719   5.739 -1.0263  1.4858 -0.5900
  927MOL0     H25092   6.245   1.640   5.713 -0.5633  0.7679 -3.2551
  927MOL0     H25093   6.289   1.506   5.606  0.5777  1.1000 -1.9686
  927MOL0     H25094   6.243   1.417   5.830 -0.6868  0.6035 -1.0060
  927MOL0     H25095   6.375   1.520   5.901  0.4290 -2.7296  2.0409
  927MOL0     H25096   6.647   1.451   5.872  1.5220  0.1739 -2.0174
  927MOL0     H25097   6.843   1.303   5.817 -0.7385  1.7532  2.9995
  927MOL0     H25098   6.781   1.186   5.935 -2.7109 -1.0949 -0.1751
  927MOL0     H25099   6.774   1.011   5.768  0.8017 -0.6255 -3.0046
  927MOL0     H25100   6.932   1.088   5.752  0.2920  0.6058 -2.5965
  927MOL0     H25101   6.801   1.253   5.575 -2.2513  0.7400  2.7097
  927MOL0     H25102   6.693   1.113   5.578  0.9374 -2.4757 -0.7974
  927MOL0     H25103   6.989   1.106   5.522  0.9596 -1.0976  3.6080
  927MOL0     H25104   6.852   1.111   5.406 -1.7349 -2.8496 -0.3078
  927MOL0     H25105   7.103   1.033   5.360 -1.1690  1.2826 -4.1669
  927MOL0     H25106   7.269   0.986   5.133  2.7328 -0.7808 -0.9513
  927MOL0     H25107   7.294   1.000   5.315 -3.5527 -1.0866  1.6818
  927MOL0     H25108   7.365   0.873   5.218  1.7944  0.8916  0.5529
  927MOL0     H25109   7.010   0.379   4.962  0.7253  0.0839  2.8210
  927MOL0     H25110   7.119   0.203   4.809  0.2993 -3.3006  2.5798
  927MOL0     H25111   7.575   0.162   4.857  0.1885  2.9973  0.0942
  927MOL0     H25112   7.544   0.030   4.736  0.3833 -0.0530  1.1053
  927MOL0     H25113   7.559   0.326   4.690  0.6133 -1.1054  4.1360
  927MOL0     H25114   7.698   0.215   4.657  0.2981 -1.7057 -1.4619
  927MOL0     H25115   7.440   0.186   4.490  0.9501 -1.3098 -2.2457
  927MOL0     H25116   7.579   0.081   4.495 -2.7181 -0.8444  1.4589
  927MOL0     H25117   7.573   0.378   4.427 -0.8935  0.2625  3.3793
  927MOL0     H25118   7.722   0.268   4.411  0.1707 -0.2155 -0.4909
  927MOL0     H25119   7.454   0.246   4.267 -0.4470 -0.6347  1.2139
  927MOL0     H25120   7.579   0.130   4.243 -2.3776 -0.9041 -0.3242
  927MOL0     H25121   7.654   0.404   4.168  3.0331 -0.0095  0.2926
  927MOL0     H25122   7.738   0.246   4.134 -0.4425 -1.2439 -0.8824
  927MOL0     H25123   7.466   0.363   4.037 -0.7222 -1.7022  0.3439
  927MOL0     H25124   7.522   0.198   3.998 -1.6049  0.9392  1.5854
  927MOL0     H25125   7.699   0.245   3.862 -0.3528 -0.5437  0.7170
  927MOL0     H25126   7.700   0.408   3.903  3.0377 -3.1617  2.7781
  927MOL0     H25127   7.507   0.362   4.909 -0.4477  1.7609  0.8769
  927MOL0     H25128   7.403   0.527   5.032 -0.7132  1.4098 -2.3165
  927MOL0     H25129   6.960   0.591   5.229 -2.5739  2.1880 -1.6771
  927MOL0     H25130   6.819   0.714   5.411  0.1686  1.5285  0.4205
  927MOL0     H25131   6.366   2.208   4.970  0.5634  0.1668 -1.6444
  927MOL0     H25132   6.435   2.351   4.793 -0.5375  0.9404  2.2092
  927MOL0     H25133   6.688   2.528   4.540  1.8895  0.4530 -0.3550
  927MOL0     H25134   6.722   2.688   4.360 -2.3508 -0.6252 -0.0010
  927MOL0     H25135   6.789   3.113   4.437 -0.1642  1.2125 -1.7965
  927MOL0     H25136   6.774   3.109   4.270  2.8772 -4.0850 -0.4026
  927MOL0     H25137   6.578   3.245   4.391 -2.0996  0.1294 -3.4370
  927MOL0     H25138   6.535   3.094   4.477  3.5754 -2.6769  1.9758
  927MOL0     H25139   6.515   2.980   4.262  1.9661 -0.1746  1.1851
  927MOL0     H25140   6.513   3.148   4.190 -3.8253 -0.1370 -0.5935
  927MOL0     H25141   6.343   3.215   4.332  1.5371  0.3796 -0.2989
  927MOL0     H25142   6.321   3.040   4.384  2.3316  0.2786  0.8621
  927MOL0     H25143   6.106   3.071   4.025  0.0913 -0.7678  0.2176
  927MOL0     H25144   6.692   3.020   4.632  0.8625  0.0763  0.6366
  927MOL0     H25145   6.622   2.863   4.805 -0.1720 -1.2361 -0.1301
  928MOL0     O25146   8.818   5.821   3.803  0.8418 -0.1119  0.8392
  928MOL0     C25147   8.883   5.727   3.857  0.2830  0.4459  0.1698
  928MOL0     O25148   8.899   5.709   3.993 -0.5420 -0.3318  0.3824
  928MOL0     C25149   8.869   5.822   4.068  0.6849  0.4500 -0.2098
  928MOL0     C25150   8.750   5.817   4.142  0.7382 -0.1285  0.2233
  928MOL0     C25151   8.698   5.932   4.214  0.3918 -0.4346 -0.2587
  928MOL0     C25152   8.767   6.053   4.207 -0.5058  0.4890  0.1723
  928MOL0     O25153   8.724   6.165   4.279  0.4988  0.0202  0.7564
  928MOL0     C25154   8.573   6.197   4.275 -0.2274  1.0789  0.5432
  928MOL0     C25155   8.548   6.341   4.329  0.4882  0.7494  0.0772
  928MOL0     C25156   8.401   6.384   4.295 -0.4896  0.1389  0.4432
  928MOL0     C25157   8.399   6.458   4.154  0.1951 -0.2997  0.3368
  928MOL0     C25158   8.256   6.488   4.103  0.1235 -0.5290  0.4242
  928MOL0     C25159   8.195   6.367   4.017 -0.3288  0.4235  0.0441
  928MOL0     C25160   8.050   6.394   3.981 -0.3034 -0.7244 -0.8881
  928MOL0     C25161   7.999   6.332   3.841 -0.3708 -0.7149 -0.6550
  928MOL0     N25162   7.853   6.358   3.832 -0.3166 -0.3514 -0.2678
  928MOL0     C25163   7.752   6.286   3.893 -0.6135 -0.5114  0.5889
  928MOL0     C25164   7.646   6.310   3.814  0.6723  0.2933 -0.0500
  928MOL0     C25165   7.508   6.254   3.844 -0.3605  0.5716  0.5988
  928MOL0     C25166   7.458   6.159   3.742 -0.6691 -0.0619 -0.4279
  928MOL0     C25167   7.480   6.013   3.777 -0.7291  0.1851 -1.0477
  928MOL0     C25168   7.623   5.967   3.752 -0.2636  0.0119 -0.7999
  928MOL0     O25169   7.661   5.976   3.616 -0.3141 -0.9789 -0.3173
  928MOL0     C25170   7.785   5.937   3.567  0.0307  0.3740 -0.2804
  928MOL0     C25171   7.795   5.822   3.486 -0.2308 -0.3086 -0.1387
  928MOL0     C25172   7.921   5.799   3.415 -1.1835 -0.4157  0.1733
  928MOL0     C25173   7.919   5.681   3.313 -0.3944  0.3899  0.2068
  928MOL0     C25174   8.033   5.876   3.451 -1.0407  0.2972  1.1502
  928MOL0     C25175   8.173   5.850   3.401  0.4228  0.2011  0.6334
  928MOL0     O25176   8.258   5.953   3.432  0.0430  0.8253  0.4816
  928MOL0     C25177   8.394   5.916   3.420  0.7443 -0.1127  0.0867
  928MOL0     C25178   8.448   5.988   3.312 -0.9405  0.0331 -0.4294
  928MOL0     C25179   8.585   5.981   3.285 -0.3810  0.7744  0.1161
  928MOL0     C25180   8.674   5.896   3.357 -0.4814  0.0293 -0.3707
  928MOL0     O25181   8.806   5.867   3.323  0.3068 -0.0990 -0.1517
  928MOL0     C25182   8.838   5.907   3.187 -0.3949  0.2289  0.1913
  928MOL0     C25183   8.981   5.881   3.146  0.2248 -0.0928 -0.5437
  928MOL0     C25184   8.988   5.731   3.121 -1.0158 -0.5322 -0.3380
  928MOL0     C25185   9.107   5.699   3.028  0.2473 -0.1610 -0.5104
  928MOL0     C25186   9.123   5.550   3.009 -0.6267  0.9359  0.2413
  928MOL0     C25187   9.209   5.514   2.890  0.1379  0.4564 -0.0619
  928MOL0     C25188   9.231   5.361   2.885  0.1706 -1.0648 -0.7130
  928MOL0     C25189   9.323   5.304   2.777  0.4929  0.6539 -0.1730
  928MOL0    Cl25190   9.486   5.290   2.841 -0.1951 -0.4940 -0.0655
  928MOL0     C25191   8.609   5.825   3.464 -0.6019 -0.4591 -0.0340
  928MOL0     C25192   8.474   5.833   3.490  0.0609  0.4773 -0.2138
  928MOL0     O25193   8.200   5.749   3.337 -0.9241  0.1818 -0.1122
  928MOL0     C25194   8.013   5.985   3.542  0.5400 -0.5360  0.0506
  928MOL0     C25195   7.884   6.020   3.596 -0.7126 -0.1356  0.1712
  928MOL0     N25196   7.669   6.395   3.713 -0.3373 -0.2702 -0.8525
  928MOL0     N25197   7.795   6.423   3.724 -0.5929 -0.3589  0.6345
  928MOL0     C25198   8.883   6.052   4.122  0.6978  0.0093  0.6811
  928MOL0     C25199   8.933   5.942   4.048  0.7513  0.3666  0.2066
  928MOL0     C25200   8.904   5.611   3.779  0.0880  1.2344 -0.2406
  928MOL0     C25201   8.924   5.471   3.818  0.4178  0.0156  0.8089
  928MOL0     C25202   8.947   5.362   3.729 -0.4529 -1.0376 -0.1704
  928MOL0     C25203   8.946   5.389   3.590  0.3069 -0.1752  0.1458
  928MOL0     O25204   8.964   5.291   3.496 -0.7594 -0.6790 -0.1925
  928MOL0     C25205   9.023   5.165   3.522  0.5587  0.9573 -0.0220
  928MOL0     C25206   9.172   5.146   3.565 -0.1237 -0.9924  1.0982
  928MOL0     C25207   9.270   5.175   3.452 -0.0844  0.2619  0.1324
  928MOL0     C25208   9.426   5.181   3.484  0.2195  0.0314 -0.9849
  928MOL0     C25209   9.499   5.223   3.359 -1.1705 -0.3625  0.1779
  928MOL0     C25210   9.565   5.260   3.261 -0.0012  0.0639 -0.3731
  928MOL0     C25211   8.926   5.522   3.543  0.1553  0.3130  0.1931
  928MOL0     C25212   8.907   5.627   3.637 -0.9675 -0.9307 -0.8717
  928MOL0     H25213   8.710   5.718   4.161 -2.6701  0.9490 -0.7471
  928MOL0     H25214   8.625   5.920   4.293  1.1727 -1.1858  0.3719
  928MOL0     H25215   8.543   6.194   4.169  2.5513  1.1262 -0.3091
  928MOL0     H25216   8.515   6.127   4.336  0.6728  0.5849  0.8490
  928MOL0     H25217   8.572   6.346   4.435 -3.0703 -1.8121  1.2025
  928MOL0     H25218   8.614   6.416   4.284  1.4344  0.3635  0.7991
  928MOL0     H25219   8.322   6.310   4.282 -0.9038  0.5447  0.6441
  928MOL0     H25220   8.372   6.448   4.379 -3.0060 -0.7088  0.2918
  928MOL0     H25221   8.461   6.548   4.162  2.4573 -1.6347 -1.1443
  928MOL0     H25222   8.455   6.405   4.076 -1.2977 -0.6765 -0.5351
  928MOL0     H25223   8.184   6.502   4.185  0.3911 -1.4965  0.8408
  928MOL0     H25224   8.264   6.576   4.039  1.1886 -0.7005  0.2983
  928MOL0     H25225   8.251   6.360   3.923 -1.2488  2.4132 -0.7259
  928MOL0     H25226   8.211   6.270   4.064  0.8515 -0.3759 -1.8885
  928MOL0     H25227   7.987   6.344   4.056  1.4503  0.8786  1.8284
  928MOL0     H25228   8.041   6.502   3.984 -0.0719 -0.4677  6.1834
  928MOL0     H25229   8.034   6.230   3.822  1.8757  0.5687 -4.4020
  928MOL0     H25230   8.053   6.389   3.765 -2.1649  0.9137 -0.8066
  928MOL0     H25231   7.757   6.221   3.980 -0.2052  0.0800  1.0171
  928MOL0     H25232   7.508   6.196   3.937 -0.8049 -2.8476 -1.3270
  928MOL0     H25233   7.438   6.337   3.857 -2.7848 -1.1988 -0.3899
  928MOL0     H25234   7.500   6.186   3.645 -0.1251  0.5470 -0.0238
  928MOL0     H25235   7.350   6.179   3.744 -0.2228  2.7772  2.7270
  928MOL0     H25236   7.417   5.947   3.716 -0.3676  0.1377 -1.3742
  928MOL0     H25237   7.443   5.990   3.878 -1.1431  2.6852 -0.5772
  928MOL0     H25238   7.624   5.865   3.790  0.1549  0.5534  0.7061
  928MOL0     H25239   7.698   6.029   3.802  1.7414 -1.1800 -2.1778
  928MOL0     H25240   7.701   5.767   3.481  0.1408 -1.1625  1.5752
  928MOL0     H25241   7.986   5.704   3.230  2.9414 -0.6221  2.3993
  928MOL0     H25242   7.967   5.591   3.352 -2.2126 -1.3647 -1.3830
  928MOL0     H25243   7.822   5.649   3.275  0.2058 -1.2045 -0.0604
  928MOL0     H25244   8.379   6.042   3.247  0.0299 -1.0972 -2.5188
  928MOL0     H25245   8.619   6.029   3.194 -1.6655  0.8872 -0.3315
  928MOL0     H25246   8.774   5.856   3.114  0.7941  0.8119 -1.3104
  928MOL0     H25247   8.833   6.016   3.193 -0.8613  0.1816  0.7377
  928MOL0     H25248   9.014   5.938   3.058 -0.6043  0.2896 -0.6112
  928MOL0     H25249   9.042   5.900   3.234 -0.7987 -0.4798  0.2678
  928MOL0     H25250   8.896   5.693   3.074 -0.2767 -0.8878 -1.5610
  928MOL0     H25251   8.998   5.687   3.220  0.0517 -2.7840 -1.3759
  928MOL0     H25252   9.093   5.742   2.929  1.1764 -0.0324 -0.6005
  928MOL0     H25253   9.200   5.745   3.066  0.4928 -0.7964 -0.3372
  928MOL0     H25254   9.029   5.497   2.992 -1.0167  2.0779 -1.4397
  928MOL0     H25255   9.175   5.516   3.099 -2.6481 -3.1510  0.1022
  928MOL0     H25256   9.167   5.539   2.792  1.9460 -2.3418 -1.7132
  928MOL0     H25257   9.310   5.556   2.901 -0.0334  0.2765  3.0037
  928MOL0     H25258   9.132   5.315   2.873 -0.0352 -0.1400 -2.9205
  928MOL0     H25259   9.265   5.333   2.986 -2.7130 -0.1367  0.6293
  928MOL0     H25260   9.308   5.359   2.684 -1.0310  0.7114  0.0945
  928MOL0     H25261   9.296   5.199   2.760  1.6567  0.3418 -0.2078
  928MOL0     H25262   8.671   5.765   3.529 -2.5377 -0.0733  2.2905
  928MOL0     H25263   8.421   5.772   3.563  1.3661 -1.7826 -1.0348
  928MOL0     H25264   8.088   6.046   3.591 -0.9911  0.3793  1.3535
  928MOL0     H25265   7.872   6.103   3.665  2.8172 -1.3498  2.5248
  928MOL0     H25266   8.910   6.156   4.102  1.4962 -0.6419 -1.9806
  928MOL0     H25267   9.027   5.949   3.995  1.3929 -0.2460  1.2235
  928MOL0     H25268   8.937   5.448   3.923  0.3129 -2.0937  0.4047
  928MOL0     H25269   8.970   5.263   3.768  0.6804 -0.1987  1.4282
  928MOL0     H25270   8.957   5.120   3.596 -2.2358  2.5335 -1.3815
  928MOL0     H25271   9.021   5.107   3.429  2.5167 -0.0383  0.5164
  928MOL0     H25272   9.180   5.039   3.585 -1.9981 -1.1831  1.0109
  928MOL0     H25273   9.197   5.203   3.654 -2.0344  2.9501 -0.6309
  928MOL0     H25274   9.250   5.274   3.411  5.2011  2.2498  1.5697
  928MOL0     H25275   9.256   5.096   3.378  0.5931 -0.3241  0.6116
  928MOL0     H25276   9.456   5.078   3.506 -1.4367 -0.7423 -2.0876
  928MOL0     H25277   9.463   5.232   3.573 -1.4356  2.8858 -1.8330
  928MOL0     H25278   9.614   5.290   3.170  4.1011 -3.7977  0.2144
  928MOL0     H25279   8.928   5.549   3.438 -0.7502 -1.0826 -0.2045
  928MOL0     H25280   8.890   5.727   3.599  0.0295 -0.3537  0.1343
  929MOL0     O25281   2.528   8.382   7.922  0.4024 -0.6359 -0.7107
  929MOL0     C25282   2.609   8.296   7.926 -0.0256 -0.4921  0.8941
  929MOL0     O25283   2.740   8.320   7.923 -0.1251 -0.4519  0.3085
  929MOL0     C25284   2.803   8.444   7.915  0.1409 -0.1528  0.8468
  929MOL0     C25285   2.750   8.572   7.920  0.4799 -0.6305  0.6492
  929MOL0     C25286   2.832   8.682   7.927  0.1446 -1.0069  0.3092
  929MOL0     C25287   2.971   8.674   7.949 -0.4311 -0.5691  0.7945
  929MOL0     O25288   3.056   8.782   7.963 -0.7348 -0.3071  0.1907
  929MOL0     C25289   3.036   8.902   7.893  0.8664  0.1214  1.6632
  929MOL0     C25290   3.165   8.970   7.863 -0.4102 -0.8843  0.2349
  929MOL0     C25291   3.234   9.012   7.992  0.0069 -0.0135  0.0050
  929MOL0     C25292   3.377   8.981   7.979 -0.0002  0.7091 -0.7646
  929MOL0     C25293   3.460   9.025   7.864  0.4058 -0.5566 -0.0417
  929MOL0     C25294   3.504   9.175   7.862  0.5799  0.4265 -0.2699
  929MOL0     C25295   3.584   9.196   7.727 -0.5481 -0.4563 -0.3437
  929MOL0     C25296   3.493   9.272   7.631 -0.6332  0.3537  0.7917
  929MOL0     N25297   3.562   9.296   7.502 -0.0860 -0.4104  0.2726
  929MOL0     C25298   3.589   9.199   7.409  0.0486 -0.1008  0.3223
  929MOL0     C25299   3.639   9.267   7.300  0.3885 -0.6519  0.4705
  929MOL0     C25300   3.667   9.207   7.172 -0.3245 -0.4984 -0.0230
  929MOL0     C25301   3.613   9.285   7.063 -0.1374 -0.2654 -0.9445
  929MOL0     C25302   3.580   9.206   6.937 -0.2855  0.5353 -0.3848
  929MOL0     C25303   3.693   9.194   6.838  0.3126 -0.0030 -0.9677
  929MOL0     O25304   3.722   9.330   6.794  0.0867  1.2109 -0.2879
  929MOL0     C25305   3.817   9.353   6.697 -0.4784 -0.8146 -0.3443
  929MOL0     C25306   3.851   9.487   6.673 -1.1685 -0.2840  0.2446
  929MOL0     C25307   3.948   9.520   6.579 -0.3298  0.0893  0.1502
  929MOL0     C25308   3.986   9.667   6.578  0.2591  0.7688  0.5441
  929MOL0     C25309   4.009   9.417   6.495  0.1833  0.3201  0.8242
  929MOL0     C25310   4.137   9.444   6.416 -0.4079 -0.0861  0.1006
  929MOL0     O25311   4.153   9.574   6.363 -0.2833  0.7343  0.0036
  929MOL0     C25312   4.227   9.612   6.251 -0.4782  0.7432 -0.6224
  929MOL0     C25313   4.373   9.596   6.241  0.5704 -0.6303  0.4714
  929MOL0     C25314   4.439   9.673   6.144  0.5162 -0.2491 -0.8759
  929MOL0     C25315   4.369   9.762   6.061  0.9271  0.3560 -0.3686
  929MOL0     O25316   4.449   9.839   5.979  0.0320 -0.3226  1.1560
  929MOL0     C25317   4.538   9.763   5.889  0.2004 -0.5731  0.0623
  929MOL0     C25318   4.611   9.852   5.791  0.8167 -1.3329 -1.1938
  929MOL0     C25319   4.720   9.922   5.873 -0.5459 -0.0865  0.5904
  929MOL0     C25320   4.769  10.048   5.786  0.4430  0.4020  0.2906
  929MOL0     C25321   4.885  10.118   5.852  0.9280 -0.7118 -0.8661
  929MOL0     C25322   4.844  10.163   5.998  0.2034 -0.0686  0.1016
  929MOL0     C25323   4.940  10.254   6.076  0.1881 -0.2271  0.0346
  929MOL0     C25324   4.975  10.385   5.986 -0.4353 -0.7123 -0.7609
  929MOL0    Cl25325   5.107  10.379   5.854 -0.1926  0.2211 -0.1587
  929MOL0     C25326   4.228   9.760   6.060 -0.5353  0.4519  0.3446
  929MOL0     C25327   4.164   9.698   6.163  0.0932 -0.9136 -0.3153
  929MOL0     O25328   4.207   9.350   6.389  0.4267  0.0031 -0.2473
  929MOL0     C25329   3.971   9.283   6.521  0.3227  0.1123 -0.8224
  929MOL0     C25330   3.872   9.254   6.611  0.4429 -0.4572 -0.7033
  929MOL0     N25331   3.647   9.404   7.337  0.2436 -0.1436  0.0838
  929MOL0     N25332   3.600   9.422   7.457 -0.3147  0.2296 -0.0508
  929MOL0     C25333   3.025   8.548   7.940  0.1357  0.8304 -0.8692
  929MOL0     C25334   2.943   8.436   7.917  0.7282 -0.1789 -0.2067
  929MOL0     C25335   2.567   8.154   7.941  0.1016  0.1703  0.1465
  929MOL0     C25336   2.450   8.125   8.010  0.6415 -0.1455 -0.1298
  929MOL0     C25337   2.404   7.989   8.025 -0.8653 -0.3516  0.0165
  929MOL0     C25338   2.497   7.881   7.989 -0.3625  0.7819  0.0452
  929MOL0     O25339   2.463   7.750   8.022 -0.1053 -0.3278 -0.8839
  929MOL0     C25340   2.563   7.643   8.001 -0.6784  0.2064  1.0124
  929MOL0     C25341   2.577   7.550   8.121 -0.1016  0.9193  0.2175
  929MOL0     C25342   2.676   7.432   8.071  0.1318 -1.0201 -0.8219
  929MOL0     C25343   2.821   7.449   8.136  0.2135 -0.0341  0.0658
  929MOL0     C25344   2.904   7.541   8.051  0.1081 -0.6152 -0.2147
  929MOL0     C25345   2.979   7.610   7.982  0.2722  0.3158  0.0898
  929MOL0     C25346   2.610   7.910   7.919  0.2696 -0.5566 -0.2727
  929MOL0     C25347   2.645   8.044   7.891 -0.0176  0.2106 -0.4256
  929MOL0     H25348   2.644   8.593   7.918  0.0828 -2.4332 -0.6671
  929MOL0     H25349   2.781   8.777   7.940 -0.4103 -1.1595 -0.6711
  929MOL0     H25350   2.980   8.877   7.802  5.1754 -3.4133 -0.3960
  929MOL0     H25351   2.963   8.963   7.947 -1.2761  2.8287 -3.5733
  929MOL0     H25352   3.217   8.885   7.816 -0.2724  0.5045 -2.3102
  929MOL0     H25353   3.175   9.044   7.783  2.0067 -1.6741 -0.2878
  929MOL0     H25354   3.226   9.119   8.014  0.8737  0.4081 -1.5271
  929MOL0     H25355   3.199   8.961   8.082  0.8935 -0.7746 -0.0653
  929MOL0     H25356   3.424   8.999   8.077 -3.7751  2.7472  0.8742
  929MOL0     H25357   3.377   8.872   7.980  0.2161  0.6382  2.3001
  929MOL0     H25358   3.554   8.970   7.855  1.6674  1.2699  1.2253
  929MOL0     H25359   3.407   9.010   7.769 -1.1572 -2.3814  1.0652
  929MOL0     H25360   3.415   9.238   7.868  1.1520  1.2539 -0.3618
  929MOL0     H25361   3.571   9.188   7.947  1.2752 -1.2991 -0.5141
  929MOL0     H25362   3.674   9.253   7.751 -1.9654  1.5534  0.4567
  929MOL0     H25363   3.612   9.100   7.684 -1.0105 -0.8308  0.1685
  929MOL0     H25364   3.469   9.367   7.680 -1.0535  0.1767  0.9308
  929MOL0     H25365   3.402   9.213   7.621 -1.9899  1.7939  3.5236
  929MOL0     H25366   3.561   9.095   7.413 -1.7376  0.1495 -2.6093
  929MOL0     H25367   3.777   9.212   7.169 -0.2405 -1.0773  1.2000
  929MOL0     H25368   3.637   9.102   7.172  0.4480 -0.7512  1.2866
  929MOL0     H25369   3.663   9.379   7.042  3.2789 -1.6309  0.3837
  929MOL0     H25370   3.510   9.299   7.097 -0.7470 -1.2931 -2.2567
  929MOL0     H25371   3.494   9.249   6.885 -1.7095  1.2935  2.4003
  929MOL0     H25372   3.557   9.102   6.964  1.8907  0.2032  0.4238
  929MOL0     H25373   3.662   9.133   6.752  0.7212 -3.2969  1.0723
  929MOL0     H25374   3.784   9.150   6.879 -0.5990  1.0523  2.4818
  929MOL0     H25375   3.811   9.564   6.737 -1.1674  0.0409 -0.1400
  929MOL0     H25376   3.975   9.699   6.474  1.3757 -0.5340  0.0023
  929MOL0     H25377   3.910   9.727   6.629 -1.2551 -1.3894  1.0029
  929MOL0     H25378   4.087   9.685   6.614  0.2320  2.5620 -0.1846
  929MOL0     H25379   4.437   9.547   6.314  2.7578 -1.3423 -1.7791
  929MOL0     H25380   4.546   9.659   6.142  0.5410  0.0329 -1.9990
  929MOL0     H25381   4.605   9.690   5.935  1.4494 -0.0441 -0.8629
  929MOL0     H25382   4.470   9.712   5.820 -0.8941  1.6955 -0.6191
  929MOL0     H25383   4.662   9.799   5.710  1.8392  1.6462 -2.6482
  929MOL0     H25384   4.546   9.931   5.753  0.0937 -1.0276  0.5953
  929MOL0     H25385   4.803   9.851   5.874 -0.3833  0.0706  2.3931
  929MOL0     H25386   4.686   9.932   5.977 -1.8792 -0.1404  0.1747
  929MOL0     H25387   4.809  10.012   5.691  1.5476  3.0959 -0.3453
  929MOL0     H25388   4.687  10.115   5.760 -0.8523 -1.4600 -0.7188
  929MOL0     H25389   4.902  10.208   5.793  0.7462  2.7769  3.7888
  929MOL0     H25390   4.973  10.054   5.852  1.8361  0.4899 -1.1528
  929MOL0     H25391   4.745  10.210   5.998  0.2072 -0.0563  0.4530
  929MOL0     H25392   4.835  10.072   6.057 -1.1325  0.7750  1.2681
  929MOL0     H25393   5.032  10.206   6.111  0.4462  1.2166  1.4328
  929MOL0     H25394   4.885  10.290   6.163  2.2994  2.3487  0.4369
  929MOL0     H25395   5.002  10.464   6.056  2.7278  0.2488 -2.8059
  929MOL0     H25396   4.885  10.409   5.929  0.7733  1.2873 -1.9491
  929MOL0     H25397   4.182   9.805   5.973 -1.7572 -1.5593 -0.1188
  929MOL0     H25398   4.056   9.696   6.152 -0.0227 -1.3303  0.7889
  929MOL0     H25399   4.007   9.199   6.462  3.1804  1.1773 -0.7541
  929MOL0     H25400   3.841   9.150   6.601 -1.5422 -0.2174  1.8969
  929MOL0     H25401   3.133   8.536   7.933 -0.1091 -0.7850 -3.5267
  929MOL0     H25402   2.991   8.338   7.921  0.6195 -0.1873  1.9780
  929MOL0     H25403   2.390   8.193   8.069 -0.0501 -1.2464  0.4632
  929MOL0     H25404   2.310   7.959   8.070 -1.3481  0.8283 -0.1766
  929MOL0     H25405   2.544   7.593   7.906 -1.4244  1.2080  0.6206
  929MOL0     H25406   2.666   7.678   7.991 -0.0490 -1.7202  0.3061
  929MOL0     H25407   2.484   7.496   8.144  1.1706 -2.4362 -1.8710
  929MOL0     H25408   2.605   7.610   8.208 -0.0383  3.9091 -1.6906
  929MOL0     H25409   2.685   7.422   7.963  1.3677  0.2111 -0.8680
  929MOL0     H25410   2.636   7.344   8.121  2.8317 -1.6091  0.4546
  929MOL0     H25411   2.867   7.351   8.142 -0.0903 -0.1154  1.2944
  929MOL0     H25412   2.828   7.477   8.242  0.8777  1.2172 -0.2790
  929MOL0     H25413   3.059   7.650   7.923 -1.7882  1.8883 -1.7984
  929MOL0     H25414   2.683   7.838   7.885  0.1957 -0.1457 -1.3332
  929MOL0     H25415   2.733   8.076   7.835 -0.4514 -0.2769 -1.4173
  930MOL0     O25416  10.887  10.890   8.768  0.4148 -0.3304  0.2182
  930MOL0     C25417  10.787  10.923   8.699  0.2274  0.6237  0.6300
  930MOL0     O25418  10.778  11.037   8.617  0.4372  0.1081 -0.3402
  930MOL0     C25419  10.884  11.118   8.585 -0.1759  0.0055  0.7098
  930MOL0     C25420  10.878  11.254   8.610 -0.2254  0.1717 -0.1767
  930MOL0     C25421  10.986  11.340   8.579  0.3887 -0.3172  0.1242
  930MOL0     C25422  11.109  11.281   8.546  0.9280  0.0519 -0.2422
  930MOL0     O25423  11.214  11.361   8.518  0.4573  0.2332  0.7704
  930MOL0     C25424  11.182  11.463   8.421  0.3639  0.1252 -0.3215
  930MOL0     C25425  11.302  11.534   8.351 -0.9045 -0.0461 -0.8139
  930MOL0     C25426  11.405  11.605   8.444  0.1488  0.2288 -0.3205
  930MOL0     C25427  11.351  11.736   8.500 -0.7411 -0.3494  0.2118
  930MOL0     C25428  11.434  11.786   8.620  0.7305  0.0347 -0.3159
  930MOL0     C25429  11.426  11.943   8.640 -0.7378  0.4140 -0.8287
  930MOL0     C25430  11.287  12.004   8.659  0.2590  0.1038  0.0803
  930MOL0     C25431  11.223  11.965   8.789  0.0465  0.1026 -0.6279
  930MOL0     N25432  11.093  12.033   8.809  1.3155 -0.2202 -0.4649
  930MOL0     C25433  10.970  11.969   8.841  0.0472 -0.6019  0.1391
  930MOL0     C25434  10.883  12.070   8.888 -0.2548 -0.4002 -1.2834
  930MOL0     C25435  10.742  12.045   8.939  0.5509  0.3734  0.2590
  930MOL0     C25436  10.669  12.156   9.031 -0.6035 -0.1608 -0.2406
  930MOL0     C25437  10.743  12.155   9.166 -0.4831 -0.3873 -0.7356
  930MOL0     C25438  10.818  12.293   9.201 -0.1641 -0.5642  0.4163
  930MOL0     O25439  10.872  12.298   9.332  0.2199 -0.7665  0.3416
  930MOL0     C25440  10.992  12.239   9.360 -0.7418 -0.5275 -0.7869
  930MOL0     C25441  11.037  12.237   9.491 -0.1384 -0.3943 -0.5530
  930MOL0     C25442  11.166  12.191   9.525  0.3008 -0.8500  0.1089
  930MOL0     C25443  11.215  12.236   9.661 -0.5785 -0.3018  0.2392
  930MOL0     C25444  11.244  12.118   9.437  0.3336  0.5054 -0.4039
  930MOL0     C25445  11.363  12.041   9.487 -0.1798  0.0340  0.4203
  930MOL0     O25446  11.459  12.040   9.398 -0.3494  0.0755 -0.7071
  930MOL0     C25447  11.529  11.924   9.380 -0.4273  0.1422 -0.3353
  930MOL0     C25448  11.486  11.790   9.421 -1.0372  0.1103 -0.2777
  930MOL0     C25449  11.583  11.683   9.410 -0.5540 -0.1044 -0.3210
  930MOL0     C25450  11.712  11.706   9.372  0.8889 -0.1519 -0.2677
  930MOL0     O25451  11.815  11.610   9.372  0.6198  0.1767  0.2492
  930MOL0     C25452  11.770  11.477   9.337  0.3561 -0.5315 -1.2531
  930MOL0     C25453  11.895  11.391   9.302 -0.6882  0.4564  0.5641
  930MOL0     C25454  11.904  11.372   9.150 -0.7501 -1.1652  0.8031
  930MOL0     C25455  12.051  11.350   9.112  0.5895 -0.1780  0.0267
  930MOL0     C25456  12.076  11.309   8.966 -0.6368 -0.7582  0.6082
  930MOL0     C25457  12.029  11.426   8.867 -0.6153  0.9610 -0.5687
  930MOL0     C25458  12.061  11.378   8.725 -0.2459  0.7760  0.5761
  930MOL0     C25459  12.006  11.462   8.606 -0.0167  0.0094 -0.7779
  930MOL0    Cl25460  11.826  11.462   8.623 -0.4681 -0.1982  0.2868
  930MOL0     C25461  11.743  11.830   9.329  0.8597  0.2598  0.2766
  930MOL0     C25462  11.659  11.940   9.333  0.3143 -0.1676 -0.8413
  930MOL0     O25463  11.374  12.004   9.604  0.2598  0.4268 -0.1319
  930MOL0     C25464  11.200  12.111   9.308  1.5789 -0.2107  0.4386
  930MOL0     C25465  11.070  12.163   9.276 -0.4074 -0.0350  0.2754
  930MOL0     N25466  10.957  12.190   8.874 -0.1615 -0.2532  0.5018
  930MOL0     N25467  11.078  12.167   8.824 -0.4528 -0.0462  0.3117
  930MOL0     C25468  11.111  11.148   8.522  0.0709  0.5090 -0.0795
  930MOL0     C25469  11.000  11.066   8.535 -1.1178  0.1920  0.6272
  930MOL0     C25470  10.660  10.842   8.716 -1.0484 -0.2281 -0.2618
  930MOL0     C25471  10.557  10.867   8.630  0.0969 -0.5433  0.2833
  930MOL0     C25472  10.436  10.805   8.638  0.1726 -0.6250 -0.4347
  930MOL0     C25473  10.422  10.702   8.731 -0.0018  0.4386 -0.7787
  930MOL0     O25474  10.315  10.619   8.766 -0.3723 -0.0833  0.3632
  930MOL0     C25475  10.187  10.653   8.711 -0.2896  0.6549  0.7682
  930MOL0     C25476  10.079  10.564   8.767  0.1420  0.0653 -0.3583
  930MOL0     C25477  10.092  10.405   8.763  0.1403  0.5955  0.4647
  930MOL0     C25478   9.957  10.333   8.799  0.6674 -0.1357  0.1371
  930MOL0     C25479   9.901  10.389   8.924  0.6784 -1.0070  0.4289
  930MOL0     C25480   9.853  10.420   9.033 -0.0954  0.5652 -0.3251
  930MOL0     C25481  10.533  10.668   8.811 -0.7003 -0.5204 -0.2229
  930MOL0     C25482  10.654  10.743   8.813 -0.7708 -0.0312  0.1149
  930MOL0     H25483  10.787  11.297   8.649  1.0782 -0.2204  3.6513
  930MOL0     H25484  10.969  11.446   8.595  0.9908 -0.3296  0.8667
  930MOL0     H25485  11.115  11.431   8.341 -0.7547  1.0516  0.2228
  930MOL0     H25486  11.124  11.543   8.467 -0.4967 -0.5458 -0.2236
  930MOL0     H25487  11.361  11.458   8.300  1.6126  0.2462  1.3802
  930MOL0     H25488  11.271  11.599   8.269  1.2863 -0.8619 -2.3792
  930MOL0     H25489  11.412  11.535   8.528 -0.0703  0.2835 -0.2553
  930MOL0     H25490  11.507  11.614   8.406  0.3647 -1.2396 -0.1635
  930MOL0     H25491  11.358  11.807   8.418  1.0550 -0.1512  0.4970
  930MOL0     H25492  11.245  11.734   8.527 -1.0550  3.4730 -0.2061
  930MOL0     H25493  11.414  11.728   8.711 -2.8996  0.4545 -0.6990
  930MOL0     H25494  11.539  11.769   8.596  1.0205 -0.5270  1.2219
  930MOL0     H25495  11.476  11.960   8.735 -1.9033  0.7084 -0.2448
  930MOL0     H25496  11.491  11.993   8.568 -1.9696  0.5740 -1.8792
  930MOL0     H25497  11.301  12.113   8.668 -0.3460  0.2455 -0.5821
  930MOL0     H25498  11.222  11.985   8.573  2.0371  0.5666 -1.4333
  930MOL0     H25499  11.294  11.996   8.866 -0.6335  2.5157 -0.8824
  930MOL0     H25500  11.209  11.858   8.804 -3.3158  0.4653 -0.5521
  930MOL0     H25501  10.939  11.866   8.836  0.6990 -0.9639  2.4790
  930MOL0     H25502  10.669  12.019   8.862  1.0820 -4.7129  1.1432
  930MOL0     H25503  10.744  11.950   8.993 -4.2533 -0.3064 -0.3630
  930MOL0     H25504  10.565  12.123   9.032 -1.3472  1.9158  1.9052
  930MOL0     H25505  10.688  12.255   8.986 -2.0232 -0.3939 -1.4137
  930MOL0     H25506  10.819  12.076   9.170  0.0305  0.1153 -0.3342
  930MOL0     H25507  10.675  12.135   9.249  1.2074 -2.1845  0.3218
  930MOL0     H25508  10.739  12.368   9.200 -0.2646 -0.4780  3.8561
  930MOL0     H25509  10.880  12.326   9.117 -3.1248  2.8912 -0.6907
  930MOL0     H25510  10.977  12.302   9.553 -0.4305 -0.4863 -0.7359
  930MOL0     H25511  11.320  12.265   9.662 -0.5625 -0.3593  0.6204
  930MOL0     H25512  11.157  12.321   9.698  2.9611  0.8844  3.7363
  930MOL0     H25513  11.194  12.150   9.726 -3.3058 -1.4689 -1.9451
  930MOL0     H25514  11.386  11.769   9.457  0.0870 -1.4363  2.2360
  930MOL0     H25515  11.547  11.589   9.450  0.5352  0.0169  1.0056
  930MOL0     H25516  11.715  11.435   9.421 -1.0999  2.0777 -0.7830
  930MOL0     H25517  11.693  11.477   9.259 -1.7793 -0.2615  0.7371
  930MOL0     H25518  11.990  11.433   9.335 -1.5957  3.5376 -0.4114
  930MOL0     H25519  11.871  11.288   9.330 -2.5974  0.7092  0.0449
  930MOL0     H25520  11.868  11.468   9.111  0.8739 -0.9813 -0.3900
  930MOL0     H25521  11.840  11.296   9.104  0.7412 -0.9356 -1.8845
  930MOL0     H25522  12.112  11.432   9.151 -1.8374  1.1727  1.2290
  930MOL0     H25523  12.089  11.269   9.174  0.6118 -1.9212 -2.1140
  930MOL0     H25524  12.007  11.226   8.946 -2.7458  1.5472 -2.7160
  930MOL0     H25525  12.181  11.288   8.943 -1.0639  0.7735 -3.6001
  930MOL0     H25526  11.923  11.447   8.885 -0.3305  1.4928  0.6258
  930MOL0     H25527  12.085  11.517   8.889  0.3131  0.3660 -0.4145
  930MOL0     H25528  12.025  11.275   8.726  2.0947 -0.1324  2.5998
  930MOL0     H25529  12.167  11.367   8.700 -0.7974  1.2935 -2.2748
  930MOL0     H25530  12.034  11.417   8.510  2.8430 -2.0667  0.9152
  930MOL0     H25531  12.038  11.566   8.612 -1.4802  0.4556 -0.0410
  930MOL0     H25532  11.849  11.845   9.310  1.8437  1.0153  5.1001
  930MOL0     H25533  11.705  12.037   9.315  1.5622 -0.5488  0.1549
  930MOL0     H25534  11.249  12.052   9.231  0.3527 -1.4977  0.6032
  930MOL0     H25535  11.031  12.150   9.175 -1.5124 -0.0848  0.6960
  930MOL0     H25536  11.200  11.106   8.474 -1.1325  1.6884 -3.6741
  930MOL0     H25537  11.020  10.964   8.504 -0.8022  0.7293 -1.0161
  930MOL0     H25538  10.565  10.932   8.544  2.2559  1.2641  1.7460
  930MOL0     H25539  10.369  10.821   8.554  0.1389 -1.3213 -0.5446
  930MOL0     H25540  10.164  10.757   8.734  2.3567  1.2708  1.0204
  930MOL0     H25541  10.186  10.633   8.604  1.2716  0.8077  0.7012
  930MOL0     H25542   9.984  10.579   8.715  0.6258  0.9549 -1.0156
  930MOL0     H25543  10.072  10.590   8.873  0.2268  3.6083 -1.0900
  930MOL0     H25544  10.163  10.370   8.839 -1.0240 -1.4752  0.6882
  930MOL0     H25545  10.133  10.368   8.669  3.4673 -2.1376  2.7267
  930MOL0     H25546   9.970  10.225   8.808 -2.1672 -0.5729 -0.0858
  930MOL0     H25547   9.876  10.350   8.728 -0.1761 -1.6968  0.6831
  930MOL0     H25548   9.800  10.439   9.124 -1.4616  0.8237 -1.1558
  930MOL0     H25549  10.529  10.585   8.879 -0.9569 -1.2078 -1.0563
  930MOL0     H25550  10.739  10.724   8.877 -0.2978  0.7489 -0.2774
  931MOL0     O25551   6.137   9.177   3.841 -0.2300  0.9427 -0.2834
  931MOL0     C25552   6.168   9.136   3.727  0.1964  0.4290 -0.5253
  931MOL0     O25553   6.105   9.031   3.663 -0.3387 -0.8727  0.6416
  931MOL0     C25554   6.000   8.962   3.721 -0.6222 -0.9711 -0.7043
  931MOL0     C25555   5.917   8.912   3.618 -0.3684 -0.0954 -0.0975
  931MOL0     C25556   5.797   8.844   3.652 -0.5506  0.2883  0.1207
  931MOL0     C25557   5.764   8.822   3.789  0.6896  0.0942  0.1763
  931MOL0     O25558   5.644   8.762   3.817  0.4069 -0.1434 -0.7662
  931MOL0     C25559   5.659   8.654   3.920  0.1722  0.0835 -0.1925
  931MOL0     C25560   5.526   8.584   3.936 -0.1078 -0.0301 -1.0243
  931MOL0     C25561   5.470   8.512   3.816 -0.1107 -0.4619  0.4170
  931MOL0     C25562   5.398   8.383   3.859  0.9736  0.6464  0.6677
  931MOL0     C25563   5.496   8.274   3.884  0.5464 -0.3068  0.2077
  931MOL0     C25564   5.450   8.148   3.944  0.9212  0.4892  0.3571
  931MOL0     C25565   5.377   8.047   3.848  0.0300  0.4804 -0.3456
  931MOL0     C25566   5.225   8.069   3.808 -0.0339  0.1290 -0.0285
  931MOL0     N25567   5.124   7.973   3.859  0.7390 -0.3828  0.1778
  931MOL0     C25568   5.098   7.852   3.808 -0.1165 -0.0101  0.1038
  931MOL0     C25569   4.984   7.812   3.878 -1.6154 -0.4821  0.0013
  931MOL0     C25570   4.920   7.687   3.852  0.4792  0.7331 -0.2901
  931MOL0     C25571   4.771   7.687   3.816  0.7282  0.2086  0.7768
  931MOL0     C25572   4.701   7.555   3.778 -0.9113 -0.6892 -0.1000
  931MOL0     C25573   4.576   7.573   3.688  0.5244 -0.4775 -0.5333
  931MOL0     O25574   4.492   7.661   3.761  0.0531  0.0500 -0.0640
  931MOL0     C25575   4.375   7.689   3.696  0.2069  0.4162  0.0458
  931MOL0     C25576   4.312   7.805   3.745  0.3936 -0.7984  0.1283
  931MOL0     C25577   4.189   7.853   3.680 -0.3683  0.8470 -1.0842
  931MOL0     C25578   4.116   7.963   3.748 -0.6082 -0.6664  0.4585
  931MOL0     C25579   4.142   7.790   3.561  0.0236 -0.5455 -0.0683
  931MOL0     C25580   4.030   7.841   3.480 -0.3634 -0.0209 -0.7457
  931MOL0     O25581   3.932   7.755   3.429 -0.3919  0.0662  0.3391
  931MOL0     C25582   3.843   7.811   3.342  0.2114 -0.0312  1.6281
  931MOL0     C25583   3.761   7.923   3.374 -0.1834  0.2017 -0.4813
  931MOL0     C25584   3.658   7.975   3.294  0.4256  0.4143 -0.1820
  931MOL0     C25585   3.637   7.912   3.168  0.2152 -0.1226 -0.3482
  931MOL0     O25586   3.538   7.970   3.088 -0.9359  0.2672 -0.2031
  931MOL0     C25587   3.467   7.867   3.010 -0.1590  0.2675  0.5519
  931MOL0     C25588   3.324   7.893   2.985 -0.1283  0.4787 -0.0491
  931MOL0     C25589   3.296   7.999   2.880  1.2317 -0.8225 -0.2613
  931MOL0     C25590   3.151   8.068   2.890 -0.4690 -0.6937  0.5359
  931MOL0     C25591   3.172   8.195   2.971  1.0075  0.8822 -1.7009
  931MOL0     C25592   3.040   8.254   3.025 -0.3798  0.1758  0.7716
  931MOL0     C25593   2.958   8.303   2.897 -0.2917  0.9337 -0.7615
  931MOL0     C25594   2.838   8.394   2.927  1.2500  0.5171  0.0159
  931MOL0    Cl25595   2.777   8.454   2.766 -0.0975  0.1958  0.0197
  931MOL0     C25596   3.724   7.806   3.127 -0.5011  1.0990  0.2227
  931MOL0     C25597   3.817   7.746   3.220 -0.0573  0.5809 -0.8579
  931MOL0     O25598   4.047   7.956   3.442  0.1187 -0.5638 -0.4008
  931MOL0     C25599   4.210   7.675   3.517 -0.2550 -0.5501 -0.7297
  931MOL0     C25600   4.321   7.631   3.578 -1.2178 -0.2217 -0.7179
  931MOL0     N25601   4.944   7.911   3.963  0.4915  0.4630 -0.0405
  931MOL0     N25602   5.039   7.997   3.965  0.7024  0.2510  0.2123
  931MOL0     C25603   5.847   8.864   3.891 -0.6157  0.5592 -0.8118
  931MOL0     C25604   5.971   8.935   3.858  0.3962 -0.2330 -0.3808
  931MOL0     C25605   6.265   9.224   3.652  0.0185 -0.2098  0.8252
  931MOL0     C25606   6.314   9.184   3.527  0.0245 -0.6941 -0.0418
  931MOL0     C25607   6.399   9.261   3.449  0.7942  0.2220 -0.1558
  931MOL0     C25608   6.430   9.399   3.498 -0.1915  0.3323  0.3592
  931MOL0     O25609   6.504   9.491   3.437 -0.4518 -0.7893 -0.0638
  931MOL0     C25610   6.519   9.468   3.293  0.1292 -0.6784 -0.7454
  931MOL0     C25611   6.598   9.588   3.236  0.2104  0.3021  0.2380
  931MOL0     C25612   6.748   9.607   3.299  0.5027 -0.8575 -0.3578
  931MOL0     C25613   6.813   9.723   3.214  0.5600 -0.1160 -1.0915
  931MOL0     C25614   6.739   9.850   3.235  0.3597 -0.4099 -0.8072
  931MOL0     C25615   6.672   9.956   3.240  0.7143 -0.2763 -0.2765
  931MOL0     C25616   6.384   9.436   3.623 -0.2789  0.2293  0.0377
  931MOL0     C25617   6.304   9.350   3.698  0.5373 -0.4007  0.4822
  931MOL0     H25618   5.956   8.925   3.517 -1.2462 -0.1537 -0.4489
  931MOL0     H25619   5.731   8.805   3.575 -1.1263  1.0793  0.2017
  931MOL0     H25620   5.734   8.579   3.896 -2.1777 -2.6271  0.4647
  931MOL0     H25621   5.687   8.683   4.022 -1.5900 -1.3979  0.7847
  931MOL0     H25622   5.546   8.513   4.018 -1.1810  0.9163  0.0971
  931MOL0     H25623   5.458   8.658   3.978 -1.0521 -1.2458 -0.3217
  931MOL0     H25624   5.397   8.573   3.762  0.4982  0.7510  0.9027
  931MOL0     H25625   5.557   8.490   3.754  1.5374  4.7773  0.3982
  931MOL0     H25626   5.341   8.410   3.949 -2.2074 -1.7767 -0.4389
  931MOL0     H25627   5.326   8.349   3.785  1.5401 -2.8687  1.5598
  931MOL0     H25628   5.545   8.250   3.789 -3.5130  1.1383 -2.5327
  931MOL0     H25629   5.577   8.314   3.946  0.7433  0.2825 -0.4225
  931MOL0     H25630   5.539   8.094   3.977  2.0224  1.2196 -1.2960
  931MOL0     H25631   5.374   8.166   4.021  0.0225 -1.1574 -0.0876
  931MOL0     H25632   5.442   8.032   3.761  1.1815  0.8667  0.4277
  931MOL0     H25633   5.377   7.946   3.890 -2.6803  0.1263 -1.0073
  931MOL0     H25634   5.215   8.067   3.699 -3.8416 -1.1094  0.2005
  931MOL0     H25635   5.183   8.168   3.831  0.2888  0.3534 -0.3816
  931MOL0     H25636   5.144   7.798   3.727 -0.0233  0.2993 -0.0534
  931MOL0     H25637   4.975   7.634   3.775  2.2001  0.9263  0.7501
  931MOL0     H25638   4.930   7.629   3.945  0.9275  0.2053 -0.6667
  931MOL0     H25639   4.755   7.769   3.745  2.6787  0.5235  0.6505
  931MOL0     H25640   4.712   7.721   3.902 -0.2998 -0.7892  0.4941
  931MOL0     H25641   4.653   7.516   3.868 -1.0127 -0.3406 -0.0014
  931MOL0     H25642   4.774   7.481   3.744 -0.2421 -0.3232  0.5171
  931MOL0     H25643   4.518   7.482   3.675 -3.3657  1.6596  0.3933
  931MOL0     H25644   4.602   7.628   3.597 -0.1322  0.6419 -0.0683
  931MOL0     H25645   4.355   7.857   3.830 -1.6113  0.6378  0.3346
  931MOL0     H25646   4.011   7.938   3.766 -1.1885  2.9782  3.3258
  931MOL0     H25647   4.167   7.995   3.839 -0.3177  0.4681 -0.0874
  931MOL0     H25648   4.128   8.048   3.680  0.3706 -2.1759 -1.3530
  931MOL0     H25649   3.775   7.976   3.468  2.1074 -0.9904 -0.0896
  931MOL0     H25650   3.610   8.068   3.325 -0.5395 -0.4245  0.9129
  931MOL0     H25651   3.509   7.878   2.909 -3.2249 -2.5829 -1.2056
  931MOL0     H25652   3.476   7.767   3.051  2.1854 -0.2929 -1.0522
  931MOL0     H25653   3.282   7.795   2.958  2.0839 -0.4498 -0.3768
  931MOL0     H25654   3.283   7.919   3.083  1.7969 -1.1610  1.2744
  931MOL0     H25655   3.282   7.942   2.788 -0.7554  0.9561 -1.1471
  931MOL0     H25656   3.372   8.078   2.868  2.2655 -1.7889 -0.2358
  931MOL0     H25657   3.114   8.095   2.791  0.3978 -0.3592  0.2942
  931MOL0     H25658   3.076   8.001   2.932 -3.0532  0.0763 -2.4500
  931MOL0     H25659   3.228   8.267   2.910  2.2444  3.6621  2.3097
  931MOL0     H25660   3.230   8.183   3.063 -1.3154  0.1489 -0.2598
  931MOL0     H25661   2.982   8.176   3.073 -0.2904 -1.9839 -2.3159
  931MOL0     H25662   3.061   8.342   3.086  0.9541  3.1240 -3.4423
  931MOL0     H25663   2.925   8.211   2.847  1.4350 -0.0910 -0.1273
  931MOL0     H25664   3.021   8.358   2.826 -1.7737  3.2961 -0.3543
  931MOL0     H25665   2.861   8.473   3.000  0.1109 -1.4853  2.7088
  931MOL0     H25666   2.754   8.355   2.984 -2.2116  3.1686 -2.8027
  931MOL0     H25667   3.714   7.752   3.033 -2.3110  1.6961  0.0349
  931MOL0     H25668   3.879   7.659   3.203  0.0266  0.1996  1.1584
  931MOL0     H25669   4.174   7.626   3.427 -0.8209  1.3691 -1.6042
  931MOL0     H25670   4.357   7.539   3.533  1.2070  0.8331 -1.0727
  931MOL0     H25671   5.822   8.850   3.996  0.2358  1.1115 -0.5158
  931MOL0     H25672   6.031   8.980   3.936 -1.4871 -1.4777  1.9301
  931MOL0     H25673   6.278   9.090   3.486  1.4601 -0.4549 -1.9707
  931MOL0     H25674   6.439   9.235   3.352 -0.5781  1.4386 -1.0820
  931MOL0     H25675   6.580   9.378   3.292 -1.9662 -2.1743 -0.6479
  931MOL0     H25676   6.428   9.456   3.233  0.0191  2.8290 -1.4844
  931MOL0     H25677   6.547   9.683   3.220  2.9045  1.4301 -2.8806
  931MOL0     H25678   6.618   9.564   3.131 -1.4304  0.4097 -0.1186
  931MOL0     H25679   6.803   9.515   3.280  0.5313 -0.9023 -0.0572
  931MOL0     H25680   6.731   9.649   3.399 -3.1556 -0.1978 -1.0989
  931MOL0     H25681   6.825   9.700   3.107  1.5705  1.2396 -1.3052
  931MOL0     H25682   6.914   9.743   3.251 -0.8076  3.0262  1.3726
  931MOL0     H25683   6.617  10.048   3.243  2.2490  0.6581  0.2200
  931MOL0     H25684   6.414   9.533   3.662 -2.1546  0.9904 -0.2997
  931MOL0     H25685   6.265   9.389   3.791  0.0483  1.1217 -0.3140
  932MOL0     O25686   9.469   8.337   5.602 -0.3296  0.6567 -0.3206
  932MOL0     C25687   9.559   8.352   5.684  0.2433 -0.1379 -0.2302
  932MOL0     O25688   9.691   8.350   5.652  0.6077  1.2852 -0.1212
  932MOL0     C25689   9.723   8.324   5.513  0.6096  0.1846  0.4915
  932MOL0     C25690   9.686   8.417   5.417 -0.1481 -0.3051 -0.2947
  932MOL0     C25691   9.721   8.398   5.282 -0.7583 -0.1076  0.0657
  932MOL0     C25692   9.789   8.283   5.244  0.2195  0.1426  0.8124
  932MOL0     O25693   9.826   8.246   5.113  0.4233 -0.5626 -0.3974
  932MOL0     C25694   9.815   8.343   5.010  0.0678  0.7280  0.8539
  932MOL0     C25695   9.906   8.304   4.891 -0.9568  0.8140  0.4911
  932MOL0     C25696   9.920   8.151   4.878 -0.1322  0.0965  0.5478
  932MOL0     C25697   9.941   8.099   4.734  0.6125 -0.6400  0.4870
  932MOL0     C25698   9.970   7.948   4.734  0.2907 -0.5481 -0.5631
  932MOL0     C25699   9.838   7.866   4.738  0.5219 -0.9194 -0.8507
  932MOL0     C25700   9.870   7.720   4.771  0.4640 -0.5603  0.3800
  932MOL0     C25701   9.751   7.633   4.798 -0.0953  0.7897 -0.0553
  932MOL0     N25702   9.773   7.494   4.822 -1.0631  0.1093  0.7396
  932MOL0     C25703   9.878   7.415   4.791 -0.1574  0.0463 -0.3096
  932MOL0     C25704   9.847   7.294   4.833  1.0515 -1.5263 -0.4584
  932MOL0     C25705   9.937   7.179   4.827  0.1283  0.1545  0.6909
  932MOL0     C25706  10.052   7.183   4.934 -0.3105 -0.0190 -0.4427
  932MOL0     C25707  10.164   7.084   4.921  0.2402 -0.8572  0.0251
  932MOL0     C25708  10.209   7.046   4.785  0.0728  0.2494 -0.3390
  932MOL0     O25709  10.313   6.942   4.788 -0.1453 -0.8109 -0.5451
  932MOL0     C25710  10.342   6.880   4.665  0.8347 -0.2853  0.8175
  932MOL0     C25711  10.302   6.926   4.536  0.0708  0.7803  0.1552
  932MOL0     C25712  10.373   6.874   4.422  0.2935 -0.0626  0.4790
  932MOL0     C25713  10.352   6.954   4.294  0.2832  0.3606  0.2866
  932MOL0     C25714  10.458   6.756   4.434 -0.0095 -0.8374  0.0185
  932MOL0     C25715  10.513   6.681   4.316  0.3485  0.2377  0.0849
  932MOL0     O25716  10.624   6.599   4.336  0.1550 -0.8954 -0.3437
  932MOL0     C25717  10.674   6.531   4.232 -0.2937  0.5026  0.2008
  932MOL0     C25718  10.643   6.395   4.207 -0.1438  0.3878  0.7891
  932MOL0     C25719  10.703   6.320   4.107 -0.3684 -0.4674  0.0878
  932MOL0     C25720  10.799   6.382   4.013  0.0436  0.6523  0.4459
  932MOL0     O25721  10.851   6.301   3.919  0.1105 -0.3378 -0.7966
  932MOL0     C25722  10.928   6.364   3.817  0.3477  0.4786  0.3482
  932MOL0     C25723  10.996   6.262   3.719 -0.4919  0.1983 -0.1468
  932MOL0     C25724  11.132   6.204   3.769 -0.4990  0.1068  0.6866
  932MOL0     C25725  11.197   6.115   3.657  0.5376 -0.1130 -0.7488
  932MOL0     C25726  11.334   6.047   3.720 -1.0297  0.6988 -0.3364
  932MOL0     C25727  11.417   5.982   3.611 -0.1306  0.2900  0.6618
  932MOL0     C25728  11.481   5.858   3.672  0.1608  0.4165  0.5655
  932MOL0     C25729  11.525   5.757   3.566 -0.5049  0.0030  0.7791
  932MOL0    Cl25730  11.680   5.842   3.512 -0.2163  0.1576 -0.5838
  932MOL0     C25731  10.820   6.526   4.030  0.7700 -0.7166 -0.1349
  932MOL0     C25732  10.765   6.592   4.146 -0.2253 -0.0590 -0.3723
  932MOL0     O25733  10.452   6.687   4.213  0.4992 -0.2744  0.1379
  932MOL0     C25734  10.492   6.716   4.565  0.2474  0.0873 -0.5153
  932MOL0     C25735  10.435   6.783   4.672 -0.0374 -0.9052  0.3486
  932MOL0     N25736   9.721   7.298   4.892  0.5453  0.8831  0.3699
  932MOL0     N25737   9.683   7.417   4.877 -0.4755 -0.2681 -0.3079
  932MOL0     C25738   9.821   8.192   5.340  0.3121  0.0396 -0.7989
  932MOL0     C25739   9.795   8.213   5.471  0.6006  0.7054 -0.3681
  932MOL0     C25740   9.509   8.384   5.815  0.7582 -0.2966 -0.3780
  932MOL0     C25741   9.608   8.428   5.916 -0.0654 -0.4199 -0.0985
  932MOL0     C25742   9.565   8.491   6.031 -0.2755  0.0718 -0.2773
  932MOL0     C25743   9.439   8.490   6.066  0.4911 -0.1684  0.3588
  932MOL0     O25744   9.409   8.560   6.182 -0.1345 -0.8338 -0.0746
  932MOL0     C25745   9.291   8.560   6.257  0.8080 -0.1475  0.3473
  932MOL0     C25746   9.327   8.631   6.387 -0.7023 -0.0771 -0.0691
  932MOL0     C25747   9.350   8.779   6.369  0.3075 -0.2621 -0.2682
  932MOL0     C25748   9.214   8.850   6.362 -0.2230 -0.4639  0.6029
  932MOL0     C25749   9.237   8.993   6.377  0.0646  0.1568  0.7376
  932MOL0     C25750   9.242   9.113   6.405 -0.7615  0.5583 -0.2925
  932MOL0     C25751   9.337   8.447   5.977  0.0198 -1.1076  0.3580
  932MOL0     C25752   9.373   8.396   5.858 -0.0937  0.5699 -0.0937
  932MOL0     H25753   9.638   8.509   5.451  4.5044  2.3066  0.0695
  932MOL0     H25754   9.696   8.476   5.211 -0.1481 -1.0958 -1.2505
  932MOL0     H25755   9.711   8.332   4.978 -0.2067 -1.3298  2.2522
  932MOL0     H25756   9.836   8.446   5.042 -1.1702  1.7741 -1.4926
  932MOL0     H25757   9.858   8.349   4.804 -2.4526 -0.1163  0.7971
  932MOL0     H25758  10.006   8.348   4.900 -0.8506  0.1968  3.1169
  932MOL0     H25759  10.009   8.120   4.934 -1.1709  0.3368  2.4173
  932MOL0     H25760   9.830   8.107   4.922  1.5727 -0.3266  3.9612
  932MOL0     H25761   9.858   8.126   4.668  0.9841  2.3789  1.0785
  932MOL0     H25762  10.025   8.152   4.688  0.4367 -0.0028  0.8876
  932MOL0     H25763  10.017   7.922   4.638 -0.3704 -1.2454 -0.7044
  932MOL0     H25764  10.037   7.929   4.818  0.8270  1.2363 -0.5397
  932MOL0     H25765   9.777   7.908   4.817  1.1013 -2.0933  0.2602
  932MOL0     H25766   9.772   7.889   4.654 -0.8133  0.7698  0.5952
  932MOL0     H25767   9.929   7.695   4.683  2.1251 -0.8614  1.5242
  932MOL0     H25768   9.934   7.703   4.859  0.5427  0.0506  0.4422
  932MOL0     H25769   9.687   7.631   4.709  1.6416 -2.1284 -1.3906
  932MOL0     H25770   9.699   7.670   4.887  3.3366  0.0185  2.4913
  932MOL0     H25771   9.976   7.446   4.756  0.2289 -3.1538 -2.5211
  932MOL0     H25772   9.877   7.089   4.847  1.6729 -0.7870  1.2831
  932MOL0     H25773   9.978   7.180   4.725 -2.9373  1.3448 -0.6613
  932MOL0     H25774  10.011   7.165   5.034  2.3650 -1.8218  0.4452
  932MOL0     H25775  10.109   7.274   4.916  3.8543 -2.8638 -3.9879
  932MOL0     H25776  10.111   6.996   4.960 -0.6698 -1.7117 -2.8531
  932MOL0     H25777  10.249   7.109   4.985  0.5598  4.0575 -1.9194
  932MOL0     H25778  10.251   7.131   4.732 -2.1119 -1.2522 -4.9590
  932MOL0     H25779  10.127   7.014   4.720 -0.7050  2.0383 -0.3032
  932MOL0     H25780  10.229   7.005   4.526  1.2808  2.2122  2.0282
  932MOL0     H25781  10.325   7.055   4.324 -0.2152 -0.1761  1.7031
  932MOL0     H25782  10.441   6.948   4.230 -1.5443  0.1697 -2.3759
  932MOL0     H25783  10.270   6.908   4.239 -0.5708  1.5329  0.5538
  932MOL0     H25784  10.571   6.344   4.270  0.0911  1.9602  2.3815
  932MOL0     H25785  10.675   6.215   4.104 -1.8013 -0.1264  0.4724
  932MOL0     H25786  10.852   6.420   3.763  0.8967  1.0976  0.2095
  932MOL0     H25787  10.997   6.440   3.856 -0.4028 -0.1377  3.0739
  932MOL0     H25788  10.923   6.185   3.695  1.2474 -1.0973 -1.5457
  932MOL0     H25789  11.015   6.320   3.628  0.7022  1.2186  0.7252
  932MOL0     H25790  11.112   6.144   3.859 -0.5700  1.1622  1.3916
  932MOL0     H25791  11.201   6.285   3.797 -0.0622  0.3960 -1.1119
  932MOL0     H25792  11.128   6.032   3.639  2.6263 -2.0526 -0.3653
  932MOL0     H25793  11.219   6.188   3.578  3.2814  3.3506  2.8242
  932MOL0     H25794  11.309   5.980   3.802 -2.2421  2.9722  1.2351
  932MOL0     H25795  11.392   6.129   3.762 -0.6988  0.5754 -0.5485
  932MOL0     H25796  11.349   5.955   3.529 -1.1013  0.3731  1.4221
  932MOL0     H25797  11.491   6.045   3.560 -0.1956  0.8469  1.2539
  932MOL0     H25798  11.419   5.801   3.742  0.5143  0.0328  0.5722
  932MOL0     H25799  11.572   5.881   3.727  1.4068 -0.7998 -0.8547
  932MOL0     H25800  11.458   5.727   3.485  2.2641 -0.6363 -1.4199
  932MOL0     H25801  11.547   5.661   3.613  0.6779  1.1367  2.6721
  932MOL0     H25802  10.886   6.584   3.966  0.1567 -1.2856 -1.3303
  932MOL0     H25803  10.782   6.697   4.166  2.6093 -0.8508  2.0814
  932MOL0     H25804  10.553   6.629   4.589 -0.5985 -0.1215  0.9378
  932MOL0     H25805  10.477   6.753   4.767 -1.6405 -2.1685  0.6882
  932MOL0     H25806   9.883   8.106   5.316  3.4085  1.5949  1.0154
  932MOL0     H25807   9.820   8.138   5.547  1.8973 -0.0430 -1.4962
  932MOL0     H25808   9.714   8.432   5.894  0.2451  1.3438  1.4604
  932MOL0     H25809   9.636   8.525   6.107  0.1665 -3.3142  1.0383
  932MOL0     H25810   9.208   8.610   6.206  0.8958  1.1174  1.4041
  932MOL0     H25811   9.271   8.456   6.285  5.9782 -1.1198  1.4316
  932MOL0     H25812   9.417   8.597   6.440 -1.3463 -0.7927  0.5754
  932MOL0     H25813   9.246   8.605   6.456 -0.0955 -2.7510 -0.2684
  932MOL0     H25814   9.404   8.804   6.277 -1.4926  0.1848 -1.2487
  932MOL0     H25815   9.399   8.824   6.455  0.8127  0.2443 -0.8086
  932MOL0     H25816   9.150   8.793   6.429 -0.3549 -0.8925  0.1144
  932MOL0     H25817   9.162   8.856   6.266  2.4304  1.4856 -0.8672
  932MOL0     H25818   9.238   9.217   6.430 -0.3180 -0.0131  2.4876
  932MOL0     H25819   9.233   8.475   5.990  0.5523  0.5716  1.2565
  932MOL0     H25820   9.299   8.375   5.781 -1.5162  5.2414 -0.3122
  933MOL0     O25821   5.315   5.167   4.439  0.2702  0.4843  0.4522
  933MOL0     C25822   5.383   5.191   4.540  0.7510  0.1733 -0.2056
  933MOL0     O25823   5.472   5.294   4.555  0.3680  0.1084 -0.8581
  933MOL0     C25824   5.514   5.371   4.452  0.1354  0.6389  0.6466
  933MOL0     C25825   5.554   5.322   4.324  0.4953 -0.6202  0.2535
  933MOL0     C25826   5.599   5.413   4.230 -0.6477  0.4010 -0.0864
  933MOL0     C25827   5.598   5.543   4.252 -0.2445 -0.2595  0.2201
  933MOL0     O25828   5.646   5.618   4.147 -0.0163  0.5378 -1.1283
  933MOL0     C25829   5.702   5.753   4.168 -0.1138  0.1536 -0.3479
  933MOL0     C25830   5.819   5.756   4.269  0.6023 -0.4697 -0.1663
  933MOL0     C25831   5.945   5.834   4.227 -0.3873 -0.8588 -0.1870
  933MOL0     C25832   6.036   5.848   4.350  0.3790  0.1864  0.1568
  933MOL0     C25833   6.172   5.917   4.340 -1.3086  0.5149  1.1246
  933MOL0     C25834   6.199   5.970   4.483  0.5125  0.8273  0.3692
  933MOL0     C25835   6.325   6.048   4.502  0.4817  0.0088 -0.8434
  933MOL0     C25836   6.450   5.967   4.474  1.1886 -0.5426  0.3024
  933MOL0     N25837   6.567   6.055   4.476 -0.1922 -0.2380  0.2208
  933MOL0     C25838   6.620   6.136   4.377 -0.6588  1.4107 -0.4760
  933MOL0     C25839   6.727   6.196   4.428 -0.0894  0.0133 -0.1026
  933MOL0     C25840   6.814   6.280   4.349 -0.4336 -0.6915  1.5177
  933MOL0     C25841   6.913   6.214   4.267 -0.9057  0.5694 -0.5618
  933MOL0     C25842   7.018   6.141   4.360  0.0094 -0.0493  0.3205
  933MOL0     C25843   7.152   6.118   4.298 -0.5364  1.1812  0.1758
  933MOL0     O25844   7.228   6.242   4.290 -1.0310  0.7434 -0.1407
  933MOL0     C25845   7.225   6.319   4.182 -1.2630 -0.1189 -0.3373
  933MOL0     C25846   7.227   6.458   4.218 -0.3475  1.1454  0.0610
  933MOL0     C25847   7.232   6.556   4.119  0.8671  0.1354  0.1563
  933MOL0     C25848   7.241   6.701   4.167  0.2807  0.7086  0.7342
  933MOL0     C25849   7.214   6.524   3.988 -0.4225 -0.3491  1.3288
  933MOL0     C25850   7.200   6.612   3.866 -0.1896  0.1322 -0.3333
  933MOL0     O25851   7.207   6.552   3.745 -0.0561 -0.0068  0.3472
  933MOL0     C25852   7.242   6.623   3.642  0.3753  0.1725  1.1877
  933MOL0     C25853   7.368   6.598   3.585  0.2870 -0.2859  0.1429
  933MOL0     C25854   7.415   6.682   3.483 -0.5727 -0.1588  0.3953
  933MOL0     C25855   7.341   6.785   3.428 -0.1219 -0.8745  0.5193
  933MOL0     O25856   7.392   6.861   3.321  0.2481  0.2092 -0.0951
  933MOL0     C25857   7.534   6.855   3.282 -0.2460 -1.3699  0.2735
  933MOL0     C25858   7.560   6.928   3.143  0.2010 -0.4705 -0.8733
  933MOL0     C25859   7.514   7.080   3.119  0.9235  0.3512 -0.3372
  933MOL0     C25860   7.520   7.169   3.240  0.0720 -0.5464 -0.6678
  933MOL0     C25861   7.478   7.314   3.217 -0.3317  0.6027  0.0637
  933MOL0     C25862   7.423   7.395   3.340 -0.6399  0.2007 -0.9973
  933MOL0     C25863   7.544   7.410   3.442  0.3297 -0.2250 -0.2383
  933MOL0     C25864   7.501   7.456   3.581 -0.9099  0.1663  0.4831
  933MOL0    Cl25865   7.368   7.585   3.569 -0.3892  0.2538 -0.2062
  933MOL0     C25866   7.217   6.805   3.477  0.9849 -1.3158 -0.0296
  933MOL0     C25867   7.162   6.725   3.577  0.1236  0.2957  0.6529
  933MOL0     O25868   7.194   6.733   3.881  0.3982 -0.4528  0.4230
  933MOL0     C25869   7.205   6.391   3.954  0.1746  0.5598  0.2732
  933MOL0     C25870   7.214   6.289   4.054 -0.0596 -1.0078  0.9432
  933MOL0     N25871   6.732   6.162   4.564 -0.4097 -0.0203  0.4866
  933MOL0     N25872   6.654   6.060   4.582 -0.1011  0.0999 -0.4588
  933MOL0     C25873   5.574   5.594   4.381  0.4887  0.0053 -0.8893
  933MOL0     C25874   5.536   5.505   4.488  0.0664 -0.9098  0.5032
  933MOL0     C25875   5.362   5.091   4.648 -0.2471 -0.1321 -0.0185
  933MOL0     C25876   5.300   4.974   4.645 -0.1416 -0.0162 -0.1517
  933MOL0     C25877   5.284   4.888   4.760 -0.0661  0.8685  0.5507
  933MOL0     C25878   5.346   4.924   4.880 -0.0680 -0.8701  0.2322
  933MOL0     O25879   5.331   4.850   4.997 -0.0458 -0.1941 -0.0405
  933MOL0     C25880   5.442   4.759   4.985 -0.9807 -0.5925  0.8005
  933MOL0     C25881   5.444   4.647   5.095  0.3311 -0.4207  0.6430
  933MOL0     C25882   5.439   4.706   5.238 -0.0101 -0.5204 -0.8556
  933MOL0     C25883   5.297   4.684   5.281  0.3886 -0.6504 -0.8298
  933MOL0     C25884   5.286   4.688   5.432  0.4295 -0.0260  0.6367
  933MOL0     C25885   5.292   4.654   5.550  0.0188  0.0776  0.1957
  933MOL0     C25886   5.410   5.040   4.882  0.0099  0.5382 -0.5765
  933MOL0     C25887   5.428   5.122   4.771 -0.1267  0.3094  0.7442
  933MOL0     H25888   5.565   5.216   4.303  3.1747 -0.2548 -0.5827
  933MOL0     H25889   5.652   5.376   4.142  2.5528  0.0051  1.8618
  933MOL0     H25890   5.742   5.795   4.075  1.0932 -0.0952  0.0393
  933MOL0     H25891   5.627   5.817   4.216  0.0672 -0.3271  0.5967
  933MOL0     H25892   5.772   5.805   4.355 -0.4075 -0.1958 -0.8566
  933MOL0     H25893   5.854   5.655   4.292 -3.6281 -1.6670  2.1110
  933MOL0     H25894   5.999   5.790   4.142 -0.3316  3.1781 -2.4859
  933MOL0     H25895   5.912   5.934   4.198 -1.3223  0.2225  3.9799
  933MOL0     H25896   5.980   5.900   4.428  1.5922 -1.9104  2.5833
  933MOL0     H25897   6.062   5.744   4.373  1.1602 -0.5910 -3.6499
  933MOL0     H25898   6.244   5.844   4.303 -3.1144  0.0849 -1.8770
  933MOL0     H25899   6.160   5.996   4.265 -1.9377 -1.1780 -0.6328
  933MOL0     H25900   6.111   6.029   4.511  1.0584  2.1877 -0.6600
  933MOL0     H25901   6.212   5.882   4.546  3.5350  1.0025  0.1419
  933MOL0     H25902   6.322   6.136   4.437 -1.8834  1.2577  0.8012
  933MOL0     H25903   6.328   6.086   4.605 -0.7420 -0.7518 -0.5045
  933MOL0     H25904   6.457   5.929   4.371  1.1260 -1.8700  0.7662
  933MOL0     H25905   6.467   5.893   4.552  3.7260 -1.4183 -0.9483
  933MOL0     H25906   6.574   6.149   4.280 -1.0274 -0.4807 -0.5853
  933MOL0     H25907   6.749   6.339   4.284 -2.7023 -1.3693  3.0648
  933MOL0     H25908   6.858   6.356   4.414 -0.0455  1.3493 -0.9743
  933MOL0     H25909   6.967   6.297   4.220 -0.4631  1.1463  0.8832
  933MOL0     H25910   6.875   6.146   4.190  1.2419  0.2255 -1.4080
  933MOL0     H25911   6.976   6.046   4.395  4.3417 -2.1202  0.6756
  933MOL0     H25912   7.040   6.197   4.452 -1.4615  0.9662  0.0877
  933MOL0     H25913   7.121   6.081   4.200 -0.4452  2.8541 -0.5206
  933MOL0     H25914   7.203   6.040   4.354 -0.8186 -0.2933 -1.5406
  933MOL0     H25915   7.231   6.482   4.324 -0.7957 -0.2257  0.4131
  933MOL0     H25916   7.283   6.701   4.269 -1.0774 -0.4235  1.3221
  933MOL0     H25917   7.303   6.770   4.109  0.9976  2.0965  2.9867
  933MOL0     H25918   7.136   6.729   4.172 -1.0562 -3.5927  0.0641
  933MOL0     H25919   7.422   6.509   3.616 -1.9369 -0.9210  2.4826
  933MOL0     H25920   7.517   6.661   3.452 -1.2100  1.5278 -3.4147
  933MOL0     H25921   7.580   6.909   3.365 -0.9168  0.1832 -0.3309
  933MOL0     H25922   7.567   6.751   3.278 -4.5398 -2.9493  0.1912
  933MOL0     H25923   7.669   6.936   3.139  0.5212  1.8792  4.4203
  933MOL0     H25924   7.520   6.865   3.063 -1.6013  1.6902 -1.8116
  933MOL0     H25925   7.412   7.076   3.080  1.4689 -1.4675 -1.7099
  933MOL0     H25926   7.580   7.123   3.042  2.6148 -0.5778  0.5214
  933MOL0     H25927   7.445   7.121   3.303  1.2651 -3.9552 -1.6140
  933MOL0     H25928   7.617   7.167   3.290 -0.8592  1.1419  1.3104
  933MOL0     H25929   7.398   7.319   3.144 -2.2325  2.4061  2.1090
  933MOL0     H25930   7.569   7.369   3.190  1.2975  0.1205  3.8360
  933MOL0     H25931   7.385   7.491   3.303 -1.9141  0.0357 -0.1909
  933MOL0     H25932   7.342   7.345   3.393  0.7003 -0.9635  0.0319
  933MOL0     H25933   7.620   7.470   3.392  1.1080 -1.2715 -0.3394
  933MOL0     H25934   7.594   7.315   3.461 -1.3310 -0.3756  4.8620
  933MOL0     H25935   7.589   7.490   3.636  0.5804 -3.6096  0.6736
  933MOL0     H25936   7.469   7.365   3.632  1.1642 -1.8002 -1.4747
  933MOL0     H25937   7.166   6.893   3.440  1.1275  0.3512  3.4114
  933MOL0     H25938   7.063   6.752   3.612  0.4297  0.2973  1.5602
  933MOL0     H25939   7.181   6.355   3.855 -0.8950  0.3699  0.5906
  933MOL0     H25940   7.214   6.185   4.023 -0.8635 -1.0541  1.0597
  933MOL0     H25941   5.575   5.701   4.397 -0.7636 -0.0678 -0.1360
  933MOL0     H25942   5.521   5.545   4.588 -0.6240  1.4690 -0.4757
  933MOL0     H25943   5.245   4.957   4.553  0.1891  1.7085 -0.7058
  933MOL0     H25944   5.233   4.796   4.734 -2.0211  2.5765 -2.0551
  933MOL0     H25945   5.445   4.706   4.890 -0.5908 -0.3662  0.6835
  933MOL0     H25946   5.537   4.813   4.995 -0.1449 -1.8596 -0.0647
  933MOL0     H25947   5.541   4.597   5.085 -0.3482 -1.6183 -0.1922
  933MOL0     H25948   5.370   4.571   5.071 -0.8488  1.1356 -0.9116
  933MOL0     H25949   5.459   4.813   5.252  0.8754 -0.8659  0.7885
  933MOL0     H25950   5.511   4.644   5.292 -0.3149 -0.0494  0.1176
  933MOL0     H25951   5.257   4.586   5.250  0.0836 -1.0146  0.6135
  933MOL0     H25952   5.250   4.769   5.230 -1.4936 -0.3931  1.1895
  933MOL0     H25953   5.307   4.617   5.649  1.0192 -0.1499 -0.0384
  933MOL0     H25954   5.452   5.056   4.981 -1.3365 -0.9920  0.2863
  933MOL0     H25955   5.487   5.214   4.774 -2.6214  2.1107 -0.8538
  934MOL0     O25956   0.401   5.589   4.844  0.4233 -0.8585 -0.6132
  934MOL0     C25957   0.341   5.593   4.736 -0.6663  0.5294  0.3484
  934MOL0     O25958   0.390   5.536   4.621  0.4946 -0.1518  0.4033
  934MOL0     C25959   0.471   5.431   4.638 -0.0261  1.3167 -0.0786
  934MOL0     C25960   0.606   5.430   4.593  0.1050  0.3369 -1.4994
  934MOL0     C25961   0.700   5.324   4.612 -1.2988 -0.0153 -0.6533
  934MOL0     C25962   0.654   5.208   4.689 -0.4253  0.1653 -0.1350
  934MOL0     O25963   0.755   5.121   4.734 -0.0313 -0.1466 -0.0665
  934MOL0     C25964   0.713   4.983   4.772  0.4313 -0.6063  0.2855
  934MOL0     C25965   0.848   4.919   4.789  0.2246 -0.1820 -0.6207
  934MOL0     C25966   0.936   4.899   4.665 -1.3356  0.3014 -0.0701
  934MOL0     C25967   1.069   4.838   4.712 -0.3010  0.9341 -0.5502
  934MOL0     C25968   1.174   4.875   4.613 -0.0553  0.6657 -0.4755
  934MOL0     C25969   1.285   4.776   4.603  0.0576  0.0862  0.9103
  934MOL0     C25970   1.417   4.837   4.549 -0.2099  0.5771  0.0461
  934MOL0     C25971   1.399   4.901   4.412  0.5970 -0.0379  0.7771
  934MOL0     N25972   1.329   4.829   4.299  0.0306 -0.6949  0.0881
  934MOL0     C25973   1.260   4.899   4.198 -0.0347 -0.7393 -0.2189
  934MOL0     C25974   1.177   4.813   4.146 -0.1796 -0.2835  0.2521
  934MOL0     C25975   1.062   4.835   4.041 -0.7215 -1.1043 -0.5488
  934MOL0     C25976   0.927   4.857   4.109  0.5769  0.5188 -0.3924
  934MOL0     C25977   0.916   4.934   4.238 -0.7166 -0.3174 -0.6525
  934MOL0     C25978   0.778   4.964   4.275 -0.3149 -0.6553  0.5291
  934MOL0     O25979   0.703   5.042   4.177  0.8128  0.2049  0.1421
  934MOL0     C25980   0.581   5.089   4.213  0.0510 -0.0462 -0.4604
  934MOL0     C25981   0.512   5.164   4.119 -0.0960  0.2840 -0.1330
  934MOL0     C25982   0.394   5.226   4.143  0.4033 -0.1305  0.7937
  934MOL0     C25983   0.349   5.321   4.031  0.0711  1.1194  0.4905
  934MOL0     C25984   0.311   5.198   4.261 -0.1979  0.0947 -1.1858
  934MOL0     C25985   0.172   5.251   4.288 -0.0549 -0.1308  0.0053
  934MOL0     O25986   0.138   5.249   4.421 -0.1836  0.2041  0.9653
  934MOL0     C25987   0.012   5.287   4.461  0.1943  0.4485 -1.3637
  934MOL0     C25988  -0.081   5.366   4.388  0.2044  0.2937 -0.6453
  934MOL0     C25989  -0.215   5.374   4.437  0.8750 -0.8151  0.0932
  934MOL0     C25990  -0.254   5.321   4.557  0.5546  0.5694  0.0875
  934MOL0     O25991  -0.381   5.353   4.597 -0.4071 -0.0231 -0.5336
  934MOL0     C25992  -0.444   5.230   4.639 -0.5895  0.2240  0.4922
  934MOL0     C25993  -0.595   5.257   4.625  0.1235  0.0501 -1.1623
  934MOL0     C25994  -0.650   5.275   4.484 -0.2983  0.1649  0.1471
  934MOL0     C25995  -0.766   5.366   4.477 -0.6126  0.9069 -0.3941
  934MOL0     C25996  -0.835   5.360   4.349  0.8952 -1.2285 -0.1147
  934MOL0     C25997  -0.965   5.446   4.355  0.0119 -0.2248  0.4803
  934MOL0     C25998  -1.085   5.382   4.438 -0.1318  0.7397 -0.2022
  934MOL0     C25999  -1.206   5.477   4.421  0.6641 -0.8884  0.1131
  934MOL0    Cl26000  -1.305   5.410   4.553 -0.0436  0.5258  0.0974
  934MOL0     C26001  -0.164   5.243   4.633  0.1181 -0.5645 -0.1546
  934MOL0     C26002  -0.029   5.230   4.583  0.7829  0.0330 -0.1906
  934MOL0     O26003   0.096   5.275   4.199 -0.0283 -0.4663 -0.3450
  934MOL0     C26004   0.383   5.121   4.353  0.1941 -0.0673 -0.2067
  934MOL0     C26005   0.516   5.071   4.334 -0.0806 -0.2966  0.0152
  934MOL0     N26006   1.206   4.686   4.201 -0.4147 -0.0388  0.4964
  934MOL0     N26007   1.309   4.695   4.280 -0.2647  0.0369  0.2759
  934MOL0     C26008   0.516   5.203   4.730 -0.0093  0.0538 -0.6379
  934MOL0     C26009   0.428   5.319   4.712 -0.7428 -0.4554 -0.4425
  934MOL0     C26010   0.204   5.664   4.732 -0.3360  0.9873  0.1350
  934MOL0     C26011   0.111   5.634   4.631  0.0280  1.4908  1.0658
  934MOL0     C26012  -0.017   5.702   4.624  0.1932 -1.0753 -0.6402
  934MOL0     C26013  -0.044   5.811   4.714  0.1194 -0.0014  0.1491
  934MOL0     O26014  -0.166   5.886   4.734 -0.7819 -0.1952  0.5783
  934MOL0     C26015  -0.276   5.863   4.643 -0.1739 -0.0271  0.0738
  934MOL0     C26016  -0.364   5.755   4.700  0.9419 -0.2028 -0.9149
  934MOL0     C26017  -0.430   5.791   4.836 -0.1256  0.5714  0.4693
  934MOL0     C26018  -0.546   5.892   4.836  0.6733 -0.5629  0.8542
  934MOL0     C26019  -0.650   5.853   4.740 -0.6406  0.0741  0.9741
  934MOL0     C26020  -0.729   5.835   4.649 -0.0722 -0.1059 -0.1535
  934MOL0     C26021   0.044   5.829   4.814 -0.6372  0.4224  0.1990
  934MOL0     C26022   0.167   5.764   4.823 -0.1777  0.1699  0.2076
  934MOL0     H26023   0.636   5.523   4.545  0.1911  0.5528 -1.0439
  934MOL0     H26024   0.807   5.326   4.593 -1.5666 -1.1856 -2.5751
  934MOL0     H26025   0.664   4.976   4.870 -2.0533 -0.9281 -0.8967
  934MOL0     H26026   0.658   4.931   4.693 -1.5063  0.9564  0.5060
  934MOL0     H26027   0.903   4.974   4.867  2.6827 -2.0875 -0.8640
  934MOL0     H26028   0.821   4.818   4.822 -0.2813 -0.2699 -1.2804
  934MOL0     H26029   0.880   4.832   4.599 -1.4413 -0.8793  1.1565
  934MOL0     H26030   0.961   4.991   4.613  1.3056  0.2871  0.9894
  934MOL0     H26031   1.103   4.879   4.807 -0.9729 -0.6964  0.4440
  934MOL0     H26032   1.057   4.729   4.719  1.5384  0.6870 -0.5483
  934MOL0     H26033   1.119   4.871   4.518  0.1418 -1.2925 -0.5541
  934MOL0     H26034   1.216   4.975   4.622 -2.0378  1.7920 -2.7867
  934MOL0     H26035   1.301   4.733   4.703  0.3281 -1.6454  0.1730
  934MOL0     H26036   1.243   4.696   4.541 -3.0737  2.0379  0.2824
  934MOL0     H26037   1.463   4.909   4.617  2.0283 -1.5589  0.8960
  934MOL0     H26038   1.477   4.749   4.525 -1.6953  0.4914 -4.5206
  934MOL0     H26039   1.498   4.931   4.377  1.4070 -2.8009  0.5306
  934MOL0     H26040   1.343   4.995   4.413  2.7417  1.4604 -2.2540
  934MOL0     H26041   1.259   5.005   4.176 -1.5007 -0.5821  0.4479
  934MOL0     H26042   1.092   4.921   3.980 -0.8360 -1.7333 -1.4982
  934MOL0     H26043   1.050   4.746   3.979  0.1661 -1.6185 -0.0149
  934MOL0     H26044   0.892   4.755   4.128  3.0500 -0.5528 -1.1184
  934MOL0     H26045   0.870   4.910   4.033  1.1065  1.0511 -0.4193
  934MOL0     H26046   0.962   5.033   4.240  0.1110 -0.5715 -3.2711
  934MOL0     H26047   0.956   4.866   4.315 -2.2810 -0.5133  0.0186
  934MOL0     H26048   0.787   5.035   4.358 -1.2068  0.6896 -0.4694
  934MOL0     H26049   0.730   4.872   4.306  1.9135 -2.0260  0.1305
  934MOL0     H26050   0.561   5.178   4.023 -1.9950  0.4229 -1.1319
  934MOL0     H26051   0.276   5.270   3.968 -0.7743 -0.7393  2.8200
  934MOL0     H26052   0.309   5.405   4.089 -0.6404  0.0062  1.6350
  934MOL0     H26053   0.430   5.352   3.965  0.0735 -1.0210 -0.5966
  934MOL0     H26054  -0.052   5.420   4.298 -0.7898  0.2792 -0.9788
  934MOL0     H26055  -0.303   5.415   4.390  0.6200 -0.6723  0.6794
  934MOL0     H26056  -0.403   5.151   4.575  0.4744 -0.2630  1.7364
  934MOL0     H26057  -0.414   5.204   4.741 -0.0189  0.0770  0.2903
  934MOL0     H26058  -0.643   5.176   4.680 -0.7874  1.0938 -0.3722
  934MOL0     H26059  -0.618   5.346   4.684 -2.0434 -1.7701  0.8981
  934MOL0     H26060  -0.677   5.174   4.452  0.1766 -0.2736  1.0698
  934MOL0     H26061  -0.576   5.304   4.409 -1.5406  3.9137  0.1852
  934MOL0     H26062  -0.837   5.348   4.558 -1.4221  0.0374 -1.2550
  934MOL0     H26063  -0.734   5.469   4.493  0.9393  0.1503  1.8273
  934MOL0     H26064  -0.846   5.253   4.329  2.3822 -1.6858  1.2431
  934MOL0     H26065  -0.765   5.388   4.270 -0.9111 -0.1685 -1.4208
  934MOL0     H26066  -0.946   5.539   4.411  0.4967  1.7566 -2.7055
  934MOL0     H26067  -1.004   5.468   4.255 -0.9371 -0.4471  0.7876
  934MOL0     H26068  -1.065   5.372   4.545 -0.9939  0.1002 -0.0904
  934MOL0     H26069  -1.106   5.281   4.400 -1.5696 -0.9291  4.3158
  934MOL0     H26070  -1.240   5.457   4.319 -1.8326 -1.1132  0.9131
  934MOL0     H26071  -1.188   5.584   4.434 -0.9845 -0.4518 -0.9072
  934MOL0     H26072  -0.189   5.175   4.714 -0.3221 -4.6659 -3.4118
  934MOL0     H26073   0.042   5.168   4.638  0.0560  2.3282  3.7509
  934MOL0     H26074   0.337   5.098   4.449 -2.3241  1.3006 -0.9839
  934MOL0     H26075   0.559   5.011   4.413 -0.7507 -1.2254 -0.3077
  934MOL0     H26076   0.478   5.121   4.790 -4.5438 -0.3353 -3.5392
  934MOL0     H26077   0.328   5.315   4.753 -0.4453  0.0280  0.3451
  934MOL0     H26078   0.147   5.554   4.567 -1.5958  0.7464  1.0287
  934MOL0     H26079  -0.074   5.685   4.534  2.2347 -2.9921 -1.6827
  934MOL0     H26080  -0.327   5.959   4.630 -0.3973  0.2507  2.5946
  934MOL0     H26081  -0.249   5.837   4.540 -2.5459  3.0023 -1.5033
  934MOL0     H26082  -0.305   5.666   4.723  0.2778 -0.3600  0.3286
  934MOL0     H26083  -0.451   5.732   4.638 -0.8898  0.0966  1.3755
  934MOL0     H26084  -0.359   5.821   4.914 -2.4586 -1.1465  3.4364
  934MOL0     H26085  -0.485   5.703   4.869  0.4265  0.5355  1.3284
  934MOL0     H26086  -0.517   5.997   4.832 -2.1301  0.3847  2.7379
  934MOL0     H26087  -0.600   5.886   4.931  0.5934  0.5307  0.8893
  934MOL0     H26088  -0.810   5.834   4.578  2.9760 -4.1885 -4.2103
  934MOL0     H26089   0.001   5.889   4.894 -0.2166  1.5809 -0.4264
  934MOL0     H26090   0.244   5.793   4.894  0.7531 -0.1641 -0.6405
  935MOL0     O26091   8.227   0.291   8.123 -0.3068 -0.0908  0.8721
  935MOL0     C26092   8.194   0.197   8.049  0.5986 -0.7880 -1.1379
  935MOL0     O26093   8.252   0.072   8.046  0.4506 -0.4005 -0.1762
  935MOL0     C26094   8.346   0.040   8.133  0.5108  0.3411 -0.4836
  935MOL0     C26095   8.320  -0.040   8.243 -0.6386 -0.9337 -0.7599
  935MOL0     C26096   8.423  -0.065   8.334 -0.1437  0.8185  0.8701
  935MOL0     C26097   8.552  -0.006   8.314 -0.3640  0.9034  0.5290
  935MOL0     O26098   8.659  -0.018   8.394  0.0886 -0.2885  0.1213
  935MOL0     C26099   8.648  -0.112   8.502  0.0560 -0.6358  0.2029
  935MOL0     C26100   8.795  -0.135   8.548 -0.5768 -0.0797  0.3868
  935MOL0     C26101   8.865  -0.236   8.451  0.9815  0.0132 -0.3784
  935MOL0     C26102   9.012  -0.255   8.481 -0.2979  0.1834  0.4161
  935MOL0     C26103   9.073  -0.363   8.390  0.0642  0.4826 -1.4656
  935MOL0     C26104   9.206  -0.416   8.450  0.5860 -0.1648 -0.0299
  935MOL0     C26105   9.184  -0.516   8.563  0.3773  0.3965 -0.3830
  935MOL0     C26106   9.315  -0.574   8.601  1.4522  0.1847  0.1785
  935MOL0     N26107   9.375  -0.503   8.709 -0.5715  0.1234  1.0827
  935MOL0     C26108   9.469  -0.400   8.689  0.5027  0.8507 -0.1657
  935MOL0     C26109   9.489  -0.355   8.819  1.7012  0.4159 -0.5945
  935MOL0     C26110   9.595  -0.263   8.855 -0.8548 -0.0440  0.5760
  935MOL0     C26111   9.547  -0.124   8.825 -0.0582  0.1498  0.9663
  935MOL0     C26112   9.440  -0.079   8.929 -0.9528  0.2279  0.1885
  935MOL0     C26113   9.429   0.074   8.934 -0.0387 -0.1764 -0.3389
  935MOL0     O26114   9.336   0.108   9.036 -0.0134  0.1713 -0.5048
  935MOL0     C26115   9.395   0.191   9.125  0.8430  0.9098 -0.3009
  935MOL0     C26116   9.430   0.141   9.248 -0.5993  0.4367 -0.7786
  935MOL0     C26117   9.473   0.224   9.358 -0.4885 -0.2141  0.0386
  935MOL0     C26118   9.489   0.165   9.501  1.0271 -0.0461 -0.0605
  935MOL0     C26119   9.476   0.367   9.331 -0.4285  0.2773  0.1193
  935MOL0     C26120   9.509   0.467   9.434  0.1746  0.0529 -1.2071
  935MOL0     O26121   9.470   0.450   9.568  0.5300 -0.0372  0.6523
  935MOL0     C26122   9.537   0.512   9.665 -0.3397 -0.1100 -0.3518
  935MOL0     C26123   9.477   0.621   9.728  0.3888  0.1279 -0.9015
  935MOL0     C26124   9.528   0.686   9.836  0.7004 -0.0258  0.4476
  935MOL0     C26125   9.658   0.656   9.878  0.8077 -0.1583  0.5760
  935MOL0     O26126   9.705   0.733   9.980 -0.3743  0.4789  0.9145
  935MOL0     C26127   9.825   0.685  10.041 -0.6905 -0.1553  0.3626
  935MOL0     C26128   9.873   0.753  10.167  0.3168 -0.0216 -1.0941
  935MOL0     C26129  10.007   0.680  10.224 -0.0375  0.6693 -1.2983
  935MOL0     C26130  10.062   0.747  10.357  0.5687 -0.2483  0.0289
  935MOL0     C26131  10.164   0.660  10.430  1.0017 -0.2844  0.9400
  935MOL0     C26132  10.300   0.657  10.347  1.1749  0.5102 -0.0785
  935MOL0     C26133  10.364   0.791  10.303 -0.7086 -0.4255 -1.1000
  935MOL0     C26134  10.493   0.761  10.221  0.5448 -0.0559  0.3373
  935MOL0    Cl26135  10.551   0.908  10.142  0.3371 -0.0097 -0.0760
  935MOL0     C26136   9.726   0.546   9.804  0.1695 -0.2244 -0.2317
  935MOL0     C26137   9.668   0.474   9.692  1.1573 -0.4762 -0.2151
  935MOL0     O26138   9.572   0.566   9.392 -0.7188  0.4783 -0.0731
  935MOL0     C26139   9.435   0.413   9.206  0.4424 -0.4054 -0.5124
  935MOL0     C26140   9.402   0.323   9.104 -0.3048 -0.4168 -0.2835
  935MOL0     N26141   9.397  -0.414   8.902  0.2044  0.2427 -0.1552
  935MOL0     N26142   9.331  -0.499   8.837 -0.7349  0.0949  0.3156
  935MOL0     C26143   8.583   0.072   8.202  0.6765 -0.0949  0.0815
  935MOL0     C26144   8.477   0.094   8.112  0.4271  0.5926  0.3231
  935MOL0     C26145   8.093   0.239   7.946 -0.2676  0.8853 -0.0718
  935MOL0     C26146   8.026   0.360   7.942  0.1824 -0.3062  0.2897
  935MOL0     C26147   7.917   0.386   7.854  0.7280  0.2817  0.6974
  935MOL0     C26148   7.892   0.286   7.760  0.7817 -0.3149  0.2292
  935MOL0     O26149   7.780   0.294   7.682  0.1462  1.0828 -0.3369
  935MOL0     C26150   7.804   0.371   7.560 -0.1057  0.4359 -0.5387
  935MOL0     C26151   7.800   0.523   7.573  0.4704 -0.6500  0.2596
  935MOL0     C26152   7.663   0.574   7.623  0.7208  1.8396 -0.0722
  935MOL0     C26153   7.663   0.726   7.650 -1.5200  0.6252 -0.4963
  935MOL0     C26154   7.529   0.765   7.685 -0.2600  0.5484 -0.0116
  935MOL0     C26155   7.412   0.775   7.707  0.3664 -0.4211  0.1159
  935MOL0     C26156   7.974   0.174   7.748  0.3664 -0.5622  0.3940
  935MOL0     C26157   8.066   0.146   7.844  0.1856  0.8687  0.1731
  935MOL0     H26158   8.217  -0.066   8.264 -1.1337  0.8369 -0.8773
  935MOL0     H26159   8.397  -0.108   8.430  1.2268  0.6435  1.1815
  935MOL0     H26160   8.600  -0.064   8.588 -0.7369 -0.2094 -0.4598
  935MOL0     H26161   8.602  -0.206   8.469 -0.3318 -2.2160  4.5600
  935MOL0     H26162   8.855  -0.045   8.556 -1.0763  0.3176 -0.1980
  935MOL0     H26163   8.794  -0.181   8.647 -0.4549  2.0445  1.4217
  935MOL0     H26164   8.809  -0.330   8.458 -2.9546  2.1758  0.2258
  935MOL0     H26165   8.864  -0.224   8.343  2.7220 -0.3027 -0.4507
  935MOL0     H26166   9.072  -0.165   8.464  2.2073 -1.5772 -0.6077
  935MOL0     H26167   9.026  -0.278   8.588  2.2679  0.1694  0.1428
  935MOL0     H26168   9.001  -0.445   8.379  0.2938 -0.2819  1.8478
  935MOL0     H26169   9.092  -0.337   8.285  1.4782 -3.0880 -2.2401
  935MOL0     H26170   9.259  -0.449   8.361  1.1440  0.0138  0.2334
  935MOL0     H26171   9.253  -0.327   8.494 -3.2691  1.6709  0.8465
  935MOL0     H26172   9.139  -0.461   8.646  1.5564  2.0160 -0.7530
  935MOL0     H26173   9.126  -0.598   8.519  2.0359  0.3904 -2.7602
  935MOL0     H26174   9.374  -0.572   8.509  0.0925 -0.3551 -0.7497
  935MOL0     H26175   9.300  -0.675   8.642 -0.0174  0.3392  0.0966
  935MOL0     H26176   9.512  -0.373   8.593 -1.4254  1.2948 -0.9336
  935MOL0     H26177   9.637  -0.284   8.954  2.3780 -0.6087 -0.8022
  935MOL0     H26178   9.682  -0.279   8.791 -1.2366 -1.4689  0.3769
  935MOL0     H26179   9.507  -0.133   8.724  3.2986  0.3393 -0.4905
  935MOL0     H26180   9.634  -0.059   8.819 -1.8907  2.6551 -0.3118
  935MOL0     H26181   9.461  -0.111   9.031 -1.2949 -2.3285 -0.4778
  935MOL0     H26182   9.341  -0.119   8.904  0.4255 -3.4113 -0.0485
  935MOL0     H26183   9.385   0.109   8.840  0.3968 -2.0604 -1.3034
  935MOL0     H26184   9.526   0.120   8.953 -0.2642  0.7419 -1.3262
  935MOL0     H26185   9.408   0.039   9.277  1.3653  0.5066  1.1634
  935MOL0     H26186   9.501   0.056   9.502 -0.5446 -0.2599  1.3756
  935MOL0     H26187   9.582   0.205   9.542  1.0216  0.3762 -0.4598
  935MOL0     H26188   9.405   0.196   9.565 -0.0198 -0.9569 -0.9460
  935MOL0     H26189   9.378   0.639   9.686  0.2290 -0.4263 -0.7651
  935MOL0     H26190   9.468   0.754   9.895  0.7920 -1.9537  2.8995
  935MOL0     H26191   9.818   0.578  10.064 -1.6675 -0.1460  0.1341
  935MOL0     H26192   9.903   0.704   9.967  0.6828  3.0701  2.4106
  935MOL0     H26193   9.891   0.859  10.150 -0.8342  0.2535 -0.7121
  935MOL0     H26194   9.801   0.747  10.250 -0.5415  4.3548 -1.2613
  935MOL0     H26195  10.079   0.675  10.142  1.7788  0.3148  0.2600
  935MOL0     H26196   9.975   0.577  10.239  3.3866 -0.1087  2.1016
  935MOL0     H26197  10.120   0.839  10.347  3.6424 -1.8858  1.3807
  935MOL0     H26198   9.976   0.745  10.425  0.0982 -0.7347 -0.5727
  935MOL0     H26199  10.120   0.560  10.435  0.2403 -0.0393 -0.5367
  935MOL0     H26200  10.173   0.702  10.530 -0.0416  1.1666  0.4468
  935MOL0     H26201  10.367   0.585  10.396 -1.4125 -2.3234 -0.3846
  935MOL0     H26202  10.276   0.600  10.257  2.3285 -1.8966  1.0334
  935MOL0     H26203  10.384   0.858  10.388  1.0710  0.0151 -1.8170
  935MOL0     H26204  10.296   0.848  10.239  0.7706  1.1825 -1.3142
  935MOL0     H26205  10.472   0.689  10.142 -1.7029  0.2015  0.6341
  935MOL0     H26206  10.575   0.714  10.276  1.6490  2.3306  0.8545
  935MOL0     H26207   9.827   0.512   9.827  0.8310  0.7066 -1.6682
  935MOL0     H26208   9.714   0.387   9.646  4.5051  0.8047  0.4554
  935MOL0     H26209   9.428   0.521   9.202 -1.1566 -0.4824 -0.3008
  935MOL0     H26210   9.374   0.355   9.004  1.3718 -0.5921 -0.8411
  935MOL0     H26211   8.683   0.105   8.175 -0.0230  4.0911  1.8680
  935MOL0     H26212   8.496   0.152   8.022 -2.5676 -1.9307 -2.2122
  935MOL0     H26213   8.037   0.439   8.016 -0.6039 -0.8905  1.0576
  935MOL0     H26214   7.855   0.475   7.849 -0.8470 -0.8553 -1.6184
  935MOL0     H26215   7.897   0.334   7.514  0.7557 -0.7925  2.0126
  935MOL0     H26216   7.722   0.335   7.497  0.5684 -1.6933 -0.2705
  935MOL0     H26217   7.803   0.569   7.474  0.0716 -1.3772 -0.0942
  935MOL0     H26218   7.876   0.568   7.637 -0.1903 -1.9481  2.0400
  935MOL0     H26219   7.622   0.515   7.706 -1.5386 -0.4314 -2.6267
  935MOL0     H26220   7.601   0.559   7.535  2.1599  1.1885 -1.0122
  935MOL0     H26221   7.705   0.795   7.577 -3.2747 -0.0639 -2.2484
  935MOL0     H26222   7.738   0.736   7.728  0.4661  1.5648 -2.4360
  935MOL0     H26223   7.309   0.799   7.721  0.4066  1.1201 -1.7954
  935MOL0     H26224   7.941   0.105   7.672 -2.0206  1.7149 -0.7538
  935MOL0     H26225   8.116   0.050   7.829 -1.0353 -0.1410  2.1227
  936MOL0     O26226   3.152   7.401   4.722 -0.1053 -0.2247 -0.1508
  936MOL0     C26227   3.105   7.454   4.619  0.0270  0.0526 -0.8245
  936MOL0     O26228   3.060   7.589   4.604  0.1465  0.0069  0.2983
  936MOL0     C26229   3.070   7.655   4.728  0.4594  0.3562  1.0991
  936MOL0     C26230   3.195   7.686   4.789 -0.4742  0.3821  0.1200
  936MOL0     C26231   3.203   7.735   4.919 -0.4692 -0.5060 -0.2860
  936MOL0     C26232   3.090   7.756   4.998 -0.3849 -0.9416 -0.7460
  936MOL0     O26233   3.124   7.804   5.127  0.6627  0.0842 -0.6392
  936MOL0     C26234   3.020   7.828   5.214  0.7325 -0.2102 -0.4084
  936MOL0     C26235   3.066   7.834   5.364 -0.0675 -0.8396  0.7637
  936MOL0     C26236   3.185   7.742   5.394  0.2039 -0.6478 -0.0124
  936MOL0     C26237   3.173   7.690   5.535 -0.4983 -0.4133  1.3636
  936MOL0     C26238   3.282   7.575   5.548  0.3213 -0.1867  0.4006
  936MOL0     C26239   3.217   7.432   5.523 -0.1014  0.3260 -0.6189
  936MOL0     C26240   3.298   7.309   5.576  0.2646 -0.8415  0.1938
  936MOL0     C26241   3.281   7.292   5.729 -0.8508 -0.3063 -0.5779
  936MOL0     N26242   3.392   7.216   5.793 -0.7539  0.2955  0.2170
  936MOL0     C26243   3.523   7.263   5.825  0.2541  0.1979  0.6181
  936MOL0     C26244   3.570   7.156   5.895 -0.9562 -0.4395 -0.1458
  936MOL0     C26245   3.703   7.148   5.971  0.7542 -0.0475 -0.7129
  936MOL0     C26246   3.684   7.094   6.115 -0.7386  0.7146  0.2024
  936MOL0     C26247   3.824   7.081   6.178  0.3514  0.0981  0.9079
  936MOL0     C26248   3.820   6.991   6.298  1.1485 -0.4959  0.1085
  936MOL0     O26249   3.953   6.975   6.363 -0.0997  0.8694 -0.4956
  936MOL0     C26250   4.028   6.869   6.326  0.1946  0.5165  0.2351
  936MOL0     C26251   4.154   6.858   6.380  0.4721 -0.3803 -0.0884
  936MOL0     C26252   4.237   6.750   6.369 -0.5833  1.4681 -0.1836
  936MOL0     C26253   4.376   6.759   6.406 -0.1200  0.1847 -0.6055
  936MOL0     C26254   4.190   6.629   6.301  0.1485 -0.2230 -0.0151
  936MOL0     C26255   4.268   6.500   6.287 -0.3191  0.4345  0.3282
  936MOL0     O26256   4.193   6.391   6.294  0.5100  1.1153  0.5680
  936MOL0     C26257   4.231   6.255   6.296  0.6337  0.9074  0.6037
  936MOL0     C26258   4.136   6.151   6.274 -0.5849 -0.3193 -0.5971
  936MOL0     C26259   4.182   6.014   6.258 -0.2827 -0.0861 -1.1099
  936MOL0     C26260   4.319   5.982   6.263  0.9038 -0.0680  0.0120
  936MOL0     O26261   4.357   5.852   6.239 -0.7773 -0.0221  0.3058
  936MOL0     C26262   4.428   5.789   6.348 -0.6355  0.0437  0.0117
  936MOL0     C26263   4.428   5.628   6.324 -0.4273 -0.3054 -0.9815
  936MOL0     C26264   4.289   5.558   6.350 -1.1133 -0.2212  0.4637
  936MOL0     C26265   4.162   5.598   6.267  0.9038  0.5908 -0.0878
  936MOL0     C26266   4.054   5.484   6.275 -0.0841 -0.0083  0.2001
  936MOL0     C26267   3.918   5.520   6.198 -0.9781 -0.4481 -1.7753
  936MOL0     C26268   3.860   5.657   6.251 -0.6805  0.5210  0.1906
  936MOL0     C26269   3.726   5.689   6.202  0.0687 -0.2309 -0.0005
  936MOL0    Cl26270   3.619   5.558   6.270 -0.0826  0.0383  0.4669
  936MOL0     C26271   4.406   6.085   6.306 -0.0323  0.6157  0.1565
  936MOL0     C26272   4.361   6.215   6.320  0.2152 -0.2131  0.7034
  936MOL0     O26273   4.388   6.500   6.272 -0.4481 -0.5756  0.9756
  936MOL0     C26274   4.054   6.632   6.257 -0.2346  0.0563  0.5064
  936MOL0     C26275   3.977   6.749   6.262  0.3182 -0.8149 -0.5908
  936MOL0     N26276   3.483   7.056   5.898  0.4264  0.2643 -0.4142
  936MOL0     N26277   3.371   7.094   5.845 -0.6908  0.4003  0.2509
  936MOL0     C26278   2.968   7.727   4.938  1.6365 -0.3498 -0.3331
  936MOL0     C26279   2.963   7.678   4.809  0.5985 -0.5831 -0.0376
  936MOL0     C26280   3.111   7.375   4.502 -1.4822 -0.7772  0.4656
  936MOL0     C26281   3.171   7.244   4.499 -1.2210 -1.0732 -0.7677
  936MOL0     C26282   3.170   7.169   4.383 -0.2093 -0.0125  0.8910
  936MOL0     C26283   3.122   7.223   4.263  0.4463  0.0015  0.0225
  936MOL0     O26284   3.132   7.162   4.139  0.5336  1.0138  0.6820
  936MOL0     C26285   3.237   7.060   4.132  0.3316 -0.2419 -0.1023
  936MOL0     C26286   3.275   7.053   3.985 -0.6757  0.4564  0.0999
  936MOL0     C26287   3.152   7.036   3.893 -0.0482 -0.2530  0.3450
  936MOL0     C26288   3.085   6.900   3.894 -0.0831 -0.2183 -0.7958
  936MOL0     C26289   3.190   6.794   3.883  0.0433 -0.5168  0.6932
  936MOL0     C26290   3.277   6.721   3.867  0.0161  0.1761  0.0072
  936MOL0     C26291   3.062   7.345   4.259  0.2350 -0.7336 -0.0645
  936MOL0     C26292   3.066   7.421   4.377  1.1292 -1.2870 -0.2722
  936MOL0     H26293   3.291   7.672   4.740 -1.1674 -1.4139 -0.8332
  936MOL0     H26294   3.302   7.757   4.958 -0.5502 -0.2053 -0.2455
  936MOL0     H26295   2.960   7.916   5.188  1.7698 -0.0859 -2.6401
  936MOL0     H26296   2.946   7.747   5.208 -1.6326  1.3744  3.6245
  936MOL0     H26297   3.095   7.939   5.379  0.5318 -0.7707 -0.6791
  936MOL0     H26298   2.980   7.815   5.429 -0.0929 -0.1577  0.9414
  936MOL0     H26299   3.184   7.650   5.335  0.7313  0.0814 -1.1881
  936MOL0     H26300   3.274   7.803   5.376 -1.8134  2.9995  1.1316
  936MOL0     H26301   3.194   7.765   5.611  0.9831 -1.0040  1.5691
  936MOL0     H26302   3.076   7.641   5.544 -0.8362  0.1987  1.1437
  936MOL0     H26303   3.373   7.587   5.488 -0.2829  0.1032 -0.4804
  936MOL0     H26304   3.316   7.584   5.652  1.0680  1.5606  0.0412
  936MOL0     H26305   3.120   7.428   5.574 -0.8341  2.3554 -1.7043
  936MOL0     H26306   3.195   7.419   5.416  0.8232 -1.7989 -0.5874
  936MOL0     H26307   3.281   7.215   5.523  1.4186 -0.8704 -0.1730
  936MOL0     H26308   3.403   7.339   5.567 -0.9157  3.4654 -2.1869
  936MOL0     H26309   3.189   7.238   5.752 -2.3018  2.8098  1.5395
  936MOL0     H26310   3.273   7.390   5.776 -0.3736  0.0648 -1.2487
  936MOL0     H26311   3.573   7.358   5.809  3.5966 -1.3198  1.1863
  936MOL0     H26312   3.762   7.081   5.908  0.7885 -0.9561  0.2533
  936MOL0     H26313   3.757   7.241   5.956 -0.5980  0.4353 -3.1333
  936MOL0     H26314   3.647   6.991   6.116  1.8623 -0.6424 -5.2762
  936MOL0     H26315   3.620   7.168   6.165 -1.9649 -1.3952  2.0033
  936MOL0     H26316   3.851   7.186   6.196 -2.2821  0.8690  0.7389
  936MOL0     H26317   3.896   7.042   6.106 -3.1048 -0.6726 -2.4734
  936MOL0     H26318   3.769   6.903   6.260  0.7858  0.3901 -1.5537
  936MOL0     H26319   3.751   7.041   6.367 -0.0051 -0.9372 -0.7089
  936MOL0     H26320   4.182   6.950   6.429 -3.1172 -0.8641  3.3048
  936MOL0     H26321   4.404   6.682   6.479  1.1388  1.0800 -0.1119
  936MOL0     H26322   4.429   6.745   6.311 -0.5867 -2.2572 -0.5651
  936MOL0     H26323   4.391   6.857   6.453 -0.8627 -0.2613  0.6035
  936MOL0     H26324   4.032   6.172   6.249 -0.0902  1.2108 -1.5474
  936MOL0     H26325   4.105   5.938   6.252 -2.7191  2.0989  0.6822
  936MOL0     H26326   4.527   5.834   6.355 -0.8062  0.8037 -1.9321
  936MOL0     H26327   4.380   5.812   6.443  0.0614 -0.3335  0.4602
  936MOL0     H26328   4.465   5.610   6.222  3.6144 -2.5738  0.6458
  936MOL0     H26329   4.494   5.583   6.399  0.3093  0.9868 -0.8085
  936MOL0     H26330   4.256   5.566   6.453 -0.0617 -0.9166  0.8763
  936MOL0     H26331   4.306   5.450   6.340 -0.4131  0.0162 -1.3587
  936MOL0     H26332   4.123   5.692   6.307  0.9309  0.1197  1.1158
  936MOL0     H26333   4.190   5.610   6.163 -0.0690 -3.3478 -0.9785
  936MOL0     H26334   4.018   5.476   6.378 -3.3662  2.7280 -0.5615
  936MOL0     H26335   4.083   5.387   6.234  2.7738  0.6159  0.5902
  936MOL0     H26336   3.936   5.526   6.090  0.5987 -2.9833 -1.7413
  936MOL0     H26337   3.841   5.444   6.214 -0.6667 -0.2791  0.8653
  936MOL0     H26338   3.922   5.736   6.207  1.5578  0.0558  2.2809
  936MOL0     H26339   3.865   5.672   6.360  0.5716 -0.5282  0.3051
  936MOL0     H26340   3.719   5.692   6.093 -1.4066  0.2235  0.0924
  936MOL0     H26341   3.699   5.789   6.239 -1.6641 -0.4772 -0.5059
  936MOL0     H26342   4.508   6.049   6.310  0.4626  1.1728 -3.6045
  936MOL0     H26343   4.447   6.278   6.339  0.2509 -0.3754  1.0976
  936MOL0     H26344   4.017   6.546   6.203  0.5499  0.1998 -0.2849
  936MOL0     H26345   3.873   6.748   6.230 -0.7546  0.6439  2.4508
  936MOL0     H26346   2.881   7.762   4.992  0.7886 -0.6537 -1.4609
  936MOL0     H26347   2.870   7.641   4.768 -1.3589  2.2094  1.5735
  936MOL0     H26348   3.201   7.194   4.590 -0.8531 -0.3542 -0.4856
  936MOL0     H26349   3.220   7.073   4.396  0.5305  0.2363  0.0050
  936MOL0     H26350   3.322   7.084   4.196  0.3569  0.2159 -0.3053
  936MOL0     H26351   3.189   6.966   4.163  1.4188 -0.4922  0.8737
  936MOL0     H26352   3.352   6.979   3.964 -1.5645 -1.2829  2.5273
  936MOL0     H26353   3.323   7.149   3.964  1.8585 -0.7235  0.1201
  936MOL0     H26354   3.173   7.065   3.790  0.6396  2.6241  1.2112
  936MOL0     H26355   3.067   7.100   3.919 -0.2735 -1.0632  1.7167
  936MOL0     H26356   3.011   6.897   3.814  0.5246 -0.7067 -1.3458
  936MOL0     H26357   3.033   6.877   3.988  0.5123  0.0926 -0.3797
  936MOL0     H26358   3.356   6.651   3.848 -1.2053 -1.4404  0.5812
  936MOL0     H26359   3.026   7.388   4.166  0.3893  2.2546  1.1147
  936MOL0     H26360   3.024   7.521   4.368  1.7544 -0.7373  2.1420
  937MOL0     O26361   4.350  10.707  10.866  0.1523 -0.0189  0.8700
  937MOL0     C26362   4.382  10.758  10.755  0.1107  0.3505 -0.0134
  937MOL0     O26363   4.438  10.883  10.740 -0.4348  0.0629 -0.2055
  937MOL0     C26364   4.446  10.970  10.842  0.3150 -0.5495 -0.9260
  937MOL0     C26365   4.356  11.075  10.854 -0.6867  0.2164  0.4319
  937MOL0     C26366   4.383  11.179  10.936  0.1931 -0.2708 -0.2434
  937MOL0     C26367   4.482  11.170  11.038  0.5835 -0.0924 -0.4102
  937MOL0     O26368   4.479  11.265  11.133 -0.3234  0.3977  0.7603
  937MOL0     C26369   4.591  11.281  11.224 -0.2288 -0.2429  0.2433
  937MOL0     C26370   4.613  11.427  11.269 -1.0177 -0.6769  0.2750
  937MOL0     C26371   4.745  11.439  11.354  0.1191 -0.8708 -0.4402
  937MOL0     C26372   4.719  11.545  11.463  0.4686 -1.1728 -0.4609
  937MOL0     C26373   4.747  11.481  11.601  0.5267  0.6265  0.8480
  937MOL0     C26374   4.644  11.364  11.635 -0.7569 -0.2240  0.3824
  937MOL0     C26375   4.642  11.335  11.783  0.2123 -0.2946  0.4583
  937MOL0     C26376   4.540  11.420  11.865  0.1136 -0.2130  0.1805
  937MOL0     N26377   4.399  11.380  11.864  0.0366  0.2361 -0.6812
  937MOL0     C26378   4.349  11.295  11.955  0.7024 -0.2872 -0.7500
  937MOL0     C26379   4.221  11.267  11.908 -0.1780  0.0979  0.5504
  937MOL0     C26380   4.127  11.158  11.952 -0.0567  0.6135  0.2001
  937MOL0     C26381   4.060  11.180  12.086  0.6114  0.1149  0.0425
  937MOL0     C26382   3.945  11.077  12.108 -0.1692  0.0197 -0.5545
  937MOL0     C26383   3.869  11.105  12.234  0.0664  0.6161  0.1927
  937MOL0     O26384   3.758  11.010  12.244 -0.7781 -0.4779  0.0876
  937MOL0     C26385   3.721  10.956  12.357  0.3206  0.2744 -0.0014
  937MOL0     C26386   3.757  10.992  12.483  0.7375 -0.2021  0.2502
  937MOL0     C26387   3.697  10.935  12.598  0.0682 -0.1467  0.5399
  937MOL0     C26388   3.729  10.994  12.733  0.9901  0.8273  0.5662
  937MOL0     C26389   3.613  10.827  12.591  0.2492  0.4188 -0.4266
  937MOL0     C26390   3.548  10.748  12.707  0.2096 -0.1864  0.9309
  937MOL0     O26391   3.446  10.666  12.678 -0.1935 -0.0841  0.6996
  937MOL0     C26392   3.368  10.623  12.773  0.2272  0.1915  0.9547
  937MOL0     C26393   3.411  10.529  12.867 -0.0512  0.9105  0.3377
  937MOL0     C26394   3.321  10.480  12.970  0.4642 -0.1355  0.4688
  937MOL0     C26395   3.199  10.548  12.981  1.1211 -0.2013  0.1758
  937MOL0     O26396   3.112  10.518  13.075 -0.0800 -0.0825 -0.5085
  937MOL0     C26397   3.084  10.374  13.083 -1.0299 -0.8657  0.7359
  937MOL0     C26398   2.947  10.348  13.129 -0.3195  0.4965  0.1895
  937MOL0     C26399   2.912  10.200  13.115  0.4687 -0.2936 -0.7598
  937MOL0     C26400   2.769  10.171  13.152  0.1618 -0.4478  0.0080
  937MOL0     C26401   2.747  10.173  13.309  0.2802 -0.1660  0.4307
  937MOL0     C26402   2.607  10.166  13.354  0.3724  0.4868 -0.7276
  937MOL0     C26403   2.611  10.159  13.500  0.6344  0.6623 -0.3972
  937MOL0     C26404   2.463  10.135  13.545 -0.0604  0.1340  0.4901
  937MOL0    Cl26405   2.410   9.964  13.516  0.3341  0.2239  0.0644
  937MOL0     C26406   3.164  10.649  12.894  0.7013 -0.9161  0.1221
  937MOL0     C26407   3.240  10.672  12.783  0.0833  0.0959 -0.0308
  937MOL0     O26408   3.593  10.763  12.819 -0.0398 -0.5007  0.3117
  937MOL0     C26409   3.584  10.789  12.463  0.8497  0.1045  0.2535
  937MOL0     C26410   3.640  10.851  12.341  0.5696  0.1911  0.0233
  937MOL0     N26411   4.196  11.346  11.802 -0.4112 -0.0426 -0.1251
  937MOL0     N26412   4.299  11.418  11.779 -0.2891  0.1055  0.1025
  937MOL0     C26413   4.561  11.057  11.033 -0.3079 -0.6601  0.4241
  937MOL0     C26414   4.550  10.958  10.943 -0.3148  0.1925 -0.0045
  937MOL0     C26415   4.366  10.681  10.627 -0.0300  0.3879  0.6071
  937MOL0     C26416   4.387  10.740  10.503  0.3407  0.2139  0.7646
  937MOL0     C26417   4.368  10.662  10.384  0.4704  0.6428  0.0404
  937MOL0     C26418   4.323  10.530  10.389  0.3015  0.4290 -0.6947
  937MOL0     O26419   4.306  10.452  10.277 -1.2715  0.7231  0.6406
  937MOL0     C26420   4.335  10.507  10.148 -0.0448  0.8401 -0.2775
  937MOL0     C26421   4.302  10.400  10.048 -0.2473  0.5083  0.0006
  937MOL0     C26422   4.295  10.465   9.905 -0.6513 -0.1457 -0.1985
  937MOL0     C26423   4.249  10.358   9.805  0.1855  0.8739 -0.5046
  937MOL0     C26424   4.261  10.399   9.661 -0.1797 -0.1062  0.4056
  937MOL0     C26425   4.267  10.424   9.541  0.4448  0.0400 -0.4717
  937MOL0     C26426   4.299  10.475  10.517  0.0311  0.2755  0.3594
  937MOL0     C26427   4.302  10.557  10.636 -0.2227 -0.3301 -0.2994
  937MOL0     H26428   4.272  11.074  10.785 -1.1442 -0.2184  0.9902
  937MOL0     H26429   4.311  11.260  10.946 -2.6239 -2.6068  0.0381
  937MOL0     H26430   4.571  11.230  11.319 -1.9365  2.0437  1.1995
  937MOL0     H26431   4.688  11.253  11.182  0.1796 -0.1674  1.1132
  937MOL0     H26432   4.624  11.486  11.177 -0.3716 -1.4205 -0.1355
  937MOL0     H26433   4.521  11.466  11.313 -3.1972 -1.3247 -3.2231
  937MOL0     H26434   4.773  11.347  11.405  0.1782  1.6008  4.6022
  937MOL0     H26435   4.821  11.479  11.285 -3.9256  2.9377 -3.2836
  937MOL0     H26436   4.784  11.632  11.457 -3.7658  2.3767  0.1086
  937MOL0     H26437   4.617  11.583  11.450  0.5844 -0.8097 -0.3166
  937MOL0     H26438   4.848  11.440  11.600  0.0704 -0.5417  0.7709
  937MOL0     H26439   4.745  11.564  11.672  1.5597  3.3297 -2.0869
  937MOL0     H26440   4.546  11.393  11.597 -0.4888 -2.2501 -2.1102
  937MOL0     H26441   4.675  11.272  11.585 -0.2184 -0.1971  0.6574
  937MOL0     H26442   4.602  11.234  11.792  1.4889 -0.8331  0.2294
  937MOL0     H26443   4.738  11.345  11.834 -2.5830  2.8541  6.1891
  937MOL0     H26444   4.541  11.523  11.827  0.7598 -0.4158 -0.3591
  937MOL0     H26445   4.572  11.431  11.969 -2.7657  1.4405  1.0083
  937MOL0     H26446   4.399  11.254  12.042  0.5948  0.7999 -0.1601
  937MOL0     H26447   4.058  11.135  11.870  2.2025 -1.5758 -1.2422
  937MOL0     H26448   4.189  11.067  11.953 -2.0089 -0.7793  1.2685
  937MOL0     H26449   4.021  11.281  12.068 -0.3823 -0.4279 -1.0022
  937MOL0     H26450   4.132  11.190  12.168  1.5250 -0.4548 -0.6738
  937MOL0     H26451   3.989  10.978  12.123  0.8518  0.2558 -1.8962
  937MOL0     H26452   3.869  11.067  12.030  1.6705  0.7582 -2.5091
  937MOL0     H26453   3.822  11.202  12.216  2.8637  2.2858  1.2166
  937MOL0     H26454   3.942  11.100  12.315  4.8350  0.7629 -3.6288
  937MOL0     H26455   3.819  11.081  12.478 -1.3197  1.2746 -0.6298
  937MOL0     H26456   3.798  10.935  12.794  1.0946  2.2376  1.8641
  937MOL0     H26457   3.776  11.093  12.723 -1.0820  1.7711 -0.3742
  937MOL0     H26458   3.639  11.005  12.793  1.2309 -3.0635  1.8917
  937MOL0     H26459   3.510  10.487  12.856 -1.5502 -2.3182 -2.7134
  937MOL0     H26460   3.342  10.395  13.035 -2.2168  1.2908  3.4762
  937MOL0     H26461   3.082  10.330  12.983 -1.2302 -1.8732  1.1712
  937MOL0     H26462   3.157  10.316  13.140  1.8274  2.4198  0.7516
  937MOL0     H26463   2.943  10.379  13.234  0.1107 -1.3337  0.7734
  937MOL0     H26464   2.882  10.410  13.066  0.1060  2.0881  1.2311
  937MOL0     H26465   2.984  10.145  13.176 -1.9399 -2.8943 -0.0551
  937MOL0     H26466   2.919  10.172  13.009  1.5380  0.4442 -0.9064
  937MOL0     H26467   2.693  10.230  13.100 -0.0685 -0.8683 -0.1436
  937MOL0     H26468   2.740  10.068  13.129 -2.0374 -0.4183  2.1711
  937MOL0     H26469   2.787  10.271  13.334 -3.0692  2.5872 -3.6810
  937MOL0     H26470   2.804  10.093  13.358  0.3658  0.0960  0.7583
  937MOL0     H26471   2.564  10.255  13.308 -2.9602 -0.7155 -0.1998
  937MOL0     H26472   2.546  10.085  13.313 -1.3920  1.4826 -0.1825
  937MOL0     H26473   2.654  10.248  13.547 -1.0783  1.5455 -0.3959
  937MOL0     H26474   2.669  10.075  13.539  3.6886  2.7681 -0.0733
  937MOL0     H26475   2.386  10.195  13.496  1.0758  1.4314  0.2257
  937MOL0     H26476   2.449  10.151  13.653 -2.3151 -0.0868  0.2704
  937MOL0     H26477   3.071  10.705  12.906  0.6788 -0.0139 -3.3290
  937MOL0     H26478   3.231  10.741  12.699  1.3521 -1.3068 -1.3808
  937MOL0     H26479   3.526  10.698  12.452 -1.8722  1.3655  2.9160
  937MOL0     H26480   3.604  10.809  12.247 -1.5841 -1.6590  1.5546
  937MOL0     H26481   4.628  11.040  11.116 -0.3672 -1.9921  0.2147
  937MOL0     H26482   4.629  10.884  10.947  0.7366  1.3473  1.4091
  937MOL0     H26483   4.426  10.839  10.485 -1.2833  0.6821 -0.4413
  937MOL0     H26484   4.375  10.706  10.285  0.8276  1.0208  0.2343
  937MOL0     H26485   4.269  10.592  10.127  0.0507 -0.0992 -5.9405
  937MOL0     H26486   4.441  10.534  10.145  1.0236 -2.5426  1.9767
  937MOL0     H26487   4.208  10.352  10.077 -2.7519  4.5948 -0.6203
  937MOL0     H26488   4.379  10.322  10.050 -1.6156 -0.8838  0.5828
  937MOL0     H26489   4.398  10.492   9.877 -0.2501 -1.1899  0.1923
  937MOL0     H26490   4.235  10.556   9.915  2.6953  2.2423  0.0447
  937MOL0     H26491   4.146  10.332   9.831 -0.2441  1.8867 -1.1220
  937MOL0     H26492   4.300  10.262   9.809 -1.3075 -0.0202 -1.9069
  937MOL0     H26493   4.264  10.457   9.439  0.1680  5.2337  0.9298
  937MOL0     H26494   4.292  10.371  10.546  4.2792  0.0160  1.0691
  937MOL0     H26495   4.284  10.509  10.731  1.1534 -0.4540 -0.0781
  938MOL0     O26496   4.412   5.571   0.680  0.0598  0.2221 -0.2010
  938MOL0     C26497   4.318   5.511   0.627  0.0744  0.7752 -0.2092
  938MOL0     O26498   4.332   5.433   0.518 -0.1168 -0.1983 -0.3846
  938MOL0     C26499   4.399   5.483   0.405 -0.1554 -0.2565 -0.1192
  938MOL0     C26500   4.441   5.392   0.317  0.1286  0.7620 -1.0388
  938MOL0     C26501   4.476   5.424   0.189 -0.6354  0.2925  1.5118
  938MOL0     C26502   4.460   5.559   0.149 -0.2195  0.3173 -0.3375
  938MOL0     O26503   4.485   5.599   0.022  0.7098 -0.4495 -0.2309
  938MOL0     C26504   4.484   5.496  -0.083 -0.2474  0.3458 -0.2101
  938MOL0     C26505   4.478   5.564  -0.224  0.6471  0.4115 -0.0680
  938MOL0     C26506   4.514   5.467  -0.333 -1.3347 -0.0528  0.5261
  938MOL0     C26507   4.556   5.543  -0.459  0.2581 -0.1164  0.2421
  938MOL0     C26508   4.646   5.469  -0.552  0.7902 -0.4475  0.5126
  938MOL0     C26509   4.673   5.556  -0.668  0.5301 -0.3539  0.1299
  938MOL0     C26510   4.707   5.490  -0.797  0.5707 -0.6056  0.3478
  938MOL0     C26511   4.852   5.433  -0.823  0.4003  0.4846  0.0504
  938MOL0     N26512   4.877   5.329  -0.719  0.0645  0.3270  0.0365
  938MOL0     C26513   4.815   5.210  -0.692  0.2588 -0.1853  0.5893
  938MOL0     C26514   4.885   5.167  -0.593 -0.0300  1.0434  0.5194
  938MOL0     C26515   4.840   5.037  -0.541 -1.0917  0.0707  0.3006
  938MOL0     C26516   4.815   5.033  -0.392  0.1120 -0.7989 -0.1918
  938MOL0     C26517   4.680   5.099  -0.357 -0.1652  0.5762 -0.3376
  938MOL0     C26518   4.649   5.087  -0.203 -0.4012  0.1342  0.4724
  938MOL0     O26519   4.522   5.134  -0.190  0.0585  0.8096 -0.8820
  938MOL0     C26520   4.460   5.104  -0.065  0.5247  0.0370  0.2610
  938MOL0     C26521   4.333   5.149  -0.059  0.4822 -0.7167 -0.0745
  938MOL0     C26522   4.255   5.151   0.066 -0.1513  0.6292  0.2236
  938MOL0     C26523   4.132   5.221   0.060  0.0640  0.6511 -0.0481
  938MOL0     C26524   4.320   5.084   0.174  0.2102  0.3568 -0.4775
  938MOL0     C26525   4.256   5.085   0.312 -0.5075  0.7571  0.4429
  938MOL0     O26526   4.320   5.019   0.417 -0.3543  0.0518  0.2860
  938MOL0     C26527   4.233   4.979   0.519  0.6971 -1.6346 -0.5694
  938MOL0     C26528   4.169   4.859   0.519 -0.0758 -0.0986  0.0367
  938MOL0     C26529   4.113   4.801   0.631  0.4938 -0.3461  0.1937
  938MOL0     C26530   4.107   4.867   0.756 -0.2461  0.0618  0.2485
  938MOL0     O26531   4.051   4.809   0.872  0.6204 -0.5496 -0.7506
  938MOL0     C26532   4.055   4.666   0.874  0.6876 -0.6195 -0.5879
  938MOL0     C26533   4.000   4.627   1.011  0.2023 -0.0999  0.8012
  938MOL0     C26534   3.843   4.669   1.036 -0.1594 -0.9831 -0.9666
  938MOL0     C26535   3.785   4.577   1.140  0.4459 -0.9128  0.7571
  938MOL0     C26536   3.638   4.631   1.185 -0.1344 -0.4335  0.9828
  938MOL0     C26537   3.591   4.530   1.293  0.1931 -0.0218 -0.2184
  938MOL0     C26538   3.643   4.571   1.434 -0.7977  0.0172 -0.5019
  938MOL0     C26539   3.561   4.515   1.556  0.5751  0.9320 -0.6480
  938MOL0    Cl26540   3.522   4.334   1.550  0.0431 -0.5397  0.6014
  938MOL0     C26541   4.172   4.990   0.761 -0.4583  0.5510 -0.2879
  938MOL0     C26542   4.226   5.050   0.646 -0.2435  0.3529  0.7825
  938MOL0     O26543   4.149   5.139   0.326 -0.7045 -0.4807 -0.0911
  938MOL0     C26544   4.442   5.019   0.155 -0.0412  0.7397 -0.0549
  938MOL0     C26545   4.515   5.033   0.044 -0.1160  0.1555  0.4419
  938MOL0     N26546   4.976   5.262  -0.551  0.4678 -0.7155 -0.0502
  938MOL0     N26547   4.981   5.346  -0.636  0.8467 -0.2870 -0.3611
  938MOL0     C26548   4.430   5.660   0.242  0.4689  0.4399  0.9662
  938MOL0     C26549   4.392   5.624   0.376 -0.2871  0.2193  0.7242
  938MOL0     C26550   4.187   5.507   0.688 -0.1500  1.3201  0.5034
  938MOL0     C26551   4.160   5.582   0.795 -0.8762  0.2706 -0.3066
  938MOL0     C26552   4.043   5.563   0.873 -0.0542  0.1862 -0.3888
  938MOL0     C26553   3.945   5.476   0.839  0.0248  1.1619 -0.2081
  938MOL0     O26554   3.834   5.468   0.919 -0.1725  0.0391 -0.0824
  938MOL0     C26555   3.752   5.350   0.888  0.7174  0.0929 -0.0930
  938MOL0     C26556   3.832   5.227   0.938  0.2521 -1.1937  0.4190
  938MOL0     C26557   3.759   5.095   0.940  1.0435  0.0305  0.3429
  938MOL0     C26558   3.674   5.074   0.812 -0.6580 -0.2409  0.8677
  938MOL0     C26559   3.769   5.079   0.697  0.4345 -1.2661  0.1439
  938MOL0     C26560   3.857   5.064   0.618  0.8210 -0.9206  0.1944
  938MOL0     C26561   3.966   5.419   0.711  0.4249  0.3058 -1.1501
  938MOL0     C26562   4.085   5.422   0.642  0.1573  0.2833  0.0912
  938MOL0     H26563   4.443   5.286   0.341 -2.1925  1.1795  1.3836
  938MOL0     H26564   4.519   5.355   0.118  0.6565  3.5113 -1.1078
  938MOL0     H26565   4.569   5.429  -0.066 -0.7608 -0.6497 -1.4061
  938MOL0     H26566   4.397   5.432  -0.098  1.2845 -0.9602 -5.4704
  938MOL0     H26567   4.376   5.599  -0.239  0.2051 -1.1134 -0.8169
  938MOL0     H26568   4.558   5.638  -0.231  1.9189 -0.8579  0.4827
  938MOL0     H26569   4.591   5.393  -0.308 -2.9613 -1.9136  0.2099
  938MOL0     H26570   4.438   5.396  -0.367  0.5166 -2.1688  0.5601
  938MOL0     H26571   4.467   5.569  -0.516 -0.1999  1.0848  1.4573
  938MOL0     H26572   4.603   5.639  -0.435  1.8156 -0.8907  0.4215
  938MOL0     H26573   4.733   5.431  -0.498  1.9180 -0.7376 -1.4083
  938MOL0     H26574   4.597   5.381  -0.595 -0.5626  0.7067 -0.3761
  938MOL0     H26575   4.581   5.615  -0.682  1.1047  2.3151  5.0866
  938MOL0     H26576   4.746   5.635  -0.652 -0.7071  0.7894  0.3774
  938MOL0     H26577   4.634   5.419  -0.836  0.0454  0.2324 -0.2417
  938MOL0     H26578   4.707   5.572  -0.870  1.8031  0.0125  1.0061
  938MOL0     H26579   4.924   5.514  -0.808 -0.2135  0.7321  1.9433
  938MOL0     H26580   4.869   5.393  -0.923 -0.7470 -0.2187  0.1207
  938MOL0     H26581   4.726   5.168  -0.736 -0.7621  1.3267  1.1555
  938MOL0     H26582   4.760   4.988  -0.597  1.5048 -1.9486 -1.9256
  938MOL0     H26583   4.928   4.972  -0.544 -1.5723 -0.7692  2.3952
  938MOL0     H26584   4.896   5.086  -0.341 -0.5832 -1.4985  1.7339
  938MOL0     H26585   4.821   4.929  -0.357  1.9594 -0.5992  0.2119
  938MOL0     H26586   4.592   5.051  -0.401 -0.0117 -1.2177  1.1844
  938MOL0     H26587   4.677   5.203  -0.391 -1.9131  0.4771 -0.6169
  938MOL0     H26588   4.725   5.142  -0.146 -0.5182  1.9746 -1.0754
  938MOL0     H26589   4.648   4.978  -0.189 -1.6090  0.4684  4.3141
  938MOL0     H26590   4.299   5.208  -0.143  2.8927  2.4179  0.9133
  938MOL0     H26591   4.133   5.317   0.112 -0.5295 -0.0949  1.4066
  938MOL0     H26592   4.100   5.237  -0.044  1.2038  3.6944 -0.0407
  938MOL0     H26593   4.047   5.161   0.095  0.0725  2.3619  3.2447
  938MOL0     H26594   4.176   4.792   0.435 -1.8906 -1.4968  0.9436
  938MOL0     H26595   4.084   4.697   0.616 -0.2618  0.3123 -4.2769
  938MOL0     H26596   3.999   4.618   0.794  0.6177  0.7537 -1.3723
  938MOL0     H26597   4.161   4.642   0.860  1.0452  0.6108 -0.1271
  938MOL0     H26598   4.014   4.519   1.014  3.7549  0.1854 -0.7879
  938MOL0     H26599   4.069   4.669   1.085  0.9938  3.2902 -1.6123
  938MOL0     H26600   3.789   4.675   0.941 -0.5115  1.0267 -0.6970
  938MOL0     H26601   3.844   4.770   1.078  1.3013 -1.2938 -0.2011
  938MOL0     H26602   3.766   4.477   1.099 -3.3323 -2.5700  5.5773
  938MOL0     H26603   3.855   4.567   1.224  1.4113 -1.1492 -0.0506
  938MOL0     H26604   3.570   4.619   1.100  0.0702  1.5206  0.4939
  938MOL0     H26605   3.642   4.735   1.218  1.0136 -0.7521  1.9331
  938MOL0     H26606   3.483   4.538   1.307  0.3665  0.1711  1.1371
  938MOL0     H26607   3.622   4.428   1.270 -1.5505 -1.0683  1.7211
  938MOL0     H26608   3.653   4.680   1.444  2.3383 -0.2484  0.3138
  938MOL0     H26609   3.745   4.530   1.438 -0.2860  1.0644 -1.7728
  938MOL0     H26610   3.471   4.576   1.550  0.4779  0.9111  0.5029
  938MOL0     H26611   3.601   4.536   1.656 -1.6066 -0.5474  0.5989
  938MOL0     H26612   4.174   5.039   0.858 -1.0108  1.7376 -0.8451
  938MOL0     H26613   4.279   5.143   0.665  1.0392  0.0433 -1.0228
  938MOL0     H26614   4.502   4.958   0.222  0.3759 -1.5465 -2.3298
  938MOL0     H26615   4.606   4.974   0.045 -0.1838  0.0630  1.2113
  938MOL0     H26616   4.436   5.765   0.215 -1.3206  0.2775 -0.2452
  938MOL0     H26617   4.356   5.701   0.444  1.3911 -0.0337  1.9507
  938MOL0     H26618   4.231   5.652   0.837 -1.2086 -0.5537  1.7652
  938MOL0     H26619   4.021   5.608   0.970 -1.4639 -0.5453 -0.3362
  938MOL0     H26620   3.655   5.356   0.937 -0.1211 -3.2062 -1.0893
  938MOL0     H26621   3.722   5.350   0.782  2.1962  0.1065 -0.5326
  938MOL0     H26622   3.871   5.252   1.037 -1.8848 -0.8970  1.2505
  938MOL0     H26623   3.919   5.221   0.872 -0.4715 -0.0161 -0.7017
  938MOL0     H26624   3.695   5.083   1.028 -0.8087  2.0424 -0.6383
  938MOL0     H26625   3.845   5.027   0.950 -0.0152 -1.2490  1.0449
  938MOL0     H26626   3.595   5.150   0.808  0.1699  0.5992 -2.7354
  938MOL0     H26627   3.623   4.977   0.817 -1.8941  0.2056 -1.7903
  938MOL0     H26628   3.941   5.037   0.558 -0.5212  0.1388 -2.3046
  938MOL0     H26629   3.892   5.347   0.678  1.6383 -2.3382  1.4585
  938MOL0     H26630   4.085   5.361   0.552 -0.4713 -0.0154  0.2874
  939MOL0     O26631   6.320   2.903   7.766  0.2121 -0.0165  0.0234
  939MOL0     C26632   6.288   2.792   7.717 -0.3878 -0.0610  0.5379
  939MOL0     O26633   6.352   2.722   7.614  0.1762 -0.5907 -0.6515
  939MOL0     C26634   6.455   2.794   7.548 -0.0780  1.0225  0.0912
  939MOL0     C26635   6.581   2.834   7.607  0.4864  0.2649  0.0317
  939MOL0     C26636   6.681   2.894   7.530 -0.9040 -0.5352  0.0841
  939MOL0     C26637   6.671   2.895   7.391  0.0380 -0.1273 -0.1760
  939MOL0     O26638   6.770   2.935   7.307 -0.0730  0.5011 -0.8307
  939MOL0     C26639   6.837   3.055   7.350 -0.0042  0.0946  0.1741
  939MOL0     C26640   6.920   3.124   7.240 -0.3031  1.4714  1.3554
  939MOL0     C26641   6.835   3.192   7.132 -0.7209 -1.1696  0.5166
  939MOL0     C26642   6.889   3.335   7.107  0.0121 -0.7014 -0.0844
  939MOL0     C26643   6.848   3.444   7.208  0.2148  0.4534 -0.7751
  939MOL0     C26644   6.952   3.550   7.230 -0.3970  0.5799 -0.4916
  939MOL0     C26645   6.940   3.665   7.113  0.1176  0.0797 -0.2477
  939MOL0     C26646   7.061   3.763   7.112 -0.0305 -1.4488 -0.3621
  939MOL0     N26647   7.099   3.825   7.239  0.1377  0.1366  0.1251
  939MOL0     C26648   7.023   3.873   7.341 -0.9318 -0.3580  0.3883
  939MOL0     C26649   7.096   3.929   7.439 -0.3293  0.3601  0.2971
  939MOL0     C26650   7.060   3.969   7.571  0.4081  0.3955 -1.3094
  939MOL0     C26651   7.180   4.028   7.655  0.6975 -1.0497 -1.2236
  939MOL0     C26652   7.245   3.926   7.754 -0.1351 -0.2412 -0.1328
  939MOL0     C26653   7.348   3.977   7.850  0.2894 -0.5864  1.1995
  939MOL0     O26654   7.394   3.871   7.944 -0.7385 -0.2277 -0.7456
  939MOL0     C26655   7.521   3.881   8.007  0.3079 -0.4219  0.2322
  939MOL0     C26656   7.539   3.802   8.114 -0.4047 -0.9091  0.3113
  939MOL0     C26657   7.659   3.794   8.185 -0.0451  0.1192 -0.1196
  939MOL0     C26658   7.660   3.698   8.312  0.8191  0.0780  0.0365
  939MOL0     C26659   7.764   3.882   8.157  0.4718 -0.7007 -0.3868
  939MOL0     C26660   7.882   3.882   8.231 -0.5493 -0.3294 -0.5012
  939MOL0     O26661   7.932   3.769   8.267 -0.2659  0.1479  0.4266
  939MOL0     C26662   8.052   3.777   8.330 -0.1115 -0.5768 -0.9133
  939MOL0     C26663   8.168   3.762   8.257  0.4749 -0.3307  0.1135
  939MOL0     C26664   8.294   3.768   8.322 -0.2858 -1.2592 -0.5780
  939MOL0     C26665   8.303   3.785   8.460  0.6181  0.0351 -0.0729
  939MOL0     O26666   8.432   3.774   8.518 -0.2624 -0.6758  0.1525
  939MOL0     C26667   8.442   3.842   8.641  0.0351  0.6341 -0.2037
  939MOL0     C26668   8.576   3.823   8.703 -0.9097  0.8312 -0.2482
  939MOL0     C26669   8.675   3.933   8.668 -0.5828  1.1899  0.1254
  939MOL0     C26670   8.776   3.954   8.780  0.5678 -0.5893  0.3373
  939MOL0     C26671   8.873   4.063   8.740 -1.0051 -0.2732  1.1124
  939MOL0     C26672   8.977   4.082   8.847 -0.3393  0.5538  1.1705
  939MOL0     C26673   9.083   3.971   8.836  0.3072 -0.9730  0.0362
  939MOL0     C26674   9.178   3.992   8.954  0.4248 -0.2181 -0.3012
  939MOL0    Cl26675   9.299   4.117   8.908 -0.0989 -0.0407 -0.1653
  939MOL0     C26676   8.181   3.784   8.538 -0.2841 -0.5626 -0.4134
  939MOL0     C26677   8.052   3.786   8.477  0.3385 -0.9435 -0.5750
  939MOL0     O26678   7.917   3.991   8.275 -0.2006  0.0969  0.8749
  939MOL0     C26679   7.741   3.970   8.049 -0.1611  0.2483  0.0326
  939MOL0     C26680   7.625   3.969   7.970 -0.1705  0.0425 -0.2116
  939MOL0     N26681   7.222   3.921   7.392  0.8833  0.5153  0.1622
  939MOL0     N26682   7.226   3.861   7.275  0.4054 -0.1417 -0.5928
  939MOL0     C26683   6.546   2.846   7.335  0.4816 -0.1619 -0.4981
  939MOL0     C26684   6.434   2.806   7.411 -0.2588 -0.0536 -0.0450
  939MOL0     C26685   6.170   2.721   7.776 -0.2453 -0.1659 -0.6476
  939MOL0     C26686   6.101   2.762   7.893 -0.7250 -0.0348  0.1749
  939MOL0     C26687   5.989   2.692   7.936  0.1285 -0.0924 -0.2690
  939MOL0     C26688   5.943   2.577   7.866 -0.1352  0.4546  0.0465
  939MOL0     O26689   5.830   2.509   7.890  0.0857  0.4198  0.8039
  939MOL0     C26690   5.806   2.479   8.024 -0.3782  0.0959  0.4050
  939MOL0     C26691   5.701   2.370   8.018  1.1475  0.5039 -0.8624
  939MOL0     C26692   5.680   2.312   8.152 -0.2067 -0.0323  0.1664
  939MOL0     C26693   5.580   2.198   8.156 -0.2403  1.0160  0.3907
  939MOL0     C26694   5.440   2.244   8.154 -0.0215 -0.2831 -0.2000
  939MOL0     C26695   5.332   2.295   8.171 -0.6128  0.2461  0.3819
  939MOL0     C26696   6.002   2.548   7.747  0.3020  0.5675 -0.4441
  939MOL0     C26697   6.106   2.616   7.698  0.0701  1.0670  0.5389
  939MOL0     H26698   6.586   2.825   7.715  1.3293  3.3899  0.3402
  939MOL0     H26699   6.769   2.935   7.578 -0.1865  0.0744 -1.6819
  939MOL0     H26700   6.758   3.127   7.375 -0.2006  1.2213 -3.2782
  939MOL0     H26701   6.909   3.048   7.432 -0.6182 -0.1905  0.7031
  939MOL0     H26702   6.999   3.186   7.283  3.6825 -3.0306  1.4555
  939MOL0     H26703   6.981   3.043   7.198 -1.8745  2.5061 -3.4742
  939MOL0     H26704   6.839   3.136   7.039  0.9245 -2.5518  1.3646
  939MOL0     H26705   6.727   3.198   7.152 -0.9717  3.0079 -1.1449
  939MOL0     H26706   6.998   3.327   7.105  0.0571 -0.9034  1.5472
  939MOL0     H26707   6.848   3.360   7.009  1.3336 -0.6198 -0.6329
  939MOL0     H26708   6.750   3.490   7.193  0.9483  2.0657 -0.8638
  939MOL0     H26709   6.855   3.394   7.306 -0.4921 -3.2966 -2.4665
  939MOL0     H26710   6.943   3.605   7.324  2.8420  2.3339 -1.0508
  939MOL0     H26711   7.054   3.509   7.232 -0.5096  0.3048 -0.4009
  939MOL0     H26712   6.954   3.616   7.017  2.0125  1.3208 -0.6662
  939MOL0     H26713   6.847   3.719   7.133 -0.1365 -1.5005  3.7869
  939MOL0     H26714   7.031   3.851   7.055 -0.1400  0.8052  2.9167
  939MOL0     H26715   7.137   3.717   7.048 -3.0434 -0.6901 -5.0030
  939MOL0     H26716   6.916   3.854   7.350 -1.4072  0.9668 -1.7817
  939MOL0     H26717   6.990   4.050   7.552 -0.1416  0.7445  1.6486
  939MOL0     H26718   7.025   3.878   7.620  2.1681 -0.2767 -1.2283
  939MOL0     H26719   7.135   4.113   7.707 -0.4880 -0.5596 -2.9735
  939MOL0     H26720   7.262   4.072   7.597 -0.8097 -0.2639 -2.8222
  939MOL0     H26721   7.296   3.848   7.696  0.4011 -0.4660  0.6234
  939MOL0     H26722   7.181   3.871   7.823 -1.0205  1.1811  0.2130
  939MOL0     H26723   7.297   4.053   7.910  0.9360  1.4361 -0.7257
  939MOL0     H26724   7.430   4.022   7.794 -1.4231  2.2470  0.7719
  939MOL0     H26725   7.458   3.732   8.132 -2.1689  1.0004  0.1954
  939MOL0     H26726   7.563   3.649   8.319  0.8479 -0.4821 -2.4055
  939MOL0     H26727   7.743   3.627   8.314 -1.1815 -2.3780  0.0100
  939MOL0     H26728   7.657   3.754   8.405 -0.4678 -2.1554  1.4183
  939MOL0     H26729   8.173   3.768   8.149  1.1223 -0.8428  0.1094
  939MOL0     H26730   8.386   3.764   8.264 -0.4426 -1.3467 -0.8234
  939MOL0     H26731   8.424   3.949   8.628  0.7582  1.1866  2.6737
  939MOL0     H26732   8.364   3.819   8.714 -0.2468  6.7995  2.0033
  939MOL0     H26733   8.571   3.826   8.812  3.1938  2.3719  0.0658
  939MOL0     H26734   8.602   3.723   8.669 -3.7117  0.1118 -0.5563
  939MOL0     H26735   8.609   4.018   8.649 -1.6881  0.3848  0.2828
  939MOL0     H26736   8.742   3.909   8.585  1.0194  0.3205  1.6064
  939MOL0     H26737   8.710   3.984   8.862 -1.4128  0.0457 -1.4068
  939MOL0     H26738   8.828   3.867   8.820 -0.7354 -0.5495  2.2530
  939MOL0     H26739   8.816   4.152   8.709  0.8190  0.9960  1.2377
  939MOL0     H26740   8.930   4.055   8.647  2.9484  1.8173  3.0868
  939MOL0     H26741   9.024   4.181   8.842 -0.3025  0.4911 -0.0213
  939MOL0     H26742   8.930   4.077   8.945 -0.9322  3.1699  1.1012
  939MOL0     H26743   9.141   3.971   8.743  0.5924 -1.3021  0.2092
  939MOL0     H26744   9.029   3.877   8.852 -1.3125  0.0935  1.0912
  939MOL0     H26745   9.221   3.895   8.977  0.8215  0.0578  0.1460
  939MOL0     H26746   9.123   4.043   9.034  1.8202 -0.8667  1.1306
  939MOL0     H26747   8.184   3.802   8.645 -0.7394 -0.7192 -0.3719
  939MOL0     H26748   7.960   3.791   8.534 -0.7174  1.0475 -2.3266
  939MOL0     H26749   7.828   4.029   8.023  0.7003  0.5063  3.1083
  939MOL0     H26750   7.615   4.038   7.887 -0.6807  0.9346  0.5657
  939MOL0     H26751   6.533   2.855   7.227 -0.2516  2.3941 -0.2617
  939MOL0     H26752   6.340   2.767   7.374  0.3393  1.3848 -3.4539
  939MOL0     H26753   6.134   2.852   7.943  0.6312 -1.4489  1.9744
  939MOL0     H26754   5.917   2.728   8.010 -3.4592 -0.7641 -3.1255
  939MOL0     H26755   5.898   2.438   8.065  0.3070  1.1639 -0.0232
  939MOL0     H26756   5.779   2.565   8.086  1.5969  2.0449 -1.2872
  939MOL0     H26757   5.737   2.294   7.947  1.4899 -0.0962 -0.0558
  939MOL0     H26758   5.607   2.408   7.977  1.3793  2.1947  0.0840
  939MOL0     H26759   5.657   2.390   8.224 -1.0517 -0.2320  0.1240
  939MOL0     H26760   5.779   2.280   8.184  0.7468  0.9920 -1.6026
  939MOL0     H26761   5.613   2.141   8.243  3.7595 -0.4158 -1.7964
  939MOL0     H26762   5.603   2.133   8.071 -1.0551  2.7320 -1.2184
  939MOL0     H26763   5.228   2.307   8.193 -0.8248 -1.2647  0.3109
  939MOL0     H26764   5.955   2.458   7.708  0.0770 -1.8331  4.6446
  939MOL0     H26765   6.136   2.580   7.600 -1.2283 -2.8508  1.4259
  940MOL0     O26766   2.488  10.665   7.666 -0.0316  0.3882 -0.9044
  940MOL0     C26767   2.610  10.670   7.701 -0.3268  0.3952  0.5996
  940MOL0     O26768   2.665  10.772   7.770 -0.0722 -0.5734 -0.0332
  940MOL0     C26769   2.597  10.880   7.809  0.2303 -0.1763 -0.3767
  940MOL0     C26770   2.649  11.006   7.769  0.0644 -0.5329  0.6456
  940MOL0     C26771   2.587  11.127   7.788 -0.8074  0.2644 -0.7049
  940MOL0     C26772   2.469  11.138   7.858 -0.4898  0.9398 -0.0638
  940MOL0     O26773   2.425  11.265   7.882  0.2918 -0.6060 -0.2205
  940MOL0     C26774   2.297  11.283   7.932  0.0235 -0.3547 -0.2265
  940MOL0     C26775   2.270  11.431   7.984 -0.4430  0.4697 -0.0235
  940MOL0     C26776   2.129  11.459   8.028 -0.1906  0.2107  0.8410
  940MOL0     C26777   2.052  11.481   7.900  0.1511 -0.2028 -0.5023
  940MOL0     C26778   1.905  11.464   7.919  0.9543  0.6120  0.4195
  940MOL0     C26779   1.828  11.458   7.780 -1.3717  0.0292 -0.5380
  940MOL0     C26780   1.678  11.478   7.809 -1.4558 -0.5434 -0.3284
  940MOL0     C26781   1.588  11.440   7.694 -0.1472  0.4515 -0.8873
  940MOL0     N26782   1.456  11.440   7.756 -0.6935  0.1486  0.0119
  940MOL0     C26783   1.393  11.349   7.833 -0.3808  0.6148 -0.2118
  940MOL0     C26784   1.273  11.396   7.873 -0.7552  0.2025  1.5596
  940MOL0     C26785   1.184  11.313   7.958  1.2421  1.0414  0.1308
  940MOL0     C26786   1.035  11.275   7.909  0.4940  0.1354  0.7617
  940MOL0     C26787   0.951  11.206   8.017  0.5323  0.1070  0.3226
  940MOL0     C26788   1.006  11.073   8.072  0.7095  0.2355 -0.1112
  940MOL0     O26789   0.913  11.033   8.178  0.3427 -0.6981  0.2590
  940MOL0     C26790   0.889  10.900   8.201 -0.6669  0.0915  0.6515
  940MOL0     C26791   0.777  10.850   8.266  0.2965  0.6783 -0.5015
  940MOL0     C26792   0.753  10.709   8.288  0.0217 -0.1498  0.4800
  940MOL0     C26793   0.629  10.671   8.372  0.2470 -0.0216 -0.0742
  940MOL0     C26794   0.841  10.618   8.223 -0.4460  0.5015 -0.7551
  940MOL0     C26795   0.819  10.469   8.233  0.5205 -0.4331  0.7183
  940MOL0     O26796   0.929  10.402   8.180 -0.1123 -0.0269  0.1920
  940MOL0     C26797   0.937  10.275   8.208 -0.5820  0.0857 -0.6032
  940MOL0     C26798   0.909  10.216   8.331  0.7540  0.4298  0.3213
  940MOL0     C26799   0.915  10.076   8.343 -0.1098  0.5313  1.2121
  940MOL0     C26800   0.964   9.995   8.236 -0.0085 -0.3205  0.1486
  940MOL0     O26801   0.973   9.861   8.252  0.1671  0.0906 -0.5772
  940MOL0     C26802   0.842   9.798   8.246 -0.5208 -0.3233  0.2307
  940MOL0     C26803   0.853   9.648   8.299  0.0114 -0.3303 -0.0127
  940MOL0     C26804   0.723   9.575   8.297 -0.2353  0.9044  0.5990
  940MOL0     C26805   0.718   9.498   8.165 -0.2071 -0.2527 -0.3161
  940MOL0     C26806   0.586   9.431   8.159  0.1727  0.2932  0.2912
  940MOL0     C26807   0.560   9.374   8.029  0.6295 -0.5229  0.9014
  940MOL0     C26808   0.677   9.282   7.975  0.2750  0.4868 -0.1080
  940MOL0     C26809   0.637   9.219   7.844  0.8604 -0.3266  1.4233
  940MOL0    Cl26810   0.532   9.081   7.861 -0.5377  0.1741  0.1948
  940MOL0     C26811   1.011  10.064   8.121  0.3811  0.8906 -0.5935
  940MOL0     C26812   0.996  10.192   8.107  1.0647 -0.0594  0.2454
  940MOL0     O26813   0.712  10.417   8.263 -0.0575  1.1357 -0.1006
  940MOL0     C26814   0.954  10.668   8.164  0.1587 -0.4672  0.0288
  940MOL0     C26815   0.980  10.802   8.151 -0.2848 -0.6538 -0.1125
  940MOL0     N26816   1.260  11.522   7.820 -0.0295 -0.3275 -0.7447
  940MOL0     N26817   1.364  11.542   7.741 -0.7510 -0.2621  0.1391
  940MOL0     C26818   2.416  11.016   7.906 -0.4271 -0.0157  0.1525
  940MOL0     C26819   2.468  10.891   7.873  0.0775  0.6463  0.4019
  940MOL0     C26820   2.704  10.545   7.693  0.9896  0.2073  0.0250
  940MOL0     C26821   2.659  10.438   7.621 -0.0129 -0.0945  0.1612
  940MOL0     C26822   2.736  10.321   7.615 -0.1740  0.6811 -0.2755
  940MOL0     C26823   2.871  10.318   7.646 -1.4308 -0.2377 -0.0805
  940MOL0     O26824   2.942  10.207   7.594 -0.1383 -0.2265  0.8305
  940MOL0     C26825   3.087  10.199   7.599 -0.0290 -0.6236 -0.1364
  940MOL0     C26826   3.120  10.065   7.653 -0.3272  0.0509 -0.1597
  940MOL0     C26827   3.088   9.952   7.556  0.3436  0.0692 -0.4264
  940MOL0     C26828   3.164   9.826   7.595 -0.4087 -0.0487  0.0800
  940MOL0     C26829   3.294   9.807   7.521 -0.1522 -0.3768 -0.1954
  940MOL0     C26830   3.408   9.806   7.472 -0.2897 -0.1395 -0.2251
  940MOL0     C26831   2.917  10.432   7.725 -0.1288  0.5663 -0.3342
  940MOL0     C26832   2.832  10.537   7.749  0.3899 -0.1347 -0.2753
  940MOL0     H26833   2.743  11.010   7.714 -0.0143  0.0083  0.5475
  940MOL0     H26834   2.626  11.224   7.759 -0.6938  0.8511  1.2620
  940MOL0     H26835   2.220  11.247   7.864 -2.5524  0.6831  1.9570
  940MOL0     H26836   2.291  11.229   8.027  3.3992  0.5961  0.6728
  940MOL0     H26837   2.336  11.447   8.070 -0.5076 -2.5398  0.6995
  940MOL0     H26838   2.314  11.504   7.916 -1.1521 -1.1376 -2.3358
  940MOL0     H26839   2.099  11.374   8.089  0.5031 -1.8320 -1.5164
  940MOL0     H26840   2.130  11.554   8.082  1.1086 -0.1042  1.3847
  940MOL0     H26841   2.075  11.578   7.855 -5.5262  1.3311 -0.9466
  940MOL0     H26842   2.087  11.412   7.823 -0.5032  0.8883 -1.8241
  940MOL0     H26843   1.899  11.365   7.964 -0.8959 -2.0722 -4.8684
  940MOL0     H26844   1.879  11.544   7.989  0.2498  0.2958  0.5161
  940MOL0     H26845   1.876  11.532   7.717  0.9475 -0.2341  0.8145
  940MOL0     H26846   1.844  11.358   7.739 -4.1481 -1.6509  1.9928
  940MOL0     H26847   1.658  11.414   7.895 -2.8755 -2.5068 -1.9786
  940MOL0     H26848   1.661  11.582   7.836  2.1425 -0.1316  0.7511
  940MOL0     H26849   1.611  11.338   7.661 -0.3077 -0.1504  0.7487
  940MOL0     H26850   1.604  11.499   7.604  2.7043  1.7841  0.3665
  940MOL0     H26851   1.445  11.257   7.855 -2.2216 -0.5576 -0.5853
  940MOL0     H26852   1.239  11.219   7.972 -1.8694 -0.8122  0.9819
  940MOL0     H26853   1.172  11.360   8.056 -2.9870 -0.7517  0.7096
  940MOL0     H26854   1.028  11.223   7.814  1.0411 -2.0788  1.8696
  940MOL0     H26855   1.006  11.379   7.891  0.8423  0.2102  0.6130
  940MOL0     H26856   0.847  11.192   7.989  0.5542  0.4832  0.0316
  940MOL0     H26857   0.962  11.282   8.096  0.1240  2.6268 -1.8938
  940MOL0     H26858   1.103  11.092   8.119 -0.2340  2.3409  1.1034
  940MOL0     H26859   1.002  10.999   7.991  0.3729 -0.5723  0.6254
  940MOL0     H26860   0.718  10.926   8.316  1.6092  0.7769  1.0096
  940MOL0     H26861   0.662  10.635   8.469  1.1606  3.5231  1.0984
  940MOL0     H26862   0.565  10.758   8.393  1.5216  0.2996  2.8863
  940MOL0     H26863   0.563  10.607   8.312 -2.2619  2.0266  0.2908
  940MOL0     H26864   0.868  10.262   8.420  0.1331 -1.7817  1.2550
  940MOL0     H26865   0.862  10.029   8.425 -2.0246  1.6536  0.6980
  940MOL0     H26866   0.766   9.853   8.302 -1.0605 -1.4006  0.5847
  940MOL0     H26867   0.802   9.801   8.145 -2.9485 -1.3997  1.0966
  940MOL0     H26868   0.931   9.589   8.251 -0.7018 -0.8139 -0.5911
  940MOL0     H26869   0.878   9.653   8.406  0.7484 -0.8896 -0.1493
  940MOL0     H26870   0.635   9.638   8.314 -0.9307  0.1445 -0.0540
  940MOL0     H26871   0.726   9.497   8.374 -2.5154 -1.7359 -1.7465
  940MOL0     H26872   0.730   9.574   8.088 -3.0575  2.7081  1.8637
  940MOL0     H26873   0.793   9.420   8.152 -1.4700 -1.3345 -1.3865
  940MOL0     H26874   0.517   9.513   8.179 -0.7064 -0.0510 -1.2092
  940MOL0     H26875   0.586   9.352   8.235  1.3887 -0.1547 -0.1403
  940MOL0     H26876   0.473   9.309   8.032  1.2826 -1.5879 -1.1466
  940MOL0     H26877   0.542   9.446   7.949  1.6095 -2.2544 -0.9993
  940MOL0     H26878   0.700   9.190   8.030  0.9009 -1.1230 -2.8796
  940MOL0     H26879   0.765   9.341   7.950  2.5267 -2.4637  0.2653
  940MOL0     H26880   0.730   9.187   7.797  0.0844  1.7278 -1.7907
  940MOL0     H26881   0.584   9.290   7.781  0.6721 -0.5218  1.3569
  940MOL0     H26882   1.037  10.011   8.030 -3.0113  1.1272 -1.8169
  940MOL0     H26883   1.021  10.227   8.007  0.2596  2.5616  0.8729
  940MOL0     H26884   1.034  10.600   8.138  1.2972  0.2112  1.5880
  940MOL0     H26885   1.073  10.834   8.107 -1.1583 -0.2060 -1.6871
  940MOL0     H26886   2.329  11.027   7.971  1.2373  0.3746  2.4557
  940MOL0     H26887   2.419  10.801   7.910  1.8803 -0.1080  1.1000
  940MOL0     H26888   2.555  10.437   7.591 -0.7849 -0.7720  2.6052
  940MOL0     H26889   2.703  10.229   7.567 -0.3153 -0.8574  2.5482
  940MOL0     H26890   3.127  10.219   7.500  1.2746  0.2162  0.5298
  940MOL0     H26891   3.140  10.280   7.651 -0.1631 -0.8091  0.2991
  940MOL0     H26892   3.072  10.057   7.751  1.4200  4.2848  1.2537
  940MOL0     H26893   3.229  10.060   7.666 -0.4433 -1.0094  0.5734
  940MOL0     H26894   3.107   9.986   7.453 -1.3435  1.8582 -0.1960
  940MOL0     H26895   2.982   9.929   7.570  0.0544  1.8442  0.5828
  940MOL0     H26896   3.104   9.735   7.586  0.4971 -0.5407 -1.2230
  940MOL0     H26897   3.188   9.837   7.702 -1.1236  2.1112  0.0724
  940MOL0     H26898   3.500   9.812   7.418  0.5584  3.2279  1.3898
  940MOL0     H26899   3.020  10.444   7.756 -1.1265  2.4264  2.6909
  940MOL0     H26900   2.862  10.624   7.807  0.1278  0.6764 -1.3072
  941MOL0     O26901   7.657   6.017   6.853  0.6423 -0.7938  0.0437
  941MOL0     C26902   7.633   6.143   6.872  1.0468  0.3450  0.2010
  941MOL0     O26903   7.649   6.213   6.984 -0.0603 -0.3899  0.0698
  941MOL0     C26904   7.697   6.156   7.105  0.2277  0.0437 -0.2717
  941MOL0     C26905   7.744   6.252   7.190  0.4849 -0.3400  0.0189
  941MOL0     C26906   7.798   6.219   7.308  0.1577  0.5033 -0.2507
  941MOL0     C26907   7.802   6.092   7.358 -1.3150  1.6421  0.9606
  941MOL0     O26908   7.865   6.061   7.472  0.4141 -0.3787 -0.3078
  941MOL0     C26909   7.804   5.942   7.538  0.3951  0.0526  0.1541
  941MOL0     C26910   7.899   5.816   7.528  0.1594 -0.7757  0.2707
  941MOL0     C26911   7.877   5.736   7.652 -0.5977 -0.3691 -0.0629
  941MOL0     C26912   7.967   5.609   7.667 -0.3028 -0.3132 -0.2509
  941MOL0     C26913   7.934   5.526   7.791  0.2674 -0.2017 -0.4527
  941MOL0     C26914   8.045   5.429   7.847  0.0078 -0.1284 -0.4512
  941MOL0     C26915   8.180   5.499   7.864 -0.0092  0.2032 -0.5457
  941MOL0     C26916   8.290   5.397   7.879 -0.1682 -0.2619  0.3229
  941MOL0     N26917   8.274   5.312   7.997 -0.3985  0.0919 -0.5468
  941MOL0     C26918   8.284   5.178   8.006  0.4109  0.8536  0.3587
  941MOL0     C26919   8.268   5.156   8.141  0.0526 -0.9581 -0.1416
  941MOL0     C26920   8.276   5.024   8.211 -1.5592 -0.4973 -0.2038
  941MOL0     C26921   8.157   4.933   8.193  0.0314 -1.1455 -0.3777
  941MOL0     C26922   8.162   4.787   8.245 -0.1882 -0.2748 -0.2324
  941MOL0     C26923   8.202   4.775   8.395  0.2489 -1.1870  0.6194
  941MOL0     O26924   8.191   4.643   8.439 -0.6752  0.0882  0.0427
  941MOL0     C26925   8.192   4.613   8.571 -0.3281  0.1040 -0.8265
  941MOL0     C26926   8.260   4.689   8.664  0.6889 -0.5095 -0.3614
  941MOL0     C26927   8.254   4.657   8.801 -0.0486  0.0151  0.7439
  941MOL0     C26928   8.335   4.753   8.892 -0.4517 -0.1276 -0.2637
  941MOL0     C26929   8.175   4.542   8.842 -0.5373 -0.2894  0.2352
  941MOL0     C26930   8.175   4.494   8.983 -0.3378 -0.1981 -0.3744
  941MOL0     O26931   8.282   4.503   9.058 -0.7141 -0.5590 -0.3390
  941MOL0     C26932   8.269   4.468   9.191 -0.4736 -0.0898  0.0141
  941MOL0     C26933   8.171   4.527   9.273  0.1801  0.0050 -0.3854
  941MOL0     C26934   8.165   4.494   9.414  0.0322 -0.0077  0.0084
  941MOL0     C26935   8.262   4.414   9.470 -0.5375 -0.4112 -0.1620
  941MOL0     O26936   8.245   4.388   9.608 -0.4313  0.6511  0.3456
  941MOL0     C26937   8.332   4.298   9.672  0.3410  0.1280  0.1436
  941MOL0     C26938   8.295   4.301   9.827 -1.1411 -0.9318 -0.2520
  941MOL0     C26939   8.330   4.163   9.884 -0.3480  0.2844 -0.1640
  941MOL0     C26940   8.266   4.143  10.020 -0.8763  0.7691 -0.7003
  941MOL0     C26941   8.265   3.997  10.067  0.5353  0.1543 -0.8815
  941MOL0     C26942   8.393   3.921  10.017  1.0767 -0.2293 -0.5031
  941MOL0     C26943   8.390   3.784  10.067  0.3405  0.0126 -0.9160
  941MOL0     C26944   8.519   3.702  10.039  0.6987 -0.5893 -0.1077
  941MOL0    Cl26945   8.677   3.787  10.085  0.2453  0.3195 -0.2334
  941MOL0     C26946   8.370   4.373   9.387  0.1857 -0.2154  0.3929
  941MOL0     C26947   8.373   4.397   9.248 -0.8058  0.0688 -0.5115
  941MOL0     O26948   8.075   4.434   9.008  0.9939  0.2450 -0.0640
  941MOL0     C26949   8.093   4.478   8.751  0.4762  0.2075 -0.5803
  941MOL0     C26950   8.106   4.515   8.616  0.6968  0.6698  0.1135
  941MOL0     N26951   8.257   5.277   8.210 -1.1743  0.4087 -0.1931
  941MOL0     N26952   8.258   5.368   8.119  0.4162 -0.0810 -0.0247
  941MOL0     C26953   7.769   5.990   7.265 -0.7537 -0.4627 -0.5893
  941MOL0     C26954   7.717   6.017   7.140  0.6552 -1.1688  1.2376
  941MOL0     C26955   7.598   6.218   6.746 -0.2759  0.5300 -0.5433
  941MOL0     C26956   7.612   6.354   6.730  0.2445  0.1315  0.3543
  941MOL0     C26957   7.575   6.417   6.609 -0.4896 -1.1252 -0.8200
  941MOL0     C26958   7.530   6.344   6.497  0.2999  0.3904  1.1540
  941MOL0     O26959   7.503   6.416   6.385  0.0476 -0.3857  0.5481
  941MOL0     C26960   7.521   6.347   6.255 -0.9126 -1.0681 -0.8205
  941MOL0     C26961   7.669   6.315   6.230  0.9517  0.1393 -1.4053
  941MOL0     C26962   7.741   6.440   6.180 -0.6886 -0.1541  0.0542
  941MOL0     C26963   7.731   6.480   6.032  0.9129 -0.3954 -0.3487
  941MOL0     C26964   7.836   6.581   6.020 -0.3682  0.9569 -0.2020
  941MOL0     C26965   7.922   6.664   6.026 -0.3838  0.2407 -0.0549
  941MOL0     C26966   7.531   6.205   6.509 -0.5011 -0.3709  0.8176
  941MOL0     C26967   7.560   6.151   6.628 -1.2649  0.4306  0.0453
  941MOL0     H26968   7.741   6.358   7.167  0.0664  0.9176  4.8887
  941MOL0     H26969   7.848   6.296   7.366  0.6388 -0.9978  1.4371
  941MOL0     H26970   7.787   5.970   7.643 -1.4088 -0.8364  0.1481
  941MOL0     H26971   7.699   5.922   7.515  0.7155 -2.4839  0.5498
  941MOL0     H26972   7.871   5.758   7.440 -0.8258 -0.7938  0.5880
  941MOL0     H26973   8.003   5.849   7.518  1.2997 -3.3953  2.2031
  941MOL0     H26974   7.903   5.809   7.729  1.1693  0.6487 -1.5331
  941MOL0     H26975   7.774   5.710   7.676 -0.8141  1.6705  1.5110
  941MOL0     H26976   7.946   5.551   7.576 -3.4469 -2.5022  1.6761
  941MOL0     H26977   8.068   5.651   7.671 -0.5324  0.1437  1.0847
  941MOL0     H26978   7.907   5.593   7.873  1.1205 -0.4768  0.0710
  941MOL0     H26979   7.847   5.466   7.763  0.5214  0.1135 -1.9973
  941MOL0     H26980   8.011   5.382   7.940 -0.9776  0.4933 -0.4771
  941MOL0     H26981   8.071   5.349   7.777  3.5426 -1.4287  2.0369
  941MOL0     H26982   8.220   5.563   7.786  2.9052  1.7067  1.9770
  941MOL0     H26983   8.174   5.575   7.943 -1.9750  2.1630 -2.4198
  941MOL0     H26984   8.382   5.456   7.879 -0.0042 -0.4783 -1.0245
  941MOL0     H26985   8.289   5.317   7.803  1.4761 -0.2746  0.2973
  941MOL0     H26986   8.298   5.111   7.922  3.0935  0.1245  1.2968
  941MOL0     H26987   8.373   4.987   8.177 -0.3442  2.5703 -0.4584
  941MOL0     H26988   8.293   5.048   8.317 -2.0274  1.2500 -0.4859
  941MOL0     H26989   8.141   4.918   8.086  1.3567  1.8593 -1.0789
  941MOL0     H26990   8.073   4.986   8.239 -0.2823 -1.8795 -0.0870
  941MOL0     H26991   8.227   4.719   8.188  1.4201  2.3387 -1.6854
  941MOL0     H26992   8.063   4.739   8.242 -1.1642  1.4370  1.7196
  941MOL0     H26993   8.133   4.835   8.456  1.1832  1.3787 -0.7026
  941MOL0     H26994   8.302   4.816   8.410 -0.9567  2.8050 -1.0871
  941MOL0     H26995   8.305   4.782   8.632 -1.1814  0.6507  0.2417
  941MOL0     H26996   8.310   4.749   8.998  0.2983  2.3885  0.0720
  941MOL0     H26997   8.442   4.744   8.872 -0.6650 -0.5686 -1.2924
  941MOL0     H26998   8.318   4.859   8.872 -0.5795  0.7251  3.5836
  941MOL0     H26999   8.093   4.595   9.238 -1.8724 -0.2700  3.1931
  941MOL0     H27000   8.072   4.537   9.452  0.9331  2.0333  0.0285
  941MOL0     H27001   8.320   4.202   9.621 -2.9870  0.4748  0.0466
  941MOL0     H27002   8.433   4.331   9.649  0.1256  0.9649  0.3591
  941MOL0     H27003   8.352   4.376   9.882  0.2212 -2.1692  0.0997
  941MOL0     H27004   8.188   4.316   9.842 -0.6666 -0.0185  2.9965
  941MOL0     H27005   8.439   4.158   9.882 -0.3647 -2.7740 -3.7240
  941MOL0     H27006   8.309   4.085   9.810 -0.8639 -1.4226  1.6856
  941MOL0     H27007   8.322   4.199  10.095  1.8568  1.0986 -2.8077
  941MOL0     H27008   8.161   4.173  10.023 -2.0743 -2.8770  1.7147
  941MOL0     H27009   8.176   3.943  10.034  0.9303 -0.6068 -0.7105
  941MOL0     H27010   8.252   3.998  10.175  1.0345  0.4417 -0.8174
  941MOL0     H27011   8.400   3.926   9.908 -0.1917 -1.5863 -0.6726
  941MOL0     H27012   8.485   3.965  10.058  3.1313 -3.5100 -1.2695
  941MOL0     H27013   8.304   3.727  10.031 -0.6331  1.0639 -0.3552
  941MOL0     H27014   8.369   3.781  10.175 -3.3410 -3.6452 -1.4787
  941MOL0     H27015   8.520   3.697   9.930 -0.1316  1.8528 -0.2906
  941MOL0     H27016   8.523   3.602  10.084 -1.2983 -1.2461 -1.2651
  941MOL0     H27017   8.452   4.321   9.436  1.1862  0.8118 -0.1446
  941MOL0     H27018   8.467   4.370   9.200 -0.4229  1.6771 -0.7221
  941MOL0     H27019   8.035   4.393   8.785 -1.6080  2.6097  2.3598
  941MOL0     H27020   8.046   4.456   8.548 -1.1780  0.6516  1.7023
  941MOL0     H27021   7.786   5.885   7.285  0.8902 -0.0949  0.1647
  941MOL0     H27022   7.696   5.933   7.074  4.8346 -0.5785 -1.1742
  941MOL0     H27023   7.639   6.404   6.823  1.3920  0.4095 -0.1070
  941MOL0     H27024   7.609   6.519   6.594  1.8768 -1.7908 -0.3745
  941MOL0     H27025   7.466   6.252   6.253 -1.4735 -0.7784 -0.0102
  941MOL0     H27026   7.478   6.414   6.181 -0.2829 -2.0282 -2.0857
  941MOL0     H27027   7.670   6.228   6.163 -0.2492  0.5810 -2.0297
  941MOL0     H27028   7.708   6.278   6.325 -0.4526 -0.6484 -1.0927
  941MOL0     H27029   7.845   6.409   6.197 -0.1248  2.5583  2.1482
  941MOL0     H27030   7.736   6.523   6.250 -1.5506 -0.1124 -0.0536
  941MOL0     H27031   7.635   6.523   6.003  1.4167 -0.6916 -2.6555
  941MOL0     H27032   7.756   6.401   5.960  1.4977  1.6737 -2.5343
  941MOL0     H27033   8.001   6.733   6.049 -1.0834  1.0383  0.0319
  941MOL0     H27034   7.495   6.140   6.430 -1.8255  0.4997  0.6770
  941MOL0     H27035   7.559   6.044   6.640  0.4507  0.3779 -0.1411
  942MOL0     O27036   2.004   6.929   7.344  0.3486  0.0066 -0.0037
  942MOL0     C27037   1.998   6.986   7.449  0.1158  0.5123 -0.2771
  942MOL0     O27038   1.974   6.929   7.563 -0.1594  0.5750  0.2773
  942MOL0     C27039   1.909   6.801   7.565  0.0657 -0.7246 -1.7849
  942MOL0     C27040   1.967   6.678   7.536 -0.2326  0.0254 -0.1336
  942MOL0     C27041   1.899   6.561   7.564  0.4878  0.6011 -0.3790
  942MOL0     C27042   1.764   6.554   7.613 -0.3889 -0.2698 -0.9426
  942MOL0     O27043   1.693   6.435   7.637  0.4971 -0.2619  0.0162
  942MOL0     C27044   1.555   6.424   7.594 -0.6112  0.2484  0.4887
  942MOL0     C27045   1.508   6.293   7.649 -0.8873 -0.4519  1.2220
  942MOL0     C27046   1.360   6.274   7.603  0.4995 -0.8333 -0.1954
  942MOL0     C27047   1.308   6.138   7.639 -0.3287  0.0631  0.0145
  942MOL0     C27048   1.277   6.096   7.792  0.3265 -0.0748 -0.0291
  942MOL0     C27049   1.226   5.952   7.820  0.1196  0.2334  0.3881
  942MOL0     C27050   1.236   5.913   7.966  0.4318 -0.1220  0.5826
  942MOL0     C27051   1.186   5.774   7.992  0.4223  0.0933  0.8063
  942MOL0     N27052   1.174   5.746   8.134 -0.1233  0.2046 -1.2214
  942MOL0     C27053   1.242   5.643   8.201  0.5243 -0.5548  0.1116
  942MOL0     C27054   1.222   5.663   8.335  0.0691  0.7274 -0.4714
  942MOL0     C27055   1.268   5.549   8.435 -0.4058  0.6735 -0.2767
  942MOL0     C27056   1.420   5.527   8.443 -0.5612  0.4284 -0.7087
  942MOL0     C27057   1.438   5.439   8.571  0.5958 -0.2102 -0.8263
  942MOL0     C27058   1.584   5.366   8.558 -0.1010  0.1778  0.0244
  942MOL0     O27059   1.619   5.301   8.688  0.2473 -0.4655 -0.7323
  942MOL0     C27060   1.704   5.368   8.775  0.4886  0.7910  0.5349
  942MOL0     C27061   1.760   5.288   8.872  0.1668  0.2774 -0.5380
  942MOL0     C27062   1.831   5.347   8.974 -0.5165 -0.2568  1.2851
  942MOL0     C27063   1.884   5.242   9.072  0.0779  1.3863  0.0646
  942MOL0     C27064   1.855   5.486   8.981 -0.9238  0.2267 -0.1170
  942MOL0     C27065   1.948   5.553   9.084 -0.1804 -0.5289 -0.3180
  942MOL0     O27066   1.984   5.479   9.192  0.9094 -0.3319 -0.7377
  942MOL0     C27067   2.083   5.504   9.278 -0.8859 -0.3166  0.8256
  942MOL0     C27068   2.054   5.464   9.418  0.5420 -0.3761 -0.8195
  942MOL0     C27069   2.142   5.498   9.515 -0.2694 -0.2400 -0.1768
  942MOL0     C27070   2.260   5.568   9.489 -0.7157  0.1681  0.5104
  942MOL0     O27071   2.341   5.602   9.601 -0.2347  0.1699  0.6352
  942MOL0     C27072   2.472   5.661   9.587  0.1562  0.2473 -0.4165
  942MOL0     C27073   2.583   5.555   9.602  0.4766  0.6204  0.7521
  942MOL0     C27074   2.573   5.480   9.733 -0.5966  0.3647  0.9072
  942MOL0     C27075   2.658   5.549   9.846  0.2983 -0.3809 -0.8389
  942MOL0     C27076   2.806   5.523   9.851 -0.4548 -0.1114 -0.7192
  942MOL0     C27077   2.881   5.653   9.882  0.7040 -0.1025 -0.2305
  942MOL0     C27078   3.038   5.643   9.880 -0.1846 -0.1050 -0.1710
  942MOL0     C27079   3.090   5.587   9.742 -0.8444 -0.0410  0.2039
  942MOL0    Cl27080   3.073   5.702   9.609  0.8033  0.2824 -0.0683
  942MOL0     C27081   2.294   5.594   9.354 -0.3831 -0.4395  0.3873
  942MOL0     C27082   2.204   5.567   9.253  0.0955  0.7066  0.0477
  942MOL0     O27083   1.960   5.678   9.071 -0.4528  0.1048  0.6077
  942MOL0     C27084   1.797   5.565   8.880  0.1727 -0.0120  0.7641
  942MOL0     C27085   1.723   5.504   8.772 -0.0078  0.3221  0.8326
  942MOL0     N27086   1.143   5.781   8.347 -0.7598  0.5129  0.1629
  942MOL0     N27087   1.110   5.818   8.233 -0.0037 -1.3140 -0.3396
  942MOL0     C27088   1.696   6.675   7.633 -0.3546  0.5945 -0.0665
  942MOL0     C27089   1.770   6.797   7.612 -0.1472  1.0251  0.3513
  942MOL0     C27090   2.034   7.123   7.467 -0.7602 -0.5772  0.5991
  942MOL0     C27091   2.038   7.214   7.366  0.6064 -0.3375 -0.2086
  942MOL0     C27092   2.060   7.353   7.388 -0.4963 -0.3119  0.3423
  942MOL0     C27093   2.077   7.403   7.511  0.2685 -0.5016 -0.5150
  942MOL0     O27094   2.081   7.537   7.547  0.1683 -0.1444  0.1686
  942MOL0     C27095   2.103   7.639   7.449  0.1276 -0.0692  0.0299
  942MOL0     C27096   2.136   7.771   7.516  0.8159  0.0089  1.1653
  942MOL0     C27097   2.282   7.796   7.548  1.2195  0.0943  1.2014
  942MOL0     C27098   2.348   7.674   7.621 -0.0686  0.2049  1.2708
  942MOL0     C27099   2.488   7.693   7.657 -0.2264 -0.3754 -0.0162
  942MOL0     C27100   2.608   7.702   7.667 -0.0613  0.6477 -1.0254
  942MOL0     C27101   2.076   7.317   7.619  0.1781 -0.0182  0.8044
  942MOL0     C27102   2.066   7.183   7.596  0.4454 -0.5899 -0.2322
  942MOL0     H27103   2.070   6.663   7.505 -1.3702 -1.9375 -3.5814
  942MOL0     H27104   1.945   6.466   7.541 -3.0269 -0.8975 -1.9936
  942MOL0     H27105   1.498   6.512   7.627  0.5652  0.5271  1.9179
  942MOL0     H27106   1.539   6.436   7.487  1.2004  0.6266  0.2176
  942MOL0     H27107   1.579   6.214   7.623 -3.5740 -2.4134 -0.7387
  942MOL0     H27108   1.508   6.280   7.757 -1.5233 -0.7960  1.1885
  942MOL0     H27109   1.296   6.339   7.664  1.5583  0.2994 -0.2417
  942MOL0     H27110   1.366   6.302   7.497  1.2114  1.4491  0.3749
  942MOL0     H27111   1.208   6.128   7.596 -0.1746  1.2731 -0.6984
  942MOL0     H27112   1.372   6.061   7.596 -2.0148 -0.6889 -1.2969
  942MOL0     H27113   1.367   6.112   7.853 -0.0351  1.7792  0.0793
  942MOL0     H27114   1.211   6.171   7.836 -0.1030 -0.8291  0.6267
  942MOL0     H27115   1.124   5.956   7.780  0.1074  3.3583  0.4993
  942MOL0     H27116   1.300   5.887   7.772 -0.7851 -0.2600 -0.3617
  942MOL0     H27117   1.342   5.912   7.991  0.9830 -3.3240 -1.2795
  942MOL0     H27118   1.185   5.987   8.028  0.1672  0.0511  0.1602
  942MOL0     H27119   1.261   5.705   7.951 -1.7396 -1.0839 -1.4394
  942MOL0     H27120   1.088   5.775   7.944  1.6706  0.6496 -1.9309
  942MOL0     H27121   1.285   5.558   8.149 -3.9929 -1.9386 -1.7854
  942MOL0     H27122   1.226   5.588   8.528  1.1654  2.2636 -0.1817
  942MOL0     H27123   1.224   5.456   8.398 -1.7236  1.3172 -0.4083
  942MOL0     H27124   1.476   5.620   8.455  2.8594 -1.6791  1.1967
  942MOL0     H27125   1.465   5.471   8.360 -0.6933  1.2377 -1.3338
  942MOL0     H27126   1.350   5.374   8.576  0.2549  0.3122  0.6663
  942MOL0     H27127   1.436   5.500   8.662  0.6399 -0.3827 -0.7075
  942MOL0     H27128   1.665   5.430   8.523 -0.5042  0.4502 -0.4199
  942MOL0     H27129   1.581   5.283   8.487  1.3891 -1.0218  1.2781
  942MOL0     H27130   1.727   5.185   8.876  0.0889  0.2958 -0.7188
  942MOL0     H27131   1.856   5.279   9.171 -1.8620 -1.3641  0.6641
  942MOL0     H27132   1.839   5.143   9.066  1.3908  0.7558  0.3493
  942MOL0     H27133   1.992   5.225   9.061 -0.5078 -2.8292 -0.8799
  942MOL0     H27134   1.957   5.424   9.446  0.1052  1.5485  0.7267
  942MOL0     H27135   2.113   5.480   9.618 -1.3196  0.6626 -0.2966
  942MOL0     H27136   2.482   5.725   9.498 -2.9481 -1.2093 -1.9943
  942MOL0     H27137   2.480   5.723   9.677  0.3768  1.6792 -1.3834
  942MOL0     H27138   2.572   5.484   9.520 -0.2744  0.8781  0.6207
  942MOL0     H27139   2.685   5.592   9.590  1.2796 -1.1775  1.6637
  942MOL0     H27140   2.623   5.383   9.727  0.3915  0.9387 -0.9680
  942MOL0     H27141   2.472   5.460   9.768 -0.9251  0.8544  0.2632
  942MOL0     H27142   2.627   5.654   9.847 -3.1332 -1.2886 -0.0578
  942MOL0     H27143   2.616   5.523   9.943  0.0428 -0.7244 -1.0373
  942MOL0     H27144   2.835   5.484   9.753 -0.9548 -1.4104 -0.3787
  942MOL0     H27145   2.844   5.454   9.928 -0.2128  0.3358 -0.4314
  942MOL0     H27146   2.840   5.721   9.805 -3.0802 -0.6731  1.0705
  942MOL0     H27147   2.849   5.705   9.973  4.6778  4.0142 -0.7821
  942MOL0     H27148   3.077   5.581   9.962 -1.4445 -0.9209 -0.1670
  942MOL0     H27149   3.082   5.741   9.899 -0.9393  0.1760  0.1593
  942MOL0     H27150   3.054   5.490   9.708 -2.9550  1.4056 -2.0400
  942MOL0     H27151   3.199   5.576   9.754 -0.6544 -0.1723 -1.4115
  942MOL0     H27152   2.385   5.649   9.333 -1.0443  0.7806  0.6521
  942MOL0     H27153   2.224   5.601   9.152  1.6548  1.8092  0.6935
  942MOL0     H27154   1.814   5.672   8.884  0.2236  0.2328 -2.7687
  942MOL0     H27155   1.669   5.575   8.709  0.9240 -1.3252 -2.0021
  942MOL0     H27156   1.592   6.689   7.662 -0.4315  0.1647 -0.1371
  942MOL0     H27157   1.717   6.891   7.627 -1.6095  0.0381  1.6418
  942MOL0     H27158   2.013   7.174   7.268 -2.1079  0.1166  0.2285
  942MOL0     H27159   2.064   7.435   7.316  2.9724  0.6290  1.4156
  942MOL0     H27160   2.193   7.614   7.392 -0.6274 -1.4998 -0.5737
  942MOL0     H27161   2.019   7.641   7.379 -0.1426  0.4246  0.3599
  942MOL0     H27162   2.075   7.777   7.607 -0.8689 -1.8342  0.2232
  942MOL0     H27163   2.106   7.859   7.458  1.5761  0.0594  0.8335
  942MOL0     H27164   2.289   7.869   7.629  0.2987 -1.4509  2.7287
  942MOL0     H27165   2.334   7.829   7.457 -0.3808  2.2336  0.9702
  942MOL0     H27166   2.341   7.582   7.562  1.3049  1.5113 -1.0442
  942MOL0     H27167   2.293   7.672   7.716  0.3367  2.2324  1.5923
  942MOL0     H27168   2.712   7.706   7.691  0.0116  1.9778 -1.5078
  942MOL0     H27169   2.082   7.356   7.721 -0.6368  1.2851  0.3782
  942MOL0     H27170   2.087   7.121   7.683 -0.1984 -0.2379  0.1878
  943MOL0     O27171   5.434   8.071   7.462  0.2363 -0.0004  0.2045
  943MOL0     C27172   5.479   7.961   7.463  1.9773  0.0657  0.1457
  943MOL0     O27173   5.410   7.848   7.421  0.1971  0.2764  0.0763
  943MOL0     C27174   5.284   7.860   7.363 -0.2552 -0.2026 -0.5244
  943MOL0     C27175   5.186   7.796   7.426  1.0075 -0.3943  0.2129
  943MOL0     C27176   5.057   7.791   7.364  0.0335  0.1505 -0.3631
  943MOL0     C27177   5.035   7.852   7.241  0.2086 -0.1232 -0.0973
  943MOL0     O27178   4.908   7.839   7.184  0.4569  1.0827 -0.4437
  943MOL0     C27179   4.903   7.770   7.053  0.2292  0.0319 -1.0850
  943MOL0     C27180   4.967   7.628   7.058  0.1749  0.2624 -0.4104
  943MOL0     C27181   4.879   7.528   7.137 -0.4414  0.6153 -0.3246
  943MOL0     C27182   4.914   7.380   7.100 -0.1143  0.2687  0.3846
  943MOL0     C27183   4.802   7.282   7.141  0.3210 -0.0361  0.7079
  943MOL0     C27184   4.798   7.262   7.299 -0.3070  0.0712  0.4575
  943MOL0     C27185   4.676   7.166   7.314 -0.6052 -0.2938 -0.1439
  943MOL0     C27186   4.641   7.138   7.459 -0.1800  0.0516 -0.7882
  943MOL0     N27187   4.508   7.076   7.474  0.1844 -0.2001  0.6480
  943MOL0     C27188   4.394   7.107   7.403 -0.1412 -0.6931  0.7695
  943MOL0     C27189   4.297   7.016   7.449 -0.7354  0.4101 -1.5632
  943MOL0     C27190   4.157   7.040   7.434 -0.5337  0.0387 -0.1179
  943MOL0     C27191   4.127   7.012   7.286  0.3347 -0.0930 -0.5586
  943MOL0     C27192   3.976   7.026   7.271 -0.0719  0.4006  0.1130
  943MOL0     C27193   3.934   7.029   7.129 -0.6018 -0.2732 -0.4888
  943MOL0     O27194   3.800   6.978   7.120  0.0165  0.0092 -0.2584
  943MOL0     C27195   3.774   6.899   7.010 -0.6281 -0.1829 -0.1940
  943MOL0     C27196   3.837   6.922   6.889  0.4846  0.1426  0.4867
  943MOL0     C27197   3.809   6.829   6.790  0.3470  0.1849  0.3106
  943MOL0     C27198   3.870   6.878   6.657  0.1682 -0.2003 -0.5034
  943MOL0     C27199   3.714   6.727   6.802  0.8069  0.6957 -0.1017
  943MOL0     C27200   3.652   6.649   6.684 -0.2218 -0.7646  0.1495
  943MOL0     O27201   3.738   6.638   6.571  0.4496  0.8955  0.0376
  943MOL0     C27202   3.688   6.641   6.441  0.1135 -0.1524 -0.2343
  943MOL0     C27203   3.579   6.720   6.400  0.3340  0.0876  0.2666
  943MOL0     C27204   3.534   6.707   6.267  0.2317 -0.0528  0.6935
  943MOL0     C27205   3.590   6.606   6.185  0.0339 -0.2330  0.0632
  943MOL0     O27206   3.543   6.587   6.064  1.0545 -0.3686  0.3893
  943MOL0     C27207   3.566   6.697   5.974 -0.1863  0.1323  0.0871
  943MOL0     C27208   3.531   6.680   5.831  0.9367 -0.6997 -0.8844
  943MOL0     C27209   3.580   6.550   5.762 -0.4338 -1.0141 -0.5563
  943MOL0     C27210   3.497   6.519   5.635  0.5658  0.7991  0.8954
  943MOL0     C27211   3.527   6.379   5.572 -0.3206 -0.3802 -0.1859
  943MOL0     C27212   3.669   6.348   5.532  0.1715  0.0870 -0.0382
  943MOL0     C27213   3.688   6.207   5.489 -0.0551 -0.2115 -0.1868
  943MOL0     C27214   3.835   6.159   5.515 -0.3279  0.5311  0.1281
  943MOL0    Cl27215   3.829   5.982   5.473  0.2715  0.0235 -0.2400
  943MOL0     C27216   3.694   6.522   6.226 -0.8627  0.7622 -0.4938
  943MOL0     C27217   3.746   6.541   6.359  0.8394 -0.0605  0.0890
  943MOL0     O27218   3.534   6.640   6.683 -0.4765  0.0671  0.2702
  943MOL0     C27219   3.660   6.703   6.933  1.1399 -0.1128 -1.2161
  943MOL0     C27220   3.684   6.802   7.035 -0.1851 -0.0936 -0.2008
  943MOL0     N27221   4.362   6.920   7.528  0.0765 -0.3066  0.7351
  943MOL0     N27222   4.484   6.965   7.554  0.4593 -0.0767 -0.0344
  943MOL0     C27223   5.141   7.921   7.181  0.6110 -0.5833  0.5201
  943MOL0     C27224   5.267   7.932   7.246 -0.2452 -0.0165  1.3380
  943MOL0     C27225   5.622   7.942   7.496  0.4090 -0.4831  0.1814
  943MOL0     C27226   5.677   7.811   7.514  0.3017 -1.7018 -0.4250
  943MOL0     C27227   5.813   7.799   7.561  0.0263 -0.2427 -0.0591
  943MOL0     C27228   5.893   7.907   7.564  0.7175  0.5232 -0.0606
  943MOL0     O27229   6.023   7.890   7.588 -0.9396 -0.2665 -0.3632
  943MOL0     C27230   6.106   7.939   7.476  0.0348 -0.8778  0.3105
  943MOL0     C27231   6.250   7.911   7.507 -0.1493 -0.2304  0.0287
  943MOL0     C27232   6.296   7.952   7.649  0.4502  0.4578 -0.3293
  943MOL0     C27233   6.443   7.940   7.678  1.3138  0.0868  0.2478
  943MOL0     C27234   6.500   7.817   7.628  0.2206 -1.1632 -0.2910
  943MOL0     C27235   6.541   7.719   7.565  0.3641  0.1403  0.2282
  943MOL0     C27236   5.849   8.040   7.535 -0.4974  0.6205  0.1234
  943MOL0     C27237   5.710   8.055   7.505  0.3175  0.8473  0.4345
  943MOL0     H27238   5.207   7.738   7.516 -2.2823  0.9057  1.9814
  943MOL0     H27239   4.975   7.737   7.408  0.9119 -1.4412 -0.6241
  943MOL0     H27240   4.796   7.758   7.036 -0.4844 -1.9331  3.5525
  943MOL0     H27241   4.940   7.826   6.966 -2.6515  2.0889 -1.1328
  943MOL0     H27242   4.984   7.584   6.960  0.1500  1.0097 -0.7559
  943MOL0     H27243   5.069   7.649   7.094  0.9521 -0.1376 -2.2428
  943MOL0     H27244   4.890   7.548   7.244 -1.7987 -0.5819  0.0570
  943MOL0     H27245   4.773   7.541   7.114 -0.2910 -0.6211 -1.9094
  943MOL0     H27246   4.928   7.361   6.993 -0.9956 -0.9207  0.4576
  943MOL0     H27247   5.014   7.359   7.141  0.5427 -0.5393 -1.5117
  943MOL0     H27248   4.707   7.318   7.100 -0.6653 -2.3476  0.7835
  943MOL0     H27249   4.822   7.184   7.097  0.9146 -1.5544  4.0501
  943MOL0     H27250   4.886   7.213   7.341  0.4250  0.9441 -0.0256
  943MOL0     H27251   4.773   7.354   7.353  3.0699  0.1024  2.2391
  943MOL0     H27252   4.597   7.213   7.255  0.3698  0.2834 -1.0359
  943MOL0     H27253   4.693   7.073   7.259 -1.5638  1.1680 -3.1708
  943MOL0     H27254   4.627   7.235   7.507 -2.2847 -0.9424  0.7680
  943MOL0     H27255   4.710   7.082   7.523 -3.0256 -0.2910  2.2643
  943MOL0     H27256   4.367   7.172   7.321 -1.3528 -1.1185  0.8051
  943MOL0     H27257   4.107   6.967   7.498 -2.5055  0.8724 -0.6340
  943MOL0     H27258   4.122   7.139   7.467 -0.1712  0.8085 -1.9208
  943MOL0     H27259   4.163   6.914   7.252 -0.8816 -0.8399  0.2225
  943MOL0     H27260   4.186   7.086   7.232  1.4314  0.1263  0.8787
  943MOL0     H27261   3.947   7.123   7.312 -0.7226  0.7958 -1.2619
  943MOL0     H27262   3.923   6.943   7.319  0.5538 -0.6348 -0.9342
  943MOL0     H27263   4.006   6.969   7.073 -2.8618 -3.0560 -0.6331
  943MOL0     H27264   3.941   7.128   7.082  2.5476  0.2637  0.8743
  943MOL0     H27265   3.891   7.016   6.880 -0.8313  0.7655 -1.7344
  943MOL0     H27266   3.960   6.819   6.641  0.1761  0.1067 -1.6546
  943MOL0     H27267   3.802   6.846   6.577  1.9073 -2.4454 -1.1859
  943MOL0     H27268   3.891   6.985   6.665  0.5809 -0.3168  0.0081
  943MOL0     H27269   3.534   6.780   6.479 -0.1749 -1.8700  1.5257
  943MOL0     H27270   3.447   6.759   6.230 -2.5395 -4.8542 -0.4158
  943MOL0     H27271   3.504   6.777   6.017 -1.4160  0.3891 -2.0553
  943MOL0     H27272   3.674   6.713   5.978 -0.2159  0.1078  1.8579
  943MOL0     H27273   3.422   6.675   5.824  0.8689  1.8796 -3.5969
  943MOL0     H27274   3.561   6.775   5.786 -0.4250  1.9764  3.2295
  943MOL0     H27275   3.567   6.470   5.835 -0.4873  0.3237  0.9682
  943MOL0     H27276   3.686   6.559   5.739 -0.6424 -3.2688 -2.7466
  943MOL0     H27277   3.388   6.516   5.642  0.4888 -0.9263 -0.2641
  943MOL0     H27278   3.518   6.593   5.558  0.4977  0.9698  1.0399
  943MOL0     H27279   3.458   6.367   5.488 -1.8195 -3.8381  1.3326
  943MOL0     H27280   3.476   6.305   5.634 -2.0408 -1.0797 -2.3273
  943MOL0     H27281   3.700   6.414   5.451 -0.7940  0.6356  0.0261
  943MOL0     H27282   3.748   6.367   5.605 -0.7041 -0.4892  1.0974
  943MOL0     H27283   3.654   6.199   5.385 -2.7918  2.0398  0.4291
  943MOL0     H27284   3.631   6.146   5.560  1.2792  0.3778  1.4756
  943MOL0     H27285   3.883   6.162   5.613 -0.1517 -1.8022  0.1745
  943MOL0     H27286   3.894   6.208   5.437  2.0738  0.5464  1.8458
  943MOL0     H27287   3.745   6.455   6.159 -1.6056 -1.4184  1.0100
  943MOL0     H27288   3.829   6.476   6.383  0.2417 -1.7536 -2.1336
  943MOL0     H27289   3.597   6.615   6.940  1.6788 -0.3736  1.5679
  943MOL0     H27290   3.636   6.801   7.132 -1.0679  4.6403 -0.3415
  943MOL0     H27291   5.137   7.970   7.085  0.1140  1.0503  1.3493
  943MOL0     H27292   5.339   7.997   7.198 -2.4485  1.3726 -0.2231
  943MOL0     H27293   5.611   7.727   7.493 -0.7161 -1.2336  0.7544
  943MOL0     H27294   5.857   7.705   7.593 -0.7126 -0.8101 -0.6797
  943MOL0     H27295   6.076   7.894   7.382  0.7787 -0.7455  0.0015
  943MOL0     H27296   6.104   8.046   7.453  0.7390 -1.0886 -0.8082
  943MOL0     H27297   6.304   7.971   7.434 -0.2369  0.4347  0.5011
  943MOL0     H27298   6.285   7.808   7.494 -0.9767 -0.7591  1.7645
  943MOL0     H27299   6.235   7.893   7.717 -0.5801  2.2389  0.3472
  943MOL0     H27300   6.272   8.056   7.675  3.3336  1.1482 -0.0414
  943MOL0     H27301   6.453   7.946   7.787  1.3587 -0.8190  0.2952
  943MOL0     H27302   6.480   8.031   7.628 -2.0885  1.1693 -0.5644
  943MOL0     H27303   6.575   7.623   7.531  3.3761  1.1844 -0.0623
  943MOL0     H27304   5.919   8.122   7.548  1.8128 -1.2730  0.0812
  943MOL0     H27305   5.676   8.157   7.494  1.4023  1.1027 -0.8181
  944MOL0     O27306   3.050   8.611   6.323 -0.6094  0.8986 -0.1282
  944MOL0     C27307   3.006   8.632   6.431  0.3732  0.2221 -0.4898
  944MOL0     O27308   2.954   8.751   6.472 -0.0465  0.1652  0.4058
  944MOL0     C27309   2.972   8.861   6.393 -0.1385  0.1201  0.6383
  944MOL0     C27310   2.930   8.879   6.269 -0.5514  0.0270  0.4488
  944MOL0     C27311   2.951   8.998   6.195 -0.3348  1.0431 -0.4363
  944MOL0     C27312   3.036   9.094   6.253  0.6341  0.3271  0.5161
  944MOL0     O27313   3.065   9.210   6.185 -0.2129  0.7164 -0.8212
  944MOL0     C27314   3.199   9.246   6.164  0.1991 -0.3135 -0.3575
  944MOL0     C27315   3.196   9.362   6.064 -0.4002  0.0630  0.0764
  944MOL0     C27316   3.135   9.335   5.934  0.1637 -0.4919  0.3026
  944MOL0     C27317   3.139   9.460   5.850  0.4189  0.4606 -0.5816
  944MOL0     C27318   3.040   9.463   5.728 -0.6164  0.3619 -0.1996
  944MOL0     C27319   3.083   9.362   5.613 -0.3210 -0.6194 -0.8090
  944MOL0     C27320   2.977   9.330   5.507  0.5931  0.2990  0.4356
  944MOL0     C27321   3.040   9.252   5.391  0.0584  1.2549  0.5023
  944MOL0     N27322   2.957   9.256   5.268 -0.0991  0.0718 -0.5200
  944MOL0     C27323   2.921   9.369   5.196  0.4600 -1.0746  0.7831
  944MOL0     C27324   2.826   9.329   5.118  0.0097 -0.1466 -0.5688
  944MOL0     C27325   2.775   9.409   5.000  0.2526  0.0274 -1.2264
  944MOL0     C27326   2.855   9.363   4.877  0.0341  0.1126  0.7819
  944MOL0     C27327   2.797   9.393   4.747  0.2918 -0.1482  0.8215
  944MOL0     C27328   2.872   9.340   4.621 -1.0571 -0.6731 -0.0357
  944MOL0     O27329   2.863   9.425   4.518 -0.2619 -0.4366  0.0539
  944MOL0     C27330   2.922   9.391   4.402  0.2780 -0.3873 -0.3873
  944MOL0     C27331   2.992   9.275   4.386 -0.9148 -0.4210 -0.2132
  944MOL0     C27332   3.066   9.250   4.266  0.7682  0.7574 -0.1769
  944MOL0     C27333   3.170   9.138   4.273  0.8155 -0.1667  0.5525
  944MOL0     C27334   3.061   9.341   4.154  0.0970  0.3982 -0.0390
  944MOL0     C27335   3.144   9.318   4.030 -0.8363 -0.9941  0.3693
  944MOL0     O27336   3.192   9.430   3.975 -0.1732  0.1065 -0.2411
  944MOL0     C27337   3.276   9.422   3.869  0.4732  0.2782 -0.0307
  944MOL0     C27338   3.408   9.391   3.884 -0.4635 -0.2425 -0.0465
  944MOL0     C27339   3.491   9.371   3.774  0.8827  0.0866 -0.5109
  944MOL0     C27340   3.439   9.406   3.647 -0.0741  0.7702  0.1811
  944MOL0     O27341   3.520   9.399   3.539  0.2143 -0.1966  0.6885
  944MOL0     C27342   3.502   9.509   3.437  0.2601  0.3174  0.2040
  944MOL0     C27343   3.604   9.494   3.327  0.8075  0.0612  0.2918
  944MOL0     C27344   3.650   9.629   3.271 -0.5413 -0.1801  0.1961
  944MOL0     C27345   3.536   9.713   3.205  0.8703 -0.2522 -0.7811
  944MOL0     C27346   3.582   9.848   3.156  0.2778 -0.0847  0.0082
  944MOL0     C27347   3.456   9.915   3.084  0.1366 -0.2433  0.0186
  944MOL0     C27348   3.484  10.057   3.024  0.3089  0.0116 -0.0580
  944MOL0     C27349   3.611  10.064   2.942 -0.3592 -0.2860  0.3718
  944MOL0    Cl27350   3.605   9.960   2.805 -0.3290 -0.2640  0.0695
  944MOL0     C27351   3.304   9.422   3.634  0.6558 -0.5957 -0.1783
  944MOL0     C27352   3.222   9.419   3.745  0.3262 -0.5043  0.1465
  944MOL0     O27353   3.148   9.204   3.987 -0.7723 -1.3811  0.2069
  944MOL0     C27354   2.970   9.447   4.174 -0.3924  0.3773 -0.1080
  944MOL0     C27355   2.910   9.480   4.294 -1.2211  0.6369 -0.4392
  944MOL0     N27356   2.803   9.196   5.138  0.2375  1.1818 -0.3914
  944MOL0     N27357   2.867   9.155   5.234  0.4649 -1.5128 -0.1050
  944MOL0     C27358   3.059   9.085   6.390  0.8127 -1.3096  0.1035
  944MOL0     C27359   3.043   8.964   6.456 -0.4945 -0.2131 -0.1786
  944MOL0     C27360   2.990   8.519   6.525 -0.0611  0.3906 -0.0044
  944MOL0     C27361   2.902   8.526   6.636 -0.9380 -0.8552 -0.4012
  944MOL0     C27362   2.874   8.420   6.717 -0.3105  0.2491  0.3975
  944MOL0     C27363   2.939   8.295   6.699  0.2498 -0.3057 -0.1421
  944MOL0     O27364   2.892   8.190   6.774 -0.6762  0.0880  0.5394
  944MOL0     C27365   2.954   8.064   6.742  0.7530  0.0098 -0.6760
  944MOL0     C27366   2.890   7.991   6.623  0.3384  0.4290  0.4547
  944MOL0     C27367   2.751   7.928   6.655 -0.4803 -0.0240  0.4850
  944MOL0     C27368   2.741   7.817   6.759 -0.8793 -0.5673 -0.8708
  944MOL0     C27369   2.826   7.700   6.727  0.5373 -0.5372  0.0682
  944MOL0     C27370   2.895   7.606   6.688 -0.4819 -0.0764  0.8838
  944MOL0     C27371   3.025   8.286   6.586 -0.1417  0.7556 -1.6365
  944MOL0     C27372   3.051   8.393   6.501  0.9156  0.2197 -0.2741
  944MOL0     H27373   2.879   8.797   6.219  1.6334 -0.6109 -0.8301
  944MOL0     H27374   2.927   9.010   6.090 -2.6481 -3.0105 -0.5784
  944MOL0     H27375   3.243   9.283   6.257 -1.1677 -1.6114  0.8704
  944MOL0     H27376   3.252   9.159   6.125 -2.6636 -1.6762 -1.5473
  944MOL0     H27377   3.157   9.449   6.118  1.2740  1.3206 -0.6379
  944MOL0     H27378   3.296   9.386   6.024 -1.9023  1.8865 -2.9968
  944MOL0     H27379   3.168   9.243   5.884  1.9696 -0.7820  1.9220
  944MOL0     H27380   3.029   9.317   5.954 -0.5311  0.6651 -1.9753
  944MOL0     H27381   3.122   9.547   5.915 -0.4944 -0.9421  1.1548
  944MOL0     H27382   3.239   9.474   5.807 -0.7549  4.2754 -2.5994
  944MOL0     H27383   2.935   9.443   5.753 -1.2163  0.8227 -2.2236
  944MOL0     H27384   3.032   9.566   5.691  0.2253  0.8761  0.9974
  944MOL0     H27385   3.169   9.407   5.564  0.1064  1.3998  1.5844
  944MOL0     H27386   3.104   9.267   5.663 -4.0492 -2.2159 -1.9579
  944MOL0     H27387   2.892   9.280   5.554  0.8707 -1.3704 -0.7532
  944MOL0     H27388   2.933   9.418   5.460  0.4653  0.4798  0.8887
  944MOL0     H27389   3.062   9.147   5.412  2.2426  1.4006 -0.7808
  944MOL0     H27390   3.140   9.287   5.366  2.0193 -2.1906  2.6672
  944MOL0     H27391   2.973   9.464   5.200  0.9721 -1.3140  0.1401
  944MOL0     H27392   2.668   9.391   4.993  0.1072 -1.4326  2.6246
  944MOL0     H27393   2.786   9.515   5.025 -2.0528  0.5087 -2.0622
  944MOL0     H27394   2.861   9.254   4.886  1.7251 -0.1545 -2.1623
  944MOL0     H27395   2.957   9.397   4.893 -0.0808  0.0328  1.6945
  944MOL0     H27396   2.805   9.501   4.729  1.3141 -0.5588 -1.5587
  944MOL0     H27397   2.692   9.360   4.751  1.0540 -2.9766  0.0955
  944MOL0     H27398   2.831   9.244   4.588 -0.3556 -0.4209 -1.6938
  944MOL0     H27399   2.973   9.317   4.657 -0.9584 -2.3410 -1.2462
  944MOL0     H27400   2.996   9.196   4.460 -0.0700  2.3935  2.9733
  944MOL0     H27401   3.127   9.048   4.229 -0.6781  1.2183 -0.9607
  944MOL0     H27402   3.255   9.155   4.207  1.4039 -1.3969  0.9645
  944MOL0     H27403   3.208   9.119   4.374  2.0656 -2.1591 -0.2493
  944MOL0     H27404   3.438   9.365   3.984 -0.4842  0.0960  0.0495
  944MOL0     H27405   3.594   9.336   3.776  2.5372  4.4334  0.0133
  944MOL0     H27406   3.402   9.504   3.395 -0.2080  3.1178  0.8113
  944MOL0     H27407   3.513   9.610   3.477 -0.4730  1.6024 -2.5817
  944MOL0     H27408   3.689   9.437   3.366  0.1030 -0.4377  1.1147
  944MOL0     H27409   3.554   9.448   3.241 -5.5709  1.0187  2.9470
  944MOL0     H27410   3.718   9.620   3.186 -1.5471 -2.4044 -0.4411
  944MOL0     H27411   3.709   9.682   3.346 -0.0764 -0.0614 -0.2468
  944MOL0     H27412   3.486   9.664   3.120 -1.3052  2.4523 -1.1903
  944MOL0     H27413   3.455   9.734   3.275  0.1769  2.2358 -2.2145
  944MOL0     H27414   3.661   9.836   3.081 -3.4118 -0.1962 -4.2685
  944MOL0     H27415   3.615   9.901   3.246 -1.8002 -0.3351  0.9733
  944MOL0     H27416   3.425   9.847   3.004  0.1811 -1.9163  1.3696
  944MOL0     H27417   3.376   9.925   3.158 -0.3640 -1.6937 -0.3167
  944MOL0     H27418   3.497  10.127   3.107  1.5617 -1.6032  1.1734
  944MOL0     H27419   3.398  10.083   2.962  2.0591 -0.1735 -2.6961
  944MOL0     H27420   3.699  10.039   3.002  0.4715  0.8303 -0.3388
  944MOL0     H27421   3.639  10.164   2.909  0.9042 -0.5051  0.7268
  944MOL0     H27422   3.257   9.427   3.537 -0.7542  2.1150  0.5779
  944MOL0     H27423   3.114   9.416   3.747  0.3001  0.3301  1.5025
  944MOL0     H27424   2.957   9.519   4.094  1.7362  0.9928  0.0254
  944MOL0     H27425   2.850   9.565   4.323  0.2507  0.3651  4.1345
  944MOL0     H27426   3.120   9.161   6.437  0.9917 -0.5648 -1.2877
  944MOL0     H27427   3.093   8.944   6.550  1.3415 -4.0461 -1.7467
  944MOL0     H27428   2.847   8.615   6.664  0.0202 -0.1279 -0.7402
  944MOL0     H27429   2.807   8.428   6.802 -0.5870  1.8345  0.0520
  944MOL0     H27430   3.060   8.069   6.715  0.7048  0.8842 -0.7451
  944MOL0     H27431   2.949   7.998   6.829 -2.1532 -0.9520 -1.4548
  944MOL0     H27432   2.960   7.912   6.594 -1.2170 -0.3734 -1.3844
  944MOL0     H27433   2.871   8.062   6.542 -1.4951  0.3891  0.8076
  944MOL0     H27434   2.715   7.885   6.561  1.9665 -0.1304 -0.4746
  944MOL0     H27435   2.685   8.009   6.689 -0.2164  1.4537 -2.2075
  944MOL0     H27436   2.639   7.785   6.782 -0.5461  0.0736  1.8567
  944MOL0     H27437   2.782   7.851   6.854 -2.9889  0.0913 -0.1433
  944MOL0     H27438   2.934   7.510   6.662  0.3901  0.8921 -1.6523
  944MOL0     H27439   3.075   8.194   6.559  2.2731  1.8200 -1.0747
  944MOL0     H27440   3.127   8.367   6.428  0.4733  2.6065 -1.6993
  945MOL0     O27441   7.644   7.801   5.699 -0.1111  0.0263  0.0827
  945MOL0     C27442   7.552   7.818   5.618  1.2374  1.1373  0.2398
  945MOL0     O27443   7.474   7.714   5.561  0.2689 -0.2593  0.7812
  945MOL0     C27444   7.483   7.577   5.587  0.5845 -0.1737  0.4088
  945MOL0     C27445   7.354   7.514   5.604 -0.3819  0.2751 -0.5354
  945MOL0     C27446   7.341   7.380   5.644 -0.6674 -0.4519  0.3850
  945MOL0     C27447   7.459   7.314   5.678 -0.0895  0.2120  0.3557
  945MOL0     O27448   7.446   7.193   5.733  0.0903  0.5361  0.9615
  945MOL0     C27449   7.537   7.130   5.819  0.1619 -0.7177 -0.0621
  945MOL0     C27450   7.468   7.001   5.866  0.6326 -0.8570  0.8164
  945MOL0     C27451   7.547   6.920   5.970  0.2428 -0.4246 -0.2749
  945MOL0     C27452   7.497   6.783   6.018  0.1853 -1.7454 -0.0971
  945MOL0     C27453   7.350   6.787   6.072  0.0993  0.0348 -0.5810
  945MOL0     C27454   7.330   6.657   6.161  0.0632  0.0413 -0.4360
  945MOL0     C27455   7.207   6.658   6.252 -0.6015  0.5305  0.0064
  945MOL0     C27456   7.082   6.672   6.166  0.3833 -0.2790 -0.1544
  945MOL0     N27457   6.954   6.646   6.241  0.6716 -0.2976 -0.4452
  945MOL0     C27458   6.905   6.520   6.285 -0.2159  0.2923 -0.0325
  945MOL0     C27459   6.820   6.547   6.392 -0.7254  0.2710  1.4121
  945MOL0     C27460   6.722   6.456   6.475 -0.1744 -0.1565 -0.2817
  945MOL0     C27461   6.677   6.339   6.393 -0.0769 -0.4548 -0.4066
  945MOL0     C27462   6.592   6.251   6.483 -0.3183  0.1032  0.1734
  945MOL0     C27463   6.506   6.153   6.401  0.2126  0.7585 -0.8447
  945MOL0     O27464   6.413   6.093   6.510 -0.3517 -0.1699 -0.1129
  945MOL0     C27465   6.345   5.971   6.493 -0.4106 -0.0852 -0.3562
  945MOL0     C27466   6.315   5.880   6.594 -0.1017 -1.1767 -1.1424
  945MOL0     C27467   6.248   5.758   6.563 -0.0623 -0.1960 -0.9673
  945MOL0     C27468   6.205   5.660   6.663 -0.4711  0.3145 -1.4266
  945MOL0     C27469   6.223   5.722   6.429 -1.1364 -0.0606  0.0734
  945MOL0     C27470   6.172   5.588   6.375 -0.1159 -0.1234  0.5639
  945MOL0     O27471   6.236   5.531   6.270 -0.1067  0.5482  0.4977
  945MOL0     C27472   6.209   5.401   6.227 -1.3988 -0.1980  0.1799
  945MOL0     C27473   6.123   5.305   6.282  0.3823 -0.3912 -0.7329
  945MOL0     C27474   6.107   5.189   6.217  0.3180 -0.7242  0.7029
  945MOL0     C27475   6.180   5.155   6.098 -0.4672  1.0665  0.2796
  945MOL0     O27476   6.184   5.023   6.054  0.9395 -0.4865  1.0343
  945MOL0     C27477   6.271   4.970   5.950 -0.4242 -0.3481 -0.6735
  945MOL0     C27478   6.228   4.818   5.929  0.5526  1.0217 -0.8128
  945MOL0     C27479   6.091   4.787   5.869  0.7409  0.5886 -0.4763
  945MOL0     C27480   6.074   4.634   5.885 -0.5568  0.1855 -0.7724
  945MOL0     C27481   5.937   4.577   5.837  0.4983 -0.2694 -0.7354
  945MOL0     C27482   5.887   4.640   5.703  0.0496  0.7252  0.8254
  945MOL0     C27483   5.784   4.546   5.632  0.0649  1.4997  0.2813
  945MOL0     C27484   5.746   4.590   5.497  0.0487  0.7244 -0.0082
  945MOL0    Cl27485   5.614   4.481   5.444 -0.3775 -0.2201  0.1760
  945MOL0     C27486   6.275   5.247   6.051  0.8541  0.1319  0.0175
  945MOL0     C27487   6.280   5.374   6.112  0.6456  0.4652  0.4915
  945MOL0     O27488   6.074   5.543   6.434 -0.1006  0.5958 -0.1008
  945MOL0     C27489   6.272   5.805   6.330  0.2030 -0.2587  0.0898
  945MOL0     C27490   6.319   5.929   6.362 -0.0151 -0.5012 -0.9523
  945MOL0     N27491   6.827   6.679   6.410 -0.0979  0.0674  0.1391
  945MOL0     N27492   6.895   6.742   6.307  0.6925 -0.3639 -0.2259
  945MOL0     C27493   7.581   7.362   5.648 -1.3065  0.1053 -0.0864
  945MOL0     C27494   7.599   7.493   5.605  0.0040  0.5677 -0.5596
  945MOL0     C27495   7.498   7.946   5.578  0.0747  0.7932 -0.6488
  945MOL0     C27496   7.538   8.063   5.644 -0.5279 -0.3837  0.8109
  945MOL0     C27497   7.477   8.184   5.595 -0.1232 -0.7190 -0.2069
  945MOL0     C27498   7.380   8.194   5.501  0.7044  0.3981  0.9438
  945MOL0     O27499   7.361   8.311   5.430 -0.0892 -0.6005  0.2310
  945MOL0     C27500   7.278   8.398   5.506  0.1134  0.0069  0.1452
  945MOL0     C27501   7.204   8.501   5.409 -0.1623  0.3603 -0.0185
  945MOL0     C27502   7.306   8.624   5.390  0.2280  0.6015 -0.6203
  945MOL0     C27503   7.241   8.756   5.330  0.0562  0.5235 -0.2560
  945MOL0     C27504   7.156   8.814   5.431 -0.6510 -0.2886 -1.0493
  945MOL0     C27505   7.074   8.866   5.507  0.1021 -0.6157 -0.3986
  945MOL0     C27506   7.327   8.076   5.445 -0.5858  0.7516 -0.1183
  945MOL0     C27507   7.389   7.957   5.488  0.1326 -0.5473  0.4543
  945MOL0     H27508   7.264   7.572   5.584  1.2636  2.4064 -2.3987
  945MOL0     H27509   7.243   7.332   5.649 -1.7014  1.6008  0.8222
  945MOL0     H27510   7.623   7.111   5.755 -1.2506  1.6014 -2.8875
  945MOL0     H27511   7.546   7.179   5.916 -3.3886 -1.5981  0.8772
  945MOL0     H27512   7.368   7.029   5.903 -1.5027 -4.0734 -1.8983
  945MOL0     H27513   7.447   6.943   5.776 -0.5114  2.0670 -0.9587
  945MOL0     H27514   7.646   6.914   5.924 -0.3743  2.0649 -2.1735
  945MOL0     H27515   7.556   6.995   6.050  2.0302  1.3744 -2.0215
  945MOL0     H27516   7.494   6.717   5.931 -2.5197  0.7407 -2.0662
  945MOL0     H27517   7.563   6.731   6.089  0.3890 -2.7512 -0.9847
  945MOL0     H27518   7.320   6.879   6.123 -0.5233  0.5110 -1.7514
  945MOL0     H27519   7.296   6.773   5.977  0.0601  0.2185 -0.5857
  945MOL0     H27520   7.336   6.573   6.092  2.0842  0.8518 -1.3151
  945MOL0     H27521   7.416   6.628   6.222 -0.5080  0.8050  0.7903
  945MOL0     H27522   7.203   6.565   6.310  1.7881 -1.4618 -2.7620
  945MOL0     H27523   7.210   6.734   6.331 -1.2175  0.6216 -0.0560
  945MOL0     H27524   7.092   6.607   6.078 -1.3382 -2.8501  1.4050
  945MOL0     H27525   7.086   6.777   6.135 -3.3737 -0.0424 -0.3671
  945MOL0     H27526   6.933   6.427   6.237 -1.0567  1.5305 -3.1896
  945MOL0     H27527   6.781   6.414   6.557 -1.1447  1.0129  1.0744
  945MOL0     H27528   6.643   6.516   6.521  0.0525  0.1005 -0.2223
  945MOL0     H27529   6.762   6.285   6.348  1.2841 -0.6566  2.2095
  945MOL0     H27530   6.612   6.372   6.311  0.0031 -0.3488 -0.4273
  945MOL0     H27531   6.512   6.314   6.522 -1.8454 -0.6832 -1.5424
  945MOL0     H27532   6.647   6.197   6.561 -0.2927 -1.4238 -0.8491
  945MOL0     H27533   6.571   6.072   6.367 -0.6111  0.2017 -1.1430
  945MOL0     H27534   6.459   6.208   6.319  2.4901  2.0227 -1.3954
  945MOL0     H27535   6.333   5.934   6.686 -2.5142 -0.3074 -1.1161
  945MOL0     H27536   6.101   5.666   6.696 -1.1806  1.8601 -3.6522
  945MOL0     H27537   6.240   5.560   6.634  1.7553  0.4938  0.3869
  945MOL0     H27538   6.255   5.671   6.759  0.7539  0.9007 -2.1005
  945MOL0     H27539   6.056   5.322   6.366 -1.6519  0.8115 -2.4683
  945MOL0     H27540   6.044   5.115   6.265 -2.1153 -1.2950 -2.9145
  945MOL0     H27541   6.264   5.012   5.849 -1.1206 -1.5720 -1.1605
  945MOL0     H27542   6.369   4.983   5.997 -0.4903 -0.6739 -0.4380
  945MOL0     H27543   6.306   4.775   5.865  1.4221  3.7510 -1.7351
  945MOL0     H27544   6.233   4.772   6.028 -0.3144  1.7392 -0.4264
  945MOL0     H27545   6.078   4.836   5.772 -2.7139 -1.5045 -1.2291
  945MOL0     H27546   6.005   4.831   5.922 -1.5588 -0.4290 -3.1091
  945MOL0     H27547   6.154   4.575   5.840 -0.5377 -0.9588  0.6964
  945MOL0     H27548   6.077   4.603   5.990  1.0931 -1.9178 -1.3667
  945MOL0     H27549   5.858   4.584   5.913  1.8136 -2.5842  0.9679
  945MOL0     H27550   5.959   4.471   5.825 -1.1963 -0.8129  0.5382
  945MOL0     H27551   5.859   4.744   5.719  3.3130  1.7807  0.3199
  945MOL0     H27552   5.976   4.651   5.641 -0.6525 -1.9659 -0.8541
  945MOL0     H27553   5.701   4.539   5.703  1.1268  0.7148  1.4838
  945MOL0     H27554   5.828   4.447   5.618  0.8184  2.1799 -3.1661
  945MOL0     H27555   5.830   4.587   5.428  1.3444 -0.0302  1.5492
  945MOL0     H27556   5.706   4.692   5.491  2.9513  1.8869 -1.2096
  945MOL0     H27557   6.342   5.225   5.968 -0.4312  0.6992 -1.1959
  945MOL0     H27558   6.348   5.442   6.062 -0.3508 -1.5292 -4.0832
  945MOL0     H27559   6.268   5.780   6.224  0.0273  0.6613 -0.1260
  945MOL0     H27560   6.356   5.990   6.280  0.5181  1.9996  0.9876
  945MOL0     H27561   7.673   7.308   5.667 -1.7070 -0.6406 -0.2388
  945MOL0     H27562   7.701   7.527   5.592  0.0577 -0.0361 -1.8975
  945MOL0     H27563   7.611   8.061   5.724  0.3929  2.7372  0.1622
  945MOL0     H27564   7.511   8.275   5.643  1.1914  0.6631 -3.4851
  945MOL0     H27565   7.208   8.331   5.557 -0.4508 -0.9061 -1.7298
  945MOL0     H27566   7.332   8.456   5.581 -2.4307 -0.2869  2.3658
  945MOL0     H27567   7.106   8.523   5.452 -0.6974 -0.9545 -0.5187
  945MOL0     H27568   7.183   8.437   5.323  0.6662  1.0982 -0.8022
  945MOL0     H27569   7.395   8.593   5.335  0.5070 -4.3114  2.0511
  945MOL0     H27570   7.349   8.655   5.485  1.8724 -0.4303 -1.0088
  945MOL0     H27571   7.179   8.734   5.243 -2.6772  2.0807  1.1593
  945MOL0     H27572   7.316   8.830   5.302 -0.7733  1.6287  0.3326
  945MOL0     H27573   7.005   8.909   5.576 -1.3295 -2.5203 -0.5311
  945MOL0     H27574   7.253   8.074   5.365 -2.0851 -3.2532  1.1519
  945MOL0     H27575   7.347   7.867   5.444 -4.4345  1.0169  1.0458
  946MOL0     O27576   0.173   6.727   0.452 -0.6146  0.2488  0.0525
  946MOL0     C27577   0.150   6.716   0.572 -0.4597 -1.3526  0.0525
  946MOL0     O27578   0.210   6.639   0.667 -0.1323 -0.2045 -0.0667
  946MOL0     C27579   0.326   6.585   0.625 -0.2577  0.1620 -0.0211
  946MOL0     C27580   0.347   6.481   0.534 -0.0672 -0.3846 -0.7712
  946MOL0     C27581   0.472   6.433   0.492  0.5277 -0.1025 -0.1593
  946MOL0     C27582   0.587   6.494   0.547 -0.1111 -0.7401 -0.0577
  946MOL0     O27583   0.701   6.441   0.503 -0.0154 -0.1953 -0.5735
  946MOL0     C27584   0.789   6.383   0.597  0.1860 -1.2837 -1.0004
  946MOL0     C27585   0.749   6.250   0.641  1.1530  0.0074  0.1713
  946MOL0     C27586   0.848   6.198   0.745 -0.1901  0.6178 -0.4648
  946MOL0     C27587   0.864   6.048   0.725  0.1710 -0.6986  0.4413
  946MOL0     C27588   0.943   5.975   0.836  0.9365  0.1891  0.5178
  946MOL0     C27589   1.091   6.014   0.860  0.1150 -0.3093  0.2893
  946MOL0     C27590   1.179   5.968   0.750 -0.4616 -0.1923 -0.1652
  946MOL0     C27591   1.315   6.036   0.751  0.4813  0.3330  0.1811
  946MOL0     N27592   1.393   5.958   0.653 -0.6267 -0.2378 -0.3138
  946MOL0     C27593   1.453   6.014   0.545  0.4232 -0.3526  0.1440
  946MOL0     C27594   1.525   5.919   0.496 -0.7083  1.5169  0.5143
  946MOL0     C27595   1.607   5.934   0.377 -0.0348 -0.8258  0.6128
  946MOL0     C27596   1.550   5.860   0.250 -0.2517  0.1703 -0.2931
  946MOL0     C27597   1.561   5.706   0.250  1.0176 -0.3003 -0.9366
  946MOL0     C27598   1.704   5.672   0.199 -0.1629 -0.6232  0.3199
  946MOL0     O27599   1.702   5.533   0.189 -0.6642  0.1515  0.0626
  946MOL0     C27600   1.825   5.473   0.189 -0.7950  0.4560 -0.2872
  946MOL0     C27601   1.810   5.334   0.176  0.2797  0.2563 -0.1230
  946MOL0     C27602   1.922   5.250   0.170 -0.5658 -0.5132 -0.3049
  946MOL0     C27603   1.899   5.104   0.158 -0.3770 -0.2114 -0.1939
  946MOL0     C27604   2.060   5.296   0.190 -0.4287  0.6984 -0.5705
  946MOL0     C27605   2.185   5.214   0.183 -0.4883 -0.9729 -0.1019
  946MOL0     O27606   2.306   5.279   0.192  0.1291  0.6489 -0.4019
  946MOL0     C27607   2.416   5.198   0.182 -0.0475  1.8481  0.2899
  946MOL0     C27608   2.455   5.109   0.074  0.6244 -1.0985  0.7080
  946MOL0     C27609   2.575   5.043   0.069  0.0093  0.9370  0.4093
  946MOL0     C27610   2.662   5.039   0.182 -1.4755 -0.5573  0.4593
  946MOL0     O27611   2.775   4.957   0.188 -0.0274 -0.1776  0.5150
  946MOL0     C27612   2.791   4.877   0.072  0.4899 -0.1946  0.5385
  946MOL0     C27613   2.931   4.794   0.079  0.3973  0.3354  0.6602
  946MOL0     C27614   2.947   4.704  -0.043  0.2787  0.4940 -0.2992
  946MOL0     C27615   3.073   4.624  -0.032 -0.2171  0.5548 -0.7305
  946MOL0     C27616   3.106   4.545  -0.161 -0.8355 -0.4006  1.5845
  946MOL0     C27617   3.247   4.502  -0.148 -0.7436 -0.2879 -0.1170
  946MOL0     C27618   3.307   4.419  -0.269 -0.3563  0.3280  0.3907
  946MOL0     C27619   3.445   4.360  -0.223  0.1005  0.0753  0.2821
  946MOL0    Cl27620   3.584   4.479  -0.219  0.3784  0.1665 -0.5828
  946MOL0     C27621   2.626   5.120   0.285 -0.0740  0.6202 -0.7564
  946MOL0     C27622   2.511   5.200   0.281 -1.0397 -0.4057  0.8260
  946MOL0     O27623   2.175   5.093   0.175  1.4738 -0.1200 -0.5474
  946MOL0     C27624   2.072   5.443   0.205 -0.4349 -0.6619  0.2733
  946MOL0     C27625   1.957   5.529   0.207 -0.0040  0.7100  0.6197
  946MOL0     N27626   1.522   5.802   0.571 -0.3385 -1.7645 -0.4995
  946MOL0     N27627   1.436   5.825   0.659 -0.0090 -0.7505 -0.8462
  946MOL0     C27628   0.570   6.603   0.634 -1.0533  0.5305 -0.6812
  946MOL0     C27629   0.441   6.642   0.674 -0.0813 -0.3249  0.6268
  946MOL0     C27630   0.050   6.812   0.621 -0.2454 -0.8685  0.5948
  946MOL0     C27631  -0.026   6.882   0.519  0.0858  0.7807 -0.2306
  946MOL0     C27632  -0.127   6.961   0.561 -0.4712 -0.3240 -0.9190
  946MOL0     C27633  -0.169   6.980   0.692  0.0845 -0.0627 -0.1729
  946MOL0     O27634  -0.276   7.063   0.720 -0.3472 -0.0071  0.8841
  946MOL0     C27635  -0.377   7.016   0.813 -0.1063 -0.7917  0.1505
  946MOL0     C27636  -0.513   7.077   0.776  0.4158  0.1814 -0.1883
  946MOL0     C27637  -0.602   7.049   0.899 -0.3966 -0.1999 -0.1884
  946MOL0     C27638  -0.673   6.907   0.886  0.2508 -0.5488 -0.6313
  946MOL0     C27639  -0.792   6.911   0.807  0.2223  0.2378  0.2182
  946MOL0     C27640  -0.883   6.910   0.728 -0.0854 -0.8477 -0.0373
  946MOL0     C27641  -0.092   6.910   0.793  0.4963 -1.7140 -0.8589
  946MOL0     C27642   0.011   6.828   0.759 -0.5744 -0.3177 -0.3926
  946MOL0     H27643   0.262   6.440   0.479  0.2294  0.2552 -1.7240
  946MOL0     H27644   0.478   6.347   0.427 -0.5017 -0.6472  0.4429
  946MOL0     H27645   0.882   6.370   0.541 -0.8263 -1.6760 -2.6417
  946MOL0     H27646   0.793   6.450   0.683 -3.6449 -0.7542 -1.0629
  946MOL0     H27647   0.648   6.267   0.680  0.8988  0.7890 -0.7952
  946MOL0     H27648   0.750   6.183   0.555  1.8720  0.8011 -0.4621
  946MOL0     H27649   0.942   6.249   0.724  0.4518  1.1188  3.0483
  946MOL0     H27650   0.814   6.217   0.847  1.4730 -1.9310  0.6579
  946MOL0     H27651   0.760   6.016   0.735 -0.2209  0.5489  0.5439
  946MOL0     H27652   0.905   6.032   0.625 -2.3726 -2.2062 -0.4316
  946MOL0     H27653   0.890   5.997   0.930  0.8465 -1.2727  0.8295
  946MOL0     H27654   0.939   5.867   0.821 -2.5828  0.1963  0.6504
  946MOL0     H27655   1.090   6.123   0.877  1.5903 -0.5665  2.5801
  946MOL0     H27656   1.134   5.971   0.951  0.9474  0.1659  0.1327
  946MOL0     H27657   1.190   5.859   0.758 -1.3853 -0.1516  4.3223
  946MOL0     H27658   1.132   6.007   0.659 -1.4377  0.1226  0.4608
  946MOL0     H27659   1.354   6.036   0.853  0.5209  0.0326  0.1654
  946MOL0     H27660   1.308   6.137   0.709 -1.5402 -0.1650 -0.8465
  946MOL0     H27661   1.440   6.119   0.520  1.1314 -0.5782 -1.3358
  946MOL0     H27662   1.615   6.042   0.357  4.8367 -1.2310 -0.8252
  946MOL0     H27663   1.712   5.912   0.400  0.0760  0.2248  1.2251
  946MOL0     H27664   1.598   5.893   0.157  0.6356  1.3371  0.5550
  946MOL0     H27665   1.442   5.870   0.239 -0.0887 -0.6208 -4.5762
  946MOL0     H27666   1.483   5.660   0.188 -0.5272 -2.0180  2.0444
  946MOL0     H27667   1.558   5.678   0.356  0.6732  2.7359 -0.0529
  946MOL0     H27668   1.777   5.717   0.267 -1.6700  0.7744  1.0856
  946MOL0     H27669   1.730   5.715   0.102  1.3426 -0.7060  0.6700
  946MOL0     H27670   1.714   5.286   0.159  0.8314 -0.6655 -0.7601
  946MOL0     H27671   1.951   5.048   0.236  0.3998  1.9871  0.9378
  946MOL0     H27672   1.794   5.076   0.171 -0.3793 -0.4804 -0.7620
  946MOL0     H27673   1.933   5.079   0.056 -0.0081  0.5598 -0.2663
  946MOL0     H27674   2.389   5.101  -0.012  0.5952  2.5389  0.2191
  946MOL0     H27675   2.592   4.975  -0.014  0.8121  0.6710  0.7774
  946MOL0     H27676   2.709   4.805   0.066  1.9262 -1.9256  0.8972
  946MOL0     H27677   2.791   4.940  -0.018  5.7864  2.9676  2.3109
  946MOL0     H27678   3.019   4.859   0.083  1.8024 -1.4936  0.6850
  946MOL0     H27679   2.929   4.729   0.167 -1.3118  3.2932  2.9769
  946MOL0     H27680   2.947   4.767  -0.132 -2.1168  0.7023 -0.2225
  946MOL0     H27681   2.861   4.637  -0.057  0.3292  0.3774 -0.0617
  946MOL0     H27682   3.153   4.695  -0.011  0.7786 -0.8958  0.6293
  946MOL0     H27683   3.075   4.551   0.050 -0.5274  0.6610 -0.6273
  946MOL0     H27684   3.086   4.616  -0.241  0.4389 -0.2101  1.4170
  946MOL0     H27685   3.036   4.461  -0.170 -0.5996 -0.4191 -0.9394
  946MOL0     H27686   3.303   4.593  -0.126 -3.0081  0.8314  1.3596
  946MOL0     H27687   3.243   4.438  -0.059 -1.1150 -1.6097 -1.0418
  946MOL0     H27688   3.329   4.482  -0.356  1.2666  1.0679  1.2879
  946MOL0     H27689   3.250   4.330  -0.295  2.2696 -0.7701 -2.1499
  946MOL0     H27690   3.466   4.281  -0.295  0.3312 -1.2904  1.7991
  946MOL0     H27691   3.429   4.312  -0.126  0.1908 -0.2799  0.1216
  946MOL0     H27692   2.689   5.129   0.374 -0.2809 -1.4991 -0.3514
  946MOL0     H27693   2.481   5.268   0.359 -0.3030  3.5159 -1.9754
  946MOL0     H27694   2.162   5.502   0.219 -2.4104  2.8240 -0.5207
  946MOL0     H27695   1.980   5.635   0.207  2.2759  0.2982  2.9185
  946MOL0     H27696   0.653   6.658   0.678 -2.9616  0.8184  3.0310
  946MOL0     H27697   0.417   6.725   0.740  1.0535  1.4695 -1.0995
  946MOL0     H27698  -0.012   6.862   0.413  0.7168  2.6484 -0.5406
  946MOL0     H27699  -0.182   7.008   0.480 -1.4366  0.1974  0.0136
  946MOL0     H27700  -0.377   6.907   0.808  1.2971 -0.7848 -0.3509
  946MOL0     H27701  -0.342   7.052   0.910  0.7584 -1.2910  0.0331
  946MOL0     H27702  -0.552   7.033   0.684 -0.3207  1.9282 -0.7555
  946MOL0     H27703  -0.499   7.183   0.753  1.0686  0.3166  0.7659
  946MOL0     H27704  -0.684   7.121   0.902 -0.3376 -0.1526  0.3436
  946MOL0     H27705  -0.536   7.042   0.986  1.7764 -2.0432 -1.8560
  946MOL0     H27706  -0.710   6.872   0.983 -0.1984  0.3880 -0.4503
  946MOL0     H27707  -0.604   6.833   0.846  1.0334 -0.4238  0.4447
  946MOL0     H27708  -0.956   6.920   0.650  0.5563  0.5972 -0.4741
  946MOL0     H27709  -0.118   6.935   0.895  0.3231 -0.0702 -1.2810
  946MOL0     H27710   0.065   6.769   0.832  1.0462  0.2205 -1.0956
  947MOL0     O27711   8.685   1.320   0.849 -0.3450  0.0936 -0.4324
  947MOL0     C27712   8.581   1.329   0.775 -0.4079 -0.0380  0.2436
  947MOL0     O27713   8.551   1.234   0.685 -0.3290  1.0079 -0.2702
  947MOL0     C27714   8.605   1.106   0.692  0.7497 -0.2339 -0.3204
  947MOL0     C27715   8.729   1.058   0.749  0.1339  0.8555  0.5253
  947MOL0     C27716   8.768   0.920   0.746  0.0637 -0.1469 -0.1020
  947MOL0     C27717   8.679   0.834   0.689  0.5357  0.3672  0.0581
  947MOL0     O27718   8.716   0.703   0.702  0.9033 -0.1725 -0.9285
  947MOL0     C27719   8.609   0.612   0.694 -0.3748 -0.4495 -1.1225
  947MOL0     C27720   8.671   0.484   0.756 -0.5714  1.1597  0.1506
  947MOL0     C27721   8.749   0.400   0.652  1.0555 -1.1897 -0.3890
  947MOL0     C27722   8.780   0.261   0.696  0.3102  0.3275 -0.1873
  947MOL0     C27723   8.823   0.173   0.578 -0.0633 -0.2530 -0.8539
  947MOL0     C27724   8.724   0.147   0.467 -0.9132  0.1084 -0.4448
  947MOL0     C27725   8.746   0.001   0.422  0.7244  0.1894  0.7320
  947MOL0     C27726   8.625  -0.049   0.334  0.0027  0.0154  0.6612
  947MOL0     N27727   8.625  -0.194   0.301 -0.0636  0.4737  0.6113
  947MOL0     C27728   8.714  -0.271   0.228 -0.0366 -0.4102  0.7715
  947MOL0     C27729   8.696  -0.404   0.260 -1.4781 -0.7162 -0.8485
  947MOL0     C27730   8.792  -0.526   0.232 -0.1535  0.0765  0.5392
  947MOL0     C27731   8.742  -0.593   0.100 -0.4621 -0.0835  0.2730
  947MOL0     C27732   8.833  -0.718   0.073  0.9787  0.7837 -0.3598
  947MOL0     C27733   8.797  -0.796  -0.059  0.2525  0.6226 -0.2764
  947MOL0     O27734   8.900  -0.891  -0.090 -0.1450 -0.2374 -0.3867
  947MOL0     C27735   8.873  -1.018  -0.061  0.1627 -0.2222 -0.0652
  947MOL0     C27736   8.942  -1.105  -0.138  1.0648  0.2338 -0.8018
  947MOL0     C27737   8.934  -1.252  -0.113  0.7701 -0.6717  1.0705
  947MOL0     C27738   9.010  -1.325  -0.212 -0.1410 -0.2720  0.0984
  947MOL0     C27739   8.853  -1.309  -0.006 -0.6189  0.2912 -0.3046
  947MOL0     C27740   8.838  -1.454   0.022 -0.1878  0.1859  0.7439
  947MOL0     O27741   8.897  -1.535  -0.065 -0.0631 -0.1001 -0.6804
  947MOL0     C27742   8.873  -1.666  -0.059 -0.2638 -0.3456 -0.2075
  947MOL0     C27743   8.746  -1.712  -0.057  0.2280 -0.4079  0.0416
  947MOL0     C27744   8.717  -1.846  -0.064 -1.0830  0.1783 -0.1739
  947MOL0     C27745   8.823  -1.937  -0.063 -0.9241 -0.7566  0.2165
  947MOL0     O27746   8.800  -2.069  -0.041  0.3581  0.0618  0.4691
  947MOL0     C27747   8.880  -2.163  -0.099  0.0575  0.3952  0.4460
  947MOL0     C27748   8.816  -2.306  -0.097 -0.2865  0.5417  0.4163
  947MOL0     C27749   8.763  -2.354  -0.233 -0.2106  0.7322  1.4297
  947MOL0     C27750   8.699  -2.483  -0.226  0.3851  0.5643  0.6005
  947MOL0     C27751   8.662  -2.520  -0.373  0.0739  0.5798 -0.3237
  947MOL0     C27752   8.628  -2.667  -0.391 -0.1373 -0.6417  0.3083
  947MOL0     C27753   8.484  -2.704  -0.335 -0.9236  0.1108  0.1862
  947MOL0     C27754   8.437  -2.848  -0.372 -0.3899  0.8886 -0.5210
  947MOL0    Cl27755   8.555  -2.983  -0.332  0.3249 -0.2875  0.2643
  947MOL0     C27756   8.959  -1.898  -0.077  0.3090  1.1948 -0.1084
  947MOL0     C27757   8.976  -1.757  -0.074 -0.4539 -0.3429 -0.0266
  947MOL0     O27758   8.769  -1.487   0.119 -0.0193  0.5287 -0.0400
  947MOL0     C27759   8.802  -1.213   0.081  0.9638  0.7024 -0.1636
  947MOL0     C27760   8.802  -1.074   0.049 -0.7042 -1.0257 -0.1359
  947MOL0     N27761   8.580  -0.403   0.335 -0.0568 -0.4289 -0.2929
  947MOL0     N27762   8.534  -0.281   0.348  0.0900  0.0185  0.5516
  947MOL0     C27763   8.566   0.876   0.619  0.3619 -0.0516  1.6517
  947MOL0     C27764   8.527   1.007   0.626 -0.1404  0.1200 -0.1201
  947MOL0     C27765   8.510   1.456   0.772 -0.6244 -0.4959  0.3945
  947MOL0     C27766   8.378   1.464   0.722 -0.1250 -0.1845 -0.5631
  947MOL0     C27767   8.298   1.579   0.737  0.6062 -1.0432  0.0697
  947MOL0     C27768   8.352   1.699   0.777 -0.5868  0.4508 -0.0418
  947MOL0     O27769   8.281   1.816   0.783 -0.1338  0.3835  0.4131
  947MOL0     C27770   8.153   1.821   0.854  0.1265  0.0101  0.3556
  947MOL0     C27771   8.028   1.847   0.762  0.1405 -0.2902  0.5118
  947MOL0     C27772   7.903   1.847   0.851 -0.0189 -1.5069  0.4089
  947MOL0     C27773   7.802   1.963   0.817  0.4365  0.4767 -1.1999
  947MOL0     C27774   7.665   1.916   0.862  0.3437 -0.8021 -1.0614
  947MOL0     C27775   7.556   1.882   0.918  0.2280  0.1564 -0.4362
  947MOL0     C27776   8.489   1.695   0.814 -0.0861 -0.1919  0.2973
  947MOL0     C27777   8.568   1.578   0.822  0.3978  0.6740  0.2463
  947MOL0     H27778   8.799   1.119   0.805  2.8611 -1.8118  0.2692
  947MOL0     H27779   8.851   0.880   0.803 -0.5707 -1.5016 -0.0805
  947MOL0     H27780   8.525   0.638   0.759  1.7294  2.5001  0.7168
  947MOL0     H27781   8.582   0.606   0.588  2.3353  1.5911 -2.0530
  947MOL0     H27782   8.731   0.503   0.845 -0.6902 -3.0484  1.3499
  947MOL0     H27783   8.590   0.423   0.797  2.5423 -3.0538  0.8052
  947MOL0     H27784   8.677   0.398   0.569 -2.4487  2.1913  2.1698
  947MOL0     H27785   8.840   0.457   0.628 -0.0646  0.5041 -0.7819
  947MOL0     H27786   8.862   0.251   0.769 -1.7197  0.2550  2.2247
  947MOL0     H27787   8.689   0.215   0.736  0.3636  0.6465  0.3055
  947MOL0     H27788   8.920   0.212   0.547  0.5410 -0.1113  1.0732
  947MOL0     H27789   8.848   0.074   0.616  0.6041 -0.0985 -0.8811
  947MOL0     H27790   8.623   0.149   0.509 -0.9402 -1.0029 -0.4178
  947MOL0     H27791   8.737   0.214   0.382 -1.2827  3.0725  1.7041
  947MOL0     H27792   8.840  -0.027   0.373 -0.2162  1.7068 -2.1807
  947MOL0     H27793   8.740  -0.059   0.513 -0.9867  1.9857  1.8747
  947MOL0     H27794   8.606   0.009   0.243 -2.3500 -3.0205 -0.9730
  947MOL0     H27795   8.538  -0.032   0.399 -0.7677  1.3904 -0.6720
  947MOL0     H27796   8.790  -0.234   0.159 -0.4141  0.4867  0.8211
  947MOL0     H27797   8.895  -0.491   0.220 -0.3330  0.7865  1.0147
  947MOL0     H27798   8.778  -0.592   0.318  1.1394 -0.7018  0.1816
  947MOL0     H27799   8.751  -0.528   0.013 -3.0095  0.0797  0.0607
  947MOL0     H27800   8.635  -0.613   0.102 -0.7812  0.5750 -3.4722
  947MOL0     H27801   8.826  -0.782   0.161  1.6804 -1.4231 -1.8252
  947MOL0     H27802   8.941  -0.702   0.064  1.0877 -0.8694 -3.5085
  947MOL0     H27803   8.789  -0.730  -0.146 -1.2533  0.5606 -0.2243
  947MOL0     H27804   8.699  -0.843  -0.043 -0.0951  1.4208 -0.0140
  947MOL0     H27805   9.012  -1.063  -0.210 -0.4014  0.0820 -2.3784
  947MOL0     H27806   9.102  -1.369  -0.171 -0.0855  2.3158  3.0769
  947MOL0     H27807   8.947  -1.406  -0.249  0.4039 -0.2735 -0.8647
  947MOL0     H27808   9.031  -1.267  -0.302  1.8859 -0.1090  0.6280
  947MOL0     H27809   8.648  -1.665  -0.060  0.5631  0.4293  1.3050
  947MOL0     H27810   8.623  -1.901  -0.065 -1.1169  0.2359 -0.1217
  947MOL0     H27811   8.894  -2.127  -0.202 -1.2671  2.5432  0.9518
  947MOL0     H27812   8.973  -2.166  -0.043 -0.6052  3.2989  1.8670
  947MOL0     H27813   8.880  -2.381  -0.050  1.6201  0.5189 -2.0319
  947MOL0     H27814   8.733  -2.310  -0.026 -1.0799 -1.6707 -0.5413
  947MOL0     H27815   8.849  -2.359  -0.300  0.4734 -0.9557  2.3612
  947MOL0     H27816   8.699  -2.275  -0.272  0.7132 -0.2059 -2.3672
  947MOL0     H27817   8.773  -2.558  -0.197  0.4354  0.4310  0.1396
  947MOL0     H27818   8.620  -2.492  -0.151  0.2713 -4.7300  0.1830
  947MOL0     H27819   8.749  -2.490  -0.433 -0.2753  2.1864 -0.0668
  947MOL0     H27820   8.582  -2.454  -0.407 -1.4833 -0.7435  0.6805
  947MOL0     H27821   8.638  -2.699  -0.495  0.2504  1.1699 -0.2511
  947MOL0     H27822   8.713  -2.719  -0.347  2.1268 -0.0517 -3.0272
  947MOL0     H27823   8.413  -2.627  -0.365 -2.1196 -0.2215  2.0160
  947MOL0     H27824   8.498  -2.707  -0.227  0.7682  0.1151 -0.0057
  947MOL0     H27825   8.422  -2.860  -0.480 -0.7841  1.0200 -0.4830
  947MOL0     H27826   8.346  -2.867  -0.315 -1.6441  1.7577 -2.1562
  947MOL0     H27827   9.042  -1.967  -0.062  0.2710  1.2457  0.3539
  947MOL0     H27828   9.075  -1.712  -0.061 -0.9062  0.2725  1.5129
  947MOL0     H27829   8.747  -1.260   0.162  1.4370 -1.1274 -0.8546
  947MOL0     H27830   8.736  -1.015   0.112 -1.6700 -1.0099 -1.1440
  947MOL0     H27831   8.504   0.804   0.566  1.6610 -0.2859  0.3838
  947MOL0     H27832   8.439   1.036   0.570  0.8066 -1.3482 -2.5670
  947MOL0     H27833   8.322   1.373   0.702 -1.7375 -0.2872  3.5281
  947MOL0     H27834   8.196   1.581   0.701 -0.4315  2.8479  2.6001
  947MOL0     H27835   8.133   1.731   0.912 -0.9963  0.8195  1.2600
  947MOL0     H27836   8.156   1.905   0.924 -0.6866 -0.5967  1.1400
  947MOL0     H27837   8.033   1.764   0.692  4.1829 -0.8106  1.1774
  947MOL0     H27838   8.037   1.941   0.707 -0.2263 -1.1750 -1.1204
  947MOL0     H27839   7.931   1.861   0.955  0.3070  1.9132 -0.0231
  947MOL0     H27840   7.851   1.751   0.837 -1.8760 -0.4062 -0.7879
  947MOL0     H27841   7.794   1.979   0.709  1.7144 -2.6318 -1.8763
  947MOL0     H27842   7.827   2.049   0.880 -1.2731 -1.6474  2.7492
  947MOL0     H27843   7.462   1.865   0.968  0.4542  3.9911  1.6676
  947MOL0     H27844   8.534   1.785   0.855  1.8160 -0.4693 -1.0099
  947MOL0     H27845   8.666   1.591   0.866  0.5845 -0.9591  0.3736
  948MOL0     O27846   9.187   2.969   5.888  0.2320 -0.2774  1.2477
  948MOL0     C27847   9.131   3.001   5.783  1.1051 -0.3731  0.8604
  948MOL0     O27848   9.186   3.085   5.686 -0.4326  0.4277  0.4619
  948MOL0     C27849   9.300   3.155   5.701 -0.3909  0.1555  0.9377
  948MOL0     C27850   9.344   3.207   5.584  0.3272 -0.1166  0.0087
  948MOL0     C27851   9.450   3.305   5.582 -0.0511  0.1721  0.8333
  948MOL0     C27852   9.512   3.355   5.696 -0.9275 -0.1703 -0.4449
  948MOL0     O27853   9.616   3.441   5.665 -0.0916  0.2558 -0.2442
  948MOL0     C27854   9.681   3.514   5.775  0.6965 -0.4628 -0.0175
  948MOL0     C27855   9.805   3.451   5.856  0.0373 -0.2378 -0.1313
  948MOL0     C27856   9.939   3.472   5.774 -0.3186  0.5401 -0.4553
  948MOL0     C27857  10.002   3.608   5.820  0.6860 -0.3151  0.2500
  948MOL0     C27858  10.128   3.655   5.744  0.2227 -0.0814 -0.4874
  948MOL0     C27859  10.170   3.779   5.813  0.2415  0.4521 -0.5096
  948MOL0     C27860  10.308   3.829   5.758  0.5639 -0.2247  0.6660
  948MOL0     C27861  10.361   3.972   5.790 -0.0054  0.2978  0.6989
  948MOL0     N27862  10.378   3.962   5.936  0.5202 -0.5288 -0.0106
  948MOL0     C27863  10.286   4.000   6.032 -0.6286 -0.1163 -0.1424
  948MOL0     C27864  10.349   3.981   6.153  0.4434 -0.6237  0.6795
  948MOL0     C27865  10.270   3.984   6.282  0.4247 -0.0761 -0.0544
  948MOL0     C27866  10.281   3.854   6.365 -0.4580 -0.1010  0.0927
  948MOL0     C27867  10.233   3.729   6.291 -0.2348 -0.2603 -0.4546
  948MOL0     C27868  10.081   3.740   6.276  0.0699  0.0940  0.9426
  948MOL0     O27869  10.027   3.611   6.240 -0.1251  0.0520 -0.5974
  948MOL0     C27870   9.891   3.598   6.219  0.0577  0.3840 -0.2894
  948MOL0     C27871   9.848   3.467   6.233  0.6505 -0.7025 -0.4758
  948MOL0     C27872   9.710   3.430   6.224 -0.6474 -0.0053 -1.0087
  948MOL0     C27873   9.682   3.285   6.230 -0.4328 -0.1815 -0.2177
  948MOL0     C27874   9.616   3.524   6.188  0.0492  0.6043 -0.9281
  948MOL0     C27875   9.473   3.498   6.181 -0.3920 -0.9503 -1.1723
  948MOL0     O27876   9.406   3.581   6.095  0.6303 -0.0465 -0.5224
  948MOL0     C27877   9.277   3.546   6.058  0.3634 -0.4926 -0.3028
  948MOL0     C27878   9.181   3.649   6.075 -0.7853  0.1627  0.6141
  948MOL0     C27879   9.049   3.619   6.042  0.1198 -0.2047  0.5905
  948MOL0     C27880   9.000   3.492   6.009 -0.6457 -0.2890 -1.3986
  948MOL0     O27881   8.874   3.476   5.959 -0.1528 -0.4602  0.3854
  948MOL0     C27882   8.823   3.338   5.952 -0.3463 -0.2333  0.1446
  948MOL0     C27883   8.691   3.342   5.885  0.2157  0.2166 -0.8373
  948MOL0     C27884   8.672   3.210   5.804  0.1382 -0.0243  0.5155
  948MOL0     C27885   8.541   3.212   5.727 -0.0804  0.3760 -0.4732
  948MOL0     C27886   8.516   3.064   5.685 -1.7712  0.3887  0.3750
  948MOL0     C27887   8.383   3.037   5.608  0.4228 -0.8259  0.0008
  948MOL0     C27888   8.265   3.033   5.711  0.3332  0.1039 -0.7671
  948MOL0     C27889   8.286   2.947   5.839 -0.5250 -0.1289 -0.4963
  948MOL0    Cl27890   8.292   2.781   5.801 -0.1316 -0.3310  0.0130
  948MOL0     C27891   9.097   3.393   6.018 -0.1293 -0.1063  0.1573
  948MOL0     C27892   9.227   3.423   6.041 -0.3733  0.6692 -0.0910
  948MOL0     O27893   9.426   3.422   6.256  0.8969  0.4608  0.3115
  948MOL0     C27894   9.661   3.657   6.168  0.1395 -0.3894  0.1887
  948MOL0     C27895   9.799   3.694   6.182  0.4320 -0.7222 -0.5170
  948MOL0     N27896  10.481   3.949   6.127  0.2460 -0.1930  0.3223
  948MOL0     N27897  10.496   3.935   5.997  0.6111  1.6813  0.2411
  948MOL0     C27898   9.466   3.300   5.818  0.0224 -0.0016 -0.1738
  948MOL0     C27899   9.364   3.197   5.818  0.1845 -0.5869  0.9727
  948MOL0     C27900   8.999   2.934   5.758  0.5470 -0.2596  0.2682
  948MOL0     C27901   8.927   2.950   5.638  0.2315  0.0362 -1.3265
  948MOL0     C27902   8.804   2.890   5.617 -0.0697  0.1648 -0.2705
  948MOL0     C27903   8.753   2.812   5.725 -0.3120 -0.0211  0.4119
  948MOL0     O27904   8.639   2.739   5.716 -0.1091  0.0439 -0.0177
  948MOL0     C27905   8.658   2.614   5.663 -0.3347 -0.2663  0.6472
  948MOL0     C27906   8.581   2.521   5.767  0.4698 -0.1504 -0.5853
  948MOL0     C27907   8.628   2.372   5.728 -0.1643 -0.2882  0.1963
  948MOL0     C27908   8.591   2.253   5.813  0.1181  0.7095 -1.1762
  948MOL0     C27909   8.657   2.248   5.946  0.7888 -0.0764 -0.6119
  948MOL0     C27910   8.698   2.261   6.067 -0.1974 -0.5109  0.5476
  948MOL0     C27911   8.817   2.796   5.844  0.8572  0.9335 -0.6463
  948MOL0     C27912   8.937   2.862   5.859  0.2042 -0.2363 -0.4694
  948MOL0     H27913   9.303   3.184   5.486 -2.3431  1.9198  0.5370
  948MOL0     H27914   9.482   3.328   5.481 -2.6195 -0.2362 -0.1730
  948MOL0     H27915   9.719   3.608   5.736  3.5677 -1.8269 -0.7987
  948MOL0     H27916   9.598   3.533   5.843  2.1529 -0.1495  1.7662
  948MOL0     H27917   9.829   3.498   5.952  0.8902 -4.8297  2.2059
  948MOL0     H27918   9.785   3.347   5.881 -2.9127 -0.2759 -2.1596
  948MOL0     H27919  10.015   3.393   5.779 -0.0622  0.8293  0.2462
  948MOL0     H27920   9.907   3.465   5.670  1.0381  0.6015 -0.8924
  948MOL0     H27921   9.920   3.680   5.811  0.1878 -1.1541 -2.8134
  948MOL0     H27922  10.042   3.596   5.921  1.6560  1.3874  0.1067
  948MOL0     H27923  10.194   3.568   5.753  0.5920  0.3527  1.3461
  948MOL0     H27924  10.098   3.667   5.640 -1.7802 -2.2231 -0.2254
  948MOL0     H27925  10.095   3.858   5.801 -2.3391 -1.4452  1.8932
  948MOL0     H27926  10.177   3.769   5.922 -0.0455  0.4601 -0.4902
  948MOL0     H27927  10.390   3.756   5.760 -0.7663 -2.3826 -4.8457
  948MOL0     H27928  10.292   3.833   5.649 -0.4512 -0.2713  0.8014
  948MOL0     H27929  10.297   4.054   5.757  0.5473 -0.2017 -1.7615
  948MOL0     H27930  10.455   3.982   5.737 -1.6490  1.1049 -2.2958
  948MOL0     H27931  10.186   4.040   6.020 -1.0430 -0.1239  2.6790
  948MOL0     H27932  10.315   4.073   6.327  0.9065  1.0630 -2.6462
  948MOL0     H27933  10.165   4.009   6.266  0.6827  1.4745  0.4816
  948MOL0     H27934  10.236   3.853   6.465  2.4467  2.0717  1.5799
  948MOL0     H27935  10.389   3.852   6.380  0.2874 -4.5062 -3.6690
  948MOL0     H27936  10.260   3.636   6.341  0.1035  1.4759  2.8948
  948MOL0     H27937  10.267   3.725   6.188  1.5530  0.1928  0.0894
  948MOL0     H27938  10.060   3.818   6.201 -0.1056  0.0170  0.9118
  948MOL0     H27939  10.040   3.777   6.370 -2.9989 -3.2563  1.1156
  948MOL0     H27940   9.926   3.400   6.269 -1.0123 -2.4454  0.0466
  948MOL0     H27941   9.769   3.220   6.233 -0.8503 -0.8816 -1.9937
  948MOL0     H27942   9.620   3.265   6.318 -0.6914  4.2585  0.8692
  948MOL0     H27943   9.631   3.255   6.138 -1.3168  1.2695 -0.2338
  948MOL0     H27944   9.213   3.748   6.104  2.0813 -1.2283  2.8010
  948MOL0     H27945   8.971   3.695   6.049  0.2337  0.1112 -1.1202
  948MOL0     H27946   8.896   3.289   5.888  1.7995  2.6954  0.1231
  948MOL0     H27947   8.818   3.289   6.050  4.3088  3.3311  2.6245
  948MOL0     H27948   8.623   3.360   5.969  1.2941  2.2894 -0.3378
  948MOL0     H27949   8.678   3.423   5.814 -2.8442 -0.2850 -1.0064
  948MOL0     H27950   8.691   3.127   5.873  0.8300  0.6974  1.2176
  948MOL0     H27951   8.751   3.214   5.728 -2.3085  0.9142 -2.1562
  948MOL0     H27952   8.459   3.234   5.796  0.9637 -1.8433  1.6343
  948MOL0     H27953   8.538   3.281   5.643  2.2196 -0.4887 -1.3588
  948MOL0     H27954   8.525   2.996   5.770  1.4523 -1.5907 -1.3240
  948MOL0     H27955   8.595   3.051   5.610 -0.8388  1.2405  1.1949
  948MOL0     H27956   8.361   3.107   5.526 -0.4804  0.7884  1.5417
  948MOL0     H27957   8.380   2.936   5.567  1.0483 -0.0879 -1.9564
  948MOL0     H27958   8.175   2.990   5.664  0.3254 -1.7301  0.7985
  948MOL0     H27959   8.245   3.135   5.745 -1.5440 -0.4536 -0.0645
  948MOL0     H27960   8.199   2.963   5.904 -2.5815 -0.2143 -3.0993
  948MOL0     H27961   8.371   2.990   5.894 -1.0528  2.5150 -1.5694
  948MOL0     H27962   9.069   3.289   6.007 -2.3785  0.5829 -1.5749
  948MOL0     H27963   9.288   3.334   6.049 -0.7975  0.5368  3.8565
  948MOL0     H27964   9.598   3.742   6.140 -0.7200 -0.7266  1.0349
  948MOL0     H27965   9.822   3.800   6.176  3.9957 -1.1432  2.2600
  948MOL0     H27966   9.514   3.315   5.915 -1.2534 -1.3419  0.7061
  948MOL0     H27967   9.346   3.152   5.916  0.2324 -0.5173  1.0141
  948MOL0     H27968   8.977   3.019   5.571 -1.3714  3.2508  0.5054
  948MOL0     H27969   8.754   2.894   5.521  0.1189  2.1504 -0.3173
  948MOL0     H27970   8.611   2.594   5.566  1.9478 -2.9205 -0.0470
  948MOL0     H27971   8.761   2.577   5.651 -0.6122 -1.7187  2.3278
  948MOL0     H27972   8.474   2.529   5.747 -0.1443 -1.0484  2.0032
  948MOL0     H27973   8.603   2.545   5.871 -1.8753 -2.7428  0.6396
  948MOL0     H27974   8.737   2.379   5.715  0.1399 -2.0197  1.4214
  948MOL0     H27975   8.582   2.344   5.633 -3.0661 -0.5307  1.5826
  948MOL0     H27976   8.625   2.160   5.767 -0.5800  0.9119 -2.1314
  948MOL0     H27977   8.482   2.249   5.827  0.3145 -0.3715  0.3844
  948MOL0     H27978   8.737   2.268   6.167 -1.8626  0.2903  1.1932
  948MOL0     H27979   8.780   2.738   5.928  1.8721  2.7267  1.1403
  948MOL0     H27980   8.980   2.849   5.958 -3.2519  0.0804  1.2224
  949MOL0     O27981   0.500   1.227  10.594  0.2151  0.5328 -0.4674
  949MOL0     C27982   0.500   1.258  10.480 -0.0019 -0.3646  0.4614
  949MOL0     O27983   0.397   1.257  10.400  0.1742 -0.3094 -0.3191
  949MOL0     C27984   0.275   1.198  10.426  0.0844 -0.6567  0.1354
  949MOL0     C27985   0.251   1.101  10.528  0.2044 -0.3857  1.5952
  949MOL0     C27986   0.130   1.033  10.531 -0.2001 -0.1913  0.1702
  949MOL0     C27987   0.052   1.039  10.415 -0.6726 -0.2980  0.6653
  949MOL0     O27988  -0.050   0.957  10.402  0.2984 -0.1672  0.0877
  949MOL0     C27989  -0.179   1.007  10.423  0.2498 -0.2125  0.3135
  949MOL0     C27990  -0.292   0.902  10.424  0.1219 -0.6309  0.2199
  949MOL0     C27991  -0.418   0.976  10.456  0.5746 -0.0921  0.7926
  949MOL0     C27992  -0.532   0.877  10.478 -0.4727  0.6807  0.2377
  949MOL0     C27993  -0.657   0.921  10.560  0.2234 -0.1089  0.7696
  949MOL0     C27994  -0.771   0.819  10.562  0.1881  0.0997 -0.5658
  949MOL0     C27995  -0.877   0.859  10.666 -0.7274 -1.0003  0.3742
  949MOL0     C27996  -0.973   0.743  10.688 -1.1766 -0.1167 -0.2044
  949MOL0     N27997  -1.102   0.781  10.749 -0.3081 -0.1850 -0.0034
  949MOL0     C27998  -1.159   0.740  10.870  0.3080 -0.6080 -0.5093
  949MOL0     C27999  -1.267   0.818  10.890  0.5570  0.2359  0.4288
  949MOL0     C28000  -1.375   0.823  11.000 -0.3943 -1.0495 -0.4537
  949MOL0     C28001  -1.370   0.959  11.063  0.3128 -0.9790  0.7458
  949MOL0     C28002  -1.229   0.994  11.132 -0.0916  0.2637 -0.8007
  949MOL0     C28003  -1.170   0.896  11.232 -0.3141 -0.8009 -0.6105
  949MOL0     O28004  -1.247   0.894  11.352 -0.0334 -0.4874 -0.7390
  949MOL0     C28005  -1.229   0.799  11.448  0.0956 -0.7649  0.4200
  949MOL0     C28006  -1.285   0.811  11.581  0.3995 -0.1645  0.8231
  949MOL0     C28007  -1.245   0.720  11.678 -0.1436 -0.2268 -0.7412
  949MOL0     C28008  -1.300   0.729  11.823 -0.5428  0.6696  0.2848
  949MOL0     C28009  -1.157   0.615  11.650 -0.5509  0.9349 -0.7500
  949MOL0     C28010  -1.116   0.503  11.747 -0.0638 -0.5772 -0.1975
  949MOL0     O28011  -0.983   0.493  11.762  0.4218 -0.1037  0.1700
  949MOL0     C28012  -0.933   0.408  11.851  0.2182 -0.9403 -1.2145
  949MOL0     C28013  -0.976   0.413  11.991  0.7474 -0.3076  0.6616
  949MOL0     C28014  -0.931   0.308  12.076  0.0950  0.7608 -0.3164
  949MOL0     C28015  -0.838   0.210  12.029  0.2274  0.4035 -0.3325
  949MOL0     O28016  -0.793   0.107  12.110 -0.1825  0.6564  0.0013
  949MOL0     C28017  -0.687   0.144  12.203  0.7646  0.1569 -0.0032
  949MOL0     C28018  -0.538   0.112  12.167  0.4968  1.2132 -0.1880
  949MOL0     C28019  -0.527  -0.039  12.136 -0.7889  0.5982 -0.0712
  949MOL0     C28020  -0.381  -0.077  12.148  0.9316  0.0546  0.0053
  949MOL0     C28021  -0.343  -0.200  12.067 -0.2662  0.1148  0.1389
  949MOL0     C28022  -0.441  -0.320  12.075 -0.2956  0.9254 -1.1836
  949MOL0     C28023  -0.390  -0.463  12.045 -0.4011  0.7113 -0.1425
  949MOL0     C28024  -0.254  -0.479  11.976  1.0636 -0.8245 -0.5630
  949MOL0    Cl28025  -0.204  -0.648  11.949 -0.0446  0.3484 -0.4651
  949MOL0     C28026  -0.785   0.223  11.904  1.0458  0.6876 -0.5662
  949MOL0     C28027  -0.831   0.323  11.813  0.0551  0.0130  0.4245
  949MOL0     O28028  -1.207   0.440  11.806  0.2403 -0.3060 -0.1168
  949MOL0     C28029  -1.092   0.605  11.523  0.3811  0.4702  0.0013
  949MOL0     C28030  -1.137   0.694  11.424 -0.1560 -0.1748  0.0896
  949MOL0     N28031  -1.283   0.903  10.782  0.1596 -0.7420 -0.2055
  949MOL0     N28032  -1.182   0.888  10.709 -0.9728  0.3172  0.2793
  949MOL0     C28033   0.059   1.156  10.333 -0.0332  1.0315  0.0016
  949MOL0     C28034   0.180   1.231  10.334 -0.1529  0.3996  0.1456
  949MOL0     C28035   0.631   1.290  10.426  0.0093  0.0745 -0.7863
  949MOL0     C28036   0.642   1.334  10.300  0.4071 -1.4502  1.2555
  949MOL0     C28037   0.767   1.357  10.233 -0.5688  0.6980 -0.0460
  949MOL0     C28038   0.882   1.341  10.313  0.2238 -0.2393  0.1239
  949MOL0     O28039   1.011   1.364  10.271 -0.0510  0.1840 -0.0196
  949MOL0     C28040   1.020   1.428  10.142 -0.5124 -0.2782  0.8827
  949MOL0     C28041   1.169   1.448  10.124  0.2368 -0.0270  0.8490
  949MOL0     C28042   1.211   1.477   9.977  0.7954  0.8385  0.9765
  949MOL0     C28043   1.331   1.568   9.958  1.8552 -0.3371 -0.0917
  949MOL0     C28044   1.291   1.702  10.010  0.4807 -0.3172 -0.2602
  949MOL0     C28045   1.269   1.813  10.053  0.5905  0.2513 -0.2638
  949MOL0     C28046   0.867   1.311  10.450 -0.2008  0.2829  0.6078
  949MOL0     C28047   0.751   1.280  10.510  1.4570 -0.5836 -0.2909
  949MOL0     H28048   0.330   1.084  10.602 -0.5795 -4.1031  1.7443
  949MOL0     H28049   0.107   0.960  10.608  0.0078 -0.7133 -0.2602
  949MOL0     H28050  -0.185   1.060  10.518 -2.3804  3.0977 -1.4868
  949MOL0     H28051  -0.196   1.081  10.345  2.3816 -1.1732 -1.1495
  949MOL0     H28052  -0.298   0.852  10.327 -2.9999 -0.5814  0.2813
  949MOL0     H28053  -0.264   0.820  10.491  0.0762 -0.8889 -0.0725
  949MOL0     H28054  -0.410   1.022  10.555  0.0440  0.2325  0.6866
  949MOL0     H28055  -0.446   1.043  10.375 -0.8574 -2.9028 -1.2110
  949MOL0     H28056  -0.556   0.847  10.376 -0.9746  1.5480  0.0905
  949MOL0     H28057  -0.487   0.787  10.521 -2.4699  0.4217  1.9228
  949MOL0     H28058  -0.623   0.969  10.652  4.4094  3.3054 -2.1187
  949MOL0     H28059  -0.701   1.002  10.500  2.2496 -1.6694 -3.2326
  949MOL0     H28060  -0.818   0.804  10.464 -1.4041 -0.7766  0.2883
  949MOL0     H28061  -0.715   0.728  10.587  0.1060  0.5161  1.2180
  949MOL0     H28062  -0.838   0.885  10.765 -1.5862 -1.7179  0.9295
  949MOL0     H28063  -0.922   0.946  10.617  1.7886  0.7381  0.9944
  949MOL0     H28064  -0.928   0.663  10.747 -1.6625 -0.5495 -0.4137
  949MOL0     H28065  -1.003   0.701  10.592 -1.2126 -3.3807  1.1120
  949MOL0     H28066  -1.127   0.662  10.938 -1.3571 -1.7665 -0.9714
  949MOL0     H28067  -1.476   0.821  10.960  0.1332 -1.4512 -1.8107
  949MOL0     H28068  -1.359   0.754  11.084  1.1905 -0.4533 -0.2266
  949MOL0     H28069  -1.439   0.970  11.147  2.3401  5.5058  2.1229
  949MOL0     H28070  -1.399   1.040  10.995 -1.6340 -3.3536 -1.4562
  949MOL0     H28071  -1.236   1.090  11.184  2.8997 -0.8075  1.8847
  949MOL0     H28072  -1.147   1.006  11.061  1.5442 -2.0564  0.5622
  949MOL0     H28073  -1.066   0.920  11.257 -1.0687  0.6108  1.5264
  949MOL0     H28074  -1.189   0.800  11.185 -2.4370  0.1064 -1.7408
  949MOL0     H28075  -1.366   0.881  11.599 -1.4250 -2.2604  1.1618
  949MOL0     H28076  -1.384   0.660  11.817  1.0673 -1.4035  0.4544
  949MOL0     H28077  -1.228   0.676  11.886  1.3420 -0.4498 -2.5796
  949MOL0     H28078  -1.337   0.826  11.858 -0.2080  1.8309 -2.3564
  949MOL0     H28079  -1.049   0.488  12.020 -2.2834 -1.2485 -3.5707
  949MOL0     H28080  -0.981   0.314  12.172 -0.3314 -1.0127 -0.3930
  949MOL0     H28081  -0.689   0.253  12.214  0.0356 -0.1358  4.0708
  949MOL0     H28082  -0.703   0.094  12.299 -0.4849 -0.1232 -0.3330
  949MOL0     H28083  -0.502   0.173  12.083  0.4975 -0.8034 -1.7249
  949MOL0     H28084  -0.475   0.143  12.252 -0.0865 -2.2438  1.6867
  949MOL0     H28085  -0.561  -0.071  12.038  3.9767  0.7751 -2.0874
  949MOL0     H28086  -0.581  -0.078  12.223  3.5000 -1.2027  2.0964
  949MOL0     H28087  -0.319   0.002  12.104 -0.3344  1.9956  1.5230
  949MOL0     H28088  -0.349  -0.092  12.251  3.1545  1.4964 -0.3993
  949MOL0     H28089  -0.244  -0.230  12.104  1.0049 -0.0952 -3.0860
  949MOL0     H28090  -0.331  -0.155  11.968 -1.4086  0.4725  0.1489
  949MOL0     H28091  -0.491  -0.333  12.172 -0.0008 -2.7483 -1.3838
  949MOL0     H28092  -0.518  -0.310  11.999 -1.7844 -0.2558  0.0935
  949MOL0     H28093  -0.456  -0.526  11.984 -0.0913  0.0726  0.1688
  949MOL0     H28094  -0.400  -0.525  12.134 -0.8235 -1.8417 -1.8447
  949MOL0     H28095  -0.170  -0.437  12.033  0.8707  0.8044 -1.4285
  949MOL0     H28096  -0.266  -0.430  11.879 -1.6418  0.1993  0.1932
  949MOL0     H28097  -0.723   0.142  11.868 -1.7035 -0.4463 -3.2790
  949MOL0     H28098  -0.804   0.329  11.708 -4.2270  1.1423 -0.8052
  949MOL0     H28099  -1.005   0.547  11.497  1.0780  1.5954 -0.2406
  949MOL0     H28100  -1.073   0.691  11.337  1.0239  0.3205  0.9169
  949MOL0     H28101  -0.005   1.176  10.248  2.0702  2.7466 -1.2967
  949MOL0     H28102   0.199   1.317  10.271 -2.9283  1.6138  0.8101
  949MOL0     H28103   0.545   1.360  10.257  0.3562 -0.1556  2.0920
  949MOL0     H28104   0.766   1.383  10.128 -3.1946  0.5717 -0.1239
  949MOL0     H28105   0.983   1.364  10.061 -2.3502  1.0447  0.6279
  949MOL0     H28106   0.968   1.522  10.128  3.6731  2.0473 -1.0123
  949MOL0     H28107   1.221   1.356  10.150 -2.0492 -1.4796  0.5009
  949MOL0     H28108   1.206   1.529  10.189  0.2803  0.1767  0.5704
  949MOL0     H28109   1.122   1.520   9.928 -0.0910  0.7336  2.4494
  949MOL0     H28110   1.234   1.382   9.929  1.4466  1.0547  0.8512
  949MOL0     H28111   1.350   1.584   9.851 -3.0329  1.3083 -0.9751
  949MOL0     H28112   1.427   1.531   9.996  3.1921 -1.0381 -3.6760
  949MOL0     H28113   1.239   1.915  10.072 -2.3537 -0.6219  0.2896
  949MOL0     H28114   0.952   1.309  10.518  0.6108  3.7145 -0.0850
  949MOL0     H28115   0.736   1.248  10.613 -0.3342  4.5401  1.3539
  950MOL0     O28116   6.451   2.739   2.228 -0.2866  0.1401  0.1679
  950MOL0     C28117   6.416   2.851   2.274 -0.5119  0.7963 -0.2189
  950MOL0     O28118   6.491   2.926   2.360  0.2947 -0.1407 -0.2784
  950MOL0     C28119   6.613   2.883   2.390  0.6488  0.9039  0.3529
  950MOL0     C28120   6.705   2.829   2.295 -0.4910  0.7139  0.3471
  950MOL0     C28121   6.836   2.779   2.328  0.0322  0.4308 -0.7804
  950MOL0     C28122   6.869   2.785   2.469 -0.5055 -0.7053  0.3247
  950MOL0     O28123   6.996   2.754   2.517  0.1979 -0.0641 -0.1655
  950MOL0     C28124   7.017   2.606   2.523 -0.1930  0.2533 -0.4121
  950MOL0     C28125   7.000   2.557   2.674  0.2162 -0.0595 -0.2473
  950MOL0     C28126   7.007   2.406   2.697  0.4593  0.1368  0.3929
  950MOL0     C28127   7.159   2.358   2.704  0.9100  1.6156 -0.0454
  950MOL0     C28128   7.248   2.431   2.799 -0.7443 -0.1207  0.3471
  950MOL0     C28129   7.372   2.352   2.816 -0.0102 -0.1289 -0.3889
  950MOL0     C28130   7.446   2.393   2.945 -0.6321 -0.0144  0.5891
  950MOL0     C28131   7.457   2.540   2.969 -0.2694  0.5726  0.3924
  950MOL0     N28132   7.529   2.578   3.090 -0.5673  0.0431  0.6107
  950MOL0     C28133   7.470   2.594   3.214 -0.1481 -0.3590  0.2586
  950MOL0     C28134   7.578   2.638   3.285  0.4301  0.3483 -0.4176
  950MOL0     C28135   7.567   2.692   3.420  0.2160  0.7046 -0.5854
  950MOL0     C28136   7.672   2.626   3.511 -0.2464 -0.0071 -0.2542
  950MOL0     C28137   7.614   2.510   3.583 -1.0377  0.5623 -0.1480
  950MOL0     C28138   7.711   2.419   3.661 -0.3336  0.2450  0.6456
  950MOL0     O28139   7.629   2.344   3.754 -0.2206 -0.1304 -0.0620
  950MOL0     C28140   7.675   2.228   3.815  0.7109 -0.6800  0.4753
  950MOL0     C28141   7.593   2.153   3.896  0.0983  1.1761 -0.3199
  950MOL0     C28142   7.637   2.034   3.960  0.7439 -0.3155 -0.6974
  950MOL0     C28143   7.534   1.953   4.043  0.4560 -0.6460 -0.6947
  950MOL0     C28144   7.769   1.989   3.936 -0.2341  0.1411  0.0839
  950MOL0     C28145   7.828   1.863   3.993 -0.2785  0.0367  0.1210
  950MOL0     O28146   7.947   1.825   3.934 -0.7470 -0.7162  0.4037
  950MOL0     C28147   7.988   1.690   3.936  1.0999 -0.1014  0.2685
  950MOL0     C28148   8.120   1.675   3.880  0.4853  0.5828  0.0522
  950MOL0     C28149   8.188   1.557   3.889  1.4641 -0.1473 -0.3518
  950MOL0     C28150   8.123   1.448   3.942  0.2699  0.0050 -0.2864
  950MOL0     O28151   8.205   1.338   3.948  0.6936  0.0089  0.0710
  950MOL0     C28152   8.161   1.202   3.956  0.9629 -0.5094 -0.4044
  950MOL0     C28153   8.278   1.108   3.955  0.1240 -1.3554  0.8711
  950MOL0     C28154   8.242   0.966   3.989 -0.8375  0.6387  0.6441
  950MOL0     C28155   8.369   0.878   4.000 -0.3733 -0.2512 -0.1534
  950MOL0     C28156   8.347   0.723   4.017  0.4950  0.0978  0.6908
  950MOL0     C28157   8.270   0.689   4.139  0.3624 -0.2549  0.2751
  950MOL0     C28158   8.334   0.742   4.262 -0.3537  0.4349  0.4756
  950MOL0     C28159   8.268   0.701   4.395 -0.3353 -0.2237  0.3852
  950MOL0    Cl28160   8.292   0.530   4.420 -0.0027 -0.4899 -0.0822
  950MOL0     C28161   7.986   1.457   3.990 -0.6553  0.0806 -0.1730
  950MOL0     C28162   7.922   1.578   3.984  1.0343 -0.8018 -0.3173
  950MOL0     O28163   7.769   1.803   4.083  0.0034 -0.8122  0.2105
  950MOL0     C28164   7.848   2.070   3.854 -0.1358  1.0215  0.4161
  950MOL0     C28165   7.807   2.184   3.790 -0.7917 -0.0326  0.4845
  950MOL0     N28166   7.690   2.652   3.210 -0.2767 -0.6192 -0.9320
  950MOL0     N28167   7.661   2.609   3.087  0.3508 -0.3073 -0.4491
  950MOL0     C28168   6.783   2.852   2.559  0.3573  0.2752 -0.3480
  950MOL0     C28169   6.657   2.905   2.516 -0.2243  0.8535  0.5260
  950MOL0     C28170   6.275   2.897   2.241  0.1757  0.6241  0.4009
  950MOL0     C28171   6.218   3.018   2.283 -0.1535  0.3332 -0.9301
  950MOL0     C28172   6.083   3.039   2.250  0.1123  0.6218  0.0966
  950MOL0     C28173   6.007   2.954   2.171  0.2143 -0.1972  1.1890
  950MOL0     O28174   5.878   2.964   2.135  0.3515 -0.8104 -0.1534
  950MOL0     C28175   5.789   3.033   2.230  0.1967  0.3353 -1.3015
  950MOL0     C28176   5.703   3.144   2.158 -0.4551 -0.3825  0.5040
  950MOL0     C28177   5.624   3.220   2.256  0.3550 -0.0645 -0.2378
  950MOL0     C28178   5.536   3.121   2.335 -0.3558  0.7242  0.5127
  950MOL0     C28179   5.416   3.199   2.388 -0.1435  0.4141  0.4233
  950MOL0     C28180   5.328   3.288   2.398  0.2208 -0.0209  0.8250
  950MOL0     C28181   6.074   2.847   2.117 -0.2435  0.0798 -0.6168
  950MOL0     C28182   6.211   2.816   2.146  0.5260 -0.0798 -1.0478
  950MOL0     H28183   6.686   2.820   2.189  0.6900  0.2590  0.1537
  950MOL0     H28184   6.916   2.744   2.263  1.8819 -2.2010  2.6157
  950MOL0     H28185   6.950   2.545   2.462  2.7549 -2.9935 -0.6903
  950MOL0     H28186   7.120   2.591   2.490  0.3613 -3.8317  2.3933
  950MOL0     H28187   7.065   2.610   2.744 -1.3180  2.2990 -0.4767
  950MOL0     H28188   6.899   2.597   2.692  0.8093  0.7944  1.3214
  950MOL0     H28189   6.957   2.399   2.794 -2.0459  2.5858 -0.5712
  950MOL0     H28190   6.937   2.358   2.628 -2.1583  1.3636  2.0408
  950MOL0     H28191   7.150   2.251   2.728 -0.8199  1.5256 -1.0178
  950MOL0     H28192   7.204   2.375   2.606  1.3548 -2.3881 -0.7333
  950MOL0     H28193   7.279   2.531   2.764  5.3057 -0.9935  2.0615
  950MOL0     H28194   7.210   2.449   2.900  1.4488 -0.4564  1.2905
  950MOL0     H28195   7.348   2.246   2.822 -1.7237  0.2677  0.1787
  950MOL0     H28196   7.435   2.357   2.726  2.4103 -1.9289  1.0942
  950MOL0     H28197   7.399   2.356   3.037  0.1462  3.9317  2.7881
  950MOL0     H28198   7.549   2.357   2.946 -0.9410 -0.9168  1.1294
  950MOL0     H28199   7.354   2.577   2.960 -1.5792 -3.0699 -1.6830
  950MOL0     H28200   7.515   2.580   2.886  2.0643 -3.3863 -0.1523
  950MOL0     H28201   7.369   2.572   3.245 -0.9466 -1.4645 -2.8173
  950MOL0     H28202   7.588   2.798   3.404 -1.8032  1.2128 -0.1373
  950MOL0     H28203   7.463   2.693   3.456 -0.8119 -1.1696 -3.1438
  950MOL0     H28204   7.704   2.703   3.582  1.0591 -1.3196  0.6461
  950MOL0     H28205   7.757   2.594   3.450 -0.8206  0.2761 -1.2189
  950MOL0     H28206   7.557   2.446   3.515 -0.8731 -1.9233  1.9164
  950MOL0     H28207   7.537   2.544   3.652 -0.8986  1.0069 -0.2068
  950MOL0     H28208   7.782   2.484   3.713 -1.4068  0.6142  1.7164
  950MOL0     H28209   7.765   2.365   3.583 -0.9932  2.0991 -1.1602
  950MOL0     H28210   7.494   2.184   3.927 -0.2643 -0.6788  0.5226
  950MOL0     H28211   7.523   1.844   4.035 -0.1255 -0.7801  1.2775
  950MOL0     H28212   7.571   1.973   4.144  0.8113  1.9529 -1.2828
  950MOL0     H28213   7.435   1.998   4.030  0.7943  0.0510 -0.9122
  950MOL0     H28214   8.149   1.772   3.840  1.5421 -0.1845 -1.1217
  950MOL0     H28215   8.290   1.551   3.853  1.1930  1.3212 -1.4586
  950MOL0     H28216   8.111   1.193   4.053  0.1902  0.1376 -0.7282
  950MOL0     H28217   8.094   1.175   3.874  2.3456 -2.2792 -1.0147
  950MOL0     H28218   8.322   1.111   3.855 -0.1517 -2.8294  0.6722
  950MOL0     H28219   8.345   1.149   4.031 -0.2264 -0.8080  0.8886
  950MOL0     H28220   8.193   0.922   3.902  2.3772 -5.0733  1.2482
  950MOL0     H28221   8.173   0.956   4.073 -0.6800 -0.0448  0.6914
  950MOL0     H28222   8.426   0.890   3.907  0.4641  3.3959  0.6939
  950MOL0     H28223   8.426   0.923   4.081  0.7302  4.0693 -2.9986
  950MOL0     H28224   8.445   0.675   4.019  0.3514 -0.2023  2.6528
  950MOL0     H28225   8.288   0.688   3.931 -0.0734  1.6171  0.4101
  950MOL0     H28226   8.172   0.739   4.141 -0.2100 -1.2487 -1.3366
  950MOL0     H28227   8.255   0.581   4.147 -0.6705 -0.0657  1.2262
  950MOL0     H28228   8.333   0.851   4.262 -0.4076  0.4902  2.8013
  950MOL0     H28229   8.439   0.712   4.263 -0.5432 -0.3068  2.1246
  950MOL0     H28230   8.162   0.724   4.382 -0.6239 -0.2634  2.3483
  950MOL0     H28231   8.316   0.750   4.481 -0.0164 -3.1785  2.0070
  950MOL0     H28232   7.930   1.371   4.026  0.3532 -0.1200  0.9658
  950MOL0     H28233   7.820   1.585   4.018  1.4505  2.3593  0.6381
  950MOL0     H28234   7.949   2.042   3.826 -0.4537 -0.1196  0.3669
  950MOL0     H28235   7.867   2.231   3.713 -0.7574  2.1507  1.7759
  950MOL0     H28236   6.823   2.880   2.656 -1.0392  1.9053 -0.1962
  950MOL0     H28237   6.600   2.967   2.584  1.2990  1.1491  1.5792
  950MOL0     H28238   6.261   3.089   2.353 -2.0923 -1.2262  2.0639
  950MOL0     H28239   6.034   3.133   2.274  0.5090  1.0813 -0.8547
  950MOL0     H28240   5.733   2.944   2.256 -0.7281  0.9890 -1.0157
  950MOL0     H28241   5.839   3.077   2.317  0.7185 -1.0751 -0.8676
  950MOL0     H28242   5.630   3.085   2.101 -0.9365  2.7363 -2.4585
  950MOL0     H28243   5.764   3.206   2.092 -0.0911 -1.6112 -0.3476
  950MOL0     H28244   5.562   3.283   2.192  1.5460  1.7285  0.2789
  950MOL0     H28245   5.685   3.285   2.320  0.3087 -1.4053  1.2257
  950MOL0     H28246   5.593   3.078   2.418  1.3176 -0.8793 -1.3777
  950MOL0     H28247   5.502   3.039   2.271  1.8310  1.2853 -1.5169
  950MOL0     H28248   5.268   3.375   2.415  0.4721  0.8984 -2.3105
  950MOL0     H28249   6.017   2.776   2.058 -1.3264  0.5333 -0.1335
  950MOL0     H28250   6.248   2.721   2.111  0.8210 -0.5726  0.5012
  951MOL0     O28251   4.244   4.549  11.284  0.0053  0.4648 -0.4398
  951MOL0     C28252   4.258   4.640  11.367 -0.4605 -1.0061  0.0074
  951MOL0     O28253   4.377   4.708  11.393 -0.5727  0.0255  0.9771
  951MOL0     C28254   4.474   4.696  11.296 -0.0214  0.8282  0.5276
  951MOL0     C28255   4.601   4.697  11.341 -0.3713 -1.1308  1.0260
  951MOL0     C28256   4.716   4.706  11.262 -0.4259 -0.4350 -0.1300
  951MOL0     C28257   4.696   4.678  11.119 -0.4142  0.6936 -0.2963
  951MOL0     O28258   4.807   4.660  11.035  0.1089 -0.3153 -0.0600
  951MOL0     C28259   4.789   4.625  10.897 -0.5286  0.4252  0.5326
  951MOL0     C28260   4.925   4.582  10.836  0.6394 -0.5498 -0.4257
  951MOL0     C28261   5.057   4.670  10.854  0.5026  0.0365 -0.6132
  951MOL0     C28262   5.058   4.772  10.736 -0.3796  0.9155  0.3295
  951MOL0     C28263   5.183   4.868  10.746  0.6193  0.7091  0.3971
  951MOL0     C28264   5.147   4.992  10.669 -0.1621 -1.1911 -0.2551
  951MOL0     C28265   5.257   5.097  10.681  0.5305  0.8781  0.5202
  951MOL0     C28266   5.288   5.144  10.822  0.1866  0.5348 -0.2997
  951MOL0     N28267   5.347   5.278  10.829  0.0498 -0.5680 -0.3995
  951MOL0     C28268   5.330   5.352  10.947 -0.1853  0.1751 -0.0872
  951MOL0     C28269   5.415   5.452  10.917  0.2141 -0.2474 -0.0149
  951MOL0     C28270   5.433   5.568  11.006 -0.5256  0.6277 -0.6017
  951MOL0     C28271   5.356   5.692  10.972  1.7855 -1.0043  0.1059
  951MOL0     C28272   5.204   5.667  10.940 -0.3666 -0.4617 -0.1369
  951MOL0     C28273   5.159   5.817  10.926  0.0630 -1.0143  0.0851
  951MOL0     O28274   5.034   5.812  10.859 -1.1288 -0.6094  0.1794
  951MOL0     C28275   4.968   5.933  10.837  0.2199  0.5810 -0.4491
  951MOL0     C28276   4.845   5.915  10.775  0.6270  0.0452  0.3420
  951MOL0     C28277   4.755   6.023  10.747 -0.4106  1.0870 -0.1151
  951MOL0     C28278   4.631   5.991  10.665 -0.5983 -1.3204  0.9294
  951MOL0     C28279   4.791   6.150  10.796 -0.1688 -1.2496  0.2156
  951MOL0     C28280   4.707   6.276  10.784 -0.3096  0.7441  0.5555
  951MOL0     O28281   4.762   6.390  10.826 -0.3741 -0.0259  0.4514
  951MOL0     C28282   4.691   6.506  10.846  0.2837  0.1069  0.0668
  951MOL0     C28283   4.644   6.575  10.732 -0.2588 -0.1551  0.0844
  951MOL0     C28284   4.561   6.697  10.752 -0.3628  0.0473 -0.2088
  951MOL0     C28285   4.516   6.733  10.879 -0.4951  0.2564 -0.4859
  951MOL0     O28286   4.422   6.828  10.893 -0.3769 -0.4151  0.4371
  951MOL0     C28287   4.287   6.795  10.894 -0.3644 -0.0882 -0.1151
  951MOL0     C28288   4.205   6.895  10.983 -0.1915  0.7607 -0.1456
  951MOL0     C28289   4.231   7.039  10.943  0.2599  0.5875  0.5463
  951MOL0     C28290   4.158   7.136  11.033 -0.6276 -0.3624  0.1877
  951MOL0     C28291   4.079   7.244  10.958  0.1825  0.4510 -0.0786
  951MOL0     C28292   3.984   7.304  11.045 -0.0827  0.2069  0.6095
  951MOL0     C28293   3.854   7.233  11.059 -0.5997 -0.3771  0.4049
  951MOL0     C28294   3.786   7.261  11.191  0.1583  0.3698 -0.1967
  951MOL0    Cl28295   3.671   7.131  11.231 -0.0365  0.0811  0.1184
  951MOL0     C28296   4.562   6.653  10.991  0.0749 -0.1856 -0.5276
  951MOL0     C28297   4.651   6.550  10.968  0.2882  0.1987 -0.4968
  951MOL0     O28298   4.592   6.270  10.737 -0.6762  0.1608 -0.5365
  951MOL0     C28299   4.915   6.171  10.869  0.1294 -0.5226 -1.7912
  951MOL0     C28300   5.011   6.060  10.884 -0.6399  0.5175  0.2251
  951MOL0     N28301   5.482   5.432  10.805  0.2552 -0.2733 -0.1953
  951MOL0     N28302   5.440   5.324  10.752 -0.3535 -0.0852 -0.1419
  951MOL0     C28303   4.568   4.687  11.067  0.2403 -1.3998  0.3193
  951MOL0     C28304   4.451   4.703  11.151  0.6020 -0.1235  0.0419
  951MOL0     C28305   4.144   4.691  11.442 -0.0723  0.6488 -0.0229
  951MOL0     C28306   4.166   4.777  11.551  1.1985 -0.3483 -0.2370
  951MOL0     C28307   4.052   4.820  11.619  0.4749 -0.6273 -0.1012
  951MOL0     C28308   3.918   4.789  11.581 -0.0160  0.9493 -0.2531
  951MOL0     O28309   3.808   4.833  11.652  0.2271 -0.7849 -0.4005
  951MOL0     C28310   3.821   4.915  11.775  0.1663 -0.1549 -0.6484
  951MOL0     C28311   3.704   5.013  11.780 -0.1619  1.3910  0.3807
  951MOL0     C28312   3.574   4.927  11.794 -0.7959  0.8771  0.1934
  951MOL0     C28313   3.448   5.015  11.813  0.3220 -0.3627 -0.2749
  951MOL0     C28314   3.452   5.093  11.931  0.9453 -0.4289  0.5203
  951MOL0     C28315   3.459   5.153  12.034 -0.7326  0.0711 -0.4942
  951MOL0     C28316   3.903   4.686  11.490 -0.4003 -0.2291  0.3041
  951MOL0     C28317   4.017   4.646  11.413  0.6125  0.1990 -0.1745
  951MOL0     H28318   4.623   4.712  11.447 -0.1996 -1.5339  1.0468
  951MOL0     H28319   4.817   4.702  11.303 -0.9492  0.5241  1.3387
  951MOL0     H28320   4.720   4.539  10.901  1.1086 -1.1134 -1.7544
  951MOL0     H28321   4.756   4.714  10.842  6.6074  3.9082  0.8597
  951MOL0     H28322   4.948   4.483  10.876  0.8980 -0.7831 -1.1366
  951MOL0     H28323   4.908   4.567  10.729 -1.2220 -1.1877 -0.0791
  951MOL0     H28324   5.051   4.726  10.949  0.4695 -0.0319 -0.5752
  951MOL0     H28325   5.145   4.605  10.854  0.3381 -0.2051  0.4233
  951MOL0     H28326   5.070   4.711  10.646  0.9513 -1.0749  1.7767
  951MOL0     H28327   4.968   4.833  10.745 -0.0889  1.2884  0.7217
  951MOL0     H28328   5.194   4.905  10.848  1.8709 -1.4479  1.1279
  951MOL0     H28329   5.276   4.817  10.721 -0.1678 -0.4505 -0.2678
  951MOL0     H28330   5.153   4.968  10.562 -1.2371  1.2512 -0.9355
  951MOL0     H28331   5.051   5.036  10.699  3.2583  4.5405  4.5360
  951MOL0     H28332   5.353   5.048  10.660  0.4886  0.4793  1.2473
  951MOL0     H28333   5.243   5.182  10.614 -2.6556 -0.4385 -0.6580
  951MOL0     H28334   5.343   5.067  10.876 -2.8154 -0.2991  1.8329
  951MOL0     H28335   5.194   5.160  10.874  0.7109 -0.1350  0.8743
  951MOL0     H28336   5.251   5.334  11.018  0.5563 -1.3518  0.3887
  951MOL0     H28337   5.397   5.531  11.102 -2.0309  0.1212 -1.3295
  951MOL0     H28338   5.538   5.599  11.014 -0.5309  1.5016 -3.0500
  951MOL0     H28339   5.404   5.747  10.891  0.9020  0.4235  0.5094
  951MOL0     H28340   5.350   5.753  11.063 -0.2931 -1.0759  0.0681
  951MOL0     H28341   5.146   5.616  11.017  0.1525  1.0587  1.3077
  951MOL0     H28342   5.189   5.621  10.842  0.5746 -0.2084 -0.4116
  951MOL0     H28343   5.238   5.861  10.864 -0.6935  0.3107  0.0212
  951MOL0     H28344   5.148   5.872  11.020  0.6006 -1.0842  0.1940
  951MOL0     H28345   4.824   5.816  10.738 -0.4194  1.4309 -3.1749
  951MOL0     H28346   4.624   5.889  10.625 -1.6757  0.2288 -3.2608
  951MOL0     H28347   4.538   6.015  10.718 -1.7966  1.8975 -2.2265
  951MOL0     H28348   4.632   6.046  10.571 -0.9526 -3.1695 -0.2237
  951MOL0     H28349   4.692   6.542  10.641  2.6494  3.0145  0.2824
  951MOL0     H28350   4.539   6.756  10.663  1.9099  0.1361 -0.7766
  951MOL0     H28351   4.252   6.799  10.791  0.6908  1.7898 -0.4511
  951MOL0     H28352   4.281   6.689  10.923  0.9537 -0.9676 -2.7564
  951MOL0     H28353   4.100   6.863  10.974  0.1639 -1.1141  1.6180
  951MOL0     H28354   4.233   6.880  11.088 -2.0205  0.4855  0.3487
  951MOL0     H28355   4.193   7.056  10.842 -0.7905  0.7742  0.9655
  951MOL0     H28356   4.338   7.061  10.958  0.1939  1.3393 -0.0198
  951MOL0     H28357   4.086   7.072  11.086 -1.0803  1.7330  2.2631
  951MOL0     H28358   4.229   7.164  11.111 -0.2952 -1.6848  0.3774
  951MOL0     H28359   4.024   7.195  10.877  0.0220  0.5804 -0.0473
  951MOL0     H28360   4.142   7.319  10.910 -0.7236  0.5826 -1.1108
  951MOL0     H28361   4.030   7.316  11.144 -0.5466 -2.6535  1.2805
  951MOL0     H28362   3.958   7.395  10.991  1.1533  0.8026  0.9781
  951MOL0     H28363   3.866   7.125  11.049 -2.8682 -0.4590 -3.1544
  951MOL0     H28364   3.789   7.254  10.974  1.1166  0.9897 -0.6345
  951MOL0     H28365   3.733   7.356  11.190 -0.0569  0.3262  1.7939
  951MOL0     H28366   3.859   7.275  11.271  2.7111 -1.0361 -2.1355
  951MOL0     H28367   4.506   6.676  11.081  1.4988  0.6847  0.1730
  951MOL0     H28368   4.690   6.490  11.049 -0.9371 -1.6296 -1.2161
  951MOL0     H28369   4.928   6.268  10.916 -1.6309 -0.3167 -1.6603
  951MOL0     H28370   5.110   6.087  10.918 -1.6291  5.6023 -0.1751
  951MOL0     H28371   4.541   4.708  10.964 -0.8940 -1.7316  0.5286
  951MOL0     H28372   4.348   4.703  11.119 -0.7134  0.3120  3.8010
  951MOL0     H28373   4.261   4.822  11.575 -0.1307  1.7216  1.4815
  951MOL0     H28374   4.076   4.876  11.709 -0.8223 -0.1121 -0.0595
  951MOL0     H28375   3.834   4.854  11.866 -2.6423  0.8909  0.5823
  951MOL0     H28376   3.918   4.965  11.766 -0.8346  1.9465 -0.2698
  951MOL0     H28377   3.707   5.075  11.690 -1.0187 -0.5442 -1.0710
  951MOL0     H28378   3.715   5.076  11.869 -0.7104  0.9834  0.7433
  951MOL0     H28379   3.589   4.863  11.882  0.4849 -0.2650 -0.8312
  951MOL0     H28380   3.554   4.850  11.719  2.2388 -0.0364  0.2179
  951MOL0     H28381   3.356   4.956  11.809  0.6626 -0.9011 -0.2563
  951MOL0     H28382   3.435   5.087  11.732  0.5865  0.5319  0.4600
  951MOL0     H28383   3.456   5.184  12.137  1.3283  0.3555 -0.4722
  951MOL0     H28384   3.804   4.646  11.473 -0.2961 -0.4720  0.2546
  951MOL0     H28385   4.008   4.571  11.335  0.1423 -2.7287  2.4894
  952MOL0     O28386   9.719   0.415   2.612 -0.2392  0.2631  0.0217
  952MOL0     C28387   9.683   0.419   2.730 -0.1383 -0.8471 -0.7285
  952MOL0     O28388   9.563   0.454   2.769  0.4922  0.5513  0.7560
  952MOL0     C28389   9.463   0.472   2.676  0.1295 -0.2058  0.4469
  952MOL0     C28390   9.439   0.598   2.616 -0.1419 -0.2029  0.1153
  952MOL0     C28391   9.346   0.601   2.510  0.1157 -0.3234  0.1559
  952MOL0     C28392   9.260   0.493   2.475  0.3508  0.7161 -0.7440
  952MOL0     O28393   9.162   0.512   2.387 -0.3885  0.2006 -0.1838
  952MOL0     C28394   9.145   0.410   2.289 -0.7708  0.1300 -0.1618
  952MOL0     C28395   9.001   0.397   2.243  1.0013  0.2786 -0.2538
  952MOL0     C28396   8.961   0.281   2.150 -0.4496  0.3852 -0.4128
  952MOL0     C28397   9.021   0.301   2.009  0.0857 -0.0649  0.1990
  952MOL0     C28398   9.002   0.188   1.909  0.1513  0.3006  0.5646
  952MOL0     C28399   9.080   0.212   1.773  0.3411 -0.3983  0.4613
  952MOL0     C28400   9.082   0.086   1.679 -0.3818 -0.0868 -0.2429
  952MOL0     C28401   8.933   0.043   1.647  1.2928  0.4560 -0.0211
  952MOL0     N28402   8.852   0.105   1.533 -0.7829 -0.0187 -0.0889
  952MOL0     C28403   8.879   0.205   1.448 -1.2244 -1.2746  0.5768
  952MOL0     C28404   8.772   0.209   1.359  0.3049  0.4975  0.1399
  952MOL0     C28405   8.727   0.302   1.250 -0.2299  0.4943  0.1790
  952MOL0     C28406   8.577   0.277   1.217 -0.8495  0.1832  0.3634
  952MOL0     C28407   8.536   0.338   1.075 -0.2072 -0.7803  1.0874
  952MOL0     C28408   8.391   0.342   1.048 -0.3366 -0.2460 -0.6379
  952MOL0     O28409   8.335   0.216   1.001  0.1163 -0.1108 -0.5112
  952MOL0     C28410   8.215   0.214   0.934 -0.1444 -1.0023  0.7245
  952MOL0     C28411   8.161   0.338   0.882  0.5018  0.8908 -0.5126
  952MOL0     C28412   8.044   0.335   0.808  0.8262 -0.6773  0.5928
  952MOL0     C28413   7.989   0.482   0.767  0.3799 -0.3808  0.4523
  952MOL0     C28414   7.979   0.209   0.784 -0.3796 -0.5070  0.8393
  952MOL0     C28415   7.858   0.201   0.696 -0.8678 -0.5695 -0.7823
  952MOL0     O28416   7.757   0.115   0.739  0.7245  0.1702 -0.1165
  952MOL0     C28417   7.649   0.106   0.663  0.0540  0.1578  0.1542
  952MOL0     C28418   7.571   0.215   0.612 -0.1225  0.9267  0.8876
  952MOL0     C28419   7.458   0.189   0.533 -0.0680 -0.1694  0.3297
  952MOL0     C28420   7.421   0.063   0.496 -0.9154  0.4179  0.0525
  952MOL0     O28421   7.310   0.046   0.407 -0.0224  0.2921 -0.1082
  952MOL0     C28422   7.272  -0.083   0.361  0.6376  1.1033 -0.0771
  952MOL0     C28423   7.169  -0.079   0.238  0.1547 -0.8853  0.1663
  952MOL0     C28424   7.035  -0.018   0.275 -0.9333 -0.2881  0.2148
  952MOL0     C28425   6.943  -0.125   0.345 -0.1862 -0.0051 -0.4066
  952MOL0     C28426   6.830  -0.053   0.429  0.2087 -0.3606  0.7059
  952MOL0     C28427   6.752  -0.162   0.503 -0.5599 -0.0149  0.8967
  952MOL0     C28428   6.607  -0.131   0.517  0.3476  0.1112  0.6283
  952MOL0     C28429   6.525  -0.137   0.388 -0.1238 -0.4216  0.0071
  952MOL0    Cl28430   6.523  -0.300   0.314 -0.0747 -0.7141  0.0223
  952MOL0     C28431   7.499  -0.046   0.551 -0.5863 -0.5379 -0.1649
  952MOL0     C28432   7.605  -0.019   0.639 -0.3028 -0.4903 -0.8551
  952MOL0     O28433   7.865   0.266   0.589  0.6046  0.0587 -0.6958
  952MOL0     C28434   8.033   0.089   0.830 -0.2728 -0.2443 -0.0954
  952MOL0     C28435   8.157   0.096   0.902 -0.0661 -0.7855 -0.0856
  952MOL0     N28436   8.693   0.102   1.388 -0.2584 -0.5394  0.0692
  952MOL0     N28437   8.740   0.042   1.487  0.1433  0.8253 -0.6725
  952MOL0     C28438   9.280   0.377   2.556 -0.9986 -0.5730  0.3543
  952MOL0     C28439   9.384   0.360   2.641  0.2080 -0.5345  0.5967
  952MOL0     C28440   9.774   0.366   2.839  0.1089 -0.0745 -0.1572
  952MOL0     C28441   9.728   0.309   2.954 -0.4585  0.6166  0.2696
  952MOL0     C28442   9.821   0.268   3.053 -0.0488  0.2875 -0.1899
  952MOL0     C28443   9.951   0.288   3.043  0.9746  0.1721  0.0718
  952MOL0     O28444  10.042   0.244   3.134 -0.0568  0.2999  1.0442
  952MOL0     C28445  10.007   0.149   3.233 -0.1565  0.2450  0.0700
  952MOL0     C28446  10.117   0.144   3.332 -0.0177  0.5678  0.0329
  952MOL0     C28447  10.097   0.025   3.427  0.4194 -0.3544 -0.5919
  952MOL0     C28448  10.179   0.049   3.563 -0.3159  0.0303 -0.3724
  952MOL0     C28449  10.153  -0.049   3.661  0.1553  0.7460  0.4980
  952MOL0     C28450  10.119  -0.138   3.744 -0.7883  0.0470 -0.5337
  952MOL0     C28451  10.006   0.340   2.929  0.5792 -1.5922  0.1742
  952MOL0     C28452   9.917   0.379   2.826  0.0413  0.7509  0.5875
  952MOL0     H28453   9.498   0.689   2.628  0.9381 -0.8566 -0.1914
  952MOL0     H28454   9.337   0.695   2.457 -2.2320 -1.3457 -1.4432
  952MOL0     H28455   9.200   0.449   2.203  2.1020  0.9639  1.8957
  952MOL0     H28456   9.197   0.316   2.310 -0.7390  0.0251 -0.7079
  952MOL0     H28457   8.932   0.386   2.328  0.6460  1.6161 -0.3501
  952MOL0     H28458   8.974   0.489   2.191 -0.5251 -0.1251 -0.2170
  952MOL0     H28459   8.995   0.192   2.203 -0.5805  1.2897  1.2756
  952MOL0     H28460   8.851   0.278   2.153 -0.4418 -2.3391  1.6684
  952MOL0     H28461   8.986   0.385   1.948  2.3369  0.6335 -0.2531
  952MOL0     H28462   9.126   0.329   2.019 -0.0263  0.7165 -0.6539
  952MOL0     H28463   9.031   0.099   1.964  2.0230  0.9296  0.6730
  952MOL0     H28464   8.894   0.186   1.889  0.6217  0.1144 -2.5041
  952MOL0     H28465   9.053   0.300   1.714 -0.3186 -1.8382 -1.4935
  952MOL0     H28466   9.187   0.225   1.793  1.0198 -1.3492 -2.1010
  952MOL0     H28467   9.143   0.096   1.589  0.6299 -0.4285  0.3907
  952MOL0     H28468   9.133   0.002   1.726  1.5860  1.7415  1.0468
  952MOL0     H28469   8.879   0.023   1.740  2.5764  0.3515  0.7357
  952MOL0     H28470   8.949  -0.056   1.603  1.0133  1.1033 -1.6296
  952MOL0     H28471   8.968   0.267   1.439 -1.7486 -0.7391 -1.5032
  952MOL0     H28472   8.730   0.402   1.294 -3.9456  0.6938  0.2603
  952MOL0     H28473   8.784   0.293   1.157 -2.4166  0.1982 -1.2069
  952MOL0     H28474   8.507   0.320   1.289 -1.1701 -1.9595  1.4203
  952MOL0     H28475   8.558   0.169   1.210  0.0865  0.0986 -1.4752
  952MOL0     H28476   8.578   0.282   0.991 -1.7804 -1.1890  0.5401
  952MOL0     H28477   8.580   0.438   1.069 -2.6889  0.3156 -2.8957
  952MOL0     H28478   8.385   0.431   0.985 -0.9821  2.6429  3.1639
  952MOL0     H28479   8.333   0.370   1.136  1.9758  1.4690  0.4413
  952MOL0     H28480   8.188   0.436   0.920 -0.8105  1.7210 -1.6593
  952MOL0     H28481   8.065   0.556   0.742  0.7017 -0.6951  0.5006
  952MOL0     H28482   7.922   0.489   0.681  0.9966 -1.3404 -0.1262
  952MOL0     H28483   7.949   0.536   0.853 -0.7932 -0.8800  0.2429
  952MOL0     H28484   7.608   0.315   0.630  1.4183  0.5881 -0.1419
  952MOL0     H28485   7.389   0.268   0.505 -4.2446 -3.0857  1.5151
  952MOL0     H28486   7.359  -0.136   0.320 -0.0207  2.2422 -3.2621
  952MOL0     H28487   7.222  -0.131   0.445 -0.2490 -0.7930 -1.6035
  952MOL0     H28488   7.200  -0.024   0.149 -2.8895  0.6344 -0.0952
  952MOL0     H28489   7.166  -0.185   0.214 -0.8689 -0.5111 -1.5271
  952MOL0     H28490   6.987   0.000   0.178 -1.3924 -0.3033  0.4361
  952MOL0     H28491   7.045   0.069   0.341 -0.1151 -1.0895  1.1782
  952MOL0     H28492   6.900  -0.192   0.271  2.1673 -0.0490 -1.8652
  952MOL0     H28493   7.007  -0.182   0.413  1.8393  2.9828  0.3927
  952MOL0     H28494   6.771   0.003   0.356 -1.8905 -3.2232  0.0409
  952MOL0     H28495   6.873   0.017   0.501 -0.2560 -0.9200  1.5470
  952MOL0     H28496   6.764  -0.258   0.451 -0.7766  0.9778 -1.0917
  952MOL0     H28497   6.798  -0.170   0.602 -0.5642  2.2426  1.1382
  952MOL0     H28498   6.588  -0.037   0.569  3.5248  0.4774  1.3163
  952MOL0     H28499   6.578  -0.216   0.579  1.5195  0.2942  1.4746
  952MOL0     H28500   6.549  -0.044   0.335 -0.2386 -0.3184  0.1345
  952MOL0     H28501   6.422  -0.139   0.425  0.2679 -3.2616  1.2349
  952MOL0     H28502   7.461  -0.148   0.544 -0.3678 -0.6311 -0.0090
  952MOL0     H28503   7.657  -0.103   0.685  2.9020  1.4244 -0.6559
  952MOL0     H28504   7.994  -0.004   0.790  0.1382  0.4860 -2.2817
  952MOL0     H28505   8.216   0.007   0.920  3.2556  1.3880  0.6467
  952MOL0     H28506   9.225   0.283   2.545  0.9370 -1.8365  1.0506
  952MOL0     H28507   9.398   0.267   2.696  1.2210  1.1876  3.4900
  952MOL0     H28508   9.622   0.291   2.973 -0.7275  2.4024  0.6981
  952MOL0     H28509   9.783   0.221   3.143  0.7016 -1.7739 -0.8961
  952MOL0     H28510   9.918   0.181   3.287  0.3438  3.4620 -0.8030
  952MOL0     H28511   9.984   0.050   3.191 -0.9537  0.8934 -1.0601
  952MOL0     H28512  10.135   0.238   3.384 -1.5839  0.3554  1.0276
  952MOL0     H28513  10.211   0.118   3.283 -0.4620 -0.0381 -0.5166
  952MOL0     H28514  10.113  -0.072   3.380 -1.6013  0.1189 -2.4647
  952MOL0     H28515   9.991   0.030   3.455  0.8919 -0.5091  1.3905
  952MOL0     H28516  10.165   0.152   3.598  2.0998  1.8321 -4.0473
  952MOL0     H28517  10.285   0.045   3.536 -0.2518 -0.2159 -0.0907
  952MOL0     H28518  10.085  -0.206   3.820  0.4360  0.5401  0.4804
  952MOL0     H28519  10.112   0.361   2.927 -0.1502  3.4309 -0.2652
  952MOL0     H28520   9.941   0.424   2.730 -1.7678  0.5145  0.0077
  953MOL0     O28521   1.272   6.209  10.189  0.2197 -0.0294 -0.1917
  953MOL0     C28522   1.194   6.113  10.192  0.0542 -0.4599  0.4884
  953MOL0     O28523   1.065   6.107  10.187  0.2905  0.8474  0.5259
  953MOL0     C28524   1.020   6.240  10.187  0.5914 -0.1924  0.0805
  953MOL0     C28525   0.989   6.312  10.310 -0.4801  0.4385  0.4937
  953MOL0     C28526   0.936   6.439  10.311  0.1171 -0.3746 -0.0508
  953MOL0     C28527   0.908   6.502  10.191  0.5489 -0.1355  0.3171
  953MOL0     O28528   0.851   6.625  10.175 -0.1218 -0.3740 -0.1497
  953MOL0     C28529   0.791   6.691  10.291 -0.3871  0.0360 -0.5269
  953MOL0     C28530   0.707   6.816  10.251  0.1528  0.5397 -0.2237
  953MOL0     C28531   0.631   6.868  10.362  0.1670 -0.2048 -0.0785
  953MOL0     C28532   0.689   6.855  10.501  0.0791 -0.2903  0.3959
  953MOL0     C28533   0.600   6.936  10.598 -0.0773 -0.1469 -0.4050
  953MOL0     C28534   0.639   6.908  10.737  0.6153  0.6533  0.2623
  953MOL0     C28535   0.562   7.000  10.830  0.4817 -0.6988 -0.5727
  953MOL0     C28536   0.582   6.981  10.986  0.0099 -0.6518 -0.4838
  953MOL0     N28537   0.660   7.091  11.053  0.8581  0.4303 -0.2103
  953MOL0     C28538   0.766   7.085  11.141 -0.7200  1.3037  0.1612
  953MOL0     C28539   0.781   7.208  11.202 -1.0979  0.3362  0.2069
  953MOL0     C28540   0.890   7.264  11.291 -0.7326  0.7632  0.5029
  953MOL0     C28541   1.018   7.254  11.215 -0.3528 -0.7229 -0.1610
  953MOL0     C28542   1.126   7.342  11.276 -0.9204 -0.3602  0.2199
  953MOL0     C28543   1.152   7.306  11.420 -1.1106 -1.2341 -0.2506
  953MOL0     O28544   1.216   7.173  11.422 -0.4900  0.0015 -0.2472
  953MOL0     C28545   1.252   7.122  11.539  0.4670 -0.4471 -0.7727
  953MOL0     C28546   1.317   6.993  11.541 -0.0433  0.1875  0.2550
  953MOL0     C28547   1.358   6.939  11.661 -0.3762  0.2675  0.0724
  953MOL0     C28548   1.426   6.808  11.659  0.3833  0.2054 -0.6867
  953MOL0     C28549   1.345   7.014  11.782  0.2631  0.1079 -0.2129
  953MOL0     C28550   1.407   6.974  11.913  0.4402 -1.0820  0.1265
  953MOL0     O28551   1.422   6.844  11.944 -0.6687 -0.2681  0.2111
  953MOL0     C28552   1.488   6.814  12.057  0.5509  0.2795 -0.1437
  953MOL0     C28553   1.633   6.814  12.065  0.4577 -0.0672 -0.1558
  953MOL0     C28554   1.700   6.779  12.187 -0.3409 -0.2658  0.6447
  953MOL0     C28555   1.622   6.733  12.295 -0.6300 -0.6375 -0.1421
  953MOL0     O28556   1.694   6.706  12.412  0.4248  0.2790  0.5867
  953MOL0     C28557   1.622   6.631  12.513 -0.4045 -0.2330  0.5095
  953MOL0     C28558   1.726   6.581  12.605  0.2960  0.3586  0.0367
  953MOL0     C28559   1.817   6.473  12.540  0.2061 -0.1306 -0.1742
  953MOL0     C28560   1.949   6.449  12.611 -0.1800 -0.1340  0.1235
  953MOL0     C28561   1.921   6.390  12.751  0.0590  0.6654 -0.6394
  953MOL0     C28562   2.043   6.344  12.821 -0.1485  0.3825 -0.1121
  953MOL0     C28563   2.028   6.309  12.969 -0.2009 -0.0319  0.7044
  953MOL0     C28564   1.970   6.165  13.001  0.1551 -0.1465  0.0604
  953MOL0    Cl28565   2.054   6.037  12.912 -0.1694  0.4966 -0.4433
  953MOL0     C28566   1.483   6.740  12.294  0.2371  0.0513  0.0285
  953MOL0     C28567   1.411   6.779  12.174 -0.4629 -0.4981 -0.1679
  953MOL0     O28568   1.449   7.075  11.976 -0.2929  0.1257 -0.8915
  953MOL0     C28569   1.275   7.133  11.783  0.7149 -0.5996  1.2174
  953MOL0     C28570   1.233   7.189  11.664  0.7544  0.6107  0.2322
  953MOL0     N28571   0.671   7.286  11.152  0.7323  0.4382 -0.4098
  953MOL0     N28572   0.598   7.217  11.074  0.2840  0.0521  0.0782
  953MOL0     C28573   0.950   6.434  10.070  0.0145 -1.0727 -0.3518
  953MOL0     C28574   1.005   6.311  10.069 -0.3328  0.5179 -0.1317
  953MOL0     C28575   1.260   5.983  10.192  0.5825  0.5531 -1.0889
  953MOL0     C28576   1.196   5.862  10.217 -0.3170  0.2609 -0.4545
  953MOL0     C28577   1.259   5.744  10.245 -0.2744 -0.4526  0.9145
  953MOL0     C28578   1.393   5.733  10.237 -0.1062 -0.8753 -0.1157
  953MOL0     O28579   1.455   5.611  10.266 -0.2539  0.4051  0.3756
  953MOL0     C28580   1.592   5.586  10.247  0.0109 -0.3266  0.1416
  953MOL0     C28581   1.645   5.443  10.283 -0.3217  0.8999  0.1561
  953MOL0     C28582   1.623   5.402  10.428  0.1742  0.3326 -0.6925
  953MOL0     C28583   1.696   5.264  10.457 -0.2675 -0.3454 -0.9249
  953MOL0     C28584   1.611   5.171  10.533  0.1199 -0.0389 -0.0075
  953MOL0     C28585   1.539   5.090  10.591  1.0395  0.3110  0.5102
  953MOL0     C28586   1.466   5.848  10.206 -0.2818  0.6606  1.0410
  953MOL0     C28587   1.401   5.971  10.176  0.2439  0.5446 -0.8858
  953MOL0     H28588   1.004   6.260  10.404 -2.1886  2.3510  1.9269
  953MOL0     H28589   0.917   6.486  10.406  1.6927  2.1469 -0.8751
  953MOL0     H28590   0.723   6.617  10.335 -1.0215  1.3934  0.8674
  953MOL0     H28591   0.867   6.714  10.366 -2.5535 -1.5952  2.4020
  953MOL0     H28592   0.774   6.889  10.205  0.3451  0.5743  0.1137
  953MOL0     H28593   0.636   6.786  10.172 -0.8610 -1.6068  1.4023
  953MOL0     H28594   0.621   6.974  10.340 -2.7629 -0.6186 -1.2011
  953MOL0     H28595   0.524   6.843  10.361 -0.2153  1.2867 -2.1008
  953MOL0     H28596   0.681   6.752  10.536 -0.4547 -0.5688 -0.5271
  953MOL0     H28597   0.793   6.889  10.512  1.0198 -3.3208  1.9865
  953MOL0     H28598   0.609   7.042  10.577 -1.2473 -0.7411 -4.8694
  953MOL0     H28599   0.496   6.907  10.579 -0.1443  0.6942 -1.3691
  953MOL0     H28600   0.605   6.807  10.758  0.5199  0.3544 -1.2009
  953MOL0     H28601   0.745   6.917  10.763  0.3947  0.2156  1.3472
  953MOL0     H28602   0.577   7.105  10.804 -0.0367 -0.4322  0.1853
  953MOL0     H28603   0.455   6.985  10.809 -0.2172 -0.4277  2.4241
  953MOL0     H28604   0.628   6.887  11.015  1.8527  0.8960  1.9564
  953MOL0     H28605   0.479   6.975  11.022  0.2235 -0.8989  0.1037
  953MOL0     H28606   0.837   7.003  11.151 -1.3123  0.6455 -0.8610
  953MOL0     H28607   0.862   7.364  11.324  1.5778  0.7810  2.6102
  953MOL0     H28608   0.906   7.198  11.377 -2.1528 -2.0780 -1.2536
  953MOL0     H28609   0.996   7.307  11.122 -2.0409  1.2823  1.2817
  953MOL0     H28610   1.046   7.150  11.195 -1.0428 -0.8269 -0.6242
  953MOL0     H28611   1.103   7.448  11.286  3.6257  0.7634  0.8508
  953MOL0     H28612   1.225   7.332  11.231  1.7983  1.5008  5.0450
  953MOL0     H28613   1.061   7.317  11.479 -0.7149  0.3827  0.1063
  953MOL0     H28614   1.226   7.375  11.462 -1.4288 -1.0500  0.0063
  953MOL0     H28615   1.340   6.948  11.445  0.1481  1.3510 -0.2519
  953MOL0     H28616   1.358   6.738  11.708  1.1640  0.7906  1.3613
  953MOL0     H28617   1.452   6.779  11.557  0.4217 -0.3254 -0.5303
  953MOL0     H28618   1.515   6.794  11.722  2.2507  3.4978 -2.3474
  953MOL0     H28619   1.688   6.859  11.983  2.4161  1.4717  1.8536
  953MOL0     H28620   1.807   6.775  12.200 -0.3249  1.5942  1.2803
  953MOL0     H28621   1.542   6.689  12.560 -1.6786  0.9452 -2.8005
  953MOL0     H28622   1.588   6.539  12.464  0.9090 -0.6340  0.3323
  953MOL0     H28623   1.783   6.665  12.645  1.7002  0.1420 -1.4170
  953MOL0     H28624   1.674   6.541  12.693 -0.1522 -0.1687 -0.4597
  953MOL0     H28625   1.845   6.509  12.441  2.6183 -0.3303  0.3803
  953MOL0     H28626   1.756   6.383  12.542 -1.5189  0.9580  2.4409
  953MOL0     H28627   2.003   6.371  12.558 -0.7449 -0.9172  0.6777
  953MOL0     H28628   2.013   6.537  12.624 -0.1365  0.2429 -2.1915
  953MOL0     H28629   1.859   6.300  12.740  1.2328 -0.1354 -0.8009
  953MOL0     H28630   1.864   6.452  12.821  2.0402 -1.7630  3.4927
  953MOL0     H28631   2.094   6.260  12.774 -0.6787  0.6038 -1.1013
  953MOL0     H28632   2.118   6.423  12.806  1.5676 -0.9908  0.8222
  953MOL0     H28633   1.964   6.376  13.028  0.8639 -0.5230  2.4878
  953MOL0     H28634   2.124   6.317  13.021 -0.3825 -3.1669  1.7349
  953MOL0     H28635   1.862   6.160  12.981 -0.3470 -0.4185  2.5268
  953MOL0     H28636   1.984   6.146  13.108  1.5031  0.7841  0.0775
  953MOL0     H28637   1.431   6.728  12.389 -0.4526  0.0391 -0.3455
  953MOL0     H28638   1.303   6.775  12.183 -0.4231 -2.8523 -0.2775
  953MOL0     H28639   1.263   7.197  11.869  0.9996  0.1407  0.7201
  953MOL0     H28640   1.202   7.293  11.670  0.0384  0.3169  2.1891
  953MOL0     H28641   0.930   6.490   9.979  2.2593  1.1691  0.4186
  953MOL0     H28642   1.042   6.270   9.975 -2.3200  0.8339 -1.1104
  953MOL0     H28643   1.088   5.857  10.216 -0.5363  1.9069  2.3972
  953MOL0     H28644   1.189   5.661  10.249 -0.2307 -0.6317 -1.0140
  953MOL0     H28645   1.641   5.608  10.151  0.5654 -0.4795  0.3837
  953MOL0     H28646   1.639   5.661  10.311  1.0283 -0.4005 -0.4976
  953MOL0     H28647   1.753   5.434  10.269 -0.7097 -1.2650 -2.2225
  953MOL0     H28648   1.589   5.375  10.218  0.7201  0.6125 -0.4545
  953MOL0     H28649   1.520   5.385  10.459  0.8518  0.7292  1.9723
  953MOL0     H28650   1.668   5.483  10.486  0.0905  0.2935 -0.5739
  953MOL0     H28651   1.791   5.260  10.510 -1.1875 -1.1502  0.7649
  953MOL0     H28652   1.706   5.217  10.359  0.2946  0.8974 -1.4816
  953MOL0     H28653   1.469   5.018  10.628 -0.7218  0.7614 -1.6852
  953MOL0     H28654   1.574   5.842  10.198 -0.3871  0.5881 -0.4212
  953MOL0     H28655   1.470   6.049  10.146 -1.2114  1.0004 -3.3672
  954MOL0     O28656   6.085   3.281   9.793  0.0477  0.7061  0.0853
  954MOL0     C28657   6.075   3.395   9.826  0.3956  0.6244  0.1812
  954MOL0     O28658   6.042   3.500   9.748  0.7624  0.1873 -0.8540
  954MOL0     C28659   5.965   3.457   9.644  0.3273 -0.2039 -0.6450
  954MOL0     C28660   5.825   3.448   9.668 -0.0924 -0.8725 -0.1228
  954MOL0     C28661   5.733   3.414   9.564  0.1545  0.3217 -0.2999
  954MOL0     C28662   5.770   3.381   9.433 -0.8605  0.9492  0.4909
  954MOL0     O28663   5.671   3.348   9.344  0.1305  0.3732 -0.2629
  954MOL0     C28664   5.709   3.284   9.218  0.6265 -0.0431 -0.0863
  954MOL0     C28665   5.592   3.254   9.107  0.4313  0.1760 -0.4154
  954MOL0     C28666   5.527   3.377   9.053 -0.9270 -0.4230 -0.1950
  954MOL0     C28667   5.431   3.343   8.940 -0.5507  0.1585 -1.2352
  954MOL0     C28668   5.321   3.436   8.929  0.5170  0.4866  0.6554
  954MOL0     C28669   5.346   3.547   8.836  0.2807  0.0797 -0.3605
  954MOL0     C28670   5.218   3.619   8.811  0.9448 -0.1401  0.0912
  954MOL0     C28671   5.255   3.732   8.712 -0.1095  1.0669 -0.7742
  954MOL0     N28672   5.140   3.802   8.659 -0.0013 -0.0805  0.6978
  954MOL0     C28673   5.031   3.734   8.594 -0.7467  0.4181  0.5542
  954MOL0     C28674   4.940   3.835   8.579  0.2898  1.0241 -0.9728
  954MOL0     C28675   4.812   3.818   8.511 -0.1809 -0.2203 -0.1275
  954MOL0     C28676   4.825   3.841   8.356  0.1043 -0.4477  0.4122
  954MOL0     C28677   4.902   3.974   8.326  0.8816 -1.5321 -0.0885
  954MOL0     C28678   4.820   4.101   8.369 -0.2827  1.1781 -1.4468
  954MOL0     O28679   4.861   4.215   8.296 -0.0610  0.1642 -0.5643
  954MOL0     C28680   4.952   4.303   8.352  0.7267  0.2938  0.5177
  954MOL0     C28681   5.041   4.278   8.452  0.1995  0.7260 -0.4089
  954MOL0     C28682   5.131   4.379   8.492  0.1553  0.1545  0.0344
  954MOL0     C28683   5.248   4.323   8.579  0.5677  0.4493  0.5205
  954MOL0     C28684   5.125   4.504   8.433  0.4250  0.1326  0.1015
  954MOL0     C28685   5.218   4.618   8.461  0.5473  0.2797  0.0116
  954MOL0     O28686   5.169   4.741   8.442  0.2736  0.2725 -0.2669
  954MOL0     C28687   5.196   4.825   8.546 -0.7412 -0.0869 -0.5889
  954MOL0     C28688   5.316   4.904   8.560 -0.3719  0.8943 -0.7422
  954MOL0     C28689   5.328   4.983   8.679 -0.5505  0.5733 -0.0209
  954MOL0     C28690   5.221   5.007   8.767 -0.0627 -0.6091  0.2009
  954MOL0     O28691   5.235   5.080   8.879 -0.2828 -0.1732  0.3027
  954MOL0     C28692   5.364   5.054   8.954  0.0295  0.3455 -0.1205
  954MOL0     C28693   5.367   5.098   9.098 -0.3992  0.3342 -0.6111
  954MOL0     C28694   5.263   5.032   9.183 -0.3230  0.3651 -0.5576
  954MOL0     C28695   5.262   5.090   9.329 -0.2980  0.2136 -0.4538
  954MOL0     C28696   5.380   5.034   9.410 -0.3816 -0.0156  0.1314
  954MOL0     C28697   5.381   5.062   9.560  0.0824  0.2374 -0.0409
  954MOL0     C28698   5.397   4.939   9.654 -0.2298  0.5959  0.1655
  954MOL0     C28699   5.356   4.960   9.797  0.7302 -0.9699 -0.3278
  954MOL0    Cl28700   5.458   5.085   9.869 -0.0130  0.1965  0.1885
  954MOL0     C28701   5.104   4.936   8.743  0.5497  0.7241 -0.7017
  954MOL0     C28702   5.094   4.845   8.638 -0.0244 -0.2936 -0.3509
  954MOL0     O28703   5.333   4.596   8.491  0.6627 -0.6329  0.0441
  954MOL0     C28704   5.020   4.532   8.340 -0.3190 -0.7010 -0.0148
  954MOL0     C28705   4.935   4.435   8.298  0.0017 -0.5645 -0.5625
  954MOL0     N28706   4.996   3.955   8.626  0.3482 -1.0328  0.2207
  954MOL0     N28707   5.117   3.941   8.663  0.1677 -0.0090  0.8645
  954MOL0     C28708   5.905   3.377   9.417 -0.1631  0.3150  0.1715
  954MOL0     C28709   5.996   3.422   9.510 -0.2724  0.1318 -0.1255
  954MOL0     C28710   6.129   3.430   9.956  0.3660 -0.1206  0.1138
  954MOL0     C28711   6.114   3.338  10.067  0.9974  0.4824  0.2688
  954MOL0     C28712   6.159   3.369  10.198  0.5439 -0.4084  1.1312
  954MOL0     C28713   6.222   3.489  10.227  0.0447 -0.1975  0.8044
  954MOL0     O28714   6.262   3.525  10.351 -0.6737 -0.5005  1.0805
  954MOL0     C28715   6.290   3.423  10.442  0.0951 -0.0243 -0.3519
  954MOL0     C28716   6.349   3.476  10.582  0.9112 -0.0531  0.7437
  954MOL0     C28717   6.265   3.601  10.621 -0.3131 -1.0863 -0.6747
  954MOL0     C28718   6.276   3.635  10.771  0.4298 -1.2849  0.3157
  954MOL0     C28719   6.416   3.644  10.816  1.0160  0.5136 -0.4774
  954MOL0     C28720   6.520   3.666  10.867  0.8086 -1.0024 -0.4503
  954MOL0     C28721   6.242   3.574  10.119 -0.0315 -0.1266 -0.1029
  954MOL0     C28722   6.185   3.549   9.990  0.3474 -1.5644 -0.7252
  954MOL0     H28723   5.789   3.489   9.762  0.6619  1.1509 -0.6712
  954MOL0     H28724   5.628   3.417   9.591  0.4055 -0.4182  0.8265
  954MOL0     H28725   5.776   3.354   9.167 -0.2334  0.2626 -0.8232
  954MOL0     H28726   5.761   3.189   9.232 -1.1947 -1.9826 -4.6821
  954MOL0     H28727   5.639   3.208   9.020 -3.2727  0.3093 -2.7153
  954MOL0     H28728   5.512   3.190   9.144 -1.8576  3.3210  0.5309
  954MOL0     H28729   5.474   3.417   9.140 -4.0284  2.3337 -3.0424
  954MOL0     H28730   5.607   3.448   9.031  0.7880 -0.6524  4.3030
  954MOL0     H28731   5.498   3.336   8.854 -2.2562 -2.7929 -2.4670
  954MOL0     H28732   5.394   3.242   8.959 -0.1823  0.1918 -0.2487
  954MOL0     H28733   5.237   3.383   8.883  1.8705  0.3946 -1.8662
  954MOL0     H28734   5.283   3.469   9.026 -0.6389  2.5846 -0.4434
  954MOL0     H28735   5.426   3.613   8.872 -0.6267 -0.5960  3.2938
  954MOL0     H28736   5.384   3.514   8.739  2.1965  1.7162 -0.2271
  954MOL0     H28737   5.145   3.550   8.768  0.2637  1.0089 -0.6590
  954MOL0     H28738   5.175   3.663   8.902 -0.3958 -1.0443 -0.0781
  954MOL0     H28739   5.307   3.682   8.630 -1.9950 -0.4619 -1.1175
  954MOL0     H28740   5.319   3.810   8.753  2.1162 -0.7193 -0.6556
  954MOL0     H28741   5.021   3.631   8.561 -1.2487  0.9731 -1.1296
  954MOL0     H28742   4.762   3.723   8.532  4.6639 -2.5364  2.9456
  954MOL0     H28743   4.749   3.900   8.546  0.4405  1.3109 -2.3882
  954MOL0     H28744   4.722   3.850   8.320 -0.5219  0.0059  2.1948
  954MOL0     H28745   4.877   3.762   8.301 -1.5403  0.5038 -2.7413
  954MOL0     H28746   4.914   3.983   8.218  1.4810  3.8314  0.1632
  954MOL0     H28747   5.006   3.989   8.355  0.5191  0.2898  0.3947
  954MOL0     H28748   4.833   4.122   8.476 -0.8899 -1.1231 -0.8571
  954MOL0     H28749   4.717   4.073   8.344 -0.1262  0.3179 -1.1814
  954MOL0     H28750   5.056   4.184   8.505 -0.8954  0.7931  0.0420
  954MOL0     H28751   5.254   4.214   8.584  2.1465  0.4725 -0.2939
  954MOL0     H28752   5.343   4.355   8.537  0.2775 -0.3021 -0.7654
  954MOL0     H28753   5.247   4.362   8.681  2.4280  1.7993  0.0646
  954MOL0     H28754   5.387   4.892   8.480  1.4419 -2.4846  1.1824
  954MOL0     H28755   5.420   5.040   8.687  0.1309 -0.7722  4.2440
  954MOL0     H28756   5.371   4.945   8.960  0.6628  0.3465 -0.6613
  954MOL0     H28757   5.448   5.099   8.900 -2.4373  2.5197 -2.4124
  954MOL0     H28758   5.463   5.070   9.142 -1.9095  0.8976  3.4347
  954MOL0     H28759   5.355   5.206   9.093  0.2963  0.3560 -3.0207
  954MOL0     H28760   5.275   4.923   9.179  1.0118  0.3483  1.8120
  954MOL0     H28761   5.160   5.045   9.149  0.4437  1.2509 -2.6943
  954MOL0     H28762   5.257   5.199   9.332  1.5059  0.3366 -1.1639
  954MOL0     H28763   5.176   5.045   9.381  0.9420 -1.1819  0.4555
  954MOL0     H28764   5.474   5.076   9.372 -1.6560  2.5869 -0.3121
  954MOL0     H28765   5.371   4.925   9.398 -3.0942 -0.2005  2.6148
  954MOL0     H28766   5.467   5.121   9.591  0.1138 -0.0057  0.3438
  954MOL0     H28767   5.285   5.108   9.587 -0.1323  0.4787 -1.1706
  954MOL0     H28768   5.500   4.904   9.653 -0.3782  0.1469  0.5241
  954MOL0     H28769   5.331   4.864   9.609 -1.6892  0.8777  1.7266
  954MOL0     H28770   5.364   4.872   9.862 -0.2110  0.7418  2.2385
  954MOL0     H28771   5.252   4.993   9.800  0.5437 -1.5905  0.4128
  954MOL0     H28772   5.019   4.935   8.811  1.1120 -1.9008  0.0686
  954MOL0     H28773   5.000   4.791   8.637 -0.7701  0.9743 -0.4027
  954MOL0     H28774   5.010   4.634   8.305  1.2270  0.4984  2.7960
  954MOL0     H28775   4.853   4.452   8.228  0.5500  2.7386 -0.5337
  954MOL0     H28776   5.951   3.348   9.324  0.6204 -0.2634  0.7216
  954MOL0     H28777   6.102   3.427   9.486 -0.0215  1.5791  1.1720
  954MOL0     H28778   6.057   3.247  10.045  1.5015  0.1879  0.1641
  954MOL0     H28779   6.138   3.292  10.271 -3.0682 -0.1641  0.5419
  954MOL0     H28780   6.193   3.381  10.471  0.4505  1.6396  4.1437
  954MOL0     H28781   6.359   3.342  10.418 -0.0956 -1.5466  3.4693
  954MOL0     H28782   6.455   3.501  10.572  0.6241  0.6716 -0.7929
  954MOL0     H28783   6.327   3.408  10.665 -2.5059 -3.1877 -2.3420
  954MOL0     H28784   6.159   3.589  10.596  0.3654 -0.8341 -4.1014
  954MOL0     H28785   6.299   3.693  10.572 -1.6145  0.0377  0.4391
  954MOL0     H28786   6.208   3.561  10.815  1.6542 -2.9245 -0.4342
  954MOL0     H28787   6.230   3.733  10.783  2.9702 -0.1060  0.9662
  954MOL0     H28788   6.614   3.689  10.912  0.6278  1.9887 -1.3560
  954MOL0     H28789   6.301   3.664  10.130 -0.0667 -0.2907  1.9130
  954MOL0     H28790   6.185   3.630   9.918 -1.8883 -1.3460 -0.5388
  955MOL0     O28791  10.919   7.626   7.232  0.7188 -0.3870 -0.2057
  955MOL0     C28792  10.946   7.634   7.112 -0.0315  0.1016  0.3239
  955MOL0     O28793  10.860   7.600   7.017  0.1649 -0.5611  0.3578
  955MOL0     C28794  10.760   7.518   7.054  0.8623  0.5537 -0.1684
  955MOL0     C28795  10.775   7.386   7.094 -0.4073  0.7541  0.4815
  955MOL0     C28796  10.664   7.320   7.126  0.1252 -0.9453 -0.4363
  955MOL0     C28797  10.534   7.369   7.129 -0.4229 -0.2367 -0.1902
  955MOL0     O28798  10.443   7.270   7.171 -0.0251  0.2617  0.1608
  955MOL0     C28799  10.302   7.306   7.166  0.2193 -0.2380 -0.8557
  955MOL0     C28800  10.262   7.377   7.284 -0.0054  0.0931 -0.4112
  955MOL0     C28801  10.350   7.334   7.413  0.2549 -0.1849  0.3278
  955MOL0     C28802  10.296   7.365   7.550  0.7639 -0.0784  0.1623
  955MOL0     C28803  10.154   7.304   7.569  0.5912 -0.0160 -1.1769
  955MOL0     C28804  10.118   7.322   7.719 -0.5405  0.0530 -0.6228
  955MOL0     C28805   9.989   7.279   7.767  0.7970 -0.2484 -0.6689
  955MOL0     C28806   9.873   7.315   7.665 -0.4479  0.6265 -0.6130
  955MOL0     N28807   9.737   7.302   7.725  1.2690  0.0448 -0.7145
  955MOL0     C28808   9.678   7.401   7.796 -0.7885 -0.0174  0.5150
  955MOL0     C28809   9.553   7.351   7.834  0.3374 -0.5911 -0.8385
  955MOL0     C28810   9.448   7.413   7.924 -1.2737 -0.3319  0.0545
  955MOL0     C28811   9.500   7.437   8.053  0.1700 -0.8188  0.1212
  955MOL0     C28812   9.560   7.321   8.130  0.1436  0.2352 -0.8867
  955MOL0     C28813   9.455   7.214   8.173 -0.7492  0.3668 -0.2203
  955MOL0     O28814   9.321   7.249   8.201  0.1565  0.3265 -0.5174
  955MOL0     C28815   9.283   7.272   8.334 -0.1613 -0.7083  0.0385
  955MOL0     C28816   9.149   7.295   8.366  0.3713 -0.3373  0.1364
  955MOL0     C28817   9.114   7.324   8.496 -0.0809 -0.4397 -0.1182
  955MOL0     C28818   8.971   7.363   8.525  0.1031 -0.2967  0.1115
  955MOL0     C28819   9.214   7.351   8.590 -0.8535  0.2648  0.0653
  955MOL0     C28820   9.190   7.365   8.736  0.2451 -0.1091  0.1471
  955MOL0     O28821   9.303   7.396   8.814  0.6421  0.6488  0.2088
  955MOL0     C28822   9.292   7.387   8.953 -0.6707 -0.1521  0.2576
  955MOL0     C28823   9.382   7.471   9.011  0.2889  0.6027 -0.4886
  955MOL0     C28824   9.379   7.476   9.147 -0.3206 -1.1146 -0.7450
  955MOL0     C28825   9.300   7.399   9.234  0.1245  0.5737  0.2686
  955MOL0     O28826   9.310   7.417   9.377 -0.6416  0.7832  0.4551
  955MOL0     C28827   9.188   7.432   9.446 -0.8583 -0.8083  1.0341
  955MOL0     C28828   9.214   7.451   9.595 -0.6560  0.3998 -0.9498
  955MOL0     C28829   9.087   7.510   9.665 -0.5341 -0.7942  0.0011
  955MOL0     C28830   9.111   7.642   9.747 -0.2930 -1.1682  0.1178
  955MOL0     C28831   9.157   7.753   9.659 -0.0991 -0.2270  0.3321
  955MOL0     C28832   9.060   7.805   9.552 -1.4275 -0.3625  0.6425
  955MOL0     C28833   9.077   7.959   9.506 -1.6132  1.0249  0.3336
  955MOL0     C28834   8.952   8.043   9.477  0.3065 -0.0034  0.6084
  955MOL0    Cl28835   9.015   8.199   9.423  0.1464 -0.6190 -0.2499
  955MOL0     C28836   9.216   7.308   9.163  0.8491  0.3834 -0.3573
  955MOL0     C28837   9.209   7.306   9.027 -0.3814  0.1358  0.3942
  955MOL0     O28838   9.085   7.312   8.776 -1.0128 -0.0649 -0.3025
  955MOL0     C28839   9.343   7.334   8.553  0.1159  0.2140  0.9450
  955MOL0     C28840   9.380   7.289   8.425  0.5872 -0.1642 -0.7276
  955MOL0     N28841   9.544   7.228   7.779 -0.2362  0.1826  0.6398
  955MOL0     N28842   9.648   7.205   7.707  0.4723 -0.1288  0.2524
  955MOL0     C28843  10.525   7.508   7.088  0.4857  0.9131 -1.1275
  955MOL0     C28844  10.634   7.582   7.050 -0.5753  0.8077  0.0122
  955MOL0     C28845  11.071   7.713   7.069  0.6647 -0.4238  0.5686
  955MOL0     C28846  11.142   7.783   7.160  0.1874 -0.0188 -0.4633
  955MOL0     C28847  11.261   7.837   7.132  0.7756  0.5953 -0.0943
  955MOL0     C28848  11.311   7.833   7.001 -0.2432 -0.2849 -0.4107
  955MOL0     O28849  11.438   7.861   6.971  0.8732 -0.3113 -1.0969
  955MOL0     C28850  11.502   7.978   7.029 -0.1757  0.4153 -0.2275
  955MOL0     C28851  11.630   7.943   7.118  0.0144 -0.0456  0.3761
  955MOL0     C28852  11.740   7.859   7.034  0.1057 -0.0741 -0.7910
  955MOL0     C28853  11.872   7.826   7.105 -0.3298 -0.8272  0.1201
  955MOL0     C28854  11.946   7.738   7.017  0.7771  0.4012 -0.0898
  955MOL0     C28855  12.012   7.669   6.943 -0.0098  0.0835  1.3172
  955MOL0     C28856  11.238   7.775   6.905 -0.4919  0.4317  0.2068
  955MOL0     C28857  11.119   7.708   6.938 -0.1038 -0.0528  1.0221
  955MOL0     H28858  10.877   7.353   7.114  0.5725  3.1300 -0.1806
  955MOL0     H28859  10.685   7.216   7.149 -0.3476 -0.6926  1.2457
  955MOL0     H28860  10.288   7.371   7.079 -0.7313  0.7764  0.0146
  955MOL0     H28861  10.250   7.213   7.147 -2.3030  1.2449 -1.6433
  955MOL0     H28862  10.264   7.485   7.266  4.0281  0.2519  0.1094
  955MOL0     H28863  10.158   7.351   7.308  0.3727 -0.4315  0.7360
  955MOL0     H28864  10.361   7.225   7.409  1.1253 -0.1740  1.6378
  955MOL0     H28865  10.450   7.375   7.399 -0.9682  2.6349 -0.8147
  955MOL0     H28866  10.355   7.322   7.631 -0.1651 -1.3734  0.1865
  955MOL0     H28867  10.298   7.474   7.559  1.5289  0.0339 -1.0973
  955MOL0     H28868  10.078   7.365   7.520 -1.3217 -0.9921  0.4484
  955MOL0     H28869  10.147   7.200   7.533  1.5472 -0.0711 -1.2445
  955MOL0     H28870  10.192   7.261   7.772  1.9116  1.7214 -1.9217
  955MOL0     H28871  10.131   7.427   7.745  2.2227  0.3319 -2.6289
  955MOL0     H28872   9.995   7.170   7.772 -3.2589 -0.5812  0.1219
  955MOL0     H28873   9.962   7.327   7.861 -2.8869 -1.5975 -0.8879
  955MOL0     H28874   9.878   7.252   7.576  1.9120  0.3180 -0.3401
  955MOL0     H28875   9.887   7.417   7.630  0.7176  1.6224  2.4176
  955MOL0     H28876   9.721   7.496   7.828  0.7890 -0.0342 -1.3877
  955MOL0     H28877   9.413   7.507   7.882 -1.0154 -0.3044 -0.0981
  955MOL0     H28878   9.361   7.346   7.920 -1.0513 -0.5668 -2.9665
  955MOL0     H28879   9.423   7.482   8.116  0.2383  1.9871 -1.6346
  955MOL0     H28880   9.577   7.513   8.040 -0.8401  0.0768 -0.8544
  955MOL0     H28881   9.584   7.355   8.231 -0.1751 -0.6973 -0.4880
  955MOL0     H28882   9.659   7.291   8.094  0.8322  0.0975  1.0234
  955MOL0     H28883   9.504   7.155   8.250 -1.4684 -1.0502 -0.8102
  955MOL0     H28884   9.460   7.144   8.089  1.4120  0.3855 -0.1743
  955MOL0     H28885   9.080   7.292   8.283 -1.4255  0.4185  1.5478
  955MOL0     H28886   8.919   7.392   8.433  1.6238 -1.9911 -1.3638
  955MOL0     H28887   8.921   7.276   8.568 -0.0518 -0.1831  0.1606
  955MOL0     H28888   8.955   7.451   8.587 -2.0341 -1.0748  0.7191
  955MOL0     H28889   9.453   7.521   8.946  1.9431 -1.7913 -0.6535
  955MOL0     H28890   9.444   7.544   9.201 -1.3050 -2.3608  2.2021
  955MOL0     H28891   9.140   7.525   9.413 -3.7808 -1.9704  1.6197
  955MOL0     H28892   9.115   7.354   9.424 -1.9303  0.8705 -1.8563
  955MOL0     H28893   9.236   7.357   9.646  0.6348 -0.7421 -3.4131
  955MOL0     H28894   9.301   7.511   9.623 -0.6988 -1.0169  2.7389
  955MOL0     H28895   9.053   7.441   9.743  2.7970  1.2842  3.6817
  955MOL0     H28896   9.004   7.510   9.594  0.9887 -0.1781 -1.8757
  955MOL0     H28897   9.016   7.676   9.789 -1.0424 -1.0661 -1.5603
  955MOL0     H28898   9.186   7.629   9.826  1.7974  0.5327 -1.4589
  955MOL0     H28899   9.256   7.739   9.613  0.2807  2.9039 -0.0168
  955MOL0     H28900   9.177   7.836   9.728  0.2667 -0.3135  0.3329
  955MOL0     H28901   9.071   7.752   9.457 -0.8289  2.2596 -0.8656
  955MOL0     H28902   8.954   7.789   9.572 -2.3283  0.6374 -2.6822
  955MOL0     H28903   9.146   7.968   9.421 -1.4989  2.7666  0.5748
  955MOL0     H28904   9.129   8.002   9.592  2.0909 -1.2998 -0.5162
  955MOL0     H28905   8.891   8.035   9.568 -1.3565  0.3654 -0.4293
  955MOL0     H28906   8.893   7.984   9.406  2.2683 -1.9172  0.4574
  955MOL0     H28907   9.162   7.237   9.225 -0.4263  0.8512 -0.9102
  955MOL0     H28908   9.154   7.221   8.988 -1.6829 -0.0824  2.5289
  955MOL0     H28909   9.431   7.366   8.608  0.8187  3.1080 -1.6423
  955MOL0     H28910   9.484   7.260   8.424  0.5199 -0.8425  2.3640
  955MOL0     H28911  10.427   7.556   7.088 -0.9422 -1.6880  1.3001
  955MOL0     H28912  10.648   7.682   7.009  3.1045  1.2031  1.7797
  955MOL0     H28913  11.092   7.807   7.254  0.5928  1.7947 -0.6839
  955MOL0     H28914  11.315   7.882   7.216  1.3525 -1.1562  0.5125
  955MOL0     H28915  11.530   8.044   6.946 -0.3877  0.0597 -0.5818
  955MOL0     H28916  11.429   8.031   7.092 -3.9784 -1.3525 -2.8015
  955MOL0     H28917  11.590   7.895   7.207  1.1258 -0.1765  0.8170
  955MOL0     H28918  11.671   8.039   7.151 -0.6355 -0.0671  1.2943
  955MOL0     H28919  11.762   7.916   6.943  0.6807 -1.7019 -1.7115
  955MOL0     H28920  11.687   7.770   6.998  1.2724 -1.5870  1.0679
  955MOL0     H28921  11.847   7.784   7.203 -1.7654  0.3842  0.3155
  955MOL0     H28922  11.934   7.915   7.118 -0.5763 -1.0236  3.3799
  955MOL0     H28923  12.073   7.602   6.885 -1.4910 -0.1529 -0.0306
  955MOL0     H28924  11.265   7.770   6.800 -0.5367 -0.3390  0.2303
  955MOL0     H28925  11.064   7.665   6.856 -0.3209 -1.3947  1.8503
  956MOL0     O28926   5.198   9.822   6.672 -0.3042  0.1308 -0.2697
  956MOL0     C28927   5.248   9.793   6.780 -0.8392  0.4170  0.3224
  956MOL0     O28928   5.177   9.777   6.890  0.3775  0.1483 -0.1432
  956MOL0     C28929   5.046   9.750   6.874  1.0874 -0.8278 -0.2953
  956MOL0     C28930   4.953   9.833   6.933 -0.8225  0.0796  0.1664
  956MOL0     C28931   4.821   9.815   6.919  0.3544  0.4123 -0.7505
  956MOL0     C28932   4.781   9.707   6.842  0.2784  0.5548 -1.1025
  956MOL0     O28933   4.648   9.695   6.816 -0.7307  0.2670  0.5245
  956MOL0     C28934   4.610   9.574   6.738  0.2140 -0.6997  0.3755
  956MOL0     C28935   4.456   9.569   6.726  0.0781 -0.0160 -0.9962
  956MOL0     C28936   4.381   9.538   6.856  0.0554  0.1263 -0.1971
  956MOL0     C28937   4.228   9.575   6.858 -0.2782  0.2681 -0.7914
  956MOL0     C28938   4.165   9.554   6.992  0.4109  1.0316 -0.1402
  956MOL0     C28939   4.176   9.404   7.037  0.9841  0.0084 -0.6988
  956MOL0     C28940   4.083   9.382   7.158 -0.3422 -0.0469 -0.4247
  956MOL0     C28941   4.104   9.245   7.228  0.9635  0.1029  0.4095
  956MOL0     N28942   4.088   9.144   7.121  0.3926  0.0291 -0.6186
  956MOL0     C28943   4.192   9.056   7.075  1.2181 -1.0005 -0.7303
  956MOL0     C28944   4.131   9.003   6.965 -0.1078  1.1404  0.3534
  956MOL0     C28945   4.182   8.926   6.855 -0.2693 -1.6230 -0.3022
  956MOL0     C28946   4.300   8.998   6.788  0.2042 -0.2028 -0.2630
  956MOL0     C28947   4.269   9.144   6.737 -0.6138  1.0070  0.1268
  956MOL0     C28948   4.375   9.189   6.636  0.2554 -0.5803  0.7890
  956MOL0     O28949   4.503   9.184   6.700 -0.1515  0.6801 -0.1329
  956MOL0     C28950   4.607   9.223   6.629  0.1422 -0.2726 -0.2723
  956MOL0     C28951   4.724   9.217   6.694 -0.5230 -0.2750 -0.6104
  956MOL0     C28952   4.851   9.232   6.631 -0.0359  0.6959  0.8309
  956MOL0     C28953   4.977   9.235   6.724 -0.0927  0.0894  0.4602
  956MOL0     C28954   4.855   9.264   6.490  0.2293 -0.0262  0.1659
  956MOL0     C28955   4.980   9.295   6.413 -0.8644 -0.9790  0.1927
  956MOL0     O28956   5.100   9.288   6.479 -1.0139  0.4737 -0.3414
  956MOL0     C28957   5.216   9.319   6.406  0.7125 -0.2799  0.0475
  956MOL0     C28958   5.288   9.435   6.431  0.0783  1.3257  0.6022
  956MOL0     C28959   5.417   9.466   6.374  0.7573 -0.7328  0.4793
  956MOL0     C28960   5.459   9.377   6.272 -0.4397  0.4308  0.0141
  956MOL0     O28961   5.586   9.410   6.220  0.1444 -0.1473 -0.3272
  956MOL0     C28962   5.662   9.291   6.176  0.1169 -1.1136  0.2449
  956MOL0     C28963   5.800   9.350   6.143  0.0748  0.3004  0.0734
  956MOL0     C28964   5.897   9.391   6.261  0.2720  0.8973  0.7302
  956MOL0     C28965   6.024   9.449   6.201  0.6960 -0.5809  0.0517
  956MOL0     C28966   6.128   9.348   6.163 -0.2050 -1.0227  0.0344
  956MOL0     C28967   6.269   9.405   6.111  0.1376  0.4220  0.1183
  956MOL0     C28968   6.366   9.494   6.192  0.4236  0.3605  0.0188
  956MOL0     C28969   6.509   9.489   6.137  0.2539  0.6055  0.4660
  956MOL0    Cl28970   6.568   9.316   6.167 -0.2174 -0.3356 -0.1343
  956MOL0     C28971   5.389   9.257   6.243 -0.5635  0.3180 -0.4350
  956MOL0     C28972   5.267   9.227   6.309 -0.6336  0.5715  0.2790
  956MOL0     O28973   4.973   9.317   6.289 -0.2759 -0.6176 -0.3887
  956MOL0     C28974   4.730   9.275   6.423  0.5571 -0.6267  0.1156
  956MOL0     C28975   4.615   9.254   6.495  0.4714  0.0924  0.0256
  956MOL0     N28976   3.998   9.035   6.955 -0.5995  0.5283  0.8034
  956MOL0     N28977   3.967   9.104   7.062 -0.5384  1.3733  0.1903
  956MOL0     C28978   4.881   9.624   6.781  0.0468 -0.0714 -0.1143
  956MOL0     C28979   5.015   9.640   6.803  0.1878  0.2527 -0.2522
  956MOL0     C28980   5.398   9.782   6.786  0.3928 -0.8894  0.5115
  956MOL0     C28981   5.466   9.784   6.905 -0.1821 -0.8247  0.3763
  956MOL0     C28982   5.603   9.758   6.912 -0.6627 -0.0908  0.3494
  956MOL0     C28983   5.680   9.736   6.799  0.4408 -1.5472  0.3865
  956MOL0     O28984   5.809   9.701   6.804 -0.5046 -0.1669  0.0768
  956MOL0     C28985   5.900   9.796   6.750 -0.1880 -0.4536 -0.1485
  956MOL0     C28986   6.017   9.804   6.850  0.4506  0.5208 -0.6258
  956MOL0     C28987   5.972   9.808   7.000  0.3320  0.8940 -0.4712
  956MOL0     C28988   6.093   9.807   7.094  0.5015  0.4343  0.7033
  956MOL0     C28989   6.162   9.938   7.089 -0.5675 -0.7472 -0.4898
  956MOL0     C28990   6.212  10.048   7.095 -0.4577  0.4383  0.0805
  956MOL0     C28991   5.611   9.744   6.673  0.1306 -0.4947  0.0146
  956MOL0     C28992   5.472   9.767   6.667  0.4730 -0.5996  0.3580
  956MOL0     H28993   4.998   9.911   6.994  0.6457 -1.9596  1.8455
  956MOL0     H28994   4.755   9.892   6.959  0.9961  0.0320  1.1383
  956MOL0     H28995   4.642   9.584   6.634  2.3471 -1.3026  0.9327
  956MOL0     H28996   4.637   9.481   6.789  0.2187 -0.1970  1.3042
  956MOL0     H28997   4.412   9.660   6.686  2.8200  1.3318 -1.1812
  956MOL0     H28998   4.450   9.491   6.651  4.1485 -0.5608 -0.9912
  956MOL0     H28999   4.384   9.429   6.866  0.3450  0.2400  1.1755
  956MOL0     H29000   4.425   9.592   6.940 -1.1578  1.7489 -0.5517
  956MOL0     H29001   4.219   9.682   6.837  3.1085  1.2619  1.8430
  956MOL0     H29002   4.184   9.510   6.782 -0.0006 -1.7967  0.7125
  956MOL0     H29003   4.217   9.625   7.056  1.5590  1.1075 -1.1197
  956MOL0     H29004   4.061   9.588   6.993  0.1112  0.3299  2.9652
  956MOL0     H29005   4.145   9.338   6.956  1.4650 -0.4493 -0.5159
  956MOL0     H29006   4.281   9.384   7.061  0.3369 -1.4006  1.2357
  956MOL0     H29007   4.110   9.459   7.231 -2.2036  1.0343 -0.8213
  956MOL0     H29008   3.978   9.400   7.131 -0.1337 -0.5448 -1.6450
  956MOL0     H29009   4.032   9.233   7.309  0.4109 -0.8015 -0.2043
  956MOL0     H29010   4.212   9.248   7.248  1.4308  1.9114 -1.9554
  956MOL0     H29011   4.296   9.049   7.105  0.8054 -3.4678  0.3750
  956MOL0     H29012   4.195   8.820   6.879 -2.0614 -1.9924 -0.8154
  956MOL0     H29013   4.107   8.926   6.776  0.7189 -2.1408 -1.2793
  956MOL0     H29014   4.338   8.928   6.713 -0.4969 -1.2185  0.3027
  956MOL0     H29015   4.387   9.003   6.854 -1.5476 -0.2380  2.1649
  956MOL0     H29016   4.285   9.206   6.826  1.3649 -0.6839  1.0428
  956MOL0     H29017   4.167   9.161   6.701 -0.5446 -1.0136 -1.1992
  956MOL0     H29018   4.344   9.279   6.582 -0.2743 -0.4753  1.2655
  956MOL0     H29019   4.368   9.119   6.552  0.4771  0.9429 -0.5500
  956MOL0     H29020   4.718   9.188   6.798  3.0591  0.8051  0.0518
  956MOL0     H29021   4.945   9.245   6.828  0.8092  4.1942  0.5300
  956MOL0     H29022   5.051   9.161   6.691  2.0886  2.6756 -0.8616
  956MOL0     H29023   5.025   9.334   6.723 -0.8264  0.5974  4.0836
  956MOL0     H29024   5.245   9.510   6.497  1.8921 -0.5881  4.2770
  956MOL0     H29025   5.477   9.556   6.382 -1.4403  1.0980 -2.0992
  956MOL0     H29026   5.670   9.215   6.253 -0.0343 -0.4812  0.8936
  956MOL0     H29027   5.625   9.256   6.079 -3.2780  0.1511  0.9576
  956MOL0     H29028   5.850   9.274   6.081  1.1810  3.2561 -2.9700
  956MOL0     H29029   5.777   9.437   6.081  1.1123 -1.0326 -2.3299
  956MOL0     H29030   5.922   9.307   6.326  0.6009  0.9462  0.6680
  956MOL0     H29031   5.841   9.463   6.322  1.7623  1.7013  1.2000
  956MOL0     H29032   6.008   9.514   6.115  0.4280 -2.0833 -1.0770
  956MOL0     H29033   6.066   9.512   6.279  0.2105 -1.5515  1.1278
  956MOL0     H29034   6.081   9.281   6.090 -0.7125  1.1320 -1.7408
  956MOL0     H29035   6.152   9.287   6.251 -1.9480 -0.2892  1.0638
  956MOL0     H29036   6.329   9.328   6.062 -1.2431 -0.6623  0.0946
  956MOL0     H29037   6.238   9.464   6.024  0.4814 -0.1028 -0.3699
  956MOL0     H29038   6.366   9.473   6.299  1.3528  3.6093  0.7527
  956MOL0     H29039   6.336   9.599   6.190  3.5255  1.6624  5.3171
  956MOL0     H29040   6.576   9.569   6.170  0.4999  1.3294 -1.6107
  956MOL0     H29041   6.502   9.507   6.029  0.8333 -1.8142 -0.0366
  956MOL0     H29042   5.405   9.188   6.161 -1.6820 -0.1624 -0.2705
  956MOL0     H29043   5.211   9.138   6.284  0.2573  0.3543 -1.0655
  956MOL0     H29044   4.716   9.297   6.318  0.6826  0.7673  0.3716
  956MOL0     H29045   4.522   9.270   6.442  0.9001  4.2607  0.2228
  956MOL0     H29046   4.847   9.540   6.721 -1.6167  1.7203 -1.8022
  956MOL0     H29047   5.085   9.569   6.761 -3.3032 -3.4296 -0.5108
  956MOL0     H29048   5.414   9.804   6.998 -2.2678  0.0460 -0.8995
  956MOL0     H29049   5.653   9.758   7.008 -0.9914  4.3960  0.7494
  956MOL0     H29050   5.927   9.761   6.650  0.5037  3.1782 -1.4142
  956MOL0     H29051   5.853   9.892   6.727  0.5656  0.2390  1.0949
  956MOL0     H29052   6.065   9.899   6.823  2.2686 -0.3328 -0.4989
  956MOL0     H29053   6.089   9.724   6.834 -2.5447 -2.3973 -0.6765
  956MOL0     H29054   5.910   9.720   7.019  1.1997  0.1170 -1.1187
  956MOL0     H29055   5.910   9.895   7.021  1.1613  0.8837  2.4625
  956MOL0     H29056   6.164   9.728   7.068 -1.7156 -1.0109 -1.2303
  956MOL0     H29057   6.059   9.786   7.196 -2.4100  0.8550 -0.0890
  956MOL0     H29058   6.253  10.146   7.084 -0.2966  0.3761  0.1225
  956MOL0     H29059   5.652   9.715   6.577 -1.2022 -0.1169 -0.6974
  956MOL0     H29060   5.427   9.778   6.569 -0.3694  1.1561  0.9137
  957MOL0     O29061   0.764   0.243   4.723 -0.7309  0.5338 -0.0177
  957MOL0     C29062   0.663   0.296   4.684  0.1197 -0.7464 -0.4901
  957MOL0     O29063   0.638   0.339   4.559 -0.1438 -0.5806 -0.7549
  957MOL0     C29064   0.726   0.300   4.459  0.7466  0.5306 -0.6343
  957MOL0     C29065   0.710   0.172   4.417 -0.3942  0.3135 -0.1193
  957MOL0     C29066   0.789   0.133   4.314  0.4281  0.1813 -0.8720
  957MOL0     C29067   0.884   0.212   4.256  0.1775 -0.2561  0.0041
  957MOL0     O29068   0.968   0.170   4.149 -0.4403  0.1729  0.6035
  957MOL0     C29069   0.930   0.043   4.082 -0.0187  0.1645  0.6640
  957MOL0     C29070   1.023   0.021   3.964 -0.3507 -0.3539  0.7215
  957MOL0     C29071   1.149  -0.047   4.016 -0.8819  1.1252  0.5026
  957MOL0     C29072   1.233  -0.086   3.894 -0.2690 -0.2157 -0.3513
  957MOL0     C29073   1.354  -0.168   3.930 -0.3607  0.8809  1.2926
  957MOL0     C29074   1.458  -0.203   3.810  0.3655  0.2127 -0.3013
  957MOL0     C29075   1.381  -0.259   3.688  0.5680 -0.4231 -0.7521
  957MOL0     C29076   1.475  -0.322   3.584 -0.6522 -0.6954 -0.6844
  957MOL0     N29077   1.409  -0.370   3.463 -0.3005 -0.6077  0.1209
  957MOL0     C29078   1.463  -0.373   3.336  0.0188 -0.0622  0.3559
  957MOL0     C29079   1.368  -0.429   3.262  0.1497 -0.1500 -0.7571
  957MOL0     C29080   1.379  -0.465   3.113 -0.0821 -0.6449  0.6569
  957MOL0     C29081   1.301  -0.369   3.013 -0.2139  0.1618  0.0914
  957MOL0     C29082   1.160  -0.333   3.055 -0.1368  0.6992 -0.1829
  957MOL0     C29083   1.103  -0.231   2.956  0.4762  0.1914 -0.2258
  957MOL0     O29084   1.188  -0.124   2.943 -0.5147 -0.3305  0.2241
  957MOL0     C29085   1.144  -0.023   2.861  0.5048  1.0346 -0.2429
  957MOL0     C29086   1.053  -0.030   2.754 -0.5863  0.9902 -0.1819
  957MOL0     C29087   1.056   0.072   2.658  0.7391  0.0288 -0.0870
  957MOL0     C29088   0.952   0.038   2.557 -0.3339  0.4548  0.0806
  957MOL0     C29089   1.134   0.191   2.664 -0.9271  0.1601  0.9516
  957MOL0     C29090   1.125   0.308   2.562  0.2717  0.7197  0.5129
  957MOL0     O29091   1.172   0.431   2.597  0.0676 -0.2048 -0.3875
  957MOL0     C29092   1.191   0.530   2.506 -0.0570 -0.3632  0.2743
  957MOL0     C29093   1.182   0.662   2.557  1.4842  1.0651  0.6068
  957MOL0     C29094   1.212   0.766   2.472 -0.7425  0.2270 -0.4999
  957MOL0     C29095   1.233   0.748   2.335  0.1881 -0.0649 -0.4858
  957MOL0     O29096   1.281   0.844   2.251  0.5501  0.0089 -0.5141
  957MOL0     C29097   1.260   0.983   2.276 -0.7424 -0.4248  0.0793
  957MOL0     C29098   1.362   1.051   2.185  0.1663  0.0144 -0.0021
  957MOL0     C29099   1.325   1.039   2.032  0.3172  0.1278 -0.4649
  957MOL0     C29100   1.421   1.125   1.952  0.6329 -0.5565  0.0704
  957MOL0     C29101   1.403   1.087   1.805  0.1638 -0.4820  0.4033
  957MOL0     C29102   1.274   1.128   1.745  0.0901  0.1404 -1.0413
  957MOL0     C29103   1.271   1.128   1.595 -0.1446  0.7924  0.3807
  957MOL0     C29104   1.158   1.200   1.538  0.0628 -0.7890  0.6016
  957MOL0    Cl29105   1.166   1.211   1.365  0.4019 -0.3409  0.3277
  957MOL0     C29106   1.241   0.618   2.277  0.1912 -0.5403 -0.4182
  957MOL0     C29107   1.223   0.510   2.369 -0.1619  0.0369 -0.0777
  957MOL0     O29108   1.053   0.293   2.462  0.9535  0.3992 -0.7160
  957MOL0     C29109   1.213   0.194   2.772 -0.8639  1.0453  0.2235
  957MOL0     C29110   1.222   0.091   2.872 -0.2712  0.1997  0.4818
  957MOL0     N29111   1.250  -0.444   3.335  0.0014 -0.4711 -0.3810
  957MOL0     N29112   1.276  -0.417   3.455 -0.1585 -0.3425 -0.0181
  957MOL0     C29113   0.900   0.340   4.308  0.2190 -0.4048 -0.8993
  957MOL0     C29114   0.827   0.387   4.414 -0.2397  0.0805 -0.4304
  957MOL0     C29115   0.548   0.328   4.782  0.0088 -0.4864  0.3121
  957MOL0     C29116   0.559   0.289   4.917 -0.0328  0.8222  0.4279
  957MOL0     C29117   0.453   0.302   5.001 -0.5468  0.5295 -0.2426
  957MOL0     C29118   0.336   0.358   4.968 -0.9434  0.7030 -0.7315
  957MOL0     O29119   0.231   0.364   5.059 -0.0867  0.3649 -0.6749
  957MOL0     C29120   0.130   0.265   5.043  0.0153  0.2964  0.3499
  957MOL0     C29121   0.064   0.220   5.175 -0.0978  0.6359  0.6418
  957MOL0     C29122   0.009   0.343   5.250  0.1204 -0.2197 -0.2676
  957MOL0     C29123  -0.103   0.418   5.182 -0.4226  0.0766 -0.6796
  957MOL0     C29124  -0.214   0.327   5.148 -0.2837 -0.2829 -0.0584
  957MOL0     C29125  -0.309   0.263   5.112  0.0686  0.5111 -0.0265
  957MOL0     C29126   0.317   0.403   4.835  0.0942  0.4424 -0.3669
  957MOL0     C29127   0.426   0.384   4.740 -0.2221  0.4026  0.5272
  957MOL0     H29128   0.651   0.098   4.471 -0.8387  0.3078 -0.6033
  957MOL0     H29129   0.767   0.031   4.284 -1.7169  0.4250 -0.2871
  957MOL0     H29130   0.935  -0.043   4.149 -0.1022  0.5752  1.2045
  957MOL0     H29131   0.830   0.047   4.037  0.7509  1.4929 -1.0486
  957MOL0     H29132   0.971  -0.046   3.895  1.5609 -0.9515 -0.2231
  957MOL0     H29133   1.053   0.117   3.922 -1.8857  1.1705  2.9115
  957MOL0     H29134   1.211   0.015   4.082 -1.8503  1.3466  1.2362
  957MOL0     H29135   1.131  -0.142   4.067  1.9276  0.3464  0.1749
  957MOL0     H29136   1.166  -0.136   3.823 -0.6492 -0.8506  0.4323
  957MOL0     H29137   1.278  -0.006   3.835  0.7675 -0.4667  0.0810
  957MOL0     H29138   1.408  -0.115   4.009 -1.0727  2.7561  0.5855
  957MOL0     H29139   1.312  -0.265   3.961 -0.2255  0.5042  0.3097
  957MOL0     H29140   1.509  -0.108   3.791  1.5699 -0.0675  1.2918
  957MOL0     H29141   1.533  -0.279   3.837 -0.1791 -0.2832 -0.1563
  957MOL0     H29142   1.309  -0.335   3.719  3.3162 -2.6525  0.6655
  957MOL0     H29143   1.326  -0.178   3.640 -2.7829 -3.0878 -1.7670
  957MOL0     H29144   1.543  -0.400   3.622  2.7639  2.7505  0.9841
  957MOL0     H29145   1.545  -0.243   3.555 -0.8055 -0.7668 -1.2501
  957MOL0     H29146   1.562  -0.343   3.302  0.6156  2.7133  3.9850
  957MOL0     H29147   1.482  -0.484   3.082  0.1179  0.4945  0.5752
  957MOL0     H29148   1.331  -0.563   3.105 -1.1467 -0.0224 -1.1896
  957MOL0     H29149   1.306  -0.406   2.910  1.3125  3.1155 -1.0329
  957MOL0     H29150   1.359  -0.276   3.019 -1.2781  0.7264  2.4489
  957MOL0     H29151   1.165  -0.279   3.150  1.0841 -0.2328  0.3048
  957MOL0     H29152   1.101  -0.424   3.066 -1.7092  1.8786  1.7878
  957MOL0     H29153   1.008  -0.196   2.998  0.1257  0.6930 -1.3863
  957MOL0     H29154   1.086  -0.275   2.857  3.9566  2.7422 -2.1869
  957MOL0     H29155   0.998  -0.122   2.736 -1.1520  1.3931 -0.5360
  957MOL0     H29156   0.916  -0.065   2.564 -1.8110  0.7735 -1.9930
  957MOL0     H29157   0.858   0.093   2.557 -1.6975 -1.4694 -3.9643
  957MOL0     H29158   0.998   0.049   2.459 -1.0768  3.7213 -0.0096
  957MOL0     H29159   1.173   0.686   2.662 -1.9183 -2.4558  1.3203
  957MOL0     H29160   1.203   0.867   2.511  3.8781  1.8130 -2.7611
  957MOL0     H29161   1.157   1.014   2.255  0.3581  2.4484 -1.5505
  957MOL0     H29162   1.286   1.004   2.381 -0.3642 -2.7812  0.5310
  957MOL0     H29163   1.369   1.159   2.201 -0.6369  1.1148 -5.1503
  957MOL0     H29164   1.466   1.024   2.202  0.6329  2.6660  2.0207
  957MOL0     H29165   1.223   1.076   2.024  0.0155 -0.4463  0.5272
  957MOL0     H29166   1.322   0.933   2.004 -3.1464 -0.8088  2.6923
  957MOL0     H29167   1.417   1.233   1.968 -0.4232 -0.9201  2.6523
  957MOL0     H29168   1.517   1.090   1.990  0.5618 -0.0003  0.7777
  957MOL0     H29169   1.408   0.980   1.787 -0.0824 -0.1527 -1.8923
  957MOL0     H29170   1.494   1.124   1.757  0.0431  0.8992  1.1829
  957MOL0     H29171   1.196   1.056   1.775  0.1335  0.0007 -1.2638
  957MOL0     H29172   1.240   1.225   1.780 -1.8566 -0.5738 -0.8135
  957MOL0     H29173   1.268   1.022   1.567  0.4304  0.4910  1.4120
  957MOL0     H29174   1.371   1.162   1.565  0.3204 -1.3171 -0.7180
  957MOL0     H29175   1.158   1.305   1.568  2.0813 -0.2841 -0.9837
  957MOL0     H29176   1.059   1.156   1.557 -0.8524  0.6415 -0.5815
  957MOL0     H29177   1.266   0.615   2.171  0.0875 -0.3411 -0.4500
  957MOL0     H29178   1.252   0.411   2.335 -2.7789 -0.9669  0.3824
  957MOL0     H29179   1.274   0.283   2.785 -0.2775  0.5315  1.0254
  957MOL0     H29180   1.282   0.100   2.962  1.2957  3.1217 -0.7358
  957MOL0     H29181   0.973   0.402   4.256  1.6484  0.5166  1.9926
  957MOL0     H29182   0.826   0.490   4.448 -1.2894 -0.4528  1.2377
  957MOL0     H29183   0.652   0.255   4.961 -0.0789 -0.1403 -0.1937
  957MOL0     H29184   0.462   0.272   5.105  1.5861 -1.0902 -0.8311
  957MOL0     H29185   0.051   0.296   4.973  2.6086  1.7668 -2.1222
  957MOL0     H29186   0.165   0.174   4.994 -3.3199 -1.2653  0.5859
  957MOL0     H29187   0.133   0.167   5.240  0.5100 -0.2915 -0.7173
  957MOL0     H29188  -0.016   0.146   5.163  1.4288 -0.6829 -2.5553
  957MOL0     H29189   0.086   0.418   5.268 -0.2311 -0.4438  2.6241
  957MOL0     H29190  -0.011   0.305   5.351  0.2690 -0.7353 -0.4323
  957MOL0     H29191  -0.064   0.460   5.089  0.8413  1.6951  0.5093
  957MOL0     H29192  -0.132   0.499   5.251 -0.2371 -1.8241  1.7534
  957MOL0     H29193  -0.398   0.208   5.089 -0.8581  0.0965  3.8137
  957MOL0     H29194   0.226   0.457   4.813 -1.0170 -1.6503 -1.1946
  957MOL0     H29195   0.408   0.431   4.644  1.0032  1.4985  0.8102
  958MOL0     O29196  11.245   9.562   2.803  0.2908  0.7910  0.3329
  958MOL0     C29197  11.217   9.651   2.879  0.1999 -0.4035  1.0489
  958MOL0     O29198  11.303   9.717   2.951 -0.1535 -0.5798 -0.2310
  958MOL0     C29199  11.436   9.707   2.917  0.5578 -0.5765 -0.0376
  958MOL0     C29200  11.521   9.657   3.009 -0.2214 -0.1027 -0.3918
  958MOL0     C29201  11.656   9.624   2.985  0.2898  0.3795 -0.2918
  958MOL0     C29202  11.713   9.668   2.870 -0.0982 -0.7267  0.6080
  958MOL0     O29203  11.843   9.637   2.847 -0.4599  0.5637 -1.0209
  958MOL0     C29204  11.900   9.636   2.712  0.4722 -0.6101 -0.6106
  958MOL0     C29205  12.035   9.569   2.694 -0.3363 -0.2319  0.8850
  958MOL0     C29206  12.155   9.617   2.785 -0.8921  0.0837 -0.1856
  958MOL0     C29207  12.270   9.522   2.802 -0.1830 -0.0295  0.1917
  958MOL0     C29208  12.353   9.506   2.679 -1.5060  0.1358 -0.4658
  958MOL0     C29209  12.477   9.413   2.720  1.1179  0.5054 -0.7568
  958MOL0     C29210  12.590   9.493   2.766  0.9330 -0.0336 -0.5974
  958MOL0     C29211  12.687   9.410   2.855 -0.5133  0.2931  0.4450
  958MOL0     N29212  12.755   9.320   2.763  0.0453  0.0809 -0.4072
  958MOL0     C29213  12.872   9.335   2.682 -0.1746  0.1321 -0.3415
  958MOL0     C29214  12.891   9.208   2.637 -0.9414  1.0131  0.0866
  958MOL0     C29215  12.996   9.163   2.534 -0.0442 -0.3385 -0.1888
  958MOL0     C29216  13.137   9.144   2.595 -0.6268 -0.0814  0.2989
  958MOL0     C29217  13.249   9.133   2.488  0.0959  0.6324 -0.7748
  958MOL0     C29218  13.386   9.138   2.571 -0.7443 -0.4860 -0.0389
  958MOL0     O29219  13.402   9.049   2.684  0.5331  0.0302 -0.2437
  958MOL0     C29220  13.508   9.068   2.761 -0.3402 -0.0388 -0.2428
  958MOL0     C29221  13.630   9.115   2.713  0.2636  1.4369 -0.9667
  958MOL0     C29222  13.733   9.151   2.800 -0.3056 -0.5717 -0.8150
  958MOL0     C29223  13.858   9.213   2.742 -0.1711  0.2742  0.4028
  958MOL0     C29224  13.714   9.140   2.937  0.4050 -0.8017 -0.8242
  958MOL0     C29225  13.815   9.192   3.032  0.1995 -0.1730 -0.4489
  958MOL0     O29226  13.786   9.306   3.091 -0.1399  0.0155 -0.3152
  958MOL0     C29227  13.879   9.371   3.167  0.2747  0.5253  0.1802
  958MOL0     C29228  13.882   9.509   3.129  1.0717  0.5315 -1.2879
  958MOL0     C29229  13.968   9.601   3.205  1.2094  0.4963 -0.2721
  958MOL0     C29230  14.040   9.548   3.315  0.6041  0.1717  0.2967
  958MOL0     O29231  14.112   9.626   3.404  0.3567 -0.3286  1.2608
  958MOL0     C29232  14.178   9.732   3.344  0.0175 -0.1513  0.2706
  958MOL0     C29233  14.205   9.844   3.440 -0.1522 -0.7339  0.2733
  958MOL0     C29234  14.305   9.950   3.396 -0.3133 -0.6228 -0.4517
  958MOL0     C29235  14.347  10.029   3.522 -0.6261  0.7146  0.5597
  958MOL0     C29236  14.384  10.164   3.468  0.4713  0.9464 -0.7235
  958MOL0     C29237  14.404  10.261   3.575  0.3872 -0.4615 -0.2151
  958MOL0     C29238  14.431  10.405   3.520  0.4143 -0.6537 -0.3476
  958MOL0     C29239  14.347  10.508   3.590  0.6380  0.0557 -0.6491
  958MOL0    Cl29240  14.395  10.490   3.750 -0.1781  0.0665 -0.0720
  958MOL0     C29241  14.029   9.414   3.358  0.1630 -0.8594 -0.5026
  958MOL0     C29242  13.956   9.321   3.275  0.2067 -0.7182 -0.0109
  958MOL0     O29243  13.923   9.134   3.038 -0.2436  0.1433 -0.4641
  958MOL0     C29244  13.594   9.088   2.986 -1.0140  0.0356  0.1467
  958MOL0     C29245  13.497   9.052   2.895  0.0549 -0.1295  0.0877
  958MOL0     N29246  12.813   9.115   2.702  0.2270 -0.1572  0.8708
  958MOL0     N29247  12.733   9.183   2.777 -0.8053  0.1676  1.0427
  958MOL0     C29248  11.633   9.734   2.780  0.4884  0.1372  0.2271
  958MOL0     C29249  11.490   9.737   2.790  0.5004 -0.3739 -0.4025
  958MOL0     C29250  11.080   9.694   2.874  0.5921  0.5994 -1.1114
  958MOL0     C29251  11.015   9.695   2.751  0.6253 -0.1828  0.3519
  958MOL0     C29252  10.884   9.739   2.738  0.4937  0.3373 -0.1598
  958MOL0     C29253  10.819   9.795   2.845 -0.1522 -0.0702 -0.3759
  958MOL0     O29254  10.698   9.864   2.855  0.9792 -0.1251  0.1350
  958MOL0     C29255  10.627   9.879   2.728  0.1205  0.4635 -0.1796
  958MOL0     C29256  10.559   9.749   2.675 -0.4003 -0.6345 -0.4653
  958MOL0     C29257  10.454   9.690   2.776  0.7551  0.7318  0.3903
  958MOL0     C29258  10.379   9.565   2.711 -0.9111 -1.3620 -0.3264
  958MOL0     C29259  10.300   9.509   2.822 -1.1293  0.4638  1.2610
  958MOL0     C29260  10.238   9.431   2.887  0.4348  0.2356 -0.2798
  958MOL0     C29261  10.885   9.792   2.965 -0.3232  0.6140  0.4889
  958MOL0     C29262  11.014   9.746   2.980  0.4333  0.2340 -0.9304
  958MOL0     H29263  11.488   9.609   3.100 -1.0063  1.9703  0.4815
  958MOL0     H29264  11.721   9.568   3.052 -1.3891 -0.4541  0.7310
  958MOL0     H29265  11.827   9.591   2.643  0.7466  0.6353 -1.7577
  958MOL0     H29266  11.901   9.740   2.678  0.0096 -0.7697 -1.1395
  958MOL0     H29267  12.032   9.460   2.702 -2.2951 -0.1002  3.1277
  958MOL0     H29268  12.055   9.599   2.591  2.4474  1.9208  1.9158
  958MOL0     H29269  12.194   9.707   2.737 -1.1823 -2.0945 -5.1221
  958MOL0     H29270  12.115   9.625   2.887  0.3472 -0.9473  0.4051
  958MOL0     H29271  12.330   9.563   2.884 -2.8036  1.0951  1.6763
  958MOL0     H29272  12.238   9.420   2.827  2.5779 -0.6144  1.6556
  958MOL0     H29273  12.299   9.466   2.593 -2.5326  2.4265 -0.9600
  958MOL0     H29274  12.386   9.607   2.653  1.1779 -1.0319 -2.0502
  958MOL0     H29275  12.444   9.340   2.794 -1.8087  1.6080 -0.8479
  958MOL0     H29276  12.504   9.355   2.632 -1.0047 -0.9571 -0.5038
  958MOL0     H29277  12.643   9.539   2.683  0.3188  0.2431 -0.8475
  958MOL0     H29278  12.543   9.577   2.819 -5.9485 -1.1167 -3.8430
  958MOL0     H29279  12.642   9.359   2.941 -2.9726  2.8825  0.8602
  958MOL0     H29280  12.764   9.480   2.890 -2.1190  2.0605  0.6237
  958MOL0     H29281  12.932   9.424   2.667 -0.1653  0.5025  1.6376
  958MOL0     H29282  12.960   9.077   2.477 -1.3676 -0.4998  0.8299
  958MOL0     H29283  13.000   9.238   2.454  0.7734 -0.6682 -0.4656
  958MOL0     H29284  13.135   9.050   2.651  0.6700  0.5732  1.4992
  958MOL0     H29285  13.157   9.221   2.670  0.3258  1.1510 -1.1411
  958MOL0     H29286  13.233   9.214   2.416  0.0315 -0.1132 -1.6160
  958MOL0     H29287  13.227   9.040   2.436 -1.6906 -1.5870  3.5249
  958MOL0     H29288  13.401   9.238   2.614  0.8941 -0.7309  0.0052
  958MOL0     H29289  13.466   9.092   2.512  1.1044 -1.9816  3.3673
  958MOL0     H29290  13.651   9.109   2.607 -0.2513 -1.0587 -0.9830
  958MOL0     H29291  13.897   9.298   2.800  2.8093 -0.0231 -0.9842
  958MOL0     H29292  13.939   9.142   2.729 -0.9006 -0.4197 -0.4633
  958MOL0     H29293  13.831   9.238   2.639 -1.2613 -3.1140 -0.2539
  958MOL0     H29294  13.826   9.542   3.043 -1.5588  0.6049  0.3578
  958MOL0     H29295  13.953   9.706   3.184 -0.0587  0.0753 -1.6054
  958MOL0     H29296  14.268   9.684   3.304 -1.2621 -2.0676 -0.4332
  958MOL0     H29297  14.128   9.786   3.263  0.2685 -0.0329  0.1907
  958MOL0     H29298  14.112   9.895   3.468 -0.0302  1.0357 -2.2181
  958MOL0     H29299  14.237   9.797   3.534 -1.8316 -0.6800  0.9037
  958MOL0     H29300  14.257  10.015   3.323  3.6942  1.7256 -1.3254
  958MOL0     H29301  14.389   9.908   3.340  1.9856  2.0152  0.7286
  958MOL0     H29302  14.265  10.033   3.594 -2.5979  1.3243 -1.5979
  958MOL0     H29303  14.444   9.991   3.556  0.6024  3.1601 -0.0339
  958MOL0     H29304  14.300  10.194   3.405 -2.8289 -0.9935  2.3753
  958MOL0     H29305  14.474  10.145   3.408  1.2809 -2.3695  1.3000
  958MOL0     H29306  14.322  10.267   3.647  0.7463 -1.7327  0.3323
  958MOL0     H29307  14.492  10.236   3.634  0.1848  0.4862  0.5112
  958MOL0     H29308  14.397  10.411   3.416 -0.7887 -1.1423 -0.0062
  958MOL0     H29309  14.537  10.431   3.518  0.3030 -0.1938 -0.5829
  958MOL0     H29310  14.239  10.495   3.585  0.4220  1.9331 -1.7316
  958MOL0     H29311  14.365  10.608   3.551  3.3310 -1.0365 -2.5451
  958MOL0     H29312  14.079   9.390   3.451  0.6292  2.2046  0.1566
  958MOL0     H29313  13.947   9.215   3.295 -0.1782 -0.5691  0.6384
  958MOL0     H29314  13.584   9.073   3.093  0.8849  0.4507  0.4138
  958MOL0     H29315  13.409   9.005   2.938 -0.8499  4.1150  3.7026
  958MOL0     H29316  11.668   9.757   2.680 -1.0351 -1.0171 -0.6214
  958MOL0     H29317  11.432   9.760   2.701 -0.4668 -2.1010 -0.2672
  958MOL0     H29318  11.069   9.660   2.663 -1.2296  0.9474 -1.3094
  958MOL0     H29319  10.834   9.755   2.643 -1.4448 -1.0434  0.5709
  958MOL0     H29320  10.551   9.956   2.744  2.7853  3.1224  0.3968
  958MOL0     H29321  10.694   9.917   2.650 -0.2368 -0.1193 -0.7904
  958MOL0     H29322  10.642   9.683   2.650  0.1497 -0.6969  1.4001
  958MOL0     H29323  10.519   9.763   2.574 -0.8271 -5.4213 -1.2159
  958MOL0     H29324  10.372   9.758   2.802  0.6673  1.5518 -1.8087
  958MOL0     H29325  10.500   9.647   2.865 -0.2667  1.8075  1.4711
  958MOL0     H29326  10.462   9.498   2.687  0.5501 -0.0366  0.7437
  958MOL0     H29327  10.316   9.585   2.624 -0.1652  1.7631 -0.2638
  958MOL0     H29328  10.164   9.380   2.944 -0.8024  3.3683  1.1356
  958MOL0     H29329  10.851   9.834   3.059  1.5587 -0.3251  1.6476
  958MOL0     H29330  11.050   9.743   3.083 -0.8046 -1.3119 -0.5041
  959MOL0     O29331   8.112   7.514   9.775  0.1896  0.5238 -0.2428
  959MOL0     C29332   8.176   7.431   9.846  0.5524 -0.2750  0.3241
  959MOL0     O29333   8.206   7.453   9.984 -0.4294  0.0008  0.2960
  959MOL0     C29334   8.183   7.582  10.036  0.5884  0.5636  1.0229
  959MOL0     C29335   8.299   7.663  10.044 -0.0085  0.3464 -0.9965
  959MOL0     C29336   8.283   7.794  10.090 -0.1807 -0.3219 -0.9523
  959MOL0     C29337   8.163   7.847  10.137 -0.6572  0.1515 -1.0176
  959MOL0     O29338   8.162   7.972  10.196 -0.1332 -0.4512 -0.0652
  959MOL0     C29339   8.037   8.029  10.246  0.2091 -1.2977 -0.0304
  959MOL0     C29340   7.960   8.087  10.125  0.2444 -0.0004 -0.3730
  959MOL0     C29341   7.834   8.165  10.169 -0.5494 -0.3141  1.0014
  959MOL0     C29342   7.768   8.253  10.057  0.0673  0.1965  0.4445
  959MOL0     C29343   7.642   8.312  10.109 -0.5282  0.7296  0.8815
  959MOL0     C29344   7.568   8.391   9.995  0.5025  0.9162 -0.7609
  959MOL0     C29345   7.430   8.437  10.051 -0.6675 -0.3507  0.6166
  959MOL0     C29346   7.336   8.463   9.931 -0.5170  0.4318  0.1905
  959MOL0     N29347   7.406   8.553   9.826  0.2885  0.7820  0.1930
  959MOL0     C29348   7.445   8.519   9.699  0.3037  0.1379 -0.0191
  959MOL0     C29349   7.431   8.634   9.622  0.0302  0.0580 -0.3920
  959MOL0     C29350   7.446   8.652   9.476 -0.4472  0.2832 -0.9127
  959MOL0     C29351   7.502   8.528   9.399  0.2918  0.5277  0.2400
  959MOL0     C29352   7.654   8.508   9.439 -0.0399  0.6851  1.1024
  959MOL0     C29353   7.751   8.573   9.340 -0.2607  0.0192 -0.2790
  959MOL0     O29354   7.726   8.540   9.206  0.4009  0.1632 -0.0023
  959MOL0     C29355   7.708   8.643   9.110 -0.6040  0.0428 -0.6122
  959MOL0     C29356   7.595   8.656   9.025 -0.9617 -0.6758  0.0614
  959MOL0     C29357   7.575   8.775   8.951 -0.2794 -0.2897 -0.3974
  959MOL0     C29358   7.461   8.774   8.854 -0.6250  1.1683  0.7411
  959MOL0     C29359   7.665   8.880   8.955 -0.3809 -0.4160 -0.9163
  959MOL0     C29360   7.639   9.014   8.890 -0.4280  0.5436  0.1227
  959MOL0     O29361   7.513   9.066   8.884  0.0445  0.3843  0.3309
  959MOL0     C29362   7.484   9.172   8.796  1.2937 -0.8305 -0.1244
  959MOL0     C29363   7.520   9.310   8.819 -0.4305 -1.0757  0.9010
  959MOL0     C29364   7.491   9.402   8.713 -0.5210  0.3648 -0.6231
  959MOL0     C29365   7.421   9.370   8.598  0.0440  0.5930 -1.1822
  959MOL0     O29366   7.402   9.467   8.503  0.7358 -0.4286 -0.3265
  959MOL0     C29367   7.266   9.493   8.461 -0.0864  1.6055 -0.4448
  959MOL0     C29368   7.270   9.557   8.324  0.5459  0.0068  0.1426
  959MOL0     C29369   7.135   9.584   8.268  0.2160 -0.3498  0.3189
  959MOL0     C29370   7.028   9.468   8.260  0.1679  0.1644  0.1170
  959MOL0     C29371   6.881   9.506   8.255  0.4738 -0.3268  0.2569
  959MOL0     C29372   6.789   9.377   8.269  0.1914 -0.7134 -0.6069
  959MOL0     C29373   6.642   9.418   8.302 -0.2722 -0.3999  0.4870
  959MOL0     C29374   6.608   9.410   8.451  0.3228 -0.1817 -0.7156
  959MOL0    Cl29375   6.436   9.480   8.477  0.2065 -0.7536 -0.4561
  959MOL0     C29376   7.390   9.236   8.581  0.2896  0.6687  0.3663
  959MOL0     C29377   7.415   9.142   8.682  0.0847 -0.6623  0.5646
  959MOL0     O29378   7.741   9.072   8.854  0.0578 -0.1169  0.3485
  959MOL0     C29379   7.778   8.863   9.038  0.3484 -0.5976 -0.1249
  959MOL0     C29380   7.801   8.748   9.112 -0.3750 -0.1217 -0.2448
  959MOL0     N29381   7.387   8.730   9.710 -0.6625 -0.0202  0.3972
  959MOL0     N29382   7.372   8.684   9.827 -0.3554 -0.1540  0.0261
  959MOL0     C29383   8.054   7.770  10.115 -0.0127 -0.7231  0.1769
  959MOL0     C29384   8.057   7.636  10.068 -0.2384  0.2755  0.3736
  959MOL0     C29385   8.239   7.313   9.780 -0.3133  0.2308 -0.3117
  959MOL0     C29386   8.212   7.283   9.641  1.2661 -0.8345 -0.0207
  959MOL0     C29387   8.280   7.186   9.573 -0.3624  0.4435  0.2139
  959MOL0     C29388   8.373   7.108   9.636  0.3121  0.0677  0.1270
  959MOL0     O29389   8.446   7.006   9.570  0.5007 -0.0681 -0.2009
  959MOL0     C29390   8.478   7.001   9.432  0.2898  0.8018  0.2655
  959MOL0     C29391   8.573   6.883   9.424 -1.0122  0.0872 -0.6886
  959MOL0     C29392   8.527   6.745   9.472  0.8390  0.1016  0.4703
  959MOL0     C29393   8.595   6.625   9.425 -0.2291 -0.8865 -0.2577
  959MOL0     C29394   8.732   6.648   9.370 -0.5962 -0.4299  0.4107
  959MOL0     C29395   8.843   6.627   9.328  0.2413 -0.4624  0.8357
  959MOL0     C29396   8.395   7.130   9.777  0.1770  0.6042 -0.0069
  959MOL0     C29397   8.333   7.230   9.850 -1.2801 -0.0135 -1.2683
  959MOL0     H29398   8.391   7.612  10.019 -0.2020  0.3773 -1.7875
  959MOL0     H29399   8.358   7.871  10.104 -0.0488 -0.8559  1.7010
  959MOL0     H29400   7.981   7.960  10.311  2.3983  1.5571  5.5617
  959MOL0     H29401   8.069   8.111  10.311 -2.6038 -1.0091  1.1319
  959MOL0     H29402   8.035   8.132  10.059  0.4524  0.1793 -0.0167
  959MOL0     H29403   7.912   8.006  10.069 -4.0331  0.7787  1.7476
  959MOL0     H29404   7.766   8.087  10.205  2.5927 -2.7058  2.2081
  959MOL0     H29405   7.865   8.222  10.258 -0.4112  3.2790 -1.1620
  959MOL0     H29406   7.836   8.332  10.026  2.1522 -1.4783  0.5419
  959MOL0     H29407   7.751   8.192   9.968  3.9547  1.6907 -1.5424
  959MOL0     H29408   7.570   8.238  10.143  1.0233 -0.7177  1.1496
  959MOL0     H29409   7.658   8.382  10.192  2.5182  0.9683  0.1986
  959MOL0     H29410   7.634   8.471   9.961  0.4346  0.9376 -0.8456
  959MOL0     H29411   7.539   8.329   9.909 -1.8831  0.8198  0.0329
  959MOL0     H29412   7.376   8.359  10.106 -3.5302 -1.8896 -3.7900
  959MOL0     H29413   7.435   8.526  10.115  1.2523  1.5214 -1.9369
  959MOL0     H29414   7.248   8.510   9.976 -0.9924 -0.1146 -0.1586
  959MOL0     H29415   7.306   8.373   9.878  1.4147  1.5969 -3.1949
  959MOL0     H29416   7.476   8.420   9.668  0.5064 -0.2286  1.2943
  959MOL0     H29417   7.351   8.698   9.445 -0.6080  1.1892  0.7501
  959MOL0     H29418   7.515   8.734   9.456 -1.1645  0.4656 -2.8213
  959MOL0     H29419   7.494   8.529   9.290  2.6995 -0.6993 -0.0220
  959MOL0     H29420   7.458   8.434   9.434  3.2631 -1.7059 -1.5399
  959MOL0     H29421   7.665   8.399   9.446  0.0151  0.7151  1.4844
  959MOL0     H29422   7.670   8.540   9.542  1.9998  2.0120  0.4140
  959MOL0     H29423   7.852   8.543   9.369 -0.5257 -1.4311 -0.7962
  959MOL0     H29424   7.752   8.681   9.356 -0.7683 -0.3781  3.2325
  959MOL0     H29425   7.524   8.577   9.004 -1.0243  0.0301 -2.8597
  959MOL0     H29426   7.499   8.767   8.752 -0.1320  0.6614  0.9546
  959MOL0     H29427   7.401   8.683   8.867  0.8063  0.0811  0.0699
  959MOL0     H29428   7.393   8.858   8.869 -0.5543  1.7796 -1.8380
  959MOL0     H29429   7.583   9.337   8.903 -1.3075 -1.6930  1.7863
  959MOL0     H29430   7.523   9.506   8.720 -1.5071  0.6606 -0.4251
  959MOL0     H29431   7.216   9.398   8.441 -2.3961  3.1872 -2.7633
  959MOL0     H29432   7.203   9.537   8.538 -2.3579 -3.1367  0.8218
  959MOL0     H29433   7.327   9.650   8.333 -0.0875  0.3594  0.5750
  959MOL0     H29434   7.324   9.491   8.255 -0.0819 -2.1078  1.5735
  959MOL0     H29435   7.144   9.618   8.165 -0.1980 -0.9585  0.0736
  959MOL0     H29436   7.098   9.670   8.325  0.7838  0.2063 -0.1444
  959MOL0     H29437   7.049   9.408   8.171 -1.7572  2.1679 -1.8343
  959MOL0     H29438   7.042   9.399   8.344  4.9156 -0.2382 -0.6928
  959MOL0     H29439   6.863   9.556   8.159  2.7569  0.5208  0.1975
  959MOL0     H29440   6.846   9.586   8.320  0.0887 -0.5679  0.3537
  959MOL0     H29441   6.811   9.329   8.173  0.8280  0.2508 -0.9551
  959MOL0     H29442   6.839   9.315   8.344  3.0016 -0.3743 -2.0742
  959MOL0     H29443   6.586   9.332   8.264 -0.4659 -0.6041  1.2272
  959MOL0     H29444   6.604   9.505   8.247 -0.0596 -0.8307 -0.3649
  959MOL0     H29445   6.686   9.456   8.512  0.1670  2.0935 -2.0808
  959MOL0     H29446   6.607   9.306   8.484 -1.5318 -0.1108 -0.4055
  959MOL0     H29447   7.329   9.211   8.495 -2.2954 -0.3577  2.3365
  959MOL0     H29448   7.388   9.038   8.662 -4.1464  0.3207  0.1688
  959MOL0     H29449   7.850   8.944   9.034  0.0111 -0.0545  2.6759
  959MOL0     H29450   7.893   8.737   9.169  1.2098  2.7316 -1.9803
  959MOL0     H29451   7.952   7.805  10.131 -0.8189 -1.9085 -2.0170
  959MOL0     H29452   7.971   7.571  10.054  2.6832 -3.1459 -4.8243
  959MOL0     H29453   8.139   7.346   9.592  0.3850  0.8428  3.1378
  959MOL0     H29454   8.249   7.168   9.471  4.3734  0.2598 -1.4596
  959MOL0     H29455   8.398   6.992   9.357  1.2971  4.1422 -1.4463
  959MOL0     H29456   8.533   7.091   9.403  1.1306  0.3268  0.3700
  959MOL0     H29457   8.675   6.896   9.461 -0.5920 -4.4721  0.3942
  959MOL0     H29458   8.576   6.866   9.316  0.8902 -1.9641 -0.3828
  959MOL0     H29459   8.420   6.739   9.447  0.6942  0.3727  1.0191
  959MOL0     H29460   8.529   6.740   9.581 -2.4195  0.5826  0.6760
  959MOL0     H29461   8.528   6.579   9.352 -3.8672  1.1075  1.5273
  959MOL0     H29462   8.595   6.550   9.505 -1.4831  0.4622  1.0734
  959MOL0     H29463   8.930   6.612   9.268 -1.9621 -2.4970 -2.1605
  959MOL0     H29464   8.455   7.059   9.834 -2.1671 -1.6059 -0.1079
  959MOL0     H29465   8.360   7.243   9.954 -0.7280 -1.0590 -1.2721
  960MOL0     O29466   7.582   2.360   6.418 -0.1800  0.3615 -0.0290
  960MOL0     C29467   7.660   2.333   6.330 -0.6381 -0.2830 -0.1636
  960MOL0     O29468   7.693   2.420   6.226  0.7085  0.3500  0.1034
  960MOL0     C29469   7.629   2.538   6.223  0.0235 -0.0457  0.6419
  960MOL0     C29470   7.626   2.629   6.323 -0.5329 -0.2548 -0.0174
  960MOL0     C29471   7.579   2.753   6.301 -0.3388 -0.2005 -0.4339
  960MOL0     C29472   7.518   2.794   6.186  0.1207  0.2166 -0.2472
  960MOL0     O29473   7.468   2.917   6.167 -0.7748 -0.1863 -0.6063
  960MOL0     C29474   7.382   2.970   6.274 -0.1794 -0.5908  1.1370
  960MOL0     C29475   7.286   3.068   6.212  0.6350 -0.4617  0.3139
  960MOL0     C29476   7.181   3.002   6.126 -0.0488 -0.2145  0.2656
  960MOL0     C29477   7.041   3.068   6.161  0.2612  0.4972  0.4521
  960MOL0     C29478   7.033   3.223   6.151 -0.2372  0.7280 -0.6513
  960MOL0     C29479   6.970   3.271   6.023 -0.2443 -0.2919 -0.7211
  960MOL0     C29480   7.062   3.283   5.898  0.2855  0.8495  0.2761
  960MOL0     C29481   6.955   3.308   5.784  0.1069 -0.0314  0.1399
  960MOL0     N29482   6.936   3.454   5.739  0.3769 -0.2495  0.0699
  960MOL0     C29483   6.863   3.537   5.809  0.3957  0.6031 -0.2058
  960MOL0     C29484   6.830   3.630   5.716 -0.1972 -0.8264 -1.1361
  960MOL0     C29485   6.742   3.753   5.735  0.1797  0.9295  0.4468
  960MOL0     C29486   6.591   3.715   5.700  0.2044 -0.2140 -0.7065
  960MOL0     C29487   6.490   3.813   5.760  0.2967  0.1891  0.0988
  960MOL0     C29488   6.350   3.777   5.708  0.5011 -0.0765 -0.1863
  960MOL0     O29489   6.345   3.802   5.566  0.4654 -0.3211 -0.2223
  960MOL0     C29490   6.239   3.759   5.506 -1.0827  0.2893 -0.2360
  960MOL0     C29491   6.257   3.675   5.403 -0.1373  0.4853 -0.0129
  960MOL0     C29492   6.152   3.624   5.336 -0.5217  0.6794 -0.0259
  960MOL0     C29493   6.195   3.528   5.233  0.2370 -0.3055 -0.6384
  960MOL0     C29494   6.020   3.660   5.370 -0.1353 -0.1835 -0.6757
  960MOL0     C29495   5.895   3.590   5.320 -0.4802  1.8344 -1.0468
  960MOL0     O29496   5.784   3.631   5.391  0.5165 -0.4791  0.0667
  960MOL0     C29497   5.667   3.562   5.369 -0.8124  0.2545  0.3804
  960MOL0     C29498   5.555   3.643   5.347  1.0683 -0.1510  0.3800
  960MOL0     C29499   5.427   3.590   5.349 -0.3612 -0.2790  0.4072
  960MOL0     C29500   5.408   3.454   5.386  0.2300 -0.6543  0.0871
  960MOL0     O29501   5.283   3.394   5.387  0.0320 -0.0710  0.7632
  960MOL0     C29502   5.177   3.434   5.302 -0.7205  0.4408 -0.1761
  960MOL0     C29503   5.062   3.490   5.388 -0.8130  0.4523 -0.0874
  960MOL0     C29504   4.962   3.541   5.285  1.0467  0.1232 -0.0129
  960MOL0     C29505   4.934   3.698   5.286 -1.0912  0.4221  0.1940
  960MOL0     C29506   5.062   3.768   5.231  0.0517 -0.4006  0.0780
  960MOL0     C29507   5.043   3.900   5.159  0.4361  0.0162 -0.9592
  960MOL0     C29508   5.008   4.004   5.259  0.1725  0.4046  0.5326
  960MOL0     C29509   5.003   4.148   5.195 -1.5117  0.2156  0.1256
  960MOL0    Cl29510   4.940   4.258   5.316 -0.3652  0.0283  0.4239
  960MOL0     C29511   5.522   3.375   5.425  0.1025 -0.0580 -0.2734
  960MOL0     C29512   5.646   3.435   5.415 -1.0370  0.4436  0.0265
  960MOL0     O29513   5.904   3.496   5.235 -0.2507  0.5606  0.1978
  960MOL0     C29514   6.008   3.762   5.470  0.4335  0.3745  0.0660
  960MOL0     C29515   6.116   3.808   5.546 -0.5572 -1.2973  0.0846
  960MOL0     N29516   6.892   3.604   5.602 -0.6035  0.4207  0.7109
  960MOL0     N29517   6.956   3.499   5.611  0.0990 -0.1066 -0.8790
  960MOL0     C29518   7.535   2.708   6.074  0.1590  0.3030  0.0290
  960MOL0     C29519   7.589   2.578   6.094 -0.4577 -0.8461  0.5632
  960MOL0     C29520   7.718   2.201   6.342 -0.8994 -0.3535 -0.6134
  960MOL0     C29521   7.825   2.162   6.261 -0.5848 -0.2815  0.1004
  960MOL0     C29522   7.889   2.039   6.290  0.7399  0.7782  0.3003
  960MOL0     C29523   7.831   1.946   6.379  0.0451  0.5148 -0.3413
  960MOL0     O29524   7.899   1.830   6.412  0.8109  0.5466  0.0901
  960MOL0     C29525   8.001   1.776   6.325 -0.4744 -0.0941 -0.2959
  960MOL0     C29526   8.133   1.806   6.393  1.5142 -0.1818  0.6349
  960MOL0     C29527   8.167   1.741   6.519  0.2966 -0.6459 -0.5815
  960MOL0     C29528   8.292   1.796   6.591 -0.4096  0.1262  0.8632
  960MOL0     C29529   8.265   1.927   6.644  0.1375 -0.6099 -0.8488
  960MOL0     C29530   8.238   2.026   6.710  0.1235  0.9973 -0.3783
  960MOL0     C29531   7.717   1.974   6.452  0.6128 -0.6302  0.3065
  960MOL0     C29532   7.663   2.106   6.435  0.2749  0.8493 -1.1084
  960MOL0     H29533   7.663   2.590   6.418  0.6468 -2.1920 -1.2087
  960MOL0     H29534   7.589   2.819   6.387  1.0142 -0.8947 -0.0284
  960MOL0     H29535   7.325   2.891   6.324  0.7387 -0.5715  2.2648
  960MOL0     H29536   7.447   3.037   6.331  1.8457 -0.5764 -1.0334
  960MOL0     H29537   7.240   3.119   6.297  1.5269  0.0366  0.5109
  960MOL0     H29538   7.342   3.130   6.142 -0.4286 -2.1995 -2.2335
  960MOL0     H29539   7.213   3.013   6.022  0.0331  1.9735  0.4733
  960MOL0     H29540   7.180   2.895   6.148 -0.5893 -0.0059  1.3290
  960MOL0     H29541   6.963   3.017   6.104 -0.2605 -0.8017  2.2340
  960MOL0     H29542   7.022   3.040   6.265  0.5551  0.3704  0.4735
  960MOL0     H29543   6.968   3.258   6.231  1.3723  0.3664  0.8756
  960MOL0     H29544   7.132   3.267   6.163  1.3196 -3.0166  2.5985
  960MOL0     H29545   6.883   3.204   6.015  1.0457 -2.6584  2.6096
  960MOL0     H29546   6.930   3.370   6.051  3.2683  0.5369  2.0528
  960MOL0     H29547   7.150   3.347   5.891  3.1324 -2.8835 -1.9613
  960MOL0     H29548   7.106   3.186   5.876  0.3968  0.4639  2.1076
  960MOL0     H29549   6.857   3.264   5.808  0.4694  0.2319  2.2711
  960MOL0     H29550   7.002   3.258   5.699  3.1408  2.5906  0.0822
  960MOL0     H29551   6.835   3.515   5.912  2.5837 -1.5902  0.0165
  960MOL0     H29552   6.750   3.779   5.841 -0.2406  1.9475  0.2432
  960MOL0     H29553   6.782   3.839   5.680 -0.8407  0.9928 -0.2195
  960MOL0     H29554   6.580   3.613   5.738  2.2693 -0.4700 -0.6570
  960MOL0     H29555   6.595   3.708   5.591  2.7149  0.8998 -0.7672
  960MOL0     H29556   6.514   3.914   5.726 -3.5012  0.2081 -3.2432
  960MOL0     H29557   6.477   3.817   5.869 -1.6326  1.0265 -0.1311
  960MOL0     H29558   6.276   3.831   5.768  0.3300  1.2497 -1.5335
  960MOL0     H29559   6.334   3.670   5.725  0.8701 -0.0420  0.4055
  960MOL0     H29560   6.361   3.653   5.382 -0.1356  0.2331  0.2561
  960MOL0     H29561   6.146   3.431   5.248  0.4844 -0.4692 -0.8833
  960MOL0     H29562   6.180   3.572   5.134 -1.7399  1.2917  0.2903
  960MOL0     H29563   6.300   3.500   5.241  0.1104 -0.9464 -1.1342
  960MOL0     H29564   5.582   3.748   5.346 -2.2799  0.8849 -2.4933
  960MOL0     H29565   5.339   3.646   5.321  1.9136  2.7127 -1.3149
  960MOL0     H29566   5.208   3.517   5.239 -2.3952  0.8510 -0.5098
  960MOL0     H29567   5.141   3.357   5.234 -0.8563  1.5391 -1.3718
  960MOL0     H29568   5.017   3.421   5.460  1.4645  1.1981  2.2155
  960MOL0     H29569   5.101   3.576   5.444  0.0115  1.4706 -2.0952
  960MOL0     H29570   4.866   3.497   5.316 -1.6575  4.5977 -1.1279
  960MOL0     H29571   4.979   3.499   5.186  1.8020  0.9694 -0.2486
  960MOL0     H29572   4.858   3.717   5.210 -2.5753 -2.1945  0.8906
  960MOL0     H29573   4.893   3.724   5.384 -1.4093 -3.2394  1.2132
  960MOL0     H29574   5.102   3.702   5.154  0.7091 -1.3945  1.2426
  960MOL0     H29575   5.146   3.781   5.299  1.1388  0.6077 -1.3959
  960MOL0     H29576   5.140   3.927   5.118  1.7760  0.0696  1.9960
  960MOL0     H29577   4.967   3.885   5.082  0.9383 -1.4567 -1.2004
  960MOL0     H29578   5.089   4.019   5.331  0.4252  3.8476 -0.2865
  960MOL0     H29579   4.912   3.975   5.302 -0.9461  1.2211 -1.2864
  960MOL0     H29580   4.940   4.138   5.107 -1.6545 -2.4777  0.4383
  960MOL0     H29581   5.103   4.179   5.163 -1.7940  0.7162 -0.2940
  960MOL0     H29582   5.513   3.275   5.467 -1.6402 -0.0772 -0.6461
  960MOL0     H29583   5.735   3.381   5.445 -1.1972 -0.4112 -0.9685
  960MOL0     H29584   5.911   3.804   5.495  0.4447 -0.8076  2.3806
  960MOL0     H29585   6.099   3.882   5.623  0.2568  0.1606 -1.0769
  960MOL0     H29586   7.496   2.736   5.976  0.2085  0.3716  0.0287
  960MOL0     H29587   7.590   2.507   6.011  1.6918 -1.0051  0.6728
  960MOL0     H29588   7.873   2.225   6.188 -0.8721  2.5027  2.1605
  960MOL0     H29589   7.983   2.008   6.246  0.8197 -0.7212  1.4462
  960MOL0     H29590   7.990   1.669   6.308 -0.6008  0.1029 -1.5336
  960MOL0     H29591   7.990   1.820   6.225  1.3857 -0.4849 -0.6991
  960MOL0     H29592   8.145   1.913   6.414  3.1071 -0.6924  2.6592
  960MOL0     H29593   8.211   1.780   6.321 -0.3043 -3.7256 -0.3001
  960MOL0     H29594   8.165   1.631   6.517  0.5926 -0.9084  4.0702
  960MOL0     H29595   8.081   1.760   6.583 -0.5177 -1.9858 -1.2407
  960MOL0     H29596   8.370   1.805   6.514 -0.3361  2.7096  1.1507
  960MOL0     H29597   8.329   1.751   6.683  0.7810 -0.8734 -0.0524
  960MOL0     H29598   8.233   2.111   6.775 -0.7239 -0.3150  1.3609
  960MOL0     H29599   7.690   1.905   6.531  3.7068 -0.9700  1.1763
  960MOL0     H29600   7.587   2.144   6.502  0.3235  3.1472 -2.2586
  961MOL0     O29601  11.064   2.038   2.255  0.4077 -0.0247 -0.6016
  961MOL0     C29602  11.172   2.024   2.217 -0.4989 -0.4782 -0.0740
  961MOL0     O29603  11.206   1.932   2.120 -0.2656  0.0720  0.2703
  961MOL0     C29604  11.118   1.879   2.025 -0.0963 -0.6883 -0.9910
  961MOL0     C29605  10.993   1.932   1.986  0.2315  0.0978  0.0140
  961MOL0     C29606  10.913   1.873   1.885 -0.4097 -0.0424  0.9507
  961MOL0     C29607  10.962   1.770   1.811 -0.2545  0.8681 -0.5772
  961MOL0     O29608  10.899   1.702   1.707 -0.3528  0.4746  0.7508
  961MOL0     C29609  10.793   1.615   1.760 -0.2701  0.0278  0.8250
  961MOL0     C29610  10.696   1.561   1.655  0.1251 -0.2457  0.4579
  961MOL0     C29611  10.575   1.479   1.710 -0.2721 -0.0116  0.4462
  961MOL0     C29612  10.496   1.445   1.584 -0.3687 -0.2737  0.4839
  961MOL0     C29613  10.405   1.324   1.618  0.7898  0.1335 -0.7193
  961MOL0     C29614  10.343   1.260   1.499 -0.7908  0.0488 -0.2496
  961MOL0     C29615  10.438   1.241   1.383  0.4900  0.0387 -0.0457
  961MOL0     C29616  10.552   1.135   1.405 -0.1125  0.0427  0.3361
  961MOL0     N29617  10.510   1.007   1.352  1.0356 -0.0132 -0.3047
  961MOL0     C29618  10.530   0.963   1.221  0.1066  0.0186 -0.9489
  961MOL0     C29619  10.436   0.863   1.215 -0.2076  0.5643  0.5106
  961MOL0     C29620  10.416   0.760   1.110 -0.6221 -0.3778  0.5774
  961MOL0     C29621  10.399   0.815   0.975  1.2089  0.3664 -0.0108
  961MOL0     C29622  10.322   0.723   0.876  0.2896  0.2428 -0.3536
  961MOL0     C29623  10.173   0.715   0.904 -0.3638 -0.1963  0.6978
  961MOL0     O29624  10.142   0.577   0.918  1.0693 -0.0535  0.0055
  961MOL0     C29625  10.129   0.515   0.799 -0.4438 -0.7268 -0.4731
  961MOL0     C29626  10.046   0.562   0.698  0.2390  0.1893  0.0779
  961MOL0     C29627  10.018   0.486   0.596  0.6119  0.3901 -0.4610
  961MOL0     C29628   9.907   0.535   0.503 -0.4933 -0.4520  0.4786
  961MOL0     C29629  10.082   0.361   0.570 -0.8485  0.0336 -0.1827
  961MOL0     C29630  10.057   0.262   0.465 -0.3499 -0.3273  0.9059
  961MOL0     O29631  10.150   0.171   0.426  0.1660  0.7474  1.5161
  961MOL0     C29632  10.139   0.094   0.308 -0.0834  0.1390 -0.1940
  961MOL0     C29633  10.077   0.147   0.191  0.2288  0.1919  0.4785
  961MOL0     C29634  10.059   0.077   0.074 -0.1863  0.2911 -0.2248
  961MOL0     C29635  10.113  -0.045   0.055 -1.3858 -0.3674  0.3952
  961MOL0     O29636  10.094  -0.110  -0.068 -0.1750  0.2217 -0.4359
  961MOL0     C29637  10.193  -0.200  -0.109  0.2506  0.2244  0.1122
  961MOL0     C29638  10.189  -0.238  -0.257  0.2215 -0.4153 -1.4126
  961MOL0     C29639  10.192  -0.121  -0.350 -0.0858 -0.1843 -0.0788
  961MOL0     C29640  10.148  -0.154  -0.493  0.6281  1.0418 -0.0722
  961MOL0     C29641   9.994  -0.157  -0.502  0.5672 -0.3892  0.8308
  961MOL0     C29642   9.949  -0.003  -0.531  0.1443 -0.2134 -0.2223
  961MOL0     C29643   9.804   0.006  -0.560  1.0313  0.1745 -0.3320
  961MOL0     C29644   9.774   0.007  -0.707 -0.0762  0.0581  0.3230
  961MOL0    Cl29645   9.593   0.039  -0.735  0.0570 -0.2825  0.5427
  961MOL0     C29646  10.195  -0.099   0.160 -0.5232 -0.8260 -0.8413
  961MOL0     C29647  10.197  -0.033   0.286  0.0983  0.7497  0.4119
  961MOL0     O29648   9.941   0.260   0.421 -0.4217  0.0332 -0.4632
  961MOL0     C29649  10.182   0.318   0.669 -0.7591 -0.2602 -0.4671
  961MOL0     C29650  10.197   0.388   0.786 -0.3425  0.2118  0.1225
  961MOL0     N29651  10.362   0.860   1.329 -0.3967 -0.7649  0.0711
  961MOL0     N29652  10.412   0.937   1.417  0.0174 -0.0026  0.1925
  961MOL0     C29653  11.088   1.718   1.846  0.1655  0.1495  0.5162
  961MOL0     C29654  11.165   1.780   1.951  0.6176  0.1311 -0.0062
  961MOL0     C29655  11.283   2.080   2.295 -0.8412  0.3748 -0.4201
  961MOL0     C29656  11.260   2.140   2.421  0.4345 -0.4971 -0.8512
  961MOL0     C29657  11.359   2.178   2.515  0.0377  0.3897  0.6758
  961MOL0     C29658  11.490   2.165   2.480  0.2294 -1.4243  0.9423
  961MOL0     O29659  11.583   2.234   2.562 -0.0027  0.1717  0.3024
  961MOL0     C29660  11.684   2.143   2.604  0.2904 -0.2649  0.2031
  961MOL0     C29661  11.790   2.241   2.669 -0.0357  0.0754  0.4660
  961MOL0     C29662  11.861   2.337   2.580  0.7250 -0.6081  0.0858
  961MOL0     C29663  11.991   2.400   2.639  0.1364  0.5679 -0.0312
  961MOL0     C29664  12.041   2.511   2.567  0.0634  0.1947 -0.2553
  961MOL0     C29665  12.089   2.604   2.501 -1.5844 -0.2829 -0.3903
  961MOL0     C29666  11.520   2.118   2.348  0.6381 -0.2436  0.5064
  961MOL0     C29667  11.416   2.075   2.264 -0.5766  0.0246  0.6499
  961MOL0     H29668  10.951   2.017   2.039 -1.4068 -1.8479  2.0382
  961MOL0     H29669  10.826   1.924   1.844  1.1454  1.9419 -0.0714
  961MOL0     H29670  10.834   1.532   1.819  1.4454  0.8621  0.8789
  961MOL0     H29671  10.730   1.674   1.827 -0.0986  1.1931 -0.0164
  961MOL0     H29672  10.662   1.646   1.594 -0.1760 -1.3193 -0.9203
  961MOL0     H29673  10.757   1.503   1.586  1.9234  0.7405  1.1580
  961MOL0     H29674  10.616   1.391   1.760  3.8458  0.5705 -1.4642
  961MOL0     H29675  10.512   1.539   1.776 -1.2568 -1.1610  0.5818
  961MOL0     H29676  10.431   1.530   1.563 -0.0831 -0.2430 -0.2847
  961MOL0     H29677  10.561   1.437   1.497 -0.2745 -0.4597  0.5717
  961MOL0     H29678  10.464   1.244   1.663 -0.9444 -0.4042  0.7198
  961MOL0     H29679  10.327   1.359   1.686  1.3546  1.1571 -0.5691
  961MOL0     H29680  10.299   1.164   1.528 -1.5161 -0.3320 -2.4439
  961MOL0     H29681  10.255   1.317   1.466 -2.0938 -1.9217 -0.3224
  961MOL0     H29682  10.367   1.214   1.303 -4.1980  2.3877  2.8625
  961MOL0     H29683  10.482   1.325   1.329 -2.9951  0.9998 -1.6705
  961MOL0     H29684  10.580   1.124   1.510  3.3728 -2.2239 -0.6517
  961MOL0     H29685  10.645   1.163   1.354  0.5876 -3.5541 -0.6705
  961MOL0     H29686  10.607   1.008   1.158  1.2605  3.6523  2.5697
  961MOL0     H29687  10.509   0.703   1.107 -0.4478 -0.2266  2.0961
  961MOL0     H29688  10.323   0.708   1.134 -3.0561  3.8201  1.3991
  961MOL0     H29689  10.487   0.855   0.924 -1.4261  3.2675 -2.7315
  961MOL0     H29690  10.343   0.908   0.992  1.0023 -0.0020  1.4717
  961MOL0     H29691  10.371   0.628   0.901  1.4831  0.8858 -0.1580
  961MOL0     H29692  10.345   0.752   0.774  3.1527  0.4211  0.2426
  961MOL0     H29693  10.118   0.756   0.818 -3.1185  1.0775  2.8907
  961MOL0     H29694  10.140   0.778   0.987  0.5085 -1.2045  1.8386
  961MOL0     H29695   9.988   0.651   0.718  1.7375  1.6050 -1.5909
  961MOL0     H29696   9.812   0.484   0.520 -0.8360  0.3111  0.8781
  961MOL0     H29697   9.900   0.639   0.533  0.3466 -1.3565  4.3335
  961MOL0     H29698   9.926   0.528   0.395 -1.6530 -2.2157  0.3400
  961MOL0     H29699  10.039   0.249   0.199 -1.7594 -0.4337 -0.4326
  961MOL0     H29700  10.003   0.134   0.001  0.5866  2.6079  0.8769
  961MOL0     H29701  10.289  -0.160  -0.077 -0.0551 -0.4218  1.9472
  961MOL0     H29702  10.174  -0.297  -0.062 -0.4797 -0.8720 -2.2658
  961MOL0     H29703  10.280  -0.296  -0.277  1.5461  1.0255  0.1550
  961MOL0     H29704  10.096  -0.294  -0.276  0.5777 -1.1222 -1.1094
  961MOL0     H29705  10.295  -0.084  -0.354  0.9096 -2.5100  1.5306
  961MOL0     H29706  10.135  -0.036  -0.311 -1.4771 -0.6017 -1.1276
  961MOL0     H29707  10.190  -0.084  -0.565  1.7294 -0.0313 -0.5168
  961MOL0     H29708  10.183  -0.256  -0.513  0.3021  0.3591  2.4242
  961MOL0     H29709   9.954  -0.190  -0.405  2.4726 -1.6057  1.2678
  961MOL0     H29710   9.963  -0.227  -0.581 -0.4218  0.5416  0.3735
  961MOL0     H29711   9.972   0.055  -0.441 -1.5787 -0.4225  0.3918
  961MOL0     H29712  10.015   0.027  -0.613  1.1075  1.2398  1.0290
  961MOL0     H29713   9.755   0.078  -0.493  0.8881 -1.1311  1.0095
  961MOL0     H29714   9.749  -0.081  -0.523  0.0811 -0.1243 -2.2566
  961MOL0     H29715   9.802  -0.086  -0.757 -1.3369  0.7605 -1.8403
  961MOL0     H29716   9.832   0.091  -0.748 -0.1886  0.4030  0.8567
  961MOL0     H29717  10.217  -0.206   0.168  1.0796 -0.4021  3.3873
  961MOL0     H29718  10.245  -0.089   0.365  3.8997 -2.1480 -3.4420
  961MOL0     H29719  10.217   0.216   0.664  2.9044  0.6875  1.8295
  961MOL0     H29720  10.235   0.335   0.874 -0.2957  0.7394  0.4238
  961MOL0     H29721  11.143   1.632   1.809 -1.6171 -1.0651  0.5891
  961MOL0     H29722  11.268   1.756   1.975 -0.2075 -2.3406  1.4559
  961MOL0     H29723  11.158   2.151   2.455  1.5909 -0.8289  3.2512
  961MOL0     H29724  11.331   2.208   2.615  1.9538 -0.9924  1.6907
  961MOL0     H29725  11.648   2.062   2.668 -1.0821  1.3508  1.5959
  961MOL0     H29726  11.734   2.087   2.524 -2.2214 -5.2815  1.7366
  961MOL0     H29727  11.872   2.183   2.712 -1.2365 -0.7101  1.7762
  961MOL0     H29728  11.739   2.288   2.753  2.3632 -0.7576  2.5260
  961MOL0     H29729  11.792   2.419   2.556  0.3679 -1.4939 -2.1499
  961MOL0     H29730  11.875   2.291   2.481  2.6813 -2.7044  1.2365
  961MOL0     H29731  12.066   2.321   2.637 -0.7308 -0.2716 -0.2990
  961MOL0     H29732  11.971   2.435   2.741 -0.3756 -0.4533  0.2417
  961MOL0     H29733  12.149   2.674   2.448 -1.5203  0.2810  0.3987
  961MOL0     H29734  11.616   2.133   2.300  0.0298 -0.7878 -0.9506
  961MOL0     H29735  11.429   2.042   2.161  1.8960  0.0856  0.8818
  962MOL0     O29736   0.844   2.055   8.623  0.0049 -0.0345 -0.1584
  962MOL0     C29737   0.912   2.149   8.664  0.2262 -0.2259  0.8113
  962MOL0     O29738   0.880   2.284   8.644 -0.4033 -0.2638 -0.2378
  962MOL0     C29739   0.759   2.336   8.610 -0.4827 -0.2972  0.2527
  962MOL0     C29740   0.650   2.260   8.562 -0.5261 -0.0072  0.8874
  962MOL0     C29741   0.530   2.320   8.559  0.2793 -0.0061  0.1997
  962MOL0     C29742   0.507   2.457   8.572 -0.9578 -0.4797 -0.0997
  962MOL0     O29743   0.379   2.505   8.559  0.4017 -0.2873  0.1568
  962MOL0     C29744   0.351   2.644   8.548 -0.4191  0.6816 -0.7589
  962MOL0     C29745   0.206   2.653   8.574  0.6569 -0.5928 -0.7993
  962MOL0     C29746   0.152   2.602   8.708  0.3731  0.1788  0.2486
  962MOL0     C29747   0.001   2.633   8.729  0.9017  0.1101 -0.0625
  962MOL0     C29748  -0.027   2.776   8.763 -0.7418  0.2521  0.1668
  962MOL0     C29749  -0.167   2.805   8.808 -0.2483  0.4659  1.0538
  962MOL0     C29750  -0.173   2.947   8.859  0.6620  0.2512  0.7467
  962MOL0     C29751  -0.203   3.052   8.757 -0.1975 -0.8247  0.3468
  962MOL0     N29752  -0.336   3.041   8.696  0.1550  0.7669 -0.3935
  962MOL0     C29753  -0.448   3.093   8.759 -0.4631  0.4181  0.3491
  962MOL0     C29754  -0.552   3.088   8.672  0.6357  0.5646  0.5732
  962MOL0     C29755  -0.692   3.133   8.701  0.2816  0.3807  0.1371
  962MOL0     C29756  -0.712   3.289   8.668  0.1805 -0.2708  0.0032
  962MOL0     C29757  -0.696   3.325   8.513 -0.4406  0.9602 -0.3696
  962MOL0     C29758  -0.820   3.262   8.444 -0.5157 -0.2596 -0.0754
  962MOL0     O29759  -0.829   3.319   8.310 -0.3663  0.1733 -0.6723
  962MOL0     C29760  -0.939   3.277   8.234  0.2318 -0.2219 -0.3613
  962MOL0     C29761  -1.050   3.196   8.280  0.1328  0.0642  0.1703
  962MOL0     C29762  -1.157   3.164   8.194 -0.7190 -0.7333  0.4462
  962MOL0     C29763  -1.280   3.108   8.256  0.7308 -0.2407 -0.2507
  962MOL0     C29764  -1.143   3.183   8.050  0.3410  0.3795  0.2634
  962MOL0     C29765  -1.255   3.160   7.952  0.1402  0.5122  0.3969
  962MOL0     O29766  -1.223   3.106   7.829  0.1867  0.7162  0.4811
  962MOL0     C29767  -1.322   3.089   7.740 -0.0940 -1.4953  0.1320
  962MOL0     C29768  -1.315   3.146   7.612  0.2369 -0.8324 -0.3401
  962MOL0     C29769  -1.430   3.147   7.532 -0.0049 -0.1986  0.2639
  962MOL0     C29770  -1.536   3.065   7.556 -0.8093  0.4560 -0.1586
  962MOL0     O29771  -1.643   3.053   7.467 -0.2342  1.4867  0.2564
  962MOL0     C29772  -1.612   3.052   7.331  0.2803 -0.7552 -0.0679
  962MOL0     C29773  -1.718   2.949   7.276 -0.0074  1.9156 -0.1037
  962MOL0     C29774  -1.710   2.803   7.314 -0.0952 -0.8498  0.5751
  962MOL0     C29775  -1.780   2.707   7.214  0.3929  0.2922  0.2908
  962MOL0     C29776  -1.937   2.739   7.201 -0.0072  0.1986 -0.0411
  962MOL0     C29777  -1.997   2.722   7.336  0.5467 -0.1765 -0.0079
  962MOL0     C29778  -2.144   2.718   7.328  0.0182 -0.2220 -0.3789
  962MOL0     C29779  -2.207   2.647   7.445  0.8035 -0.4045  0.5209
  962MOL0    Cl29780  -2.180   2.732   7.594  0.4258  0.2330 -0.2096
  962MOL0     C29781  -1.536   2.983   7.674 -1.2078 -0.7874 -0.1836
  962MOL0     C29782  -1.428   2.999   7.768  0.4144  0.2189 -0.1438
  962MOL0     O29783  -1.367   3.200   7.982  0.4910  0.2826  0.1888
  962MOL0     C29784  -1.027   3.242   8.003 -0.6585 -0.2782 -0.8276
  962MOL0     C29785  -0.932   3.296   8.093 -0.1523 -0.7309 -0.2998
  962MOL0     N29786  -0.499   3.028   8.559  0.0163  0.2011 -0.7565
  962MOL0     N29787  -0.372   3.009   8.572  0.1898  0.0613  0.2450
  962MOL0     C29788   0.616   2.541   8.610 -0.4722  0.0594 -0.2794
  962MOL0     C29789   0.741   2.481   8.635 -0.6123 -0.0660 -0.0989
  962MOL0     C29790   1.034   2.121   8.731  0.3316 -0.1518  0.1645
  962MOL0     C29791   1.063   1.986   8.775  0.1560 -0.2890 -0.6028
  962MOL0     C29792   1.168   1.962   8.866  0.2372  1.2329 -0.0380
  962MOL0     C29793   1.244   2.060   8.912  0.0727 -0.6653  0.3567
  962MOL0     O29794   1.341   2.030   9.003  0.9352 -0.0696  0.4353
  962MOL0     C29795   1.474   2.030   8.950  0.7603  0.2553 -0.4406
  962MOL0     C29796   1.572   2.035   9.067 -0.1732 -0.4050  0.2471
  962MOL0     C29797   1.720   2.002   9.033 -0.6109  0.7811 -0.2142
  962MOL0     C29798   1.815   2.003   9.160  0.2971  0.1260 -0.8284
  962MOL0     C29799   1.813   2.124   9.237 -0.0940 -0.2831 -1.0102
  962MOL0     C29800   1.827   2.231   9.299  0.1904 -0.3370  0.1666
  962MOL0     C29801   1.220   2.194   8.874  0.2904 -0.4675 -0.0158
  962MOL0     C29802   1.123   2.220   8.777  0.4511 -0.3923 -0.0038
  962MOL0     H29803   0.656   2.153   8.544  1.7315  0.1624  0.3298
  962MOL0     H29804   0.443   2.257   8.542 -1.8929  3.1771 -1.6714
  962MOL0     H29805   0.395   2.707   8.626  0.8696  1.5347 -2.1195
  962MOL0     H29806   0.381   2.693   8.454 -1.6699 -0.6443 -1.8977
  962MOL0     H29807   0.167   2.752   8.548  1.7515 -1.0058 -4.7222
  962MOL0     H29808   0.152   2.584   8.508 -1.6686  0.3521  0.0173
  962MOL0     H29809   0.168   2.494   8.703  0.0749  0.1712 -1.0906
  962MOL0     H29810   0.208   2.651   8.788 -0.5996  2.0030 -0.1434
  962MOL0     H29811  -0.050   2.614   8.634 -1.0126  1.2902  0.6618
  962MOL0     H29812  -0.035   2.557   8.799  1.5991  0.6761  0.9447
  962MOL0     H29813   0.035   2.806   8.848 -0.0551 -2.1894  0.5948
  962MOL0     H29814   0.005   2.841   8.680  2.1579  0.4447  1.3218
  962MOL0     H29815  -0.242   2.789   8.730  0.9776  3.7817 -1.0246
  962MOL0     H29816  -0.191   2.736   8.890  0.0131 -2.1618 -0.9631
  962MOL0     H29817  -0.257   2.950   8.929  0.9066 -0.7418  1.0955
  962MOL0     H29818  -0.079   2.975   8.908 -0.2250  0.7527  2.2543
  962MOL0     H29819  -0.125   3.028   8.684  1.1248  1.8467  0.7825
  962MOL0     H29820  -0.194   3.153   8.797 -2.0367 -0.4681 -0.0525
  962MOL0     H29821  -0.461   3.130   8.860 -2.2736  1.4173 -0.2159
  962MOL0     H29822  -0.774   3.084   8.647 -0.8887  2.7289 -0.3873
  962MOL0     H29823  -0.707   3.116   8.807 -2.2803 -1.3584 -0.4142
  962MOL0     H29824  -0.643   3.347   8.729 -0.7910 -0.9593  1.8120
  962MOL0     H29825  -0.811   3.323   8.697  0.7472  0.9570  0.5840
  962MOL0     H29826  -0.608   3.281   8.466 -0.3145  2.4047 -1.5610
  962MOL0     H29827  -0.703   3.430   8.482 -0.4136  0.3877 -2.4438
  962MOL0     H29828  -0.913   3.312   8.473 -1.0407 -0.3560 -1.5232
  962MOL0     H29829  -0.816   3.153   8.435 -0.1658 -0.1238 -2.0773
  962MOL0     H29830  -1.081   3.195   8.384 -1.3127 -3.2085 -0.1728
  962MOL0     H29831  -1.297   3.006   8.222  1.3038 -0.4785  0.1581
  962MOL0     H29832  -1.282   3.096   8.365 -1.5264 -1.4051 -0.3676
  962MOL0     H29833  -1.365   3.169   8.223  1.3593 -1.5279 -5.0381
  962MOL0     H29834  -1.239   3.217   7.581 -2.9583  2.7933 -0.5874
  962MOL0     H29835  -1.445   3.211   7.445  0.5142  1.9226  1.6579
  962MOL0     H29836  -1.620   3.153   7.289  1.9842  0.1325  1.5668
  962MOL0     H29837  -1.512   3.015   7.308 -0.1356 -0.8941 -1.8156
  962MOL0     H29838  -1.819   2.978   7.306 -0.3350 -0.1896  1.0412
  962MOL0     H29839  -1.718   2.949   7.167  3.3576 -1.2944 -0.3234
  962MOL0     H29840  -1.754   2.792   7.414 -2.2333 -1.3227 -0.3443
  962MOL0     H29841  -1.606   2.770   7.313  0.2547  0.1607 -1.6063
  962MOL0     H29842  -1.728   2.698   7.119  0.6680  0.2184  0.4464
  962MOL0     H29843  -1.768   2.608   7.259  2.6611  0.2695 -0.2290
  962MOL0     H29844  -1.977   2.662   7.133 -0.8177 -0.2603  0.9270
  962MOL0     H29845  -1.971   2.837   7.167  5.4138  2.7385  0.9517
  962MOL0     H29846  -1.977   2.621   7.373  0.5753  0.7054  2.5500
  962MOL0     H29847  -1.964   2.799   7.407 -0.3996 -1.3289  1.7495
  962MOL0     H29848  -2.173   2.666   7.237  0.3544 -2.1535  0.5471
  962MOL0     H29849  -2.187   2.818   7.320  2.3221  0.9564  0.6850
  962MOL0     H29850  -2.169   2.544   7.453  4.7971  0.9191  0.6890
  962MOL0     H29851  -2.315   2.642   7.428  0.4782  3.0221  0.8612
  962MOL0     H29852  -1.617   2.912   7.690  0.0957 -2.0353  1.2018
  962MOL0     H29853  -1.431   2.934   7.855  1.6784 -1.5973 -1.3732
  962MOL0     H29854  -1.023   3.267   7.897 -0.2960  1.9585 -0.3481
  962MOL0     H29855  -0.846   3.356   8.066  0.2086 -1.8095 -1.6310
  962MOL0     H29856   0.620   2.649   8.618 -0.1731  0.0182  0.1520
  962MOL0     H29857   0.824   2.548   8.656 -1.1006  0.4334  0.2856
  962MOL0     H29858   1.011   1.897   8.740 -0.7070 -0.3385  0.7478
  962MOL0     H29859   1.172   1.858   8.899 -1.8874  0.6742 -1.3064
  962MOL0     H29860   1.490   1.947   8.881 -0.9690  0.8786 -1.6547
  962MOL0     H29861   1.482   2.127   8.899 -0.0252 -0.3530 -1.7537
  962MOL0     H29862   1.538   1.956   9.135 -2.4613 -1.1067 -1.5645
  962MOL0     H29863   1.560   2.136   9.107 -3.8267 -0.7555  0.3530
  962MOL0     H29864   1.763   2.077   8.966  0.7434 -1.3310 -1.8431
  962MOL0     H29865   1.718   1.910   8.975 -0.6946  1.7873 -1.8761
  962MOL0     H29866   1.919   1.987   9.127  0.7628 -0.8473  0.9966
  962MOL0     H29867   1.804   1.912   9.218  0.3380  1.3455  1.1984
  962MOL0     H29868   1.826   2.320   9.358  1.3021 -1.4121  1.9384
  962MOL0     H29869   1.283   2.274   8.914  3.1756 -0.9814 -3.0445
  962MOL0     H29870   1.091   2.324   8.769 -0.4771 -0.7626 -1.5334
  963MOL0     O29871   7.296   3.129  11.378 -1.1084  0.1484 -0.4580
  963MOL0     C29872   7.303   3.087  11.492 -0.1736  0.2825 -0.8031
  963MOL0     O29873   7.365   2.971  11.530 -0.6381 -0.2820 -0.2521
  963MOL0     C29874   7.426   2.887  11.436 -0.0951 -0.4822 -1.1529
  963MOL0     C29875   7.562   2.865  11.459  0.2493 -0.0020 -0.1493
  963MOL0     C29876   7.625   2.772  11.382  1.3153  0.0393 -0.4652
  963MOL0     C29877   7.571   2.702  11.280 -0.3082 -0.4549 -0.5016
  963MOL0     O29878   7.636   2.616  11.194  0.5300  0.9637  0.6545
  963MOL0     C29879   7.775   2.602  11.215  0.2306 -1.3223 -0.4887
  963MOL0     C29880   7.838   2.495  11.138 -0.8635 -0.0821  0.6304
  963MOL0     C29881   7.778   2.358  11.139  0.0377 -0.2857 -0.4663
  963MOL0     C29882   7.854   2.253  11.047 -0.8051  0.7083 -0.4644
  963MOL0     C29883   7.928   2.145  11.132  0.0490  0.7578 -0.5777
  963MOL0     C29884   7.967   2.022  11.047  0.4949 -1.7336  1.2693
  963MOL0     C29885   8.049   2.064  10.925  0.4893  0.3271 -0.1063
  963MOL0     C29886   8.153   1.960  10.866 -0.6606 -1.1161  0.1300
  963MOL0     N29887   8.282   1.991  10.929  0.9109  0.1873 -0.5421
  963MOL0     C29888   8.373   2.086  10.884  0.6348  1.1339 -0.3555
  963MOL0     C29889   8.458   2.086  10.993  0.6343  0.1333 -0.3209
  963MOL0     C29890   8.578   2.176  11.018 -0.3929 -0.6470  0.3501
  963MOL0     C29891   8.532   2.304  11.083 -0.2900 -0.0376  0.9040
  963MOL0     C29892   8.518   2.430  10.993 -0.1270  0.3205  1.2613
  963MOL0     C29893   8.446   2.541  11.059 -1.3527 -0.4767 -0.8148
  963MOL0     O29894   8.316   2.494  11.098 -0.7700 -0.0984  0.6408
  963MOL0     C29895   8.217   2.557  11.019 -0.8079 -0.2070 -1.0313
  963MOL0     C29896   8.171   2.477  10.910  0.2536 -0.6393  0.5398
  963MOL0     C29897   8.068   2.526  10.827 -1.0141 -0.1219  1.3498
  963MOL0     C29898   8.013   2.440  10.717 -0.0421 -0.1991  0.3808
  963MOL0     C29899   8.020   2.657  10.852 -0.0250 -0.2053 -0.3510
  963MOL0     C29900   7.928   2.719  10.764  0.7340 -0.6326  0.3646
  963MOL0     O29901   7.875   2.837  10.816 -0.8323  0.2178 -0.4031
  963MOL0     C29902   7.775   2.900  10.745  0.4531  0.0815  0.2160
  963MOL0     C29903   7.794   2.950  10.611  0.1470 -0.4595 -0.2670
  963MOL0     C29904   7.685   3.013  10.548 -0.2639 -0.0745 -0.2631
  963MOL0     C29905   7.561   3.020  10.616  1.0577  0.7222  1.0853
  963MOL0     O29906   7.463   3.074  10.534  0.0253 -0.1754  0.2217
  963MOL0     C29907   7.328   3.097  10.588  0.2353  0.2284 -0.0008
  963MOL0     C29908   7.233   3.134  10.474  0.7533 -0.7761  0.3249
  963MOL0     C29909   7.296   3.228  10.363  0.1791  0.5406  0.0361
  963MOL0     C29910   7.198   3.294  10.280 -0.2863 -0.1069  0.4629
  963MOL0     C29911   7.260   3.340  10.158 -0.7988  0.0593 -0.0011
  963MOL0     C29912   7.164   3.436  10.072  0.6904  0.1656 -0.1476
  963MOL0     C29913   7.250   3.533   9.997 -0.3747  0.4101  0.6080
  963MOL0     C29914   7.162   3.632   9.919  0.0651 -0.5696 -0.3769
  963MOL0    Cl29915   7.069   3.572   9.774  0.1296 -0.1113 -0.1616
  963MOL0     C29916   7.545   2.977  10.746 -0.1283  1.0864 -0.1480
  963MOL0     C29917   7.652   2.918  10.818 -0.4232 -0.1862 -0.0419
  963MOL0     O29918   7.907   2.683  10.648 -0.5160  0.2588  0.6702
  963MOL0     C29919   8.066   2.727  10.963  0.1426  0.5884  0.5999
  963MOL0     C29920   8.173   2.679  11.048  0.2710  0.3802 -0.1990
  963MOL0     N29921   8.431   1.981  11.079  0.5881 -0.3300  0.7470
  963MOL0     N29922   8.326   1.924  11.033 -0.1686 -0.6181 -0.9256
  963MOL0     C29923   7.430   2.719  11.266 -0.3300  1.0381  0.9965
  963MOL0     C29924   7.358   2.813  11.342 -0.5430  0.1345 -0.6610
  963MOL0     C29925   7.231   3.167  11.591  0.4732  1.1664 -0.4060
  963MOL0     C29926   7.242   3.134  11.729  0.2228 -0.0469  0.2284
  963MOL0     C29927   7.194   3.225  11.822 -0.0992  0.1547 -0.6768
  963MOL0     C29928   7.127   3.340  11.783 -0.2861  0.5886  0.0773
  963MOL0     O29929   7.063   3.405  11.885  0.1114  0.5049  0.5369
  963MOL0     C29930   6.923   3.417  11.884  0.0701 -0.2769 -0.5943
  963MOL0     C29931   6.891   3.554  11.863  0.2639 -0.0073  0.3676
  963MOL0     C29932   6.747   3.588  11.885 -0.2960  0.5593  0.0893
  963MOL0     C29933   6.718   3.733  11.870 -0.3779 -0.0581 -0.1367
  963MOL0     C29934   6.574   3.757  11.851 -0.2580 -0.0535 -0.3620
  963MOL0     C29935   6.460   3.781  11.818  0.4236  0.1671  0.5928
  963MOL0     C29936   7.099   3.356  11.650  0.0528 -0.3616 -0.6718
  963MOL0     C29937   7.163   3.280  11.553 -0.2824 -0.3570 -0.4198
  963MOL0     H29938   7.623   2.920  11.529 -1.7475 -0.0910  1.7649
  963MOL0     H29939   7.733   2.782  11.394  1.3711  2.5261 -2.1054
  963MOL0     H29940   7.831   2.696  11.210 -0.6969 -0.7391 -0.1492
  963MOL0     H29941   7.792   2.566  11.317  0.8385 -1.5909 -0.6797
  963MOL0     H29942   7.840   2.530  11.035 -0.4842 -0.7127  0.4179
  963MOL0     H29943   7.943   2.494  11.171 -1.6803 -0.4744  3.4799
  963MOL0     H29944   7.780   2.334  11.245 -1.4707 -0.1583 -0.3828
  963MOL0     H29945   7.672   2.365  11.112  0.0797  1.3717 -0.3126
  963MOL0     H29946   7.781   2.200  10.985 -1.0216 -0.8593  1.0627
  963MOL0     H29947   7.926   2.301  10.980 -1.0934  1.7225 -0.0656
  963MOL0     H29948   8.023   2.173  11.180 -0.4157  3.0844 -0.8974
  963MOL0     H29949   7.862   2.108  11.212  1.2053  0.7543  0.4168
  963MOL0     H29950   8.027   1.955  11.109  2.0379  0.3225  2.1167
  963MOL0     H29951   7.874   1.974  11.014 -0.5847  0.6851  0.5959
  963MOL0     H29952   7.979   2.088  10.845  1.1840  1.2364 -0.4540
  963MOL0     H29953   8.103   2.153  10.956  2.3513  0.0877 -2.4610
  963MOL0     H29954   8.162   1.954  10.757 -1.2439 -0.6985  0.0517
  963MOL0     H29955   8.121   1.860  10.895  1.1407 -2.0090 -0.8287
  963MOL0     H29956   8.348   2.148  10.799 -0.3760  1.3518  0.0792
  963MOL0     H29957   8.646   2.116  11.079  0.5412 -1.7882 -1.7322
  963MOL0     H29958   8.617   2.209  10.921 -3.9117 -0.8707 -1.3020
  963MOL0     H29959   8.593   2.338  11.167  1.3277 -2.2010  0.6645
  963MOL0     H29960   8.438   2.289  11.138 -1.1398  0.2080 -0.4208
  963MOL0     H29961   8.460   2.389  10.910  0.9957 -0.6838  0.9455
  963MOL0     H29962   8.613   2.463  10.950 -0.8836  3.2549  1.6681
  963MOL0     H29963   8.445   2.609  10.974  0.9054 -0.4731 -0.9199
  963MOL0     H29964   8.507   2.572  11.145  0.8398  1.7353 -2.9714
  963MOL0     H29965   8.210   2.380  10.881 -0.9862 -0.3662 -2.3615
  963MOL0     H29966   8.051   2.337  10.714  1.5144  0.3802 -2.6020
  963MOL0     H29967   7.905   2.445  10.726  0.0693  2.9870  1.1879
  963MOL0     H29968   8.039   2.488  10.623  2.2399 -1.4724  0.2753
  963MOL0     H29969   7.881   2.914  10.556 -2.3159 -2.6593 -3.0305
  963MOL0     H29970   7.687   3.038  10.442 -2.6464 -1.0617 -0.6228
  963MOL0     H29971   7.288   3.012  10.645  1.5328 -0.7108 -0.4512
  963MOL0     H29972   7.339   3.183  10.655  1.5951  1.7170 -2.0271
  963MOL0     H29973   7.195   3.049  10.417 -1.0005 -0.8825  1.5677
  963MOL0     H29974   7.145   3.179  10.522 -1.6735 -1.8194 -2.8104
  963MOL0     H29975   7.355   3.164  10.298 -0.1817  0.6591 -0.4138
  963MOL0     H29976   7.356   3.302  10.417  1.1963 -0.2987  0.0750
  963MOL0     H29977   7.123   3.219  10.251 -1.7572  1.4844 -0.0223
  963MOL0     H29978   7.144   3.374  10.331  0.5160  0.5949  0.2246
  963MOL0     H29979   7.298   3.255  10.100  4.0035  3.7906 -3.1004
  963MOL0     H29980   7.348   3.400  10.184 -1.0619  0.3196  0.2923
  963MOL0     H29981   7.096   3.383  10.004  0.1510  0.6837 -0.0223
  963MOL0     H29982   7.096   3.487  10.141 -0.6839 -1.2630 -0.3865
  963MOL0     H29983   7.318   3.479   9.932 -3.2358 -1.6916 -0.8834
  963MOL0     H29984   7.309   3.600  10.060 -0.3817  1.1130 -0.1200
  963MOL0     H29985   7.220   3.715   9.879 -1.0323 -0.0729 -0.9922
  963MOL0     H29986   7.085   3.680   9.980  1.0979 -0.5924  1.0023
  963MOL0     H29987   7.452   2.980  10.802 -1.0015 -1.5781 -1.2909
  963MOL0     H29988   7.632   2.876  10.916  1.0031 -0.9333 -0.0364
  963MOL0     H29989   8.029   2.827  10.980  1.3615  1.4624 -1.5450
  963MOL0     H29990   8.212   2.735  11.133 -4.3525  1.6760  1.3360
  963MOL0     H29991   7.377   2.657  11.194  1.7522  0.8584 -0.4532
  963MOL0     H29992   7.253   2.837  11.324  0.2104  2.8150 -2.0818
  963MOL0     H29993   7.285   3.041  11.763 -0.9859 -0.5362  0.4690
  963MOL0     H29994   7.200   3.214  11.930  0.9135  2.4922 -0.4327
  963MOL0     H29995   6.877   3.355  11.806 -2.5343 -0.4623  0.9435
  963MOL0     H29996   6.882   3.386  11.981 -3.2496  2.2687 -1.0185
  963MOL0     H29997   6.932   3.584  11.766 -1.0272  1.9412  0.3632
  963MOL0     H29998   6.951   3.616  11.931  1.4775 -0.9761  0.2165
  963MOL0     H29999   6.725   3.549  11.985  0.3874 -1.5003 -0.5198
  963MOL0     H30000   6.692   3.527  11.813  0.6154 -1.1656  0.8002
  963MOL0     H30001   6.776   3.773  11.787 -2.0579  2.6455 -0.1393
  963MOL0     H30002   6.740   3.783  11.965 -1.9132 -1.2095  0.8762
  963MOL0     H30003   6.358   3.789  11.786  1.1904  1.0637 -1.8470
  963MOL0     H30004   7.039   3.443  11.624  1.4418  0.1093 -2.5368
  963MOL0     H30005   7.140   3.303  11.449 -3.0807  0.6547  0.3407
  964MOL0     O30006   6.018   5.886   3.324 -0.2960  0.1014 -0.4906
  964MOL0     C30007   6.101   5.800   3.356 -0.5976  0.1190 -0.4050
  964MOL0     O30008   6.080   5.664   3.352 -0.4136 -0.5369 -0.4664
  964MOL0     C30009   5.963   5.619   3.308  0.2216  0.5641 -0.3756
  964MOL0     C30010   5.897   5.535   3.398  0.6960  0.1767 -0.0349
  964MOL0     C30011   5.793   5.466   3.360 -0.8289 -0.7513  1.1981
  964MOL0     C30012   5.745   5.469   3.224  1.1325 -0.7066 -0.2470
  964MOL0     O30013   5.651   5.376   3.174  0.0613  0.3549 -0.0619
  964MOL0     C30014   5.560   5.328   3.278 -0.6329  0.1632 -0.4245
  964MOL0     C30015   5.424   5.296   3.227 -0.2333  0.0736  0.6112
  964MOL0     C30016   5.421   5.188   3.114 -0.4995 -0.6994 -0.8665
  964MOL0     C30017   5.281   5.138   3.096  0.0467 -0.0630 -0.0371
  964MOL0     C30018   5.270   5.017   3.002 -0.1033 -0.8524 -0.1880
  964MOL0     C30019   5.237   5.056   2.854  0.3605  0.7981 -0.5491
  964MOL0     C30020   5.175   4.938   2.782 -0.1768  0.3133  0.3692
  964MOL0     C30021   5.218   4.911   2.637  0.9718  0.0856 -0.4388
  964MOL0     N30022   5.139   4.985   2.544  0.1735  0.0726  0.0726
  964MOL0     C30023   5.044   4.923   2.460  0.2492 -0.4828  0.1709
  964MOL0     C30024   4.981   5.032   2.407  0.4859 -0.5710 -0.5148
  964MOL0     C30025   4.875   5.039   2.291 -0.1879  0.1429  0.2098
  964MOL0     C30026   4.927   5.077   2.155  0.7003  0.4454  0.5354
  964MOL0     C30027   5.004   5.211   2.143  0.4255 -0.8125  0.5347
  964MOL0     C30028   4.908   5.332   2.161 -0.1083 -0.0186 -0.0150
  964MOL0     O30029   4.814   5.361   2.061 -0.1180  0.4405 -0.7034
  964MOL0     C30030   4.700   5.423   2.104 -0.6709 -0.2107 -0.0970
  964MOL0     C30031   4.699   5.508   2.223 -0.3337 -0.0671  0.0757
  964MOL0     C30032   4.585   5.586   2.254  0.4219 -0.7510 -0.2488
  964MOL0     C30033   4.604   5.688   2.356  0.4557  1.0949 -0.1530
  964MOL0     C30034   4.458   5.555   2.184  0.7673 -0.8308 -0.3002
  964MOL0     C30035   4.323   5.629   2.202 -0.8271  0.5651  0.4345
  964MOL0     O30036   4.209   5.572   2.164  0.1645 -0.1970 -0.1556
  964MOL0     C30037   4.091   5.637   2.168  1.2685  0.4928  0.2090
  964MOL0     C30038   4.048   5.730   2.269  0.2302 -0.0671  0.2447
  964MOL0     C30039   3.914   5.777   2.268 -0.3750 -0.8151  1.1617
  964MOL0     C30040   3.820   5.740   2.178 -0.4627 -0.1569  0.6788
  964MOL0     O30041   3.686   5.774   2.177 -0.4700 -0.3217 -0.6070
  964MOL0     C30042   3.619   5.773   2.299  0.7472  0.9281 -0.1142
  964MOL0     C30043   3.476   5.803   2.262 -0.2114  0.2935  0.5679
  964MOL0     C30044   3.459   5.944   2.209  0.4440 -0.3626  0.3013
  964MOL0     C30045   3.317   5.982   2.176 -0.7379 -0.2127 -0.6850
  964MOL0     C30046   3.238   5.905   2.073 -0.8727 -0.3568 -0.2717
  964MOL0     C30047   3.307   5.904   1.943 -0.1579 -0.0533 -0.9154
  964MOL0     C30048   3.230   5.857   1.821  0.7824 -0.8232  0.2086
  964MOL0     C30049   3.095   5.945   1.803 -0.2338  0.6598 -0.3082
  964MOL0    Cl30050   2.963   5.849   1.887  0.2556 -0.5315 -0.1310
  964MOL0     C30051   3.861   5.650   2.081 -0.0879 -1.1018  0.1934
  964MOL0     C30052   3.994   5.605   2.081  0.2057 -0.1487  0.0498
  964MOL0     O30053   4.342   5.747   2.242 -0.1577 -0.6109  0.4834
  964MOL0     C30054   4.463   5.455   2.087  0.8561 -0.0673  0.2180
  964MOL0     C30055   4.586   5.401   2.033 -0.1318  0.6009 -0.0727
  964MOL0     N30056   5.017   5.146   2.484  0.1862  0.1265  0.3875
  964MOL0     N30057   5.123   5.112   2.556 -0.1001 -0.1040  0.8489
  964MOL0     C30058   5.805   5.550   3.140 -0.5864 -0.2145  0.1250
  964MOL0     C30059   5.916   5.630   3.178 -0.2559  0.5509 -0.7202
  964MOL0     C30060   6.242   5.852   3.379  0.1955  0.0992  0.7477
  964MOL0     C30061   6.359   5.775   3.390 -0.1338 -0.5592 -0.9773
  964MOL0     C30062   6.481   5.832   3.415 -0.3480 -1.0246  1.3360
  964MOL0     C30063   6.496   5.965   3.433  0.5226  0.6852 -1.0602
  964MOL0     O30064   6.627   6.001   3.465  0.8200  0.0168 -0.4134
  964MOL0     C30065   6.652   6.130   3.514 -0.4804 -0.6422 -0.6958
  964MOL0     C30066   6.781   6.136   3.595  0.6188  0.4449 -0.5024
  964MOL0     C30067   6.893   6.206   3.524 -0.9176 -0.3804 -0.2436
  964MOL0     C30068   7.021   6.218   3.615  0.8398  0.9713  0.0355
  964MOL0     C30069   7.128   6.252   3.529 -0.5656  0.4499  0.4970
  964MOL0     C30070   7.217   6.275   3.450 -0.1832 -0.9715  0.1444
  964MOL0     C30071   6.380   6.044   3.421 -0.7334 -0.0773  0.5030
  964MOL0     C30072   6.258   5.990   3.402 -0.3458 -0.4478 -0.0595
  964MOL0     H30073   5.932   5.533   3.501  1.0494  1.6490 -0.0943
  964MOL0     H30074   5.758   5.401   3.440  1.8140 -0.9452  2.3004
  964MOL0     H30075   5.610   5.240   3.321 -0.7975  0.1300 -0.3009
  964MOL0     H30076   5.549   5.406   3.353 -3.8636  2.3324 -2.8845
  964MOL0     H30077   5.361   5.260   3.309 -3.7684  1.5586 -1.2489
  964MOL0     H30078   5.377   5.389   3.194 -2.5070 -1.9203 -2.2786
  964MOL0     H30079   5.462   5.232   3.023 -1.0631 -1.8791 -1.7149
  964MOL0     H30080   5.483   5.102   3.138  0.1576 -0.2060 -0.7688
  964MOL0     H30081   5.253   5.108   3.198  0.2325  0.3902  0.1457
  964MOL0     H30082   5.216   5.222   3.071  2.8488  1.9187 -1.1081
  964MOL0     H30083   5.367   4.970   2.986  0.3723  0.7883 -2.6213
  964MOL0     H30084   5.195   4.948   3.042  2.3033 -3.1865  0.5637
  964MOL0     H30085   5.183   5.151   2.849 -0.5296  0.6944  3.6139
  964MOL0     H30086   5.335   5.073   2.808  1.9741 -2.3885  1.3687
  964MOL0     H30087   5.206   4.845   2.830 -0.7308 -1.0584 -1.7541
  964MOL0     H30088   5.065   4.941   2.786 -0.3382 -1.4828 -1.0531
  964MOL0     H30089   5.211   4.803   2.619 -1.6880  0.1975 -0.4904
  964MOL0     H30090   5.323   4.939   2.627  0.9942  0.2349  0.1558
  964MOL0     H30091   5.045   4.819   2.428  0.1533 -0.9456  1.6184
  964MOL0     H30092   4.827   4.941   2.284  2.0574 -1.2742  2.7505
  964MOL0     H30093   4.800   5.115   2.313  1.1983  1.7130 -0.2579
  964MOL0     H30094   4.840   5.087   2.090  0.6859  0.6045  0.5784
  964MOL0     H30095   4.989   5.001   2.109 -0.5716  0.5390 -1.4456
  964MOL0     H30096   5.067   5.230   2.057 -1.6544 -0.0105 -0.9017
  964MOL0     H30097   5.062   5.215   2.236  0.7269 -2.8939  0.4920
  964MOL0     H30098   4.965   5.425   2.167 -0.5156  0.3747 -1.7447
  964MOL0     H30099   4.865   5.324   2.262  4.5328  0.0413  2.2269
  964MOL0     H30100   4.790   5.529   2.278  0.1759  1.8538 -1.3864
  964MOL0     H30101   4.523   5.666   2.427  0.2851  4.6190  0.9120
  964MOL0     H30102   4.698   5.683   2.413  0.8847  0.8095 -0.8684
  964MOL0     H30103   4.594   5.785   2.308 -1.9044  1.1734  0.3795
  964MOL0     H30104   4.104   5.756   2.358  0.2165  0.8175 -0.0035
  964MOL0     H30105   3.881   5.842   2.349  0.3221 -0.0195  0.8234
  964MOL0     H30106   3.618   5.678   2.354 -0.6026  1.4604  0.8582
  964MOL0     H30107   3.670   5.839   2.370  3.0314 -1.2071  0.3578
  964MOL0     H30108   3.451   5.727   2.187  3.8491 -0.5112 -0.2180
  964MOL0     H30109   3.406   5.781   2.343 -1.4212 -1.5232 -0.8807
  964MOL0     H30110   3.529   5.963   2.128  0.0093  0.5692  0.1328
  964MOL0     H30111   3.478   5.998   2.303  0.3934  0.4709 -0.1622
  964MOL0     H30112   3.257   5.979   2.267  3.3618  3.1394  2.5761
  964MOL0     H30113   3.316   6.087   2.148  1.8064  0.1468  0.2908
  964MOL0     H30114   3.134   5.937   2.071 -0.5993  0.6404  0.6113
  964MOL0     H30115   3.221   5.802   2.107  1.0661 -0.7521 -0.3801
  964MOL0     H30116   3.339   6.008   1.930  1.4408 -0.6042 -1.6838
  964MOL0     H30117   3.397   5.841   1.948  1.6050  1.8889 -4.3508
  964MOL0     H30118   3.206   5.750   1.828 -4.6112  0.0900 -0.6518
  964MOL0     H30119   3.291   5.886   1.734  4.1282 -0.6974  2.3861
  964MOL0     H30120   3.069   5.965   1.699  1.0582  0.3781 -0.7011
  964MOL0     H30121   3.115   6.034   1.864 -0.0701  0.1999  0.3315
  964MOL0     H30122   3.797   5.621   1.999  0.8420 -0.7475 -0.6799
  964MOL0     H30123   4.031   5.531   2.010  0.3294  0.6470 -0.7362
  964MOL0     H30124   4.369   5.422   2.042  1.6414 -3.6564  0.8623
  964MOL0     H30125   4.588   5.339   1.944 -1.8366 -0.5355  0.6297
  964MOL0     H30126   5.762   5.547   3.040  2.2487  0.9856 -1.2698
  964MOL0     H30127   5.971   5.694   3.110 -0.6226  1.2631 -0.3585
  964MOL0     H30128   6.354   5.668   3.369 -1.5911 -0.5695 -0.6299
  964MOL0     H30129   6.574   5.777   3.407 -0.0184 -0.1718 -2.2568
  964MOL0     H30130   6.657   6.207   3.437  1.6620  0.8840  0.8525
  964MOL0     H30131   6.572   6.153   3.584 -0.5265 -1.5526 -0.4387
  964MOL0     H30132   6.801   6.037   3.637 -2.2121  0.6170  1.5646
  964MOL0     H30133   6.761   6.196   3.685  1.5223  1.5182 -0.9881
  964MOL0     H30134   6.863   6.309   3.504  0.9503  0.4160  0.8060
  964MOL0     H30135   6.924   6.148   3.437  0.0698  3.1823 -2.4696
  964MOL0     H30136   7.046   6.118   3.650  2.7613  1.6480  0.7416
  964MOL0     H30137   6.999   6.292   3.692  1.0351  0.7338  0.3205
  964MOL0     H30138   7.307   6.297   3.396 -1.2301  0.7504 -0.9926
  964MOL0     H30139   6.379   6.153   3.428  0.1043 -0.0486  0.2728
  964MOL0     H30140   6.175   6.060   3.406 -1.5648 -1.8543  0.2033
  965MOL0     O30141   0.308  10.730   9.869  0.7005 -0.4657 -0.0372
  965MOL0     C30142   0.362  10.735   9.977 -0.6830 -0.5206 -0.0713
  965MOL0     O30143   0.503  10.733   9.996  0.8880  0.6465 -0.2185
  965MOL0     C30144   0.588  10.717   9.883  0.6102  0.7261  0.1157
  965MOL0     C30145   0.570  10.619   9.782  0.2811  0.4457  0.2378
  965MOL0     C30146   0.663  10.598   9.683  0.6542  0.3924  0.6043
  965MOL0     C30147   0.781  10.667   9.679  0.3899  0.0745 -0.9674
  965MOL0     O30148   0.871  10.635   9.584 -0.6520 -0.0539 -0.3978
  965MOL0     C30149   0.983  10.563   9.643 -0.6446 -0.4788 -0.1701
  965MOL0     C30150   1.112  10.591   9.564  0.5202  0.7547 -0.0721
  965MOL0     C30151   1.214  10.664   9.653 -0.7077  0.0505 -0.9342
  965MOL0     C30152   1.316  10.744   9.560 -0.4838  0.1991 -0.5091
  965MOL0     C30153   1.403  10.660   9.462  0.5976 -0.6459  0.3312
  965MOL0     C30154   1.481  10.555   9.524 -0.8929  0.6620  0.8185
  965MOL0     C30155   1.576  10.582   9.641  0.0940 -0.0787 -0.2845
  965MOL0     C30156   1.704  10.657   9.604  0.1356 -0.8127  0.1174
  965MOL0     N30157   1.821  10.564   9.564 -0.2453 -0.0584 -0.5637
  965MOL0     C30158   1.815  10.447   9.494 -0.5053 -0.9313 -0.6454
  965MOL0     C30159   1.940  10.412   9.458 -0.2629 -0.5554  0.0218
  965MOL0     C30160   1.953  10.289   9.371 -0.2125 -0.1247 -0.0828
  965MOL0     C30161   2.103  10.261   9.329 -0.5289  0.8635 -0.3337
  965MOL0     C30162   2.101  10.123   9.261 -0.2304  0.7270 -0.6817
  965MOL0     C30163   2.028  10.116   9.126 -0.4919 -0.5224  0.3908
  965MOL0     O30164   2.055   9.973   9.065 -0.0622 -0.0738 -0.1599
  965MOL0     C30165   1.973   9.924   8.969 -1.4781  0.4625 -0.0303
  965MOL0     C30166   1.977   9.787   8.939  0.3152 -0.1445  0.1166
  965MOL0     C30167   1.901   9.724   8.834 -0.8181 -0.4846  0.0233
  965MOL0     C30168   1.932   9.580   8.795  0.2046 -0.8016  0.8195
  965MOL0     C30169   1.793   9.805   8.783  0.0404  0.7286 -0.6355
  965MOL0     C30170   1.675   9.749   8.710 -0.6211  0.4985 -0.2381
  965MOL0     O30171   1.655   9.623   8.747 -0.1569 -0.0320 -0.0054
  965MOL0     C30172   1.552   9.548   8.686 -0.2458  0.1284 -1.0252
  965MOL0     C30173   1.584   9.470   8.578  0.6900  0.5380  0.2892
  965MOL0     C30174   1.473   9.420   8.509  0.2353  0.3598  0.1642
  965MOL0     C30175   1.342   9.420   8.555 -0.0478  0.0870  0.1168
  965MOL0     O30176   1.228   9.380   8.482  0.1667 -0.6965 -0.4670
  965MOL0     C30177   1.251   9.327   8.353 -0.1064  0.8558 -1.0792
  965MOL0     C30178   1.106   9.301   8.307  0.3512  0.6683  1.1840
  965MOL0     C30179   1.093   9.267   8.150 -0.1343 -0.4374 -0.8078
  965MOL0     C30180   1.184   9.155   8.103 -0.8396  0.1482 -0.6456
  965MOL0     C30181   1.151   9.118   7.960 -0.5647 -0.5373 -0.0696
  965MOL0     C30182   1.059   8.996   7.940 -0.5464 -0.0343  0.8021
  965MOL0     C30183   0.990   8.992   7.796 -0.3284 -0.0145  0.4369
  965MOL0     C30184   0.871   8.899   7.792  0.3114  0.3052 -0.8185
  965MOL0    Cl30185   0.918   8.732   7.797 -0.2178  0.4825 -0.1711
  965MOL0     C30186   1.319   9.491   8.671 -0.1184 -0.2036 -1.1418
  965MOL0     C30187   1.428   9.542   8.752  0.1551 -0.0266 -0.0729
  965MOL0     O30188   1.611   9.811   8.631  0.4028  0.8963  0.5595
  965MOL0     C30189   1.790   9.934   8.816  0.2296 -0.4307  0.6596
  965MOL0     C30190   1.875   9.999   8.902 -0.3725 -0.7032  0.0899
  965MOL0     N30191   2.032  10.506   9.515  0.3053  0.0934 -0.2752
  965MOL0     N30192   1.950  10.594   9.574  0.4141 -0.5673 -0.1612
  965MOL0     C30193   0.805  10.767   9.779  0.8166 -0.4621 -0.0596
  965MOL0     C30194   0.703  10.791   9.872 -0.2232  0.2184 -0.8227
  965MOL0     C30195   0.283  10.756  10.095 -0.6498 -0.3310  0.7645
  965MOL0     C30196   0.347  10.792  10.209 -1.0341 -0.2787 -0.0089
  965MOL0     C30197   0.284  10.801  10.327  0.7429 -0.8326  0.0414
  965MOL0     C30198   0.152  10.762  10.340 -0.5090  0.5323 -0.4751
  965MOL0     O30199   0.102  10.752  10.465 -0.2350  0.9414 -0.2062
  965MOL0     C30200  -0.003  10.656  10.478  0.4781 -0.5981 -0.8072
  965MOL0     C30201  -0.067  10.662  10.618 -0.2242 -0.8919 -0.8417
  965MOL0     C30202  -0.144  10.787  10.647  1.0036  0.0269 -0.2707
  965MOL0     C30203  -0.078  10.875  10.760 -0.0440 -0.7108 -0.2794
  965MOL0     C30204  -0.038  10.805  10.891 -0.0654 -0.7777 -0.3662
  965MOL0     C30205  -0.000  10.747  10.989  0.0387  0.9327  0.0827
  965MOL0     C30206   0.084  10.721  10.225 -0.5150  0.5997  0.1371
  965MOL0     C30207   0.147  10.713  10.097 -0.4387  0.2130  0.0195
  965MOL0     H30208   0.479  10.560   9.781  1.0442 -0.7886 -1.6206
  965MOL0     H30209   0.646  10.523   9.606  1.2619  2.7673 -2.0329
  965MOL0     H30210   0.988  10.566   9.752 -0.6587 -1.1345 -0.1494
  965MOL0     H30211   0.954  10.460   9.624  0.1671 -0.2931 -2.8694
  965MOL0     H30212   1.161  10.496   9.540  3.0848  1.4180  2.0274
  965MOL0     H30213   1.094  10.652   9.476 -1.6903 -0.2797 -0.3984
  965MOL0     H30214   1.162  10.732   9.721  0.7643 -2.2679  2.7654
  965MOL0     H30215   1.265  10.593   9.718 -0.6613  0.8751 -0.0606
  965MOL0     H30216   1.260  10.820   9.504 -1.2417 -0.0859 -0.1513
  965MOL0     H30217   1.384  10.802   9.624 -1.9729  0.9446  0.4586
  965MOL0     H30218   1.338  10.627   9.381  0.2000  0.5300  0.1521
  965MOL0     H30219   1.474  10.726   9.410  0.5149 -0.3752  0.5610
  965MOL0     H30220   1.424  10.467   9.554  0.6394 -1.6887 -2.4945
  965MOL0     H30221   1.535  10.504   9.444  1.0891  4.2584 -0.3793
  965MOL0     H30222   1.515  10.636   9.714 -1.3119  0.4587 -1.7782
  965MOL0     H30223   1.614  10.490   9.686  0.0774  0.9278  1.9217
  965MOL0     H30224   1.749  10.701   9.693  4.5841 -0.9335 -1.8009
  965MOL0     H30225   1.690  10.746   9.541  1.1744 -0.0734  0.8802
  965MOL0     H30226   1.726  10.397   9.459  0.3930 -1.5176 -2.2039
  965MOL0     H30227   1.918  10.201   9.426  0.8157 -2.2265 -2.5750
  965MOL0     H30228   1.890  10.297   9.282 -0.2016 -1.0795 -0.1871
  965MOL0     H30229   2.167  10.253   9.418 -1.5664  1.3659  0.4800
  965MOL0     H30230   2.138  10.331   9.252  0.5634 -0.2474 -0.8803
  965MOL0     H30231   2.063  10.050   9.333  0.1306  1.0364 -0.1642
  965MOL0     H30232   2.204  10.089   9.249 -0.0381  1.1548 -0.2798
  965MOL0     H30233   2.080  10.191   9.066  1.5924 -0.7657  1.7894
  965MOL0     H30234   1.923  10.145   9.141 -0.1850  0.3050  1.0270
  965MOL0     H30235   2.056   9.734   8.990  1.3976  0.4032 -0.9480
  965MOL0     H30236   1.919   9.557   8.689 -2.9166 -2.1247  1.3795
  965MOL0     H30237   2.036   9.550   8.812  0.1071 -2.4456 -1.1030
  965MOL0     H30238   1.864   9.516   8.852 -2.7192  1.6738  0.4121
  965MOL0     H30239   1.687   9.473   8.545  1.0577  1.9555  1.5046
  965MOL0     H30240   1.492   9.385   8.408 -0.0501  1.7666 -0.4134
  965MOL0     H30241   1.291   9.407   8.289  0.1535  1.9746  0.4199
  965MOL0     H30242   1.309   9.236   8.340  0.3830  0.7480  1.3872
  965MOL0     H30243   1.053   9.221   8.360  0.1225  0.3498  0.4919
  965MOL0     H30244   1.041   9.388   8.318  0.3784  1.0418 -1.1780
  965MOL0     H30245   1.108   9.353   8.085  1.9588 -0.0884  0.0502
  965MOL0     H30246   0.994   9.229   8.123 -0.2957  1.2250 -2.8188
  965MOL0     H30247   1.289   9.186   8.096 -1.2835  2.6324  2.1387
  965MOL0     H30248   1.170   9.070   8.170  1.8961 -0.4541 -0.7001
  965MOL0     H30249   1.248   9.105   7.911  1.8523  2.5166  3.3324
  965MOL0     H30250   1.108   9.206   7.911  3.2837  1.5517 -0.0766
  965MOL0     H30251   1.115   8.903   7.956 -0.6429 -0.7660 -2.5003
  965MOL0     H30252   0.975   9.014   8.008 -2.9882  0.6300 -2.1693
  965MOL0     H30253   1.063   8.961   7.721  0.1143  2.1896 -0.1145
  965MOL0     H30254   0.942   9.088   7.773 -2.7333 -1.1766  0.3027
  965MOL0     H30255   0.818   8.921   7.699 -0.2898  0.4408 -0.4520
  965MOL0     H30256   0.807   8.914   7.880  0.5096  0.8157 -0.7586
  965MOL0     H30257   1.216   9.504   8.703 -0.7132 -3.6459 -1.3511
  965MOL0     H30258   1.406   9.600   8.842  0.6706 -2.0999  1.4694
  965MOL0     H30259   1.703   9.986   8.777 -0.0446 -1.7103 -0.5376
  965MOL0     H30260   1.866  10.107   8.912  2.4118 -0.5240  2.0399
  965MOL0     H30261   0.899  10.821   9.785  1.7488 -2.1171  1.3836
  965MOL0     H30262   0.715  10.869   9.945 -1.0462  2.1931 -2.6857
  965MOL0     H30263   0.450  10.826  10.204 -0.9667 -0.5152 -0.2324
  965MOL0     H30264   0.336  10.838  10.415  0.4640 -1.2384  0.3791
  965MOL0     H30265  -0.086  10.684  10.413 -0.5372  0.4496  0.8802
  965MOL0     H30266   0.031  10.554  10.457 -1.4819 -1.0358 -2.1049
  965MOL0     H30267   0.012  10.645  10.692 -1.8591  0.5485  1.3879
  965MOL0     H30268  -0.140  10.581  10.630 -2.7193  1.2893 -0.4322
  965MOL0     H30269  -0.233  10.754  10.703  0.4590  1.2546 -0.3881
  965MOL0     H30270  -0.173  10.843  10.558 -0.9175  1.4262  1.1333
  965MOL0     H30271  -0.145  10.959  10.782  0.7092 -0.1812  0.0299
  965MOL0     H30272   0.017  10.919  10.731 -0.4276  1.2271  1.2020
  965MOL0     H30273   0.033  10.692  11.075  0.4998 -0.1557 -0.7575
  965MOL0     H30274  -0.019  10.689  10.227 -0.3907 -0.2173 -2.7297
  965MOL0     H30275   0.083  10.666  10.023 -3.5535  0.5906  2.2453
  966MOL0     O30276   3.408  10.878   2.608  0.2040  0.1786 -0.3631
  966MOL0     C30277   3.434  10.801   2.701  0.2083  0.1655  0.5295
  966MOL0     O30278   3.435  10.828   2.831 -0.3275  0.3303 -0.2668
  966MOL0     C30279   3.385  10.942   2.886  0.1587 -0.3337 -1.0476
  966MOL0     C30280   3.259  10.986   2.855 -0.2992  0.7926  0.5179
  966MOL0     C30281   3.206  11.104   2.905  1.1377  0.5497  0.1844
  966MOL0     C30282   3.291  11.187   2.974  0.2661  1.1759 -0.5339
  966MOL0     O30283   3.247  11.307   3.024 -0.1317 -0.5942 -0.4157
  966MOL0     C30284   3.114  11.367   2.995  0.0347  0.2829  0.6828
  966MOL0     C30285   3.008  11.321   3.078  0.8232  0.3192 -0.9299
  966MOL0     C30286   2.877  11.400   3.072 -0.4725 -0.0094  0.4079
  966MOL0     C30287   2.755  11.325   3.133  0.3668  1.1552 -0.9398
  966MOL0     C30288   2.631  11.401   3.160  0.7218  0.6605 -0.2209
  966MOL0     C30289   2.536  11.334   3.264 -0.1504 -0.0918 -0.2274
  966MOL0     C30290   2.385  11.341   3.224 -0.0775 -1.3634 -0.6094
  966MOL0     C30291   2.338  11.250   3.113 -0.1540  0.0399 -0.3721
  966MOL0     N30292   2.349  11.108   3.148 -0.4074 -0.2518 -0.3089
  966MOL0     C30293   2.425  11.014   3.075  0.1492 -0.1198 -0.3118
  966MOL0     C30294   2.365  10.897   3.094 -0.2346 -0.5767  0.7151
  966MOL0     C30295   2.406  10.764   3.028  0.6701  0.1924 -0.3297
  966MOL0     C30296   2.353  10.762   2.879 -0.2777 -0.4859 -0.2886
  966MOL0     C30297   2.401  10.634   2.810  0.0967 -0.0772  0.3756
  966MOL0     C30298   2.318  10.509   2.845 -0.1483  0.6932 -0.2686
  966MOL0     O30299   2.339  10.450   2.974  0.1496  0.7894 -0.6500
  966MOL0     C30300   2.315  10.314   2.971 -0.2937  0.1087 -0.5503
  966MOL0     C30301   2.412  10.233   3.030 -1.2483  0.7602  0.2050
  966MOL0     C30302   2.401  10.091   3.030 -0.5429 -0.3734  0.2409
  966MOL0     C30303   2.513  10.008   3.095  0.6852  0.0302 -0.4547
  966MOL0     C30304   2.290  10.026   2.964  0.1604  0.5542 -0.1960
  966MOL0     C30305   2.251   9.886   2.960 -0.0835  0.4682  1.2502
  966MOL0     O30306   2.122   9.850   2.934 -0.4652  0.2813 -0.2262
  966MOL0     C30307   2.070   9.723   2.945  0.6716 -0.0090  0.1506
  966MOL0     C30308   1.935   9.711   2.990 -0.1230 -0.0888  0.9652
  966MOL0     C30309   1.888   9.582   3.002  0.4477 -0.5604 -0.7833
  966MOL0     C30310   1.956   9.468   2.959 -0.3674 -0.6158  0.0333
  966MOL0     O30311   1.904   9.342   2.985 -0.5980 -0.5318 -0.3685
  966MOL0     C30312   1.762   9.322   2.967  0.4090  0.0707 -0.1183
  966MOL0     C30313   1.729   9.177   2.997 -0.1119 -0.3412 -0.6318
  966MOL0     C30314   1.583   9.164   3.020 -0.1156  0.5307 -0.5457
  966MOL0     C30315   1.526   9.020   2.977 -0.0964  0.4249 -0.2378
  966MOL0     C30316   1.396   8.985   3.059  0.0102  0.1914 -0.3852
  966MOL0     C30317   1.370   8.826   3.061  0.3489 -0.0917  0.5134
  966MOL0     C30318   1.248   8.789   3.150 -0.1627 -0.6646  0.1497
  966MOL0     C30319   1.224   8.634   3.166 -0.1808  0.5110 -0.5381
  966MOL0    Cl30320   1.340   8.578   3.295  0.1619 -0.1741 -0.2725
  966MOL0     C30321   2.090   9.484   2.911 -0.3151 -0.7236  0.8660
  966MOL0     C30322   2.146   9.611   2.899  0.2279 -0.2112  0.2309
  966MOL0     O30323   2.341   9.811   2.987 -0.0544  0.0759  0.4994
  966MOL0     C30324   2.189  10.117   2.914 -0.6557 -0.3901  0.1226
  966MOL0     C30325   2.201  10.252   2.920 -0.2866 -0.4721 -0.4638
  966MOL0     N30326   2.262  10.921   3.187 -0.1360 -0.3912 -0.6077
  966MOL0     N30327   2.259  11.042   3.224  0.1950  0.2853  0.2663
  966MOL0     C30328   3.423  11.152   3.017  0.2310  0.1837  0.3276
  966MOL0     C30329   3.468  11.028   2.965  0.2856  0.0188 -0.2582
  966MOL0     C30330   3.483  10.663   2.675  0.5715 -1.2619  0.7457
  966MOL0     C30331   3.524  10.574   2.775  0.4298 -0.5429  0.7435
  966MOL0     C30332   3.550  10.440   2.742  0.3358  0.3484 -0.8078
  966MOL0     C30333   3.529  10.387   2.617  0.1493 -0.1198 -0.4577
  966MOL0     O30334   3.556  10.258   2.597 -0.3941  0.0588  0.0121
  966MOL0     C30335   3.538  10.200   2.467 -0.6951  0.9633 -0.8506
  966MOL0     C30336   3.558  10.051   2.488  0.0244 -0.4506  1.6217
  966MOL0     C30337   3.576   9.970   2.352 -0.7242  0.0536 -0.4816
  966MOL0     C30338   3.454   9.975   2.257  0.2385  0.5084  0.2504
  966MOL0     C30339   3.446  10.101   2.181  0.9450 -0.3481 -0.3422
  966MOL0     C30340   3.432  10.205   2.115 -0.8784 -0.5347  0.1356
  966MOL0     C30341   3.498  10.479   2.515  0.7383  0.1323 -0.6671
  966MOL0     C30342   3.481  10.617   2.543 -0.0809 -0.1734  0.1793
  966MOL0     H30343   3.194  10.918   2.801  1.0161 -1.1777  1.3095
  966MOL0     H30344   3.104  11.130   2.878  0.5735 -1.3081  0.4442
  966MOL0     H30345   3.122  11.476   2.990 -2.6326  0.4742 -0.9054
  966MOL0     H30346   3.069  11.338   2.900 -3.1935  0.6133  1.9897
  966MOL0     H30347   2.997  11.217   3.047  2.3213 -0.4576  0.9246
  966MOL0     H30348   3.052  11.306   3.177  0.9797 -2.4290 -1.3447
  966MOL0     H30349   2.892  11.500   3.114  1.2550  1.1554 -2.6626
  966MOL0     H30350   2.856  11.409   2.965 -2.8293 -0.4125  0.7787
  966MOL0     H30351   2.745  11.238   3.068  5.5467  0.0546 -0.7131
  966MOL0     H30352   2.785  11.287   3.231  1.2093  0.8310 -1.3130
  966MOL0     H30353   2.657  11.502   3.195 -1.5252  0.1205  3.4552
  966MOL0     H30354   2.571  11.399   3.069  1.7979 -4.0554 -1.0898
  966MOL0     H30355   2.566  11.231   3.281 -1.7736 -0.3952  1.1703
  966MOL0     H30356   2.551  11.386   3.359  0.3398 -1.6384  0.5705
  966MOL0     H30357   2.331  11.302   3.310 -1.9021  0.4100 -0.8879
  966MOL0     H30358   2.362  11.446   3.203  4.0299 -0.8452 -4.0050
  966MOL0     H30359   2.402  11.269   3.027  1.4530  0.0856  0.7812
  966MOL0     H30360   2.235  11.269   3.082  0.5472  1.9913 -1.6309
  966MOL0     H30361   2.498  11.040   2.999  1.0071  0.5769  0.7365
  966MOL0     H30362   2.514  10.749   3.029  0.9386  1.2579 -3.5930
  966MOL0     H30363   2.363  10.680   3.084 -1.4539  1.6223  0.3049
  966MOL0     H30364   2.392  10.851   2.828 -1.8212  1.3044  1.4616
  966MOL0     H30365   2.245  10.775   2.877 -0.2243 -0.1010 -1.8223
  966MOL0     H30366   2.500  10.609   2.849 -0.3870  0.0312  1.7050
  966MOL0     H30367   2.413  10.655   2.703  1.1117  0.9219  0.6583
  966MOL0     H30368   2.344  10.435   2.768 -3.5012 -0.4948 -0.4063
  966MOL0     H30369   2.211  10.526   2.838 -0.6724 -1.5420  0.9939
  966MOL0     H30370   2.504  10.276   3.070 -0.2739  0.1652 -1.3138
  966MOL0     H30371   2.590   9.982   3.022  1.4098  1.4303 -0.2402
  966MOL0     H30372   2.535  10.065   3.187 -6.4221 -0.1319  1.9714
  966MOL0     H30373   2.463   9.924   3.144  1.5228  0.0202  0.4071
  966MOL0     H30374   1.882   9.799   3.025  1.2370  1.2405 -0.1608
  966MOL0     H30375   1.791   9.582   3.050  0.1419 -2.3908 -1.3080
  966MOL0     H30376   1.700   9.390   3.028  0.2826  0.6940 -0.9205
  966MOL0     H30377   1.743   9.339   2.861  3.5887 -2.6540 -1.2956
  966MOL0     H30378   1.755   9.116   2.910 -3.0220 -1.4165 -0.8849
  966MOL0     H30379   1.782   9.129   3.080  0.2065 -1.9109 -1.7074
  966MOL0     H30380   1.533   9.237   2.956 -0.0410  3.2213  2.2650
  966MOL0     H30381   1.543   9.188   3.119 -3.8851  0.6916 -1.9263
  966MOL0     H30382   1.505   9.022   2.870  0.1727 -0.2146 -0.3107
  966MOL0     H30383   1.602   8.943   2.996 -1.6016 -1.1826 -0.5052
  966MOL0     H30384   1.317   9.032   3.000 -0.2339  1.0309  0.5804
  966MOL0     H30385   1.399   9.029   3.159 -1.5445  0.7626 -0.5745
  966MOL0     H30386   1.350   8.795   2.958  2.1465  0.5055 -0.0401
  966MOL0     H30387   1.454   8.768   3.100  0.8502 -0.0507 -0.4836
  966MOL0     H30388   1.162   8.835   3.100  0.6465 -1.0434 -1.6639
  966MOL0     H30389   1.257   8.828   3.252 -1.1971  0.2002 -0.0650
  966MOL0     H30390   1.243   8.586   3.070  3.8588  3.0077 -1.2233
  966MOL0     H30391   1.119   8.625   3.195 -0.0065 -0.2534 -0.1220
  966MOL0     H30392   2.155   9.400   2.889  1.7445  0.7603  0.9402
  966MOL0     H30393   2.239   9.629   2.846  0.2695  2.1801  1.0017
  966MOL0     H30394   2.092  10.080   2.881 -0.6352 -2.1139  1.8412
  966MOL0     H30395   2.135  10.325   2.874  0.1370 -1.8101 -3.4440
  966MOL0     H30396   3.481  11.221   3.076 -0.0543 -0.1721  1.0338
  966MOL0     H30397   3.572  10.996   2.973 -0.3454 -2.9202 -2.0207
  966MOL0     H30398   3.507  10.605   2.878 -1.9443  0.9410 -0.0267
  966MOL0     H30399   3.579  10.386   2.832 -0.3738  1.4580  0.1182
  966MOL0     H30400   3.437  10.226   2.436  0.1176  4.1267 -1.1212
  966MOL0     H30401   3.613  10.238   2.396  1.1533 -1.5856 -0.4216
  966MOL0     H30402   3.483  10.012   2.557  0.3878 -1.5473  1.4289
  966MOL0     H30403   3.647  10.037   2.550 -0.5806 -0.5798  2.4709
  966MOL0     H30404   3.578   9.865   2.383  0.0382  0.2847  0.2987
  966MOL0     H30405   3.671   9.990   2.303 -0.6748 -0.9458 -0.8263
  966MOL0     H30406   3.368   9.951   2.320  1.3676 -1.1387  1.2397
  966MOL0     H30407   3.460   9.885   2.194 -3.3586 -1.6791  2.6342
  966MOL0     H30408   3.410  10.298   2.067  0.1229 -0.3443  0.0133
  966MOL0     H30409   3.483  10.454   2.410 -0.7985 -0.5298 -0.3203
  966MOL0     H30410   3.472  10.677   2.453  0.4360  2.1206  1.5737
  967MOL0     O30411   2.458   8.602   4.686 -0.2347  0.1853 -0.0072
  967MOL0     C30412   2.436   8.485   4.709 -0.3356 -0.4723 -0.7635
  967MOL0     O30413   2.357   8.407   4.640 -0.2243  0.2862 -0.2530
  967MOL0     C30414   2.278   8.469   4.545  0.0399  0.2044 -0.5885
  967MOL0     C30415   2.324   8.502   4.425  0.0682 -0.1072  0.6178
  967MOL0     C30416   2.247   8.572   4.325  0.5773 -0.2088 -0.3331
  967MOL0     C30417   2.116   8.612   4.353  0.0603 -0.7367  0.3374
  967MOL0     O30418   2.046   8.677   4.251  0.1806 -0.3729  0.1721
  967MOL0     C30419   1.981   8.809   4.289  0.7448 -0.0623 -0.6518
  967MOL0     C30420   1.848   8.799   4.370 -0.3488  0.1928  0.6186
  967MOL0     C30421   1.751   8.692   4.317 -0.1186  0.5478  0.7341
  967MOL0     C30422   1.611   8.718   4.388 -0.2709  0.4412 -0.1309
  967MOL0     C30423   1.508   8.820   4.323 -0.6450  0.1569 -0.1455
  967MOL0     C30424   1.395   8.852   4.418 -0.3482  0.5205  0.1150
  967MOL0     C30425   1.401   8.996   4.475 -0.4314  0.5010  0.0732
  967MOL0     C30426   1.492   9.005   4.597  1.1603  0.2816 -0.2297
  967MOL0     N30427   1.460   9.119   4.676  0.5260  0.9383 -0.8129
  967MOL0     C30428   1.447   9.252   4.629 -0.4347  0.0604  0.1533
  967MOL0     C30429   1.405   9.321   4.734 -0.2647 -0.0101  0.6038
  967MOL0     C30430   1.362   9.458   4.740 -0.0148  0.1305 -0.4261
  967MOL0     C30431   1.407   9.532   4.605 -0.0521 -0.6684  0.1612
  967MOL0     C30432   1.338   9.666   4.612  0.9829 -0.6727 -0.1197
  967MOL0     C30433   1.405   9.748   4.507  0.0914 -0.3023  1.4983
  967MOL0     O30434   1.350   9.880   4.493 -0.0694 -0.9907  0.2266
  967MOL0     C30435   1.387   9.967   4.394 -0.2013 -0.2722 -1.0643
  967MOL0     C30436   1.318  10.092   4.398  0.1926 -0.1956  0.3252
  967MOL0     C30437   1.350  10.188   4.294 -0.3101 -0.3743  0.4211
  967MOL0     C30438   1.270  10.307   4.299  0.6734 -0.9578  0.0015
  967MOL0     C30439   1.465  10.173   4.209 -0.4621 -0.0881 -0.1431
  967MOL0     C30440   1.514  10.260   4.105  0.1528 -0.6360  0.3664
  967MOL0     O30441   1.621  10.214   4.038 -0.3715 -0.7714  0.1187
  967MOL0     C30442   1.647  10.265   3.910 -0.3052 -0.5469  0.2950
  967MOL0     C30443   1.622  10.181   3.797  0.9941 -1.0116 -0.5029
  967MOL0     C30444   1.663  10.230   3.675  0.6272  0.1982  0.2563
  967MOL0     C30445   1.727  10.351   3.652 -0.3733 -0.2158 -0.2597
  967MOL0     O30446   1.772  10.399   3.534  0.4008 -0.6468  0.2761
  967MOL0     C30447   1.738  10.322   3.412 -0.3169 -0.1494 -0.0074
  967MOL0     C30448   1.781  10.398   3.288 -0.2352 -0.4120  1.1610
  967MOL0     C30449   1.721  10.327   3.161 -0.3656 -0.5851 -0.5824
  967MOL0     C30450   1.811  10.351   3.049 -0.0592  0.3442  0.8282
  967MOL0     C30451   1.759  10.292   2.916  0.1681 -0.1520  0.8838
  967MOL0     C30452   1.830  10.360   2.794 -0.6019 -0.5092 -0.4832
  967MOL0     C30453   1.804  10.303   2.660 -0.7863 -0.0895 -0.4519
  967MOL0     C30454   1.901  10.184   2.630 -0.0446  0.4235 -0.3190
  967MOL0    Cl30455   1.850  10.042   2.716 -0.0195 -0.0612  0.3676
  967MOL0     C30456   1.751  10.430   3.770  0.7130 -0.7378  0.1992
  967MOL0     C30457   1.717  10.383   3.895  1.7613 -0.8338 -0.2864
  967MOL0     O30458   1.450  10.359   4.075 -0.1734 -0.5019  0.6477
  967MOL0     C30459   1.540  10.053   4.229  0.5602  0.4468  0.2530
  967MOL0     C30460   1.499   9.949   4.313 -0.0559 -0.8639  0.0813
  967MOL0     N30461   1.384   9.236   4.845 -0.8818 -1.2253  0.0057
  967MOL0     N30462   1.416   9.114   4.807  0.0017 -0.2160 -0.1509
  967MOL0     C30463   2.066   8.576   4.478  0.5562 -0.3000 -0.0443
  967MOL0     C30464   2.143   8.502   4.571 -0.1284  0.2962 -1.1054
  967MOL0     C30465   2.493   8.431   4.833  1.0145  0.2109 -0.3305
  967MOL0     C30466   2.611   8.476   4.901  0.2557 -1.0952  0.0978
  967MOL0     C30467   2.664   8.425   5.016 -0.5589  0.2685 -0.6588
  967MOL0     C30468   2.604   8.318   5.075 -0.0777  0.3458  0.1576
  967MOL0     O30469   2.655   8.247   5.179 -0.2298  0.0130 -0.3386
  967MOL0     C30470   2.791   8.268   5.220  0.1340 -0.0626  0.0084
  967MOL0     C30471   2.830   8.208   5.355  0.1502  0.3822  0.4239
  967MOL0     C30472   2.969   8.206   5.397 -0.5142 -0.4037 -0.4272
  967MOL0     C30473   3.004   8.157   5.543  0.1356  0.0840 -0.6464
  967MOL0     C30474   3.141   8.190   5.576 -0.4055 -0.0121 -1.0754
  967MOL0     C30475   3.249   8.237   5.608  0.3821 -0.2324  0.8456
  967MOL0     C30476   2.488   8.269   5.016  0.4580  0.0182 -0.5009
  967MOL0     C30477   2.431   8.324   4.898  0.3306  0.6026 -0.2140
  967MOL0     H30478   2.429   8.478   4.410  0.7266  1.2272  2.7334
  967MOL0     H30479   2.282   8.603   4.227 -1.9322 -2.7464 -2.1993
  967MOL0     H30480   2.053   8.868   4.345 -2.3104  0.5884  3.0237
  967MOL0     H30481   1.961   8.849   4.189 -3.5373 -3.1759 -1.3294
  967MOL0     H30482   1.860   8.775   4.476 -2.0235  1.7553  1.2083
  967MOL0     H30483   1.797   8.896   4.379 -1.8447 -0.6226  1.0778
  967MOL0     H30484   1.736   8.702   4.209 -2.2581  2.0263  1.1064
  967MOL0     H30485   1.785   8.590   4.337 -0.3980  0.4509  0.7184
  967MOL0     H30486   1.553   8.626   4.391 -2.3827  1.6139  4.7244
  967MOL0     H30487   1.622   8.736   4.495 -4.3941 -2.2083  0.9541
  967MOL0     H30488   1.553   8.916   4.296  1.5797 -0.7013  0.2831
  967MOL0     H30489   1.465   8.773   4.234 -0.7353  0.8143 -0.4523
  967MOL0     H30490   1.310   8.843   4.350 -0.3297 -0.0704  0.1642
  967MOL0     H30491   1.385   8.776   4.496  1.8238  1.0972  1.0343
  967MOL0     H30492   1.419   9.066   4.393 -3.0021 -0.5601 -1.5504
  967MOL0     H30493   1.300   9.024   4.508  0.1177 -0.5006  2.9377
  967MOL0     H30494   1.588   9.035   4.555  1.7109  0.1318  0.8924
  967MOL0     H30495   1.489   8.915   4.659 -2.1398 -0.8714 -1.8353
  967MOL0     H30496   1.474   9.283   4.528  1.2406  2.2298  1.1981
  967MOL0     H30497   1.254   9.462   4.753 -0.0720 -1.1636 -0.3826
  967MOL0     H30498   1.407   9.498   4.832  1.4212 -0.2782 -0.9193
  967MOL0     H30499   1.375   9.488   4.510  0.9376  0.3978 -0.6969
  967MOL0     H30500   1.516   9.542   4.599 -0.1752  1.3750  0.5279
  967MOL0     H30501   1.337   9.706   4.714 -3.0986 -1.3133  0.2818
  967MOL0     H30502   1.232   9.652   4.586  1.1362 -2.2621 -0.0051
  967MOL0     H30503   1.417   9.702   4.408  0.5885  0.9794  0.9490
  967MOL0     H30504   1.510   9.759   4.535  0.1816 -0.2133  1.1260
  967MOL0     H30505   1.236  10.101   4.469  0.8501  0.2767  1.0421
  967MOL0     H30506   1.328  10.389   4.343 -1.8599  0.5315  0.7752
  967MOL0     H30507   1.243  10.337   4.197  1.1486 -0.0970  0.1200
  967MOL0     H30508   1.182  10.285   4.360  0.7869 -0.0428  0.5228
  967MOL0     H30509   1.593  10.078   3.818 -1.6468  0.3193  3.2750
  967MOL0     H30510   1.629  10.163   3.597  2.1537 -1.7361  1.1719
  967MOL0     H30511   1.785  10.223   3.407  2.7735  1.2597 -1.2293
  967MOL0     H30512   1.630  10.322   3.396 -0.2793  1.4920 -0.4185
  967MOL0     H30513   1.760  10.505   3.298 -1.1787 -0.4788  0.1127
  967MOL0     H30514   1.890  10.400   3.285 -0.2570  0.0447 -0.1621
  967MOL0     H30515   1.621  10.362   3.134 -2.4202 -3.1718  2.9021
  967MOL0     H30516   1.725  10.219   3.178  1.0043 -0.4744 -0.0351
  967MOL0     H30517   1.825  10.460   3.048 -0.1647  0.3683  1.5118
  967MOL0     H30518   1.906  10.305   3.077  0.4097  2.2361  2.6135
  967MOL0     H30519   1.652  10.309   2.905  0.4182  0.4429 -0.8411
  967MOL0     H30520   1.787  10.186   2.914  0.3781 -0.1236  1.6694
  967MOL0     H30521   1.795  10.463   2.800  0.9294  0.0527 -0.7319
  967MOL0     H30522   1.939  10.367   2.806 -0.1448  0.0138 -3.8673
  967MOL0     H30523   1.824  10.382   2.587  0.3012  0.2028  0.1503
  967MOL0     H30524   1.704  10.258   2.657  0.6820 -3.6821  0.0220
  967MOL0     H30525   2.006  10.202   2.656 -0.2316  1.7202 -0.4288
  967MOL0     H30526   1.888  10.164   2.524 -0.4836 -3.2984  0.2824
  967MOL0     H30527   1.798  10.526   3.754  0.4461  0.2493  4.2848
  967MOL0     H30528   1.740  10.444   3.982  0.1920  0.9838 -1.0803
  967MOL0     H30529   1.638  10.027   4.192  2.8327  3.0018  3.8529
  967MOL0     H30530   1.555   9.856   4.311  1.5458  0.0676 -2.0272
  967MOL0     H30531   1.964   8.602   4.502  0.3883 -0.1173 -0.9547
  967MOL0     H30532   2.086   8.467   4.657 -0.8160  0.7798 -1.3521
  967MOL0     H30533   2.659   8.561   4.853 -1.3051 -0.0932  0.2462
  967MOL0     H30534   2.749   8.473   5.064  0.4777 -1.2529 -0.8767
  967MOL0     H30535   2.848   8.222   5.139 -0.7767  0.4267 -0.9397
  967MOL0     H30536   2.818   8.374   5.224  1.6892 -0.4364 -0.1903
  967MOL0     H30537   2.808   8.100   5.352 -0.3743  0.4326  1.5476
  967MOL0     H30538   2.764   8.255   5.429 -1.5054  2.6168 -2.2611
  967MOL0     H30539   3.016   8.303   5.377  1.4396 -1.1308  0.4049
  967MOL0     H30540   3.023   8.138   5.331 -3.9252 -2.5713 -1.2253
  967MOL0     H30541   2.981   8.052   5.564 -2.2099  0.6975  0.2301
  967MOL0     H30542   2.941   8.211   5.615 -1.2788 -2.3035  0.0312
  967MOL0     H30543   3.343   8.276   5.641  0.1762  0.1921  0.9266
  967MOL0     H30544   2.422   8.209   5.078  0.0475 -0.0748 -1.0210
  967MOL0     H30545   2.336   8.290   4.857  1.6709 -0.9998 -2.1731
  968MOL0     O30546   7.093   9.611   6.740 -0.8941  0.1512  0.0043
  968MOL0     C30547   7.103   9.595   6.620 -0.1666 -0.1187  0.7440
  968MOL0     O30548   7.009   9.540   6.540  0.3234  0.3251  0.1652
  968MOL0     C30549   6.879   9.508   6.581  0.7205  0.1817  0.5184
  968MOL0     C30550   6.799   9.431   6.495  0.4935  0.1421 -0.8456
  968MOL0     C30551   6.657   9.419   6.518 -0.0972  0.6302  0.5622
  968MOL0     C30552   6.595   9.499   6.610  0.4009 -1.2235  0.5511
  968MOL0     O30553   6.459   9.520   6.599  0.2180  0.1818 -0.4174
  968MOL0     C30554   6.379   9.452   6.699 -0.1919  0.2317 -0.1486
  968MOL0     C30555   6.239   9.448   6.636 -0.9628 -0.3701  0.3626
  968MOL0     C30556   6.138   9.395   6.721 -0.5953 -0.7681  0.0429
  968MOL0     C30557   6.004   9.426   6.642 -0.1907 -0.6951 -0.2350
  968MOL0     C30558   5.883   9.371   6.715  0.4338 -0.7183 -0.1527
  968MOL0     C30559   5.744   9.374   6.637 -0.7065  0.3175 -0.0476
  968MOL0     C30560   5.621   9.315   6.710  0.2152 -0.2866 -0.0888
  968MOL0     C30561   5.561   9.412   6.815  0.3305 -0.3325  0.6935
  968MOL0     N30562   5.453   9.338   6.881  0.2764 -0.0989  0.4858
  968MOL0     C30563   5.467   9.260   6.993 -0.0318 -1.0366  0.4548
  968MOL0     C30564   5.359   9.178   6.999 -0.5353  0.2725  1.7306
  968MOL0     C30565   5.341   9.084   7.105  1.1701  0.2153 -0.5347
  968MOL0     C30566   5.241   8.982   7.072  0.2919  0.2275 -0.2413
  968MOL0     C30567   5.201   8.895   7.193  0.7552  0.6727 -0.0778
  968MOL0     C30568   5.077   8.937   7.266 -0.2940 -0.1218 -0.1259
  968MOL0     O30569   5.074   9.079   7.285 -0.3446 -0.2293 -0.1581
  968MOL0     C30570   4.948   9.125   7.309  0.0694 -0.4718 -0.7193
  968MOL0     C30571   4.858   9.151   7.205  0.3618  0.4222 -0.4119
  968MOL0     C30572   4.723   9.194   7.233  0.0653  0.4057  0.7622
  968MOL0     C30573   4.646   9.222   7.102  1.0984 -0.3819  0.5068
  968MOL0     C30574   4.672   9.212   7.359  0.2698  0.9328 -1.1261
  968MOL0     C30575   4.526   9.230   7.382  0.8951  0.9576 -0.1386
  968MOL0     O30576   4.495   9.272   7.512  0.1077 -0.3581  0.0917
  968MOL0     C30577   4.363   9.316   7.524  0.4200 -0.2579  0.0952
  968MOL0     C30578   4.316   9.437   7.478 -0.0539  0.4241 -0.4792
  968MOL0     C30579   4.181   9.473   7.482 -0.3776  0.2120  0.6043
  968MOL0     C30580   4.100   9.392   7.561  0.8841  0.7414 -0.0731
  968MOL0     O30581   3.981   9.419   7.612  0.1754 -0.4884  0.7110
  968MOL0     C30582   3.910   9.524   7.545 -0.1990  0.2247 -0.0367
  968MOL0     C30583   3.955   9.657   7.605  0.7096 -0.6011 -0.4451
  968MOL0     C30584   3.888   9.768   7.528 -0.4777 -0.1094 -0.0389
  968MOL0     C30585   3.931   9.911   7.581  0.4116  0.0570 -0.4633
  968MOL0     C30586   3.867  10.033   7.506 -0.0967  1.3624  0.1518
  968MOL0     C30587   3.956  10.164   7.520  0.2017  0.3522 -1.0443
  968MOL0     C30588   3.915  10.286   7.430  0.5861  0.3502 -0.5088
  968MOL0     C30589   3.857  10.253   7.300  0.5005  0.2982 -0.1390
  968MOL0    Cl30590   3.976  10.206   7.178  0.0242  0.0344 -0.6009
  968MOL0     C30591   4.145   9.267   7.601 -0.6589  0.6532 -0.3453
  968MOL0     C30592   4.276   9.227   7.580 -0.4079  0.4328 -1.1165
  968MOL0     O30593   4.436   9.197   7.297  0.5750  0.6019 -0.7165
  968MOL0     C30594   4.759   9.190   7.463  0.4273 -0.0765  0.3454
  968MOL0     C30595   4.894   9.159   7.436  0.2877  0.1301 -0.7872
  968MOL0     N30596   5.276   9.206   6.889 -0.7461  0.5677 -0.2446
  968MOL0     N30597   5.334   9.300   6.827 -0.1161  0.2371  0.3188
  968MOL0     C30598   6.672   9.575   6.699 -0.7344  0.0466  0.8282
  968MOL0     C30599   6.812   9.586   6.681 -0.4320 -0.4216 -0.4387
  968MOL0     C30600   7.235   9.627   6.563 -0.4268  0.5284  0.6257
  968MOL0     C30601   7.355   9.677   6.629  0.8945  0.5931  0.2786
  968MOL0     C30602   7.471   9.702   6.566 -0.0168 -0.1945  0.2857
  968MOL0     C30603   7.479   9.702   6.423  0.6609 -0.4241 -0.0068
  968MOL0     O30604   7.591   9.740   6.357  0.5439 -0.4628  0.7571
  968MOL0     C30605   7.566   9.824   6.235  0.5218  0.4715 -0.0918
  968MOL0     C30606   7.705   9.859   6.185  0.2121 -0.6219 -0.7877
  968MOL0     C30607   7.702   9.939   6.058  0.7602  0.2599 -0.0081
  968MOL0     C30608   7.809   9.883   5.963  1.2488  0.2932 -1.0699
  968MOL0     C30609   7.767   9.929   5.824  0.2304  0.3536  0.3878
  968MOL0     C30610   7.728   9.965   5.709 -0.7032  0.5066  0.1015
  968MOL0     C30611   7.373   9.640   6.349 -0.7191 -0.6853 -0.2462
  968MOL0     C30612   7.255   9.605   6.422 -0.3431 -0.0758 -0.1699
  968MOL0     H30613   6.845   9.380   6.411  0.3824  1.3914 -1.6912
  968MOL0     H30614   6.592   9.357   6.457  1.1352  1.6101 -1.8858
  968MOL0     H30615   6.405   9.346   6.695 -0.6765  0.1396 -2.6932
  968MOL0     H30616   6.386   9.498   6.798 -1.9804 -2.9605  1.6250
  968MOL0     H30617   6.211   9.551   6.614 -0.0800  0.5886  3.3659
  968MOL0     H30618   6.247   9.388   6.545 -0.5856 -2.8731  1.9504
  968MOL0     H30619   6.137   9.286   6.734 -0.4617 -0.9676 -1.4513
  968MOL0     H30620   6.139   9.444   6.819 -3.9094 -1.7834  0.7246
  968MOL0     H30621   5.990   9.534   6.629 -0.8139 -0.7058  0.3022
  968MOL0     H30622   6.012   9.377   6.545  0.7236  0.0816 -0.5681
  968MOL0     H30623   5.899   9.263   6.728  0.8240 -0.6401  0.0468
  968MOL0     H30624   5.871   9.413   6.816 -3.8180 -1.0031 -0.3786
  968MOL0     H30625   5.733   9.478   6.604  1.5707 -0.1971 -2.8303
  968MOL0     H30626   5.764   9.313   6.549  2.3058 -1.7921  1.8932
  968MOL0     H30627   5.543   9.299   6.635 -1.0538  0.4319  1.0302
  968MOL0     H30628   5.629   9.217   6.758  0.2958  0.4293  1.4154
  968MOL0     H30629   5.524   9.498   6.760  1.6992 -0.5037 -0.5838
  968MOL0     H30630   5.638   9.436   6.889  1.9834  2.7743 -1.7975
  968MOL0     H30631   5.541   9.257   7.072  0.0428 -1.6068  0.3693
  968MOL0     H30632   5.430   9.030   7.139 -0.4292 -0.3806  3.3174
  968MOL0     H30633   5.305   9.145   7.189 -1.5477 -0.3767 -1.1744
  968MOL0     H30634   5.293   8.911   7.006 -1.2709 -3.1590  1.8739
  968MOL0     H30635   5.157   9.029   7.020 -1.7736 -1.0189  1.8149
  968MOL0     H30636   5.292   8.911   7.251  0.6018  0.0281  0.3450
  968MOL0     H30637   5.196   8.790   7.162 -1.4859  0.6896  0.0401
  968MOL0     H30638   5.063   8.878   7.357  0.8394 -2.0073 -1.1358
  968MOL0     H30639   4.998   8.912   7.195 -1.4839  1.6134  0.4870
  968MOL0     H30640   4.900   9.153   7.105 -0.5514 -1.2184 -0.8607
  968MOL0     H30641   4.717   9.236   7.020  0.3869 -1.2508 -0.2612
  968MOL0     H30642   4.578   9.141   7.078 -1.0235  1.8274 -1.4494
  968MOL0     H30643   4.589   9.315   7.101  0.3831 -0.8204  0.3966
  968MOL0     H30644   4.386   9.492   7.416 -0.0815 -2.6527 -3.5520
  968MOL0     H30645   4.167   9.572   7.441 -2.9853 -2.2352 -5.8315
  968MOL0     H30646   3.921   9.515   7.437 -1.2194 -2.0046 -0.0159
  968MOL0     H30647   3.811   9.493   7.580 -0.3379 -2.5416 -2.4591
  968MOL0     H30648   3.942   9.650   7.714  1.2007  0.4969 -0.2970
  968MOL0     H30649   4.059   9.684   7.583  0.7000 -1.7161 -2.0206
  968MOL0     H30650   3.780   9.751   7.526 -0.1669 -2.4587 -1.9924
  968MOL0     H30651   3.929   9.764   7.427 -0.2749 -2.3205  0.0727
  968MOL0     H30652   3.906   9.917   7.687  0.4150 -0.5512 -0.4233
  968MOL0     H30653   4.040   9.921   7.580  0.3577  0.6493 -0.9812
  968MOL0     H30654   3.762  10.046   7.536 -0.3524 -0.7896  0.3493
  968MOL0     H30655   3.872  10.006   7.400 -2.9226 -0.0087  0.2556
  968MOL0     H30656   3.954  10.195   7.625  2.0184 -2.3277 -0.1269
  968MOL0     H30657   4.053  10.139   7.476  0.3607 -1.1847  0.1165
  968MOL0     H30658   4.000  10.354   7.419  1.5215 -0.0025  3.1595
  968MOL0     H30659   3.846  10.334   7.501  0.0124 -1.5468  0.2620
  968MOL0     H30660   3.806  10.343   7.262  1.8616  0.7071 -1.0492
  968MOL0     H30661   3.766  10.192   7.303 -2.3959  4.0928 -1.0492
  968MOL0     H30662   4.082   9.202   7.661 -0.0841  0.1051 -0.3230
  968MOL0     H30663   4.317   9.137   7.623 -1.2903  0.9365  0.8881
  968MOL0     H30664   4.739   9.208   7.569  0.0144 -0.0786  0.2711
  968MOL0     H30665   4.962   9.152   7.520 -0.3731  6.4384  0.8276
  968MOL0     H30666   6.608   9.636   6.761 -0.1749  0.5319  0.9364
  968MOL0     H30667   6.864   9.655   6.746  1.7214  0.0337 -2.4825
  968MOL0     H30668   7.338   9.672   6.736 -4.4636  0.7340 -0.3105
  968MOL0     H30669   7.550   9.753   6.620 -0.4155 -1.5258  2.1951
  968MOL0     H30670   7.510   9.757   6.170 -1.2270 -0.4118  2.1854
  968MOL0     H30671   7.512   9.916   6.262 -2.0433 -0.9411 -0.1100
  968MOL0     H30672   7.756   9.762   6.179  0.1689 -0.6046 -1.5317
  968MOL0     H30673   7.754   9.922   6.259  1.6032 -1.5026 -0.9286
  968MOL0     H30674   7.739  10.041   6.077 -0.5415 -0.0611  7.1630
  968MOL0     H30675   7.606   9.934   6.005  1.3528  1.4836 -1.2794
  968MOL0     H30676   7.804   9.774   5.960 -1.3965  0.3103  0.0186
  968MOL0     H30677   7.909   9.915   5.995  0.7905 -2.2311  3.8374
  968MOL0     H30678   7.701   9.998   5.612  3.4728  1.6387 -0.8963
  968MOL0     H30679   7.369   9.632   6.241  0.2310 -1.2644 -0.2492
  968MOL0     H30680   7.169   9.570   6.366 -1.1388  0.2288  0.8258
  969MOL0     O30681   2.455   5.616   8.397 -0.6471  0.1705 -0.4623
  969MOL0     C30682   2.460   5.525   8.317 -0.1798  0.4353 -0.4277
  969MOL0     O30683   2.467   5.539   8.183 -0.0920 -0.5330 -0.0678
  969MOL0     C30684   2.465   5.661   8.135 -0.0905 -0.4957  0.3393
  969MOL0     C30685   2.556   5.697   8.036  0.4952 -0.0946  0.3497
  969MOL0     C30686   2.583   5.823   7.991  0.4680 -0.1487 -0.4808
  969MOL0     C30687   2.486   5.917   8.026  0.3357  0.1030  1.0123
  969MOL0     O30688   2.492   6.038   7.968 -0.9901  0.0704  0.3690
  969MOL0     C30689   2.618   6.103   7.997 -0.3382  0.1848 -1.1543
  969MOL0     C30690   2.638   6.199   7.888  0.2679 -0.1344  0.1577
  969MOL0     C30691   2.700   6.141   7.766 -0.4275  0.7633  1.0493
  969MOL0     C30692   2.736   6.258   7.668 -0.4864 -0.0647  0.8544
  969MOL0     C30693   2.796   6.199   7.536 -0.4349 -0.4832  0.1270
  969MOL0     C30694   2.810   6.319   7.439 -0.4490 -0.1969 -0.4079
  969MOL0     C30695   2.901   6.277   7.330 -0.3550 -0.8748  0.4080
  969MOL0     C30696   2.895   6.388   7.226 -0.0525  0.0258 -0.2324
  969MOL0     N30697   3.017   6.381   7.139 -0.8366  0.1617  0.9230
  969MOL0     C30698   3.148   6.417   7.179  0.5166 -0.1085  1.2729
  969MOL0     C30699   3.212   6.394   7.062  0.0738 -0.4830  0.1310
  969MOL0     C30700   3.360   6.407   7.026  0.7200  0.3974  0.2272
  969MOL0     C30701   3.429   6.264   7.031 -0.8724  0.6261  0.2776
  969MOL0     C30702   3.561   6.271   6.950 -0.5438 -0.0749  0.0706
  969MOL0     C30703   3.644   6.150   6.979 -0.3840 -0.3134 -0.3838
  969MOL0     O30704   3.552   6.034   6.982 -0.4153  0.1127 -0.0749
  969MOL0     C30705   3.589   5.903   6.997  0.1847  0.8895  0.2431
  969MOL0     C30706   3.497   5.801   7.008  0.4918  0.6232 -0.2628
  969MOL0     C30707   3.531   5.669   7.033  0.8994  0.5096 -0.4661
  969MOL0     C30708   3.414   5.574   7.024  0.1672 -0.2106 -0.0546
  969MOL0     C30709   3.660   5.636   7.063  1.2455 -0.5453 -0.1853
  969MOL0     C30710   3.705   5.505   7.121 -0.7539  0.2861  0.1589
  969MOL0     O30711   3.844   5.489   7.119  0.5595  0.5933 -1.0935
  969MOL0     C30712   3.901   5.381   7.175  0.7055 -0.8294 -0.6235
  969MOL0     C30713   3.897   5.258   7.105 -0.2950 -0.3561  0.8451
  969MOL0     C30714   3.945   5.141   7.165 -0.9415 -0.8279 -0.0204
  969MOL0     C30715   3.991   5.142   7.294 -1.0355  0.5155  0.2759
  969MOL0     O30716   4.060   5.032   7.352  0.3348 -0.3840 -0.1089
  969MOL0     C30717   4.053   4.908   7.285 -0.3509 -0.4862  0.1088
  969MOL0     C30718   4.111   4.802   7.378 -0.5027  0.6905 -0.2224
  969MOL0     C30719   4.253   4.815   7.442 -0.1315  1.0606  0.3781
  969MOL0     C30720   4.284   4.691   7.534  1.1677  1.0098 -0.8097
  969MOL0     C30721   4.427   4.709   7.592  0.0167 -0.0571 -0.7034
  969MOL0     C30722   4.470   4.599   7.688 -0.6951  0.2820  0.4574
  969MOL0     C30723   4.611   4.620   7.747 -0.0070 -0.0203 -0.3352
  969MOL0     C30724   4.680   4.499   7.808  0.1474 -0.1105 -0.0579
  969MOL0    Cl30725   4.833   4.545   7.880 -0.5509 -0.6153  0.0910
  969MOL0     C30726   3.992   5.260   7.366  0.1218 -0.2656  0.7385
  969MOL0     C30727   3.941   5.381   7.311 -0.5399  0.2127  0.7622
  969MOL0     O30728   3.621   5.412   7.149  0.1225 -0.4800 -0.5259
  969MOL0     C30729   3.756   5.742   7.043 -0.1983 -0.6812  0.4721
  969MOL0     C30730   3.719   5.869   7.004  0.7607  0.0185  0.1893
  969MOL0     N30731   3.128   6.354   6.957  0.9493 -0.0197  0.0767
  969MOL0     N30732   3.006   6.361   7.004  0.1613 -0.4171  0.4322
  969MOL0     C30733   2.375   5.882   8.104  0.5057 -0.4685  0.0546
  969MOL0     C30734   2.367   5.756   8.162  0.2119  1.0386  0.0650
  969MOL0     C30735   2.447   5.393   8.380  1.2649 -0.0062 -0.4607
  969MOL0     C30736   2.450   5.284   8.296 -0.7687  0.3768  0.4697
  969MOL0     C30737   2.442   5.153   8.347  0.1163 -0.4118 -0.5556
  969MOL0     C30738   2.431   5.131   8.486  0.0790 -0.3020 -0.0021
  969MOL0     O30739   2.412   4.999   8.523 -0.6069 -0.3344  0.1471
  969MOL0     C30740   2.390   4.962   8.667  1.0063 -0.2508 -0.1603
  969MOL0     C30741   2.374   4.812   8.687  0.1965 -1.0015  0.8933
  969MOL0     C30742   2.474   4.727   8.604 -0.3327 -0.5558 -0.0362
  969MOL0     C30743   2.607   4.743   8.664 -0.2473 -0.1083  0.2765
  969MOL0     C30744   2.705   4.665   8.580 -0.4366  0.4638 -0.1468
  969MOL0     C30745   2.769   4.590   8.503  0.6576  0.4593  1.1400
  969MOL0     C30746   2.441   5.240   8.572 -0.7189 -0.8344 -0.6388
  969MOL0     C30747   2.443   5.369   8.511 -1.2336 -0.0778  0.2449
  969MOL0     H30748   2.622   5.616   8.007  2.3499  0.2971  3.0727
  969MOL0     H30749   2.659   5.824   7.914 -0.8883  1.0869 -1.8845
  969MOL0     H30750   2.614   6.160   8.090  0.9344  0.9167 -1.5266
  969MOL0     H30751   2.703   6.036   7.987  0.4843  0.9877  0.1585
  969MOL0     H30752   2.545   6.247   7.855 -0.8519 -1.6592  0.9810
  969MOL0     H30753   2.709   6.274   7.924 -0.5114  0.1763  1.1061
  969MOL0     H30754   2.793   6.091   7.794 -0.0470  0.4900 -0.5952
  969MOL0     H30755   2.636   6.068   7.715  0.9223 -0.6111  1.2671
  969MOL0     H30756   2.641   6.297   7.630 -1.7887 -3.3020  0.4445
  969MOL0     H30757   2.812   6.322   7.714  0.1591  0.4389 -0.8357
  969MOL0     H30758   2.889   6.145   7.553 -1.5918 -2.4986  0.4742
  969MOL0     H30759   2.732   6.123   7.489  0.0582  0.4473 -2.2155
  969MOL0     H30760   2.715   6.362   7.406 -0.8773  3.7389  4.5818
  969MOL0     H30761   2.861   6.395   7.500 -2.7242  1.1981 -0.1492
  969MOL0     H30762   3.001   6.265   7.373 -0.2095 -0.1831  0.2833
  969MOL0     H30763   2.870   6.180   7.290 -0.4700 -0.1441 -1.3588
  969MOL0     H30764   2.888   6.485   7.274 -1.8368  0.6525 -1.6395
  969MOL0     H30765   2.802   6.384   7.168 -3.1028  2.7585  3.9504
  969MOL0     H30766   3.175   6.449   7.279 -0.1846 -0.2181  1.5081
  969MOL0     H30767   3.362   6.448   6.925 -1.8119  2.7396  1.0250
  969MOL0     H30768   3.419   6.479   7.083 -0.7116  0.5597  1.5867
  969MOL0     H30769   3.364   6.186   6.989  0.5613 -0.3698 -0.1669
  969MOL0     H30770   3.454   6.255   7.137  0.5946  1.8323  0.0664
  969MOL0     H30771   3.611   6.367   6.968 -0.0204  0.5950 -3.9758
  969MOL0     H30772   3.540   6.275   6.843 -0.3110 -2.8511 -0.1543
  969MOL0     H30773   3.694   6.161   7.076  0.8106 -0.7177 -0.9305
  969MOL0     H30774   3.721   6.142   6.901 -0.6860  0.7584 -0.8058
  969MOL0     H30775   3.391   5.821   7.000  0.3772  0.2615  0.2450
  969MOL0     H30776   3.351   5.557   7.111  1.9890 -2.0873  0.9912
  969MOL0     H30777   3.345   5.602   6.944  0.4182 -0.9606 -0.5444
  969MOL0     H30778   3.447   5.474   6.994  1.4387  0.0393  0.4217
  969MOL0     H30779   3.858   5.267   7.004 -2.8888  1.1884  1.8779
  969MOL0     H30780   3.926   5.052   7.106  0.8232 -0.6216 -0.9653
  969MOL0     H30781   3.953   4.885   7.248  0.3972 -0.8608 -1.7761
  969MOL0     H30782   4.126   4.914   7.204  0.9578  0.9543  1.3503
  969MOL0     H30783   4.043   4.791   7.462  1.8254  0.2922  1.7106
  969MOL0     H30784   4.096   4.706   7.327 -4.1486  1.1630 -0.3310
  969MOL0     H30785   4.262   4.902   7.508 -3.4376  0.0648  2.4112
  969MOL0     H30786   4.329   4.819   7.364 -1.3091 -1.9298 -1.0758
  969MOL0     H30787   4.212   4.694   7.616 -0.2229 -0.6376 -1.9106
  969MOL0     H30788   4.265   4.596   7.484 -0.3534  0.3937  0.8302
  969MOL0     H30789   4.429   4.802   7.650  0.0906  2.4350 -4.3671
  969MOL0     H30790   4.503   4.711   7.513  0.1327 -1.7248 -0.6622
  969MOL0     H30791   4.397   4.580   7.767 -0.7180 -0.3091  0.3000
  969MOL0     H30792   4.472   4.510   7.624 -0.5642 -0.9771  2.1459
  969MOL0     H30793   4.597   4.714   7.801 -2.0279  1.4801 -3.2465
  969MOL0     H30794   4.683   4.646   7.669  1.0856  1.3674  1.0744
  969MOL0     H30795   4.683   4.404   7.753 -0.7554 -0.4486  0.4439
  969MOL0     H30796   4.611   4.477   7.891  0.6297 -4.6002 -0.6127
  969MOL0     H30797   4.032   5.255   7.466  0.0858 -0.9716  0.7227
  969MOL0     H30798   3.952   5.479   7.356  0.9132  1.0298 -1.1956
  969MOL0     H30799   3.861   5.726   7.069  0.5812  2.0936 -0.5652
  969MOL0     H30800   3.796   5.938   6.971  2.7587 -0.8667  2.6307
  969MOL0     H30801   2.297   5.956   8.120  2.2454  1.1952  1.3268
  969MOL0     H30802   2.290   5.737   8.236  0.4521 -2.1739 -0.3328
  969MOL0     H30803   2.481   5.303   8.193  2.4343 -1.4629  0.9256
  969MOL0     H30804   2.451   5.071   8.276  0.0821 -0.8068 -0.1084
  969MOL0     H30805   2.477   4.997   8.723  1.0438 -0.3734 -0.1433
  969MOL0     H30806   2.299   5.016   8.698  0.6354  0.1953 -1.8965
  969MOL0     H30807   2.278   4.778   8.647 -1.6160  3.2210  1.2029
  969MOL0     H30808   2.368   4.789   8.793 -3.9695  2.1642  1.5949
  969MOL0     H30809   2.470   4.758   8.499 -1.1954 -2.0789 -0.4875
  969MOL0     H30810   2.451   4.620   8.594 -0.0809 -0.3672 -5.2460
  969MOL0     H30811   2.611   4.712   8.768  0.8872  2.1184  0.9628
  969MOL0     H30812   2.646   4.845   8.664  0.2778 -0.2174 -2.5545
  969MOL0     H30813   2.815   4.515   8.441  0.0502  0.2742  0.9103
  969MOL0     H30814   2.434   5.237   8.680  2.0735  5.0931  0.0474
  969MOL0     H30815   2.449   5.451   8.581 -0.1811 -1.7667  2.2437
  970MOL0     O30816   9.851   7.799   5.094  0.4593  0.4303 -0.0314
  970MOL0     C30817   9.882   7.790   5.211  0.1829  0.3344  0.3300
  970MOL0     O30818  10.004   7.753   5.264  0.0926  0.3840  0.5240
  970MOL0     C30819  10.102   7.755   5.171 -0.2321 -0.0521  0.2393
  970MOL0     C30820  10.123   7.642   5.096  0.2455 -0.3713  1.1038
  970MOL0     C30821  10.221   7.645   4.995  0.0105  0.1573  0.3504
  970MOL0     C30822  10.295   7.766   4.966  0.1804 -0.8608  0.4769
  970MOL0     O30823  10.386   7.740   4.875  0.6265  0.6011  0.1821
  970MOL0     C30824  10.414   7.850   4.786 -0.6026  0.6432 -0.0644
  970MOL0     C30825  10.474   7.782   4.659  0.2153 -0.0722 -0.0389
  970MOL0     C30826  10.613   7.725   4.683  0.0508  0.0402  0.0190
  970MOL0     C30827  10.694   7.747   4.551  0.8779  0.3058 -0.0261
  970MOL0     C30828  10.805   7.638   4.555  0.5212 -0.3392 -0.8438
  970MOL0     C30829  10.926   7.661   4.470  0.0887  0.9441  0.1728
  970MOL0     C30830  11.014   7.540   4.492 -0.2750 -0.8210  0.2686
  970MOL0     C30831  11.108   7.524   4.600 -0.6716 -0.2647 -0.9085
  970MOL0     N30832  11.072   7.566   4.734  0.5692  1.2472 -0.6976
  970MOL0     C30833  11.068   7.700   4.774 -0.3619 -0.0204 -0.3347
  970MOL0     C30834  11.020   7.697   4.897 -0.6337  0.1295 -0.5467
  970MOL0     C30835  10.991   7.821   4.985 -0.1031 -0.5129 -0.8013
  970MOL0     C30836  10.848   7.823   5.039 -0.3036  0.5277 -0.1960
  970MOL0     C30837  10.819   7.952   5.116 -0.5530 -0.5381 -0.5866
  970MOL0     C30838  10.681   7.960   5.184  0.5497  0.1850 -0.1860
  970MOL0     O30839  10.654   8.095   5.228 -0.0377 -0.1714 -0.2250
  970MOL0     C30840  10.602   8.183   5.141  0.3590  0.6715  0.1132
  970MOL0     C30841  10.466   8.198   5.144 -0.2389  0.2946 -0.3871
  970MOL0     C30842  10.400   8.297   5.061  0.2760  0.3751  0.6404
  970MOL0     C30843  10.247   8.315   5.070 -0.1960  0.3464  0.7075
  970MOL0     C30844  10.478   8.384   4.986 -0.6724  0.2884  0.0904
  970MOL0     C30845  10.426   8.503   4.916  0.5550  0.1065 -0.6653
  970MOL0     O30846  10.514   8.603   4.878 -0.0367  0.8906 -0.2876
  970MOL0     C30847  10.458   8.723   4.852  1.1581  0.5798  0.7316
  970MOL0     C30848  10.435   8.762   4.715  0.0630 -0.6063  0.4530
  970MOL0     C30849  10.394   8.894   4.696  0.5500 -0.0653 -0.7136
  970MOL0     C30850  10.361   8.973   4.800 -0.6635 -0.1944 -0.3982
  970MOL0     O30851  10.323   9.097   4.767  0.2235  0.4980 -0.2270
  970MOL0     C30852  10.429   9.203   4.772  0.2850  0.6610  0.4058
  970MOL0     C30853  10.538   9.191   4.671 -0.4336  0.0496 -0.2256
  970MOL0     C30854  10.493   9.210   4.527 -0.6123  0.0952 -0.0640
  970MOL0     C30855  10.490   9.364   4.487 -0.6588  0.6559 -0.2662
  970MOL0     C30856  10.366   9.446   4.521  0.3868 -0.6616  1.1417
  970MOL0     C30857  10.365   9.586   4.445 -0.7151  0.2552 -0.5330
  970MOL0     C30858  10.263   9.678   4.507  0.4360 -0.8246 -0.1859
  970MOL0     C30859  10.281   9.822   4.454 -0.4713  0.3834 -0.3133
  970MOL0    Cl30860  10.438   9.896   4.512 -0.7850 -0.3767  0.5278
  970MOL0     C30861  10.380   8.942   4.938  0.1778  0.2468  0.4217
  970MOL0     C30862  10.433   8.809   4.958 -0.2241  0.5110  0.7946
  970MOL0     O30863  10.302   8.512   4.899  0.0746 -0.3073 -0.0238
  970MOL0     C30864  10.621   8.364   4.982  0.6482 -1.1342 -0.0228
  970MOL0     C30865  10.680   8.272   5.066 -0.0465  0.4571  0.4242
  970MOL0     N30866  10.991   7.564   4.931  0.0251 -0.1460  0.4771
  970MOL0     N30867  11.028   7.487   4.838 -1.0096  0.4837 -0.0815
  970MOL0     C30868  10.265   7.883   5.044  0.6203  0.6080  0.3170
  970MOL0     C30869  10.164   7.871   5.144 -0.7846  0.8580 -0.8830
  970MOL0     C30870   9.778   7.817   5.318 -0.2611 -0.2468  0.1319
  970MOL0     C30871   9.819   7.814   5.454  0.3007 -0.0153 -0.0970
  970MOL0     C30872   9.732   7.851   5.555 -0.4399 -0.7762 -0.4788
  970MOL0     C30873   9.601   7.889   5.521 -0.4883 -0.0214  0.8325
  970MOL0     O30874   9.505   7.922   5.618 -0.1613  0.1275  0.4007
  970MOL0     C30875   9.361   7.909   5.594 -0.4294 -1.0489  0.0753
  970MOL0     C30876   9.287   7.894   5.722  0.5855  0.5914 -0.2643
  970MOL0     C30877   9.281   8.029   5.799 -0.2349  0.1471 -1.0697
  970MOL0     C30878   9.193   8.019   5.923  0.1055  0.1457  0.1304
  970MOL0     C30879   9.236   7.920   6.020  0.3797 -0.0493  0.1801
  970MOL0     C30880   9.272   7.844   6.104 -0.2223  0.6940 -0.0095
  970MOL0     C30881   9.559   7.891   5.385  0.4519  0.4708  0.0002
  970MOL0     C30882   9.646   7.845   5.285 -0.6037 -0.2003  0.4106
  970MOL0     H30883  10.070   7.553   5.128  2.0948 -2.4375 -1.1927
  970MOL0     H30884  10.228   7.552   4.940  3.3521 -1.8549  3.7576
  970MOL0     H30885  10.335   7.921   4.761  0.0297  1.1656 -0.6190
  970MOL0     H30886  10.487   7.917   4.833 -0.6670  1.6520 -1.3464
  970MOL0     H30887  10.407   7.703   4.625 -1.0041  1.3200 -1.0400
  970MOL0     H30888  10.475   7.860   4.582 -1.8521 -0.2492 -0.3071
  970MOL0     H30889  10.669   7.769   4.765  0.4340  0.2302 -0.3412
  970MOL0     H30890  10.603   7.621   4.718 -1.0790 -0.3279 -1.2923
  970MOL0     H30891  10.646   7.718   4.457  1.8787 -1.2912 -0.0723
  970MOL0     H30892  10.735   7.848   4.558 -1.5458  1.3321  0.3831
  970MOL0     H30893  10.844   7.623   4.656 -1.3854 -1.0577 -0.1626
  970MOL0     H30894  10.765   7.540   4.526 -0.4341  0.0214 -0.7982
  970MOL0     H30895  10.899   7.667   4.364  0.0259  1.3310  0.2085
  970MOL0     H30896  10.976   7.754   4.498  0.4891  1.0664 -0.9027
  970MOL0     H30897  10.949   7.451   4.494  0.0724 -1.0742  0.4234
  970MOL0     H30898  11.080   7.535   4.404  2.3559  3.1118  1.7573
  970MOL0     H30899  11.200   7.572   4.565 -2.0363  0.5761 -3.6398
  970MOL0     H30900  11.130   7.418   4.612  1.7783  0.4885  3.5512
  970MOL0     H30901  11.096   7.786   4.714 -1.0530 -0.2408 -0.9941
  970MOL0     H30902  11.074   7.845   5.053 -0.9015  2.7384 -0.8105
  970MOL0     H30903  10.987   7.900   4.910 -1.7894  1.1317  0.9452
  970MOL0     H30904  10.827   7.734   5.099  0.7360  0.4255  0.0219
  970MOL0     H30905  10.775   7.827   4.957  0.8713 -0.5961 -1.3232
  970MOL0     H30906  10.841   8.034   5.048  1.0240 -0.1186  0.3885
  970MOL0     H30907  10.898   7.982   5.185  0.4598 -2.7031 -0.7066
  970MOL0     H30908  10.676   7.894   5.272  1.6251 -0.3229 -0.4924
  970MOL0     H30909  10.601   7.926   5.118  1.4379  0.6747 -1.5468
  970MOL0     H30910  10.413   8.143   5.221  0.6654 -1.6439 -1.0629
  970MOL0     H30911  10.192   8.294   4.977 -1.8497  0.7333  1.5557
  970MOL0     H30912  10.214   8.248   5.150 -1.4704 -1.2144 -1.0329
  970MOL0     H30913  10.214   8.414   5.101 -0.8408  0.2797  0.2546
  970MOL0     H30914  10.440   8.688   4.636 -2.7300 -0.9294  0.4915
  970MOL0     H30915  10.385   8.940   4.598  2.3887  0.9966 -0.4235
  970MOL0     H30916  10.370   9.292   4.753 -1.0971 -0.5910 -1.4469
  970MOL0     H30917  10.468   9.207   4.874  2.3680 -1.2948 -0.2109
  970MOL0     H30918  10.621   9.257   4.697  0.1470  1.1549 -4.1470
  970MOL0     H30919  10.588   9.094   4.679  4.0978  2.0969 -0.7946
  970MOL0     H30920  10.396   9.161   4.525 -0.9653  0.6545  1.6741
  970MOL0     H30921  10.560   9.156   4.459 -0.1246  1.5704 -0.7974
  970MOL0     H30922  10.573   9.409   4.543 -0.5416  1.2942 -0.9369
  970MOL0     H30923  10.516   9.361   4.381 -1.8910  0.1242 -0.5815
  970MOL0     H30924  10.343   9.453   4.628  0.9811 -1.1597  1.3050
  970MOL0     H30925  10.284   9.393   4.470 -0.8422  2.8962 -0.9672
  970MOL0     H30926  10.461   9.631   4.470 -0.6237 -0.4653  0.4507
  970MOL0     H30927  10.359   9.566   4.337  1.7508 -1.4146 -0.4508
  970MOL0     H30928  10.267   9.692   4.616 -0.5964  1.3884 -0.3783
  970MOL0     H30929  10.166   9.635   4.481 -1.1762  3.0698 -1.3114
  970MOL0     H30930  10.197   9.884   4.484  0.6583 -0.1494  4.8997
  970MOL0     H30931  10.280   9.816   4.344 -1.1648 -0.0983 -0.2886
  970MOL0     H30932  10.381   9.018   5.015 -1.8833  1.5650 -0.7515
  970MOL0     H30933  10.460   8.774   5.057 -2.9078 -3.3655  0.3682
  970MOL0     H30934  10.683   8.426   4.918 -2.7815  2.2341 -0.4702
  970MOL0     H30935  10.788   8.268   5.068 -0.1013 -2.8304  1.3047
  970MOL0     H30936  10.327   7.972   5.036  1.6018 -0.1301 -0.5672
  970MOL0     H30937  10.137   7.966   5.190 -0.0088  1.0251 -0.7624
  970MOL0     H30938   9.922   7.790   5.477  1.5053  1.5210 -3.2070
  970MOL0     H30939   9.775   7.863   5.654  2.2633  3.4599 -1.8900
  970MOL0     H30940   9.326   7.996   5.537  0.1405 -0.5180  0.5199
  970MOL0     H30941   9.359   7.820   5.530  2.7672 -2.4325  1.6776
  970MOL0     H30942   9.339   7.814   5.774  2.7581  0.2541 -2.7506
  970MOL0     H30943   9.187   7.860   5.693  0.7235 -1.3468  1.3489
  970MOL0     H30944   9.251   8.110   5.733 -0.6390  1.2948  0.4825
  970MOL0     H30945   9.383   8.047   5.834 -1.0170 -0.9903  2.1691
  970MOL0     H30946   9.094   7.993   5.882 -0.9753  1.7215  1.6247
  970MOL0     H30947   9.192   8.122   5.960 -0.0601  0.2107 -0.0468
  970MOL0     H30948   9.280   7.767   6.178 -0.6676 -1.5739 -2.2032
  970MOL0     H30949   9.460   7.912   5.344  0.5008  0.1696 -0.2766
  970MOL0     H30950   9.617   7.867   5.182  0.2295  0.3526  0.2845
  971MOL0     O30951   0.748   0.567   2.108  0.0111 -0.2636  0.0517
  971MOL0     C30952   0.653   0.497   2.122  0.1492  0.0367 -0.0209
  971MOL0     O30953   0.522   0.541   2.138 -0.3518 -0.2212 -0.3650
  971MOL0     C30954   0.519   0.682   2.140  0.1655  0.1635  0.3793
  971MOL0     C30955   0.516   0.746   2.259  0.2384 -0.0136 -0.5123
  971MOL0     C30956   0.501   0.885   2.264 -0.4760 -0.4795 -0.0516
  971MOL0     C30957   0.494   0.965   2.152 -0.5991  0.2426  0.6787
  971MOL0     O30958   0.497   1.104   2.170 -1.0385 -0.8015 -0.2858
  971MOL0     C30959   0.475   1.203   2.064  0.1443  1.3009  0.0940
  971MOL0     C30960   0.476   1.353   2.101  0.1759  0.0649  1.3192
  971MOL0     C30961   0.546   1.443   1.993 -0.7298  0.2963 -0.2854
  971MOL0     C30962   0.463   1.453   1.867 -0.9542 -1.2156  0.7888
  971MOL0     C30963   0.515   1.575   1.776  0.3778 -1.0090 -0.5199
  971MOL0     C30964   0.407   1.620   1.676  0.2767  0.0202 -0.6765
  971MOL0     C30965   0.474   1.664   1.548  0.6935  0.2338  0.3919
  971MOL0     C30966   0.360   1.724   1.462 -0.0452 -0.8719 -0.0074
  971MOL0     N30967   0.399   1.769   1.328  0.4581  0.3543  0.0413
  971MOL0     C30968   0.517   1.831   1.314  0.1029 -0.2814  0.0750
  971MOL0     C30969   0.519   1.859   1.176 -0.5365  0.0103 -1.5413
  971MOL0     C30970   0.638   1.916   1.096  0.1608 -0.5119  0.2558
  971MOL0     C30971   0.748   1.815   1.086  0.0571 -0.5404  0.1082
  971MOL0     C30972   0.841   1.837   1.199 -0.4064 -0.3212  0.1679
  971MOL0     C30973   0.962   1.751   1.165 -0.7651  0.8765  0.5174
  971MOL0     O30974   1.038   1.797   1.050  0.2252 -0.3489 -0.8745
  971MOL0     C30975   1.159   1.735   1.025 -0.3609  0.3801 -0.3275
  971MOL0     C30976   1.236   1.777   0.925  0.2644 -0.4948  0.4531
  971MOL0     C30977   1.351   1.702   0.890 -0.4455  0.0639 -0.0703
  971MOL0     C30978   1.432   1.772   0.775  0.1887  0.0402 -0.6958
  971MOL0     C30979   1.382   1.580   0.950 -0.2140 -0.4103  0.1086
  971MOL0     C30980   1.484   1.482   0.899  1.1347 -0.4542 -0.2058
  971MOL0     O30981   1.486   1.361   0.969 -0.4572 -0.0814 -0.1960
  971MOL0     C30982   1.602   1.289   0.958  0.0983 -0.2944 -0.6136
  971MOL0     C30983   1.642   1.218   0.844  1.1238 -0.0105 -0.9787
  971MOL0     C30984   1.767   1.157   0.838  0.3117 -0.1916 -0.1032
  971MOL0     C30985   1.844   1.150   0.954 -0.4598  0.3253  1.1335
  971MOL0     O30986   1.966   1.079   0.951  0.1997  0.2267  0.0921
  971MOL0     C30987   1.974   0.961   1.037  0.2925 -1.1268  0.3541
  971MOL0     C30988   1.883   0.844   1.007  0.6465 -1.1288  0.5133
  971MOL0     C30989   1.949   0.743   0.921  0.0612 -0.2679 -0.4130
  971MOL0     C30990   1.841   0.634   0.898  0.3507  0.4801 -0.5084
  971MOL0     C30991   1.893   0.533   0.795 -0.4214 -1.0234 -0.6367
  971MOL0     C30992   1.775   0.428   0.768  0.0018 -1.5189 -0.4049
  971MOL0     C30993   1.820   0.299   0.688  0.2164  0.1651  0.0429
  971MOL0     C30994   1.719   0.180   0.692 -0.1264 -0.1398 -0.4262
  971MOL0    Cl30995   1.566   0.245   0.615  0.1142  0.1091  0.0275
  971MOL0     C30996   1.799   1.205   1.078  0.1369 -0.2085  0.1072
  971MOL0     C30997   1.687   1.287   1.074  0.0506  0.8803 -0.2817
  971MOL0     O30998   1.561   1.520   0.806  0.6672 -1.0378  0.2726
  971MOL0     C30999   1.300   1.543   1.054 -1.0700  0.1087 -0.3290
  971MOL0     C31000   1.188   1.609   1.093 -0.0788 -0.9877  0.4036
  971MOL0     N31001   0.406   1.793   1.124  0.3919  0.1896  0.6996
  971MOL0     N31002   0.336   1.750   1.215  0.2185  0.1682 -0.6482
  971MOL0     C31003   0.495   0.898   2.030  0.5450 -0.2075 -0.2424
  971MOL0     C31004   0.503   0.761   2.020 -0.2860  0.5767  0.8905
  971MOL0     C31005   0.682   0.355   2.135  0.5632  0.3422 -0.1664
  971MOL0     C31006   0.789   0.322   2.214 -0.3517  0.6600  0.0838
  971MOL0     C31007   0.824   0.185   2.232 -0.4475 -0.9182 -0.2288
  971MOL0     C31008   0.745   0.088   2.166 -0.3771  0.5723 -0.2981
  971MOL0     O31009   0.778  -0.048   2.160  0.0617  0.0844  0.6434
  971MOL0     C31010   0.860  -0.102   2.259  1.1745  0.3355 -0.3626
  971MOL0     C31011   0.879  -0.256   2.243  0.8050 -0.1534 -0.3696
  971MOL0     C31012   0.968  -0.307   2.350  0.1533  0.2577 -0.4567
  971MOL0     C31013   0.875  -0.374   2.466  0.0679 -0.2625 -0.2110
  971MOL0     C31014   0.965  -0.441   2.562 -0.4346 -1.3618 -0.3560
  971MOL0     C31015   1.042  -0.508   2.615 -0.9904 -0.7643 -0.7855
  971MOL0     C31016   0.634   0.128   2.095 -1.1339  0.9274 -0.7992
  971MOL0     C31017   0.599   0.262   2.080  0.1487  0.3674 -0.1545
  971MOL0     H31018   0.514   0.685   2.349  1.3676 -0.4778 -0.7787
  971MOL0     H31019   0.495   0.927   2.364  0.8871  0.9670 -0.5240
  971MOL0     H31020   0.544   1.185   1.981 -2.1942 -0.0826 -1.6755
  971MOL0     H31021   0.378   1.165   2.030  1.4321 -0.5268 -1.7222
  971MOL0     H31022   0.373   1.388   2.111 -0.6008 -2.2650  2.0330
  971MOL0     H31023   0.529   1.355   2.197 -3.6084 -0.8787  3.6512
  971MOL0     H31024   0.552   1.537   2.048 -0.2653  0.0172  0.1495
  971MOL0     H31025   0.649   1.416   1.968 -0.4490  1.3112 -0.2768
  971MOL0     H31026   0.473   1.366   1.801  0.4328  0.2314 -1.0199
  971MOL0     H31027   0.356   1.471   1.885 -0.7602 -0.4710  1.2409
  971MOL0     H31028   0.563   1.659   1.828 -1.6054 -0.7929  1.1119
  971MOL0     H31029   0.587   1.522   1.713 -2.6217 -2.2329 -3.2085
  971MOL0     H31030   0.350   1.532   1.643 -2.3373  1.2094  0.4070
  971MOL0     H31031   0.338   1.697   1.711 -0.8174 -1.6392  0.9771
  971MOL0     H31032   0.547   1.742   1.571  0.9879  0.7694 -2.1087
  971MOL0     H31033   0.521   1.585   1.489  1.3454  4.2551 -5.1478
  971MOL0     H31034   0.315   1.808   1.515 -1.6060 -1.4977 -0.2875
  971MOL0     H31035   0.287   1.643   1.450  1.5448 -2.2979 -0.5312
  971MOL0     H31036   0.583   1.854   1.397  0.7621  1.0873 -0.7708
  971MOL0     H31037   0.608   1.942   0.994 -1.9893  2.2589  1.4636
  971MOL0     H31038   0.665   2.014   1.136 -2.4249  0.7331 -0.8094
  971MOL0     H31039   0.800   1.840   0.993  3.3269 -1.7822  1.4672
  971MOL0     H31040   0.705   1.715   1.088  0.7185 -0.8141  1.4830
  971MOL0     H31041   0.799   1.798   1.292 -3.6319  1.7637 -0.2725
  971MOL0     H31042   0.878   1.940   1.208  1.8979 -0.8704 -1.8152
  971MOL0     H31043   0.929   1.647   1.156 -1.0379  0.7988  2.1567
  971MOL0     H31044   1.039   1.740   1.241  1.5574 -4.1881 -2.0953
  971MOL0     H31045   1.203   1.861   0.865  3.3332  2.0277  2.0011
  971MOL0     H31046   1.429   1.709   0.685  2.8116 -2.3162  0.7206
  971MOL0     H31047   1.394   1.872   0.752 -2.5402 -1.0553 -1.4294
  971MOL0     H31048   1.537   1.776   0.804  0.0975 -0.8236 -0.2292
  971MOL0     H31049   1.574   1.223   0.759  0.7288  2.4368 -0.5963
  971MOL0     H31050   1.789   1.116   0.740  3.6954  2.0231 -0.4436
  971MOL0     H31051   2.064   0.922   0.990 -0.1750 -1.2630 -0.4371
  971MOL0     H31052   1.979   0.998   1.140  2.3802  1.9849 -0.7341
  971MOL0     H31053   1.862   0.795   1.103 -1.0237  2.5916  2.2810
  971MOL0     H31054   1.792   0.881   0.959  1.4782 -0.4852 -0.6211
  971MOL0     H31055   2.037   0.693   0.963  1.3844 -0.5795 -3.3306
  971MOL0     H31056   1.983   0.801   0.835  0.5112  4.8443  2.7928
  971MOL0     H31057   1.825   0.586   0.995 -1.2318  2.9169  0.5532
  971MOL0     H31058   1.745   0.675   0.866 -0.4427  1.6549  2.9324
  971MOL0     H31059   1.967   0.472   0.848 -0.7411 -0.3251  0.6556
  971MOL0     H31060   1.935   0.581   0.705  0.7491 -0.7205  0.0467
  971MOL0     H31061   1.731   0.404   0.865 -0.1193 -0.6452 -0.2307
  971MOL0     H31062   1.700   0.483   0.711  0.5084 -0.9165 -0.5124
  971MOL0     H31063   1.914   0.258   0.726 -0.5028 -0.6618  0.9784
  971MOL0     H31064   1.845   0.323   0.584  1.5459 -4.0744 -0.8423
  971MOL0     H31065   1.689   0.146   0.792 -2.6685 -1.2076 -1.4759
  971MOL0     H31066   1.756   0.098   0.631  0.2996 -0.3929  0.1634
  971MOL0     H31067   1.867   1.200   1.162  0.5885 -0.7960 -0.2867
  971MOL0     H31068   1.676   1.334   1.171 -1.1388  0.9913 -0.4494
  971MOL0     H31069   1.334   1.455   1.107  0.0773  1.0382  0.5130
  971MOL0     H31070   1.121   1.564   1.166 -0.5805 -1.2302 -0.1902
  971MOL0     H31071   0.489   0.963   1.944 -0.4608 -0.2063 -0.1900
  971MOL0     H31072   0.482   0.723   1.921 -1.2510  0.6952  1.0343
  971MOL0     H31073   0.854   0.391   2.267  0.0123  0.8019 -0.5387
  971MOL0     H31074   0.919   0.161   2.280 -1.1256 -0.5080  1.3762
  971MOL0     H31075   0.963  -0.064   2.264  1.3544 -0.0114 -1.1716
  971MOL0     H31076   0.833  -0.077   2.361  2.9124 -0.1704  0.2660
  971MOL0     H31077   0.906  -0.283   2.140 -0.1924 -1.5681 -0.2891
  971MOL0     H31078   0.777  -0.295   2.247  1.1857 -1.3286 -1.3109
  971MOL0     H31079   1.044  -0.233   2.378 -0.8582  0.3236  2.3492
  971MOL0     H31080   1.018  -0.392   2.303 -0.6830 -0.4106 -0.1622
  971MOL0     H31081   0.804  -0.447   2.424 -0.5969  1.0504 -1.4162
  971MOL0     H31082   0.822  -0.295   2.520 -1.8480 -2.6318  1.6636
  971MOL0     H31083   1.110  -0.583   2.652 -0.8303 -0.5106 -0.5615
  971MOL0     H31084   0.588   0.040   2.050  1.1028 -0.5990 -0.2791
  971MOL0     H31085   0.504   0.290   2.036 -0.3503 -1.8689 -0.5991
  972MOL0     O31086   5.975   7.895   0.543 -0.0134 -0.6062 -0.2683
  972MOL0     C31087   5.914   7.823   0.615 -0.8969 -0.0549  0.4652
  972MOL0     O31088   5.779   7.830   0.648 -0.9175 -0.7350  0.3709
  972MOL0     C31089   5.703   7.932   0.592 -0.0452 -0.6178  0.1972
  972MOL0     C31090   5.711   8.067   0.638 -0.4114  0.3265  0.6093
  972MOL0     C31091   5.682   8.175   0.553  0.3870 -0.4670 -0.6439
  972MOL0     C31092   5.608   8.156   0.438 -1.0462 -0.2465  0.7845
  972MOL0     O31093   5.585   8.262   0.350  0.6583 -0.0524 -0.4227
  972MOL0     C31094   5.525   8.385   0.397 -0.2704 -1.0541 -0.1774
  972MOL0     C31095   5.572   8.502   0.306 -0.3948  0.2987 -0.7905
  972MOL0     C31096   5.490   8.503   0.170 -1.0937 -0.5913 -0.2749
  972MOL0     C31097   5.525   8.619   0.073  0.3817  0.9623 -0.7094
  972MOL0     C31098   5.463   8.603  -0.068  0.8903 -0.0041 -0.5891
  972MOL0     C31099   5.425   8.741  -0.133  0.1924  0.5501  0.0623
  972MOL0     C31100   5.362   8.740  -0.278 -0.5417  0.5265 -1.0627
  972MOL0     C31101   5.215   8.696  -0.299  0.5296 -0.5271 -1.2247
  972MOL0     N31102   5.112   8.792  -0.247  0.0290  0.7631  0.4122
  972MOL0     C31103   5.038   8.779  -0.125 -0.1051 -0.0546  0.8884
  972MOL0     C31104   4.998   8.907  -0.104  0.1243 -0.3098 -0.3600
  972MOL0     C31105   4.957   8.959   0.034 -0.0610 -0.1314  0.5899
  972MOL0     C31106   5.040   9.079   0.099 -0.8803 -0.1957 -0.2190
  972MOL0     C31107   5.187   9.041   0.119 -0.1963  0.2210  0.3989
  972MOL0     C31108   5.215   8.931   0.226  0.3336  0.0462  0.5710
  972MOL0     O31109   5.163   8.799   0.204 -0.2898 -0.4209 -0.2342
  972MOL0     C31110   5.190   8.700   0.293 -0.4275  0.5301  0.0842
  972MOL0     C31111   5.104   8.586   0.279  0.0431  0.0208  0.8003
  972MOL0     C31112   5.106   8.475   0.369 -0.1580 -0.9134  0.5200
  972MOL0     C31113   5.005   8.370   0.340  1.0013 -0.8030 -0.0777
  972MOL0     C31114   5.195   8.486   0.482 -0.5310  0.3045  0.4768
  972MOL0     C31115   5.210   8.383   0.587 -0.1974 -0.3723 -0.0559
  972MOL0     O31116   5.334   8.343   0.608 -0.6643 -0.2546 -0.7774
  972MOL0     C31117   5.359   8.235   0.694  0.3261 -1.0987  0.8598
  972MOL0     C31118   5.441   8.260   0.809  0.1673  0.4314 -0.4677
  972MOL0     C31119   5.487   8.156   0.898  0.3103 -0.3604  0.0649
  972MOL0     C31120   5.452   8.025   0.866  0.5801  0.4288  0.8754
  972MOL0     O31121   5.494   7.926   0.954 -0.7203 -0.9791 -0.0604
  972MOL0     C31122   5.449   7.936   1.096 -0.6526 -0.5639  0.4728
  972MOL0     C31123   5.535   7.859   1.191  0.1467  0.0330  1.1354
  972MOL0     C31124   5.557   7.705   1.156  0.8439 -0.7587 -0.7339
  972MOL0     C31125   5.624   7.623   1.273  0.0903 -0.2711 -0.4919
  972MOL0     C31126   5.688   7.481   1.244  0.3653 -0.8716  0.1973
  972MOL0     C31127   5.733   7.412   1.374 -0.2083 -0.3583  0.6763
  972MOL0     C31128   5.818   7.290   1.344 -0.5518  0.2985 -1.0276
  972MOL0     C31129   5.757   7.188   1.241  0.5226 -0.5083 -0.3900
  972MOL0    Cl31130   5.587   7.148   1.285 -0.0363  0.1813 -0.1985
  972MOL0     C31131   5.370   7.999   0.760  0.2151  0.2457  0.4808
  972MOL0     C31132   5.319   8.101   0.676 -0.4041  0.2463  0.2190
  972MOL0     O31133   5.117   8.337   0.641  0.2993 -0.1075 -0.1441
  972MOL0     C31134   5.282   8.604   0.493  1.6767  0.7265  1.1350
  972MOL0     C31135   5.275   8.708   0.403 -0.0763 -0.6914  0.2234
  972MOL0     N31136   5.035   8.993  -0.210  0.4407 -0.4443 -0.4783
  972MOL0     N31137   5.096   8.924  -0.294 -0.2738 -0.4516 -0.9491
  972MOL0     C31138   5.592   8.021   0.389  0.1383  0.4573 -0.4626
  972MOL0     C31139   5.641   7.918   0.467  0.4846  0.5923 -0.2102
  972MOL0     C31140   5.998   7.724   0.691 -0.0487  0.2908  0.0934
  972MOL0     C31141   5.944   7.668   0.809  0.5470 -0.6601 -0.4277
  972MOL0     C31142   6.000   7.558   0.863 -0.4264  0.1687  0.1087
  972MOL0     C31143   6.131   7.518   0.813 -0.2268  0.6845  0.2179
  972MOL0     O31144   6.221   7.434   0.878 -0.9712  0.0682 -0.1660
  972MOL0     C31145   6.185   7.377   1.003  0.5080 -0.5420 -1.0824
  972MOL0     C31146   6.291   7.298   1.072 -0.0494 -0.8177  0.3075
  972MOL0     C31147   6.344   7.194   0.970 -0.7915  0.5292 -0.3135
  972MOL0     C31148   6.421   7.090   1.057 -0.2288  0.3203  0.9802
  972MOL0     C31149   6.525   7.157   1.136 -0.0906 -0.5761  0.1126
  972MOL0     C31150   6.605   7.228   1.193 -0.1528 -0.8392  1.0690
  972MOL0     C31151   6.183   7.572   0.691  0.1246 -1.3841 -0.1443
  972MOL0     C31152   6.112   7.675   0.634 -0.3307  0.1195  0.0941
  972MOL0     H31153   5.754   8.093   0.734  0.0747 -0.8880  0.7328
  972MOL0     H31154   5.716   8.266   0.601  0.4795 -1.6699  1.7152
  972MOL0     H31155   5.417   8.381   0.412  0.0988 -2.4757  2.9091
  972MOL0     H31156   5.570   8.403   0.495 -1.5568  1.8314 -0.0340
  972MOL0     H31157   5.551   8.597   0.356  0.6368 -0.0134  0.2912
  972MOL0     H31158   5.681   8.499   0.292 -0.3819 -0.3164 -0.5755
  972MOL0     H31159   5.508   8.409   0.117 -0.6431  1.0871 -3.3087
  972MOL0     H31160   5.383   8.517   0.189 -0.8165  1.9793 -0.3564
  972MOL0     H31161   5.469   8.702   0.118 -0.7851 -1.1578  2.0701
  972MOL0     H31162   5.632   8.638   0.069  0.9560 -1.4439  0.9506
  972MOL0     H31163   5.542   8.565  -0.134  1.6718  1.8123 -0.7451
  972MOL0     H31164   5.375   8.537  -0.066  0.8637  0.0486  0.2159
  972MOL0     H31165   5.357   8.803  -0.073 -0.7986  0.9820 -1.4569
  972MOL0     H31166   5.522   8.791  -0.136  0.0496  0.9021  0.8999
  972MOL0     H31167   5.347   8.840  -0.320 -4.8122  0.3533 -0.4209
  972MOL0     H31168   5.433   8.688  -0.342  0.3319  1.7894 -1.1412
  972MOL0     H31169   5.194   8.595  -0.264  1.4165 -0.1515  0.4746
  972MOL0     H31170   5.193   8.700  -0.406  3.1150 -1.3909 -1.8544
  972MOL0     H31171   5.040   8.705  -0.045 -0.0645  0.8513  1.7522
  972MOL0     H31172   4.854   8.990   0.016  0.5314 -0.3830 -4.5745
  972MOL0     H31173   4.956   8.876   0.106 -0.1516  0.7372  1.6233
  972MOL0     H31174   4.997   9.097   0.198  0.9592 -0.0814  0.6064
  972MOL0     H31175   5.055   9.174   0.047  0.3597 -0.0323  0.4037
  972MOL0     H31176   5.233   9.135   0.151 -2.4448  0.7514  2.3975
  972MOL0     H31177   5.230   9.003   0.026 -0.5996 -0.1871  0.3765
  972MOL0     H31178   5.166   8.972   0.315  0.3426  1.2492  0.0425
  972MOL0     H31179   5.324   8.938   0.236  0.2528  5.9921  0.9099
  972MOL0     H31180   5.027   8.590   0.202 -0.5376  4.7598  1.3870
  972MOL0     H31181   5.009   8.303   0.426 -0.1019  0.1473  0.7498
  972MOL0     H31182   4.904   8.412   0.336 -0.1722 -2.8726  3.4456
  972MOL0     H31183   5.018   8.322   0.243 -2.9152 -0.8927 -0.7125
  972MOL0     H31184   5.469   8.362   0.834  2.2456 -0.7065  2.3862
  972MOL0     H31185   5.562   8.185   0.971  2.6839 -2.4369 -1.3747
  972MOL0     H31186   5.449   8.042   1.123 -1.3487 -1.0233  2.4987
  972MOL0     H31187   5.343   7.908   1.098 -0.8556 -0.1065 -1.8159
  972MOL0     H31188   5.633   7.903   1.172 -0.1819  0.1229 -0.4984
  972MOL0     H31189   5.501   7.870   1.295 -1.6041 -1.6301  0.7872
  972MOL0     H31190   5.623   7.705   1.069 -0.2777 -0.1655 -1.5970
  972MOL0     H31191   5.466   7.650   1.132  0.5803 -0.9166  0.5512
  972MOL0     H31192   5.706   7.682   1.316 -0.9992  0.0638  1.1812
  972MOL0     H31193   5.541   7.610   1.343  0.8079 -1.0788  0.2299
  972MOL0     H31194   5.780   7.486   1.185 -0.1176 -1.5902 -0.6539
  972MOL0     H31195   5.625   7.405   1.197  2.1568 -3.5916  1.9028
  972MOL0     H31196   5.795   7.482   1.433  1.9532  0.8964 -2.7891
  972MOL0     H31197   5.649   7.375   1.433 -1.2606  0.0360 -0.5366
  972MOL0     H31198   5.856   7.249   1.439  1.9838  3.1122 -0.6910
  972MOL0     H31199   5.916   7.324   1.310  0.2581  1.1439  1.8695
  972MOL0     H31200   5.811   7.093   1.245  2.6230  0.6421  0.4991
  972MOL0     H31201   5.770   7.230   1.141  3.5265  2.8200  1.1349
  972MOL0     H31202   5.334   7.897   0.749 -0.2684  0.3582  0.9587
  972MOL0     H31203   5.255   8.077   0.592 -1.2504 -2.2383  1.4714
  972MOL0     H31204   5.361   8.610   0.568  3.6402  0.8465 -0.8176
  972MOL0     H31205   5.345   8.791   0.412 -3.8256  2.9650 -1.1322
  972MOL0     H31206   5.550   8.001   0.292 -2.4731  2.5700  0.1030
  972MOL0     H31207   5.636   7.821   0.418  1.1229  0.4072  0.0847
  972MOL0     H31208   5.852   7.700   0.857 -0.6113 -0.4954 -2.6400
  972MOL0     H31209   5.965   7.506   0.951 -3.5991 -1.0472 -1.7181
  972MOL0     H31210   6.152   7.458   1.069  1.5860 -1.0991  0.1777
  972MOL0     H31211   6.107   7.301   0.991  0.5122 -0.5927 -0.7988
  972MOL0     H31212   6.262   7.260   1.171  0.6205  0.2158  0.9199
  972MOL0     H31213   6.361   7.378   1.096 -1.7273  0.3699  1.4631
  972MOL0     H31214   6.413   7.233   0.895  0.4006  0.6991  0.8279
  972MOL0     H31215   6.261   7.143   0.920 -0.8231 -1.0930  1.2952
  972MOL0     H31216   6.455   7.019   0.981 -1.3195  0.8509 -0.0359
  972MOL0     H31217   6.357   7.029   1.121 -0.6855 -0.6829 -0.3922
  972MOL0     H31218   6.671   7.298   1.242  1.4847 -1.0912 -0.6518
  972MOL0     H31219   6.269   7.538   0.633 -0.6886 -0.2485 -2.0668
  972MOL0     H31220   6.145   7.717   0.540  0.3958  0.8384  0.6574
  973MOL0     O31221   3.827   0.029   8.562 -0.1906 -0.3201  0.7979
  973MOL0     C31222   3.841  -0.064   8.482  0.4334  1.0454 -0.5022
  973MOL0     O31223   3.949  -0.142   8.471 -0.8635 -0.5488 -0.5935
  973MOL0     C31224   4.063  -0.107   8.542 -0.6015  0.1377  0.2431
  973MOL0     C31225   4.065  -0.117   8.682  0.5288  0.3315  0.5358
  973MOL0     C31226   4.181  -0.086   8.752  0.0584 -0.9381 -0.6419
  973MOL0     C31227   4.293  -0.038   8.696 -0.6332  0.1939 -0.4356
  973MOL0     O31228   4.390  -0.015   8.789 -0.3111 -0.3226  0.6016
  973MOL0     C31229   4.486  -0.108   8.752 -0.7504  0.1985 -0.4576
  973MOL0     C31230   4.605  -0.082   8.843  0.2105 -0.4958 -0.4027
  973MOL0     C31231   4.738  -0.135   8.793 -0.6859  0.4587 -0.4638
  973MOL0     C31232   4.833  -0.144   8.914 -0.3753  0.2864  0.4265
  973MOL0     C31233   4.973  -0.182   8.869 -0.2127  0.8702  0.7797
  973MOL0     C31234   5.057  -0.064   8.799 -0.4977 -1.0135  0.1508
  973MOL0     C31235   5.191  -0.129   8.746 -0.8599  0.5518 -0.1674
  973MOL0     C31236   5.318  -0.092   8.828 -0.9167 -0.4022  0.5451
  973MOL0     N31237   5.440  -0.140   8.768  0.1960  0.6888 -0.1984
  973MOL0     C31238   5.564  -0.083   8.810 -0.4492  0.0952  1.0533
  973MOL0     C31239   5.648  -0.147   8.737 -0.5642 -0.6118  1.1109
  973MOL0     C31240   5.795  -0.119   8.734 -0.2880  0.1601 -0.6048
  973MOL0     C31241   5.834  -0.082   8.584 -1.0751  0.3685 -0.1947
  973MOL0     C31242   5.980  -0.034   8.589  0.9012 -0.6878 -0.2969
  973MOL0     C31243   6.015   0.049   8.470 -0.0757 -0.4363  0.3230
  973MOL0     O31244   6.154   0.098   8.482  0.0867  0.3293 -0.0960
  973MOL0     C31245   6.257   0.002   8.474 -0.1613  0.2632  0.0677
  973MOL0     C31246   6.385   0.040   8.518 -0.1055  0.0139  0.1402
  973MOL0     C31247   6.497  -0.039   8.488  0.5881  0.6782  0.1541
  973MOL0     C31248   6.623   0.018   8.544 -0.0021 -0.1845 -0.1448
  973MOL0     C31249   6.488  -0.157   8.414 -0.0380 -0.2704 -0.6309
  973MOL0     C31250   6.601  -0.243   8.383  0.4247 -0.6102  0.2706
  973MOL0     O31251   6.570  -0.339   8.287  0.6535 -0.5027  0.2760
  973MOL0     C31252   6.651  -0.440   8.270  0.2608  0.0521  0.2197
  973MOL0     C31253   6.631  -0.565   8.325 -0.2647  0.1540 -0.9455
  973MOL0     C31254   6.733  -0.664   8.316  1.0977  0.5623  0.1050
  973MOL0     C31255   6.850  -0.644   8.245  0.3319  0.6476 -0.1435
  973MOL0     O31256   6.937  -0.746   8.222  0.7243  0.3319  0.8727
  973MOL0     C31257   7.074  -0.718   8.189  0.0616  0.0420  0.1402
  973MOL0     C31258   7.130  -0.849   8.149  0.5252  2.0006 -1.1988
  973MOL0     C31259   7.274  -0.836   8.105 -0.2456  0.9571 -0.1650
  973MOL0     C31260   7.285  -0.866   7.951 -0.3508 -0.0988 -0.4110
  973MOL0     C31261   7.431  -0.849   7.910 -0.1414 -0.1793 -0.5034
  973MOL0     C31262   7.477  -0.702   7.910  0.0304 -0.6118  0.1335
  973MOL0     C31263   7.578  -0.693   7.801  0.0898  0.4722  0.4794
  973MOL0     C31264   7.619  -0.551   7.774 -0.6499  1.0879  0.4288
  973MOL0    Cl31265   7.714  -0.503   7.913  0.1214 -0.4867 -0.5567
  973MOL0     C31266   6.863  -0.515   8.175 -0.4127  0.6231  0.4923
  973MOL0     C31267   6.769  -0.418   8.196 -0.3849  0.3312  0.2540
  973MOL0     O31268   6.712  -0.222   8.436 -0.3563 -0.1978  1.0908
  973MOL0     C31269   6.359  -0.194   8.377 -0.8311  0.0212 -0.4803
  973MOL0     C31270   6.246  -0.119   8.398  0.2235 -0.6255 -0.6746
  973MOL0     N31271   5.584  -0.247   8.660 -0.7612  0.5940 -0.3825
  973MOL0     N31272   5.456  -0.243   8.681 -0.4064  0.3307  0.3073
  973MOL0     C31273   4.294  -0.027   8.555  0.8137  0.0592 -0.9015
  973MOL0     C31274   4.175  -0.050   8.471  0.1073  0.2869 -1.0206
  973MOL0     C31275   3.728  -0.098   8.385 -0.2346 -0.6344 -0.3878
  973MOL0     C31276   3.594  -0.043   8.401  0.0513 -0.0841 -0.2229
  973MOL0     C31277   3.484  -0.084   8.319 -0.0453  0.9306 -0.2855
  973MOL0     C31278   3.505  -0.157   8.208  0.2143  1.1769  0.6433
  973MOL0     O31279   3.410  -0.202   8.114  0.3933  0.4684 -0.7882
  973MOL0     C31280   3.443  -0.251   7.985 -0.6048 -0.2956  0.6112
  973MOL0     C31281   3.443  -0.400   7.976 -0.5444  0.8715  0.0957
  973MOL0     C31282   3.453  -0.466   7.848 -0.7122  0.1022 -0.3264
  973MOL0     C31283   3.316  -0.484   7.777 -0.1513 -0.3417  0.4711
  973MOL0     C31284   3.289  -0.602   7.694  0.3761  0.4473 -0.3910
  973MOL0     C31285   3.285  -0.710   7.649  0.2177 -0.3300 -0.2374
  973MOL0     C31286   3.635  -0.219   8.203 -1.0461  0.7707  0.0308
  973MOL0     C31287   3.751  -0.187   8.277 -0.0641  0.4328 -0.5807
  973MOL0     H31288   3.986  -0.149   8.748  0.7570  2.0261  1.6853
  973MOL0     H31289   4.165  -0.104   8.858 -1.4760  0.5769 -0.5701
  973MOL0     H31290   4.447  -0.209   8.764  0.0782 -0.6211 -3.5629
  973MOL0     H31291   4.529  -0.100   8.651  0.3645 -1.0392 -0.1076
  973MOL0     H31292   4.616   0.025   8.860  2.5066 -0.7137 -0.1384
  973MOL0     H31293   4.580  -0.122   8.942  0.4733 -0.2763 -0.2491
  973MOL0     H31294   4.738  -0.224   8.728  2.3931  0.1082 -0.1345
  973MOL0     H31295   4.775  -0.057   8.727 -2.9105  1.6138 -0.4427
  973MOL0     H31296   4.845  -0.048   8.965  0.0564  0.1208  0.6361
  973MOL0     H31297   4.797  -0.220   8.984 -0.7978 -0.8013 -0.9127
  973MOL0     H31298   5.043  -0.214   8.946  0.1745  1.5023  0.6936
  973MOL0     H31299   4.962  -0.260   8.793  1.6879  0.1451  1.1992
  973MOL0     H31300   4.990  -0.027   8.722  0.0071 -1.2170 -0.3957
  973MOL0     H31301   5.083   0.006   8.879  0.4172 -2.6471  1.3466
  973MOL0     H31302   5.181  -0.238   8.744 -0.9067  0.5646 -0.7647
  973MOL0     H31303   5.201  -0.105   8.640 -0.8266 -0.7036 -0.4551
  973MOL0     H31304   5.317  -0.137   8.928  1.2879 -0.2899  0.6795
  973MOL0     H31305   5.324   0.017   8.838 -1.8418 -0.1742 -1.0811
  973MOL0     H31306   5.575  -0.002   8.881  0.1590  0.2542  0.7813
  973MOL0     H31307   5.825  -0.038   8.801  2.1897 -1.1009 -0.0516
  973MOL0     H31308   5.850  -0.210   8.763  0.9078  1.0014 -0.1162
  973MOL0     H31309   5.762  -0.015   8.537 -1.0158 -1.1106 -2.6240
  973MOL0     H31310   5.829  -0.176   8.527  0.7952 -0.8833  1.5612
  973MOL0     H31311   6.041  -0.125   8.590  0.2887 -1.1047 -0.2610
  973MOL0     H31312   5.996   0.020   8.683  3.5682 -3.7577  1.1953
  973MOL0     H31313   5.950   0.136   8.461  0.0489 -0.3963 -0.2314
  973MOL0     H31314   6.008  -0.013   8.380  1.9621 -2.2944  1.3353
  973MOL0     H31315   6.391   0.132   8.574  1.1012 -0.0803  0.1990
  973MOL0     H31316   6.612   0.117   8.591  1.5471 -1.1893  2.6108
  973MOL0     H31317   6.664  -0.035   8.631  1.9327  0.2230 -0.7633
  973MOL0     H31318   6.698   0.014   8.465  1.7013  2.5783  1.1489
  973MOL0     H31319   6.541  -0.596   8.378  0.2774  0.4844  0.1830
  973MOL0     H31320   6.723  -0.744   8.389  1.0931  3.2945  3.3444
  973MOL0     H31321   7.093  -0.644   8.111 -3.3526  0.2686 -0.6639
  973MOL0     H31322   7.119  -0.684   8.282  0.8731  0.0031 -0.2324
  973MOL0     H31323   7.118  -0.911   8.238 -2.2900 -0.1520 -2.9113
  973MOL0     H31324   7.070  -0.899   8.073  2.2719  0.3413 -1.5617
  973MOL0     H31325   7.319  -0.918   8.163  0.5273  1.5845  0.1351
  973MOL0     H31326   7.319  -0.749   8.153 -0.5109 -1.0728  4.2002
  973MOL0     H31327   7.256  -0.968   7.926  2.9289 -0.7408 -2.0494
  973MOL0     H31328   7.223  -0.801   7.888 -0.8567 -0.6226 -0.4663
  973MOL0     H31329   7.434  -0.908   7.817 -1.7287  0.3322 -0.9087
  973MOL0     H31330   7.503  -0.901   7.974 -1.9791 -2.8008 -0.4369
  973MOL0     H31331   7.395  -0.630   7.896 -0.8788 -1.0595  2.7435
  973MOL0     H31332   7.510  -0.678   8.011  0.8894  0.9914 -0.4877
  973MOL0     H31333   7.543  -0.722   7.702  3.8268  0.3057 -0.9505
  973MOL0     H31334   7.671  -0.750   7.809  0.1056 -0.0213 -2.2156
  973MOL0     H31335   7.535  -0.485   7.754  0.1681  2.1472  0.4464
  973MOL0     H31336   7.681  -0.555   7.684 -3.5456  2.4447 -1.7424
  973MOL0     H31337   6.953  -0.500   8.117 -1.0092  0.4239 -0.5284
  973MOL0     H31338   6.781  -0.318   8.158  0.1327  0.6928  1.3393
  973MOL0     H31339   6.328  -0.282   8.323 -1.2743  1.7391 -3.2510
  973MOL0     H31340   6.147  -0.144   8.363 -1.3131 -0.4025  2.9823
  973MOL0     H31341   4.381   0.014   8.504 -1.2364 -0.3856 -5.2773
  973MOL0     H31342   4.166  -0.020   8.367 -3.4660  3.1854 -0.0577
  973MOL0     H31343   3.590   0.035   8.477  1.2720  1.8811 -2.0650
  973MOL0     H31344   3.381  -0.060   8.343  0.3089  1.4982  0.7061
  973MOL0     H31345   3.363  -0.218   7.918  0.5774 -0.1418 -0.7756
  973MOL0     H31346   3.538  -0.207   7.955 -1.5080  1.2328 -0.1812
  973MOL0     H31347   3.349  -0.435   8.020 -1.4764  1.6659 -1.1397
  973MOL0     H31348   3.519  -0.440   8.043 -1.9133  0.7909  1.6729
  973MOL0     H31349   3.481  -0.570   7.865 -2.2828 -0.7592 -2.4900
  973MOL0     H31350   3.521  -0.416   7.778 -0.1847 -2.1433 -1.4858
  973MOL0     H31351   3.297  -0.386   7.732 -0.1465  1.2498  3.6389
  973MOL0     H31352   3.233  -0.487   7.849 -2.4100 -0.6897 -1.9553
  973MOL0     H31353   3.282  -0.812   7.617  2.7706 -0.5038 -0.1172
  973MOL0     H31354   3.652  -0.300   8.133 -1.5336 -1.1231  2.0136
  973MOL0     H31355   3.848  -0.231   8.254 -0.6057  0.3618 -2.9865
  974MOL0     O31356   0.517   5.418  11.154  0.1039 -0.6418 -0.1578
  974MOL0     C31357   0.485   5.539  11.129 -0.6091 -0.3205  0.1823
  974MOL0     O31358   0.361   5.589  11.126 -0.0484  0.4516  1.3653
  974MOL0     C31359   0.251   5.509  11.156  0.4143  0.0248  1.3420
  974MOL0     C31360   0.224   5.385  11.094  0.0534 -0.0867 -0.2428
  974MOL0     C31361   0.117   5.312  11.133 -0.0039  0.1050  0.4138
  974MOL0     C31362   0.026   5.358  11.238 -0.0584  0.3716  0.5907
  974MOL0     O31363  -0.086   5.287  11.276 -0.2171  0.3884 -0.2209
  974MOL0     C31364  -0.189   5.354  11.333 -0.0363 -0.1262 -0.1064
  974MOL0     C31365  -0.327   5.286  11.313  0.0142 -0.1927  0.0374
  974MOL0     C31366  -0.369   5.296  11.165 -0.9889  0.3157 -0.0477
  974MOL0     C31367  -0.481   5.194  11.122  0.0148  0.8534  0.0827
  974MOL0     C31368  -0.622   5.227  11.165 -0.4881 -0.4091 -0.2805
  974MOL0     C31369  -0.642   5.194  11.313 -0.3224  0.3245  0.2681
  974MOL0     C31370  -0.796   5.165  11.324 -0.0499 -0.4613  0.0804
  974MOL0     C31371  -0.862   5.230  11.448  0.5938  0.0684 -0.4216
  974MOL0     N31372  -1.010   5.239  11.439  0.5168 -0.1947  0.1289
  974MOL0     C31373  -1.070   5.352  11.391  0.7398  0.3453 -0.0573
  974MOL0     C31374  -1.201   5.341  11.410 -0.9294  0.6709 -1.2683
  974MOL0     C31375  -1.297   5.453  11.375 -0.2540  0.4803 -0.1231
  974MOL0     C31376  -1.413   5.425  11.276  0.1115 -0.3372 -0.2080
  974MOL0     C31377  -1.513   5.328  11.339 -0.1859  0.1661  0.5211
  974MOL0     C31378  -1.638   5.293  11.255 -0.5962 -0.1853 -0.2246
  974MOL0     O31379  -1.598   5.226  11.131  0.2241 -0.2862  0.6668
  974MOL0     C31380  -1.703   5.187  11.042  0.1394  0.6302  0.4887
  974MOL0     C31381  -1.834   5.210  11.063 -0.4773 -0.1433 -0.6623
  974MOL0     C31382  -1.930   5.152  10.975 -0.0128 -0.1205 -0.6102
  974MOL0     C31383  -2.072   5.164  11.025  0.0156 -0.2222 -0.2442
  974MOL0     C31384  -1.890   5.087  10.856  0.6765 -0.5959  0.3437
  974MOL0     C31385  -1.986   5.042  10.748  0.2551  0.6024  0.1629
  974MOL0     O31386  -1.923   4.994  10.632  0.5655  0.9095  0.3520
  974MOL0     C31387  -2.003   4.937  10.535 -0.1092 -0.4314  1.2508
  974MOL0     C31388  -2.117   4.988  10.477  0.5840  0.3393 -0.0188
  974MOL0     C31389  -2.180   4.924  10.371 -0.1974 -0.5826  0.4403
  974MOL0     C31390  -2.152   4.790  10.336 -0.5307  0.8315 -0.0728
  974MOL0     O31391  -2.219   4.698  10.253  0.1198 -0.3363  0.2993
  974MOL0     C31392  -2.289   4.755  10.140 -0.3189 -0.4286 -0.3812
  974MOL0     C31393  -2.391   4.647  10.097  1.2534  0.2365 -0.3839
  974MOL0     C31394  -2.486   4.705   9.998  1.4075  0.5366  0.0901
  974MOL0     C31395  -2.422   4.779   9.886 -1.2676  0.1508  0.7455
  974MOL0     C31396  -2.523   4.814   9.775 -1.4901 -0.3013  0.3540
  974MOL0     C31397  -2.469   4.909   9.667 -0.4662  0.3107 -0.0698
  974MOL0     C31398  -2.576   5.011   9.605 -0.1134  0.2523  0.6036
  974MOL0     C31399  -2.652   4.953   9.484  1.1337 -0.6639 -0.3430
  974MOL0    Cl31400  -2.797   5.069   9.464 -1.0022 -0.5121  0.1955
  974MOL0     C31401  -2.035   4.737  10.401 -0.1961  0.1037  1.1009
  974MOL0     C31402  -1.957   4.810  10.494  0.3217  0.1202  0.1600
  974MOL0     O31403  -2.104   5.035  10.767 -0.0240 -0.4930 -0.3649
  974MOL0     C31404  -1.753   5.087  10.828  0.6367  0.1450 -0.0101
  974MOL0     C31405  -1.657   5.133  10.923  0.5724  0.4010  1.0739
  974MOL0     N31406  -1.219   5.239  11.503 -0.2056  0.2091  0.7523
  974MOL0     N31407  -1.110   5.175  11.513 -0.0977 -0.1455 -0.2895
  974MOL0     C31408   0.059   5.479  11.300  0.4437 -0.0264 -0.2510
  974MOL0     C31409   0.175   5.544  11.263  0.0576 -0.1479 -0.0203
  974MOL0     C31410   0.603   5.632  11.098 -0.3876  0.2537 -0.9260
  974MOL0     C31411   0.588   5.770  11.109 -0.1651 -0.2587  0.0888
  974MOL0     C31412   0.692   5.868  11.103 -0.2897  1.0138 -0.1710
  974MOL0     C31413   0.825   5.820  11.076 -0.0890  0.0672  0.1439
  974MOL0     O31414   0.925   5.903  11.056  0.0407  0.1751  0.3971
  974MOL0     C31415   0.924   6.048  11.065  1.4793  0.3678  0.3316
  974MOL0     C31416   1.061   6.113  11.059  0.4667  0.3124 -0.1226
  974MOL0     C31417   1.150   6.058  10.946 -0.1290  0.6236 -0.3206
  974MOL0     C31418   1.252   6.167  10.910  0.4854 -0.3038 -0.0016
  974MOL0     C31419   1.186   6.245  10.802 -0.5235  0.0807  0.3779
  974MOL0     C31420   1.135   6.314  10.712 -0.5059  0.1854  0.3825
  974MOL0     C31421   0.844   5.687  11.066 -0.2310  0.5650 -0.2044
  974MOL0     C31422   0.739   5.589  11.077 -0.6508 -0.0591 -0.1918
  974MOL0     H31423   0.280   5.327  11.020  0.6817 -0.5595  0.5890
  974MOL0     H31424   0.089   5.224  11.077  1.8592  0.8556 -1.8265
  974MOL0     H31425  -0.161   5.366  11.438  3.6130  0.7661 -1.0521
  974MOL0     H31426  -0.192   5.457  11.297  1.0700  1.0140  2.8317
  974MOL0     H31427  -0.322   5.183  11.351 -2.1867 -0.2039  0.4442
  974MOL0     H31428  -0.394   5.350  11.371  2.4982  1.6586  1.0353
  974MOL0     H31429  -0.393   5.398  11.132 -3.5670 -0.7310 -1.7157
  974MOL0     H31430  -0.272   5.275  11.118 -1.3322  1.3497 -1.2751
  974MOL0     H31431  -0.487   5.194  11.012  3.0774  0.7688 -0.1594
  974MOL0     H31432  -0.458   5.091  11.150  0.8951  1.0611  0.1268
  974MOL0     H31433  -0.645   5.332  11.144  1.6827  0.3043  0.6530
  974MOL0     H31434  -0.684   5.160  11.105 -0.2941 -1.8340  1.0444
  974MOL0     H31435  -0.605   5.095  11.337 -1.1097  0.1134  0.6505
  974MOL0     H31436  -0.605   5.278  11.373 -1.1970  0.1725  1.0286
  974MOL0     H31437  -0.849   5.211  11.240 -1.2727 -0.2276  0.9408
  974MOL0     H31438  -0.811   5.057  11.328 -0.1981 -0.4072  2.4341
  974MOL0     H31439  -0.826   5.332  11.458 -0.0655  0.1134  1.9634
  974MOL0     H31440  -0.836   5.176  11.539 -0.9868 -2.2976 -1.2687
  974MOL0     H31441  -1.021   5.434  11.340  3.7935  0.9652  3.4104
  974MOL0     H31442  -1.333   5.479  11.474 -0.8272  0.4505 -0.3200
  974MOL0     H31443  -1.238   5.534  11.330  3.3025 -2.0398 -0.3570
  974MOL0     H31444  -1.376   5.388  11.179 -2.1857 -3.5042 -0.0374
  974MOL0     H31445  -1.455   5.521  11.243  1.2863 -0.3574 -1.8869
  974MOL0     H31446  -1.542   5.372  11.435 -0.1417 -0.5772  0.8809
  974MOL0     H31447  -1.460   5.235  11.362 -0.2092 -1.6702 -5.1876
  974MOL0     H31448  -1.711   5.373  11.240 -0.5077  0.2982  1.6276
  974MOL0     H31449  -1.690   5.214  11.310 -2.0893  1.4739  0.8862
  974MOL0     H31450  -1.873   5.264  11.149 -0.6391  0.7169 -1.2657
  974MOL0     H31451  -2.130   5.204  10.942  0.8675  2.6031  0.3962
  974MOL0     H31452  -2.103   5.068  11.066 -0.7151  0.8010  1.7846
  974MOL0     H31453  -2.094   5.243  11.098 -0.7647 -0.1553 -0.5516
  974MOL0     H31454  -2.158   5.086  10.501  0.9365  0.1521  1.4239
  974MOL0     H31455  -2.269   4.977  10.340 -2.7039 -3.4253  2.2185
  974MOL0     H31456  -2.337   4.849  10.171 -1.2760 -0.6930 -1.0167
  974MOL0     H31457  -2.223   4.794  10.063 -2.2639  2.9011 -0.5692
  974MOL0     H31458  -2.334   4.564  10.053  0.8407  0.3621 -1.1792
  974MOL0     H31459  -2.444   4.608  10.184 -0.2106 -1.2105 -1.8579
  974MOL0     H31460  -2.551   4.772  10.055 -1.1399 -2.3259  0.8007
  974MOL0     H31461  -2.550   4.634   9.945  0.2934  2.6798 -1.6144
  974MOL0     H31462  -2.378   4.875   9.917 -1.5802  0.1438  1.2242
  974MOL0     H31463  -2.344   4.722   9.835  1.5198  3.7527  0.5343
  974MOL0     H31464  -2.615   4.855   9.819 -0.7965  0.9165  0.7162
  974MOL0     H31465  -2.553   4.730   9.711  0.6705  1.5236 -3.3311
  974MOL0     H31466  -2.399   4.974   9.719 -0.2480  1.3340 -1.5866
  974MOL0     H31467  -2.411   4.845   9.600  1.3441  0.7847  0.9729
  974MOL0     H31468  -2.517   5.094   9.566 -0.8563 -0.3079 -1.8960
  974MOL0     H31469  -2.639   5.035   9.691  1.1671  1.8511  1.1391
  974MOL0     H31470  -2.688   4.855   9.517 -1.3028  0.4622  0.6290
  974MOL0     H31471  -2.593   4.953   9.393 -1.0445 -0.3200 -1.8345
  974MOL0     H31472  -1.997   4.642  10.365  1.4457  1.7769 -1.9961
  974MOL0     H31473  -1.876   4.782  10.561 -0.7557 -1.1248  1.0006
  974MOL0     H31474  -1.704   5.048  10.740 -0.1989  1.9154 -1.3268
  974MOL0     H31475  -1.552   5.111  10.908 -0.0345 -2.3161  0.2163
  974MOL0     H31476  -0.001   5.518  11.381 -1.8491 -3.6252  0.0233
  974MOL0     H31477   0.213   5.636  11.305  0.2584 -0.2146 -0.0578
  974MOL0     H31478   0.490   5.809  11.138 -0.6108 -0.3780 -1.1992
  974MOL0     H31479   0.681   5.976  11.110 -2.9981  0.7030  3.7381
  974MOL0     H31480   0.869   6.095  10.982 -0.4504 -1.2781  0.6019
  974MOL0     H31481   0.883   6.086  11.159 -0.8975  0.8476 -0.7971
  974MOL0     H31482   1.110   6.089  11.154  2.0465 -0.2851 -1.0333
  974MOL0     H31483   1.054   6.222  11.049  0.0873  0.3211  0.2285
  974MOL0     H31484   1.085   6.024  10.865 -1.6293 -0.6143  1.3266
  974MOL0     H31485   1.219   5.976  10.970  1.9245  1.6898 -2.2502
  974MOL0     H31486   1.349   6.122  10.887  0.6864 -2.2372  3.8943
  974MOL0     H31487   1.260   6.220  11.005  0.1774  2.1352 -1.2527
  974MOL0     H31488   1.107   6.378  10.631  1.0119  0.6707  0.2106
  974MOL0     H31489   0.943   5.650  11.044 -0.3784 -0.5917  0.9514
  974MOL0     H31490   0.764   5.484  11.086  1.6116  0.2813 -1.7665
  975MOL0     O31491   2.261   7.708   8.301 -0.1034  0.7058 -0.7773
  975MOL0     C31492   2.158   7.772   8.284 -0.4974 -0.3939 -1.2007
  975MOL0     O31493   2.056   7.734   8.191 -0.5764 -1.2114  0.5560
  975MOL0     C31494   2.074   7.620   8.129  0.0299  0.0998  0.0078
  975MOL0     C31495   2.165   7.610   8.018 -0.2439  0.1817  0.0933
  975MOL0     C31496   2.200   7.490   7.953 -0.6814 -0.2746  0.1597
  975MOL0     C31497   2.136   7.373   8.010 -0.5132  0.0823  0.7156
  975MOL0     O31498   2.167   7.250   7.955  0.0749 -0.1536 -0.0843
  975MOL0     C31499   2.312   7.225   7.960  0.3837  0.3945 -0.2457
  975MOL0     C31500   2.334   7.066   7.949  0.8358 -1.1565  0.3948
  975MOL0     C31501   2.467   7.014   7.999 -0.2210  0.3110  0.3829
  975MOL0     C31502   2.508   6.871   7.962  0.1678  0.6308  0.5410
  975MOL0     C31503   2.637   6.836   8.026  0.9124  0.0469  0.0360
  975MOL0     C31504   2.680   6.696   7.976  0.8864 -0.3110 -0.1509
  975MOL0     C31505   2.778   6.643   8.080  1.3578  0.0562 -0.0673
  975MOL0     C31506   2.868   6.522   8.036  0.0677  0.0373 -0.1521
  975MOL0     N31507   2.962   6.550   7.930 -0.1939 -0.6599  0.2924
  975MOL0     C31508   3.068   6.638   7.933 -0.6885  0.8234 -0.6474
  975MOL0     C31509   3.106   6.640   7.802  0.2298  0.6250 -0.6679
  975MOL0     C31510   3.192   6.747   7.756  0.0080  0.3961  1.2047
  975MOL0     C31511   3.326   6.692   7.707  0.0737  0.6919  0.2689
  975MOL0     C31512   3.438   6.769   7.779  0.1330  0.2013  0.8662
  975MOL0     C31513   3.447   6.737   7.930  0.0590 -1.3713 -1.2101
  975MOL0     O31514   3.499   6.610   7.960  0.0904 -0.4570  0.1568
  975MOL0     C31515   3.633   6.605   7.955 -0.0563 -0.4406  0.5486
  975MOL0     C31516   3.692   6.544   7.847 -0.5426 -0.8202  0.6404
  975MOL0     C31517   3.824   6.512   7.843 -0.5432 -0.6951 -0.4969
  975MOL0     C31518   3.878   6.437   7.722  0.1609 -0.0593 -0.1709
  975MOL0     C31519   3.913   6.541   7.955 -0.7821 -0.5478  1.0980
  975MOL0     C31520   4.053   6.499   7.971  0.2501  0.0487  0.4861
  975MOL0     O31521   4.099   6.487   8.105 -0.3739  0.1743  0.0131
  975MOL0     C31522   4.220   6.435   8.148 -0.4340 -0.7864  1.0215
  975MOL0     C31523   4.248   6.451   8.281 -0.0682 -0.0377  0.4052
  975MOL0     C31524   4.354   6.388   8.338 -0.0525  1.2217 -0.0446
  975MOL0     C31525   4.440   6.313   8.260 -0.1888  0.3422  0.4051
  975MOL0     O31526   4.556   6.242   8.294  0.7071 -0.3485  0.3289
  975MOL0     C31527   4.643   6.310   8.387  0.3525 -0.5417  0.1931
  975MOL0     C31528   4.787   6.261   8.383 -1.3468  0.1366 -0.4648
  975MOL0     C31529   4.821   6.140   8.477  0.7815  0.3961 -0.1668
  975MOL0     C31530   4.970   6.090   8.483  0.0709  0.4551 -0.4011
  975MOL0     C31531   5.004   5.977   8.586  1.3417  0.2793  0.1648
  975MOL0     C31532   5.156   5.962   8.593 -0.3362  0.5686  0.1682
  975MOL0     C31533   5.186   5.843   8.689  0.1777 -1.0014  0.5946
  975MOL0     C31534   5.334   5.840   8.715  0.2465  0.1716 -0.2872
  975MOL0    Cl31535   5.392   5.977   8.819  0.5264  0.2222  0.3501
  975MOL0     C31536   4.409   6.296   8.122  0.3658 -0.6170  0.0456
  975MOL0     C31537   4.297   6.360   8.064  0.2930  0.1191  0.0292
  975MOL0     O31538   4.120   6.483   7.870 -0.2001  0.8347 -0.6824
  975MOL0     C31539   3.851   6.618   8.057 -0.1486  1.5245  0.6111
  975MOL0     C31540   3.712   6.648   8.056 -0.0243 -0.4424 -0.2023
  975MOL0     N31541   3.022   6.559   7.721 -0.2003  0.2708 -0.2361
  975MOL0     N31542   2.931   6.520   7.801  0.2083 -0.4421 -0.4468
  975MOL0     C31543   2.041   7.379   8.109 -0.1895 -0.6643  1.0917
  975MOL0     C31544   2.006   7.504   8.164 -0.4852 -0.2088 -0.3458
  975MOL0     C31545   2.153   7.904   8.340 -0.5522 -0.1786  0.1531
  975MOL0     C31546   2.243   7.948   8.430 -0.7394  0.4925 -0.1775
  975MOL0     C31547   2.236   8.074   8.481 -0.1136  0.1751  0.9772
  975MOL0     C31548   2.132   8.167   8.452  0.1584  1.0324  0.2510
  975MOL0     O31549   2.120   8.277   8.524 -0.5496  0.0579 -0.1033
  975MOL0     C31550   1.989   8.313   8.575 -0.2455  0.4996  0.3827
  975MOL0     C31551   1.992   8.455   8.630  0.1272  0.0628  0.3956
  975MOL0     C31552   1.861   8.510   8.678  0.3724 -0.0057 -0.0218
  975MOL0     C31553   1.894   8.626   8.776  0.1923 -0.2154  0.0911
  975MOL0     C31554   1.781   8.721   8.807 -0.2194  1.3041  0.6925
  975MOL0     C31555   1.696   8.803   8.830 -0.0393 -0.1260  1.4207
  975MOL0     C31556   2.050   8.128   8.347  0.3230 -0.1329 -0.4598
  975MOL0     C31557   2.055   7.997   8.296 -0.3294  0.3764 -0.5662
  975MOL0     H31558   2.206   7.705   7.985  1.7173 -0.2132  1.1915
  975MOL0     H31559   2.273   7.485   7.872  3.4785 -2.4568  3.6014
  975MOL0     H31560   2.357   7.277   7.875 -1.6354  2.7289  0.0041
  975MOL0     H31561   2.364   7.259   8.050  2.4612 -4.2380  0.6161
  975MOL0     H31562   2.250   7.012   7.995 -1.7979 -0.4377 -3.1391
  975MOL0     H31563   2.331   7.051   7.841 -1.9930  3.0886 -0.3510
  975MOL0     H31564   2.538   7.081   7.948 -1.7365 -0.7710 -3.5453
  975MOL0     H31565   2.464   7.030   8.107  1.1017  0.7417  0.3820
  975MOL0     H31566   2.429   6.802   7.994  0.0328  0.4132 -0.2396
  975MOL0     H31567   2.522   6.863   7.854 -3.3109 -1.5967  0.0755
  975MOL0     H31568   2.708   6.917   8.007 -2.8681  3.2974 -1.6722
  975MOL0     H31569   2.621   6.831   8.134 -3.4498  2.5669 -0.2877
  975MOL0     H31570   2.591   6.633   7.969 -1.0378  1.4419  4.4785
  975MOL0     H31571   2.734   6.717   7.883 -0.4921  2.1548 -0.4939
  975MOL0     H31572   2.845   6.716   8.125  2.0111 -1.5864  1.7843
  975MOL0     H31573   2.729   6.581   8.155  6.2146 -1.8892  1.8755
  975MOL0     H31574   2.817   6.432   8.001  1.2140  0.3040 -2.6987
  975MOL0     H31575   2.917   6.501   8.132 -2.0338  1.3796  1.3017
  975MOL0     H31576   3.103   6.691   8.021 -0.1546 -1.7281  0.7719
  975MOL0     H31577   3.139   6.779   7.666 -1.7252 -0.0608  2.0229
  975MOL0     H31578   3.194   6.836   7.820 -0.3383  1.2285  0.0815
  975MOL0     H31579   3.338   6.720   7.602 -0.2811  1.5948  0.4590
  975MOL0     H31580   3.331   6.585   7.731 -0.2498  0.0131 -2.3295
  975MOL0     H31581   3.411   6.875   7.782 -1.3456 -0.1792  2.8313
  975MOL0     H31582   3.535   6.758   7.730  1.4530 -0.1353  3.4274
  975MOL0     H31583   3.347   6.741   7.975  0.3430  1.8050 -0.6464
  975MOL0     H31584   3.504   6.809   7.990 -0.4337 -2.0796  0.1472
  975MOL0     H31585   3.627   6.515   7.765 -0.4802  0.4672  0.1108
  975MOL0     H31586   3.790   6.398   7.670  1.6978 -2.2976 -1.2036
  975MOL0     H31587   3.931   6.500   7.651  1.1066 -0.3810  0.2369
  975MOL0     H31588   3.953   6.360   7.741  3.2781  2.7384 -0.0883
  975MOL0     H31589   4.180   6.514   8.337 -1.8077 -0.0283 -1.5886
  975MOL0     H31590   4.379   6.410   8.441 -2.3268  1.8971  0.4259
  975MOL0     H31591   4.631   6.416   8.366  0.3139  0.2018  3.4624
  975MOL0     H31592   4.612   6.313   8.491 -0.3137  0.2474 -0.0210
  975MOL0     H31593   4.819   6.248   8.280  0.7175 -0.8270  0.2406
  975MOL0     H31594   4.848   6.348   8.409 -1.6648  0.7595 -1.7284
  975MOL0     H31595   4.762   6.051   8.453 -0.8714  1.2830  0.4415
  975MOL0     H31596   4.789   6.172   8.576 -1.6897  1.0593 -1.0885
  975MOL0     H31597   5.005   6.047   8.389  1.9725  0.0023  0.4578
  975MOL0     H31598   5.024   6.176   8.524  0.1313 -0.1587  0.8603
  975MOL0     H31599   4.948   5.887   8.562 -1.0518  0.8909  2.9581
  975MOL0     H31600   4.958   6.005   8.681 -0.1878  0.1116 -0.4990
  975MOL0     H31601   5.203   5.956   8.494 -1.5983  1.5766 -0.5211
  975MOL0     H31602   5.200   6.045   8.648  0.8115 -0.3480  0.6798
  975MOL0     H31603   5.165   5.756   8.626  1.3132 -0.0517 -1.1934
  975MOL0     H31604   5.118   5.842   8.775 -1.6840 -1.4330 -0.8063
  975MOL0     H31605   5.395   5.843   8.625  0.3565  0.6955 -0.1941
  975MOL0     H31606   5.348   5.749   8.774 -0.3187  1.8903  2.7308
  975MOL0     H31607   4.466   6.238   8.050 -1.8293 -2.8593 -0.0178
  975MOL0     H31608   4.278   6.347   7.958 -4.1482  2.1472  0.3446
  975MOL0     H31609   3.900   6.643   8.150 -0.4673  0.1281  1.1784
  975MOL0     H31610   3.665   6.686   8.146 -0.0066 -0.7792 -0.0501
  975MOL0     H31611   2.004   7.280   8.131  1.8090 -2.3422 -2.1766
  975MOL0     H31612   1.929   7.511   8.240 -1.1158  1.9383 -1.1121
  975MOL0     H31613   2.328   7.881   8.444 -0.2645  1.2432  0.6348
  975MOL0     H31614   2.321   8.112   8.536 -0.0717  1.8849 -0.1831
  975MOL0     H31615   1.918   8.317   8.491 -0.3636 -1.1082  0.3926
  975MOL0     H31616   1.953   8.235   8.642  1.4997 -1.4609 -0.8504
  975MOL0     H31617   2.037   8.524   8.557 -1.4397  0.3142 -0.3659
  975MOL0     H31618   2.062   8.452   8.714 -1.5663  1.6040  1.9431
  975MOL0     H31619   1.816   8.428   8.735 -3.2705  1.6532 -0.2316
  975MOL0     H31620   1.797   8.535   8.593 -1.5491 -1.9054  0.7633
  975MOL0     H31621   1.980   8.687   8.748  0.5696  0.1520  1.9348
  975MOL0     H31622   1.910   8.584   8.876  0.1353 -0.9151 -0.1828
  975MOL0     H31623   1.617   8.876   8.831 -1.4536 -1.2365 -3.3251
  975MOL0     H31624   1.969   8.190   8.310  0.3841 -0.5846 -1.4011
  975MOL0     H31625   1.980   7.961   8.227  0.7079 -0.3703 -1.3433
  976MOL0     O31626   3.482   2.157   8.408 -0.4218 -0.0561 -0.0326
  976MOL0     C31627   3.504   2.274   8.413 -0.5447  0.2985  0.1154
  976MOL0     O31628   3.411   2.375   8.432 -0.4076  0.0384  0.1681
  976MOL0     C31629   3.276   2.347   8.446  0.3422 -0.6064 -0.1203
  976MOL0     C31630   3.171   2.431   8.399  0.2005 -0.8066  0.8689
  976MOL0     C31631   3.035   2.403   8.415 -0.5162  0.2672  1.0291
  976MOL0     C31632   2.988   2.292   8.482 -0.2424 -0.0897 -0.7969
  976MOL0     O31633   2.852   2.283   8.500  0.1085 -0.1336  0.0919
  976MOL0     C31634   2.791   2.184   8.577 -0.6462  0.5138 -0.4645
  976MOL0     C31635   2.772   2.251   8.716  0.1019  0.4745  0.0783
  976MOL0     C31636   2.693   2.176   8.818 -0.5529 -0.5052  0.4292
  976MOL0     C31637   2.705   2.244   8.959 -0.1248 -0.4350 -0.0756
  976MOL0     C31638   2.825   2.185   9.044  0.0883  0.0666  0.2475
  976MOL0     C31639   2.790   2.056   9.116  0.4160  0.4293 -0.1723
  976MOL0     C31640   2.913   1.984   9.173 -0.5251  0.3092  0.4154
  976MOL0     C31641   2.900   1.945   9.315  0.3166 -0.3045  0.4318
  976MOL0     N31642   3.035   1.933   9.380 -0.2314  0.3647 -0.3584
  976MOL0     C31643   3.115   2.042   9.403 -0.7044 -0.1095 -0.4824
  976MOL0     C31644   3.218   1.990   9.467 -0.2665 -0.1867 -1.2761
  976MOL0     C31645   3.326   2.078   9.535  0.4599  0.8254 -0.2134
  976MOL0     C31646   3.460   2.072   9.463  0.3237  0.0115  0.8610
  976MOL0     C31647   3.564   2.144   9.553  0.3191  0.7685  0.3154
  976MOL0     C31648   3.707   2.125   9.494  1.4700  1.0259 -0.8425
  976MOL0     O31649   3.793   2.219   9.554 -0.2360  0.6753 -0.9064
  976MOL0     C31650   3.922   2.173   9.562  0.8087  0.0680  0.2486
  976MOL0     C31651   3.996   2.220   9.672 -0.8080 -0.2710  1.1431
  976MOL0     C31652   4.137   2.214   9.673  1.1615  0.1154 -0.7796
  976MOL0     C31653   4.208   2.286   9.787 -0.8140  0.0330 -0.4319
  976MOL0     C31654   4.202   2.135   9.571  0.2106  0.1132  0.0170
  976MOL0     C31655   4.354   2.108   9.566  0.2678  1.2447  0.7097
  976MOL0     O31656   4.441   2.202   9.605  0.2779  0.3443 -0.3486
  976MOL0     C31657   4.569   2.195   9.561  0.1388  0.5075  0.2621
  976MOL0     C31658   4.668   2.116   9.620  0.6700 -0.2891  0.0412
  976MOL0     C31659   4.797   2.102   9.569  0.2765 -0.9552 -0.7020
  976MOL0     C31660   4.843   2.185   9.463 -0.0989 -0.6193  1.1633
  976MOL0     O31661   4.977   2.176   9.427  0.1381  0.4192 -0.1812
  976MOL0     C31662   5.037   2.236   9.315 -0.1419  0.7470  0.9174
  976MOL0     C31663   5.088   2.372   9.355  0.4418  0.2700 -0.3604
  976MOL0     C31664   5.158   2.454   9.255  0.1191  0.0671  0.4037
  976MOL0     C31665   5.312   2.438   9.280 -0.0394 -0.1962 -0.0647
  976MOL0     C31666   5.397   2.495   9.164 -0.1889 -0.6685 -0.5670
  976MOL0     C31667   5.553   2.495   9.182  0.3134  1.3019  0.2218
  976MOL0     C31668   5.601   2.359   9.241 -0.8048  1.1507  0.4003
  976MOL0     C31669   5.749   2.349   9.212  0.4951 -0.8257  0.6900
  976MOL0    Cl31670   5.826   2.469   9.311 -0.0246 -0.0814 -0.3878
  976MOL0     C31671   4.740   2.256   9.397 -0.7688 -0.0503  0.9445
  976MOL0     C31672   4.611   2.267   9.454  0.8033 -1.0548 -0.3602
  976MOL0     O31673   4.383   1.993   9.520  0.5653  0.1616 -0.2823
  976MOL0     C31674   4.111   2.065   9.477 -1.1356  0.4204 -1.5775
  976MOL0     C31675   3.983   2.091   9.476  0.8213 -0.1129  0.3723
  976MOL0     N31676   3.206   1.847   9.469 -0.3704  0.3163 -0.2317
  976MOL0     N31677   3.085   1.821   9.435 -0.6551  0.2061  0.1021
  976MOL0     C31678   3.087   2.205   8.526 -0.5204  0.0532 -0.3705
  976MOL0     C31679   3.223   2.228   8.515 -0.4780 -0.4853  0.8206
  976MOL0     C31680   3.651   2.308   8.418  0.2175  0.0437  0.2924
  976MOL0     C31681   3.751   2.219   8.378  0.0022 -0.4383 -0.5087
  976MOL0     C31682   3.888   2.251   8.397 -0.2392 -0.1392  0.4890
  976MOL0     C31683   3.926   2.378   8.428  0.0988 -0.2551  1.3105
  976MOL0     O31684   4.054   2.433   8.425  0.0036  0.3460  0.1329
  976MOL0     C31685   4.162   2.366   8.365  0.0002 -0.2296 -0.0141
  976MOL0     C31686   4.136   2.342   8.206  0.3385 -0.1427 -0.2762
  976MOL0     C31687   4.215   2.237   8.140  0.5835  1.1374 -0.5218
  976MOL0     C31688   4.364   2.249   8.154  0.6830 -0.2217 -0.3153
  976MOL0     C31689   4.403   2.366   8.070 -0.0467 -0.7482  1.1617
  976MOL0     C31690   4.436   2.473   8.017  0.5939  0.0558  0.5469
  976MOL0     C31691   3.826   2.479   8.463 -0.5804  0.1141 -0.2834
  976MOL0     C31692   3.695   2.440   8.460  0.9345  0.2825  0.1754
  976MOL0     H31693   3.198   2.524   8.349  3.4798 -1.4744  1.1699
  976MOL0     H31694   2.965   2.477   8.378  0.3214  0.0883 -1.0472
  976MOL0     H31695   2.697   2.161   8.526 -1.7537  0.0170  1.6917
  976MOL0     H31696   2.832   2.083   8.579 -1.0549  0.3435 -0.5910
  976MOL0     H31697   2.872   2.281   8.751  0.8908 -1.4468 -0.3761
  976MOL0     H31698   2.705   2.335   8.697  0.7736  1.1633  0.7130
  976MOL0     H31699   2.589   2.171   8.786 -0.1486  0.3242 -1.1110
  976MOL0     H31700   2.742   2.078   8.831  0.5610  0.4416  6.3440
  976MOL0     H31701   2.713   2.353   8.949 -1.2316 -0.2596  0.8119
  976MOL0     H31702   2.606   2.238   9.003 -0.9014 -0.9647 -1.7962
  976MOL0     H31703   2.915   2.182   8.983 -0.9660  0.1558 -1.3597
  976MOL0     H31704   2.845   2.255   9.125  1.7184  0.9949 -0.9216
  976MOL0     H31705   2.717   2.090   9.190  0.2057  2.6487 -1.3196
  976MOL0     H31706   2.730   1.991   9.053 -0.7411  0.4188  0.9067
  976MOL0     H31707   2.955   1.898   9.118 -0.5956 -0.0056  0.8455
  976MOL0     H31708   3.000   2.050   9.173  0.6453 -0.9215 -3.6784
  976MOL0     H31709   2.840   1.853   9.319 -0.4434  0.0410 -1.9014
  976MOL0     H31710   2.849   2.028   9.364 -1.6274  0.6108 -2.8638
  976MOL0     H31711   3.110   2.146   9.373  4.6455  0.4051 -0.5627
  976MOL0     H31712   3.282   2.179   9.539  0.1163  0.8468 -2.8274
  976MOL0     H31713   3.351   2.062   9.640  2.5372  5.1011  0.1525
  976MOL0     H31714   3.451   2.114   9.362  2.3084 -2.3169 -0.3831
  976MOL0     H31715   3.473   1.964   9.449  2.7917  0.4007 -0.3039
  976MOL0     H31716   3.562   2.093   9.650  1.3120 -1.3706 -0.7245
  976MOL0     H31717   3.528   2.246   9.573 -3.0141 -0.8058  3.6127
  976MOL0     H31718   3.713   2.149   9.387  2.6487  1.5501 -0.6812
  976MOL0     H31719   3.748   2.025   9.505  0.6544  0.4291 -2.8014
  976MOL0     H31720   3.950   2.277   9.752  0.5008  1.4367  0.7335
  976MOL0     H31721   4.143   2.363   9.832  0.2739  0.2017  0.9470
  976MOL0     H31722   4.253   2.215   9.857 -2.0331  0.4700  0.8461
  976MOL0     H31723   4.298   2.342   9.758 -0.8659  0.3932  0.0759
  976MOL0     H31724   4.643   2.053   9.704  0.9572 -1.5918 -0.8117
  976MOL0     H31725   4.869   2.035   9.617  0.3346 -2.2397 -2.4660
  976MOL0     H31726   5.120   2.172   9.284 -1.2246  0.4531 -1.7028
  976MOL0     H31727   4.967   2.242   9.231  2.8070 -3.6431 -2.3463
  976MOL0     H31728   4.998   2.429   9.377 -0.3748 -0.2971 -2.0635
  976MOL0     H31729   5.144   2.354   9.447  0.0690  0.4559 -0.0994
  976MOL0     H31730   5.123   2.558   9.250 -0.7811 -0.2661 -0.5568
  976MOL0     H31731   5.134   2.415   9.156  2.3484 -0.2607 -0.0767
  976MOL0     H31732   5.331   2.494   9.372  2.8120 -0.2833 -0.4914
  976MOL0     H31733   5.336   2.331   9.289  0.8491 -0.4509 -3.7323
  976MOL0     H31734   5.373   2.600   9.143  1.0829 -0.2740 -0.1506
  976MOL0     H31735   5.369   2.440   9.074  1.2439 -0.5601 -1.1067
  976MOL0     H31736   5.599   2.513   9.084 -0.9073 -0.4996 -0.7342
  976MOL0     H31737   5.586   2.571   9.254 -1.3777 -0.1453  2.6445
  976MOL0     H31738   5.544   2.288   9.180  1.0803  1.8684 -2.3933
  976MOL0     H31739   5.585   2.338   9.348  0.9328  1.4807  0.7597
  976MOL0     H31740   5.773   2.357   9.105  0.5230  0.1933  0.7651
  976MOL0     H31741   5.771   2.245   9.239 -5.7786 -3.2375 -1.5655
  976MOL0     H31742   4.771   2.327   9.321 -0.3110 -0.0107  1.1649
  976MOL0     H31743   4.534   2.329   9.410  2.2852  1.1010 -0.0713
  976MOL0     H31744   4.156   2.000   9.403  1.4772  1.6755 -1.2357
  976MOL0     H31745   3.936   2.038   9.393  2.3206  0.0093 -0.5856
  976MOL0     H31746   3.051   2.107   8.557  0.8807 -0.2389  0.3932
  976MOL0     H31747   3.290   2.148   8.545  0.9729  0.2902 -0.2054
  976MOL0     H31748   3.726   2.118   8.347 -3.4733 -0.1001  0.7775
  976MOL0     H31749   3.960   2.170   8.389 -1.3771 -1.2698  1.1174
  976MOL0     H31750   4.243   2.437   8.383 -1.7581  1.7676  0.3782
  976MOL0     H31751   4.189   2.274   8.418 -0.1373  0.7235  1.7766
  976MOL0     H31752   4.143   2.433   8.145  1.3547 -1.0337 -1.5519
  976MOL0     H31753   4.034   2.310   8.186 -0.0006  0.4362  0.5133
  976MOL0     H31754   4.184   2.216   8.037  0.7352 -4.1159  0.2684
  976MOL0     H31755   4.193   2.145   8.194  1.3628 -0.7146 -3.1667
  976MOL0     H31756   4.416   2.155   8.135 -1.7261 -1.3284 -1.9369
  976MOL0     H31757   4.377   2.270   8.261  1.9354 -1.4631 -0.1915
  976MOL0     H31758   4.474   2.564   7.975  0.7538 -0.4788 -0.5036
  976MOL0     H31759   3.858   2.573   8.507  1.2542 -1.5870  2.3692
  976MOL0     H31760   3.628   2.516   8.499  0.9099  1.8974 -2.7110
  977MOL0     O31761   0.703   1.698  10.673  0.6401 -0.4375  0.1070
  977MOL0     C31762   0.737   1.613  10.757  1.0584  0.2480 -0.3183
  977MOL0     O31763   0.859   1.594  10.787 -0.4971  0.0120 -0.1642
  977MOL0     C31764   0.952   1.662  10.710 -0.2176  0.6493 -0.4927
  977MOL0     C31765   1.020   1.770  10.765 -0.3469  0.6695 -0.3814
  977MOL0     C31766   1.146   1.818  10.713  0.6141 -0.1747  0.0156
  977MOL0     C31767   1.189   1.764  10.588  0.4145 -0.0720  0.2791
  977MOL0     O31768   1.300   1.802  10.521 -0.2888 -0.6093  0.3499
  977MOL0     C31769   1.350   1.930  10.549  0.0304 -0.7368  0.0487
  977MOL0     C31770   1.432   2.005  10.441  0.5754  0.3552  0.1514
  977MOL0     C31771   1.564   1.931  10.426 -0.7213 -0.2254  0.4132
  977MOL0     C31772   1.576   1.845  10.305 -0.2321  0.0349  0.7133
  977MOL0     C31773   1.715   1.785  10.273  0.0082  0.0795  0.0825
  977MOL0     C31774   1.740   1.651  10.339 -1.0823  0.2996  0.2719
  977MOL0     C31775   1.800   1.656  10.473 -0.4001  0.0652 -1.4081
  977MOL0     C31776   1.817   1.507  10.527  0.5109 -0.3989  0.0363
  977MOL0     N31777   1.964   1.475  10.534 -0.2227  0.4291  0.5185
  977MOL0     C31778   2.039   1.458  10.647  0.1541 -0.4201 -0.1854
  977MOL0     C31779   2.165   1.429  10.612 -0.1097 -0.2527  0.1392
  977MOL0     C31780   2.272   1.394  10.717 -0.0182  0.4217  0.4174
  977MOL0     C31781   2.309   1.517  10.800  0.9859 -0.0421 -0.0554
  977MOL0     C31782   2.448   1.499  10.854  1.1266  0.0334  0.1852
  977MOL0     C31783   2.466   1.598  10.966 -0.0832  0.0983  0.3400
  977MOL0     O31784   2.609   1.614  10.983  0.6656  0.4233  0.0831
  977MOL0     C31785   2.690   1.542  11.067  0.4006  0.2515 -0.2914
  977MOL0     C31786   2.633   1.451  11.154 -0.0276 -0.3438 -0.4739
  977MOL0     C31787   2.714   1.377  11.245  0.6416 -0.9988  0.0542
  977MOL0     C31788   2.642   1.298  11.348  0.6064 -0.0595 -0.0416
  977MOL0     C31789   2.856   1.389  11.239 -1.4391  0.3827 -0.2017
  977MOL0     C31790   2.960   1.310  11.317 -0.0414  0.4215  0.1734
  977MOL0     O31791   3.087   1.366  11.340  0.3013  0.4104  0.4242
  977MOL0     C31792   3.185   1.291  11.409  0.0052 -0.6826 -0.5157
  977MOL0     C31793   3.242   1.370  11.514  0.1072  0.9420  0.4913
  977MOL0     C31794   3.347   1.311  11.582 -0.8242 -0.8341  0.8903
  977MOL0     C31795   3.404   1.187  11.541  0.0252  1.2348 -1.0114
  977MOL0     O31796   3.521   1.135  11.597 -1.1032 -0.6296 -0.5121
  977MOL0     C31797   3.620   1.218  11.655 -0.2074 -0.0396 -0.2916
  977MOL0     C31798   3.752   1.189  11.602  0.6903  0.0773  0.9155
  977MOL0     C31799   3.865   1.255  11.688 -0.0201 -0.2993  0.3512
  977MOL0     C31800   3.856   1.209  11.839 -0.4664 -0.2911 -0.0856
  977MOL0     C31801   3.995   1.218  11.908 -0.7855 -1.2890 -0.0492
  977MOL0     C31802   4.093   1.109  11.891 -1.4477 -0.0821 -0.9966
  977MOL0     C31803   4.219   1.119  11.971  0.2345 -0.3996  0.0342
  977MOL0     C31804   4.330   1.217  11.917  0.8970 -0.2266  0.7231
  977MOL0    Cl31805   4.479   1.215  12.013 -0.1264 -0.1865  0.3369
  977MOL0     C31806   3.337   1.116  11.440  0.5563 -0.8934 -0.0363
  977MOL0     C31807   3.223   1.166  11.380 -0.3830  0.2302  0.0594
  977MOL0     O31808   2.917   1.202  11.361 -0.0999 -0.1554 -0.1687
  977MOL0     C31809   2.906   1.488  11.149  0.0211  0.4492  0.4140
  977MOL0     C31810   2.827   1.562  11.060  0.0731 -0.1746  0.2198
  977MOL0     N31811   2.166   1.402  10.475  0.2241  0.7730 -0.2066
  977MOL0     N31812   2.048   1.427  10.429  0.5792  0.2878  0.1384
  977MOL0     C31813   1.111   1.671  10.521  0.1117  0.4106 -0.0328
  977MOL0     C31814   0.998   1.618  10.587  0.2316 -1.5856 -0.0137
  977MOL0     C31815   0.628   1.520  10.804 -0.7883 -0.5964  0.5939
  977MOL0     C31816   0.657   1.423  10.902 -0.1711 -0.4628 -0.3503
  977MOL0     C31817   0.566   1.331  10.948 -0.1713  0.0136  0.7294
  977MOL0     C31818   0.435   1.346  10.906  0.8901  0.6827  0.3142
  977MOL0     O31819   0.341   1.264  10.969  0.9877  0.0077  0.0278
  977MOL0     C31820   0.234   1.325  11.040 -0.2341 -0.0024 -0.4479
  977MOL0     C31821   0.123   1.228  11.083  0.3936 -0.4836  0.3057
  977MOL0     C31822   0.033   1.163  10.973  0.4959  0.0961 -0.1713
  977MOL0     C31823  -0.091   1.106  11.035 -0.0345 -0.2623 -0.8104
  977MOL0     C31824  -0.162   1.015  10.947  0.2050  1.2163 -0.2440
  977MOL0     C31825  -0.217   0.959  10.853 -0.3828 -0.3890 -0.3874
  977MOL0     C31826   0.401   1.441  10.814 -0.2663  0.3847  0.8664
  977MOL0     C31827   0.492   1.526  10.760  0.6307  0.0772 -1.0876
  977MOL0     H31828   0.987   1.823  10.854 -3.4293  0.3045 -1.1894
  977MOL0     H31829   1.204   1.898  10.758 -1.7032  0.8503  1.3821
  977MOL0     H31830   1.263   1.992  10.574  0.0182 -0.4437 -0.6850
  977MOL0     H31831   1.417   1.913  10.633  1.3276 -1.6749 -1.1299
  977MOL0     H31832   1.374   2.011  10.349  0.1060  2.4431  0.5474
  977MOL0     H31833   1.446   2.110  10.466 -2.3334  1.8028 -3.5146
  977MOL0     H31834   1.640   2.010  10.423 -2.1092  1.1467 -1.5702
  977MOL0     H31835   1.595   1.871  10.512  2.6563 -1.5737 -1.5830
  977MOL0     H31836   1.498   1.768  10.299 -0.5952  0.5250 -2.0814
  977MOL0     H31837   1.549   1.911  10.223 -0.6071  2.6939  2.8310
  977MOL0     H31838   1.716   1.766  10.166  1.9214  0.6313 -0.0353
  977MOL0     H31839   1.789   1.863  10.296  2.5645 -1.9780 -0.7949
  977MOL0     H31840   1.643   1.601  10.342 -0.8191 -0.2759 -0.5861
  977MOL0     H31841   1.812   1.600  10.274  1.2933  1.5937  1.7370
  977MOL0     H31842   1.896   1.708  10.482 -0.9575  0.8283  1.3768
  977MOL0     H31843   1.733   1.710  10.541  1.5097 -1.0350  1.5670
  977MOL0     H31844   1.753   1.435  10.475  0.0208  0.1787 -0.1701
  977MOL0     H31845   1.783   1.512  10.631  1.9477  0.9211  0.4902
  977MOL0     H31846   2.013   1.479  10.750  2.3379  1.8080  0.0238
  977MOL0     H31847   2.236   1.306  10.771 -0.8193  0.5947  0.1951
  977MOL0     H31848   2.360   1.359  10.664  0.9034  0.1115  2.0966
  977MOL0     H31849   2.246   1.506  10.889 -1.8501 -1.3697 -2.0597
  977MOL0     H31850   2.292   1.608  10.741 -0.8179  0.2968  0.9064
  977MOL0     H31851   2.514   1.522  10.770 -0.9589 -2.9194 -2.5068
  977MOL0     H31852   2.477   1.399  10.887  2.0635 -0.5925 -2.3425
  977MOL0     H31853   2.415   1.579  11.060 -1.7120  2.0335 -0.0707
  977MOL0     H31854   2.427   1.693  10.927 -0.5988 -0.2780 -0.0715
  977MOL0     H31855   2.525   1.444  11.164 -0.2759  1.3972 -1.4660
  977MOL0     H31856   2.682   1.196  11.354  0.2886 -0.1238  1.7909
  977MOL0     H31857   2.636   1.343  11.448 -1.2098  1.8584 -0.9442
  977MOL0     H31858   2.538   1.287  11.315  0.5541 -0.6960  0.3049
  977MOL0     H31859   3.219   1.470  11.548 -1.3299  0.9596 -0.4486
  977MOL0     H31860   3.391   1.359  11.669  1.6656  0.4114 -0.9309
  977MOL0     H31861   3.603   1.322  11.625  1.5756  0.9457  1.8128
  977MOL0     H31862   3.611   1.206  11.763  1.4684 -1.2611 -0.2382
  977MOL0     H31863   3.770   1.082  11.608 -2.5480 -0.6975 -0.9073
  977MOL0     H31864   3.757   1.223  11.498 -0.4949  1.3597  1.2469
  977MOL0     H31865   3.864   1.363  11.665 -2.6432 -0.3802 -0.2624
  977MOL0     H31866   3.958   1.209  11.652 -0.1792 -3.3857  3.4374
  977MOL0     H31867   3.790   1.279  11.891  1.3820  0.1075  1.8778
  977MOL0     H31868   3.823   1.105  11.849  0.7066 -1.1697 -3.7493
  977MOL0     H31869   3.982   1.233  12.015 -2.7060 -1.5229 -0.2259
  977MOL0     H31870   4.047   1.302  11.861 -1.5591 -1.7588 -1.8235
  977MOL0     H31871   4.040   1.019  11.925 -0.0542 -0.3954  0.5063
  977MOL0     H31872   4.121   1.107  11.786 -2.7201 -0.7191 -1.3467
  977MOL0     H31873   4.260   1.018  11.969  0.2137 -0.3990 -0.5346
  977MOL0     H31874   4.206   1.163  12.071  2.0529  0.5233 -0.1044
  977MOL0     H31875   4.292   1.320  11.918  1.0496 -0.1570  0.0866
  977MOL0     H31876   4.346   1.188  11.813 -0.6710  0.4514  0.2520
  977MOL0     H31877   3.375   1.017  11.416  0.9531 -0.1117 -2.9596
  977MOL0     H31878   3.165   1.109  11.309  1.0609 -0.9641 -0.1948
  977MOL0     H31879   3.014   1.496  11.141  0.0504 -0.6987 -0.4927
  977MOL0     H31880   2.870   1.638  10.995 -0.8137 -1.5690 -2.1088
  977MOL0     H31881   1.131   1.619  10.427 -0.7856 -1.4047  0.7362
  977MOL0     H31882   0.939   1.538  10.542  1.2340 -1.9532 -0.7083
  977MOL0     H31883   0.755   1.410  10.948 -0.1026  1.0767 -0.0021
  977MOL0     H31884   0.587   1.253  11.020  1.2235 -0.7669 -0.4755
  977MOL0     H31885   0.274   1.384  11.124  0.3786  1.2448 -1.5741
  977MOL0     H31886   0.190   1.401  10.975  0.8788  0.3595 -0.8051
  977MOL0     H31887   0.050   1.285  11.142  3.2658  2.1722  1.5920
  977MOL0     H31888   0.173   1.149  11.140  0.6994  0.4862  1.4319
  977MOL0     H31889   0.082   1.075  10.929 -2.8125 -3.8938  3.2775
  977MOL0     H31890   0.007   1.233  10.893 -2.1504  0.1176  0.6424
  977MOL0     H31891  -0.153   1.192  11.064 -0.1896 -0.7895  0.4548
  977MOL0     H31892  -0.074   1.048  11.126  0.7346  0.7575 -0.2830
  977MOL0     H31893  -0.273   0.931  10.767 -2.8160  0.6695  0.7433
  977MOL0     H31894   0.297   1.459  10.790 -0.7175  2.8311  3.9476
  977MOL0     H31895   0.462   1.610  10.699 -0.1688 -1.2528 -2.6135
  978MOL0     O31896   8.380   9.686   9.590 -0.3327  1.2176  0.2076
  978MOL0     C31897   8.388   9.737   9.702  0.0360 -0.1053  0.0468
  978MOL0     O31898   8.465   9.850   9.734  0.5478 -0.0529  0.0257
  978MOL0     C31899   8.544   9.928   9.651 -0.1655  0.6069  0.4239
  978MOL0     C31900   8.555  10.059   9.692  0.9568 -0.5913  0.7292
  978MOL0     C31901   8.611  10.151   9.607  0.0442 -0.0074 -0.5371
  978MOL0     C31902   8.662  10.113   9.480 -0.1829  0.1988  0.9997
  978MOL0     O31903   8.734  10.197   9.383 -0.2637  0.9291  0.2562
  978MOL0     C31904   8.751  10.336   9.407 -0.0359 -0.0898  0.7137
  978MOL0     C31905   8.636  10.414   9.342  0.5904  0.2050 -0.1470
  978MOL0     C31906   8.579  10.518   9.437 -0.0996  0.4185 -0.1281
  978MOL0     C31907   8.452  10.577   9.365 -0.4704 -0.4267 -0.3697
  978MOL0     C31908   8.320  10.514   9.381  0.5393  0.5788  0.1680
  978MOL0     C31909   8.207  10.561   9.289  0.6400  0.4073  0.6270
  978MOL0     C31910   8.185  10.712   9.296  0.0311 -0.4361  1.4195
  978MOL0     C31911   8.043  10.748   9.236 -0.4540 -0.5917 -0.4631
  978MOL0     N31912   7.942  10.704   9.331  0.3611  0.1697  1.0983
  978MOL0     C31913   7.846  10.608   9.294  0.5805 -0.5107 -0.0121
  978MOL0     C31914   7.791  10.574   9.410  1.1418  0.2120  0.0455
  978MOL0     C31915   7.677  10.478   9.439 -0.7275 -0.8935 -0.4184
  978MOL0     C31916   7.731  10.341   9.460 -0.0151  0.4722 -0.1162
  978MOL0     C31917   7.622  10.264   9.535 -0.1859  0.1719 -0.2030
  978MOL0     C31918   7.671  10.127   9.564 -0.6912 -0.9465 -0.4934
  978MOL0     O31919   7.744  10.122   9.691 -0.5340 -0.8093  0.8335
  978MOL0     C31920   7.726  10.018   9.776 -0.0579  0.0680  0.0445
  978MOL0     C31921   7.834   9.943   9.811 -0.2888 -0.2062 -0.4766
  978MOL0     C31922   7.824   9.839   9.903 -0.8720 -0.1438 -0.2256
  978MOL0     C31923   7.948   9.791   9.964  0.9018  0.2070  1.0919
  978MOL0     C31924   7.692   9.801   9.946 -0.8252  0.1363  0.1909
  978MOL0     C31925   7.662   9.678  10.044  0.6740 -0.3022  0.6276
  978MOL0     O31926   7.540   9.687  10.100 -0.5639 -0.0923  0.2753
  978MOL0     C31927   7.484   9.595  10.183  0.3626 -0.0389  0.6266
  978MOL0     C31928   7.348   9.562  10.162  0.3173 -0.0474 -1.2071
  978MOL0     C31929   7.284   9.462  10.243  0.7743 -0.2717  0.1095
  978MOL0     C31930   7.348   9.411  10.359 -0.6670  0.8434  0.0062
  978MOL0     O31931   7.290   9.325  10.441  0.1662 -0.3822 -0.2026
  978MOL0     C31932   7.238   9.202  10.383 -0.8345 -0.3046  0.1675
  978MOL0     C31933   7.231   9.082  10.483  0.7768 -0.7083  0.0634
  978MOL0     C31934   7.350   8.988  10.461  0.0733 -0.3600  0.0958
  978MOL0     C31935   7.368   8.880  10.572  0.0780  0.7757 -0.4846
  978MOL0     C31936   7.514   8.813  10.578 -0.0694 -0.8755  0.1008
  978MOL0     C31937   7.528   8.750  10.724 -0.9699 -0.0155 -0.1307
  978MOL0     C31938   7.676   8.724  10.767 -0.6472 -0.2716  0.0493
  978MOL0     C31939   7.747   8.848  10.810  0.0825 -0.5956 -1.3405
  978MOL0    Cl31940   7.663   8.914  10.958 -0.0451  0.5390 -0.5381
  978MOL0     C31941   7.489   9.434  10.372  0.8261 -0.7754 -0.1430
  978MOL0     C31942   7.553   9.523  10.281  0.2642 -0.3057 -0.5026
  978MOL0     O31943   7.742   9.582  10.066  0.6080 -0.2268  0.2401
  978MOL0     C31944   7.578   9.872   9.894 -0.4859  0.5535  0.1099
  978MOL0     C31945   7.600   9.979   9.812  0.0451 -1.2777 -0.3163
  978MOL0     N31946   7.857  10.631   9.518  1.2030  0.6082  0.2432
  978MOL0     N31947   7.944  10.706   9.471  0.4335 -0.0229  0.4232
  978MOL0     C31948   8.654   9.979   9.444 -1.1818  0.3101  0.2355
  978MOL0     C31949   8.597   9.886   9.525 -0.0846 -0.1394 -1.5566
  978MOL0     C31950   8.320   9.668   9.815 -0.5957 -0.9647 -0.6597
  978MOL0     C31951   8.247   9.551   9.802 -0.1472 -0.0640  0.6524
  978MOL0     C31952   8.192   9.485   9.919  0.2786 -0.2618  0.2398
  978MOL0     C31953   8.206   9.543  10.049 -0.1037 -0.0998 -0.3559
  978MOL0     O31954   8.150   9.488  10.167 -0.8863  0.0118 -0.0905
  978MOL0     C31955   8.067   9.379  10.153 -0.1147 -0.0561 -0.1300
  978MOL0     C31956   8.017   9.313  10.278 -0.5298 -0.3677 -0.2655
  978MOL0     C31957   7.900   9.372  10.346  0.1938  1.2796  0.4118
  978MOL0     C31958   7.869   9.319  10.492 -0.0115 -0.5064  0.2954
  978MOL0     C31959   7.863   9.173  10.492 -0.9095 -0.6839 -0.9164
  978MOL0     C31960   7.852   9.055  10.479 -0.2087 -0.0161 -0.3704
  978MOL0     C31961   8.272   9.664  10.056  0.1303  0.1530 -0.4811
  978MOL0     C31962   8.331   9.725   9.942  0.4728 -0.2396 -0.4487
  978MOL0     H31963   8.502  10.101   9.777 -1.2681 -2.1353  0.1882
  978MOL0     H31964   8.601  10.253   9.642 -1.0343 -0.6339  1.0589
  978MOL0     H31965   8.759  10.340   9.516 -0.1808 -0.2717  0.7311
  978MOL0     H31966   8.844  10.384   9.376 -1.3963  2.3851  0.2387
  978MOL0     H31967   8.679  10.459   9.252  2.2922 -1.1889 -0.0828
  978MOL0     H31968   8.562  10.343   9.303 -0.9041  0.9341  1.2665
  978MOL0     H31969   8.550  10.488   9.538 -2.7142  2.2855 -0.2179
  978MOL0     H31970   8.652  10.598   9.449 -1.3120  1.5900 -0.3063
  978MOL0     H31971   8.433  10.676   9.408  3.5490  1.4599 -2.3858
  978MOL0     H31972   8.473  10.584   9.258 -0.2038 -1.3806 -0.3854
  978MOL0     H31973   8.334  10.406   9.371 -0.2520  0.6473 -2.2516
  978MOL0     H31974   8.287  10.541   9.482  1.1314 -0.6624  0.7166
  978MOL0     H31975   8.239  10.520   9.193  0.4019 -0.8758  1.0709
  978MOL0     H31976   8.124  10.504   9.331  1.4259 -1.8203 -0.7021
  978MOL0     H31977   8.215  10.761   9.389  0.2862  1.1297  0.5518
  978MOL0     H31978   8.258  10.760   9.230 -1.6885  0.8048  0.3468
  978MOL0     H31979   8.027  10.713   9.133 -0.6214 -0.1768 -0.5775
  978MOL0     H31980   8.037  10.857   9.230 -1.6018 -0.6872 -1.3951
  978MOL0     H31981   7.821  10.588   9.191 -0.5661 -0.1186  0.1818
  978MOL0     H31982   7.621  10.510   9.528 -2.2966 -0.1512 -1.6336
  978MOL0     H31983   7.605  10.481   9.357 -0.7410 -0.6117 -0.3961
  978MOL0     H31984   7.820  10.346   9.523 -1.0809 -0.8397  1.6029
  978MOL0     H31985   7.742  10.299   9.360 -0.9217 -1.6578  0.6160
  978MOL0     H31986   7.539  10.257   9.464  0.5787  1.0232 -1.2102
  978MOL0     H31987   7.598  10.309   9.632 -2.1328 -1.4828  0.1592
  978MOL0     H31988   7.728  10.086   9.480 -2.9211 -2.6354 -1.2799
  978MOL0     H31989   7.578  10.069   9.570 -0.2540 -1.5319  1.0269
  978MOL0     H31990   7.920  10.005   9.789  0.0532  0.4052  2.1625
  978MOL0     H31991   8.023   9.864   9.931 -1.4184  2.4583  0.4930
  978MOL0     H31992   7.942   9.782  10.073  0.4101 -1.3021  0.9641
  978MOL0     H31993   7.975   9.689   9.935 -1.1441 -0.3752  1.0612
  978MOL0     H31994   7.285   9.586  10.077 -1.6000 -0.0887  0.1265
  978MOL0     H31995   7.186   9.427  10.213  2.4531 -4.9178 -0.7815
  978MOL0     H31996   7.133   9.219  10.361 -1.0489 -0.6687  0.8686
  978MOL0     H31997   7.290   9.176  10.290 -3.5154 -1.4311 -1.1083
  978MOL0     H31998   7.215   9.119  10.585  1.0785  3.1881 -1.1048
  978MOL0     H31999   7.141   9.026  10.460 -0.3198  1.5326 -1.4511
  978MOL0     H32000   7.431   9.062  10.464 -0.8945  0.7443  3.0116
  978MOL0     H32001   7.340   8.950  10.359 -1.1419  1.8150 -0.6554
  978MOL0     H32002   7.346   8.934  10.664 -1.0033 -1.4657  0.6694
  978MOL0     H32003   7.292   8.801  10.558 -0.2376  1.1445 -0.8723
  978MOL0     H32004   7.588   8.894  10.580 -0.6984 -0.2833  2.0810
  978MOL0     H32005   7.538   8.755  10.488 -0.0880 -0.2539 -0.3141
  978MOL0     H32006   7.491   8.813  10.806  4.1273 -1.4687  3.8516
  978MOL0     H32007   7.471   8.657  10.724 -0.6016 -0.3315 -2.8101
  978MOL0     H32008   7.738   8.697  10.681  1.5630 -0.3390  1.5785
  978MOL0     H32009   7.675   8.650  10.847 -0.9338  2.4868  2.8235
  978MOL0     H32010   7.767   8.919  10.728  1.5324 -2.6423 -2.8742
  978MOL0     H32011   7.843   8.815  10.849 -1.6043 -2.6813  1.4170
  978MOL0     H32012   7.536   9.416  10.467  0.7973  1.9983  0.4867
  978MOL0     H32013   7.654   9.549  10.311  0.6603 -0.1584 -1.8848
  978MOL0     H32014   7.475   9.844   9.915 -1.3234  2.5430 -1.0188
  978MOL0     H32015   7.515  10.037   9.781  0.4475  0.4262  1.5343
  978MOL0     H32016   8.689   9.939   9.349 -0.5518 -4.0572  2.0521
  978MOL0     H32017   8.604   9.784   9.490  0.4272  0.2196 -2.5663
  978MOL0     H32018   8.237   9.500   9.707 -0.8628  0.5520  0.3960
  978MOL0     H32019   8.133   9.395   9.911 -2.7006  1.7145 -2.6870
  978MOL0     H32020   7.978   9.403  10.094  0.1879  0.0973 -0.5323
  978MOL0     H32021   8.110   9.292  10.104  2.1426  0.6371  0.5040
  978MOL0     H32022   8.103   9.316  10.345 -0.7627 -0.6865  0.0472
  978MOL0     H32023   7.990   9.210  10.256  1.6570 -0.3050 -4.2823
  978MOL0     H32024   7.819   9.334  10.283  0.3310 -0.0608  1.0074
  978MOL0     H32025   7.907   9.481  10.352 -2.5097  1.4463  4.7053
  978MOL0     H32026   7.770   9.355  10.521 -0.2708 -0.4039 -0.6708
  978MOL0     H32027   7.937   9.353  10.571  1.4338 -4.2023  0.8421
  978MOL0     H32028   7.856   8.950  10.456  1.8000 -0.2898  1.0394
  978MOL0     H32029   8.276   9.717  10.150  1.6048  0.5177 -0.7158
  978MOL0     H32030   8.401   9.806   9.958  2.3797 -1.6334 -1.2998
  979MOL0     O32031  10.959   7.028   9.753  0.3669  0.3300 -0.2859
  979MOL0     C32032  10.937   6.909   9.745  0.9428 -0.5050 -0.1887
  979MOL0     O32033  10.955   6.811   9.851  0.2103 -0.0522  0.3718
  979MOL0     C32034  11.001   6.851   9.975 -0.8124 -0.3639 -1.6921
  979MOL0     C32035  11.089   6.966   9.995  0.4786 -0.5373  0.0274
  979MOL0     C32036  11.118   7.016  10.122  0.1221  0.1990  0.1875
  979MOL0     C32037  11.064   6.946  10.234  0.4441  1.0259 -0.0462
  979MOL0     O32038  11.088   6.986  10.364 -0.4480 -0.1765 -0.3683
  979MOL0     C32039  11.117   7.127  10.386 -0.0755 -0.2003  0.9301
  979MOL0     C32040  11.115   7.168  10.525  0.2934 -0.4631  0.0036
  979MOL0     C32041  11.055   7.307  10.533 -0.2190 -0.5668 -0.4241
  979MOL0     C32042  11.083   7.361  10.681  0.7174  0.7564  0.5454
  979MOL0     C32043  11.008   7.495  10.707 -0.8211 -0.0659  0.5976
  979MOL0     C32044  10.959   7.509  10.863 -0.8234 -0.9718  0.4316
  979MOL0     C32045  10.954   7.655  10.908 -0.9437 -0.5126 -1.9317
  979MOL0     C32046  11.090   7.721  10.910 -0.2143  0.0356 -0.9629
  979MOL0     N32047  11.094   7.845  10.988  0.8393 -0.3006  0.2066
  979MOL0     C32048  11.004   7.942  10.972  0.0679 -1.1153  0.7827
  979MOL0     C32049  11.042   8.050  11.054  0.1455  0.2808  0.6666
  979MOL0     C32050  10.990   8.190  11.074 -0.2862 -0.6534  0.3958
  979MOL0     C32051  10.948   8.222  11.226 -0.0094  0.3131  1.2434
  979MOL0     C32052  10.863   8.109  11.275  0.4995  0.1268  0.1886
  979MOL0     C32053  10.809   8.145  11.408  0.0029 -0.3496 -0.0395
  979MOL0     O32054  10.734   8.039  11.453  0.4179 -0.2072  0.3764
  979MOL0     C32055  10.686   8.029  11.579 -0.7419  0.0655  0.1396
  979MOL0     C32056  10.737   8.104  11.690 -0.6233 -0.8217 -0.2242
  979MOL0     C32057  10.689   8.087  11.820 -0.3907 -0.3556 -0.6070
  979MOL0     C32058  10.737   8.172  11.940  0.9107 -0.2479 -0.5357
  979MOL0     C32059  10.583   7.999  11.842  0.3228 -0.2263 -0.2741
  979MOL0     C32060  10.523   7.956  11.975 -0.8445 -0.0280 -0.2279
  979MOL0     O32061  10.390   7.932  11.984  0.6182 -0.5091 -0.4709
  979MOL0     C32062  10.348   7.885  12.109  0.1320 -0.5462  0.1334
  979MOL0     C32063  10.316   7.978  12.210 -0.1617  1.3046 -0.2234
  979MOL0     C32064  10.260   7.938  12.328  0.7982  0.6758 -0.8927
  979MOL0     C32065  10.230   7.802  12.345  0.4108 -0.0718 -0.0707
  979MOL0     O32066  10.184   7.754  12.461 -0.6783  0.2212  0.0838
  979MOL0     C32067  10.048   7.768  12.484 -0.0240  0.6341  0.2364
  979MOL0     C32068   9.956   7.656  12.439  0.0477  0.5622  0.5569
  979MOL0     C32069   9.876   7.696  12.311  0.5697 -0.0524 -0.3062
  979MOL0     C32070   9.730   7.740  12.341 -0.1839 -0.0448 -0.0970
  979MOL0     C32071   9.644   7.769  12.218 -0.0349 -0.5592  0.1800
  979MOL0     C32072   9.503   7.813  12.249  0.0909  1.1605 -0.2378
  979MOL0     C32073   9.410   7.799  12.124 -0.1841  0.5324  0.9586
  979MOL0     C32074   9.260   7.857  12.149 -0.0816  0.5321 -0.0775
  979MOL0    Cl32075   9.169   7.796  12.020  0.0024  0.0209 -0.3545
  979MOL0     C32076  10.264   7.707  12.253  0.4256  0.0249 -0.0040
  979MOL0     C32077  10.320   7.749  12.136 -0.1673  0.7198  0.7928
  979MOL0     O32078  10.604   7.934  12.063 -0.3167 -0.0753 -0.4167
  979MOL0     C32079  10.539   7.917  11.734 -0.3849  0.3116  0.3140
  979MOL0     C32080  10.595   7.926  11.608 -0.6325 -0.0390  0.2834
  979MOL0     N32081  11.165   8.011  11.109 -0.0487  0.2514  0.3681
  979MOL0     N32082  11.197   7.895  11.067 -1.2344 -0.2539  0.6258
  979MOL0     C32083  10.976   6.835  10.217  0.6748  1.4226 -0.1699
  979MOL0     C32084  10.946   6.785  10.090  0.9648 -0.7513  0.6401
  979MOL0     C32085  10.881   6.859   9.621 -0.5244  0.1371  0.0660
  979MOL0     C32086  10.900   6.927   9.502  0.7472 -0.8002 -1.5263
  979MOL0     C32087  10.831   6.891   9.389 -0.2105 -0.8018  0.4575
  979MOL0     C32088  10.751   6.777   9.392  0.1314  0.8979 -0.6034
  979MOL0     O32089  10.690   6.721   9.284  0.2451 -0.1625  0.4220
  979MOL0     C32090  10.723   6.764   9.148 -0.4242 -0.0002  0.0586
  979MOL0     C32091  10.633   6.677   9.048  0.4674  0.4140  0.7569
  979MOL0     C32092  10.490   6.721   9.034  0.8107 -0.0945  0.0320
  979MOL0     C32093  10.430   6.664   8.908 -0.3474 -0.5894 -0.0107
  979MOL0     C32094  10.374   6.533   8.929  0.4251 -0.1465 -0.2972
  979MOL0     C32095  10.330   6.420   8.909  0.2322 -0.4983  0.6535
  979MOL0     C32096  10.730   6.706   9.508  0.3408  0.2205 -0.4434
  979MOL0     C32097  10.791   6.753   9.620 -0.8238  0.1386  0.3905
  979MOL0     H32098  11.141   7.016   9.914  0.1016 -0.2450 -0.0339
  979MOL0     H32099  11.189   7.097  10.135  1.0517  0.0399 -3.0633
  979MOL0     H32100  11.218   7.128  10.343 -0.9620 -0.9006 -1.3504
  979MOL0     H32101  11.056   7.194  10.323 -2.5495  0.7824  4.1202
  979MOL0     H32102  11.058   7.098  10.587  1.6737 -3.1953 -1.5843
  979MOL0     H32103  11.218   7.171  10.563  0.8207  0.7431 -1.4307
  979MOL0     H32104  11.095   7.374  10.457 -2.2866  0.2426 -0.8406
  979MOL0     H32105  10.947   7.303  10.520 -0.5309  1.6344  0.9671
  979MOL0     H32106  11.052   7.287  10.756 -0.1048 -0.6940 -1.1353
  979MOL0     H32107  11.192   7.371  10.686  0.7907  0.8887 -0.8765
  979MOL0     H32108  11.074   7.574  10.670 -2.5292  0.8637 -0.5819
  979MOL0     H32109  10.914   7.493  10.652 -0.4103 -1.6828 -0.1170
  979MOL0     H32110  10.858   7.467  10.869  0.2986 -3.9123  0.6582
  979MOL0     H32111  11.031   7.456  10.926  1.2251  0.9667 -0.1884
  979MOL0     H32112  10.891   7.718  10.844  0.6284  2.4950 -0.7296
  979MOL0     H32113  10.909   7.641  11.006  0.7807 -0.8205 -1.1552
  979MOL0     H32114  11.121   7.747  10.809 -1.8326  1.0936 -1.2203
  979MOL0     H32115  11.169   7.656  10.949 -0.6199  0.2578  0.2819
  979MOL0     H32116  10.930   7.945  10.893  1.5937 -3.8869 -0.8927
  979MOL0     H32117  11.056   8.271  11.041 -0.7891 -1.0648 -1.7804
  979MOL0     H32118  10.902   8.196  11.009  0.5785 -3.5818 -1.2235
  979MOL0     H32119  10.891   8.315  11.227 -1.0296 -0.3020  1.0880
  979MOL0     H32120  11.041   8.217  11.284  0.9114 -1.5960 -0.2340
  979MOL0     H32121  10.924   8.018  11.281 -0.0340 -0.1583  2.1795
  979MOL0     H32122  10.789   8.104  11.195  0.6354  4.1774 -0.3654
  979MOL0     H32123  10.746   8.234  11.403  0.7604  0.1453 -1.1186
  979MOL0     H32124  10.894   8.159  11.476  1.1321  0.2475 -1.5198
  979MOL0     H32125  10.820   8.170  11.667 -2.3193  1.5085 -0.0140
  979MOL0     H32126  10.805   8.249  11.903 -0.3734  0.7224 -0.9299
  979MOL0     H32127  10.650   8.220  11.985  0.9265  0.7842 -1.5621
  979MOL0     H32128  10.793   8.117  12.017  4.4956  4.0902  0.3424
  979MOL0     H32129  10.332   8.085  12.201  1.3868  1.0370 -0.9734
  979MOL0     H32130  10.247   8.001  12.415 -0.0184  1.2698 -1.4333
  979MOL0     H32131  10.040   7.754  12.592  2.5524 -3.8163  0.0941
  979MOL0     H32132  10.023   7.867  12.443 -3.3104  0.2691  1.1011
  979MOL0     H32133  10.012   7.564  12.417  1.7824  1.1226  2.3085
  979MOL0     H32134   9.884   7.638  12.519 -1.7055  1.9405 -0.6557
  979MOL0     H32135   9.878   7.603  12.253 -0.0663 -0.7820  0.7988
  979MOL0     H32136   9.919   7.782  12.259  1.8731 -0.4933  0.0152
  979MOL0     H32137   9.676   7.660  12.395 -1.8946  0.9750 -0.2207
  979MOL0     H32138   9.740   7.827  12.407  3.0703  0.3891 -1.0328
  979MOL0     H32139   9.624   7.677  12.163  1.0125 -1.6723  1.5913
  979MOL0     H32140   9.694   7.837  12.148  0.2671 -3.2219 -2.3619
  979MOL0     H32141   9.459   7.766  12.337 -1.6283 -0.2461 -1.7598
  979MOL0     H32142   9.519   7.920  12.266 -0.3323  1.7706 -3.1372
  979MOL0     H32143   9.410   7.692  12.102  1.7578  0.2340  2.1745
  979MOL0     H32144   9.448   7.851  12.036 -3.1659  1.4787  0.1350
  979MOL0     H32145   9.268   7.965  12.133  2.8096  0.0672 -2.7961
  979MOL0     H32146   9.212   7.827  12.243  1.7116 -0.6629  0.5152
  979MOL0     H32147  10.250   7.603  12.282  0.3939  0.0634  0.1190
  979MOL0     H32148  10.353   7.685  12.055 -1.6363 -2.8945  2.8192
  979MOL0     H32149  10.470   7.836  11.759  0.3114 -0.1589  0.7565
  979MOL0     H32150  10.549   7.862  11.533  0.6679  0.9862 -1.4701
  979MOL0     H32151  10.934   6.792  10.307  0.4090  0.8928 -0.5349
  979MOL0     H32152  10.877   6.705  10.065  1.6205 -0.3826 -2.9858
  979MOL0     H32153  10.959   7.018   9.503 -1.8060  0.9887 -0.5339
  979MOL0     H32154  10.844   6.950   9.298  0.5638 -0.4699  0.7709
  979MOL0     H32155  10.709   6.872   9.144 -2.4543 -0.2520 -2.0875
  979MOL0     H32156  10.830   6.741   9.144 -0.7845 -2.0526  0.7383
  979MOL0     H32157  10.645   6.571   9.075 -1.8035 -0.1348 -0.1112
  979MOL0     H32158  10.675   6.684   8.947 -2.5257  3.7775 -0.4669
  979MOL0     H32159  10.489   6.830   9.030 -1.5114  0.0131  1.7225
  979MOL0     H32160  10.421   6.692   9.113  1.6191 -0.6482  0.5415
  979MOL0     H32161  10.501   6.669   8.825  2.7034 -1.8603  2.3189
  979MOL0     H32162  10.338   6.722   8.894 -0.0046  1.0597  3.4884
  979MOL0     H32163  10.300   6.319   8.888  1.0220 -0.3938 -1.1840
  979MOL0     H32164  10.651   6.633   9.519  0.0760  0.5785  0.0378
  979MOL0     H32165  10.777   6.695   9.711  1.1652 -0.0755  0.6125
  980MOL0     O32166   8.051   8.471   4.322 -0.6474 -0.5047 -0.3156
  980MOL0     C32167   8.125   8.411   4.239 -0.5649  0.3367  0.0265
  980MOL0     O32168   8.123   8.272   4.212  0.3197 -0.1489 -0.0391
  980MOL0     C32169   8.022   8.199   4.263  0.3036 -0.0996 -0.4006
  980MOL0     C32170   7.894   8.182   4.201 -0.5079  1.1336 -0.2858
  980MOL0     C32171   7.797   8.093   4.248  0.2594 -0.5748  0.4787
  980MOL0     C32172   7.833   8.015   4.346  0.0115  0.1896 -0.4758
  980MOL0     O32173   7.730   7.925   4.381 -0.0329 -0.5827 -0.1136
  980MOL0     C32174   7.756   7.815   4.468 -0.7748  0.0131 -0.2673
  980MOL0     C32175   7.762   7.860   4.614  0.3574 -0.3201  0.3886
  980MOL0     C32176   7.628   7.908   4.662  0.4381 -0.2652 -0.0929
  980MOL0     C32177   7.610   7.911   4.812  0.3363 -0.5424 -0.2020
  980MOL0     C32178   7.521   8.026   4.861  0.4164  0.6832 -0.7763
  980MOL0     C32179   7.509   8.015   5.015  0.6689 -0.3378 -0.3860
  980MOL0     C32180   7.437   8.137   5.078  0.4569  0.1305  0.6648
  980MOL0     C32181   7.284   8.142   5.070 -0.0971 -0.2422 -0.4644
  980MOL0     N32182   7.229   8.151   4.939 -0.0711 -0.0095  0.5062
  980MOL0     C32183   7.215   8.274   4.877  1.1926 -0.2313  0.3168
  980MOL0     C32184   7.160   8.252   4.756  1.0280  0.8216 -0.0011
  980MOL0     C32185   7.121   8.348   4.645 -0.1014  0.9359  0.2740
  980MOL0     C32186   6.996   8.429   4.677  0.1438  0.3259  0.9997
  980MOL0     C32187   6.875   8.345   4.692 -0.4894  0.4133 -0.7980
  980MOL0     C32188   6.756   8.441   4.715  0.9174  0.3227  0.8298
  980MOL0     O32189   6.632   8.372   4.712 -0.8345 -0.4277  0.4665
  980MOL0     C32190   6.585   8.334   4.587 -0.1669  1.4864 -0.0390
  980MOL0     C32191   6.563   8.421   4.487 -0.0127 -0.0765  0.4829
  980MOL0     C32192   6.515   8.384   4.362 -0.1976  1.1085 -0.7972
  980MOL0     C32193   6.506   8.493   4.252 -0.6052 -0.5738 -0.7567
  980MOL0     C32194   6.482   8.247   4.332  0.1151 -0.5239 -0.5719
  980MOL0     C32195   6.424   8.199   4.206 -0.1435 -1.5584  0.4494
  980MOL0     O32196   6.443   8.268   4.085  0.3226 -0.2114 -0.7364
  980MOL0     C32197   6.417   8.189   3.968 -0.0928 -0.8752  1.0104
  980MOL0     C32198   6.471   8.068   3.938  0.1270  0.5209  0.3156
  980MOL0     C32199   6.435   8.002   3.817  0.1620  0.1095 -1.3487
  980MOL0     C32200   6.330   8.056   3.736 -0.2094  0.0114 -0.2243
  980MOL0     O32201   6.293   7.983   3.623  0.0851  0.2406 -0.6648
  980MOL0     C32202   6.249   8.058   3.512  0.7805  0.7233 -0.6223
  980MOL0     C32203   6.094   8.053   3.492 -0.1864 -0.3236 -0.2837
  980MOL0     C32204   6.043   7.907   3.454  0.2855  0.1763 -0.4725
  980MOL0     C32205   5.911   7.929   3.388  0.6339  0.6962 -0.0672
  980MOL0     C32206   5.857   7.790   3.332  0.0639  0.1398 -0.7825
  980MOL0     C32207   5.711   7.809   3.284 -0.2438  0.8479  0.3905
  980MOL0     C32208   5.666   7.683   3.202  0.6313 -0.8065  0.4111
  980MOL0     C32209   5.503   7.671   3.197 -0.1287  0.2282  0.1278
  980MOL0    Cl32210   5.432   7.804   3.102  1.0081  0.0594  0.6066
  980MOL0     C32211   6.277   8.176   3.771 -0.5912 -0.3903  0.4509
  980MOL0     C32212   6.326   8.247   3.881  0.2073  0.4863  0.8901
  980MOL0     O32213   6.341   8.109   4.211 -0.0879  0.8361 -0.7343
  980MOL0     C32214   6.508   8.154   4.435  0.5801  0.0974  0.1674
  980MOL0     C32215   6.565   8.192   4.560  0.3804 -0.7282  0.1739
  980MOL0     N32216   7.126   8.118   4.758  0.6759 -0.0293  0.3095
  980MOL0     N32217   7.176   8.058   4.858  0.4159 -0.2404 -0.3775
  980MOL0     C32218   7.961   8.023   4.410 -0.7030  0.1275 -0.9590
  980MOL0     C32219   8.056   8.111   4.360  0.5061 -1.2276 -0.4498
  980MOL0     C32220   8.242   8.470   4.168 -0.1634 -0.6833  0.1715
  980MOL0     C32221   8.336   8.396   4.104 -1.0691  0.4460  0.1619
  980MOL0     C32222   8.447   8.461   4.037  0.6643  0.5262  0.5396
  980MOL0     C32223   8.457   8.598   4.033  0.1779 -0.5797  0.2870
  980MOL0     O32224   8.551   8.666   3.966  0.1034 -0.0211  0.6894
  980MOL0     C32225   8.618   8.617   3.843  0.9088  0.4991  1.1527
  980MOL0     C32226   8.512   8.606   3.733 -0.3712  0.6540  0.3580
  980MOL0     C32227   8.568   8.598   3.595 -0.8399  0.8136 -0.0953
  980MOL0     C32228   8.462   8.619   3.488  0.9026  0.4132 -0.0185
  980MOL0     C32229   8.348   8.530   3.487 -0.2051 -0.6908 -0.1189
  980MOL0     C32230   8.239   8.466   3.472 -0.5939  1.1841  0.1662
  980MOL0     C32231   8.359   8.675   4.083  1.0563 -0.2565 -0.5906
  980MOL0     C32232   8.253   8.611   4.147 -0.2059  0.3079  1.2522
  980MOL0     H32233   7.874   8.254   4.122  1.8776  1.6474 -0.5128
  980MOL0     H32234   7.697   8.079   4.208  0.2360 -1.2084  0.7421
  980MOL0     H32235   7.679   7.739   4.454 -2.2339  1.5232 -0.7979
  980MOL0     H32236   7.853   7.773   4.438 -0.2540  1.3170 -0.5141
  980MOL0     H32237   7.795   7.773   4.672 -0.0912 -1.0469 -0.4319
  980MOL0     H32238   7.836   7.940   4.617 -1.7422  1.7423 -0.0592
  980MOL0     H32239   7.604   8.003   4.613 -3.0943 -1.1363 -0.3676
  980MOL0     H32240   7.550   7.840   4.626  0.4967 -0.1023 -0.5299
  980MOL0     H32241   7.572   7.814   4.846 -0.7758 -0.2418 -0.5508
  980MOL0     H32242   7.710   7.927   4.852 -0.1773  1.8848  0.2467
  980MOL0     H32243   7.554   8.122   4.821 -0.1158  0.7289 -1.1131
  980MOL0     H32244   7.424   7.997   4.820  0.5555 -3.7583  1.4266
  980MOL0     H32245   7.442   7.930   5.031  1.8687 -0.8651  2.3108
  980MOL0     H32246   7.603   7.996   5.066 -0.2938  0.5611  1.8633
  980MOL0     H32247   7.475   8.154   5.179  0.8761 -0.2619  0.5740
  980MOL0     H32248   7.474   8.225   5.024  1.1913 -0.4096  0.2723
  980MOL0     H32249   7.245   8.221   5.135 -0.9006 -1.7058  0.8912
  980MOL0     H32250   7.253   8.046   5.113  2.2847 -0.3603  1.1865
  980MOL0     H32251   7.251   8.367   4.921  0.1404  0.3927 -0.1121
  980MOL0     H32252   7.206   8.408   4.612  0.1229 -0.4845 -1.9271
  980MOL0     H32253   7.096   8.284   4.560  2.0570 -0.7947  0.8342
  980MOL0     H32254   6.973   8.499   4.596  1.2084  0.2261  0.6091
  980MOL0     H32255   7.013   8.485   4.770 -0.0850  2.4910 -0.1874
  980MOL0     H32256   6.876   8.283   4.783 -4.9652  0.8791 -0.2169
  980MOL0     H32257   6.858   8.276   4.609 -0.4959 -0.5588 -0.0093
  980MOL0     H32258   6.761   8.519   4.639 -1.8636 -1.6556 -1.5842
  980MOL0     H32259   6.767   8.497   4.809  2.5393  0.4376  0.5987
  980MOL0     H32260   6.590   8.525   4.501  1.6149 -0.6121  1.4957
  980MOL0     H32261   6.404   8.497   4.213 -1.7605 -1.4908  1.8859
  980MOL0     H32262   6.528   8.593   4.288  1.6349 -1.1813 -0.2537
  980MOL0     H32263   6.574   8.479   4.167 -1.8572  2.4191 -2.4099
  980MOL0     H32264   6.553   8.031   3.999 -2.2146  0.7168  3.8201
  980MOL0     H32265   6.476   7.903   3.796 -1.5303 -0.4439 -2.1665
  980MOL0     H32266   6.277   8.164   3.514 -2.1637  1.6678 -2.9758
  980MOL0     H32267   6.307   8.012   3.431  1.9190 -0.9860  1.0764
  980MOL0     H32268   6.048   8.084   3.586 -0.0251  1.4344 -0.7443
  980MOL0     H32269   6.069   8.135   3.424  3.3198  2.1650  1.0919
  980MOL0     H32270   6.042   7.839   3.540  0.6973  2.3437  1.3455
  980MOL0     H32271   6.112   7.853   3.388  1.5222 -1.0790  1.7485
  980MOL0     H32272   5.846   7.967   3.467 -2.3013 -1.3842 -1.3070
  980MOL0     H32273   5.913   7.996   3.302  1.9898 -2.8116 -3.0595
  980MOL0     H32274   5.867   7.715   3.410 -0.2348 -0.5123 -1.3610
  980MOL0     H32275   5.929   7.758   3.255  1.8573 -4.2467  2.3071
  980MOL0     H32276   5.654   7.809   3.378 -1.4890 -1.9374 -0.2731
  980MOL0     H32277   5.691   7.901   3.229  1.0067 -0.5705 -2.6794
  980MOL0     H32278   5.697   7.587   3.244  1.8482 -1.3376 -1.5671
  980MOL0     H32279   5.710   7.678   3.102 -3.3306 -0.7026 -1.5314
  980MOL0     H32280   5.468   7.671   3.301  1.2794 -1.3447  0.6359
  980MOL0     H32281   5.469   7.576   3.156  1.6861  0.5478 -2.3759
  980MOL0     H32282   6.197   8.220   3.711  1.0498  3.1334  0.5836
  980MOL0     H32283   6.279   8.342   3.905 -2.6031 -0.4633 -0.4224
  980MOL0     H32284   6.490   8.048   4.424  1.6908 -0.1964  1.1218
  980MOL0     H32285   6.589   8.127   4.644  0.5079 -2.0057 -0.8065
  980MOL0     H32286   7.981   7.962   4.497 -2.2132  2.0898  0.8743
  980MOL0     H32287   8.159   8.123   4.391  1.1662 -1.0141 -2.5786
  980MOL0     H32288   8.329   8.287   4.100  0.0802  0.3595  0.1097
  980MOL0     H32289   8.518   8.397   3.986 -0.2395  0.2345 -0.4004
  980MOL0     H32290   8.695   8.686   3.808  3.1527 -2.5404 -0.3637
  980MOL0     H32291   8.660   8.518   3.862  0.9797 -0.6649 -3.6985
  980MOL0     H32292   8.462   8.703   3.725  1.3570  1.4623 -1.8795
  980MOL0     H32293   8.441   8.525   3.752 -1.1367  1.7305  2.3869
  980MOL0     H32294   8.616   8.501   3.576  0.4006  0.7034  3.1177
  980MOL0     H32295   8.646   8.672   3.575 -2.8988  2.6766 -1.7805
  980MOL0     H32296   8.508   8.628   3.389  1.0500  3.2950  0.2279
  980MOL0     H32297   8.425   8.720   3.509  1.9414  0.6714  0.6055
  980MOL0     H32298   8.152   8.405   3.455  0.7543 -1.5394  2.2763
  980MOL0     H32299   8.353   8.779   4.052 -0.9607 -0.1202  0.1450
  980MOL0     H32300   8.175   8.678   4.183  1.1877  1.6444  1.8826
  981MOL0     O32301   5.308   9.125   1.619  0.1695  0.1214  0.0724
  981MOL0     C32302   5.401   9.177   1.676 -0.7353 -0.3719 -0.4457
  981MOL0     O32303   5.440   9.315   1.656  0.1553  0.2990 -0.0591
  981MOL0     C32304   5.361   9.393   1.574  0.4763  0.1871 -0.7963
  981MOL0     C32305   5.429   9.496   1.508 -0.1204 -0.2083  0.5668
  981MOL0     C32306   5.365   9.596   1.435  0.1958 -0.6462  0.6333
  981MOL0     C32307   5.226   9.586   1.411 -0.3207 -0.2408  0.1561
  981MOL0     O32308   5.172   9.690   1.336  0.8684 -0.4452 -0.3806
  981MOL0     C32309   5.042   9.674   1.264 -0.2355 -0.5542 -0.4333
  981MOL0     C32310   5.058   9.785   1.159 -0.2986 -0.5606  0.4537
  981MOL0     C32311   4.963   9.795   1.050  0.0108 -0.3498  1.0597
  981MOL0     C32312   4.814   9.803   1.091  0.6897 -0.4028  0.0098
  981MOL0     C32313   4.709   9.816   0.977  0.5947  0.1456  0.0709
  981MOL0     C32314   4.732   9.932   0.879 -0.1534  0.0509  0.9202
  981MOL0     C32315   4.620   9.961   0.778  0.6037 -0.4838 -0.3229
  981MOL0     C32316   4.631  10.090   0.699  0.7831 -0.3129 -0.4108
  981MOL0     N32317   4.627  10.212   0.779  1.0906  0.5551  0.1396
  981MOL0     C32318   4.528  10.269   0.850  0.1117  0.0284 -0.4454
  981MOL0     C32319   4.578  10.385   0.912  0.5285  0.6580 -0.8344
  981MOL0     C32320   4.501  10.492   0.975 -0.7490 -0.2976  0.5289
  981MOL0     C32321   4.505  10.490   1.129  0.2364 -0.4573 -0.4449
  981MOL0     C32322   4.421  10.598   1.200  0.3237  1.2525  1.1307
  981MOL0     C32323   4.414  10.591   1.350  0.6070 -0.4858 -0.2322
  981MOL0     O32324   4.540  10.553   1.405  0.4801 -0.1641  0.4020
  981MOL0     C32325   4.632  10.654   1.416  0.5346 -0.5410  0.0315
  981MOL0     C32326   4.598  10.769   1.493  0.4272  0.4538  0.3975
  981MOL0     C32327   4.685  10.875   1.510  0.6799 -0.4082  0.4449
  981MOL0     C32328   4.629  10.984   1.602  0.5042  0.7479  0.7362
  981MOL0     C32329   4.811  10.880   1.443 -0.8202 -0.7100 -0.0395
  981MOL0     C32330   4.904  10.986   1.472  1.2924  0.2876  1.4404
  981MOL0     O32331   4.897  11.056   1.593 -0.3482 -0.0316 -0.0599
  981MOL0     C32332   5.007  11.117   1.645 -0.7098  0.0128 -0.3725
  981MOL0     C32333   4.996  11.227   1.735  0.6879  0.0999 -0.1935
  981MOL0     C32334   5.105  11.270   1.808 -0.7346  0.3513  0.4296
  981MOL0     C32335   5.233  11.222   1.784  0.8215 -0.7246  1.0046
  981MOL0     O32336   5.339  11.275   1.857  0.1844 -0.0090  0.0357
  981MOL0     C32337   5.478  11.242   1.820 -0.0615 -0.3166  0.5521
  981MOL0     C32338   5.588  11.292   1.922  0.3099  0.5760 -0.1766
  981MOL0     C32339   5.726  11.247   1.885  0.6453 -1.4558 -0.3740
  981MOL0     C32340   5.824  11.265   2.001 -0.7130  0.9787  0.2765
  981MOL0     C32341   5.972  11.258   1.951  1.2534  0.1695 -0.0797
  981MOL0     C32342   6.062  11.217   2.060 -0.2328 -0.1268  0.4865
  981MOL0     C32343   6.051  11.066   2.084 -0.3274 -0.4074  0.2180
  981MOL0     C32344   6.142  11.028   2.205  0.0569 -0.3348 -0.5761
  981MOL0    Cl32345   6.070  11.104   2.361 -0.0950 -0.2720  0.7139
  981MOL0     C32346   5.239  11.111   1.697 -0.3063  0.4841  1.0728
  981MOL0     C32347   5.137  11.068   1.621  0.3770  0.6013 -0.0254
  981MOL0     O32348   4.986  11.002   1.382  0.3690  0.1440 -0.1822
  981MOL0     C32349   4.836  10.771   1.358 -0.0939 -0.4981 -0.0976
  981MOL0     C32350   4.748  10.662   1.343 -0.3469  0.1215 -0.4287
  981MOL0     N32351   4.711  10.382   0.882 -0.7004 -0.5849  0.0145
  981MOL0     N32352   4.740  10.280   0.810  0.1561  0.5074 -0.4561
  981MOL0     C32353   5.152   9.495   1.483  0.7087  0.1075  0.8317
  981MOL0     C32354   5.217   9.397   1.566 -0.9331 -0.0626  0.5117
  981MOL0     C32355   5.479   9.085   1.773  0.8413  0.4504  0.3018
  981MOL0     C32356   5.417   8.988   1.858  0.2734  0.6525 -0.5192
  981MOL0     C32357   5.491   8.917   1.952 -0.3597  0.8281 -0.0037
  981MOL0     C32358   5.631   8.932   1.973  0.5519 -0.8392  0.3336
  981MOL0     O32359   5.717   8.867   2.058 -0.0445  0.4388 -0.3662
  981MOL0     C32360   5.667   8.789   2.159  0.0900 -0.0704 -0.7389
  981MOL0     C32361   5.649   8.866   2.288 -0.4616  0.5105 -0.0599
  981MOL0     C32362   5.795   8.890   2.340 -0.2317 -0.8681  0.3961
  981MOL0     C32363   5.810   8.968   2.478  0.0447 -0.5567  0.4779
  981MOL0     C32364   5.794   9.109   2.464 -0.5715 -0.0135  0.5670
  981MOL0     C32365   5.779   9.230   2.459 -0.2553  0.8841  0.2072
  981MOL0     C32366   5.699   9.024   1.887 -0.1256 -0.0070 -0.2608
  981MOL0     C32367   5.622   9.096   1.786  0.1101  0.1426  0.6176
  981MOL0     H32368   5.531   9.516   1.539 -0.9828 -0.5022  3.9645
  981MOL0     H32369   5.419   9.678   1.390  0.8993 -2.1362 -1.4331
  981MOL0     H32370   5.030   9.583   1.205  1.2314 -2.1007  1.5100
  981MOL0     H32371   4.954   9.695   1.326  0.4622  2.6054 -0.3487
  981MOL0     H32372   5.059   9.885   1.202  0.1522  0.3085 -1.4544
  981MOL0     H32373   5.159   9.767   1.120  0.4442 -0.9709  2.4788
  981MOL0     H32374   4.968   9.890   0.996 -3.7593  0.8749  2.5645
  981MOL0     H32375   4.982   9.720   0.972 -0.2507  2.5132 -1.9944
  981MOL0     H32376   4.778   9.711   1.139 -3.7689  0.8340 -0.5280
  981MOL0     H32377   4.811   9.895   1.150  1.0866 -0.5026  0.1867
  981MOL0     H32378   4.696   9.720   0.926 -3.6795  1.3129 -1.4626
  981MOL0     H32379   4.609   9.812   1.020  1.1198  1.4056  1.5119
  981MOL0     H32380   4.756  10.024   0.933 -2.4019  0.3502  1.5373
  981MOL0     H32381   4.822   9.912   0.820 -0.3008  1.0125  0.3521
  981MOL0     H32382   4.608   9.879   0.706  2.7544  1.4914 -3.1953
  981MOL0     H32383   4.530   9.969   0.838 -0.3575 -2.3650 -1.4131
  981MOL0     H32384   4.546  10.095   0.630  0.0101 -1.5315  0.4074
  981MOL0     H32385   4.711  10.088   0.625 -0.4989 -2.2638 -1.8473
  981MOL0     H32386   4.425  10.236   0.858  0.5840 -1.8514 -1.5722
  981MOL0     H32387   4.533  10.589   0.936  1.6613 -0.2893  2.3066
  981MOL0     H32388   4.401  10.484   0.930 -0.9399 -0.1689  0.9229
  981MOL0     H32389   4.610  10.487   1.161  0.6785  2.3108 -1.3906
  981MOL0     H32390   4.465  10.395   1.164  1.7111 -0.4532  1.4445
  981MOL0     H32391   4.318  10.583   1.164  0.5418 -3.9862  1.8591
  981MOL0     H32392   4.459  10.695   1.166  0.4839 -0.1173 -3.3694
  981MOL0     H32393   4.361  10.504   1.390  0.6493  0.0400  1.0307
  981MOL0     H32394   4.369  10.680   1.396  0.6034 -1.5323  1.9324
  981MOL0     H32395   4.507  10.768   1.553 -0.6135  3.8460 -0.9103
  981MOL0     H32396   4.521  10.976   1.615  0.5765 -0.2951  0.7409
  981MOL0     H32397   4.678  10.987   1.700  3.6575 -0.3414 -0.6577
  981MOL0     H32398   4.639  11.082   1.555  0.2445  0.3321 -0.2099
  981MOL0     H32399   4.896  11.265   1.751 -0.8048 -2.4757 -2.4203
  981MOL0     H32400   5.091  11.356   1.873 -2.2612 -1.2455  2.3566
  981MOL0     H32401   5.505  11.137   1.808  0.9249  0.1527 -2.3548
  981MOL0     H32402   5.478  11.281   1.717 -5.9332 -1.2957 -0.1530
  981MOL0     H32403   5.576  11.400   1.924 -2.0398  0.3766 -0.7040
  981MOL0     H32404   5.561  11.262   2.024  0.9240 -0.1829 -0.2229
  981MOL0     H32405   5.775  11.311   1.811  0.2691  0.9712  1.3482
  981MOL0     H32406   5.728  11.142   1.855  1.6178 -1.6644  0.3361
  981MOL0     H32407   5.812  11.361   2.051  2.1439  1.8817 -0.5674
  981MOL0     H32408   5.789  11.187   2.070 -1.0179 -1.4990 -2.4540
  981MOL0     H32409   5.997  11.354   1.906  0.2292 -0.2811 -1.7013
  981MOL0     H32410   5.978  11.187   1.868 -1.0469  0.1272 -0.2869
  981MOL0     H32411   6.159  11.243   2.017 -0.2348 -0.2233  0.4248
  981MOL0     H32412   6.051  11.280   2.148  1.6405  0.6248  0.2279
  981MOL0     H32413   6.100  11.016   2.000  2.8233  3.0440 -0.2844
  981MOL0     H32414   5.952  11.020   2.090 -1.3475  1.2374 -2.1770
  981MOL0     H32415   6.243  11.070   2.207  0.2188 -0.6504 -1.7963
  981MOL0     H32416   6.145  10.919   2.219 -4.6118 -0.4127  1.8666
  981MOL0     H32417   5.333  11.059   1.678  1.1408  2.4178  2.5018
  981MOL0     H32418   5.160  10.993   1.545 -2.6589  0.0775 -0.5755
  981MOL0     H32419   4.937  10.763   1.317 -0.3529 -1.7797 -0.5476
  981MOL0     H32420   4.774  10.564   1.303  1.9681  0.7442 -0.5267
  981MOL0     H32421   5.046   9.485   1.502  0.8863 -2.5705  0.7588
  981MOL0     H32422   5.157   9.316   1.608  0.0118 -0.8235  0.4226
  981MOL0     H32423   5.310   8.971   1.855  0.2933  0.5597 -0.7696
  981MOL0     H32424   5.439   8.838   2.006  0.5355 -0.2088 -0.5987
  981MOL0     H32425   5.567   8.750   2.134 -0.4625  0.3649  0.6901
  981MOL0     H32426   5.733   8.706   2.183 -0.3855 -0.5670 -1.1132
  981MOL0     H32427   5.592   8.809   2.362 -0.1375 -3.1791 -2.4248
  981MOL0     H32428   5.593   8.955   2.254  0.4430  0.4611 -1.7878
  981MOL0     H32429   5.856   8.941   2.264  0.5334  1.4111  2.4244
  981MOL0     H32430   5.832   8.790   2.360 -2.5874 -2.6584 -3.0455
  981MOL0     H32431   5.908   8.945   2.520 -0.0337 -2.1202 -0.1111
  981MOL0     H32432   5.739   8.930   2.553  0.1009  0.6201  1.1551
  981MOL0     H32433   5.754   9.334   2.454 -1.8008  0.4739 -3.3904
  981MOL0     H32434   5.804   9.048   1.895  0.0685 -0.6240 -0.9198
  981MOL0     H32435   5.675   9.168   1.725  1.1209 -1.0630  0.0299
  982MOL0     O32436  10.388   8.773   9.282 -0.1473 -1.0012 -0.1451
  982MOL0     C32437  10.508   8.791   9.252  0.6520  0.8333  0.6209
  982MOL0     O32438  10.576   8.711   9.158 -0.0123 -0.8285 -0.4824
  982MOL0     C32439  10.522   8.604   9.091  0.9372 -0.0019 -0.5041
  982MOL0     C32440  10.487   8.491   9.171  1.5616 -0.1762  1.2222
  982MOL0     C32441  10.444   8.371   9.111  0.2763 -0.0139 -0.0679
  982MOL0     C32442  10.439   8.364   8.967  0.3209  0.0023 -0.5185
  982MOL0     O32443  10.403   8.260   8.896  0.4660 -0.3731  0.4083
  982MOL0     C32444  10.271   8.228   8.922  0.4328  0.8762 -0.2250
  982MOL0     C32445  10.228   8.144   8.801 -0.3423  0.3323 -0.7460
  982MOL0     C32446  10.270   8.003   8.817 -0.0234  0.3350  0.6145
  982MOL0     C32447  10.204   7.917   8.709  0.5701  0.8517 -0.3464
  982MOL0     C32448  10.226   7.774   8.741  0.8423 -0.6238  0.4573
  982MOL0     C32449  10.186   7.688   8.628 -0.1246  0.3443 -0.5704
  982MOL0     C32450  10.231   7.538   8.677 -0.5707 -0.7159  0.2683
  982MOL0     C32451  10.177   7.425   8.584  0.1717 -0.9638 -0.2518
  982MOL0     N32452  10.233   7.298   8.616 -0.4879  0.2368  0.1919
  982MOL0     C32453  10.157   7.190   8.662 -1.0087  0.0728  0.1296
  982MOL0     C32454  10.243   7.088   8.672 -0.3517 -0.3346  0.3515
  982MOL0     C32455  10.233   6.943   8.714  0.4741  0.1410  0.9986
  982MOL0     C32456  10.225   6.850   8.587 -0.0816 -0.2096 -0.3022
  982MOL0     C32457  10.079   6.823   8.556 -0.0392 -0.2478  0.0492
  982MOL0     C32458  10.056   6.761   8.415 -0.4661 -0.4007  0.8198
  982MOL0     O32459   9.946   6.671   8.431  0.2957 -0.9367 -0.3576
  982MOL0     C32460   9.966   6.537   8.455 -0.1636 -0.3486  0.5699
  982MOL0     C32461  10.091   6.481   8.497 -0.5362  0.8368 -0.6753
  982MOL0     C32462  10.107   6.346   8.521  0.6672  1.5610  0.4138
  982MOL0     C32463  10.248   6.298   8.565 -0.3225  0.3971  0.2677
  982MOL0     C32464   9.989   6.263   8.516  0.7456  0.6470 -0.0797
  982MOL0     C32465   9.998   6.113   8.550 -0.2865 -0.5886 -0.3265
  982MOL0     O32466   9.884   6.037   8.520 -0.1386  0.5852  0.3462
  982MOL0     C32467   9.885   5.903   8.550  0.2254 -0.3698 -0.9297
  982MOL0     C32468   9.837   5.812   8.456 -0.7957  0.5191  0.5334
  982MOL0     C32469   9.841   5.674   8.465  0.6199  0.4881 -0.9931
  982MOL0     C32470   9.871   5.621   8.593 -0.6445  1.1144  0.9800
  982MOL0     O32471   9.870   5.489   8.606  0.7404 -0.1406 -0.1277
  982MOL0     C32472   9.990   5.418   8.651  0.5589  0.1492  0.2939
  982MOL0     C32473   9.968   5.266   8.615  0.6788  0.3281  0.0338
  982MOL0     C32474  10.077   5.196   8.697 -0.9104  0.1776 -0.1268
  982MOL0     C32475  10.031   5.158   8.835 -0.1907  0.1907 -0.2884
  982MOL0     C32476  10.133   5.075   8.910 -0.3684 -0.0336 -1.6718
  982MOL0     C32477  10.199   4.954   8.849 -0.6991  0.3689 -0.8347
  982MOL0     C32478  10.279   4.875   8.954 -0.4349  0.1159  0.0096
  982MOL0     C32479  10.360   4.765   8.875 -0.2707 -0.3210 -0.2062
  982MOL0    Cl32480  10.513   4.834   8.810 -0.0033 -0.1531  0.0832
  982MOL0     C32481   9.916   5.706   8.693  0.2732 -0.6953  0.2973
  982MOL0     C32482   9.925   5.847   8.670  0.2670 -0.1131 -0.2407
  982MOL0     O32483  10.095   6.060   8.600 -0.1460  0.1967 -0.2044
  982MOL0     C32484   9.865   6.321   8.473 -0.5628 -0.6551 -0.0401
  982MOL0     C32485   9.859   6.457   8.434  0.8403  0.0778  0.6002
  982MOL0     N32486  10.373   7.137   8.634 -0.1875  0.1743 -0.3895
  982MOL0     N32487  10.361   7.263   8.603 -0.4301  0.5844  0.5351
  982MOL0     C32488  10.476   8.468   8.893 -0.4905  0.9769 -0.0928
  982MOL0     C32489  10.526   8.589   8.947 -0.5679 -0.9837 -0.3212
  982MOL0     C32490  10.573   8.910   9.298 -0.6931 -0.7421  0.0127
  982MOL0     C32491  10.536   8.971   9.419 -0.1690  0.0042  0.0168
  982MOL0     C32492  10.605   9.088   9.461 -0.2041  0.2145 -0.2863
  982MOL0     C32493  10.695   9.145   9.383  0.4294 -0.0499  0.5686
  982MOL0     O32494  10.778   9.253   9.408 -0.2577 -0.1762 -0.5110
  982MOL0     C32495  10.739   9.362   9.502  0.6281  0.3361 -0.0855
  982MOL0     C32496  10.752   9.498   9.448 -0.2618  0.5287  0.0506
  982MOL0     C32497  10.901   9.551   9.449  0.6364 -0.6790 -0.9660
  982MOL0     C32498  10.900   9.704   9.395  0.0234  0.2220 -0.2588
  982MOL0     C32499  11.026   9.768   9.435 -0.2752  0.2189 -0.5604
  982MOL0     C32500  11.134   9.819   9.467  0.2443  0.0653 -0.2411
  982MOL0     C32501  10.738   9.087   9.261  0.2680  0.8705  0.9776
  982MOL0     C32502  10.676   8.965   9.222 -1.0857 -0.8823 -0.2827
  982MOL0     H32503  10.487   8.490   9.280 -0.2434 -2.8276  1.2961
  982MOL0     H32504  10.400   8.286   9.162  1.9404  0.8681  3.1239
  982MOL0     H32505  10.267   8.166   9.012  0.0340  2.0563  0.6013
  982MOL0     H32506  10.203   8.313   8.931 -1.2835 -0.6064  1.7340
  982MOL0     H32507  10.120   8.129   8.811 -0.1071  0.0209  2.0651
  982MOL0     H32508  10.259   8.187   8.705  2.7711 -0.5734 -0.2707
  982MOL0     H32509  10.379   7.998   8.808  0.2491  2.5643  2.0074
  982MOL0     H32510  10.232   7.962   8.911 -1.0796  2.8803  1.3608
  982MOL0     H32511  10.097   7.939   8.710  0.6369  1.2548  1.6358
  982MOL0     H32512  10.247   7.937   8.610 -0.0315  3.4155 -0.1639
  982MOL0     H32513  10.331   7.751   8.760  0.4256 -3.9584 -0.6414
  982MOL0     H32514  10.181   7.753   8.838  0.3538  3.4484  1.2990
  982MOL0     H32515  10.077   7.690   8.617 -0.0452  0.1833 -1.5017
  982MOL0     H32516  10.231   7.719   8.533 -3.0272  0.1796 -2.1348
  982MOL0     H32517  10.340   7.539   8.671 -0.5212  2.3887 -5.1056
  982MOL0     H32518  10.200   7.514   8.779 -0.5544  0.1364  0.4814
  982MOL0     H32519  10.205   7.451   8.481  0.3662 -0.9814 -0.2044
  982MOL0     H32520  10.069   7.423   8.602  0.4325  0.1693  1.7483
  982MOL0     H32521  10.057   7.194   8.702 -1.5042  0.1229 -1.0738
  982MOL0     H32522  10.328   6.927   8.765  0.9090 -0.7405 -0.0524
  982MOL0     H32523  10.143   6.919   8.771 -1.6537  0.0433 -2.0952
  982MOL0     H32524  10.267   6.751   8.605  2.8457  0.5351 -2.3548
  982MOL0     H32525  10.269   6.896   8.498  1.4275  1.6185  1.2991
  982MOL0     H32526  10.019   6.914   8.561 -1.9300 -1.2778 -1.9871
  982MOL0     H32527  10.044   6.751   8.631  2.1582 -0.4276  0.9924
  982MOL0     H32528  10.141   6.704   8.374 -0.2763 -0.5522  1.4062
  982MOL0     H32529  10.032   6.843   8.347 -2.9995 -1.0504  0.8445
  982MOL0     H32530  10.177   6.544   8.514 -0.1776  0.3236 -0.5800
  982MOL0     H32531  10.292   6.251   8.476  1.0206 -2.8345  2.4254
  982MOL0     H32532  10.319   6.377   8.590  5.0442 -4.3602  2.4170
  982MOL0     H32533  10.246   6.227   8.649  1.4896 -2.0355 -1.5824
  982MOL0     H32534   9.795   5.852   8.364  1.3867  2.1197  0.1821
  982MOL0     H32535   9.796   5.611   8.390 -2.9123  3.1364 -1.3485
  982MOL0     H32536  10.083   5.456   8.606  0.2264  0.3442 -0.2337
  982MOL0     H32537   9.998   5.439   8.758  1.7878  3.1151 -0.2528
  982MOL0     H32538   9.872   5.232   8.655  0.4578  2.9453  1.9906
  982MOL0     H32539   9.986   5.253   8.508 -0.1417 -0.8747  0.0217
  982MOL0     H32540  10.165   5.260   8.713  0.1068 -0.9290 -1.0651
  982MOL0     H32541  10.114   5.109   8.641 -0.0098  0.1711  0.4464
  982MOL0     H32542   9.989   5.243   8.889 -0.5507  0.7864 -1.4850
  982MOL0     H32543   9.945   5.097   8.809  0.6076 -0.9279 -0.4074
  982MOL0     H32544  10.080   5.034   8.996  0.0054  0.0411 -1.4043
  982MOL0     H32545  10.210   5.145   8.945 -1.3072  0.0314  0.4139
  982MOL0     H32546  10.117   4.888   8.822 -1.9042  2.1006 -1.6259
  982MOL0     H32547  10.263   4.982   8.764 -0.9665 -4.0950 -2.7437
  982MOL0     H32548  10.204   4.829   9.019 -1.2803  1.1644 -0.2033
  982MOL0     H32549  10.347   4.938   9.011  1.0143 -1.7157  0.3920
  982MOL0     H32550  10.282   4.732   8.805 -1.5523  1.4326  0.3099
  982MOL0     H32551  10.392   4.685   8.942 -0.4901  1.3581  2.0129
  982MOL0     H32552   9.925   5.663   8.792  0.9433  2.1634  1.5975
  982MOL0     H32553   9.945   5.921   8.748 -0.8118 -0.5982  0.5241
  982MOL0     H32554   9.781   6.253   8.464 -2.8502  2.0495 -0.3561
  982MOL0     H32555   9.762   6.490   8.398  1.5881  1.4822 -0.2284
  982MOL0     H32556  10.462   8.462   8.786 -0.7576  3.3840 -0.2500
  982MOL0     H32557  10.551   8.677   8.889 -0.6659 -1.9639 -1.9176
  982MOL0     H32558  10.467   8.928   9.491  2.4001 -1.3769  1.8249
  982MOL0     H32559  10.589   9.121   9.563 -0.8692 -1.9400  0.3691
  982MOL0     H32560  10.633   9.354   9.529 -0.4064 -0.5045 -3.8389
  982MOL0     H32561  10.801   9.349   9.592  0.1986 -1.8968 -0.0434
  982MOL0     H32562  10.690   9.568   9.504 -1.4662  1.5633 -2.4330
  982MOL0     H32563  10.702   9.509   9.351  0.9533 -1.4979 -0.8816
  982MOL0     H32564  10.966   9.481   9.396 -2.1152 -3.2404 -1.2463
  982MOL0     H32565  10.929   9.547   9.555  1.0414 -0.1211 -1.0482
  982MOL0     H32566  10.820   9.757   9.448  0.2734  2.2914 -1.8272
  982MOL0     H32567  10.881   9.713   9.288  0.4946 -2.1033 -0.5758
  982MOL0     H32568  11.236   9.839   9.495 -0.0232  1.0642  0.0534
  982MOL0     H32569  10.824   9.136   9.218 -0.0810  1.5677  1.0685
  982MOL0     H32570  10.703   8.930   9.123  0.7928 -0.2631 -0.0444
  983MOL0     O32571   7.096   9.378   3.002 -0.2755 -0.5546  0.5673
  983MOL0     C32572   6.996   9.410   2.945 -0.1730  0.5537 -0.6283
  983MOL0     O32573   6.987   9.496   2.846 -0.9495 -0.2864 -0.2276
  983MOL0     C32574   7.103   9.511   2.771 -0.2867 -0.6272 -1.0333
  983MOL0     C32575   7.121   9.634   2.711 -0.4975  0.6413 -0.7665
  983MOL0     C32576   7.215   9.666   2.619  0.3287 -0.8307 -0.3599
  983MOL0     C32577   7.295   9.559   2.574 -0.8448 -0.5653 -0.7284
  983MOL0     O32578   7.408   9.565   2.487 -0.2356 -0.4779 -0.4565
  983MOL0     C32579   7.483   9.689   2.487  0.6920  0.0073  0.2258
  983MOL0     C32580   7.627   9.675   2.446  0.0278 -0.4611  0.2081
  983MOL0     C32581   7.717   9.609   2.558  0.2334  0.6372  0.1086
  983MOL0     C32582   7.729   9.680   2.700 -0.0645 -1.0033 -0.8371
  983MOL0     C32583   7.824   9.601   2.791 -0.4013  0.8771  0.4280
  983MOL0     C32584   7.972   9.604   2.748 -0.1879  0.5730 -0.1361
  983MOL0     C32585   8.037   9.747   2.773  0.2110 -0.2757 -0.5820
  983MOL0     C32586   8.185   9.762   2.720  0.5534 -0.9301 -0.7565
  983MOL0     N32587   8.276   9.678   2.798 -0.1760 -0.3953  0.1768
  983MOL0     C32588   8.280   9.539   2.786  0.2610 -0.9242 -0.6075
  983MOL0     C32589   8.372   9.505   2.878 -0.1292 -0.3741 -0.5137
  983MOL0     C32590   8.402   9.372   2.936 -0.0192  0.1727 -0.2283
  983MOL0     C32591   8.521   9.293   2.884  0.3407 -0.2294  1.2742
  983MOL0     C32592   8.556   9.173   2.966 -0.5914  0.0468  0.3285
  983MOL0     C32593   8.678   9.098   2.899  0.2833  0.2922 -0.2791
  983MOL0     O32594   8.722   8.997   2.997  0.6900 -0.4433 -0.2452
  983MOL0     C32595   8.691   8.864   2.994 -0.3775  0.5069 -0.2457
  983MOL0     C32596   8.750   8.783   3.091  0.3588  0.0974  0.8058
  983MOL0     C32597   8.737   8.643   3.087 -0.7518 -0.0341  0.8949
  983MOL0     C32598   8.823   8.563   3.186 -0.1689  0.0200 -0.2750
  983MOL0     C32599   8.648   8.584   3.001  0.1595  0.1934 -0.2755
  983MOL0     C32600   8.606   8.435   2.999 -0.9260 -0.4684  0.2712
  983MOL0     O32601   8.485   8.418   2.935  0.2705 -0.0807  0.3075
  983MOL0     C32602   8.393   8.319   2.959 -0.3712  0.6371 -0.6905
  983MOL0     C32603   8.384   8.265   3.096 -0.0126 -0.3390  0.1375
  983MOL0     C32604   8.274   8.175   3.119 -0.5115 -0.1952  0.3953
  983MOL0     C32605   8.186   8.130   3.022  0.0256 -0.4054  0.3842
  983MOL0     O32606   8.090   8.044   3.056 -0.8144  0.2192  0.4763
  983MOL0     C32607   7.984   8.018   2.966 -0.2538  0.4840  0.4446
  983MOL0     C32608   7.891   7.895   2.999 -0.2792 -0.1085  0.9921
  983MOL0     C32609   7.970   7.797   3.075  0.2749 -0.5915 -0.3819
  983MOL0     C32610   7.890   7.661   3.086 -0.0124 -0.6860 -0.0547
  983MOL0     C32611   7.930   7.583   3.215  0.0340 -0.8063 -0.5204
  983MOL0     C32612   7.906   7.436   3.182  0.2135  0.1265  0.1548
  983MOL0     C32613   7.983   7.387   3.058  0.0185 -0.5744 -0.0162
  983MOL0     C32614   8.042   7.239   3.080  1.0408 -0.6737  0.6967
  983MOL0    Cl32615   7.910   7.122   3.133 -0.0155 -0.2515 -0.1800
  983MOL0     C32616   8.204   8.184   2.893  0.5356  0.3806  0.8446
  983MOL0     C32617   8.315   8.267   2.862  0.8621 -0.2686  0.3435
  983MOL0     O32618   8.659   8.350   3.072  0.4062 -0.5280  0.0553
  983MOL0     C32619   8.580   8.669   2.907 -0.2147 -0.4818 -0.2308
  983MOL0     C32620   8.612   8.803   2.900  0.2720  0.1669 -0.1575
  983MOL0     N32621   8.423   9.612   2.944 -0.1512 -0.4219  0.5666
  983MOL0     N32622   8.374   9.716   2.883 -0.3327  0.0720 -0.0214
  983MOL0     C32623   7.265   9.430   2.611 -0.4559 -0.1075 -0.0715
  983MOL0     C32624   7.175   9.408   2.711  0.4996 -0.7870 -0.2508
  983MOL0     C32625   6.876   9.347   2.993  0.4430 -0.5085 -0.0950
  983MOL0     C32626   6.766   9.354   2.901 -0.5728  0.0294 -0.3741
  983MOL0     C32627   6.639   9.311   2.946  0.9191 -0.6929  0.5244
  983MOL0     C32628   6.624   9.239   3.064 -0.3423 -0.3039 -0.0664
  983MOL0     O32629   6.507   9.179   3.102 -0.1062  0.4755  0.5817
  983MOL0     C32630   6.408   9.141   2.997 -0.1461 -0.5897 -0.5720
  983MOL0     C32631   6.389   8.996   3.001 -0.1097  0.0896 -0.6142
  983MOL0     C32632   6.335   8.937   3.134  0.0690  0.7952 -0.2854
  983MOL0     C32633   6.187   8.983   3.172 -0.3528 -0.9633 -0.7062
  983MOL0     C32634   6.078   8.944   3.078  0.1003  1.0617  0.1306
  983MOL0     C32635   6.002   8.904   2.991 -1.1369 -0.7763  0.8120
  983MOL0     C32636   6.737   9.220   3.150 -0.2836  0.0815  0.3384
  983MOL0     C32637   6.858   9.280   3.117 -0.1121  0.0702  0.4546
  983MOL0     H32638   7.072   9.727   2.740  1.7258  1.8031 -0.5055
  983MOL0     H32639   7.224   9.765   2.577 -0.3536 -1.3038 -1.6586
  983MOL0     H32640   7.431   9.749   2.412 -1.2998 -1.1716  0.5785
  983MOL0     H32641   7.468   9.734   2.586 -0.2276 -2.7971  1.4732
  983MOL0     H32642   7.637   9.608   2.360 -2.4016  0.9344 -1.2492
  983MOL0     H32643   7.664   9.777   2.432 -0.9310  0.1077  1.5895
  983MOL0     H32644   7.678   9.508   2.574  1.1165  0.3925  0.8159
  983MOL0     H32645   7.813   9.596   2.508 -1.5823 -4.5590 -2.7511
  983MOL0     H32646   7.763   9.784   2.697 -0.5102 -0.8624 -1.4867
  983MOL0     H32647   7.630   9.686   2.747 -0.6039  1.0189 -2.0943
  983MOL0     H32648   7.826   9.628   2.897  1.0201  0.4802  0.5262
  983MOL0     H32649   7.791   9.498   2.774 -3.0465  2.0921 -2.8637
  983MOL0     H32650   8.018   9.525   2.807 -3.5253  0.2794  2.4131
  983MOL0     H32651   7.992   9.574   2.645 -1.7367  0.9453 -0.5694
  983MOL0     H32652   7.981   9.819   2.713  1.3859  0.6043 -0.6599
  983MOL0     H32653   8.033   9.768   2.880 -2.5431 -0.2481 -0.6321
  983MOL0     H32654   8.218   9.865   2.735 -0.1018 -0.6229 -1.3849
  983MOL0     H32655   8.181   9.726   2.617  2.0774 -2.6191 -0.2867
  983MOL0     H32656   8.216   9.471   2.731 -0.0061  0.7815 -2.5078
  983MOL0     H32657   8.412   9.384   3.044 -1.5816  0.9261 -0.1445
  983MOL0     H32658   8.313   9.309   2.928 -0.3133  0.2542  1.8826
  983MOL0     H32659   8.603   9.365   2.874 -1.3325  1.4225 -3.8553
  983MOL0     H32660   8.504   9.265   2.779  0.5699  2.0231  0.5757
  983MOL0     H32661   8.473   9.102   2.963  0.4980 -1.2508 -1.0389
  983MOL0     H32662   8.571   9.205   3.069  1.2563  1.8518 -0.4244
  983MOL0     H32663   8.758   9.170   2.877  0.2874  0.2369 -0.4441
  983MOL0     H32664   8.644   9.045   2.810 -1.5380 -0.1247  0.6227
  983MOL0     H32665   8.821   8.837   3.152 -0.2800  0.2867  1.3911
  983MOL0     H32666   8.751   8.504   3.243 -0.4651  2.4965  2.1325
  983MOL0     H32667   8.884   8.493   3.129  1.2451  1.5095 -0.6775
  983MOL0     H32668   8.887   8.623   3.251 -1.6739  0.4724  0.8526
  983MOL0     H32669   8.432   8.307   3.184 -0.4352 -0.1163  0.2677
  983MOL0     H32670   8.249   8.147   3.220  2.7333 -1.6352  0.9480
  983MOL0     H32671   7.923   8.108   2.955  1.7910  1.8529 -0.2955
  983MOL0     H32672   8.028   7.993   2.869  1.0049  0.1810  1.0792
  983MOL0     H32673   7.815   7.939   3.064 -0.1549  0.7170  0.5891
  983MOL0     H32674   7.838   7.854   2.913  0.4274 -0.9243  0.9428
  983MOL0     H32675   8.003   7.828   3.174  2.3179  1.0683 -1.4955
  983MOL0     H32676   8.064   7.763   3.029 -0.1182 -1.4643 -0.5543
  983MOL0     H32677   7.784   7.685   3.081  0.8283  3.8907 -0.2401
  983MOL0     H32678   7.910   7.602   2.996 -3.5284  0.8582 -2.0347
  983MOL0     H32679   7.881   7.614   3.308  0.2878 -1.7901 -0.0496
  983MOL0     H32680   8.034   7.595   3.244 -0.0940 -1.7573  0.4224
  983MOL0     H32681   7.937   7.372   3.266 -0.9573 -1.0677 -0.2863
  983MOL0     H32682   7.802   7.413   3.159 -0.7803  2.0560  2.2751
  983MOL0     H32683   8.071   7.453   3.055  0.2200 -0.8909 -1.9283
  983MOL0     H32684   7.923   7.397   2.967  1.9949  2.7033 -1.1639
  983MOL0     H32685   8.117   7.237   3.160  1.5406  1.0199  0.3199
  983MOL0     H32686   8.088   7.205   2.987 -0.2516  0.2685 -0.3369
  983MOL0     H32687   8.136   8.175   2.809  0.5162 -1.4578  1.0158
  983MOL0     H32688   8.319   8.300   2.759  1.7419  0.3989  0.5749
  983MOL0     H32689   8.505   8.628   2.840 -0.6232 -1.9447  1.0714
  983MOL0     H32690   8.553   8.867   2.834  1.7610  0.0561 -1.6629
  983MOL0     H32691   7.323   9.346   2.573 -2.1252 -1.9674  1.3058
  983MOL0     H32692   7.152   9.308   2.746 -3.3899 -0.0710 -0.2716
  983MOL0     H32693   6.766   9.415   2.811 -0.0948  2.1313  0.9712
  983MOL0     H32694   6.560   9.339   2.877 -0.5238  1.0144  2.7186
  983MOL0     H32695   6.321   9.208   3.002 -0.7473 -1.4079  0.1887
  983MOL0     H32696   6.458   9.164   2.902  1.8541  0.8197  0.7384
  983MOL0     H32697   6.492   8.962   2.986  0.0683  0.2894  0.1186
  983MOL0     H32698   6.340   8.956   2.912  1.6955 -2.5941 -0.5396
  983MOL0     H32699   6.405   8.965   3.213 -0.4577  3.2847 -0.6104
  983MOL0     H32700   6.336   8.828   3.130 -2.4561  0.6306  1.0740
  983MOL0     H32701   6.197   9.092   3.183 -1.4243 -1.0259  1.3570
  983MOL0     H32702   6.156   8.951   3.272  0.7188  1.8926  0.6463
  983MOL0     H32703   5.931   8.865   2.920  2.2778 -0.4964 -3.1023
  983MOL0     H32704   6.729   9.161   3.241 -1.4748 -1.0798 -0.4669
  983MOL0     H32705   6.945   9.265   3.179 -0.5672 -2.8349  0.5256
  984MOL0     O32706   2.871   2.096   3.852 -0.0250 -0.2649  0.3456
  984MOL0     C32707   2.931   2.089   3.963 -0.7830  0.5861  1.1951
  984MOL0     O32708   2.874   2.062   4.085 -0.4030 -0.9499 -0.1108
  984MOL0     C32709   2.739   2.027   4.089 -1.2440 -0.7143 -0.0251
  984MOL0     C32710   2.638   2.109   4.047 -0.1059 -0.0586 -0.3032
  984MOL0     C32711   2.500   2.083   4.070  1.1113 -0.5358  0.4937
  984MOL0     C32712   2.469   1.960   4.128  0.1226 -0.7290 -0.3787
  984MOL0     O32713   2.336   1.925   4.157 -0.1709 -0.2017  0.0321
  984MOL0     C32714   2.276   1.856   4.048  0.1461  0.3210 -0.1466
  984MOL0     C32715   2.138   1.824   4.091 -0.7661  0.3555 -0.0885
  984MOL0     C32716   2.066   1.730   3.984 -0.2398 -0.7644  0.2727
  984MOL0     C32717   2.131   1.587   3.971  0.1422 -0.3890  0.0956
  984MOL0     C32718   2.043   1.478   3.895 -0.2750  0.6081 -0.0077
  984MOL0     C32719   2.062   1.471   3.744 -0.6141 -0.1542  0.2688
  984MOL0     C32720   1.968   1.372   3.676 -1.3400 -0.0021 -0.1407
  984MOL0     C32721   1.974   1.388   3.521  0.0775  0.7966 -0.6146
  984MOL0     N32722   2.084   1.339   3.448 -0.5340  0.1650  0.3376
  984MOL0     C32723   2.069   1.282   3.316 -0.6706 -0.4540 -0.1693
  984MOL0     C32724   2.193   1.229   3.291  1.0615 -0.0375 -0.2347
  984MOL0     C32725   2.238   1.143   3.182  0.3235  0.7948 -0.0737
  984MOL0     C32726   2.281   1.229   3.064 -0.0358 -0.0633 -0.5832
  984MOL0     C32727   2.343   1.143   2.950 -0.5777 -0.8385 -0.0993
  984MOL0     C32728   2.247   1.053   2.889 -0.5471  0.3783 -0.3723
  984MOL0     O32729   2.147   1.118   2.819 -0.0623  1.0244 -0.3978
  984MOL0     C32730   2.157   1.154   2.690 -0.0782 -0.7585 -0.4205
  984MOL0     C32731   2.278   1.150   2.618 -0.4633  0.3718 -0.5200
  984MOL0     C32732   2.285   1.192   2.482  0.0656 -0.0733 -0.4557
  984MOL0     C32733   2.419   1.192   2.404 -0.0322  0.5259  0.7018
  984MOL0     C32734   2.163   1.230   2.420  0.9283 -0.0608  0.6265
  984MOL0     C32735   2.163   1.289   2.282 -0.7594 -0.4783 -0.3259
  984MOL0     O32736   2.123   1.418   2.273 -0.1631  0.3980  1.2887
  984MOL0     C32737   2.107   1.487   2.154 -0.1631 -0.1494  0.2028
  984MOL0     C32738   2.207   1.491   2.053  0.3777 -1.1494 -0.2390
  984MOL0     C32739   2.188   1.570   1.945 -0.1059  0.2403  0.0992
  984MOL0     C32740   2.076   1.651   1.934 -0.1152  1.0529 -0.3937
  984MOL0     O32741   2.052   1.735   1.826 -0.5323  0.0156  0.1669
  984MOL0     C32742   1.915   1.747   1.788  0.0278 -0.6208 -0.7246
  984MOL0     C32743   1.926   1.752   1.632  0.1142  0.9495 -0.6551
  984MOL0     C32744   1.993   1.884   1.608 -0.8884 -0.2475  0.0936
  984MOL0     C32745   1.965   1.940   1.466  0.0297  0.3646 -0.3515
  984MOL0     C32746   1.938   2.093   1.464 -0.0212  1.1699 -0.1907
  984MOL0     C32747   2.050   2.170   1.521 -0.2413  0.0218 -0.5800
  984MOL0     C32748   2.187   2.128   1.469 -0.0875  0.4535 -0.5638
  984MOL0     C32749   2.294   2.225   1.509  0.8746 -0.5607  0.6130
  984MOL0    Cl32750   2.263   2.381   1.414  0.5381  0.3656  0.5861
  984MOL0     C32751   1.986   1.655   2.042 -0.3515 -0.7141  0.4503
  984MOL0     C32752   2.003   1.576   2.158  0.4762  0.8650 -0.0044
  984MOL0     O32753   2.179   1.210   2.192  0.8649 -0.1450  0.5907
  984MOL0     C32754   2.043   1.239   2.489 -0.0395  0.2449  0.2931
  984MOL0     C32755   2.039   1.208   2.629  0.1398 -0.6202 -0.1605
  984MOL0     N32756   2.269   1.255   3.397  0.1359 -0.1691  0.5534
  984MOL0     N32757   2.213   1.337   3.481  0.3211  0.1140  0.0589
  984MOL0     C32758   2.575   1.881   4.168  0.2251 -0.5904  0.0306
  984MOL0     C32759   2.703   1.912   4.148 -0.3350 -0.4810  0.7957
  984MOL0     C32760   3.073   2.125   3.963 -0.7216 -0.0040 -0.8466
  984MOL0     C32761   3.166   2.078   3.871 -0.6829 -0.1910  0.0282
  984MOL0     C32762   3.303   2.107   3.898 -0.3708  0.7181  0.8753
  984MOL0     C32763   3.348   2.178   4.005 -0.7077 -0.4771 -0.0483
  984MOL0     O32764   3.483   2.213   3.994 -0.8738  0.6447 -0.2274
  984MOL0     C32765   3.545   2.241   4.116 -0.6620 -0.2819  0.5685
  984MOL0     C32766   3.703   2.217   4.115  0.3390 -0.1747 -0.2668
  984MOL0     C32767   3.749   2.070   4.103  0.8466 -0.7354 -0.4409
  984MOL0     C32768   3.895   2.051   4.132 -0.0054  0.3912 -1.1316
  984MOL0     C32769   3.925   1.909   4.100 -0.3495  0.4465 -0.0286
  984MOL0     C32770   3.957   1.795   4.071 -0.4285  0.5887  0.7249
  984MOL0     C32771   3.256   2.231   4.090 -0.5154  0.4102  0.6701
  984MOL0     C32772   3.119   2.201   4.076  1.5424 -0.2536 -0.0153
  984MOL0     H32773   2.671   2.194   3.989  1.5274 -1.3114 -1.3199
  984MOL0     H32774   2.431   2.156   4.030 -1.3545 -2.7376  0.4191
  984MOL0     H32775   2.273   1.913   3.954  2.1785 -0.1238 -0.5202
  984MOL0     H32776   2.330   1.762   4.029  0.0756 -0.1450  1.7973
  984MOL0     H32777   2.151   1.775   4.188 -0.2313  2.8573  1.2004
  984MOL0     H32778   2.089   1.922   4.101 -0.7092  0.5729 -1.6287
  984MOL0     H32779   1.960   1.721   4.009 -0.9696 -2.2112 -2.8598
  984MOL0     H32780   2.055   1.776   3.885 -0.9549 -2.2111 -0.3562
  984MOL0     H32781   2.226   1.583   3.918 -0.4284  1.4095 -1.1606
  984MOL0     H32782   2.151   1.557   4.074  0.0518  4.8957  1.9559
  984MOL0     H32783   2.064   1.383   3.947  0.7698 -0.6235 -2.5009
  984MOL0     H32784   1.941   1.512   3.916 -0.4334  0.8219 -1.0664
  984MOL0     H32785   2.047   1.574   3.711 -0.2561 -0.0547  0.4084
  984MOL0     H32786   2.167   1.443   3.730 -1.2049 -1.7101 -1.4619
  984MOL0     H32787   1.986   1.266   3.697 -0.3825 -0.0232 -0.9977
  984MOL0     H32788   1.866   1.389   3.711 -0.7953 -0.4729  1.8328
  984MOL0     H32789   1.974   1.497   3.520 -2.6201  0.8736 -1.5115
  984MOL0     H32790   1.881   1.362   3.469  0.4160  1.2003 -1.4472
  984MOL0     H32791   1.983   1.259   3.255  1.1918 -0.0969 -3.1496
  984MOL0     H32792   2.326   1.089   3.218 -0.1243 -0.6511 -1.0506
  984MOL0     H32793   2.163   1.071   3.146  0.6589 -0.3524  1.4200
  984MOL0     H32794   2.355   1.299   3.102  2.1636 -3.1367  1.2108
  984MOL0     H32795   2.192   1.279   3.024  1.7811  0.6974 -4.1906
  984MOL0     H32796   2.423   1.079   2.990  0.9702  0.6629 -0.6614
  984MOL0     H32797   2.381   1.210   2.873 -4.9599  1.1515 -0.8311
  984MOL0     H32798   2.202   0.982   2.959 -2.7233  2.0052 -0.0233
  984MOL0     H32799   2.299   0.994   2.812 -2.8982  0.1783 -1.9124
  984MOL0     H32800   2.368   1.109   2.662 -0.7798 -3.2687 -2.8240
  984MOL0     H32801   2.441   1.289   2.359  0.9207  1.7097  3.5069
  984MOL0     H32802   2.504   1.171   2.470 -0.4946 -0.9780  0.8769
  984MOL0     H32803   2.418   1.115   2.326  0.6291 -0.9283  2.0674
  984MOL0     H32804   2.294   1.428   2.069  1.0479 -1.0826 -3.1176
  984MOL0     H32805   2.256   1.581   1.861 -2.5392 -1.3145 -2.2304
  984MOL0     H32806   1.865   1.656   1.820  0.4604 -0.9930 -1.0865
  984MOL0     H32807   1.870   1.839   1.828  2.8257  0.8041 -0.6090
  984MOL0     H32808   1.971   1.668   1.578 -1.9171  0.9857 -2.5714
  984MOL0     H32809   1.823   1.751   1.595  0.4116 -0.3773 -1.5304
  984MOL0     H32810   2.101   1.873   1.622 -0.9145  0.6913  1.2956
  984MOL0     H32811   1.953   1.953   1.683 -0.4943 -2.0253  2.0396
  984MOL0     H32812   2.048   1.905   1.404  1.1398 -0.6180  1.5572
  984MOL0     H32813   1.874   1.896   1.424 -2.1806  1.8185  2.5794
  984MOL0     H32814   1.842   2.122   1.509 -0.7960  1.1927 -1.7701
  984MOL0     H32815   1.938   2.121   1.358  0.8950 -0.9323 -0.7969
  984MOL0     H32816   2.042   2.276   1.494  2.3346  0.7196  0.9774
  984MOL0     H32817   2.032   2.162   1.629 -0.0416  1.7441 -0.3893
  984MOL0     H32818   2.191   2.116   1.360  1.4509 -0.8475 -0.4112
  984MOL0     H32819   2.226   2.037   1.515  1.8416  0.8394 -1.3056
  984MOL0     H32820   2.384   2.170   1.482 -1.5340 -3.4371 -2.4008
  984MOL0     H32821   2.287   2.239   1.618 -0.3509 -2.0532  0.7585
  984MOL0     H32822   1.901   1.722   2.054  0.3957  0.2777  0.2994
  984MOL0     H32823   1.929   1.565   2.236 -0.7092 -1.9067 -1.3606
  984MOL0     H32824   1.948   1.267   2.443 -0.5161 -1.4201  0.2005
  984MOL0     H32825   1.943   1.223   2.678 -0.2547  2.2196 -1.6154
  984MOL0     H32826   2.557   1.784   4.212 -1.1491 -0.5321 -0.3458
  984MOL0     H32827   2.779   1.842   4.180 -0.3707 -1.1890 -0.6021
  984MOL0     H32828   3.140   2.030   3.778 -1.0325 -1.9157  0.9671
  984MOL0     H32829   3.365   2.061   3.822 -0.6292  0.2003  0.9726
  984MOL0     H32830   3.527   2.348   4.129 -1.4326  0.2108 -3.2988
  984MOL0     H32831   3.496   2.182   4.194 -0.7483 -2.4575 -1.0468
  984MOL0     H32832   3.737   2.246   4.216 -0.6170 -1.2923  0.3946
  984MOL0     H32833   3.760   2.289   4.055 -0.4056 -1.2570 -2.3415
  984MOL0     H32834   3.729   2.028   4.004  4.7745  0.3556 -1.8940
  984MOL0     H32835   3.680   2.011   4.164  1.6508 -2.5851 -1.2543
  984MOL0     H32836   3.923   2.070   4.236 -1.3126 -2.3216 -0.1910
  984MOL0     H32837   3.948   2.106   4.053  0.6808  1.5759  0.1070
  984MOL0     H32838   3.987   1.700   4.032  1.1889  0.5389  1.9514
  984MOL0     H32839   3.278   2.306   4.165  1.6712 -0.5999  1.1213
  984MOL0     H32840   3.054   2.240   4.154  1.7380 -0.1891  0.1168
  985MOL0     O32841   2.222   4.805   0.695 -0.2653 -0.2177 -0.2803
  985MOL0     C32842   2.240   4.891   0.611  0.0390  0.0759 -0.4739
  985MOL0     O32843   2.325   4.890   0.503  0.1005  0.1500  0.4519
  985MOL0     C32844   2.396   4.777   0.465  0.3065 -0.9042 -0.2514
  985MOL0     C32845   2.506   4.796   0.379 -0.6578  0.6007 -0.3797
  985MOL0     C32846   2.597   4.696   0.353  0.5529  0.4416  0.7427
  985MOL0     C32847   2.568   4.569   0.403  0.6063  0.0540  0.7722
  985MOL0     O32848   2.636   4.461   0.383 -0.2488  0.5198  0.6426
  985MOL0     C32849   2.752   4.470   0.299 -0.4579  0.1874 -0.8642
  985MOL0     C32850   2.848   4.354   0.333  0.4363 -0.6853  0.7307
  985MOL0     C32851   2.901   4.351   0.476  0.1513  0.7688  0.7512
  985MOL0     C32852   2.978   4.219   0.508 -0.0709 -1.1557  0.5104
  985MOL0     C32853   3.034   4.221   0.653  0.6773 -0.8234  1.2054
  985MOL0     C32854   3.102   4.084   0.681 -0.7834 -0.2510  0.6331
  985MOL0     C32855   3.011   3.961   0.715  0.5340  0.1208 -0.5588
  985MOL0     C32856   3.066   3.820   0.716 -0.3126  0.0208  0.0676
  985MOL0     N32857   3.050   3.755   0.846  0.6169 -0.4019  0.5620
  985MOL0     C32858   2.972   3.654   0.865  0.2881  0.0627  0.9736
  985MOL0     C32859   2.977   3.644   0.997 -0.3370 -0.5464  0.0411
  985MOL0     C32860   2.896   3.567   1.084  0.3717  0.6214 -0.2859
  985MOL0     C32861   2.952   3.437   1.137 -0.3604  0.1864  0.3659
  985MOL0     C32862   3.054   3.453   1.259 -0.3562 -0.4906  0.7634
  985MOL0     C32863   3.099   3.322   1.320  0.2044 -0.3842 -0.3541
  985MOL0     O32864   2.977   3.240   1.342 -0.8460 -0.6729 -1.1338
  985MOL0     C32865   3.004   3.108   1.375  0.3949  0.2187 -1.2867
  985MOL0     C32866   2.922   3.016   1.306 -0.2046 -0.3424 -0.3348
  985MOL0     C32867   2.929   2.878   1.335  0.7686  0.0159 -0.3661
  985MOL0     C32868   2.836   2.790   1.257 -0.4907 -1.0088  0.1144
  985MOL0     C32869   3.006   2.839   1.444 -0.7673  0.0787  0.2909
  985MOL0     C32870   3.010   2.695   1.507 -0.8535  0.4776  0.0728
  985MOL0     O32871   3.055   2.678   1.634  0.0044 -0.7725 -0.8527
  985MOL0     C32872   3.050   2.556   1.696  0.4178  0.1526  0.0959
  985MOL0     C32873   2.954   2.452   1.669  0.2262 -0.4671  0.5119
  985MOL0     C32874   2.972   2.320   1.727  0.7778 -0.0477  0.7065
  985MOL0     C32875   3.084   2.299   1.803 -0.6537 -0.1201  0.6975
  985MOL0     O32876   3.109   2.179   1.862 -0.3229 -0.0574 -0.8037
  985MOL0     C32877   3.127   2.183   2.002  0.2353  1.2184 -0.0502
  985MOL0     C32878   3.062   2.062   2.066  0.0430 -0.0325 -0.1654
  985MOL0     C32879   2.907   2.060   2.054 -0.1915 -0.0545  0.3093
  985MOL0     C32880   2.843   1.964   2.161  1.1649 -0.2214  0.2745
  985MOL0     C32881   2.727   1.902   2.089 -0.2179  0.0268  1.0169
  985MOL0     C32882   2.650   1.808   2.189  0.0936  0.7766 -0.6599
  985MOL0     C32883   2.705   1.671   2.187 -1.0296 -1.4588  0.5391
  985MOL0     C32884   2.624   1.581   2.272  0.1770  0.5223  0.4613
  985MOL0    Cl32885   2.442   1.557   2.230 -0.0577  0.3868 -0.1744
  985MOL0     C32886   3.177   2.399   1.830 -0.6501  0.2773 -0.2570
  985MOL0     C32887   3.164   2.530   1.777 -0.2632 -0.0698 -0.1940
  985MOL0     O32888   2.992   2.602   1.433  0.3328  0.1241  0.3318
  985MOL0     C32889   3.088   2.930   1.512  0.0964  0.1933 -0.3007
  985MOL0     C32890   3.088   3.068   1.479 -0.5117 -0.2763 -0.4189
  985MOL0     N32891   3.067   3.725   1.055  0.1994 -0.0843 -0.2021
  985MOL0     N32892   3.109   3.799   0.961  0.1796  0.2998  0.3567
  985MOL0     C32893   2.454   4.547   0.468  0.4715  0.1257  0.1006
  985MOL0     C32894   2.368   4.654   0.502 -0.4821  0.9153 -0.1033
  985MOL0     C32895   2.158   5.016   0.632 -0.0889 -1.2344 -0.2952
  985MOL0     C32896   2.174   5.129   0.550  0.1245 -0.2221  0.4904
  985MOL0     C32897   2.109   5.251   0.591 -0.5781  0.0772  0.7065
  985MOL0     C32898   2.024   5.265   0.694  0.5059  0.3789  0.6825
  985MOL0     O32899   1.948   5.375   0.717  0.0423 -0.4279  0.1528
  985MOL0     C32900   1.928   5.466   0.608  0.4163 -0.8259  0.5028
  985MOL0     C32901   1.843   5.588   0.655 -0.4514 -0.3977 -0.6522
  985MOL0     C32902   1.869   5.715   0.582 -0.9402  0.0672 -0.5833
  985MOL0     C32903   1.995   5.781   0.633  0.3754 -0.2551 -0.5433
  985MOL0     C32904   2.028   5.908   0.569  0.4369  0.3732  0.4538
  985MOL0     C32905   2.056   6.022   0.533 -0.5790 -0.4186  0.9767
  985MOL0     C32906   2.007   5.153   0.773 -0.2565  0.8958 -0.4998
  985MOL0     C32907   2.076   5.033   0.749 -0.1401  0.2541 -0.1634
  985MOL0     H32908   2.502   4.888   0.323 -0.7283  0.0138 -1.3538
  985MOL0     H32909   2.678   4.717   0.283 -1.0357 -2.6082 -2.3310
  985MOL0     H32910   2.710   4.455   0.199 -1.4892 -0.6105 -0.3377
  985MOL0     H32911   2.809   4.563   0.308 -0.3035 -0.0762  1.7159
  985MOL0     H32912   2.800   4.258   0.311  0.9427 -0.2210 -3.0873
  985MOL0     H32913   2.933   4.368   0.266 -1.0975  1.2587 -0.9295
  985MOL0     H32914   2.975   4.428   0.500  0.6103 -0.4526  3.8720
  985MOL0     H32915   2.816   4.356   0.545  0.3374 -1.5609  1.2667
  985MOL0     H32916   2.896   4.150   0.489 -1.9882  1.1474 -0.0838
  985MOL0     H32917   3.064   4.214   0.441  2.2248  3.0765  2.7223
  985MOL0     H32918   3.109   4.300   0.663  1.8198 -2.0277  2.6551
  985MOL0     H32919   2.952   4.244   0.722  0.4159 -0.3008  0.7292
  985MOL0     H32920   3.164   4.061   0.594  0.9155  0.9474  1.4545
  985MOL0     H32921   3.175   4.102   0.761  0.8344  1.2146 -1.0815
  985MOL0     H32922   2.984   3.981   0.819 -1.0309 -0.9926 -0.7071
  985MOL0     H32923   2.922   3.969   0.652  0.5569  1.8386 -0.4180
  985MOL0     H32924   3.174   3.815   0.700  0.7828  3.6283  4.4171
  985MOL0     H32925   3.015   3.756   0.643 -0.2862 -0.0939  0.1498
  985MOL0     H32926   2.901   3.613   0.794 -0.6238 -0.1181  1.9611
  985MOL0     H32927   2.885   3.629   1.174 -1.3854 -2.4894  1.8367
  985MOL0     H32928   2.795   3.540   1.050  0.3337 -0.6754  0.7604
  985MOL0     H32929   2.983   3.377   1.051 -1.2985  2.2597 -1.5295
  985MOL0     H32930   2.870   3.378   1.178 -0.3212 -1.4299 -1.7019
  985MOL0     H32931   3.023   3.523   1.337  0.2392  0.1304  0.4589
  985MOL0     H32932   3.143   3.503   1.219 -0.7446  0.8615  1.5250
  985MOL0     H32933   3.167   3.342   1.403  3.1987 -1.1307 -2.4528
  985MOL0     H32934   3.155   3.273   1.240  0.5513 -3.2254  1.4985
  985MOL0     H32935   2.875   3.053   1.215 -0.2690 -0.6603 -0.4301
  985MOL0     H32936   2.880   2.722   1.183  2.8400 -0.0839  1.0556
  985MOL0     H32937   2.767   2.726   1.313 -1.1008  0.8328  1.5366
  985MOL0     H32938   2.779   2.860   1.196 -1.9605 -1.1991  1.2246
  985MOL0     H32939   2.869   2.481   1.608  0.9097  3.0560  1.0129
  985MOL0     H32940   2.913   2.230   1.712  0.0151  0.9749 -4.0583
  985MOL0     H32941   3.231   2.184   2.034  0.2674 -3.1857  0.5247
  985MOL0     H32942   3.082   2.274   2.043 -1.5831 -0.6352  2.3316
  985MOL0     H32943   3.116   1.981   2.018  0.4297  0.5756 -0.7742
  985MOL0     H32944   3.085   2.072   2.173  0.2164  0.0592 -0.2107
  985MOL0     H32945   2.883   2.019   1.956  0.4380 -1.1209  0.5857
  985MOL0     H32946   2.863   2.159   2.072 -0.1256 -0.4686  3.3424
  985MOL0     H32947   2.913   1.884   2.188 -1.1640 -2.3234  0.3722
  985MOL0     H32948   2.814   2.025   2.247  1.7471  1.0707 -0.4094
  985MOL0     H32949   2.760   1.845   2.002 -4.4833 -0.7400 -0.3400
  985MOL0     H32950   2.658   1.980   2.056  3.0998  2.4024 -0.9036
  985MOL0     H32951   2.640   1.852   2.289 -3.7453  1.4709 -1.1947
  985MOL0     H32952   2.551   1.801   2.144 -0.5264 -2.8342  0.9120
  985MOL0     H32953   2.810   1.680   2.216 -0.6987 -1.8791 -0.5063
  985MOL0     H32954   2.700   1.634   2.085 -1.4536  0.6759 -0.2655
  985MOL0     H32955   2.638   1.611   2.376 -0.8214  4.2066 -0.2991
  985MOL0     H32956   2.674   1.484   2.278  0.4237  0.7008  1.4847
  985MOL0     H32957   3.261   2.387   1.898 -0.2808  0.9900 -0.5804
  985MOL0     H32958   3.233   2.610   1.799 -1.0780  1.0583 -1.5512
  985MOL0     H32959   3.164   2.896   1.582  0.5875 -1.8131 -1.7352
  985MOL0     H32960   3.159   3.135   1.527 -1.6186  1.9314 -1.6993
  985MOL0     H32961   2.431   4.442   0.482  0.9862  0.1345  1.0351
  985MOL0     H32962   2.272   4.632   0.548 -1.1047  2.6728 -0.4679
  985MOL0     H32963   2.235   5.113   0.462  0.9339 -2.0436  1.3166
  985MOL0     H32964   2.113   5.335   0.521 -0.7360 -0.6919 -0.2443
  985MOL0     H32965   2.020   5.515   0.573 -0.0360 -1.4706 -1.7633
  985MOL0     H32966   1.874   5.418   0.526 -0.1460  1.9602 -0.8801
  985MOL0     H32967   1.860   5.609   0.761 -2.9138  0.9574 -0.4543
  985MOL0     H32968   1.737   5.559   0.657 -0.3935 -0.5808  1.1278
  985MOL0     H32969   1.782   5.780   0.595 -0.5025  0.8939 -1.6488
  985MOL0     H32970   1.874   5.700   0.474 -0.6265 -0.7421 -0.4663
  985MOL0     H32971   2.067   5.700   0.617  0.0050 -0.9957  1.3036
  985MOL0     H32972   1.993   5.797   0.741  1.9602  2.6682 -0.8474
  985MOL0     H32973   2.094   6.121   0.520 -0.6118 -0.5267 -0.0284
  985MOL0     H32974   1.946   5.140   0.861 -1.5200 -6.5052 -1.8058
  985MOL0     H32975   2.059   4.947   0.813  1.2384  0.4717  0.5266
  986MOL0     O32976   7.149   8.126   7.268 -0.1439  0.2042  0.5052
  986MOL0     C32977   7.098   8.222   7.319  0.2035  0.1977 -0.8616
  986MOL0     O32978   6.963   8.246   7.329 -0.0214 -0.6219 -0.5787
  986MOL0     C32979   6.882   8.156   7.292  0.5635  0.4536  0.9030
  986MOL0     C32980   6.818   8.078   7.383  0.2527  1.1757 -0.1157
  986MOL0     C32981   6.702   8.009   7.342 -0.6293  0.4803 -0.3337
  986MOL0     C32982   6.655   8.010   7.207  0.9037  0.3310 -0.6623
  986MOL0     O32983   6.542   7.936   7.162 -0.4733  0.0424  0.4803
  986MOL0     C32984   6.569   7.876   7.033  0.3017  0.0972 -0.1249
  986MOL0     C32985   6.470   7.766   7.013  0.3545  0.0895 -0.6382
  986MOL0     C32986   6.442   7.700   6.879 -0.3560  0.0428  0.0317
  986MOL0     C32987   6.414   7.807   6.768 -0.2733 -0.0953 -0.3805
  986MOL0     C32988   6.340   7.759   6.648 -0.2049  0.1619 -0.0688
  986MOL0     C32989   6.413   7.650   6.571 -0.8132 -0.5891  1.3479
  986MOL0     C32990   6.328   7.609   6.443 -0.3914  0.0771  0.7043
  986MOL0     C32991   6.378   7.458   6.408 -0.2886  0.5331 -1.2195
  986MOL0     N32992   6.274   7.369   6.461 -0.3830  0.8012 -0.0986
  986MOL0     C32993   6.254   7.358   6.603  0.4956  0.3468  0.0206
  986MOL0     C32994   6.138   7.284   6.612 -0.2183 -0.5258 -0.9108
  986MOL0     C32995   6.067   7.239   6.738 -0.4092 -0.0652 -1.0867
  986MOL0     C32996   5.913   7.278   6.749 -0.3867 -0.7167  0.5151
  986MOL0     C32997   5.846   7.214   6.863 -0.0803  0.2546 -0.1049
  986MOL0     C32998   5.703   7.268   6.886 -0.1191  0.8566 -0.1257
  986MOL0     O32999   5.639   7.181   6.977  0.2929 -0.4504  0.8350
  986MOL0     C33000   5.654   7.195   7.114 -1.8034 -0.0605 -0.1635
  986MOL0     C33001   5.688   7.309   7.184 -0.3580 -0.0240  1.0287
  986MOL0     C33002   5.696   7.313   7.322 -0.3481 -0.3190  0.6603
  986MOL0     C33003   5.752   7.423   7.406  0.7097  0.4800  0.4311
  986MOL0     C33004   5.674   7.191   7.387 -0.7033  0.1805  0.0609
  986MOL0     C33005   5.682   7.171   7.536 -0.5268  0.0182 -0.3522
  986MOL0     O33006   5.769   7.086   7.585  0.3136  0.5359 -0.0739
  986MOL0     C33007   5.778   7.077   7.721 -0.0040  0.5563  0.4657
  986MOL0     C33008   5.698   6.986   7.792 -0.3564 -0.6141 -0.3602
  986MOL0     C33009   5.702   6.980   7.931  0.2272 -0.0439 -0.7660
  986MOL0     C33010   5.797   7.056   8.001 -0.2661 -0.8461 -0.6895
  986MOL0     O33011   5.803   7.020   8.133 -0.2300  0.1453 -0.3614
  986MOL0     C33012   5.920   7.063   8.207 -0.5675  0.1796  0.2161
  986MOL0     C33013   5.924   6.987   8.338  0.1346 -0.3225 -0.0167
  986MOL0     C33014   5.805   7.007   8.432  0.0359 -0.4122 -0.0339
  986MOL0     C33015   5.858   7.014   8.573 -0.4913 -0.9983  0.4540
  986MOL0     C33016   5.923   7.156   8.603  0.9077  0.4319 -0.8207
  986MOL0     C33017   5.993   7.151   8.738  0.1531  0.2000  0.1838
  986MOL0     C33018   6.049   7.287   8.781 -0.5113 -0.3420  0.1073
  986MOL0     C33019   6.123   7.268   8.917 -0.2411 -0.7696 -0.4302
  986MOL0    Cl33020   6.154   7.415   9.015 -0.1381 -0.2878 -0.3183
  986MOL0     C33021   5.883   7.146   7.930 -0.7660 -0.3789  0.4133
  986MOL0     C33022   5.860   7.164   7.793  0.2117 -0.4471 -0.5649
  986MOL0     O33023   5.602   7.233   7.607  0.1084 -0.3298  0.1899
  986MOL0     C33024   5.657   7.069   7.322  1.1836 -0.8996  0.1347
  986MOL0     C33025   5.642   7.074   7.185 -0.5495  0.6777  0.1479
  986MOL0     N33026   6.094   7.258   6.484  0.0582  0.1861 -0.3113
  986MOL0     N33027   6.168   7.315   6.396 -0.6545 -1.2451  0.8032
  986MOL0     C33028   6.715   8.105   7.118 -0.1874 -0.2880 -0.8895
  986MOL0     C33029   6.832   8.170   7.163  0.3790 -0.5191  0.3893
  986MOL0     C33030   7.189   8.303   7.409 -0.2770 -1.1135  0.8040
  986MOL0     C33031   7.127   8.397   7.495  0.4723  0.6781  0.5100
  986MOL0     C33032   7.213   8.470   7.583  0.0842  0.0736  0.6033
  986MOL0     C33033   7.348   8.453   7.587  0.8411  0.4340  0.1064
  986MOL0     O33034   7.418   8.535   7.669 -0.0524  0.0509  0.1900
  986MOL0     C33035   7.555   8.520   7.709 -0.3691  0.3189  0.3254
  986MOL0     C33036   7.553   8.596   7.852  0.7050 -0.3402 -0.1743
  986MOL0     C33037   7.696   8.619   7.902 -0.6758 -0.4234 -0.0478
  986MOL0     C33038   7.719   8.686   8.035  0.5404 -0.1705 -0.1665
  986MOL0     C33039   7.714   8.587   8.147 -0.1185  0.1129 -0.3789
  986MOL0     C33040   7.722   8.517   8.245 -0.3178 -0.6745  0.2974
  986MOL0     C33041   7.409   8.357   7.509 -0.5607  0.2779 -0.4905
  986MOL0     C33042   7.330   8.289   7.412  0.2129  0.0151 -0.3212
  986MOL0     H33043   6.824   8.063   7.490  2.1919 -0.2511 -0.3825
  986MOL0     H33044   6.655   7.940   7.411  0.6205  0.3755  0.4365
  986MOL0     H33045   6.540   7.949   6.957 -4.3006 -3.3487 -2.2359
  986MOL0     H33046   6.673   7.845   7.027 -0.1125 -1.3017 -0.6353
  986MOL0     H33047   6.506   7.673   7.059  2.6049  0.1244 -2.1591
  986MOL0     H33048   6.372   7.792   7.054  0.0278 -3.5069  1.2195
  986MOL0     H33049   6.527   7.643   6.842  1.5938  2.3930  0.6034
  986MOL0     H33050   6.362   7.625   6.876 -2.2480  1.9994 -0.8501
  986MOL0     H33051   6.369   7.887   6.827  3.1041 -0.8786  3.7978
  986MOL0     H33052   6.510   7.845   6.732 -2.0254  4.7711 -0.6729
  986MOL0     H33053   6.250   7.710   6.687  1.6530 -1.1855  2.8993
  986MOL0     H33054   6.324   7.845   6.582  1.0284  2.1241  2.0202
  986MOL0     H33055   6.504   7.697   6.534 -1.2574 -0.6530  0.1361
  986MOL0     H33056   6.435   7.566   6.639  0.7934 -2.0233 -0.8236
  986MOL0     H33057   6.221   7.611   6.468  0.0180  3.6230  2.8185
  986MOL0     H33058   6.350   7.661   6.350 -2.8779 -0.9916 -0.5774
  986MOL0     H33059   6.478   7.432   6.442 -0.6470  2.2583  1.4098
  986MOL0     H33060   6.363   7.456   6.299 -0.0128  2.5191 -1.3294
  986MOL0     H33061   6.324   7.385   6.682  0.8354  0.9058 -0.4603
  986MOL0     H33062   6.075   7.130   6.745 -2.2187 -0.1391  0.5462
  986MOL0     H33063   6.117   7.283   6.825 -1.8680 -1.3329  0.4613
  986MOL0     H33064   5.854   7.262   6.659 -0.7279 -0.0722  0.6197
  986MOL0     H33065   5.909   7.386   6.765  0.1166 -0.6074 -0.0797
  986MOL0     H33066   5.915   7.216   6.948  0.7166 -2.0179 -0.6102
  986MOL0     H33067   5.840   7.110   6.829 -1.0592  0.6877 -1.3452
  986MOL0     H33068   5.646   7.271   6.793  2.0934  5.0145 -1.5966
  986MOL0     H33069   5.702   7.376   6.907 -0.2085  1.1000 -1.3402
  986MOL0     H33070   5.699   7.397   7.122  0.1327 -1.0679 -0.4326
  986MOL0     H33071   5.857   7.399   7.424  0.1113 -0.0567  3.9028
  986MOL0     H33072   5.728   7.517   7.357 -1.1369 -0.5566 -0.7619
  986MOL0     H33073   5.712   7.428   7.508  0.8394 -0.1034  0.5127
  986MOL0     H33074   5.621   6.932   7.738 -1.6545 -2.2364  2.8661
  986MOL0     H33075   5.636   6.925   7.998 -0.4571  1.8748  0.2385
  986MOL0     H33076   6.008   7.043   8.144 -0.6090  1.6591 -0.3707
  986MOL0     H33077   5.931   7.172   8.218  0.2287  0.1132  0.1259
  986MOL0     H33078   5.931   6.878   8.327 -2.7565 -0.8568  2.3483
  986MOL0     H33079   6.023   7.018   8.373  0.4081 -2.4956  1.3167
  986MOL0     H33080   5.743   6.918   8.418 -0.3075 -0.0403 -0.8856
  986MOL0     H33081   5.747   7.095   8.404 -0.5302 -0.4311  1.0136
  986MOL0     H33082   5.773   6.998   8.639 -1.3008  2.5121  0.4763
  986MOL0     H33083   5.935   6.938   8.586 -0.8619 -1.4706 -0.0735
  986MOL0     H33084   5.852   7.238   8.595  3.0453  3.1471  3.8451
  986MOL0     H33085   6.000   7.181   8.529  0.2741  0.7946 -1.3591
  986MOL0     H33086   5.914   7.121   8.808 -2.2891  1.6031 -1.7854
  986MOL0     H33087   6.061   7.066   8.739 -3.0507 -2.5823 -0.3931
  986MOL0     H33088   5.974   7.367   8.785 -0.1650 -0.0597  2.0897
  986MOL0     H33089   6.131   7.318   8.715 -2.2294  1.6823 -1.1955
  986MOL0     H33090   6.218   7.214   8.907 -0.8054 -1.5343 -1.9266
  986MOL0     H33091   6.055   7.204   8.974  0.7116 -1.7337 -0.3376
  986MOL0     H33092   5.956   7.207   7.983  0.1360 -1.1398  0.0677
  986MOL0     H33093   5.916   7.236   7.733  1.0140 -0.1574  0.4958
  986MOL0     H33094   5.649   6.968   7.361  0.7492 -0.2884  1.7229
  986MOL0     H33095   5.626   6.977   7.139 -1.3425  0.8840 -0.0151
  986MOL0     H33096   6.670   8.125   7.021  2.3580  1.6075 -1.7692
  986MOL0     H33097   6.881   8.242   7.099  0.3869 -0.1334  0.8294
  986MOL0     H33098   7.019   8.410   7.488  0.3371 -1.2004 -1.7952
  986MOL0     H33099   7.178   8.548   7.649 -1.1367  0.1817 -0.1333
  986MOL0     H33100   7.580   8.416   7.734 -1.4225  0.3577  1.6284
  986MOL0     H33101   7.625   8.551   7.631  1.0084 -0.3881  1.2406
  986MOL0     H33102   7.491   8.532   7.915 -0.8597 -1.2273 -2.4834
  986MOL0     H33103   7.490   8.685   7.842  0.2438 -0.8862 -3.0358
  986MOL0     H33104   7.749   8.683   7.831  0.6200 -1.7166 -0.2848
  986MOL0     H33105   7.759   8.530   7.913  2.3296  1.4732 -0.8529
  986MOL0     H33106   7.649   8.769   8.047 -0.1256 -0.1768 -3.2040
  986MOL0     H33107   7.820   8.726   8.041  0.8103 -0.8270 -0.2816
  986MOL0     H33108   7.736   8.456   8.331  1.0747  1.6656  1.8101
  986MOL0     H33109   7.517   8.350   7.510 -0.6491 -4.8365  0.2023
  986MOL0     H33110   7.375   8.210   7.352 -1.1294 -3.0309  2.3757
  987MOL0     O33111   1.740   9.939   1.475  0.4873 -0.3028 -0.0719
  987MOL0     C33112   1.691   9.825   1.466  0.3710  0.2493  1.2469
  987MOL0     O33113   1.549   9.796   1.452  0.3166  0.4003  0.0753
  987MOL0     C33114   1.467   9.905   1.438  0.4007 -0.6099  0.1367
  987MOL0     C33115   1.468   9.984   1.322 -0.1191 -0.6305 -0.5665
  987MOL0     C33116   1.384  10.093   1.305  0.4631 -0.0583 -0.2136
  987MOL0     C33117   1.298  10.138   1.403  0.2196  0.1372  0.4503
  987MOL0     O33118   1.213  10.244   1.377 -0.1380  0.0781  0.1087
  987MOL0     C33119   1.248  10.369   1.311 -1.0954  0.3805  0.0215
  987MOL0     C33120   1.238  10.468   1.424  0.0585  0.2991 -0.7616
  987MOL0     C33121   1.301  10.597   1.371  0.4254 -0.4868 -0.3114
  987MOL0     C33122   1.327  10.704   1.484 -0.1000  0.0626  0.0156
  987MOL0     C33123   1.360  10.843   1.420  1.2932 -0.3887  0.0558
  987MOL0     C33124   1.234  10.904   1.348  0.9048  0.0335  0.5470
  987MOL0     C33125   1.242  11.043   1.287  0.8539 -0.2607 -0.3764
  987MOL0     C33126   1.229  11.165   1.386  0.6267 -0.4543 -0.3444
  987MOL0     N33127   1.351  11.185   1.471 -0.3598 -0.7532 -0.2845
  987MOL0     C33128   1.463  11.243   1.436 -0.0673 -0.7932 -0.2575
  987MOL0     C33129   1.546  11.237   1.546  0.1770 -0.3900  0.4069
  987MOL0     C33130   1.687  11.299   1.549  0.2132  1.0181  1.2824
  987MOL0     C33131   1.788  11.236   1.455 -0.4976  0.7065 -0.6553
  987MOL0     C33132   1.909  11.177   1.530 -0.4957 -0.1225 -0.1327
  987MOL0     C33133   1.961  11.269   1.647  0.4829  0.2826  0.9775
  987MOL0     O33134   2.102  11.244   1.662 -0.3703  0.0822  0.0965
  987MOL0     C33135   2.126  11.134   1.742  0.2273 -0.6199 -0.3539
  987MOL0     C33136   2.120  11.138   1.871  0.7916  0.2476 -0.8021
  987MOL0     C33137   2.142  11.030   1.968 -0.2280 -1.2271 -0.9494
  987MOL0     C33138   2.115  11.056   2.117 -0.3494  1.1403  0.2426
  987MOL0     C33139   2.179  10.906   1.914  0.1323  0.4158  0.1867
  987MOL0     C33140   2.218  10.787   1.994 -0.2207  1.6374 -0.9559
  987MOL0     O33141   2.211  10.665   1.930 -0.6306  0.6109 -1.3257
  987MOL0     C33142   2.212  10.545   2.003 -0.2125 -0.0700  1.3089
  987MOL0     C33143   2.303  10.510   2.095  0.0053  0.0753  0.5638
  987MOL0     C33144   2.291  10.394   2.170 -0.2127  0.2060  0.0754
  987MOL0     C33145   2.186  10.297   2.147 -0.2182 -0.0737 -0.0981
  987MOL0     O33146   2.187  10.186   2.224  0.3229 -0.0744  0.5436
  987MOL0     C33147   2.139  10.063   2.169 -0.2575  0.6413 -0.2134
  987MOL0     C33148   2.169   9.954   2.271 -0.5481 -0.1094  0.8516
  987MOL0     C33149   2.107   9.996   2.404  0.4550 -0.0760 -0.3641
  987MOL0     C33150   2.102   9.888   2.517 -0.0181  0.6471 -0.2004
  987MOL0     C33151   1.986   9.792   2.486  0.5598 -0.4355 -0.6668
  987MOL0     C33152   1.961   9.695   2.603  0.0268 -0.7613 -0.6922
  987MOL0     C33153   1.843   9.595   2.588  0.3035 -0.2586  0.1676
  987MOL0     C33154   1.864   9.508   2.456 -1.0885 -1.0077 -0.8484
  987MOL0    Cl33155   2.016   9.416   2.464  0.2350 -0.1324  0.2683
  987MOL0     C33156   2.091  10.332   2.054  0.1949 -0.5004 -0.1510
  987MOL0     C33157   2.104  10.451   1.973 -0.3329 -0.3268 -0.2189
  987MOL0     O33158   2.260  10.808   2.109 -0.1224 -0.2257  0.0915
  987MOL0     C33159   2.184  10.902   1.774  0.4263  0.3029  0.5785
  987MOL0     C33160   2.153  11.008   1.688  0.6636  0.6506 -0.3609
  987MOL0     N33161   1.475  11.176   1.643 -0.7011  0.4870 -0.4215
  987MOL0     N33162   1.354  11.161   1.607 -0.1710  1.1415  0.9375
  987MOL0     C33163   1.285  10.058   1.519 -0.7111  0.3070  0.2647
  987MOL0     C33164   1.370   9.944   1.535  0.5915  0.1147 -0.0438
  987MOL0     C33165   1.776   9.708   1.463 -0.2060 -0.1176  0.1377
  987MOL0     C33166   1.743   9.583   1.502 -1.0076  1.1399  0.7659
  987MOL0     C33167   1.834   9.479   1.492  1.2079  0.3517 -0.4196
  987MOL0     C33168   1.969   9.502   1.461 -0.0053 -0.3282 -1.2303
  987MOL0     O33169   2.073   9.402   1.468 -0.3324 -0.5346  0.3735
  987MOL0     C33170   2.045   9.266   1.437 -0.0866  0.4229  0.0893
  987MOL0     C33171   2.165   9.172   1.400  0.2759 -0.6875 -0.0084
  987MOL0     C33172   2.106   9.025   1.423 -0.4107  0.3361 -1.0914
  987MOL0     C33173   2.207   8.917   1.383 -0.0194  0.1177 -0.3604
  987MOL0     C33174   2.170   8.787   1.437 -0.8953  0.6384 -0.1435
  987MOL0     C33175   2.144   8.673   1.475  0.1999 -0.1220  0.1876
  987MOL0     C33176   2.010   9.631   1.433  1.0627  0.2264  0.9835
  987MOL0     C33177   1.911   9.736   1.426  0.4799 -0.7453 -0.1200
  987MOL0     H33178   1.539   9.951   1.247 -1.1621 -0.0951 -1.8196
  987MOL0     H33179   1.396  10.160   1.220 -0.4643 -0.0571 -0.3523
  987MOL0     H33180   1.343  10.374   1.256  0.6997 -1.9770  2.6462
  987MOL0     H33181   1.166  10.386   1.240 -0.7944 -2.4677 -1.1419
  987MOL0     H33182   1.134  10.492   1.446  0.4880  3.0610 -1.3946
  987MOL0     H33183   1.292  10.424   1.509  1.5766 -1.6762 -2.6336
  987MOL0     H33184   1.396  10.583   1.318  0.1711 -1.3757 -0.5598
  987MOL0     H33185   1.226  10.631   1.300  1.3783 -1.0398 -1.6402
  987MOL0     H33186   1.247  10.712   1.558  0.3854  0.5519  0.4982
  987MOL0     H33187   1.423  10.673   1.529 -0.3541 -1.4508 -0.4181
  987MOL0     H33188   1.372  10.925   1.492  1.1683 -0.8827  0.6487
  987MOL0     H33189   1.445  10.845   1.351  1.5991  3.1864  0.3589
  987MOL0     H33190   1.202  10.836   1.269 -0.4670  1.5712 -0.2985
  987MOL0     H33191   1.147  10.918   1.414 -0.5799 -2.3537 -0.7866
  987MOL0     H33192   1.326  11.060   1.220  0.1330  2.1361 -0.7719
  987MOL0     H33193   1.159  11.040   1.215  0.5973 -0.6179 -0.0753
  987MOL0     H33194   1.139  11.155   1.447  0.5002  1.5180 -0.1142
  987MOL0     H33195   1.217  11.259   1.330 -0.0516  0.9359  1.9857
  987MOL0     H33196   1.492  11.299   1.348 -1.5326  0.4365 -0.0038
  987MOL0     H33197   1.671  11.403   1.519  1.3555  0.4965 -1.5086
  987MOL0     H33198   1.720  11.295   1.653 -1.5107  0.7938  1.8379
  987MOL0     H33199   1.813  11.320   1.389 -0.3148  0.4757 -0.8815
  987MOL0     H33200   1.762  11.159   1.381  1.9961  1.0051 -1.9643
  987MOL0     H33201   1.988  11.184   1.454 -0.2701  3.2105  0.2410
  987MOL0     H33202   1.900  11.075   1.566  3.8714 -0.0083  1.9424
  987MOL0     H33203   1.900  11.252   1.736 -0.1072 -2.8162  0.1136
  987MOL0     H33204   1.952  11.375   1.623  1.6634 -0.0064 -0.9912
  987MOL0     H33205   2.094  11.230   1.923 -1.2301 -0.6753 -0.1129
  987MOL0     H33206   2.090  11.159   2.145  0.2935  1.4418 -0.2798
  987MOL0     H33207   2.038  10.989   2.156  2.0346 -0.5864  2.3253
  987MOL0     H33208   2.205  11.030   2.174 -0.7816  2.7472  1.7473
  987MOL0     H33209   2.387  10.578   2.106  2.1503 -2.6902  2.7738
  987MOL0     H33210   2.355  10.385   2.257 -0.5502  1.4436  0.4565
  987MOL0     H33211   2.030  10.074   2.166 -0.1265  2.6241  0.8641
  987MOL0     H33212   2.178  10.045   2.068  0.6086  2.0169 -0.1512
  987MOL0     H33213   2.123   9.864   2.228  0.6347  1.0369 -3.1985
  987MOL0     H33214   2.277   9.938   2.260 -1.2157 -4.1895 -2.6841
  987MOL0     H33215   2.002  10.024   2.406  0.7402  1.1392 -1.1360
  987MOL0     H33216   2.158  10.086   2.440  0.7166  1.3466 -3.8943
  987MOL0     H33217   2.199   9.837   2.516  1.1493  2.7488  0.0353
  987MOL0     H33218   2.085   9.933   2.615 -1.2280  0.0348 -0.1072
  987MOL0     H33219   1.998   9.741   2.390 -3.3714 -1.6143 -0.7387
  987MOL0     H33220   1.899   9.855   2.466  2.0325  0.8565 -3.4767
  987MOL0     H33221   2.048   9.631   2.623  0.9697  0.7226  0.1457
  987MOL0     H33222   1.951   9.753   2.696  1.9423 -2.1843  0.4951
  987MOL0     H33223   1.751   9.652   2.578  0.7340  0.1340 -2.2673
  987MOL0     H33224   1.835   9.532   2.677  2.8376 -1.9635 -0.6943
  987MOL0     H33225   1.862   9.562   2.362  2.2775  1.2814  0.2173
  987MOL0     H33226   1.777   9.443   2.471 -1.0887 -0.3391  3.4892
  987MOL0     H33227   2.009  10.262   2.045  2.4092 -3.4029  0.6377
  987MOL0     H33228   2.025  10.477   1.904 -1.6238 -1.8422  0.6119
  987MOL0     H33229   2.226  10.806   1.745  2.7229  0.0808  4.0422
  987MOL0     H33230   2.163  11.003   1.580  0.1364 -0.6566 -0.3562
  987MOL0     H33231   1.192  10.069   1.575 -0.6092 -1.9910  0.9818
  987MOL0     H33232   1.363   9.875   1.618 -0.5661  1.8044  1.3347
  987MOL0     H33233   1.641   9.561   1.534 -0.0954 -2.9615  1.2724
  987MOL0     H33234   1.805   9.380   1.527  0.3412  0.1808 -1.5373
  987MOL0     H33235   2.000   9.223   1.527 -2.5188 -0.9152 -1.6256
  987MOL0     H33236   1.975   9.264   1.353 -0.0777  0.1506  0.0901
  987MOL0     H33237   2.254   9.191   1.461  0.1350 -0.5110  0.1437
  987MOL0     H33238   2.194   9.179   1.295 -0.3491  3.7399 -0.0846
  987MOL0     H33239   2.014   9.006   1.368 -2.2371  2.6615  0.9286
  987MOL0     H33240   2.074   9.016   1.527 -2.2225  0.2169 -1.6225
  987MOL0     H33241   2.307   8.943   1.419  0.5172  0.9247 -2.3023
  987MOL0     H33242   2.216   8.910   1.275  1.0163  3.2875 -0.5866
  987MOL0     H33243   2.132   8.570   1.501  3.2524 -0.8517 -0.8043
  987MOL0     H33244   2.114   9.651   1.405  1.0845 -0.3055  0.6708
  987MOL0     H33245   1.927   9.833   1.381 -3.9281  0.1264 -0.2849
  988MOL0     O33246   0.363   0.669   5.248  0.0595 -0.0422  0.5972
  988MOL0     C33247   0.471   0.620   5.206 -0.0985  0.4888 -0.4393
  988MOL0     O33248   0.528   0.509   5.269  0.4593 -0.2665  0.4950
  988MOL0     C33249   0.488   0.459   5.390  0.7212 -0.1359 -0.4117
  988MOL0     C33250   0.353   0.428   5.414  0.4383  1.0036 -0.6022
  988MOL0     C33251   0.309   0.353   5.522  1.1504 -0.2553  0.4641
  988MOL0     C33252   0.397   0.335   5.629  0.4799  0.2984 -0.6882
  988MOL0     O33253   0.341   0.278   5.740  0.2878 -0.3856  0.2724
  988MOL0     C33254   0.425   0.227   5.841  0.1731 -0.6776 -1.0509
  988MOL0     C33255   0.350   0.122   5.926  0.3279  0.4386 -1.0338
  988MOL0     C33256   0.285   0.008   5.844  0.3919 -0.3450 -0.1439
  988MOL0     C33257   0.273  -0.122   5.923 -1.2009  0.4900  0.0983
  988MOL0     C33258   0.225  -0.241   5.833 -1.2861 -0.3265 -0.0823
  988MOL0     C33259   0.081  -0.222   5.787 -0.2578 -1.2625  0.1275
  988MOL0     C33260   0.038  -0.343   5.711  0.5476  0.1064 -0.2453
  988MOL0     C33261  -0.103  -0.339   5.669  0.5421  0.2662 -0.2676
  988MOL0     N33262  -0.188  -0.336   5.789 -0.4671 -0.4817  0.4203
  988MOL0     C33263  -0.293  -0.248   5.812  0.1096 -0.3520  0.2094
  988MOL0     C33264  -0.340  -0.303   5.925 -0.0263 -0.3203  0.1915
  988MOL0     C33265  -0.462  -0.265   6.012 -0.5245 -0.3737  0.3366
  988MOL0     C33266  -0.591  -0.245   5.929 -0.4830 -0.4577  1.1404
  988MOL0     C33267  -0.697  -0.348   5.949 -0.2911 -0.3990 -0.2292
  988MOL0     C33268  -0.815  -0.333   5.861  0.4956 -0.5715  0.7149
  988MOL0     O33269  -0.868  -0.207   5.901  0.1308  0.2390 -0.4969
  988MOL0     C33270  -1.001  -0.220   5.947 -0.7288  0.2614 -0.9415
  988MOL0     C33271  -1.094  -0.119   5.912 -0.3348 -0.3120  0.7821
  988MOL0     C33272  -1.227  -0.133   5.935 -0.1885 -0.9616  0.9797
  988MOL0     C33273  -1.320  -0.023   5.879  0.3601  0.8816  0.8741
  988MOL0     C33274  -1.268  -0.246   6.004 -0.1575 -0.9285  0.8051
  988MOL0     C33275  -1.412  -0.292   6.027 -0.6686 -0.2107  0.6199
  988MOL0     O33276  -1.438  -0.414   6.079  0.5347 -0.5255  0.4530
  988MOL0     C33277  -1.573  -0.437   6.097  0.0851  0.7517 -1.0870
  988MOL0     C33278  -1.653  -0.377   6.193 -0.2104 -0.1435  0.7565
  988MOL0     C33279  -1.797  -0.381   6.193 -0.9128 -0.2353 -0.4414
  988MOL0     C33280  -1.856  -0.449   6.091 -0.5004  0.3537  0.4876
  988MOL0     O33281  -1.991  -0.455   6.086  0.3790  0.3215  0.7426
  988MOL0     C33282  -2.056  -0.467   5.965 -0.0642 -0.2191 -0.1911
  988MOL0     C33283  -2.056  -0.331   5.903 -0.1080  0.3542  0.2078
  988MOL0     C33284  -2.119  -0.233   6.001  0.0017 -0.5509 -0.2321
  988MOL0     C33285  -2.178  -0.115   5.922 -0.5989  0.2390 -0.6738
  988MOL0     C33286  -2.219  -0.020   6.029 -0.3621 -0.1520 -0.4365
  988MOL0     C33287  -2.317   0.086   5.974 -0.1189  0.8343  0.4988
  988MOL0     C33288  -2.249   0.184   5.876 -0.5203 -0.1869 -0.0309
  988MOL0     C33289  -2.359   0.238   5.779 -0.3974 -0.0922 -0.5536
  988MOL0    Cl33290  -2.266   0.342   5.663  0.0579  0.2204 -0.0591
  988MOL0     C33291  -1.769  -0.516   5.998 -0.3591 -0.7073  0.5388
  988MOL0     C33292  -1.628  -0.507   5.997  0.5661  0.3335 -0.2529
  988MOL0     O33293  -1.496  -0.220   5.975 -0.2422  0.6206  0.8505
  988MOL0     C33294  -1.173  -0.330   6.068  0.2144  0.2665 -0.0611
  988MOL0     C33295  -1.043  -0.307   6.039 -0.4377  0.1308  0.0650
  988MOL0     N33296  -0.265  -0.405   5.966  0.1167  0.7017  0.5906
  988MOL0     N33297  -0.180  -0.435   5.882  0.2932  0.0650 -0.1129
  988MOL0     C33298   0.531   0.379   5.615 -0.7505  0.4495  0.1513
  988MOL0     C33299   0.578   0.429   5.492 -0.4078  0.2913  0.6655
  988MOL0     C33300   0.541   0.680   5.091  0.2239  0.4655 -0.2126
  988MOL0     C33301   0.502   0.805   5.047 -0.3793  0.1466  0.3095
  988MOL0     C33302   0.581   0.860   4.948  0.5192  0.3224  0.9174
  988MOL0     C33303   0.693   0.794   4.889  0.1437  0.5109  0.2473
  988MOL0     O33304   0.768   0.861   4.794  0.3742  0.0356 -0.6456
  988MOL0     C33305   0.711   0.858   4.658  0.1695 -1.3031 -0.0513
  988MOL0     C33306   0.707   0.719   4.593  1.1621 -0.1286 -0.7532
  988MOL0     C33307   0.625   0.737   4.452 -0.0188 -0.1535 -0.6591
  988MOL0     C33308   0.481   0.677   4.461 -0.5480 -0.7164  0.1412
  988MOL0     C33309   0.429   0.711   4.325 -0.0397 -0.1785 -0.3883
  988MOL0     C33310   0.401   0.746   4.214 -0.4490 -0.5020 -0.3787
  988MOL0     C33311   0.715   0.662   4.926 -0.8092  0.6107  1.1257
  988MOL0     C33312   0.649   0.611   5.037  0.5633 -0.5909 -0.4926
  988MOL0     H33313   0.296   0.431   5.322  1.1240 -3.5217 -1.3877
  988MOL0     H33314   0.213   0.302   5.518  0.3464  1.1172  1.2175
  988MOL0     H33315   0.521   0.186   5.807  1.6292  2.5209 -1.1970
  988MOL0     H33316   0.446   0.313   5.905  0.8545  1.4523 -3.9104
  988MOL0     H33317   0.422   0.077   5.996  0.1136  3.0289  0.9959
  988MOL0     H33318   0.282   0.161   6.001  1.4698  2.2705 -0.8949
  988MOL0     H33319   0.186   0.040   5.811 -0.1957 -1.5119  0.4053
  988MOL0     H33320   0.350  -0.010   5.758 -0.1463  1.9278 -1.0947
  988MOL0     H33321   0.366  -0.153   5.971 -1.0453 -0.5103 -0.8111
  988MOL0     H33322   0.201  -0.104   6.004 -1.9230  0.3387 -0.4914
  988MOL0     H33323   0.292  -0.250   5.748 -0.9333  0.5155  0.0890
  988MOL0     H33324   0.241  -0.332   5.892 -0.4011  0.7107  1.3659
  988MOL0     H33325   0.010  -0.210   5.870 -0.5802  0.8994 -0.4089
  988MOL0     H33326   0.078  -0.142   5.713  0.0319 -0.2047  1.2360
  988MOL0     H33327   0.098  -0.358   5.620  0.3886 -1.6308 -0.1032
  988MOL0     H33328   0.046  -0.434   5.771 -0.7639  2.0083  3.0914
  988MOL0     H33329  -0.137  -0.432   5.622  1.3263 -1.3210  2.0797
  988MOL0     H33330  -0.125  -0.255   5.603  2.4498 -0.8229 -2.4293
  988MOL0     H33331  -0.326  -0.171   5.744  3.2902  0.0859 -1.0032
  988MOL0     H33332  -0.483  -0.347   6.083 -3.1091  0.0154  0.1017
  988MOL0     H33333  -0.439  -0.181   6.078 -2.2708 -0.7960  1.5574
  988MOL0     H33334  -0.560  -0.266   5.826 -1.2209 -0.6185  0.9458
  988MOL0     H33335  -0.632  -0.144   5.927  0.1487 -0.1941  0.9858
  988MOL0     H33336  -0.725  -0.343   6.055 -0.9483 -0.3854 -0.3993
  988MOL0     H33337  -0.649  -0.443   5.922  2.2343  0.7572 -0.1472
  988MOL0     H33338  -0.886  -0.415   5.873 -0.5868  0.6942  4.2373
  988MOL0     H33339  -0.777  -0.329   5.758  3.7606 -1.5415  1.7651
  988MOL0     H33340  -1.064  -0.032   5.855  1.9088 -0.8233  1.0967
  988MOL0     H33341  -1.384  -0.044   5.793  3.9212 -1.6314 -1.4505
  988MOL0     H33342  -1.379   0.000   5.968 -0.1502 -2.6725  1.6297
  988MOL0     H33343  -1.272   0.067   5.840  4.9002 -1.5458  0.0766
  988MOL0     H33344  -1.593  -0.326   6.268 -0.9807  1.5051  0.3003
  988MOL0     H33345  -1.871  -0.348   6.265 -0.7162 -0.2059 -0.2524
  988MOL0     H33346  -2.013  -0.536   5.892 -0.8129 -0.1137 -0.7457
  988MOL0     H33347  -2.155  -0.503   5.996 -0.2372  2.7793  3.4730
  988MOL0     H33348  -1.957  -0.297   5.869 -1.3330  1.9725 -2.0056
  988MOL0     H33349  -2.105  -0.341   5.806  1.7221 -1.3019 -0.6153
  988MOL0     H33350  -2.036  -0.194   6.060  0.6780  0.0403 -1.5264
  988MOL0     H33351  -2.192  -0.279   6.067  0.2244  0.8779  1.0697
  988MOL0     H33352  -2.101  -0.063   5.866  0.5626  0.9416  1.4834
  988MOL0     H33353  -2.260  -0.159   5.864  0.8717 -1.3575 -1.6261
  988MOL0     H33354  -2.125   0.027   6.061 -1.8140  1.7780  1.3529
  988MOL0     H33355  -2.262  -0.074   6.113  0.2013 -0.7087 -0.4976
  988MOL0     H33356  -2.392   0.026   5.922  0.1791  0.3933  0.5703
  988MOL0     H33357  -2.361   0.140   6.058  1.3034 -1.9217  3.2434
  988MOL0     H33358  -2.166   0.136   5.823  1.1709  2.5554 -0.0343
  988MOL0     H33359  -2.210   0.263   5.941 -1.7151  0.2223  0.2186
  988MOL0     H33360  -2.432   0.302   5.829  0.0527 -1.1456  1.5809
  988MOL0     H33361  -2.411   0.155   5.730 -2.4435  1.4795 -1.1702
  988MOL0     H33362  -1.823  -0.567   5.919 -0.3179  1.2232 -0.8127
  988MOL0     H33363  -1.554  -0.546   5.928 -1.3463 -3.5684 -0.3977
  988MOL0     H33364  -1.204  -0.417   6.125  0.7991 -0.4767 -0.8460
  988MOL0     H33365  -0.975  -0.373   6.093  0.1275  1.9845  1.7421
  988MOL0     H33366   0.600   0.379   5.699 -1.2832 -1.7500  0.6419
  988MOL0     H33367   0.679   0.465   5.478 -0.7511  1.5500  1.2223
  988MOL0     H33368   0.421   0.869   5.082  0.0404  1.1092 -0.4271
  988MOL0     H33369   0.583   0.966   4.924  1.4525  0.2262  0.5235
  988MOL0     H33370   0.618   0.913   4.667  1.0310 -0.0823  2.3641
  988MOL0     H33371   0.776   0.920   4.597 -0.5264  3.0417  3.1682
  988MOL0     H33372   0.645   0.659   4.660  0.2433  0.3491 -1.1532
  988MOL0     H33373   0.801   0.667   4.570 -0.6579 -2.8890 -2.6235
  988MOL0     H33374   0.676   0.692   4.366  0.1261 -0.7093 -0.2906
  988MOL0     H33375   0.619   0.843   4.427  2.7578 -0.0503 -1.1897
  988MOL0     H33376   0.419   0.715   4.543 -1.3360  1.0177 -1.1948
  988MOL0     H33377   0.487   0.569   4.481 -2.6537 -0.6169  1.6640
  988MOL0     H33378   0.361   0.776   4.119 -2.1194 -2.5753 -0.3947
  988MOL0     H33379   0.800   0.607   4.890 -0.2090  2.7832 -0.9935
  988MOL0     H33380   0.681   0.513   5.072 -0.6457 -0.1264  2.1268
  989MOL0     O33381  10.114   5.622   2.081  0.3825  0.1636  0.3993
  989MOL0     C33382   9.994   5.606   2.046  0.3100 -0.3327 -0.2516
  989MOL0     O33383   9.957   5.595   1.912  0.3589  0.6294  0.6160
  989MOL0     C33384  10.057   5.622   1.818  0.0988 -0.4374  0.4596
  989MOL0     C33385  10.105   5.534   1.720 -0.0321  0.1888  0.4688
  989MOL0     C33386  10.207   5.577   1.629 -0.5938  1.0465 -0.3488
  989MOL0     C33387  10.256   5.707   1.639 -0.1020  0.1321  0.2195
  989MOL0     O33388  10.369   5.739   1.577  0.3267  0.7071  0.0173
  989MOL0     C33389  10.369   5.862   1.497 -0.1548  0.3963 -0.2735
  989MOL0     C33390  10.493   5.944   1.495  0.2170  0.1510 -0.7504
  989MOL0     C33391  10.527   6.008   1.359 -0.4293 -0.0449 -0.7019
  989MOL0     C33392  10.613   6.137   1.373  0.7593  0.1523 -0.6738
  989MOL0     C33393  10.520   6.256   1.399 -0.5335  0.3668  0.5252
  989MOL0     C33394  10.596   6.392   1.380 -0.3401 -0.2330  0.3429
  989MOL0     C33395  10.515   6.514   1.438 -0.8625 -0.3358  0.3264
  989MOL0     C33396  10.598   6.634   1.428 -1.1456 -0.6285  0.9317
  989MOL0     N33397  10.720   6.637   1.510  0.0532  0.3745  0.4469
  989MOL0     C33398  10.845   6.647   1.457  0.4925  0.2825  1.0393
  989MOL0     C33399  10.931   6.664   1.558  0.4666  0.4421  0.9272
  989MOL0     C33400  11.080   6.689   1.555  0.3834  0.3064 -0.2218
  989MOL0     C33401  11.139   6.566   1.499 -0.3491  0.3270  0.2432
  989MOL0     C33402  11.275   6.605   1.455  0.3064  0.7049 -0.3118
  989MOL0     C33403  11.355   6.692   1.549  0.2421 -0.3178 -0.2479
  989MOL0     O33404  11.384   6.617   1.675  0.1181  0.4630 -0.0056
  989MOL0     C33405  11.506   6.634   1.741 -0.1090  0.2999  0.1132
  989MOL0     C33406  11.595   6.738   1.714  0.7079  0.5640  0.6749
  989MOL0     C33407  11.727   6.724   1.754 -0.3621 -0.1055  0.0063
  989MOL0     C33408  11.839   6.812   1.696  0.6283 -0.5945  0.0088
  989MOL0     C33409  11.757   6.636   1.866 -0.7290  0.1349  0.0731
  989MOL0     C33410  11.884   6.620   1.923 -0.4094  0.2252  0.5584
  989MOL0     O33411  11.975   6.614   1.816  0.9609  0.2105 -0.3656
  989MOL0     C33412  12.107   6.596   1.847  1.0613  0.5033 -0.2553
  989MOL0     C33413  12.188   6.497   1.780 -0.4859 -0.4454  0.2711
  989MOL0     C33414  12.317   6.487   1.815  0.1174  0.6090  0.0899
  989MOL0     C33415  12.385   6.586   1.892  0.2987 -0.1438  0.4155
  989MOL0     O33416  12.514   6.550   1.916 -0.1757 -0.3165  0.0479
  989MOL0     C33417  12.550   6.478   2.038  0.0874 -0.1713  0.1886
  989MOL0     C33418  12.677   6.391   1.993  0.3606  0.4125  0.2782
  989MOL0     C33419  12.650   6.294   1.872  0.0275  0.1422  1.0447
  989MOL0     C33420  12.743   6.172   1.875  0.4859 -0.4727  0.2588
  989MOL0     C33421  12.689   6.076   1.758 -0.1578  0.9404  0.2334
  989MOL0     C33422  12.757   5.936   1.733 -0.4878  0.0643  0.4297
  989MOL0     C33423  12.910   5.951   1.709 -0.4298 -0.6049  0.4659
  989MOL0     C33424  12.985   5.822   1.744  0.4255  0.1868 -0.0935
  989MOL0    Cl33425  13.145   5.841   1.664  0.2160 -0.1868  0.0011
  989MOL0     C33426  12.306   6.680   1.960 -0.0726  0.4760  0.0804
  989MOL0     C33427  12.169   6.691   1.932 -0.4270  0.0127 -0.0373
  989MOL0     O33428  11.908   6.610   2.039 -0.2767  0.6359 -1.6439
  989MOL0     C33429  11.663   6.545   1.906 -0.5507 -0.2101 -0.8696
  989MOL0     C33430  11.538   6.546   1.842  0.6102  1.4219 -0.1394
  989MOL0     N33431  10.857   6.652   1.674 -0.9456  0.2330  0.1712
  989MOL0     N33432  10.732   6.628   1.647 -0.3777  0.4517 -0.7620
  989MOL0     C33433  10.202   5.790   1.737 -1.3937 -0.1308  0.1436
  989MOL0     C33434  10.104   5.755   1.824 -0.1921  0.2929  0.1692
  989MOL0     C33435   9.887   5.586   2.146  0.3032 -0.7973 -0.5879
  989MOL0     C33436   9.753   5.611   2.101 -0.1896  0.1927  0.1285
  989MOL0     C33437   9.647   5.597   2.187  1.1001 -0.1375 -0.3418
  989MOL0     C33438   9.677   5.577   2.327 -0.2427 -0.2443  0.5952
  989MOL0     O33439   9.580   5.588   2.425 -0.8388  0.1092  0.2021
  989MOL0     C33440   9.441   5.596   2.397 -0.0223 -0.3875  0.8402
  989MOL0     C33441   9.388   5.469   2.329  0.9969  0.1617 -0.6321
  989MOL0     C33442   9.236   5.443   2.336 -0.8756  0.1087  0.2299
  989MOL0     C33443   9.165   5.568   2.275  0.3278 -0.0621  0.7184
  989MOL0     C33444   9.019   5.548   2.245  0.0511 -0.8789 -0.2622
  989MOL0     C33445   8.899   5.536   2.220 -0.9533  0.9327 -0.7141
  989MOL0     C33446   9.806   5.557   2.373 -0.1104  0.2242 -0.7882
  989MOL0     C33447   9.909   5.562   2.280 -0.3639 -0.4052 -0.6806
  989MOL0     H33448  10.087   5.427   1.712 -0.9636  0.1937  2.0432
  989MOL0     H33449  10.248   5.504   1.559 -0.5216  0.8658 -0.1160
  989MOL0     H33450  10.345   5.827   1.396  0.2561  0.8687 -0.5377
  989MOL0     H33451  10.290   5.929   1.530 -1.0377 -0.0968 -1.3223
  989MOL0     H33452  10.491   6.022   1.572 -0.8102  0.7478 -1.3526
  989MOL0     H33453  10.572   5.873   1.518  1.2615  2.1707  2.6915
  989MOL0     H33454  10.588   5.934   1.307  0.7610 -0.1461  0.7807
  989MOL0     H33455  10.431   6.025   1.309  0.1042 -1.1643 -2.1824
  989MOL0     H33456  10.683   6.123   1.456  1.6734  0.5083 -1.3680
  989MOL0     H33457  10.663   6.162   1.278  0.4783  0.1999 -0.8087
  989MOL0     H33458  10.429   6.250   1.340  0.6339  3.1485 -1.8041
  989MOL0     H33459  10.472   6.251   1.497  0.1530  0.1162  0.8602
  989MOL0     H33460  10.691   6.383   1.435 -0.9103  0.0338  1.4009
  989MOL0     H33461  10.613   6.399   1.272  2.0988  0.6331  0.7123
  989MOL0     H33462  10.423   6.537   1.382 -2.1415 -2.5805  1.3833
  989MOL0     H33463  10.484   6.497   1.541  4.8241 -3.8301  1.8374
  989MOL0     H33464  10.548   6.729   1.449  0.0505  0.5232 -1.0417
  989MOL0     H33465  10.626   6.651   1.324 -0.5676 -3.5280  0.5460
  989MOL0     H33466  10.856   6.654   1.349  1.4737  1.0246  1.1729
  989MOL0     H33467  11.111   6.782   1.506 -0.8008  0.1468 -1.3527
  989MOL0     H33468  11.116   6.695   1.658  0.4851  2.6188 -0.3482
  989MOL0     H33469  11.082   6.523   1.417 -0.3125 -0.4095  0.5949
  989MOL0     H33470  11.129   6.488   1.575 -0.6810  1.5580  1.5201
  989MOL0     H33471  11.269   6.662   1.362  0.3973  1.4254  0.1175
  989MOL0     H33472  11.331   6.513   1.432  1.3378  1.1647  0.3122
  989MOL0     H33473  11.306   6.789   1.561 -2.4801 -1.3077 -2.4177
  989MOL0     H33474  11.451   6.719   1.504 -0.9178 -1.0837 -3.3578
  989MOL0     H33475  11.563   6.827   1.661  2.2592 -0.9043 -3.1599
  989MOL0     H33476  11.800   6.901   1.645  3.7894  0.8649 -0.1238
  989MOL0     H33477  11.903   6.853   1.775 -0.3742  1.8770 -0.3672
  989MOL0     H33478  11.904   6.760   1.625  4.1409 -1.5020  3.5266
  989MOL0     H33479  12.140   6.427   1.712 -0.0440 -0.5039  0.0216
  989MOL0     H33480  12.385   6.416   1.769  2.2025  0.7495  2.7367
  989MOL0     H33481  12.573   6.548   2.118  0.7528 -1.1180  0.8430
  989MOL0     H33482  12.471   6.412   2.074  1.2913 -2.4413 -1.0933
  989MOL0     H33483  12.755   6.462   1.966  0.5763  1.2548  2.8027
  989MOL0     H33484  12.710   6.347   2.088  4.0179  3.2248  0.5459
  989MOL0     H33485  12.670   6.348   1.779 -3.0200 -2.3287 -1.2509
  989MOL0     H33486  12.544   6.270   1.883  0.7802 -3.4913  1.5161
  989MOL0     H33487  12.846   6.201   1.853 -0.7681  3.3918 -1.5802
  989MOL0     H33488  12.729   6.120   1.970 -3.5762 -0.0716  0.0902
  989MOL0     H33489  12.689   6.126   1.661  0.8246  0.3993 -0.0688
  989MOL0     H33490  12.584   6.063   1.786  0.4248 -0.6636  1.9155
  989MOL0     H33491  12.741   5.870   1.818  3.3228 -0.8080  0.6587
  989MOL0     H33492  12.717   5.881   1.647  1.1301 -2.3337  1.1107
  989MOL0     H33493  12.948   6.033   1.770  0.7991  0.3781 -1.5292
  989MOL0     H33494  12.928   5.977   1.604  1.4536  2.4998  1.4192
  989MOL0     H33495  12.938   5.728   1.712  1.9861 -1.3925  1.9921
  989MOL0     H33496  12.980   5.830   1.853 -0.4287  0.7489 -0.1588
  989MOL0     H33497  12.352   6.746   2.033  0.8606  1.3720 -1.2570
  989MOL0     H33498  12.123   6.775   1.983  0.7594  1.3298 -1.0792
  989MOL0     H33499  11.694   6.475   1.983  1.9004  1.3759 -0.3152
  989MOL0     H33500  11.466   6.470   1.869  2.4136 -1.2521 -2.2763
  989MOL0     H33501  10.252   5.885   1.753  1.2313 -1.6617  1.7035
  989MOL0     H33502  10.074   5.825   1.901  0.0566 -1.8972  2.3976
  989MOL0     H33503   9.729   5.624   1.996  0.0732  1.1812  0.1823
  989MOL0     H33504   9.548   5.607   2.145  2.0799 -1.4021 -3.1726
  989MOL0     H33505   9.377   5.608   2.485 -1.2349 -0.7592  0.0316
  989MOL0     H33506   9.407   5.676   2.331 -2.0631 -0.7315  1.4116
  989MOL0     H33507   9.448   5.384   2.364 -0.3716 -0.6415 -0.1552
  989MOL0     H33508   9.414   5.468   2.222  2.8849 -1.0703 -0.2195
  989MOL0     H33509   9.213   5.433   2.442 -1.5523  2.0406  0.2996
  989MOL0     H33510   9.217   5.344   2.293 -0.4260 -1.2129  2.8845
  989MOL0     H33511   9.218   5.575   2.180  0.8390 -0.0907  0.9985
  989MOL0     H33512   9.177   5.656   2.339 -1.6510  1.0855 -0.3994
  989MOL0     H33513   8.793   5.528   2.206 -1.2263 -1.1820  1.6543
  989MOL0     H33514   9.825   5.541   2.479  2.7122  2.6969 -0.7914
  989MOL0     H33515  10.008   5.540   2.319 -0.7657  0.2030  0.7571
  990MOL0     O33516  10.237   4.466   0.465  0.0270  0.2543  0.3337
  990MOL0     C33517  10.185   4.355   0.441  0.7176 -0.3391 -0.7328
  990MOL0     O33518  10.222   4.237   0.505 -0.6200 -0.7472 -0.6543
  990MOL0     C33519  10.317   4.240   0.606  0.6421 -0.6096 -0.1331
  990MOL0     C33520  10.441   4.312   0.604  0.1592 -0.3799  0.9646
  990MOL0     C33521  10.540   4.299   0.689  0.0806  0.0118 -0.2600
  990MOL0     C33522  10.521   4.222   0.804  0.4359 -0.0716 -0.5609
  990MOL0     O33523  10.629   4.216   0.893  1.0567 -0.0387 -0.3422
  990MOL0     C33524  10.608   4.167   1.021  0.4232 -0.0226 -0.5955
  990MOL0     C33525  10.718   4.207   1.114 -0.4933  0.2936  0.9358
  990MOL0     C33526  10.738   4.365   1.122  0.0994 -0.5404 -0.2941
  990MOL0     C33527  10.854   4.414   1.205 -0.6190 -0.5922 -0.4046
  990MOL0     C33528  10.872   4.564   1.216  0.3340 -0.1158 -0.5613
  990MOL0     C33529  11.017   4.604   1.271 -0.7458  0.6443  1.0730
  990MOL0     C33530  11.038   4.752   1.257 -1.7681 -0.2903  0.7967
  990MOL0     C33531  11.183   4.784   1.296  0.5487 -0.5748  0.1069
  990MOL0     N33532  11.201   4.928   1.264 -0.7272 -1.0707  0.1534
  990MOL0     C33533  11.140   5.025   1.344  0.0573  0.3083 -0.2173
  990MOL0     C33534  11.196   5.140   1.296 -0.4639  0.3480  0.1122
  990MOL0     C33535  11.164   5.272   1.365 -0.4815 -0.1051 -0.4134
  990MOL0     C33536  11.203   5.284   1.516  0.5411  0.0382  0.1301
  990MOL0     C33537  11.325   5.384   1.530 -0.3513 -0.2276 -0.7190
  990MOL0     C33538  11.460   5.332   1.495 -0.0285  0.7317  0.6852
  990MOL0     O33539  11.492   5.218   1.578 -0.0690 -0.2169  0.3503
  990MOL0     C33540  11.589   5.135   1.529  0.0444  0.0364  0.7748
  990MOL0     C33541  11.557   5.021   1.445  0.3747 -0.7655 -0.3932
  990MOL0     C33542  11.652   4.928   1.414 -0.4080 -0.3564  0.5754
  990MOL0     C33543  11.624   4.815   1.318  0.8195  0.3229  0.3269
  990MOL0     C33544  11.791   4.943   1.454  0.5486  0.0656  0.6891
  990MOL0     C33545  11.910   4.863   1.413  0.5242  0.6332  0.8428
  990MOL0     O33546  11.998   4.815   1.508 -0.3607  0.0899  0.1131
  990MOL0     C33547  12.086   4.725   1.464 -0.0983 -0.2576 -0.5573
  990MOL0     C33548  12.059   4.602   1.401  1.0430 -0.4534  0.5769
  990MOL0     C33549  12.161   4.525   1.354 -0.6332 -0.0206 -0.3682
  990MOL0     C33550  12.296   4.570   1.373  0.8285  0.1685  0.1337
  990MOL0     O33551  12.403   4.505   1.322 -0.4421  0.0846  0.0955
  990MOL0     C33552  12.484   4.452   1.423  0.0807  0.4367 -0.5767
  990MOL0     C33553  12.588   4.354   1.365  0.0902 -0.0623  0.3118
  990MOL0     C33554  12.696   4.410   1.276 -0.3291 -0.8133 -0.2386
  990MOL0     C33555  12.778   4.518   1.357  0.7378 -0.0561  0.4401
  990MOL0     C33556  12.918   4.537   1.289  0.7931  0.4520 -0.0803
  990MOL0     C33557  12.986   4.668   1.318 -0.8782  0.1274 -0.5747
  990MOL0     C33558  12.928   4.792   1.258  0.3792 -0.6243  0.1698
  990MOL0     C33559  12.940   4.918   1.360  0.4550  0.2989 -0.7893
  990MOL0    Cl33560  12.856   5.061   1.307 -0.2031 -0.4128  0.0679
  990MOL0     C33561  12.322   4.684   1.450  0.0982  0.6141 -0.0357
  990MOL0     C33562  12.214   4.763   1.492 -0.0424 -0.1161 -0.7645
  990MOL0     O33563  11.916   4.843   1.288  0.0844 -0.9984 -1.0524
  990MOL0     C33564  11.815   5.049   1.542 -0.7723  0.0530  0.4998
  990MOL0     C33565  11.712   5.140   1.582 -0.3177 -0.1780 -0.2607
  990MOL0     N33566  11.294   5.116   1.199  0.5894 -0.3201 -0.5483
  990MOL0     N33567  11.294   4.988   1.183 -0.8057  0.2659  0.4694
  990MOL0     C33568  10.391   4.158   0.820 -0.7278 -0.3905  0.3358
  990MOL0     C33569  10.294   4.157   0.716  0.3846  0.6282 -1.0462
  990MOL0     C33570  10.073   4.348   0.342 -0.0562  1.2686 -0.1406
  990MOL0     C33571  10.029   4.461   0.265  0.4440 -0.9010 -0.1060
  990MOL0     C33572   9.929   4.447   0.167  0.3749 -0.0272 -0.5562
  990MOL0     C33573   9.864   4.331   0.161 -0.8745  0.6847  0.3142
  990MOL0     O33574   9.766   4.303   0.066  0.7486  0.7419  0.7233
  990MOL0     C33575   9.631   4.303   0.115 -0.0412 -0.2703  0.0707
  990MOL0     C33576   9.578   4.450   0.122  0.2083  1.4622  0.2644
  990MOL0     C33577   9.603   4.515  -0.015  0.7405  0.0623  0.2224
  990MOL0     C33578   9.506   4.634  -0.026 -0.7505  0.8234  0.3782
  990MOL0     C33579   9.512   4.730  -0.143 -0.7508 -0.1792  0.2369
  990MOL0     C33580   9.513   4.822  -0.234 -0.0200 -0.5422 -0.3758
  990MOL0     C33581   9.894   4.224   0.252 -0.0956 -0.7693 -0.6138
  990MOL0     C33582   9.996   4.234   0.334 -0.3888 -0.0168 -0.9202
  990MOL0     H33583  10.455   4.384   0.525  2.0006 -2.7299 -1.0047
  990MOL0     H33584  10.635   4.351   0.690  0.6150 -0.9404  1.4547
  990MOL0     H33585  10.520   4.211   1.070  1.7936  0.8883  1.2127
  990MOL0     H33586  10.592   4.060   1.008 -0.4796 -0.7322  4.1811
  990MOL0     H33587  10.690   4.161   1.209 -1.5201 -2.4385 -0.5746
  990MOL0     H33588  10.811   4.164   1.075 -1.5590 -0.8732 -0.4133
  990MOL0     H33589  10.741   4.405   1.021  1.3042  1.4823  0.4818
  990MOL0     H33590  10.646   4.384   1.179 -0.6710 -0.7020 -1.4506
  990MOL0     H33591  10.856   4.363   1.302  0.9030 -0.9582 -0.5993
  990MOL0     H33592  10.943   4.371   1.157  0.8137 -1.5575  2.8407
  990MOL0     H33593  10.867   4.604   1.114  1.2202  0.0994 -0.5281
  990MOL0     H33594  10.796   4.615   1.276  1.6386  0.9402  0.2244
  990MOL0     H33595  11.021   4.569   1.375  1.8294 -1.5566  0.3489
  990MOL0     H33596  11.096   4.565   1.206 -0.8622  0.1830  1.2042
  990MOL0     H33597  11.005   4.784   1.158  1.1792  0.6294 -0.0170
  990MOL0     H33598  10.971   4.807   1.323 -0.0816  3.3412 -0.2738
  990MOL0     H33599  11.241   4.718   1.231 -0.0866  0.6356 -1.7682
  990MOL0     H33600  11.206   4.768   1.402 -1.1922 -2.5800  0.2730
  990MOL0     H33601  11.065   5.015   1.422  1.1653 -1.7203  0.6733
  990MOL0     H33602  11.213   5.351   1.309  2.6837 -0.6718  1.3439
  990MOL0     H33603  11.056   5.290   1.358 -0.4666  0.0119 -0.3417
  990MOL0     H33604  11.222   5.192   1.572 -1.0628 -1.3654 -1.5165
  990MOL0     H33605  11.116   5.333   1.561 -0.2256 -1.0848 -0.0806
  990MOL0     H33606  11.335   5.419   1.633  2.2703 -0.0786 -0.9490
  990MOL0     H33607  11.317   5.469   1.462  0.0861 -0.2529 -0.8043
  990MOL0     H33608  11.537   5.410   1.500 -1.2238  2.0455 -0.5524
  990MOL0     H33609  11.462   5.302   1.390  1.2129  1.3119  0.5236
  990MOL0     H33610  11.453   5.009   1.416  0.8067 -0.5200 -2.1461
  990MOL0     H33611  11.617   4.848   1.214  0.6450 -0.6358  0.0232
  990MOL0     H33612  11.707   4.746   1.303  1.1957  1.0627 -1.1606
  990MOL0     H33613  11.532   4.759   1.341  0.7310  0.3540  0.0502
  990MOL0     H33614  11.956   4.571   1.386  0.4642  0.7095  1.8969
  990MOL0     H33615  12.144   4.435   1.297 -0.4492 -0.4796  0.2940
  990MOL0     H33616  12.536   4.535   1.473  2.5988 -0.1062 -2.1275
  990MOL0     H33617  12.416   4.402   1.492  0.9465  0.6897  0.4810
  990MOL0     H33618  12.632   4.296   1.446  2.0287 -1.7037 -1.7716
  990MOL0     H33619  12.523   4.278   1.320 -0.4290 -2.0235  4.0105
  990MOL0     H33620  12.650   4.463   1.192 -0.6303  0.8564  0.9380
  990MOL0     H33621  12.770   4.340   1.234 -1.0239  0.2162 -3.5304
  990MOL0     H33622  12.725   4.613   1.350  1.5787  0.3121 -1.7933
  990MOL0     H33623  12.799   4.478   1.456  0.5224 -1.7626 -0.1736
  990MOL0     H33624  12.899   4.527   1.182  0.4821 -1.5284  0.1282
  990MOL0     H33625  12.987   4.456   1.315  1.4168  1.0761  0.2585
  990MOL0     H33626  12.991   4.675   1.427  0.9171 -1.0698 -0.5341
  990MOL0     H33627  13.089   4.655   1.283 -0.3714 -1.9108  1.4946
  990MOL0     H33628  12.822   4.778   1.235  0.3887  2.0083 -1.8806
  990MOL0     H33629  12.974   4.810   1.161 -0.6174  2.3911  0.1555
  990MOL0     H33630  13.044   4.947   1.378 -0.0038  0.5582  1.7338
  990MOL0     H33631  12.890   4.880   1.449  0.8852  0.3007 -0.5431
  990MOL0     H33632  12.428   4.703   1.464  0.1905 -0.6677  1.2261
  990MOL0     H33633  12.230   4.858   1.541 -0.7337 -0.1652 -0.4244
  990MOL0     H33634  11.912   5.061   1.590 -0.7318 -0.8997  0.6966
  990MOL0     H33635  11.714   5.216   1.658 -1.3915 -1.1447  0.7753
  990MOL0     H33636  10.376   4.104   0.913 -2.5799  0.3221  0.5065
  990MOL0     H33637  10.201   4.101   0.725  0.2293  1.2021  2.6554
  990MOL0     H33638  10.086   4.554   0.267  0.4614 -0.9229  0.7814
  990MOL0     H33639   9.900   4.529   0.102 -0.9477  0.7773  0.9804
  990MOL0     H33640   9.578   4.237   0.046  3.5454 -0.0202 -3.3170
  990MOL0     H33641   9.624   4.256   0.213  3.9641  0.7109  0.9906
  990MOL0     H33642   9.638   4.499   0.198 -0.0012  0.6911  0.9379
  990MOL0     H33643   9.472   4.438   0.149  0.2827 -0.3191 -0.0619
  990MOL0     H33644   9.584   4.450  -0.102 -0.9983 -1.1364  1.4341
  990MOL0     H33645   9.705   4.551  -0.025  1.0892 -1.1004 -0.5966
  990MOL0     H33646   9.523   4.699   0.060  3.1583  2.0086 -1.0331
  990MOL0     H33647   9.405   4.593  -0.021 -1.3102  2.2263  1.1119
  990MOL0     H33648   9.513   4.909  -0.295  0.7053  0.5572  1.1197
  990MOL0     H33649   9.833   4.134   0.242 -1.6309  0.2757 -0.9595
  990MOL0     H33650  10.013   4.140   0.385 -0.5245 -1.4418 -3.3384
  991MOL0     O33651   7.301   4.618   5.569 -0.1358 -0.4933 -0.1888
  991MOL0     C33652   7.228   4.557   5.489  0.1607  0.1744 -0.6744
  991MOL0     O33653   7.282   4.479   5.385 -0.1407 -0.2676 -0.2215
  991MOL0     C33654   7.402   4.491   5.326 -0.2646  0.7685 -0.4450
  991MOL0     C33655   7.466   4.369   5.311  0.9405 -1.2056  0.4092
  991MOL0     C33656   7.598   4.365   5.265 -0.3790  0.6810  0.1223
  991MOL0     C33657   7.662   4.483   5.235  0.6809 -0.1585  0.7226
  991MOL0     O33658   7.779   4.467   5.161 -0.3035  0.1860 -0.2622
  991MOL0     C33659   7.884   4.552   5.211 -0.8234  0.3449 -0.6776
  991MOL0     C33660   8.009   4.475   5.200 -0.5888 -0.3899 -0.3890
  991MOL0     C33661   8.135   4.558   5.179 -0.1309  1.0886  0.1874
  991MOL0     C33662   8.258   4.480   5.145  0.0523 -0.5812  0.2174
  991MOL0     C33663   8.391   4.568   5.121  0.7061 -0.5022 -0.0706
  991MOL0     C33664   8.505   4.468   5.117 -0.2376  0.3884  0.3738
  991MOL0     C33665   8.639   4.540   5.104  0.3865 -0.5550 -0.2695
  991MOL0     C33666   8.757   4.441   5.124 -0.0720 -0.7910  0.8299
  991MOL0     N33667   8.774   4.402   5.264 -0.2866  0.1923 -0.4131
  991MOL0     C33668   8.765   4.491   5.375 -0.6126  0.8049 -0.1883
  991MOL0     C33669   8.803   4.410   5.476 -0.8172 -0.8812 -0.4828
  991MOL0     C33670   8.794   4.455   5.620 -0.5526  0.1825 -0.2095
  991MOL0     C33671   8.873   4.591   5.628  0.2701 -0.0863 -0.7427
  991MOL0     C33672   8.865   4.641   5.780  0.0027  0.7000  0.9216
  991MOL0     C33673   8.875   4.797   5.786  0.4521 -0.8204  0.7392
  991MOL0     O33674   8.990   4.836   5.719 -0.0600  0.0456 -0.2039
  991MOL0     C33675   9.026   4.960   5.752 -0.5974 -0.6232  0.5899
  991MOL0     C33676   9.160   4.982   5.786  0.1604  0.3889  0.7782
  991MOL0     C33677   9.201   5.104   5.815 -0.3545  0.0112 -0.6904
  991MOL0     C33678   9.353   5.121   5.848 -0.3155 -0.1668  0.0294
  991MOL0     C33679   9.121   5.216   5.796 -0.3837  0.6752  0.1440
  991MOL0     C33680   9.183   5.349   5.812  0.8509 -0.5717 -0.9956
  991MOL0     O33681   9.196   5.400   5.936  0.9759  0.6650 -0.5291
  991MOL0     C33682   9.211   5.530   5.953  0.2257 -0.0511  0.9542
  991MOL0     C33683   9.090   5.617   5.949 -0.1212  0.9231  0.2769
  991MOL0     C33684   9.113   5.758   5.947  0.0462  0.6920  0.0297
  991MOL0     C33685   9.237   5.813   5.980 -0.2165  0.4644  0.1623
  991MOL0     O33686   9.257   5.945   5.988 -0.2707 -0.0012  0.0860
  991MOL0     C33687   9.172   6.033   5.918  0.3613  0.0261  0.2806
  991MOL0     C33688   9.257   6.161   5.921  0.1141 -0.6057 -0.5496
  991MOL0     C33689   9.233   6.235   6.054  0.0474  0.0633 -0.6099
  991MOL0     C33690   9.094   6.299   6.073  0.1796 -0.1714 -0.4556
  991MOL0     C33691   9.034   6.303   6.215 -0.4302 -0.2279  0.0153
  991MOL0     C33692   8.892   6.341   6.224 -0.1063 -0.6267  0.3281
  991MOL0     C33693   8.853   6.486   6.196  0.1839 -1.6513 -0.8630
  991MOL0     C33694   8.713   6.504   6.133  0.6057  0.2134  0.8313
  991MOL0    Cl33695   8.706   6.678   6.084  0.2529 -0.0558  0.4467
  991MOL0     C33696   9.350   5.724   5.987 -0.8025  0.9415  0.1625
  991MOL0     C33697   9.335   5.582   5.976  0.1646  0.3606 -0.0422
  991MOL0     O33698   9.198   5.414   5.715  0.7963  0.2116  0.5531
  991MOL0     C33699   8.991   5.206   5.760  0.2747  0.5264 -0.7937
  991MOL0     C33700   8.939   5.072   5.745 -0.6455  0.6182  0.3178
  991MOL0     N33701   8.824   4.276   5.428 -0.1361 -0.1915 -0.1271
  991MOL0     N33702   8.815   4.279   5.300 -0.2638 -0.4337  0.6563
  991MOL0     C33703   7.601   4.610   5.255  0.4772 -0.2864 -0.4371
  991MOL0     C33704   7.463   4.615   5.299 -0.5264  0.2843 -0.0323
  991MOL0     C33705   7.076   4.559   5.506  0.8013  0.0163  0.1318
  991MOL0     C33706   6.990   4.522   5.402  0.3857  0.4129  0.8110
  991MOL0     C33707   6.853   4.531   5.418  0.7715 -0.1253  0.2147
  991MOL0     C33708   6.801   4.576   5.538 -0.5456  0.6710  0.1202
  991MOL0     O33709   6.669   4.593   5.557  0.4350  0.0584  0.5337
  991MOL0     C33710   6.578   4.560   5.453  0.4224  0.1930  0.2705
  991MOL0     C33711   6.431   4.580   5.503 -1.3166  0.0067  0.8385
  991MOL0     C33712   6.319   4.523   5.414  0.4820  0.5655  0.6597
  991MOL0     C33713   6.186   4.526   5.489 -0.3859  0.3110 -0.0780
  991MOL0     C33714   6.086   4.472   5.383  0.6693  0.2692  0.2805
  991MOL0     C33715   5.997   4.425   5.305  0.7887  0.1189  0.3302
  991MOL0     C33716   6.881   4.621   5.638 -0.1696  0.1499 -0.3354
  991MOL0     C33717   7.019   4.614   5.626  0.1410  0.2883 -0.3371
  991MOL0     H33718   7.408   4.278   5.324 -1.5647  0.6453  3.4160
  991MOL0     H33719   7.660   4.279   5.239 -1.3174  0.1699 -0.4415
  991MOL0     H33720   7.885   4.652   5.166 -0.4936  0.8895  0.5016
  991MOL0     H33721   7.882   4.570   5.319  1.0754 -0.3512 -0.4874
  991MOL0     H33722   8.021   4.416   5.291  3.1323  1.3727  0.4407
  991MOL0     H33723   8.009   4.408   5.113  2.7417  2.3997 -2.8101
  991MOL0     H33724   8.116   4.630   5.099 -0.7401 -1.1858 -1.8591
  991MOL0     H33725   8.151   4.613   5.272 -1.2480 -0.4701  1.3709
  991MOL0     H33726   8.279   4.398   5.214 -2.7214 -0.8684  0.8541
  991MOL0     H33727   8.241   4.433   5.047  1.3554 -0.2612 -0.1878
  991MOL0     H33728   8.371   4.630   5.033 -3.3862  3.0464  2.8873
  991MOL0     H33729   8.397   4.640   5.203  0.4073 -0.7947  0.2087
  991MOL0     H33730   8.504   4.400   5.203 -0.9237 -0.3529 -0.2040
  991MOL0     H33731   8.502   4.397   5.033  1.6159 -1.3890  1.6986
  991MOL0     H33732   8.640   4.587   5.005 -0.8133 -0.2671 -0.1612
  991MOL0     H33733   8.643   4.622   5.177 -3.6160 -1.2126  0.9241
  991MOL0     H33734   8.844   4.496   5.086 -0.1541 -1.1830  0.0674
  991MOL0     H33735   8.736   4.351   5.066  1.4897  0.5459 -2.0300
  991MOL0     H33736   8.735   4.596   5.382 -2.7339  0.4378 -2.3961
  991MOL0     H33737   8.690   4.475   5.646 -0.4850 -0.1572  0.3330
  991MOL0     H33738   8.838   4.373   5.677 -2.4604 -1.2699 -0.7188
  991MOL0     H33739   8.802   4.655   5.576  1.0536  0.0572 -1.6471
  991MOL0     H33740   8.976   4.577   5.595  1.2889  1.2016  1.6571
  991MOL0     H33741   8.953   4.599   5.830 -0.1134  0.1528  0.6726
  991MOL0     H33742   8.770   4.613   5.826 -0.8297  0.2096 -0.9836
  991MOL0     H33743   8.865   4.829   5.890 -2.0265  0.9524  0.0494
  991MOL0     H33744   8.783   4.827   5.736  1.3587  2.1181  0.6296
  991MOL0     H33745   9.231   4.900   5.777  0.0053  0.4486 -1.7235
  991MOL0     H33746   9.386   5.223   5.871  2.3890  0.2493 -4.4512
  991MOL0     H33747   9.372   5.065   5.940 -2.1034  0.9093  1.1345
  991MOL0     H33748   9.412   5.072   5.770 -1.2532 -1.8223  0.3250
  991MOL0     H33749   8.993   5.576   5.928 -0.2050  1.0609  0.3861
  991MOL0     H33750   9.022   5.817   5.946 -1.1502 -1.0909 -0.6908
  991MOL0     H33751   9.164   5.999   5.814 -0.3589  0.5283  0.1631
  991MOL0     H33752   9.072   6.037   5.961  0.9077 -0.3927  1.6510
  991MOL0     H33753   9.362   6.133   5.905  0.2705 -0.8603  0.7786
  991MOL0     H33754   9.240   6.235   5.843 -1.5760  1.3001  1.5117
  991MOL0     H33755   9.317   6.306   6.055  0.5840 -0.5246  1.4151
  991MOL0     H33756   9.253   6.165   6.136  1.8426 -2.0011 -2.6633
  991MOL0     H33757   9.101   6.402   6.036 -0.7221  0.5208  1.1793
  991MOL0     H33758   9.024   6.248   6.007  0.2242  1.2128 -1.6282
  991MOL0     H33759   9.104   6.356   6.280  2.7692  0.7338 -3.8021
  991MOL0     H33760   9.040   6.197   6.242  2.1723  0.0905  0.9927
  991MOL0     H33761   8.840   6.271   6.158 -0.3547  0.8764 -1.1174
  991MOL0     H33762   8.850   6.320   6.323  0.8682 -1.3515  0.5989
  991MOL0     H33763   8.928   6.532   6.131 -0.6645 -0.3539 -0.9707
  991MOL0     H33764   8.850   6.534   6.294 -2.5086 -3.3810  0.0285
  991MOL0     H33765   8.635   6.485   6.207 -0.3242  2.6680  0.5693
  991MOL0     H33766   8.696   6.437   6.048 -1.0009 -1.4221  2.3573
  991MOL0     H33767   9.453   5.752   6.006 -0.9462  2.7641 -1.4474
  991MOL0     H33768   9.418   5.513   5.979 -0.3323 -0.2120  1.3905
  991MOL0     H33769   8.928   5.292   5.741  1.4127  1.7732  0.8063
  991MOL0     H33770   8.838   5.075   5.707 -0.6756  3.0360  0.4437
  991MOL0     H33771   7.652   4.705   5.241  1.7530 -0.9820 -0.6965
  991MOL0     H33772   7.409   4.709   5.305 -0.2475  0.6214 -2.1294
  991MOL0     H33773   7.029   4.473   5.315 -1.5357 -1.9988  1.1945
  991MOL0     H33774   6.797   4.501   5.330 -2.2513 -0.2494  2.0507
  991MOL0     H33775   6.602   4.619   5.364  1.7016  0.3941  0.7278
  991MOL0     H33776   6.594   4.457   5.419 -0.8280  0.7690 -2.3222
  991MOL0     H33777   6.400   4.681   5.530 -2.8819  0.0755 -1.0177
  991MOL0     H33778   6.426   4.536   5.603  0.0289  3.9352  2.8520
  991MOL0     H33779   6.341   4.417   5.397  1.9599  0.9089  0.2938
  991MOL0     H33780   6.315   4.580   5.320  1.5691  0.3081  0.4447
  991MOL0     H33781   6.169   4.632   5.509 -0.5289 -0.1345  2.6114
  991MOL0     H33782   6.193   4.469   5.582 -4.6714 -0.2609  0.1038
  991MOL0     H33783   5.929   4.398   5.227 -0.7106  0.0457  1.6013
  991MOL0     H33784   6.834   4.655   5.730 -1.0157 -2.7192  0.3997
  991MOL0     H33785   7.078   4.638   5.714 -0.8567 -0.0478  0.4395
  992MOL0     O33786   8.836   5.821   5.079 -0.0458 -0.5565  0.5857
  992MOL0     C33787   8.870   5.934   5.110  0.0471 -0.8541 -0.2296
  992MOL0     O33788   8.799   6.023   5.190  0.1640  0.2406 -0.0949
  992MOL0     C33789   8.690   5.971   5.252 -0.1599 -0.0273  0.1224
  992MOL0     C33790   8.567   6.030   5.241 -0.1107 -0.7691 -0.4806
  992MOL0     C33791   8.450   5.993   5.298  0.4454 -0.8163 -0.3663
  992MOL0     C33792   8.455   5.881   5.381  0.0569 -0.9172  0.1244
  992MOL0     O33793   8.338   5.847   5.438  0.0987  0.0752  0.9511
  992MOL0     C33794   8.332   5.744   5.540 -1.7028 -0.2635 -0.3717
  992MOL0     C33795   8.184   5.738   5.592 -0.4556  0.1776 -0.6851
  992MOL0     C33796   8.105   5.674   5.482  0.4186  0.2612 -0.2281
  992MOL0     C33797   7.962   5.658   5.528  0.4197 -0.4264  0.0663
  992MOL0     C33798   7.873   5.571   5.436 -0.4130 -0.9851 -0.0523
  992MOL0     C33799   7.905   5.413   5.443  0.9941 -0.3279  0.6349
  992MOL0     C33800   7.871   5.350   5.302  0.6038 -0.2352  0.3115
  992MOL0     C33801   7.914   5.202   5.293  0.0524  1.3603  0.4708
  992MOL0     N33802   7.893   5.131   5.159 -0.4370 -0.1965  0.3762
  992MOL0     C33803   7.980   5.028   5.115 -0.2566 -0.4408 -0.4290
  992MOL0     C33804   7.957   5.033   4.979  0.4168 -0.6221  0.8529
  992MOL0     C33805   8.014   4.939   4.884 -0.7259 -0.9136  0.3772
  992MOL0     C33806   8.159   4.970   4.862 -0.3501  0.1516 -0.1555
  992MOL0     C33807   8.211   4.910   4.730  0.3632 -0.9345 -0.1337
  992MOL0     C33808   8.348   4.965   4.705 -0.1606 -0.4985 -0.5786
  992MOL0     O33809   8.440   4.896   4.795  0.2590 -0.3459  0.1694
  992MOL0     C33810   8.574   4.918   4.776  0.3169 -0.3560 -0.3735
  992MOL0     C33811   8.664   4.878   4.876  0.4143 -0.1005 -0.2191
  992MOL0     C33812   8.797   4.881   4.878 -0.6420  0.5763  0.1474
  992MOL0     C33813   8.875   4.837   4.996  1.0137 -0.1194 -0.0015
  992MOL0     C33814   8.860   4.918   4.763 -0.3641 -1.2651 -0.0425
  992MOL0     C33815   9.005   4.921   4.754  0.0159 -1.7506 -0.0290
  992MOL0     O33816   9.070   5.040   4.738  0.1283 -0.0336 -0.0790
  992MOL0     C33817   9.203   5.027   4.746 -0.0583 -0.4937 -0.0598
  992MOL0     C33818   9.280   5.023   4.627 -0.8433  0.4655 -0.8097
  992MOL0     C33819   9.420   5.045   4.635 -0.4016  0.0949 -0.2011
  992MOL0     C33820   9.484   5.070   4.752  0.1485 -0.9928 -0.6492
  992MOL0     O33821   9.620   5.100   4.736  0.4565 -0.6503 -0.2695
  992MOL0     C33822   9.693   5.118   4.857 -0.0337  1.2621  0.1536
  992MOL0     C33823   9.840   5.141   4.837  0.9955 -0.7736  0.3087
  992MOL0     C33824   9.897   5.008   4.780 -0.3598  0.1061  0.3896
  992MOL0     C33825   9.867   4.996   4.626 -0.8994 -0.1955 -0.4558
  992MOL0     C33826   9.959   4.872   4.578  0.7064 -0.8234  0.6374
  992MOL0     C33827   9.980   4.898   4.427 -0.0577 -0.1946 -0.3015
  992MOL0     C33828  10.043   4.775   4.355 -0.5917  0.0611  0.2809
  992MOL0     C33829  10.089   4.791   4.214  0.3846  0.2690 -0.5142
  992MOL0    Cl33830  10.238   4.885   4.188 -0.1535 -0.0429  0.1909
  992MOL0     C33831   9.406   5.082   4.863  0.2893  0.0449 -0.2119
  992MOL0     C33832   9.267   5.039   4.871  0.1366 -0.8972  0.9708
  992MOL0     O33833   9.058   4.812   4.755 -0.4841 -0.1968  0.2034
  992MOL0     C33834   8.778   4.961   4.654 -0.0975 -0.4973  0.0403
  992MOL0     C33835   8.639   4.966   4.659 -0.9441 -0.7302  0.3436
  992MOL0     N33836   7.877   5.138   4.941  0.6961  0.5719 -0.1407
  992MOL0     N33837   7.834   5.190   5.050  0.5675 -0.6497  0.7869
  992MOL0     C33838   8.580   5.811   5.393 -0.3109  0.0724  0.6013
  992MOL0     C33839   8.699   5.860   5.342  0.4232  0.3030  0.4492
  992MOL0     C33840   9.007   5.974   5.066  0.5649  0.1513  0.7369
  992MOL0     C33841   9.090   5.889   4.989  0.7066 -0.7063 -0.0816
  992MOL0     C33842   9.217   5.929   4.953 -0.7947 -0.7607  0.3123
  992MOL0     C33843   9.268   6.054   4.981 -1.2678  0.1299  0.8552
  992MOL0     O33844   9.387   6.085   4.922  0.0989 -0.2622  0.9788
  992MOL0     C33845   9.507   6.023   4.965 -1.0666  0.4842 -0.2568
  992MOL0     C33846   9.569   6.107   5.083 -0.2509  0.0983 -0.6643
  992MOL0     C33847   9.715   6.067   5.119 -0.2070  0.6539 -0.7882
  992MOL0     C33848   9.806   6.128   5.015  0.3806  0.6279 -0.3100
  992MOL0     C33849   9.943   6.080   5.045  0.2801 -0.4355  0.4239
  992MOL0     C33850  10.046   6.027   5.047  0.3348 -0.4600  0.3528
  992MOL0     C33851   9.192   6.130   5.062 -0.4440  0.2610 -0.9771
  992MOL0     C33852   9.065   6.093   5.101  0.8804 -0.2104  0.2073
  992MOL0     H33853   8.578   6.117   5.176 -1.8155  0.8974  1.3467
  992MOL0     H33854   8.362   6.043   5.259  2.2303 -0.9460 -5.2272
  992MOL0     H33855   8.371   5.651   5.496 -1.5707 -1.2441  1.6868
  992MOL0     H33856   8.406   5.760   5.620  0.1409  0.0606 -2.0657
  992MOL0     H33857   8.177   5.665   5.672 -1.9605 -0.7350 -1.5886
  992MOL0     H33858   8.149   5.836   5.626  3.9856  2.0347 -0.8258
  992MOL0     H33859   8.116   5.729   5.388 -1.5237 -1.7878 -1.7795
  992MOL0     H33860   8.143   5.576   5.450 -3.0684 -0.5959 -2.2579
  992MOL0     H33861   7.964   5.613   5.628 -1.3335  1.2223  0.8808
  992MOL0     H33862   7.906   5.751   5.528  3.8781  1.9540  2.7767
  992MOL0     H33863   7.771   5.591   5.471  1.0116  1.8220  3.0356
  992MOL0     H33864   7.891   5.607   5.335  1.3647 -2.3824 -0.2754
  992MOL0     H33865   8.014   5.415   5.452  1.4431  2.0139 -3.0129
  992MOL0     H33866   7.843   5.372   5.523 -0.3810  0.4547  0.0094
  992MOL0     H33867   7.763   5.358   5.287  0.6933  2.6175  0.7343
  992MOL0     H33868   7.903   5.405   5.213 -1.2977  0.3748 -0.0227
  992MOL0     H33869   7.865   5.143   5.371 -0.9394  2.4442  0.6886
  992MOL0     H33870   8.022   5.189   5.308 -0.0569 -0.7787 -0.3477
  992MOL0     H33871   8.040   4.953   5.166 -0.7979  0.3758  1.5046
  992MOL0     H33872   8.013   4.846   4.942  0.0534 -2.3137 -1.7389
  992MOL0     H33873   7.952   4.917   4.796 -0.9627 -2.1068  0.8183
  992MOL0     H33874   8.221   4.931   4.943  1.2435 -0.5700 -1.6606
  992MOL0     H33875   8.175   5.078   4.866 -0.5672  0.3201 -2.4058
  992MOL0     H33876   8.139   4.940   4.653 -1.3416  0.5161  1.8962
  992MOL0     H33877   8.209   4.800   4.726  1.2092 -0.9579 -0.0264
  992MOL0     H33878   8.343   5.074   4.708  2.2692 -0.2383 -2.7217
  992MOL0     H33879   8.382   4.947   4.603 -0.2672  2.0920 -1.1353
  992MOL0     H33880   8.622   4.849   4.972 -1.2201  0.6435 -0.6826
  992MOL0     H33881   8.983   4.855   5.002  1.0663 -0.5332  0.3699
  992MOL0     H33882   8.831   4.861   5.094  2.0998 -0.0797  0.4969
  992MOL0     H33883   8.859   4.729   4.988 -4.0657  0.3211  1.2080
  992MOL0     H33884   9.247   5.017   4.524  1.2987 -0.4569 -1.5039
  992MOL0     H33885   9.476   5.048   4.542 -1.5025  2.4291 -0.8801
  992MOL0     H33886   9.644   5.200   4.910 -0.7713  0.6116  0.4857
  992MOL0     H33887   9.681   5.023   4.908  0.6882 -0.8954 -3.3425
  992MOL0     H33888   9.869   5.235   4.790 -0.6148  0.5475  1.8237
  992MOL0     H33889   9.874   5.158   4.940  0.6068 -0.9309  0.4660
  992MOL0     H33890   9.851   4.917   4.820 -1.2270 -0.2000 -1.2282
  992MOL0     H33891  10.005   5.008   4.795 -0.5931  0.0451  2.3943
  992MOL0     H33892   9.766   4.988   4.585 -0.8055 -0.5927 -0.6223
  992MOL0     H33893   9.911   5.092   4.598 -0.9294 -0.2148 -0.5729
  992MOL0     H33894   9.908   4.776   4.591  2.3771 -2.2659 -2.4351
  992MOL0     H33895  10.058   4.862   4.624  2.0005  2.5821 -1.1075
  992MOL0     H33896   9.887   4.929   4.378 -0.2001 -0.2790 -0.0859
  992MOL0     H33897  10.050   4.981   4.429 -1.1057  0.6920  1.1707
  992MOL0     H33898   9.971   4.694   4.368 -0.4509  0.0200  0.8189
  992MOL0     H33899  10.130   4.743   4.413 -0.6335 -1.1645 -0.3039
  992MOL0     H33900  10.007   4.841   4.162  0.2817  1.1808  0.4871
  992MOL0     H33901  10.090   4.691   4.170  3.1900  1.1454 -2.7876
  992MOL0     H33902   9.445   5.109   4.961  0.0858 -2.7799  0.7492
  992MOL0     H33903   9.205   5.038   4.960  1.5231 -0.8195  1.9530
  992MOL0     H33904   8.819   4.993   4.558 -2.3656 -1.2792 -1.2892
  992MOL0     H33905   8.594   4.988   4.563 -3.2000 -0.7045  1.3447
  992MOL0     H33906   8.605   5.727   5.458  2.5955  0.2077 -0.1963
  992MOL0     H33907   8.790   5.801   5.350 -0.8637 -1.8745 -0.1332
  992MOL0     H33908   9.055   5.790   4.962  0.4078  0.0540 -2.7417
  992MOL0     H33909   9.272   5.860   4.890  0.1368  0.8621 -0.7069
  992MOL0     H33910   9.486   5.919   4.993 -1.0444  0.0203 -1.8541
  992MOL0     H33911   9.573   6.005   4.880  2.1718 -0.6207  2.2901
  992MOL0     H33912   9.513   6.092   5.176  0.4652  1.7645  0.0656
  992MOL0     H33913   9.569   6.213   5.055 -2.2825  0.0182 -1.1046
  992MOL0     H33914   9.721   5.959   5.127  0.3923  0.7710  0.6356
  992MOL0     H33915   9.746   6.096   5.220 -0.0802  0.6936 -0.8374
  992MOL0     H33916   9.811   6.237   5.006 -0.4294  0.8766  1.7361
  992MOL0     H33917   9.774   6.094   4.916 -0.0190 -1.8675  0.5996
  992MOL0     H33918  10.150   6.003   5.037  1.1440  3.2585 -2.0531
  992MOL0     H33919   9.228   6.226   5.098  3.0264 -1.5296  0.8718
  992MOL0     H33920   9.013   6.165   5.164  2.3766  0.4492  0.7487
  993MOL0     O33921   5.696   8.794   2.894  1.0981 -0.6196 -0.5977
  993MOL0     C33922   5.635   8.770   2.792  0.0466 -0.7277  0.0233
  993MOL0     O33923   5.662   8.673   2.697 -0.5231 -0.4354  1.0591
  993MOL0     C33924   5.768   8.589   2.716 -0.4486 -1.0385 -0.3715
  993MOL0     C33925   5.895   8.658   2.728 -0.2452 -0.4034 -0.1579
  993MOL0     C33926   6.009   8.587   2.740 -0.4166  0.1423  0.3175
  993MOL0     C33927   6.014   8.444   2.744  0.2362  0.1122 -0.0654
  993MOL0     O33928   6.136   8.396   2.740 -0.0556 -0.9005 -0.0134
  993MOL0     C33929   6.166   8.293   2.835 -0.3705  0.3440 -0.1493
  993MOL0     C33930   6.313   8.318   2.880 -0.2675  0.5860 -0.2412
  993MOL0     C33931   6.419   8.292   2.772 -1.6761  0.2171 -0.1251
  993MOL0     C33932   6.562   8.321   2.819 -0.4553 -0.0674 -0.8406
  993MOL0     C33933   6.652   8.330   2.710 -0.5245  0.0515  0.2403
  993MOL0     C33934   6.805   8.336   2.742 -0.8544  0.4358  0.0269
  993MOL0     C33935   6.843   8.448   2.828 -1.4968  0.1368  0.0787
  993MOL0     C33936   6.971   8.406   2.908  0.2279  0.3516  0.5627
  993MOL0     N33937   6.986   8.495   3.027  0.3482 -0.0354  0.1869
  993MOL0     C33938   6.947   8.457   3.153  0.1573  1.1195 -0.3899
  993MOL0     C33939   6.994   8.549   3.235 -0.9035 -0.4334 -0.1605
  993MOL0     C33940   6.965   8.545   3.382 -0.3295 -1.1666 -0.4050
  993MOL0     C33941   7.034   8.662   3.455  0.0049  0.2489 -0.4590
  993MOL0     C33942   7.184   8.632   3.471  0.1738  0.0163  0.1298
  993MOL0     C33943   7.251   8.762   3.526 -0.0273  0.0490 -0.8511
  993MOL0     O33944   7.167   8.837   3.620  0.5038  0.1582 -0.8380
  993MOL0     C33945   7.225   8.940   3.687 -0.5637 -0.1399  0.3152
  993MOL0     C33946   7.356   8.993   3.658 -0.0335  0.0901  0.5906
  993MOL0     C33947   7.414   9.095   3.738 -0.3804 -0.8811 -0.0428
  993MOL0     C33948   7.557   9.151   3.696 -0.3867 -0.0306  0.0362
  993MOL0     C33949   7.337   9.155   3.842  0.9190  0.1117 -0.9342
  993MOL0     C33950   7.384   9.270   3.923  0.3591 -0.6848 -0.0631
  993MOL0     O33951   7.301   9.320   4.013  0.1245  0.2335 -0.6378
  993MOL0     C33952   7.343   9.434   4.073 -0.0832 -0.0481  0.2683
  993MOL0     C33953   7.405   9.429   4.206  0.6152  0.8639 -0.6222
  993MOL0     C33954   7.464   9.544   4.246 -0.3504 -0.3951  0.5858
  993MOL0     C33955   7.445   9.669   4.175 -0.1454  1.8358 -0.9904
  993MOL0     O33956   7.508   9.778   4.225 -0.6973  0.0228 -0.3323
  993MOL0     C33957   7.473   9.907   4.184  0.3212  1.2273  0.2249
  993MOL0     C33958   7.544  10.012   4.266 -0.1468 -0.4946 -0.1070
  993MOL0     C33959   7.471  10.155   4.254 -0.0451 -0.2095  0.3858
  993MOL0     C33960   7.551  10.261   4.345 -0.8405  0.5203  0.4183
  993MOL0     C33961   7.475  10.342   4.453  0.3557  0.2136 -0.0344
  993MOL0     C33962   7.586  10.419   4.539 -1.3817 -0.1428 -0.1944
  993MOL0     C33963   7.519  10.483   4.657 -0.5369 -0.1114  0.3196
  993MOL0     C33964   7.426  10.612   4.630 -0.6363 -0.4017  0.0223
  993MOL0    Cl33965   7.374  10.681   4.785  0.4975  0.3361  0.4173
  993MOL0     C33966   7.370   9.672   4.057 -0.1717 -0.1075  0.1247
  993MOL0     C33967   7.311   9.550   4.003  0.1651  0.2504 -0.0889
  993MOL0     O33968   7.496   9.325   3.897 -0.6924 -0.5436 -0.0251
  993MOL0     C33969   7.207   9.106   3.869 -0.0807  0.2376 -0.1329
  993MOL0     C33970   7.151   9.002   3.786 -0.4673 -0.3687  0.0278
  993MOL0     N33971   7.069   8.637   3.157 -0.1979  0.2223 -0.1269
  993MOL0     N33972   7.064   8.602   3.031 -0.2388 -0.1232  0.1240
  993MOL0     C33973   5.895   8.377   2.741 -0.2358  0.6809 -0.3246
  993MOL0     C33974   5.772   8.448   2.718  0.7977 -0.2992  0.1447
  993MOL0     C33975   5.534   8.869   2.763 -0.1155  0.2198 -0.3009
  993MOL0     C33976   5.527   8.990   2.837  0.2237  0.0046 -0.1338
  993MOL0     C33977   5.441   9.094   2.797 -0.1051  0.4236 -0.7524
  993MOL0     C33978   5.357   9.074   2.688 -0.0601 -0.3328 -0.2031
  993MOL0     O33979   5.268   9.169   2.643 -0.1194  0.2906  0.2986
  993MOL0     C33980   5.300   9.304   2.643 -0.4207  1.1403  0.2141
  993MOL0     C33981   5.169   9.389   2.679 -0.4114 -0.2811  0.4682
  993MOL0     C33982   5.078   9.399   2.555 -1.1460 -1.0343  0.3532
  993MOL0     C33983   4.957   9.490   2.584 -0.1080  0.3762 -0.2510
  993MOL0     C33984   4.888   9.503   2.452  0.3505  0.0998 -1.3166
  993MOL0     C33985   4.838   9.510   2.342  0.0248  1.2304  0.2492
  993MOL0     C33986   5.343   8.946   2.630 -0.2593 -0.7475  0.6988
  993MOL0     C33987   5.429   8.840   2.669 -0.0383 -0.2603 -0.0594
  993MOL0     H33988   5.896   8.767   2.733  0.4670 -0.4504  2.2709
  993MOL0     H33989   6.111   8.623   2.730 -0.2329 -0.8139 -1.9341
  993MOL0     H33990   6.101   8.286   2.922  3.8333 -2.5379  3.2215
  993MOL0     H33991   6.158   8.196   2.784  1.3526 -0.7450  1.4756
  993MOL0     H33992   6.329   8.414   2.929  1.5113 -0.3835  1.1973
  993MOL0     H33993   6.341   8.236   2.946 -0.1678 -0.0792 -1.0992
  993MOL0     H33994   6.422   8.191   2.729  2.9928  0.5946 -1.1782
  993MOL0     H33995   6.395   8.360   2.690 -0.1169 -1.3482 -1.9879
  993MOL0     H33996   6.567   8.408   2.885 -2.3720 -0.8627  0.4100
  993MOL0     H33997   6.603   8.243   2.884  1.8404  1.4067 -0.4204
  993MOL0     H33998   6.641   8.233   2.660  1.6545 -2.0150  3.4162
  993MOL0     H33999   6.623   8.408   2.638 -0.7198 -0.3887 -0.1652
  993MOL0     H34000   6.832   8.239   2.784  0.7377  1.4998  1.5819
  993MOL0     H34001   6.870   8.342   2.654  0.7418 -1.3548  0.9905
  993MOL0     H34002   6.892   8.531   2.777  0.6678  1.4837  4.0071
  993MOL0     H34003   6.765   8.473   2.900  0.6912  0.6520  2.3936
  993MOL0     H34004   7.057   8.420   2.840 -0.6021  0.0376 -0.5881
  993MOL0     H34005   6.964   8.302   2.939 -2.4304  0.0109 -0.8945
  993MOL0     H34006   6.878   8.378   3.180 -0.3222  1.3214 -0.9948
  993MOL0     H34007   6.859   8.544   3.410 -0.1211  1.9818  0.8472
  993MOL0     H34008   6.998   8.449   3.424 -0.8665 -0.8751  0.7221
  993MOL0     H34009   6.987   8.678   3.553  1.0299  0.7696 -0.0370
  993MOL0     H34010   7.022   8.750   3.392 -0.6455  0.8148  0.4305
  993MOL0     H34011   7.221   8.613   3.370 -0.8341  0.6818 -0.3780
  993MOL0     H34012   7.204   8.542   3.530  1.3078 -1.6634 -2.5996
  993MOL0     H34013   7.303   8.810   3.443  2.0310 -0.4090  0.1034
  993MOL0     H34014   7.329   8.727   3.595 -0.4812  3.7870  1.8439
  993MOL0     H34015   7.413   8.956   3.573 -2.3281  3.3143 -2.6409
  993MOL0     H34016   7.567   9.259   3.684  1.1664 -0.1330  0.1654
  993MOL0     H34017   7.619   9.138   3.786 -1.5723  0.8636  1.0226
  993MOL0     H34018   7.602   9.116   3.603  2.6157  0.5281  1.1642
  993MOL0     H34019   7.402   9.336   4.261 -6.2388  0.6678 -0.5001
  993MOL0     H34020   7.525   9.561   4.334 -1.9792  1.7672  1.4106
  993MOL0     H34021   7.482   9.922   4.076  2.4743  1.5303  0.4081
  993MOL0     H34022   7.364   9.911   4.192 -0.0895 -2.0142 -1.8749
  993MOL0     H34023   7.550   9.985   4.372 -0.9165 -0.6037 -0.0839
  993MOL0     H34024   7.645  10.019   4.225  0.1252 -0.2318  0.6031
  993MOL0     H34025   7.367  10.144   4.285 -1.3616 -1.4876 -3.8003
  993MOL0     H34026   7.481  10.185   4.150  1.6469 -2.4940 -0.2025
  993MOL0     H34027   7.640  10.215   4.387  1.3853  3.2148 -0.9723
  993MOL0     H34028   7.595  10.334   4.276 -2.1086 -0.2829 -1.3176
  993MOL0     H34029   7.430  10.270   4.521 -0.1115  1.4287  0.9968
  993MOL0     H34030   7.403  10.410   4.406 -1.1012 -2.2818 -1.6201
  993MOL0     H34031   7.668  10.352   4.565  1.6622  2.9486 -1.0871
  993MOL0     H34032   7.637  10.495   4.479 -0.9390  0.7039  1.1965
  993MOL0     H34033   7.600  10.512   4.725  1.3579  0.1197 -1.9325
  993MOL0     H34034   7.465  10.407   4.716  0.6922 -0.1299  1.4808
  993MOL0     H34035   7.352  10.601   4.551  1.5848  3.8804 -3.0222
  993MOL0     H34036   7.496  10.684   4.587 -1.3827 -0.0666 -0.6655
  993MOL0     H34037   7.340   9.761   4.002 -3.0460 -0.4086  1.0231
  993MOL0     H34038   7.254   9.556   3.911 -1.4630  1.4668  0.9276
  993MOL0     H34039   7.149   9.158   3.945  0.6098  0.2096  0.4212
  993MOL0     H34040   7.048   8.969   3.797 -1.2064  0.9775 -2.1368
  993MOL0     H34041   5.900   8.270   2.758  0.2815  0.3964 -1.9954
  993MOL0     H34042   5.681   8.393   2.697 -0.3592  1.2476  0.8690
  993MOL0     H34043   5.594   9.020   2.917  0.1931  2.3431 -0.9008
  993MOL0     H34044   5.438   9.186   2.855 -3.6273 -0.4852  0.7504
  993MOL0     H34045   5.381   9.325   2.714 -1.6659  1.3349  1.6402
  993MOL0     H34046   5.334   9.321   2.541 -2.0100 -3.1894 -1.2721
  993MOL0     H34047   5.186   9.492   2.711 -3.9982 -0.3257  3.0854
  993MOL0     H34048   5.120   9.346   2.767  0.0818 -1.8133  0.0361
  993MOL0     H34049   5.052   9.295   2.532 -2.1484 -0.9516  1.0181
  993MOL0     H34050   5.143   9.438   2.477  1.8092 -2.6139  1.8341
  993MOL0     H34051   4.984   9.594   2.604 -0.2737  0.3778 -0.0281
  993MOL0     H34052   4.895   9.446   2.663 -0.7182  2.2497  0.3651
  993MOL0     H34053   4.805   9.506   2.241 -3.0699  0.0373  1.2112
  993MOL0     H34054   5.260   8.940   2.561  1.5292  0.3492 -1.6860
  993MOL0     H34055   5.425   8.745   2.616  1.2967 -0.0737 -0.5380
  994MOL0     O34056  10.597   7.907   2.863 -0.6566  0.5004 -0.4012
  994MOL0     C34057  10.561   7.961   2.971 -0.4238  0.4187 -0.2821
  994MOL0     O34058  10.650   7.999   3.072  0.2215 -0.0539  0.6744
  994MOL0     C34059  10.771   7.937   3.070  0.5134  0.1579 -0.2682
  994MOL0     C34060  10.799   7.824   3.135 -0.0227 -0.1997 -0.0072
  994MOL0     C34061  10.921   7.753   3.116  0.3447 -0.3287 -0.5285
  994MOL0     C34062  11.025   7.817   3.043 -0.3818  0.6442  1.0730
  994MOL0     O34063  11.154   7.754   3.025  0.0760 -0.3255 -0.6806
  994MOL0     C34064  11.263   7.841   3.074  0.8290  0.9794  0.5549
  994MOL0     C34065  11.266   7.847   3.228 -1.3405 -0.0306  0.1623
  994MOL0     C34066  11.274   7.708   3.293  0.2633  0.0511  0.5562
  994MOL0     C34067  11.305   7.733   3.445 -0.0973 -0.1854 -0.1477
  994MOL0     C34068  11.263   7.620   3.522  0.5109  0.5577  0.7885
  994MOL0     C34069  11.297   7.637   3.664  0.2306  0.2373 -0.9806
  994MOL0     C34070  11.249   7.535   3.777 -0.1733  0.3845  0.5993
  994MOL0     C34071  11.313   7.578   3.915 -0.3036  0.0949 -1.1369
  994MOL0     N34072  11.270   7.479   4.012  0.8929 -0.2943 -0.4712
  994MOL0     C34073  11.323   7.353   4.041  0.5034  0.6280  0.2397
  994MOL0     C34074  11.240   7.304   4.138  1.2941 -0.1427 -0.3822
  994MOL0     C34075  11.254   7.162   4.193  0.5582  0.1619  0.3807
  994MOL0     C34076  11.384   7.149   4.280  0.3406 -0.2652 -0.6964
  994MOL0     C34077  11.359   7.225   4.411 -0.7509 -0.3916  0.1852
  994MOL0     C34078  11.243   7.177   4.506  0.7707  0.5383 -0.5223
  994MOL0     O34079  11.268   7.050   4.571 -0.7333  0.4404  0.4430
  994MOL0     C34080  11.161   7.007   4.634  1.0769  0.1085  0.6021
  994MOL0     C34081  11.081   6.911   4.570 -1.5830  0.0822  0.7367
  994MOL0     C34082  10.968   6.861   4.630  0.0546 -0.5394  0.1181
  994MOL0     C34083  10.889   6.759   4.549  0.2818 -0.0591  0.4147
  994MOL0     C34084  10.927   6.907   4.756 -0.2863  0.4432 -0.8963
  994MOL0     C34085  10.811   6.861   4.838  0.3049  0.2669  0.2786
  994MOL0     O34086  10.804   6.905   4.965 -0.1900  0.9743 -0.2168
  994MOL0     C34087  10.697   6.845   5.046 -0.1503  0.3485  0.1134
  994MOL0     C34088  10.714   6.759   5.159  0.4103 -0.5584  1.0067
  994MOL0     C34089  10.609   6.694   5.219 -0.0404  0.2027  0.5574
  994MOL0     C34090  10.477   6.720   5.190 -0.1080  0.0760 -0.4220
  994MOL0     O34091  10.362   6.673   5.248  0.0760  0.7331 -0.6214
  994MOL0     C34092  10.360   6.643   5.394  0.5079 -0.0993  0.2115
  994MOL0     C34093  10.330   6.773   5.462 -0.6759  0.3554  0.6443
  994MOL0     C34094  10.351   6.769   5.610  0.0623  0.2161 -0.5523
  994MOL0     C34095  10.497   6.776   5.651  0.7338 -0.6751  0.3478
  994MOL0     C34096  10.536   6.771   5.798  0.1517  0.8233 -0.4568
  994MOL0     C34097  10.492   6.627   5.870 -0.0652  0.4144 -0.2314
  994MOL0     C34098  10.524   6.620   6.023  0.2269 -0.7313  0.9043
  994MOL0     C34099  10.422   6.698   6.102 -0.3010  0.7017  0.6431
  994MOL0    Cl34100  10.453   6.703   6.279 -0.1955  0.2885  0.4489
  994MOL0     C34101  10.454   6.817   5.085 -1.1490  0.3243  0.3163
  994MOL0     C34102  10.561   6.872   5.014  0.0909 -0.1990 -0.6100
  994MOL0     O34103  10.742   6.779   4.797 -0.3949 -0.2492  0.5897
  994MOL0     C34104  11.012   6.997   4.818  0.1094  0.1277 -0.6419
  994MOL0     C34105  11.132   7.040   4.761  0.3428 -0.1955 -0.8224
  994MOL0     N34106  11.142   7.400   4.168 -0.6360 -0.0155 -0.7742
  994MOL0     N34107  11.158   7.503   4.094  0.5683  0.3559  0.6851
  994MOL0     C34108  11.001   7.934   2.977 -0.3743  0.0013 -0.6554
  994MOL0     C34109  10.875   8.000   2.997  0.3540 -0.6377 -0.5902
  994MOL0     C34110  10.417   7.984   2.996  0.0324 -0.4702 -0.4619
  994MOL0     C34111  10.323   7.999   2.886 -0.6543  0.3145  0.4828
  994MOL0     C34112  10.193   8.031   2.903  0.1172 -0.2994  0.3334
  994MOL0     C34113  10.145   8.062   3.031 -0.2688  0.9620  0.1792
  994MOL0     O34114  10.022   8.106   3.072  0.2632 -0.0095  0.1948
  994MOL0     C34115   9.956   7.995   3.147  0.2322  0.1192 -0.4537
  994MOL0     C34116   9.804   8.022   3.177 -0.1182 -0.9422  0.8423
  994MOL0     C34117   9.718   8.037   3.048  0.0675  0.3521 -0.4922
  994MOL0     C34118   9.597   8.114   3.065  0.8361 -0.7199 -0.8991
  994MOL0     C34119   9.626   8.255   3.101  0.0081  0.7506  0.5133
  994MOL0     C34120   9.656   8.375   3.117  0.2790 -0.2603  0.5926
  994MOL0     C34121  10.238   8.050   3.128  1.2107 -1.1300 -0.5051
  994MOL0     C34122  10.366   8.011   3.127 -0.4847  0.2180  0.4947
  994MOL0     H34123  10.722   7.780   3.197  0.8431 -0.1519  1.1475
  994MOL0     H34124  10.960   7.662   3.162  3.3869  0.2021 -1.8109
  994MOL0     H34125  11.348   7.784   3.035  1.6776  3.0204 -0.7306
  994MOL0     H34126  11.283   7.935   3.021  2.7835 -0.4733 -1.4577
  994MOL0     H34127  11.354   7.906   3.255  1.3204 -2.7156 -1.8778
  994MOL0     H34128  11.187   7.911   3.268  0.7870  3.2704 -0.5214
  994MOL0     H34129  11.180   7.656   3.278  1.2459 -1.1924 -1.6744
  994MOL0     H34130  11.353   7.655   3.239  1.6611  4.1820 -1.8984
  994MOL0     H34131  11.413   7.744   3.460  0.0060 -0.8721 -0.3138
  994MOL0     H34132  11.256   7.825   3.476 -1.1062 -0.5778 -0.5352
  994MOL0     H34133  11.157   7.596   3.506  0.4575  0.1591  1.6990
  994MOL0     H34134  11.319   7.535   3.484 -0.7470  0.9455 -2.2262
  994MOL0     H34135  11.406   7.631   3.665  0.2145 -4.2257  1.3033
  994MOL0     H34136  11.260   7.733   3.700  0.3819 -1.4138  4.6703
  994MOL0     H34137  11.140   7.531   3.786 -0.0570 -3.3731  2.0405
  994MOL0     H34138  11.284   7.433   3.760  0.3612  0.5910  0.4003
  994MOL0     H34139  11.274   7.676   3.942  2.3715  2.3606 -4.5137
  994MOL0     H34140  11.422   7.587   3.909 -0.3324  0.5712 -1.0038
  994MOL0     H34141  11.403   7.290   4.001  0.2530  0.2183  0.3711
  994MOL0     H34142  11.167   7.126   4.249 -1.5844 -2.5259 -4.1861
  994MOL0     H34143  11.257   7.094   4.108 -1.3708  1.0824 -0.4979
  994MOL0     H34144  11.463   7.193   4.219  0.9465 -3.5173 -2.4967
  994MOL0     H34145  11.412   7.045   4.298  1.6580  0.4214  1.5819
  994MOL0     H34146  11.348   7.332   4.389  3.9068  0.5618  1.4983
  994MOL0     H34147  11.445   7.229   4.477 -1.1466  0.6611  0.6639
  994MOL0     H34148  11.150   7.181   4.448  0.1744 -1.9561  0.1593
  994MOL0     H34149  11.230   7.252   4.584 -0.8985 -0.3180  0.0540
  994MOL0     H34150  11.113   6.892   4.468  0.6706  6.9053 -0.2807
  994MOL0     H34151  10.870   6.676   4.617 -1.5101 -0.6975 -0.7990
  994MOL0     H34152  10.790   6.791   4.516 -0.2838 -2.4249 -0.4013
  994MOL0     H34153  10.945   6.715   4.465 -2.1024 -1.1160 -0.7115
  994MOL0     H34154  10.814   6.733   5.191  0.3217  0.2961  2.0172
  994MOL0     H34155  10.630   6.623   5.299  3.3726 -0.1326 -0.4524
  994MOL0     H34156  10.287   6.566   5.420  0.4714  1.2455  5.2510
  994MOL0     H34157  10.458   6.609   5.430 -0.9613 -1.6671  3.0549
  994MOL0     H34158  10.399   6.847   5.420 -1.1519 -0.1125 -1.0537
  994MOL0     H34159  10.228   6.796   5.429 -0.3154 -0.6893 -1.3561
  994MOL0     H34160  10.311   6.670   5.636  1.0227  0.4195  2.0365
  994MOL0     H34161  10.299   6.844   5.670 -0.8250 -1.3588  0.7234
  994MOL0     H34162  10.553   6.705   5.590  0.2414  0.3355 -1.3351
  994MOL0     H34163  10.547   6.869   5.623  0.1188 -0.3294  0.3750
  994MOL0     H34164  10.481   6.852   5.847 -0.9957 -1.9389  3.3041
  994MOL0     H34165  10.643   6.788   5.813 -0.3209  2.6811  1.2883
  994MOL0     H34166  10.390   6.590   5.856 -0.6657  1.3768  1.2827
  994MOL0     H34167  10.549   6.547   5.823 -3.5663 -1.2626 -1.9767
  994MOL0     H34168  10.623   6.665   6.038 -1.0253  2.8153 -0.2404
  994MOL0     H34169  10.529   6.513   6.044  3.4219 -0.5972  1.2802
  994MOL0     H34170  10.326   6.649   6.080 -1.1693  1.5792  2.2518
  994MOL0     H34171  10.415   6.802   6.070 -0.1156 -0.3256 -3.2807
  994MOL0     H34172  10.356   6.859   5.067 -2.1002  0.5803  4.9778
  994MOL0     H34173  10.533   6.941   4.936 -0.5068 -3.8377 -3.9404
  994MOL0     H34174  10.991   7.033   4.918  0.2089  2.8522 -1.5308
  994MOL0     H34175  11.199   7.106   4.815  1.3124 -2.0495  0.3416
  994MOL0     H34176  11.079   7.967   2.909  1.1243  2.0114  1.8990
  994MOL0     H34177  10.849   8.086   2.935  1.9332  1.1864  1.1594
  994MOL0     H34178  10.361   7.980   2.786 -0.3658  0.0683  0.6366
  994MOL0     H34179  10.124   8.032   2.819 -0.7781 -0.9666  1.0361
  994MOL0     H34180   9.974   7.898   3.099 -1.4352 -0.3941 -0.1176
  994MOL0     H34181  10.009   7.982   3.242  0.6497  0.3318 -0.6512
  994MOL0     H34182   9.812   8.121   3.223  0.4308 -0.1652 -0.8630
  994MOL0     H34183   9.768   7.948   3.250  1.5795 -3.2119 -0.4540
  994MOL0     H34184   9.687   7.932   3.039 -2.5681  1.1907 -2.6253
  994MOL0     H34185   9.762   8.072   2.954 -0.0640 -1.9497 -1.4840
  994MOL0     H34186   9.537   8.079   3.150 -0.7087 -1.8133 -2.3713
  994MOL0     H34187   9.524   8.108   2.984 -1.6624 -1.8613  1.2793
  994MOL0     H34188   9.665   8.481   3.127  1.3291 -0.3288  0.3884
  994MOL0     H34189  10.204   8.090   3.223  2.2640  0.5377 -0.7816
  994MOL0     H34190  10.421   8.010   3.221  0.7282  3.8357 -0.0254
  995MOL0     O34191   5.009   3.797   6.326 -0.1328  0.3833  0.6013
  995MOL0     C34192   4.963   3.908   6.352 -0.4148  0.7847  1.2944
  995MOL0     O34193   4.831   3.944   6.343  0.1302  0.2313 -0.3194
  995MOL0     C34194   4.725   3.863   6.305  0.0915 -0.4112  0.8026
  995MOL0     C34195   4.727   3.732   6.253  0.5879 -0.9758  0.2353
  995MOL0     C34196   4.604   3.687   6.209 -0.1574 -0.1585 -0.5193
  995MOL0     C34197   4.479   3.747   6.222 -0.4266 -1.0455 -0.0612
  995MOL0     O34198   4.357   3.688   6.199  0.2352  0.0556  0.1203
  995MOL0     C34199   4.347   3.580   6.102  0.4735  0.8943  0.2765
  995MOL0     C34200   4.201   3.534   6.088  0.3841 -1.3581  0.0135
  995MOL0     C34201   4.113   3.648   6.027  0.3769  0.5351 -1.1740
  995MOL0     C34202   3.964   3.621   6.042 -0.5697 -0.5226  0.0589
  995MOL0     C34203   3.891   3.724   5.961 -0.2981 -1.2697  0.3832
  995MOL0     C34204   3.868   3.865   6.032 -0.3453  0.1082 -0.0269
  995MOL0     C34205   3.771   3.847   6.161 -0.7757 -0.4928  0.2348
  995MOL0     C34206   3.703   3.981   6.201  0.4994  0.0792 -0.6609
  995MOL0     N34207   3.632   3.961   6.325  0.9741  0.3932  0.4119
  995MOL0     C34208   3.614   4.050   6.433 -0.5066  0.3402  0.4307
  995MOL0     C34209   3.541   3.979   6.526  1.3390 -0.1425  0.1925
  995MOL0     C34210   3.515   4.021   6.665 -0.8668  0.6416 -0.2262
  995MOL0     C34211   3.544   4.163   6.700 -0.3656  0.6888 -0.4874
  995MOL0     C34212   3.478   4.222   6.826 -0.6405 -0.2210  0.4846
  995MOL0     C34213   3.330   4.231   6.802  0.0887  0.1825  0.3201
  995MOL0     O34214   3.275   4.353   6.855 -0.2132  0.0754  0.0815
  995MOL0     C34215   3.290   4.381   6.993 -0.5655 -0.6600  0.7610
  995MOL0     C34216   3.288   4.514   7.031 -0.1088 -0.5148 -0.5133
  995MOL0     C34217   3.310   4.558   7.167  0.5569 -0.7273 -0.6864
  995MOL0     C34218   3.292   4.709   7.192 -0.8164 -0.1915 -0.1427
  995MOL0     C34219   3.342   4.459   7.267  0.4524  0.8889 -0.4821
  995MOL0     C34220   3.367   4.487   7.409 -0.4161 -0.1781 -0.3975
  995MOL0     O34221   3.420   4.371   7.482 -0.3150 -0.4760 -0.4823
  995MOL0     C34222   3.477   4.388   7.603 -0.1744  0.7286 -0.5754
  995MOL0     C34223   3.557   4.495   7.640 -0.6559 -1.5038 -0.1252
  995MOL0     C34224   3.608   4.502   7.765  0.1708 -0.7628 -0.6813
  995MOL0     C34225   3.590   4.405   7.867 -0.1613  0.5482 -0.0435
  995MOL0     O34226   3.630   4.406   8.004  0.6155  0.0335 -0.6275
  995MOL0     C34227   3.655   4.538   8.058 -0.7563  0.6236  0.3129
  995MOL0     C34228   3.519   4.612   8.095 -1.3089 -0.0628  0.5370
  995MOL0     C34229   3.553   4.761   8.101  0.2509  0.2730 -0.3175
  995MOL0     C34230   3.622   4.789   8.234  0.0812 -0.5554 -0.3658
  995MOL0     C34231   3.680   4.931   8.262 -0.2326  0.0175  1.0728
  995MOL0     C34232   3.574   5.024   8.311 -0.4377  0.4363  0.5857
  995MOL0     C34233   3.475   5.080   8.204  1.0689  0.1362  0.3398
  995MOL0     C34234   3.422   5.214   8.252 -0.1438 -1.0120  0.2388
  995MOL0    Cl34235   3.273   5.264   8.164  0.1191 -0.5891  0.4799
  995MOL0     C34236   3.497   4.308   7.835  0.4254  0.0454 -0.2292
  995MOL0     C34237   3.442   4.299   7.707 -0.2588  0.1483 -0.9513
  995MOL0     O34238   3.339   4.595   7.457 -0.1132 -0.3609  0.5969
  995MOL0     C34239   3.346   4.322   7.223 -0.2719  0.4287 -0.6510
  995MOL0     C34240   3.317   4.289   7.087  0.4388 -0.6298 -0.0085
  995MOL0     N34241   3.497   3.858   6.472  0.2871 -0.0318  0.0809
  995MOL0     N34242   3.547   3.854   6.347  0.0809  0.6736 -0.2576
  995MOL0     C34243   4.478   3.878   6.270 -0.3872 -0.5617 -0.0131
  995MOL0     C34244   4.601   3.936   6.307 -0.6472  0.1208 -0.0085
  995MOL0     C34245   5.068   4.009   6.389 -0.7902 -0.8515 -0.7836
  995MOL0     C34246   5.030   4.145   6.410 -0.0946 -0.9380 -0.5493
  995MOL0     C34247   5.120   4.248   6.434 -0.2380  1.2901  0.1998
  995MOL0     C34248   5.261   4.221   6.422 -0.0142  0.4029 -0.2725
  995MOL0     O34249   5.346   4.323   6.445  0.2608  0.5597 -0.1248
  995MOL0     C34250   5.474   4.297   6.508  0.2618 -0.5805 -0.0944
  995MOL0     C34251   5.453   4.256   6.658 -1.1427 -0.0021  0.5472
  995MOL0     C34252   5.592   4.269   6.737  0.4144 -0.4684 -0.1669
  995MOL0     C34253   5.577   4.226   6.890 -0.3374  0.0896  0.8169
  995MOL0     C34254   5.516   4.333   6.971 -0.8063  0.4919  0.5168
  995MOL0     C34255   5.460   4.430   7.020  0.1856  0.1561 -0.3408
  995MOL0     C34256   5.305   4.085   6.400  0.5625  0.7117 -0.1817
  995MOL0     C34257   5.214   3.977   6.393  0.0730 -0.0714 -0.0941
  995MOL0     H34258   4.821   3.680   6.235  0.4596 -1.4712  0.9440
  995MOL0     H34259   4.612   3.594   6.153 -0.7318  0.1730 -1.1620
  995MOL0     H34260   4.384   3.622   6.008 -1.4345  2.4603  0.1725
  995MOL0     H34261   4.409   3.492   6.119 -0.2135 -0.0168 -1.7252
  995MOL0     H34262   4.188   3.446   6.025 -3.4576 -3.2377  2.9570
  995MOL0     H34263   4.160   3.506   6.186  0.1561  0.9784  0.6419
  995MOL0     H34264   4.129   3.738   6.087  0.3497  0.7073 -1.4254
  995MOL0     H34265   4.141   3.658   5.922  1.0525 -0.7599 -1.1336
  995MOL0     H34266   3.949   3.525   5.993 -0.5336 -0.2310 -0.5312
  995MOL0     H34267   3.939   3.613   6.148  1.9534 -1.3385  0.6543
  995MOL0     H34268   3.939   3.741   5.865 -2.4516  2.2179 -0.2278
  995MOL0     H34269   3.798   3.686   5.919 -0.5640  0.6715 -0.9042
  995MOL0     H34270   3.967   3.908   6.050  0.5776 -1.2878 -1.5573
  995MOL0     H34271   3.817   3.942   5.974  3.6765  3.1167 -0.0158
  995MOL0     H34272   3.685   3.784   6.137 -2.8229  2.6322 -1.3022
  995MOL0     H34273   3.822   3.800   6.245 -0.0863 -4.6136 -2.1974
  995MOL0     H34274   3.636   4.009   6.119 -0.0003 -0.4996 -0.4628
  995MOL0     H34275   3.773   4.062   6.225 -0.3744  1.2617 -1.9460
  995MOL0     H34276   3.671   4.142   6.441  0.2499  0.5086 -4.1367
  995MOL0     H34277   3.411   3.994   6.686  0.1640 -2.4734  1.6217
  995MOL0     H34278   3.570   3.955   6.733 -3.8641 -0.2788  1.4695
  995MOL0     H34279   3.525   4.229   6.614 -2.4358  0.7284 -0.0574
  995MOL0     H34280   3.651   4.157   6.724 -1.1636 -1.6657  3.3496
  995MOL0     H34281   3.521   4.323   6.822  0.5039 -0.6662 -5.0252
  995MOL0     H34282   3.503   4.167   6.918  1.0145 -1.5666 -0.7155
  995MOL0     H34283   3.269   4.148   6.838 -1.9629  1.8979  0.9689
  995MOL0     H34284   3.316   4.243   6.694 -1.7350  1.7329  0.6855
  995MOL0     H34285   3.242   4.569   6.949  0.0013 -1.3507 -1.1424
  995MOL0     H34286   3.384   4.749   7.235 -0.4320 -0.7576 -0.4162
  995MOL0     H34287   3.277   4.747   7.090 -1.2992  2.8981  0.9749
  995MOL0     H34288   3.213   4.730   7.264 -0.6159  0.7382 -0.1842
  995MOL0     H34289   3.580   4.571   7.567 -0.4185  0.1925  1.6230
  995MOL0     H34290   3.660   4.595   7.790  0.1073 -0.7782 -0.4934
  995MOL0     H34291   3.701   4.520   8.155 -0.7876 -1.2486  0.0141
  995MOL0     H34292   3.724   4.596   7.996  3.1186 -1.0111  2.7054
  995MOL0     H34293   3.454   4.601   8.008 -0.6202 -0.9716  0.1188
  995MOL0     H34294   3.473   4.574   8.187 -0.0975  2.2691  2.2273
  995MOL0     H34295   3.463   4.823   8.099  0.4286  0.6130  1.0576
  995MOL0     H34296   3.620   4.768   8.015  0.2654 -2.5834 -0.6621
  995MOL0     H34297   3.562   4.755   8.319 -0.5192 -0.8034 -0.8773
  995MOL0     H34298   3.716   4.733   8.234  0.6080  0.3151 -0.5315
  995MOL0     H34299   3.715   4.972   8.167 -0.1167 -1.9041  0.2486
  995MOL0     H34300   3.761   4.935   8.336  2.3621  0.5366 -1.6274
  995MOL0     H34301   3.526   4.979   8.399  3.4913 -1.5311  1.9894
  995MOL0     H34302   3.623   5.115   8.345  0.2612  1.3659 -2.6417
  995MOL0     H34303   3.397   5.006   8.187  0.7251 -0.2092  2.9529
  995MOL0     H34304   3.525   5.103   8.110 -1.9982  3.0357 -0.7818
  995MOL0     H34305   3.503   5.286   8.236 -0.9731 -0.3947 -1.5243
  995MOL0     H34306   3.406   5.224   8.360 -1.6503 -1.2403  0.0636
  995MOL0     H34307   3.472   4.246   7.920 -0.4817  2.3263  1.2659
  995MOL0     H34308   3.378   4.212   7.694  0.8174 -1.1031  1.5290
  995MOL0     H34309   3.374   4.238   7.285  1.1343  2.1450  1.1705
  995MOL0     H34310   3.340   4.185   7.063  1.0968  0.1249 -3.0035
  995MOL0     H34311   4.390   3.940   6.278  1.9930  3.5727 -2.4724
  995MOL0     H34312   4.598   4.028   6.364  0.7650  1.4084 -1.9014
  995MOL0     H34313   4.923   4.165   6.411  0.4958  3.1462 -0.4435
  995MOL0     H34314   5.088   4.350   6.456  0.3271  1.6079 -0.4103
  995MOL0     H34315   5.533   4.226   6.450 -0.5471 -1.7061  0.4194
  995MOL0     H34316   5.534   4.388   6.514 -0.3877 -0.1831  0.6551
  995MOL0     H34317   5.430   4.149   6.654  2.0225 -0.7724 -1.4074
  995MOL0     H34318   5.376   4.316   6.707 -0.2731  1.5216  0.1060
  995MOL0     H34319   5.603   4.377   6.723  0.9388 -0.7377 -2.2424
  995MOL0     H34320   5.676   4.219   6.688  0.6302 -0.6534  0.3843
  995MOL0     H34321   5.675   4.197   6.930  0.7895 -0.3555 -2.0033
  995MOL0     H34322   5.518   4.134   6.900  0.6837 -0.8440 -1.0270
  995MOL0     H34323   5.401   4.508   7.065 -2.1707 -0.6123 -1.8617
  995MOL0     H34324   5.411   4.066   6.403  0.3839 -0.2100  1.4337
  995MOL0     H34325   5.251   3.876   6.379 -0.7578 -0.2930 -0.7857
  996MOL0     O34326   5.897   3.635   2.360  0.7247 -0.8294  0.4046
  996MOL0     C34327   5.884   3.573   2.255  0.6477  0.0073  0.8853
  996MOL0     O34328   5.768   3.568   2.175  0.3772 -0.4664 -0.7215
  996MOL0     C34329   5.683   3.677   2.193  1.3774  0.2488 -0.2742
  996MOL0     C34330   5.550   3.647   2.200  0.9685  0.3150  1.1998
  996MOL0     C34331   5.457   3.743   2.240 -0.3555 -0.1276 -0.1251
  996MOL0     C34332   5.500   3.875   2.252  0.4274 -0.8872 -0.2835
  996MOL0     O34333   5.398   3.963   2.264  0.2927  0.0754 -0.6213
  996MOL0     C34334   5.410   4.101   2.217  0.6386  0.2193 -0.8110
  996MOL0     C34335   5.272   4.173   2.236 -0.5890  0.0012 -0.5292
  996MOL0     C34336   5.163   4.146   2.122 -0.1366  0.8368  0.0659
  996MOL0     C34337   5.076   4.273   2.102  0.4899 -0.1405  0.4540
  996MOL0     C34338   4.969   4.269   1.984  0.0573 -0.0789 -0.8676
  996MOL0     C34339   4.867   4.161   2.014  0.1030  0.5216 -0.3990
  996MOL0     C34340   4.765   4.158   1.903  0.4092  0.4154 -1.4895
  996MOL0     C34341   4.679   4.030   1.916  0.1864  1.4882  0.7192
  996MOL0     N34342   4.590   4.029   2.031 -0.1420 -0.1267 -0.5503
  996MOL0     C34343   4.467   4.092   2.023  0.0427  0.1747  0.1331
  996MOL0     C34344   4.406   4.042   2.128 -0.1534  0.1978 -0.5499
  996MOL0     C34345   4.261   4.054   2.153 -0.4601 -0.1674  0.1330
  996MOL0     C34346   4.166   3.976   2.053 -0.5710 -1.2157 -0.4330
  996MOL0     C34347   4.152   3.822   2.078 -0.1501  0.3075  0.6026
  996MOL0     C34348   4.269   3.744   2.013  0.4169  0.0704  0.1094
  996MOL0     O34349   4.212   3.619   1.973 -0.4346  0.3527 -0.0333
  996MOL0     C34350   4.298   3.535   1.905 -0.6675  0.4265 -0.7894
  996MOL0     C34351   4.439   3.546   1.905  0.5437 -0.6978  0.6649
  996MOL0     C34352   4.519   3.483   1.818  0.1067  0.3933  0.1308
  996MOL0     C34353   4.667   3.519   1.815 -0.0422 -0.5611 -0.0773
  996MOL0     C34354   4.461   3.371   1.751  0.2613  0.1812  0.1732
  996MOL0     C34355   4.538   3.283   1.668 -0.6354 -0.5915 -0.7015
  996MOL0     O34356   4.665   3.245   1.710 -0.0625  0.0319  0.4262
  996MOL0     C34357   4.748   3.185   1.613  0.3399 -0.1373  0.2567
  996MOL0     C34358   4.849   3.261   1.554  0.3520 -0.1873 -0.1606
  996MOL0     C34359   4.937   3.196   1.469 -1.2918  0.4739 -0.2483
  996MOL0     C34360   4.920   3.059   1.433  1.0205  0.5636  0.0151
  996MOL0     O34361   4.987   2.968   1.350  0.6186 -0.7897  0.1980
  996MOL0     C34362   5.120   3.003   1.313  0.2083  0.8863  0.0908
  996MOL0     C34363   5.182   2.883   1.236  1.3412 -0.4243 -0.4522
  996MOL0     C34364   5.301   2.917   1.158 -0.4293  0.0729  0.5225
  996MOL0     C34365   5.337   2.803   1.059  0.0109  0.2912  0.0138
  996MOL0     C34366   5.477   2.849   0.998 -0.2787 -0.0379  0.2141
  996MOL0     C34367   5.533   2.746   0.896  0.2002  0.8509  0.5548
  996MOL0     C34368   5.554   2.599   0.953  0.6093  0.0034  0.9057
  996MOL0     C34369   5.664   2.588   1.047 -1.4713 -0.1563 -0.0216
  996MOL0    Cl34370   5.832   2.588   0.975  0.1068 -0.0618 -0.3435
  996MOL0     C34371   4.822   2.987   1.497  0.2883  0.7740 -0.1355
  996MOL0     C34372   4.732   3.050   1.582  0.7874  0.1160  0.4071
  996MOL0     O34373   4.483   3.251   1.566 -0.4218 -0.2281 -0.3104
  996MOL0     C34374   4.326   3.352   1.758  0.0881 -1.4915 -0.2406
  996MOL0     C34375   4.241   3.437   1.830 -0.1493 -0.1764 -0.5650
  996MOL0     N34376   4.487   3.957   2.201 -0.4740  0.1873 -0.9739
  996MOL0     N34377   4.602   3.954   2.148  0.0653  0.1554  0.1202
  996MOL0     C34378   5.637   3.915   2.236  0.4907  0.4633 -0.3113
  996MOL0     C34379   5.725   3.808   2.213  0.1086  0.8715  0.9519
  996MOL0     C34380   5.992   3.497   2.201  0.0992  0.6209 -0.2249
  996MOL0     C34381   6.102   3.473   2.285 -0.2647 -0.0442  0.5383
  996MOL0     C34382   6.219   3.413   2.242  0.2033 -0.2364  0.5186
  996MOL0     C34383   6.235   3.387   2.106 -0.1766  0.1820  0.1184
  996MOL0     O34384   6.350   3.348   2.048 -0.0199  0.0857 -0.2527
  996MOL0     C34385   6.473   3.327   2.129 -0.3969 -0.1171  0.2967
  996MOL0     C34386   6.576   3.248   2.041 -0.2707  0.2600  0.8516
  996MOL0     C34387   6.694   3.203   2.130  0.1080 -0.7158 -0.3842
  996MOL0     C34388   6.824   3.195   2.049 -0.3968 -0.1793 -0.1694
  996MOL0     C34389   6.907   3.113   2.131 -0.3437  0.1343 -0.2815
  996MOL0     C34390   6.988   3.047   2.203 -0.6035  0.2071 -0.4165
  996MOL0     C34391   6.124   3.406   2.027 -1.1759  0.0487 -0.1246
  996MOL0     C34392   6.009   3.455   2.068  0.6538  0.3895 -0.3840
  996MOL0     H34393   5.518   3.545   2.181 -3.9472  1.5373  1.5560
  996MOL0     H34394   5.355   3.711   2.260  0.2363 -1.7040  0.5212
  996MOL0     H34395   5.489   4.147   2.276 -0.3347  0.1752  0.5586
  996MOL0     H34396   5.425   4.117   2.110  0.9878  1.1315 -0.6365
  996MOL0     H34397   5.227   4.154   2.334  3.2772 -1.7192  1.1287
  996MOL0     H34398   5.306   4.277   2.232 -0.4639  0.2264  3.1195
  996MOL0     H34399   5.207   4.121   2.025 -0.9093  1.2885 -0.4113
  996MOL0     H34400   5.110   4.056   2.155  0.7559 -0.2050 -1.1804
  996MOL0     H34401   5.021   4.295   2.194 -0.8305  0.5214 -0.4634
  996MOL0     H34402   5.147   4.350   2.070  0.6890 -0.3293  0.4422
  996MOL0     H34403   4.922   4.366   1.969 -2.0462 -0.6646  1.2799
  996MOL0     H34404   5.023   4.239   1.894  2.7881 -1.6836  1.1368
  996MOL0     H34405   4.913   4.063   2.025 -1.3507 -0.0806  0.5829
  996MOL0     H34406   4.815   4.181   2.108 -1.4542 -2.8390 -0.4239
  996MOL0     H34407   4.695   4.242   1.907 -2.9053 -2.2037  0.6077
  996MOL0     H34408   4.825   4.161   1.811 -1.1580 -0.6255 -2.6013
  996MOL0     H34409   4.733   3.935   1.913 -0.5535  1.0819 -0.5137
  996MOL0     H34410   4.617   4.028   1.826 -0.4520 -1.9836  1.0841
  996MOL0     H34411   4.427   4.157   1.946  4.0225  1.4005 -1.1242
  996MOL0     H34412   4.242   4.026   2.257  2.2656 -1.5492  0.3391
  996MOL0     H34413   4.237   4.161   2.159 -0.8409 -0.2770  0.6721
  996MOL0     H34414   4.180   3.994   1.947  1.0253  1.9758  0.1917
  996MOL0     H34415   4.073   4.033   2.067 -1.3412 -1.5819 -3.4992
  996MOL0     H34416   4.057   3.790   2.036  0.8806 -1.3375 -0.5661
  996MOL0     H34417   4.149   3.805   2.186 -1.8095 -1.6327  0.2949
  996MOL0     H34418   4.348   3.720   2.085  0.5110  0.8468  0.2774
  996MOL0     H34419   4.312   3.800   1.929  4.3873  0.9041  2.4264
  996MOL0     H34420   4.492   3.621   1.962 -0.2540  0.2638  0.1836
  996MOL0     H34421   4.713   3.512   1.914  0.3493  3.2818  0.1596
  996MOL0     H34422   4.718   3.452   1.745  1.4716  0.8979 -0.4241
  996MOL0     H34423   4.673   3.624   1.784  0.8237  0.2825  2.7127
  996MOL0     H34424   4.862   3.367   1.574 -0.7483 -0.0778 -0.0215
  996MOL0     H34425   5.027   3.239   1.428 -1.6515 -1.3248 -3.2034
  996MOL0     H34426   5.119   3.077   1.232 -1.8254 -0.6257 -1.3761
  996MOL0     H34427   5.174   3.043   1.399  0.3954  1.3941 -0.2535
  996MOL0     H34428   5.199   2.796   1.300  2.8891  0.2861  0.1468
  996MOL0     H34429   5.095   2.855   1.177  1.2731  1.3178 -1.2469
  996MOL0     H34430   5.384   2.938   1.225  0.9249 -2.1177 -0.3993
  996MOL0     H34431   5.286   3.008   1.099  0.0063  1.0957  1.9214
  996MOL0     H34432   5.346   2.709   1.115 -0.7048  0.0227 -0.3153
  996MOL0     H34433   5.259   2.792   0.983 -1.7981 -0.8749  1.9338
  996MOL0     H34434   5.549   2.884   1.072 -1.1636  0.5089  0.8361
  996MOL0     H34435   5.451   2.935   0.936  1.0996 -0.3487 -0.8254
  996MOL0     H34436   5.464   2.726   0.813  0.3795  0.7419  0.4334
  996MOL0     H34437   5.629   2.781   0.858 -1.4706  2.7317 -2.3129
  996MOL0     H34438   5.581   2.535   0.868  0.6920 -0.2402  1.1123
  996MOL0     H34439   5.462   2.567   1.002  1.2810 -0.2139  2.0789
  996MOL0     H34440   5.661   2.503   1.116  1.0570 -1.5583 -1.4714
  996MOL0     H34441   5.668   2.679   1.108 -0.0567  1.4631 -2.3759
  996MOL0     H34442   4.802   2.882   1.476  2.1532 -0.1347  2.1314
  996MOL0     H34443   4.641   2.995   1.604 -0.9847  1.5911 -2.6060
  996MOL0     H34444   4.278   3.280   1.693 -1.5628 -0.9549  0.3155
  996MOL0     H34445   4.134   3.420   1.837 -0.0742 -0.1168  1.4450
  996MOL0     H34446   5.663   4.018   2.258 -1.2372  0.4121  2.4855
  996MOL0     H34447   5.832   3.827   2.213  0.0769  1.0881  1.4784
  996MOL0     H34448   6.112   3.498   2.390 -0.5436  1.0174  0.3288
  996MOL0     H34449   6.289   3.386   2.320 -1.1588 -1.7489  1.2861
  996MOL0     H34450   6.513   3.418   2.174 -2.2237  0.6920  0.3752
  996MOL0     H34451   6.447   3.272   2.220  0.9383  1.5497  1.7794
  996MOL0     H34452   6.602   3.316   1.960 -3.6847  0.5860 -0.1500
  996MOL0     H34453   6.528   3.158   2.001  1.4813 -1.5742  2.6253
  996MOL0     H34454   6.667   3.106   2.171 -0.0894  0.1397  1.6316
  996MOL0     H34455   6.715   3.279   2.205 -0.3584  1.0953 -1.9907
  996MOL0     H34456   6.866   3.295   2.038  1.1610 -0.3615  3.1529
  996MOL0     H34457   6.808   3.139   1.956 -0.3918 -0.3038 -0.0957
  996MOL0     H34458   7.054   2.995   2.270 -1.3939  0.4558  0.5825
  996MOL0     H34459   6.140   3.378   1.924 -1.6172  3.7035 -1.3412
  996MOL0     H34460   5.924   3.470   2.003 -1.6740  1.0727  2.5764
  997MOL0     O34461   9.269   0.790   6.609 -0.3879  0.0280 -0.7634
  997MOL0     C34462   9.276   0.834   6.490  0.7272  0.3851 -0.8008
  997MOL0     O34463   9.382   0.823   6.405  0.1652 -0.6099 -0.1601
  997MOL0     C34464   9.512   0.790   6.453  0.1289 -0.1473  0.3644
  997MOL0     C34465   9.593   0.726   6.366  0.0833 -0.1927  0.9234
  997MOL0     C34466   9.722   0.691   6.399  0.4204  0.5811 -1.6229
  997MOL0     C34467   9.777   0.719   6.520 -0.1927 -0.1755 -0.2246
  997MOL0     O34468   9.894   0.672   6.575 -0.6385  0.2610  0.0363
  997MOL0     C34469  10.001   0.624   6.490  1.1748  0.0284 -0.2349
  997MOL0     C34470  10.134   0.625   6.550  0.3527 -0.5491 -0.0796
  997MOL0     C34471  10.248   0.574   6.454 -0.2837 -0.0847 -0.8822
  997MOL0     C34472  10.378   0.547   6.527 -0.0433  0.1930 -0.7446
  997MOL0     C34473  10.490   0.648   6.497 -0.5876 -0.2190  0.3224
  997MOL0     C34474  10.550   0.613   6.359  0.5428 -0.3680  0.1412
  997MOL0     C34475  10.689   0.665   6.343 -1.1091  0.7851  0.9940
  997MOL0     C34476  10.747   0.615   6.209  0.8225 -0.0066  0.1516
  997MOL0     N34477  10.874   0.679   6.184  0.3712 -0.6421  0.1320
  997MOL0     C34478  10.993   0.630   6.235 -0.7026  0.1323 -0.3322
  997MOL0     C34479  11.095   0.688   6.168 -0.2494 -0.1986 -0.8991
  997MOL0     C34480  11.242   0.661   6.186 -0.5024  0.7615  0.2078
  997MOL0     C34481  11.306   0.740   6.299  0.0398 -0.3882  0.1280
  997MOL0     C34482  11.357   0.878   6.253 -0.2212  0.1835  0.1939
  997MOL0     C34483  11.487   0.866   6.179 -0.8712 -0.6248  0.1997
  997MOL0     O34484  11.537   0.987   6.115 -0.1504 -0.0063 -0.3548
  997MOL0     C34485  11.548   1.110   6.182  0.4851 -0.3797 -0.2581
  997MOL0     C34486  11.581   1.121   6.315 -0.1901 -0.4202  0.1094
  997MOL0     C34487  11.617   1.240   6.369 -0.7377 -0.8980 -0.2704
  997MOL0     C34488  11.682   1.245   6.496 -0.5956 -0.2150 -0.2560
  997MOL0     C34489  11.611   1.357   6.294 -0.5029 -0.9463 -0.3530
  997MOL0     C34490  11.641   1.492   6.341  0.4914 -1.1789  0.0256
  997MOL0     O34491  11.577   1.524   6.451  0.6410 -0.6529 -0.3654
  997MOL0     C34492  11.587   1.656   6.479 -0.4361 -0.3065  0.3960
  997MOL0     C34493  11.517   1.757   6.405  0.0063  0.1674 -0.7160
  997MOL0     C34494  11.505   1.890   6.453 -0.6330  0.1770 -0.4804
  997MOL0     C34495  11.568   1.922   6.572  0.5257 -0.2554 -0.3813
  997MOL0     O34496  11.550   2.048   6.614 -0.0533 -0.7918  0.6530
  997MOL0     C34497  11.486   2.061   6.740 -0.2544 -0.1789  0.6401
  997MOL0     C34498  11.451   2.218   6.764  0.0480 -0.4605  0.5060
  997MOL0     C34499  11.357   2.262   6.661 -0.2684  0.6618  1.0266
  997MOL0     C34500  11.222   2.187   6.638 -0.7762  0.5403  0.2806
  997MOL0     C34501  11.126   2.271   6.546  0.1775  0.8256  0.3615
  997MOL0     C34502  11.065   2.390   6.595  0.2325  0.4637  0.3090
  997MOL0     C34503  10.952   2.439   6.501 -0.2159  0.4343 -0.0977
  997MOL0     C34504  11.016   2.520   6.382  0.5377  1.0566  0.1623
  997MOL0    Cl34505  11.063   2.683   6.436 -0.2294  0.2467  0.1796
  997MOL0     C34506  11.645   1.830   6.645 -0.1571 -0.8042 -0.4505
  997MOL0     C34507  11.652   1.702   6.599 -0.1000  0.9699  1.0397
  997MOL0     O34508  11.704   1.569   6.265  0.6967  0.4374  0.6402
  997MOL0     C34509  11.562   1.351   6.161  0.9594  1.0400  0.4805
  997MOL0     C34510  11.534   1.222   6.102 -0.5427  0.3607 -0.4055
  997MOL0     N34511  11.037   0.773   6.075 -0.5088 -0.4189 -0.4555
  997MOL0     N34512  10.899   0.768   6.081  0.3745 -0.3063  0.1259
  997MOL0     C34513   9.694   0.778   6.612 -0.0347 -0.3219  0.2699
  997MOL0     C34514   9.564   0.818   6.579 -1.0057 -0.3696 -0.1654
  997MOL0     C34515   9.154   0.892   6.429  0.4974 -0.1780 -0.3716
  997MOL0     C34516   9.024   0.878   6.488 -0.0349  0.3115  0.0585
  997MOL0     C34517   8.907   0.928   6.411  0.0077  0.3404 -0.1232
  997MOL0     C34518   8.919   0.988   6.290 -0.3978 -1.3884 -0.3389
  997MOL0     O34519   8.811   1.051   6.231 -0.0408  0.5450  0.4802
  997MOL0     C34520   8.819   1.120   6.107 -0.1227 -0.0531 -0.0146
  997MOL0     C34521   8.682   1.131   6.044  0.2023 -0.7663  0.4311
  997MOL0     C34522   8.678   1.208   5.908 -0.6210 -0.4004 -0.0956
  997MOL0     C34523   8.799   1.193   5.817  0.2387  0.4044 -0.1003
  997MOL0     C34524   8.807   1.055   5.764  0.6418 -0.1410 -0.1343
  997MOL0     C34525   8.807   0.940   5.736  0.8330 -0.6005  0.2522
  997MOL0     C34526   9.049   1.012   6.237 -0.1470  0.4667 -0.4413
  997MOL0     C34527   9.166   0.953   6.305 -0.8794 -0.0615  0.3088
  997MOL0     H34528   9.551   0.702   6.269 -4.5196  1.1314  2.3393
  997MOL0     H34529   9.785   0.633   6.332  1.7000  0.7705 -0.6132
  997MOL0     H34530   9.977   0.535   6.430 -1.0485  0.5873 -0.2754
  997MOL0     H34531  10.006   0.683   6.398 -0.8648 -2.8226 -2.3785
  997MOL0     H34532  10.159   0.726   6.581  2.2148 -1.4783  1.7134
  997MOL0     H34533  10.135   0.569   6.645  0.0124  1.4202  1.1364
  997MOL0     H34534  10.217   0.476   6.417  1.1420 -0.3763 -1.3806
  997MOL0     H34535  10.262   0.636   6.365 -1.0107  0.7998 -0.4004
  997MOL0     H34536  10.361   0.546   6.635 -2.7454  1.8702 -1.0667
  997MOL0     H34537  10.414   0.446   6.507  0.0275  0.2104 -0.7058
  997MOL0     H34538  10.456   0.751   6.512  0.6267  0.3290 -0.4781
  997MOL0     H34539  10.562   0.616   6.574 -0.9993 -2.2708 -0.0867
  997MOL0     H34540  10.548   0.505   6.345 -2.3254 -0.2247 -1.2293
  997MOL0     H34541  10.486   0.663   6.285  2.3984 -0.5753 -1.6867
  997MOL0     H34542  10.681   0.774   6.347  0.5684  1.1087 -2.0052
  997MOL0     H34543  10.749   0.641   6.431  1.1380  1.5408 -0.2736
  997MOL0     H34544  10.671   0.638   6.134 -1.3197  0.2902  2.3093
  997MOL0     H34545  10.761   0.506   6.206 -3.7333 -0.7671 -0.4614
  997MOL0     H34546  11.004   0.545   6.301  1.3328  2.2768  2.3114
  997MOL0     H34547  11.257   0.557   6.215  2.2836  1.2546  0.7500
  997MOL0     H34548  11.284   0.664   6.085 -2.0497 -3.7133 -0.8178
  997MOL0     H34549  11.393   0.682   6.332 -0.4682 -0.2194  1.8548
  997MOL0     H34550  11.235   0.751   6.381 -0.0235  2.2041 -0.1860
  997MOL0     H34551  11.364   0.951   6.335  0.8610  2.5045 -1.8403
  997MOL0     H34552  11.289   0.924   6.181  4.1063 -0.0459 -4.6663
  997MOL0     H34553  11.486   0.790   6.101 -1.9094  1.3980 -1.8896
  997MOL0     H34554  11.576   0.850   6.242  1.0428  2.0974 -1.5670
  997MOL0     H34555  11.583   1.042   6.389  3.4372  0.7601  1.5227
  997MOL0     H34556  11.784   1.286   6.491 -0.5238 -0.3807 -0.1511
  997MOL0     H34557  11.617   1.300   6.565 -1.5297  1.9107 -2.6526
  997MOL0     H34558  11.691   1.141   6.527 -0.2237 -0.4579 -1.1417
  997MOL0     H34559  11.452   1.733   6.322 -1.4303 -2.7069  1.0760
  997MOL0     H34560  11.435   1.960   6.409 -1.0426  0.6305  0.8376
  997MOL0     H34561  11.402   1.992   6.745 -0.5714  0.1780  0.3166
  997MOL0     H34562  11.549   2.037   6.827  0.8879  2.6731  0.7141
  997MOL0     H34563  11.395   2.225   6.858 -1.7236  3.2229 -0.6228
  997MOL0     H34564  11.539   2.282   6.770 -0.0067 -0.4146  0.8836
  997MOL0     H34565  11.411   2.262   6.566  2.0371 -0.2292  2.2583
  997MOL0     H34566  11.340   2.368   6.682  1.5520  0.9602  1.0957
  997MOL0     H34567  11.236   2.095   6.582 -0.2759  0.3899  0.6473
  997MOL0     H34568  11.174   2.168   6.734 -2.3556  0.7183 -0.4396
  997MOL0     H34569  11.056   2.193   6.515  3.5838 -1.3219 -2.7270
  997MOL0     H34570  11.190   2.306   6.465  0.2176  4.0696  1.6338
  997MOL0     H34571  11.009   2.358   6.684  0.5821 -0.8347  0.0897
  997MOL0     H34572  11.139   2.465   6.623 -1.1077  1.9685 -0.0468
  997MOL0     H34573  10.880   2.498   6.558  0.3177  0.2112  0.8397
  997MOL0     H34574  10.904   2.350   6.457  2.2614 -1.5138  0.8893
  997MOL0     H34575  10.947   2.534   6.299  0.4757 -1.5503 -0.3126
  997MOL0     H34576  11.098   2.462   6.339 -0.5235 -2.1656  2.1500
  997MOL0     H34577  11.699   1.859   6.735 -1.0883 -0.6282  0.0693
  997MOL0     H34578  11.710   1.623   6.646  1.4829  0.0464 -2.1540
  997MOL0     H34579  11.575   1.429   6.086  0.4204 -0.1014 -0.8444
  997MOL0     H34580  11.522   1.217   5.994 -0.6489 -0.7827 -0.3524
  997MOL0     H34581   9.740   0.796   6.709  1.2243 -2.4055  0.1210
  997MOL0     H34582   9.498   0.855   6.658 -1.4647 -0.5502 -0.4594
  997MOL0     H34583   9.013   0.838   6.588  2.4906  0.0943  0.3159
  997MOL0     H34584   8.806   0.939   6.450  0.3691 -1.6249  1.5776
  997MOL0     H34585   8.854   1.224   6.113  0.7755 -0.3094 -0.5800
  997MOL0     H34586   8.888   1.064   6.044 -3.2067 -1.5761 -2.3047
  997MOL0     H34587   8.600   1.171   6.105 -1.6432  0.5789 -2.6882
  997MOL0     H34588   8.643   1.031   6.026  0.3263 -0.9563  1.1993
  997MOL0     H34589   8.662   1.315   5.920 -0.1904  0.1692 -3.4527
  997MOL0     H34590   8.590   1.164   5.860 -0.6653 -0.5138  0.0896
  997MOL0     H34591   8.886   1.218   5.878  0.8860  0.5925 -1.0779
  997MOL0     H34592   8.805   1.266   5.735  0.9356  1.6324  1.0196
  997MOL0     H34593   8.813   0.836   5.714  1.4829 -1.1455  2.6935
  997MOL0     H34594   9.071   1.048   6.137 -0.3031 -0.1907 -0.7197
  997MOL0     H34595   9.264   0.967   6.262 -0.0697 -2.4258  1.2348
  998MOL0     O34596   1.853   2.951   4.046  0.2589 -0.5884 -0.3040
  998MOL0     C34597   1.947   2.943   3.971  0.1870  0.1411  0.1397
  998MOL0     O34598   1.941   2.889   3.852  0.9433  0.0911 -0.1954
  998MOL0     C34599   1.836   2.812   3.798 -0.4968 -0.9869  0.5651
  998MOL0     C34600   1.714   2.779   3.861  0.0832  0.5566  0.1268
  998MOL0     C34601   1.612   2.709   3.785 -0.1909 -0.6863  0.5861
  998MOL0     C34602   1.639   2.664   3.654  0.0332 -0.1572 -0.2898
  998MOL0     O34603   1.553   2.570   3.599 -0.1073 -0.0760 -0.4993
  998MOL0     C34604   1.417   2.625   3.571 -1.3212  0.0815  1.0128
  998MOL0     C34605   1.377   2.591   3.430  0.2833  0.1699  0.4848
  998MOL0     C34606   1.356   2.443   3.419 -0.2573  0.2169 -0.2113
  998MOL0     C34607   1.343   2.404   3.266  0.0857  0.8729 -0.8909
  998MOL0     C34608   1.361   2.251   3.246 -0.0458  0.9331 -0.3444
  998MOL0     C34609   1.331   2.217   3.096  0.2306 -0.5695 -0.5638
  998MOL0     C34610   1.384   2.080   3.061  0.3544  0.1876  0.5953
  998MOL0     C34611   1.526   2.076   3.004 -0.5168 -0.7002 -0.8702
  998MOL0     N34612   1.619   2.017   3.104  0.4626 -0.0820  0.4235
  998MOL0     C34613   1.605   1.896   3.167 -0.4806  1.2371  0.1544
  998MOL0     C34614   1.729   1.871   3.222 -0.3625 -0.1333  0.5138
  998MOL0     C34615   1.774   1.760   3.320 -0.3577  0.1468  0.1890
  998MOL0     C34616   1.887   1.683   3.267 -0.8072 -1.0427 -0.4703
  998MOL0     C34617   1.849   1.615   3.140  0.0646  0.0251 -0.5700
  998MOL0     C34618   1.971   1.568   3.052  0.8426 -0.4635 -0.6354
  998MOL0     O34619   1.930   1.523   2.917 -0.8967  0.0110  0.7454
  998MOL0     C34620   1.936   1.620   2.818  0.0311 -0.1083 -0.2974
  998MOL0     C34621   1.914   1.759   2.835  0.0084  0.4543 -0.8239
  998MOL0     C34622   1.903   1.838   2.729 -0.2193 -1.0827  1.2900
  998MOL0     C34623   1.879   1.986   2.762  0.6380  0.6829 -0.2523
  998MOL0     C34624   1.904   1.789   2.592  0.3187 -0.3066 -0.9210
  998MOL0     C34625   1.892   1.879   2.471  0.0403  0.1665 -1.0380
  998MOL0     O34626   1.828   1.813   2.361  0.0198 -0.0426 -0.6683
  998MOL0     C34627   1.789   1.883   2.251 -0.0554 -0.2438  0.2438
  998MOL0     C34628   1.655   1.873   2.197 -0.6805  0.4369 -0.2040
  998MOL0     C34629   1.618   1.945   2.083  0.5261  0.8518  0.3120
  998MOL0     C34630   1.702   2.045   2.036  1.0759 -0.0687  0.2292
  998MOL0     O34631   1.654   2.107   1.918  0.2027  0.6181 -0.4333
  998MOL0     C34632   1.731   2.199   1.840 -0.8892 -0.2576  0.3143
  998MOL0     C34633   1.649   2.233   1.706  0.8186  0.2320 -0.5833
  998MOL0     C34634   1.704   2.364   1.651  1.1421 -0.9342 -0.7673
  998MOL0     C34635   1.652   2.403   1.517 -1.0152 -0.3837 -0.1769
  998MOL0     C34636   1.717   2.529   1.471 -0.1247  0.1390 -0.7338
  998MOL0     C34637   1.700   2.571   1.324 -0.2465  0.2533 -0.5787
  998MOL0     C34638   1.756   2.477   1.221 -0.2417 -0.6345  0.5649
  998MOL0     C34639   1.894   2.433   1.251 -0.5253 -0.1077 -0.9592
  998MOL0    Cl34640   1.961   2.315   1.139  0.2268 -0.2975 -0.2522
  998MOL0     C34641   1.834   2.056   2.075  1.1021  0.2135  0.0293
  998MOL0     C34642   1.875   1.983   2.185 -0.0706  0.7844 -0.1014
  998MOL0     O34643   1.930   2.000   2.467  0.1871  0.0103 -0.2354
  998MOL0     C34644   1.931   1.649   2.577 -0.0546  0.4719 -0.3704
  998MOL0     C34645   1.950   1.571   2.688  0.7201  0.0993 -0.1822
  998MOL0     N34646   1.815   1.979   3.172  0.1431  1.2200 -0.8741
  998MOL0     N34647   1.745   2.063   3.112 -0.1223 -0.8973  0.4014
  998MOL0     C34648   1.756   2.696   3.590  0.0330 -0.5803 -0.5951
  998MOL0     C34649   1.846   2.782   3.660 -0.3857  0.4856  0.5749
  998MOL0     C34650   2.076   3.016   3.992 -1.1902  0.1164  0.7227
  998MOL0     C34651   2.076   3.123   4.075 -0.2885  0.5224 -0.6211
  998MOL0     C34652   2.186   3.201   4.110  0.1851  0.4647 -1.0749
  998MOL0     C34653   2.307   3.166   4.055  0.5321 -1.0922 -0.0145
  998MOL0     O34654   2.412   3.235   4.103 -0.2836  0.8804 -0.1433
  998MOL0     C34655   2.551   3.198   4.077  0.1640 -1.4295  0.2083
  998MOL0     C34656   2.611   3.200   4.216  0.7521 -0.3988 -0.1328
  998MOL0     C34657   2.621   3.352   4.270 -0.2817 -0.3250  0.2803
  998MOL0     C34658   2.669   3.355   4.420  0.2140 -0.2241 -0.6004
  998MOL0     C34659   2.679   3.492   4.465 -0.4811  0.4221  1.1950
  998MOL0     C34660   2.700   3.609   4.480  0.1082  0.0765 -0.7638
  998MOL0     C34661   2.323   3.048   3.966 -0.0089 -0.1003 -0.1950
  998MOL0     C34662   2.204   2.972   3.941 -0.4913  0.3160 -0.0263
  998MOL0     H34663   1.685   2.793   3.965 -5.0228 -2.6392 -0.5383
  998MOL0     H34664   1.517   2.686   3.831 -1.2619  2.7145  0.3654
  998MOL0     H34665   1.351   2.582   3.647  0.0284  1.0248  2.7917
  998MOL0     H34666   1.407   2.733   3.578 -1.7446 -0.0011  1.6917
  998MOL0     H34667   1.288   2.652   3.413  0.2932  0.6583  2.0439
  998MOL0     H34668   1.455   2.626   3.362  2.9233 -1.6790  2.3534
  998MOL0     H34669   1.438   2.392   3.471 -0.4322  2.2156  2.2283
  998MOL0     H34670   1.269   2.416   3.480 -1.2599  1.2440 -1.1590
  998MOL0     H34671   1.241   2.431   3.234 -1.2855 -2.1607  0.4529
  998MOL0     H34672   1.417   2.460   3.209  0.7346 -0.3210 -1.2577
  998MOL0     H34673   1.455   2.200   3.269 -1.9318 -2.8717 -0.2171
  998MOL0     H34674   1.288   2.192   3.302  0.9674  0.6166  0.6788
  998MOL0     H34675   1.223   2.214   3.077  0.6066 -2.8644 -2.8286
  998MOL0     H34676   1.369   2.296   3.029  0.8622  0.8772  1.3888
  998MOL0     H34677   1.372   2.023   3.154 -0.1229  1.6026  1.4366
  998MOL0     H34678   1.317   2.048   2.981 -0.0445  0.7368  0.7117
  998MOL0     H34679   1.571   2.174   2.985  0.8445 -0.7256  1.7880
  998MOL0     H34680   1.532   2.019   2.911  2.6053  0.0703 -1.2321
  998MOL0     H34681   1.511   1.844   3.177  0.8166 -2.4051 -3.5708
  998MOL0     H34682   1.809   1.804   3.414  0.2081 -1.2241  0.6495
  998MOL0     H34683   1.687   1.697   3.341 -1.5089  1.8488  0.7492
  998MOL0     H34684   1.927   1.612   3.339 -1.0491 -1.9467 -1.2067
  998MOL0     H34685   1.963   1.759   3.249 -0.8964 -0.6333  0.7701
  998MOL0     H34686   1.799   1.675   3.063  2.5541  1.3189 -1.2983
  998MOL0     H34687   1.790   1.528   3.168  1.9020 -1.6881 -1.7565
  998MOL0     H34688   2.011   1.488   3.114 -1.7515 -0.7579  0.8217
  998MOL0     H34689   2.041   1.651   3.041 -2.1063  2.0936 -1.6057
  998MOL0     H34690   1.912   1.806   2.932  0.1817  1.9477 -1.5150
  998MOL0     H34691   1.826   2.033   2.678  2.2071  1.8514 -0.6340
  998MOL0     H34692   1.837   2.011   2.860 -0.3155 -2.3212  0.2066
  998MOL0     H34693   1.974   2.038   2.773  1.8444 -1.2611 -0.8940
  998MOL0     H34694   1.583   1.805   2.243 -2.9845  3.5302  1.1184
  998MOL0     H34695   1.526   1.920   2.031  1.6207 -3.3185 -0.0343
  998MOL0     H34696   1.748   2.290   1.899 -1.9858  0.6098 -0.6600
  998MOL0     H34697   1.824   2.156   1.801 -1.8891 -0.7178 -1.7055
  998MOL0     H34698   1.647   2.147   1.638 -3.5103  0.3397 -0.8696
  998MOL0     H34699   1.544   2.256   1.723  1.8695  3.0686  3.5715
  998MOL0     H34700   1.813   2.350   1.653  1.1769 -0.9950  2.5994
  998MOL0     H34701   1.679   2.454   1.709 -1.3710 -1.7440 -0.4678
  998MOL0     H34702   1.685   2.321   1.452  2.8555  0.5897  0.3151
  998MOL0     H34703   1.542   2.399   1.519 -0.9625 -2.6798  1.2249
  998MOL0     H34704   1.823   2.536   1.497 -0.3105 -0.4626  0.2193
  998MOL0     H34705   1.662   2.605   1.528  0.2945 -0.2856  0.2524
  998MOL0     H34706   1.597   2.595   1.296 -1.0645 -1.8802  0.4265
  998MOL0     H34707   1.763   2.660   1.319  1.8511 -0.7973  3.0754
  998MOL0     H34708   1.737   2.531   1.128 -2.0300 -1.2698  0.5126
  998MOL0     H34709   1.694   2.388   1.204 -2.2207  1.2204 -3.0609
  998MOL0     H34710   1.899   2.398   1.355  4.2876  0.1600 -0.8785
  998MOL0     H34711   1.956   2.523   1.254  0.8803 -0.9962 -1.9613
  998MOL0     H34712   1.907   2.122   2.029  0.3761  1.3909  0.5613
  998MOL0     H34713   1.972   2.018   2.221  0.3610  1.2550 -1.6271
  998MOL0     H34714   1.960   1.610   2.480  1.1364 -1.3337  0.6559
  998MOL0     H34715   1.985   1.468   2.690 -0.9309 -0.4819  0.2100
  998MOL0     H34716   1.783   2.647   3.497  0.3302 -1.3294 -0.1216
  998MOL0     H34717   1.936   2.820   3.611 -0.8458  0.4114 -0.3506
  998MOL0     H34718   1.987   3.148   4.133 -0.1036 -2.6180  1.2240
  998MOL0     H34719   2.171   3.287   4.175  0.8216 -1.6903  2.1457
  998MOL0     H34720   2.567   3.097   4.039  2.8126 -1.1621  0.4353
  998MOL0     H34721   2.587   3.285   4.021 -2.4481 -0.2195  0.2702
  998MOL0     H34722   2.714   3.165   4.211  1.6909  1.9147  1.3417
  998MOL0     H34723   2.557   3.138   4.288  1.5215 -2.7896 -1.5078
  998MOL0     H34724   2.524   3.403   4.264  0.3435  0.7171 -1.4183
  998MOL0     H34725   2.692   3.408   4.210 -1.2748  1.4807  0.7290
  998MOL0     H34726   2.763   3.300   4.429  0.0519 -0.4997 -0.5936
  998MOL0     H34727   2.605   3.295   4.486  1.3692 -0.3352  0.4599
  998MOL0     H34728   2.717   3.710   4.511  2.4833 -0.5615  0.2097
  998MOL0     H34729   2.411   3.012   3.914 -2.9349 -2.0525 -4.3865
  998MOL0     H34730   2.206   2.886   3.874 -0.5287 -1.0925  1.6939
  999MOL0     O34731   9.101   3.951   3.474 -0.0988 -0.2096  0.0870
  999MOL0     C34732   9.171   4.040   3.437 -0.7022  0.1512  0.0998
  999MOL0     O34733   9.302   4.054   3.478  0.2189 -0.0797 -0.2335
  999MOL0     C34734   9.370   3.953   3.525  0.0350 -0.4400 -0.7258
  999MOL0     C34735   9.401   3.838   3.455  0.1559  1.1685 -0.3049
  999MOL0     C34736   9.476   3.736   3.517  0.8229 -0.3145  0.5847
  999MOL0     C34737   9.522   3.745   3.650 -0.5064  0.4275  1.1845
  999MOL0     O34738   9.596   3.649   3.714  0.0220  0.5998  0.2648
  999MOL0     C34739   9.589   3.514   3.680  0.5022 -0.2977 -0.0639
  999MOL0     C34740   9.461   3.443   3.711 -0.1316  0.8278 -0.1008
  999MOL0     C34741   9.437   3.448   3.857 -0.8190  0.8813 -0.1883
  999MOL0     C34742   9.318   3.360   3.904  0.0760  0.7849 -0.9022
  999MOL0     C34743   9.278   3.383   4.053 -0.5145 -0.8106 -0.8880
  999MOL0     C34744   9.389   3.344   4.153  0.5379  0.4756  0.7465
  999MOL0     C34745   9.385   3.425   4.280  1.2914  0.8040  0.5220
  999MOL0     C34746   9.261   3.380   4.358  0.1564  0.5554 -0.2744
  999MOL0     N34747   9.253   3.426   4.500 -0.0503  0.3710 -0.8312
  999MOL0     C34748   9.342   3.403   4.605 -0.8562 -0.1039 -0.5009
  999MOL0     C34749   9.286   3.453   4.714  0.3880  0.0020  0.2927
  999MOL0     C34750   9.352   3.464   4.845 -0.2746  0.4895 -0.4941
  999MOL0     C34751   9.304   3.348   4.936  0.5694 -0.4894 -0.4800
  999MOL0     C34752   9.337   3.203   4.880  0.3556 -0.2976 -0.1603
  999MOL0     C34753   9.480   3.180   4.818 -1.0668 -0.5413 -0.8444
  999MOL0     O34754   9.576   3.220   4.921 -0.1555 -0.0119  0.0226
  999MOL0     C34755   9.712   3.181   4.916  0.3982  0.0626 -0.3273
  999MOL0     C34756   9.778   3.104   4.821  0.1573 -0.2904 -0.4848
  999MOL0     C34757   9.910   3.067   4.842 -0.2034  0.6621  0.4604
  999MOL0     C34758   9.951   2.977   4.721  0.1781 -1.0614 -0.6838
  999MOL0     C34759   9.990   3.113   4.951 -0.4086  0.6276 -0.4629
  999MOL0     C34760  10.142   3.077   4.961 -0.1203  0.0966 -0.9741
  999MOL0     O34761  10.184   2.961   4.903 -0.9386 -0.0798  0.0502
  999MOL0     C34762  10.317   2.942   4.880 -0.0949 -0.0544  0.1449
  999MOL0     C34763  10.349   2.881   4.759 -0.0315  0.2850 -0.0747
  999MOL0     C34764  10.484   2.844   4.735  0.4576  0.1590  0.8908
  999MOL0     C34765  10.587   2.876   4.825  0.6297 -0.2657  0.6689
  999MOL0     O34766  10.719   2.852   4.798 -0.2449 -0.1729  0.3857
  999MOL0     C34767  10.761   2.826   4.659  0.2328  0.4091  0.4162
  999MOL0     C34768  10.907   2.880   4.633  0.1622  0.2355  0.3905
  999MOL0     C34769  10.958   2.854   4.485  0.0824  0.0550  0.3125
  999MOL0     C34770  11.045   2.723   4.470  0.5227 -0.6545 -0.0916
  999MOL0     C34771  10.968   2.599   4.487  0.4612  0.8199 -0.0428
  999MOL0     C34772  11.071   2.488   4.456 -0.1719 -0.3471  0.2445
  999MOL0     C34773  11.021   2.341   4.464 -0.1452  1.3163 -0.7857
  999MOL0     C34774  10.953   2.284   4.343  0.2626  0.0160 -0.5234
  999MOL0    Cl34775  10.774   2.336   4.338  0.2401 -0.4893 -0.1296
  999MOL0     C34776  10.553   2.936   4.947  0.0146 -0.2908 -0.0362
  999MOL0     C34777  10.426   2.971   4.968  0.4080  0.0201 -0.2129
  999MOL0     O34778  10.206   3.162   5.016 -0.6897 -0.6471 -0.3585
  999MOL0     C34779   9.926   3.205   5.038 -0.0052 -0.2756  0.2923
  999MOL0     C34780   9.788   3.235   5.021  0.4110  0.4184  0.5240
  999MOL0     N34781   9.170   3.511   4.678  0.1539 -0.1494  0.2741
  999MOL0     N34782   9.152   3.501   4.549  0.8922  0.0284 -0.0688
  999MOL0     C34783   9.495   3.859   3.717 -0.4838  0.2512  0.5096
  999MOL0     C34784   9.425   3.966   3.655 -0.5171  0.9435 -0.2707
  999MOL0     C34785   9.118   4.141   3.351  0.4603 -0.1211  0.7628
  999MOL0     C34786   9.188   4.253   3.333  0.1852 -1.0957  0.5267
  999MOL0     C34787   9.127   4.361   3.254  0.6380 -0.8830  0.6302
  999MOL0     C34788   9.008   4.347   3.186  0.5722  0.7999 -0.4795
  999MOL0     O34789   8.961   4.434   3.088  0.1185  0.1113  0.1446
  999MOL0     C34790   9.032   4.543   3.043 -0.4435 -0.4430  0.9316
  999MOL0     C34791   8.961   4.619   2.933  0.0949 -1.5337 -0.5882
  999MOL0     C34792   8.814   4.657   2.980 -0.3577 -0.1811  0.3626
  999MOL0     C34793   8.740   4.694   2.847 -0.7699  0.7834  0.3310
  999MOL0     C34794   8.606   4.749   2.866  0.3497 -0.2724  0.1259
  999MOL0     C34795   8.490   4.775   2.871 -0.5228 -0.4308 -0.2004
  999MOL0     C34796   8.928   4.233   3.207 -0.1038 -0.3991 -0.3535
  999MOL0     C34797   8.991   4.139   3.288 -0.3201  0.8504  0.3567
  999MOL0     H34798   9.363   3.838   3.354 -2.7537  2.6381  0.6834
  999MOL0     H34799   9.501   3.655   3.449  0.1110  0.2697 -0.4095
  999MOL0     H34800   9.599   3.495   3.573 -2.6125 -1.3204 -0.2845
  999MOL0     H34801   9.681   3.469   3.719  1.6637  0.0634 -2.2173
  999MOL0     H34802   9.380   3.489   3.653  1.6205 -0.9497 -4.4306
  999MOL0     H34803   9.470   3.338   3.684 -0.2472  0.7762  0.0667
  999MOL0     H34804   9.521   3.419   3.920 -2.5014 -0.9000  1.3660
  999MOL0     H34805   9.414   3.552   3.882  1.1217  0.6792  2.9343
  999MOL0     H34806   9.227   3.378   3.846  1.4305  2.5932 -2.5975
  999MOL0     H34807   9.352   3.256   3.904  1.5370  1.2288 -0.6685
  999MOL0     H34808   9.262   3.492   4.055 -1.0043 -0.8788  1.7818
  999MOL0     H34809   9.178   3.343   4.070 -2.4714  3.4085 -1.0046
  999MOL0     H34810   9.365   3.239   4.174 -0.6592  0.1637 -1.7743
  999MOL0     H34811   9.484   3.348   4.098  0.8843 -1.4601  1.1376
  999MOL0     H34812   9.477   3.412   4.338  1.9156  1.9884 -0.1789
  999MOL0     H34813   9.378   3.527   4.242  0.5862  0.0144 -1.5957
  999MOL0     H34814   9.248   3.271   4.355 -1.1904  0.7176 -0.5975
  999MOL0     H34815   9.182   3.416   4.291 -0.5289 -0.5631 -0.0903
  999MOL0     H34816   9.442   3.364   4.590 -1.7240 -3.1183  0.7888
  999MOL0     H34817   9.460   3.475   4.835 -0.2617 -0.1338 -1.1559
  999MOL0     H34818   9.312   3.551   4.897 -0.3900  0.7160 -0.9541
  999MOL0     H34819   9.196   3.354   4.948  0.6917  0.8893  0.0712
  999MOL0     H34820   9.330   3.373   5.039 -1.0599 -1.4759  0.2087
  999MOL0     H34821   9.270   3.185   4.796 -1.6960  3.4015  0.4852
  999MOL0     H34822   9.320   3.128   4.958 -0.7244  1.1563  1.0402
  999MOL0     H34823   9.510   3.226   4.723  1.0829 -0.6231 -0.2460
  999MOL0     H34824   9.495   3.073   4.802  0.9280 -1.4212  4.6758
  999MOL0     H34825   9.713   3.051   4.752 -0.9848 -2.2537  1.9190
  999MOL0     H34826   9.996   2.882   4.753  0.5650 -1.2681 -1.7740
  999MOL0     H34827   9.869   2.948   4.654 -0.6155  0.7909 -0.5599
  999MOL0     H34828  10.030   3.025   4.662 -0.0037  0.9092  0.5979
  999MOL0     H34829  10.276   2.844   4.687  4.7350 -3.8966 -3.5759
  999MOL0     H34830  10.494   2.790   4.641 -0.2287  1.9502 -0.2705
  999MOL0     H34831  10.750   2.718   4.643  1.3672 -0.3885  3.9879
  999MOL0     H34832  10.694   2.881   4.592 -0.4366  0.5586  1.2031
  999MOL0     H34833  10.901   2.988   4.649 -0.1362  0.5839 -1.8012
  999MOL0     H34834  10.983   2.842   4.701  0.1850 -1.7344 -0.6537
  999MOL0     H34835  11.021   2.941   4.465  0.8263 -0.0798  1.9543
  999MOL0     H34836  10.874   2.855   4.415  0.0501 -0.8062  0.3243
  999MOL0     H34837  11.083   2.720   4.368 -0.4894 -1.3054 -0.4673
  999MOL0     H34838  11.134   2.727   4.534  0.2938  1.6279  0.1585
  999MOL0     H34839  10.883   2.589   4.417 -1.0115  2.2661  1.4375
  999MOL0     H34840  10.920   2.575   4.582 -3.4260 -2.5690 -2.5158
  999MOL0     H34841  11.089   2.511   4.350 -4.3533 -0.0485 -0.5684
  999MOL0     H34842  11.162   2.513   4.511  0.2455  0.2203 -0.6899
  999MOL0     H34843  10.954   2.325   4.549 -0.7824  2.0335 -1.1454
  999MOL0     H34844  11.113   2.286   4.488 -1.4087 -0.4662  0.1093
  999MOL0     H34845  10.956   2.175   4.359  0.8523 -0.1137 -1.4323
  999MOL0     H34846  11.002   2.307   4.248 -0.0560 -1.3317 -1.0442
  999MOL0     H34847  10.627   2.960   5.023 -3.4162  1.0544  3.2074
  999MOL0     H34848  10.399   3.020   5.061  1.0167  0.1890 -0.1247
  999MOL0     H34849   9.983   3.243   5.123  0.0768  0.9942 -0.2935
  999MOL0     H34850   9.734   3.290   5.098  0.1178 -0.4434  0.9499
  999MOL0     H34851   9.544   3.867   3.813 -0.3387 -2.5247  0.7289
  999MOL0     H34852   9.409   4.052   3.719  0.9523  0.5267  0.7093
  999MOL0     H34853   9.290   4.249   3.369  0.3358 -2.6115  0.0204
  999MOL0     H34854   9.183   4.453   3.242  0.3226 -0.8496 -0.7418
  999MOL0     H34855   9.058   4.602   3.132 -0.2649 -1.0038  1.2616
  999MOL0     H34856   9.125   4.515   2.991 -1.8564 -0.9751 -1.4523
  999MOL0     H34857   8.948   4.557   2.843 -0.1969 -1.0674 -0.8706
  999MOL0     H34858   9.022   4.707   2.912  0.5864 -1.8002 -0.3067
  999MOL0     H34859   8.818   4.746   3.043  1.3559  0.1915 -0.2348
  999MOL0     H34860   8.768   4.571   3.030  1.5556 -0.9778  0.8270
  999MOL0     H34861   8.725   4.612   2.777 -2.4235  1.7095 -0.4646
  999MOL0     H34862   8.799   4.772   2.797  0.1614  0.2317  0.5357
  999MOL0     H34863   8.384   4.790   2.877 -0.1989  2.9283 -0.6908
  999MOL0     H34864   8.837   4.205   3.154  0.6585  1.0912 -2.5967
  999MOL0     H34865   8.930   4.051   3.306  0.5092  0.0420 -0.6598
 1000MOL0     O34866  10.384   1.744   1.203  1.0162  0.5756 -0.0782
 1000MOL0     C34867  10.364   1.827   1.117 -0.5713 -0.3188 -0.6276
 1000MOL0     O34868  10.369   1.960   1.134  0.3172  0.0204  0.1560
 1000MOL0     C34869  10.350   2.019   1.259  0.3271  0.6369 -0.4688
 1000MOL0     C34870  10.431   2.125   1.301 -0.5896  0.1924  0.4934
 1000MOL0     C34871  10.417   2.175   1.430 -1.5983 -0.1909  0.7342
 1000MOL0     C34872  10.310   2.134   1.513 -0.2149  0.7419 -0.0716
 1000MOL0     O34873  10.279   2.189   1.639  0.4855 -0.0799 -0.0006
 1000MOL0     C34874  10.376   2.254   1.721 -0.7011 -0.0384 -0.5272
 1000MOL0     C34875  10.320   2.388   1.761  0.0648 -0.3649  0.4751
 1000MOL0     C34876  10.401   2.470   1.854  0.2076  0.1434 -0.7327
 1000MOL0     C34877  10.367   2.621   1.852  0.6611 -1.3756  0.4920
 1000MOL0     C34878  10.379   2.682   1.995 -0.5957 -1.0001 -0.1839
 1000MOL0     C34879  10.315   2.827   1.998 -0.7269  0.0092  0.1514
 1000MOL0     C34880  10.362   2.909   2.126  0.4423 -0.6479  1.3864
 1000MOL0     C34881  10.368   3.062   2.100 -0.0875  0.3352 -0.2285
 1000MOL0     N34882  10.407   3.138   2.225  0.7554 -0.5037  0.7196
 1000MOL0     C34883  10.507   3.226   2.235  0.0024  0.1863 -1.7811
 1000MOL0     C34884  10.494   3.286   2.352  0.0899  0.4416  0.0682
 1000MOL0     C34885  10.574   3.401   2.419  0.7809  0.6715 -0.1237
 1000MOL0     C34886  10.584   3.533   2.335  0.4241  1.0440  0.7515
 1000MOL0     C34887  10.697   3.536   2.229 -0.1602 -1.3704 -0.6651
 1000MOL0     C34888  10.742   3.676   2.174 -0.3779 -0.7050  0.2711
 1000MOL0     O34889  10.793   3.771   2.266 -0.4190  0.9051 -0.0725
 1000MOL0     C34890  10.921   3.753   2.311 -0.0544 -0.6319  0.7080
 1000MOL0     C34891  11.017   3.669   2.252 -0.2246 -0.6879 -0.1877
 1000MOL0     C34892  11.143   3.643   2.309  0.4299 -0.1712  0.0605
 1000MOL0     C34893  11.230   3.551   2.225 -0.3901 -0.0350  0.6364
 1000MOL0     C34894  11.168   3.704   2.430  0.4589  0.0038  0.1931
 1000MOL0     C34895  11.298   3.680   2.501  0.4100  0.3372 -0.3220
 1000MOL0     O34896  11.339   3.779   2.590  0.1275  0.1145  0.2551
 1000MOL0     C34897  11.450   3.747   2.663  1.0092  1.4755 -0.7169
 1000MOL0     C34898  11.565   3.831   2.668 -1.4314 -0.3115  0.8694
 1000MOL0     C34899  11.682   3.803   2.753  0.5715  0.0898 -0.0901
 1000MOL0     C34900  11.685   3.693   2.828  0.5306  0.0460  0.6541
 1000MOL0     O34901  11.785   3.662   2.922  0.5834 -0.3717  0.5734
 1000MOL0     C34902  11.730   3.664   3.053  0.8933 -0.7030  0.2755
 1000MOL0     C34903  11.825   3.639   3.174  0.0350 -0.6641  0.2563
 1000MOL0     C34904  11.932   3.752   3.196  0.6080 -0.4493 -0.2555
 1000MOL0     C34905  12.071   3.712   3.263  0.1231  0.5947 -0.9530
 1000MOL0     C34906  12.115   3.827   3.358  0.1206 -0.4965  0.0042
 1000MOL0     C34907  12.263   3.828   3.388 -0.7597 -0.6786 -0.1448
 1000MOL0     C34908  12.351   3.850   3.261  0.3699  0.1253  0.5730
 1000MOL0     C34909  12.306   3.963   3.167  0.2995 -0.0941 -0.1838
 1000MOL0    Cl34910  12.402   3.976   3.022  0.2276  0.0627  0.2150
 1000MOL0     C34911  11.571   3.593   2.810 -0.4379 -0.8113 -0.3316
 1000MOL0     C34912  11.462   3.627   2.731  1.0011  0.2410 -0.6594
 1000MOL0     O34913  11.345   3.569   2.487 -0.5552  0.5577 -0.1071
 1000MOL0     C34914  11.081   3.797   2.484  0.1004 -0.9167 -0.5517
 1000MOL0     C34915  10.958   3.819   2.428 -0.1236 -0.1244  0.0876
 1000MOL0     N34916  10.373   3.241   2.410 -0.8479  0.0647  0.0902
 1000MOL0     N34917  10.322   3.161   2.328 -0.4331  0.1001 -0.1912
 1000MOL0     C34918  10.222   2.034   1.465 -0.0564 -1.4099 -0.5975
 1000MOL0     C34919  10.249   1.972   1.345  0.0948 -0.6879 -0.1978
 1000MOL0     C34920  10.320   1.773   0.983  0.3265 -0.3128  0.5166
 1000MOL0     C34921  10.330   1.638   0.943  0.2275  0.0188 -0.2665
 1000MOL0     C34922  10.295   1.588   0.819  0.3232 -0.0539 -0.9443
 1000MOL0     C34923  10.238   1.673   0.722 -0.2660  0.5855  0.9523
 1000MOL0     O34924  10.208   1.611   0.604  0.3739 -0.5538  0.7130
 1000MOL0     C34925  10.108   1.690   0.532  0.3609 -0.0479 -0.4445
 1000MOL0     C34926  10.068   1.623   0.408  0.4545  0.4197  0.2951
 1000MOL0     C34927  10.108   1.480   0.390 -0.9026  0.1270 -0.1964
 1000MOL0     C34928  10.056   1.410   0.263 -0.0535  0.0116  0.1526
 1000MOL0     C34929  10.074   1.265   0.265  0.2021  0.9645  0.0479
 1000MOL0     C34930  10.102   1.143   0.260 -0.6302 -0.4162  0.1173
 1000MOL0     C34931  10.228   1.810   0.757 -0.4548  1.0539  0.9353
 1000MOL0     C34932  10.259   1.851   0.880  0.0402  0.3412  0.0166
 1000MOL0     H34933  10.505   2.147   1.225 -2.1036  0.6726 -0.9064
 1000MOL0     H34934  10.499   2.240   1.458  1.4555 -1.9406 -3.2262
 1000MOL0     H34935  10.391   2.190   1.808 -2.6002 -0.3094 -0.3502
 1000MOL0     H34936  10.466   2.283   1.667 -0.9572  0.4443 -0.7015
 1000MOL0     H34937  10.303   2.445   1.669  0.8136 -1.2312 -0.2154
 1000MOL0     H34938  10.233   2.359   1.820  1.2398  0.5269  2.7960
 1000MOL0     H34939  10.390   2.429   1.955 -1.0010 -0.3555 -1.0516
 1000MOL0     H34940  10.510   2.461   1.842  0.3209  0.6512 -0.1338
 1000MOL0     H34941  10.425   2.677   1.778 -1.4044 -1.5873 -1.3830
 1000MOL0     H34942  10.260   2.628   1.833  0.0930  0.5683  3.6966
 1000MOL0     H34943  10.314   2.619   2.056 -1.0794  1.7090  2.3439
 1000MOL0     H34944  10.483   2.685   2.031  0.6192 -1.9732 -3.3048
 1000MOL0     H34945  10.336   2.885   1.908 -0.4309 -1.4266 -0.7417
 1000MOL0     H34946  10.207   2.824   2.015 -1.3858  4.2032 -2.0537
 1000MOL0     H34947  10.304   2.886   2.216 -0.3622 -3.7946  0.1870
 1000MOL0     H34948  10.464   2.877   2.148  1.6321  2.6879  1.3064
 1000MOL0     H34949  10.270   3.095   2.065  0.8974  1.3919 -2.1758
 1000MOL0     H34950  10.433   3.070   2.012  2.9364 -0.3573  1.7913
 1000MOL0     H34951  10.587   3.245   2.164  2.1671 -0.0766  0.4446
 1000MOL0     H34952  10.520   3.418   2.512  1.3871  0.8037  0.2104
 1000MOL0     H34953  10.671   3.360   2.449  0.8076  0.5072 -0.4347
 1000MOL0     H34954  10.591   3.607   2.415 -1.7900  0.0536  1.9277
 1000MOL0     H34955  10.494   3.562   2.280  2.0257  5.0586 -0.0831
 1000MOL0     H34956  10.658   3.475   2.148  1.1703 -1.8924 -0.9272
 1000MOL0     H34957  10.778   3.482   2.279  0.0321  0.7269  1.4694
 1000MOL0     H34958  10.651   3.725   2.139  0.5105  0.6918 -0.1550
 1000MOL0     H34959  10.809   3.666   2.089 -2.4182  4.4240 -2.3876
 1000MOL0     H34960  10.988   3.603   2.171 -2.2891 -2.3723  1.7753
 1000MOL0     H34961  11.332   3.590   2.219 -0.7102  1.1782  2.3627
 1000MOL0     H34962  11.219   3.446   2.256 -1.3318  0.2960  1.4907
 1000MOL0     H34963  11.204   3.542   2.119  1.0484 -1.7188  0.3728
 1000MOL0     H34964  11.564   3.916   2.601  0.6759 -0.4138  0.6218
 1000MOL0     H34965  11.769   3.866   2.771  0.8571 -0.2594 -0.2396
 1000MOL0     H34966  11.690   3.765   3.066  2.8289  0.3851 -1.6207
 1000MOL0     H34967  11.645   3.596   3.061  1.4572 -1.2864  1.6520
 1000MOL0     H34968  11.758   3.618   3.258  0.0711 -0.8505  0.2390
 1000MOL0     H34969  11.872   3.543   3.153  2.5013  0.8038 -1.3753
 1000MOL0     H34970  11.878   3.825   3.257 -1.0392 -1.8417  0.0327
 1000MOL0     H34971  11.953   3.799   3.100  1.3627  2.7384  1.3151
 1000MOL0     H34972  12.060   3.628   3.333  1.2413  2.0942  1.1162
 1000MOL0     H34973  12.143   3.667   3.194  1.0116  1.7819 -0.8324
 1000MOL0     H34974  12.060   3.807   3.450 -3.0527 -0.3985 -1.7236
 1000MOL0     H34975  12.094   3.930   3.327 -0.4818 -0.2897  1.0632
 1000MOL0     H34976  12.275   3.914   3.453 -2.6132  0.1082 -0.7622
 1000MOL0     H34977  12.296   3.736   3.437  1.1596  1.8743  3.8976
 1000MOL0     H34978  12.334   3.762   3.197 -1.5597 -0.3208  1.6258
 1000MOL0     H34979  12.456   3.848   3.291  0.4182  0.2541  0.4139
 1000MOL0     H34980  12.308   4.060   3.218 -0.2398 -0.0235 -0.2901
 1000MOL0     H34981  12.202   3.960   3.135 -0.2584  1.9670  1.2721
 1000MOL0     H34982  11.569   3.495   2.857  0.6078 -1.6204 -1.8812
 1000MOL0     H34983  11.372   3.568   2.745  1.1114  0.1143 -0.4771
 1000MOL0     H34984  11.099   3.835   2.584 -3.0939 -2.7863  0.9078
 1000MOL0     H34985  10.892   3.897   2.465  0.1999  0.0314  0.3547
 1000MOL0     H34986  10.141   1.992   1.524  0.1932  0.8184  1.5128
 1000MOL0     H34987  10.181   1.900   1.300  1.0676 -1.2809 -0.7550
 1000MOL0     H34988  10.368   1.563   1.012  0.3407  0.7277  0.4656
 1000MOL0     H34989  10.307   1.483   0.794 -0.2097 -0.4536  0.4146
 1000MOL0     H34990  10.028   1.701   0.606  0.0311 -1.3148 -0.5983
 1000MOL0     H34991  10.145   1.789   0.504 -2.4351  0.8435 -1.3310
 1000MOL0     H34992  10.116   1.680   0.328  0.1275 -1.0284 -0.9967
 1000MOL0     H34993   9.960   1.631   0.392  0.5872  0.0806 -0.9193
 1000MOL0     H34994  10.071   1.428   0.478  2.5417  0.3194  1.5309
 1000MOL0     H34995  10.216   1.484   0.371 -0.7509  2.2209  0.7188
 1000MOL0     H34996  10.091   1.456   0.170 -0.7072  0.4878  0.1412
 1000MOL0     H34997   9.947   1.414   0.262 -0.0348  2.1319 -1.8724
 1000MOL0     H34998  10.113   1.037   0.261  1.1879 -0.2570  1.8522
 1000MOL0     H34999  10.187   1.878   0.682  0.2190 -0.6421 -1.0828
 1000MOL0     H35000  10.261   1.957   0.901  2.0865  0.8607 -2.3950
 1001MOL0     O35001   5.657   3.829   1.823  0.8334 -0.5005 -0.4498
 1001MOL0     C35002   5.618   3.723   1.806 -0.8323  0.2085  0.9591
 1001MOL0     O35003   5.686   3.619   1.753 -0.5331  0.1095  0.7714
 1001MOL0     C35004   5.823   3.621   1.731  0.0662  0.3207  0.1240
 1001MOL0     C35005   5.915   3.706   1.783 -0.8240  0.0480  1.0421
 1001MOL0     C35006   6.055   3.677   1.777  1.1663 -0.2361  0.2143
 1001MOL0     C35007   6.099   3.546   1.729  0.0592 -0.1284 -0.7011
 1001MOL0     O35008   6.231   3.515   1.714  0.2552 -0.0304  0.6441
 1001MOL0     C35009   6.328   3.613   1.764  0.3172  0.0539  0.0361
 1001MOL0     C35010   6.471   3.552   1.758  0.3969  0.7366 -0.2335
 1001MOL0     C35011   6.576   3.665   1.757  0.3372 -0.8722 -0.0875
 1001MOL0     C35012   6.710   3.614   1.755 -0.2358 -0.0041 -0.1574
 1001MOL0     C35013   6.797   3.741   1.757 -1.0675  0.0064  0.4184
 1001MOL0     C35014   6.947   3.714   1.746 -0.2736  0.7126 -0.0582
 1001MOL0     C35015   7.030   3.838   1.759  0.4509 -0.4062  0.0292
 1001MOL0     C35016   7.172   3.807   1.766 -0.5390 -0.3724 -0.1015
 1001MOL0     N35017   7.250   3.933   1.731  0.3331 -0.0110 -0.2852
 1001MOL0     C35018   7.274   3.990   1.608  0.0378  0.8455 -0.7961
 1001MOL0     C35019   7.338   4.106   1.627 -0.1035  0.4225 -1.4607
 1001MOL0     C35020   7.376   4.203   1.528  0.1564 -0.4513 -0.1788
 1001MOL0     C35021   7.259   4.247   1.446 -0.6387  0.4367 -0.6232
 1001MOL0     C35022   7.160   4.350   1.521 -0.0755 -0.6562 -0.1606
 1001MOL0     C35023   7.047   4.274   1.597 -0.5972  0.2328 -0.8022
 1001MOL0     O35024   6.961   4.200   1.502 -0.9337 -0.2463 -0.4055
 1001MOL0     C35025   6.834   4.179   1.538  0.2079 -0.0124  0.2520
 1001MOL0     C35026   6.780   4.184   1.668 -0.0034  0.4733  0.2359
 1001MOL0     C35027   6.644   4.157   1.695  0.0426 -0.0770  0.2800
 1001MOL0     C35028   6.598   4.184   1.834 -0.7140  0.4184  0.0386
 1001MOL0     C35029   6.553   4.118   1.596  0.0579  1.0549 -0.2461
 1001MOL0     C35030   6.420   4.082   1.620  0.4187 -0.6102 -0.0689
 1001MOL0     O35031   6.331   4.130   1.520  0.1840 -0.5590  0.1237
 1001MOL0     C35032   6.221   4.058   1.483  0.3793  0.6324 -0.6717
 1001MOL0     C35033   6.100   4.122   1.446  0.1543  0.5658  0.3156
 1001MOL0     C35034   5.982   4.052   1.391 -0.2362  0.0372 -0.3430
 1001MOL0     C35035   5.974   3.915   1.387 -1.1542  0.1623  0.7951
 1001MOL0     O35036   5.877   3.837   1.342  0.7735  0.8963  0.9370
 1001MOL0     C35037   5.764   3.824   1.442 -0.4858 -0.7910 -0.5205
 1001MOL0     C35038   5.665   3.713   1.397 -0.3291  0.3206  0.2771
 1001MOL0     C35039   5.562   3.762   1.298 -0.6908  0.9199 -0.5657
 1001MOL0     C35040   5.495   3.653   1.212  0.8731  0.1673 -0.1297
 1001MOL0     C35041   5.372   3.709   1.138 -0.2411 -1.0161  1.0536
 1001MOL0     C35042   5.305   3.597   1.063  0.7777  0.1508 -0.5967
 1001MOL0     C35043   5.236   3.496   1.160  0.0597 -0.7639 -0.0399
 1001MOL0     C35044   5.173   3.375   1.091 -0.5586  0.0352  0.5251
 1001MOL0    Cl35045   5.314   3.261   1.041 -0.1158  0.2427  0.3358
 1001MOL0     C35046   6.091   3.847   1.443 -0.9365 -0.5793  0.5702
 1001MOL0     C35047   6.210   3.919   1.486  0.0934 -0.0245 -0.4858
 1001MOL0     O35048   6.386   4.021   1.719 -0.6375 -0.0462 -0.2382
 1001MOL0     C35049   6.604   4.119   1.461 -0.2882  0.6375 -0.2449
 1001MOL0     C35050   6.745   4.143   1.434  0.6896 -0.4884  0.9636
 1001MOL0     N35051   7.353   4.126   1.758 -0.0366  0.3344 -1.2639
 1001MOL0     N35052   7.304   4.021   1.816 -0.2537  0.0283  0.2835
 1001MOL0     C35053   6.003   3.456   1.699  0.2888  0.8881 -0.0504
 1001MOL0     C35054   5.869   3.493   1.696  0.4579  0.3117  0.0073
 1001MOL0     C35055   5.479   3.697   1.846  0.4980 -0.2951  0.5807
 1001MOL0     C35056   5.398   3.804   1.884  0.3579 -0.2530 -1.0074
 1001MOL0     C35057   5.273   3.773   1.936  0.2740  0.5935  0.1739
 1001MOL0     C35058   5.225   3.641   1.940  0.7504 -0.3396 -0.5073
 1001MOL0     O35059   5.091   3.630   1.963 -0.2102  0.0122  0.3221
 1001MOL0     C35060   5.055   3.618   2.106 -0.9040 -0.6611  0.4280
 1001MOL0     C35061   4.908   3.672   2.116 -0.0229 -0.0841  0.9791
 1001MOL0     C35062   4.821   3.612   2.235  0.2609 -0.0596 -1.3287
 1001MOL0     C35063   4.893   3.606   2.375 -0.3000  0.4980  0.9094
 1001MOL0     C35064   4.966   3.733   2.411  0.4082 -0.2730  0.1193
 1001MOL0     C35065   5.016   3.846   2.431  0.5169 -0.1234 -0.2753
 1001MOL0     C35066   5.311   3.538   1.908 -0.0242  0.9010  0.6258
 1001MOL0     C35067   5.433   3.567   1.856  0.1991  0.4362  0.8483
 1001MOL0     H35068   5.868   3.800   1.810 -1.4907  0.4066 -1.1715
 1001MOL0     H35069   6.119   3.760   1.806  0.4362  1.2871 -2.2068
 1001MOL0     H35070   6.320   3.696   1.694  1.3424  0.3748  0.2878
 1001MOL0     H35071   6.296   3.644   1.864 -2.0631  1.1809 -0.9869
 1001MOL0     H35072   6.487   3.466   1.823 -0.7459  0.4665 -0.2880
 1001MOL0     H35073   6.484   3.500   1.662 -1.0296  1.2470 -0.7297
 1001MOL0     H35074   6.557   3.731   1.672  1.0180 -1.3405 -0.6186
 1001MOL0     H35075   6.556   3.726   1.845  0.0337  2.1537 -2.1225
 1001MOL0     H35076   6.711   3.547   1.842 -0.3419 -3.4553 -2.6141
 1001MOL0     H35077   6.729   3.544   1.673 -0.1479 -2.0231  1.4965
 1001MOL0     H35078   6.784   3.798   1.664  1.2542  0.3408  0.2257
 1001MOL0     H35079   6.780   3.802   1.846 -1.5553 -1.3055  1.2493
 1001MOL0     H35080   6.961   3.639   1.824 -3.5736  1.2804  1.2686
 1001MOL0     H35081   6.983   3.670   1.652 -0.8237  0.9959 -0.4129
 1001MOL0     H35082   7.010   3.897   1.669 -2.9056  1.2290  1.6364
 1001MOL0     H35083   7.002   3.891   1.851  1.4194  0.8247 -0.3615
 1001MOL0     H35084   7.204   3.729   1.695  2.1208  1.3820 -0.9865
 1001MOL0     H35085   7.204   3.783   1.868 -0.0768 -1.3790 -0.4656
 1001MOL0     H35086   7.231   3.960   1.513 -2.5455 -2.6733  1.2467
 1001MOL0     H35087   7.418   4.290   1.579  0.1574 -0.1907 -0.6185
 1001MOL0     H35088   7.452   4.171   1.455  1.4775  0.1285  0.9034
 1001MOL0     H35089   7.191   4.171   1.407 -1.6445 -1.0755  3.5045
 1001MOL0     H35090   7.302   4.298   1.360  0.8035 -1.2302 -0.9506
 1001MOL0     H35091   7.118   4.417   1.445  0.1462 -0.6812 -0.3032
 1001MOL0     H35092   7.215   4.415   1.590  2.1503  0.9611 -3.2350
 1001MOL0     H35093   6.981   4.337   1.657 -1.3531 -2.1470  1.0050
 1001MOL0     H35094   7.088   4.200   1.667  2.5907  1.6913 -0.9579
 1001MOL0     H35095   6.849   4.197   1.751 -0.3003  2.4545  0.2001
 1001MOL0     H35096   6.685   4.229   1.883  2.3207 -0.8621 -3.6681
 1001MOL0     H35097   6.514   4.253   1.840  0.1422  1.4044  1.3111
 1001MOL0     H35098   6.574   4.096   1.895 -0.3981 -0.6084 -1.2807
 1001MOL0     H35099   6.099   4.230   1.451 -0.0198  0.5383  0.9469
 1001MOL0     H35100   5.898   4.117   1.370 -0.5868  0.1214  1.1899
 1001MOL0     H35101   5.801   3.803   1.543 -1.6167  0.9389  0.2994
 1001MOL0     H35102   5.707   3.916   1.449  1.7814  0.6435  0.3039
 1001MOL0     H35103   5.716   3.629   1.350 -0.6621  2.7075 -4.9990
 1001MOL0     H35104   5.608   3.664   1.477 -0.7143 -0.7927 -0.6415
 1001MOL0     H35105   5.605   3.836   1.230  2.1463 -0.0322  0.0297
 1001MOL0     H35106   5.493   3.822   1.357 -0.5862  0.1715  0.3505
 1001MOL0     H35107   5.567   3.609   1.142 -1.7757 -2.4267 -1.4530
 1001MOL0     H35108   5.454   3.572   1.274  1.9371 -1.0586 -0.9923
 1001MOL0     H35109   5.423   3.771   1.063  1.5882 -1.9272  1.4619
 1001MOL0     H35110   5.299   3.765   1.196 -1.1119  0.6413 -1.4783
 1001MOL0     H35111   5.220   3.644   1.011 -1.3791  0.7930  3.1773
 1001MOL0     H35112   5.375   3.555   0.989 -0.6698 -0.0828 -1.8858
 1001MOL0     H35113   5.159   3.557   1.209  0.5466  1.8694 -2.2959
 1001MOL0     H35114   5.297   3.447   1.236 -0.2316 -3.6865 -1.5408
 1001MOL0     H35115   5.124   3.409   1.000  1.9741  0.3043 -0.8485
 1001MOL0     H35116   5.100   3.329   1.158 -3.0229  1.6323 -0.9304
 1001MOL0     H35117   6.080   3.740   1.427 -0.1772 -0.6086  0.1860
 1001MOL0     H35118   6.297   3.864   1.520  0.4065  1.2693  0.8799
 1001MOL0     H35119   6.535   4.096   1.381 -0.0452  1.8203 -0.8225
 1001MOL0     H35120   6.782   4.142   1.332 -2.7992  0.8865 -0.4813
 1001MOL0     H35121   6.019   3.350   1.681 -1.9514  0.7282 -1.5234
 1001MOL0     H35122   5.796   3.417   1.669  2.6511 -1.9092 -0.0975
 1001MOL0     H35123   5.441   3.904   1.890 -0.1857  0.1782 -3.2471
 1001MOL0     H35124   5.212   3.846   1.989  3.6230  1.0336  3.9010
 1001MOL0     H35125   5.064   3.514   2.140 -1.5786 -0.9300 -0.1981
 1001MOL0     H35126   5.114   3.685   2.169 -0.3761 -0.6411 -0.0855
 1001MOL0     H35127   4.856   3.650   2.022  2.2053 -1.2564 -0.0414
 1001MOL0     H35128   4.928   3.779   2.112 -5.6945  1.2610 -0.6451
 1001MOL0     H35129   4.771   3.522   2.199 -4.2978  0.2397  3.0807
 1001MOL0     H35130   4.739   3.682   2.258  0.3254 -0.6733  0.9527
 1001MOL0     H35131   4.954   3.515   2.378 -4.3866 -2.7048 -1.7057
 1001MOL0     H35132   4.816   3.598   2.453 -0.9544 -1.7643  0.1302
 1001MOL0     H35133   5.071   3.935   2.458  1.9607 -1.9238  3.3666
 1001MOL0     H35134   5.281   3.434   1.918  0.6022  0.6502 -0.0308
 1001MOL0     H35135   5.492   3.480   1.829 -1.6939 -0.2781 -1.3435
 1002MOL0     O35136   1.016   0.302   8.795  0.5270 -0.4486 -0.1542
 1002MOL0     C35137   0.957   0.204   8.741 -0.0193  0.4980  0.2799
 1002MOL0     O35138   0.979   0.072   8.787  0.5707 -0.7601  0.4705
 1002MOL0     C35139   1.044   0.032   8.900  0.0941 -0.0976  0.2151
 1002MOL0     C35140   0.960  -0.022   9.003 -0.0769  0.0109 -0.6079
 1002MOL0     C35141   1.022  -0.087   9.119 -0.9017 -0.2591  0.7867
 1002MOL0     C35142   1.163  -0.093   9.122 -0.3441  0.7278 -0.2846
 1002MOL0     O35143   1.215  -0.179   9.219 -0.0383  0.0693 -0.0540
 1002MOL0     C35144   1.314  -0.269   9.176 -0.5380  0.6140  0.6041
 1002MOL0     C35145   1.451  -0.225   9.209  0.9960 -0.0575 -0.2303
 1002MOL0     C35146   1.562  -0.294   9.128 -0.9034  0.5806 -0.3326
 1002MOL0     C35147   1.693  -0.224   9.174  0.6684  0.3427 -0.4498
 1002MOL0     C35148   1.812  -0.285   9.095  0.0285  0.4621 -0.1591
 1002MOL0     C35149   1.935  -0.241   9.163 -0.8806 -1.1558 -0.0510
 1002MOL0     C35150   1.975  -0.090   9.139 -0.1556  0.5825 -1.4946
 1002MOL0     C35151   2.021  -0.065   8.991 -0.6761  1.2167 -0.4834
 1002MOL0     N35152   2.145  -0.143   8.953  0.0393  1.4115 -0.3353
 1002MOL0     C35153   2.254  -0.169   9.030 -0.1500 -0.3068  0.3426
 1002MOL0     C35154   2.337  -0.253   8.971  0.5356  0.6114 -0.3142
 1002MOL0     C35155   2.466  -0.327   9.002  0.2861 -0.6328 -0.4959
 1002MOL0     C35156   2.595  -0.238   8.988 -0.3627 -0.0154  0.5400
 1002MOL0     C35157   2.613  -0.212   8.833 -0.6225  0.4284 -0.3370
 1002MOL0     C35158   2.743  -0.135   8.807 -0.1806  1.0898 -0.7199
 1002MOL0     O35159   2.724  -0.006   8.877  0.7316  0.2315 -0.0753
 1002MOL0     C35160   2.837   0.064   8.907  0.6483  0.2208 -1.7942
 1002MOL0     C35161   2.832   0.173   8.995 -0.0460  0.8394 -0.8404
 1002MOL0     C35162   2.946   0.244   9.036 -0.2549 -0.0999  0.2248
 1002MOL0     C35163   2.915   0.342   9.138  0.4912 -0.6815 -0.2660
 1002MOL0     C35164   3.072   0.221   8.965  0.6639  0.9924 -0.0700
 1002MOL0     C35165   3.188   0.295   8.991 -0.8794 -0.1514 -0.3197
 1002MOL0     O35166   3.177   0.428   9.017 -0.6623 -0.7838  0.2263
 1002MOL0     C35167   3.293   0.509   9.020 -0.5438 -0.3238  0.4587
 1002MOL0     C35168   3.393   0.502   8.918  0.7327  0.4519  0.2532
 1002MOL0     C35169   3.509   0.580   8.910 -0.0787  0.0318  0.0161
 1002MOL0     C35170   3.529   0.676   9.014 -0.6677  0.6771 -1.4405
 1002MOL0     O35171   3.655   0.740   9.031 -0.1442  0.2651 -0.4302
 1002MOL0     C35172   3.694   0.736   9.163  0.3158 -0.0745 -0.0508
 1002MOL0     C35173   3.827   0.804   9.185 -1.1675 -0.3814 -0.3130
 1002MOL0     C35174   3.882   0.804   9.340  0.6901  0.4098 -0.9941
 1002MOL0     C35175   4.026   0.849   9.365 -0.1986 -0.1332 -0.1621
 1002MOL0     C35176   4.112   0.726   9.323 -0.6967  0.6558  0.1414
 1002MOL0     C35177   4.261   0.741   9.331 -0.8985 -0.0587 -0.0201
 1002MOL0     C35178   4.342   0.630   9.272 -0.1833  0.5619 -0.3547
 1002MOL0     C35179   4.339   0.514   9.377  0.0056 -0.8778  0.7178
 1002MOL0    Cl35180   4.406   0.372   9.305  0.1374  0.0004  0.1508
 1002MOL0     C35181   3.424   0.688   9.113  0.4411  0.0153 -0.3182
 1002MOL0     C35182   3.312   0.609   9.113  0.6358 -0.4858 -0.2902
 1002MOL0     O35183   3.296   0.234   8.988  0.3274  1.0849  0.5543
 1002MOL0     C35184   3.068   0.117   8.864  0.3414  0.3602 -0.0378
 1002MOL0     C35185   2.958   0.037   8.843 -0.5239  0.9453 -0.5134
 1002MOL0     N35186   2.278  -0.268   8.846  0.1390 -0.2009 -0.3289
 1002MOL0     N35187   2.173  -0.197   8.834 -0.0895  0.1377  0.5251
 1002MOL0     C35188   1.235  -0.031   9.021 -0.4628 -0.1073  0.2860
 1002MOL0     C35189   1.181   0.029   8.909  0.1288  0.3524 -0.4660
 1002MOL0     C35190   0.879   0.225   8.621  0.2373 -0.1541 -0.1213
 1002MOL0     C35191   0.813   0.348   8.598 -0.6265  0.6239  0.2841
 1002MOL0     C35192   0.744   0.377   8.477  0.4707 -0.5090 -0.2640
 1002MOL0     C35193   0.725   0.273   8.387  0.1578 -0.0321  1.0428
 1002MOL0     O35194   0.663   0.293   8.265  0.2071  0.3562 -0.1111
 1002MOL0     C35195   0.587   0.409   8.247  0.6373 -0.4705  0.1589
 1002MOL0     C35196   0.454   0.385   8.304  0.2304  0.3037  0.2063
 1002MOL0     C35197   0.389   0.249   8.249  0.5999 -0.2600 -0.2497
 1002MOL0     C35198   0.296   0.264   8.136  0.8435 -0.2792  0.4062
 1002MOL0     C35199   0.183   0.355   8.162 -1.0833  0.3758  0.1293
 1002MOL0     C35200   0.101   0.441   8.179 -0.0248 -0.2510 -0.0958
 1002MOL0     C35201   0.786   0.153   8.407  0.1101 -0.1562  0.3449
 1002MOL0     C35202   0.860   0.126   8.521  0.1239 -0.8008  0.1589
 1002MOL0     H35203   0.854  -0.034   8.982 -0.4547  1.5366  0.2489
 1002MOL0     H35204   0.954  -0.140   9.185 -2.0889  0.2527  0.0291
 1002MOL0     H35205   1.289  -0.363   9.227  0.9984 -0.7636 -1.0531
 1002MOL0     H35206   1.301  -0.295   9.070  1.2032  1.2889  0.1979
 1002MOL0     H35207   1.455  -0.117   9.191 -3.5359 -0.0586 -2.6019
 1002MOL0     H35208   1.467  -0.225   9.317 -0.1659  0.3301 -0.0509
 1002MOL0     H35209   1.562  -0.400   9.157 -2.5175  0.6975  0.2081
 1002MOL0     H35210   1.547  -0.289   9.020  0.6626 -2.5851 -0.8020
 1002MOL0     H35211   1.702  -0.115   9.162  3.0516  0.1220 -1.2143
 1002MOL0     H35212   1.703  -0.250   9.279 -0.1502  0.9158 -0.2174
 1002MOL0     H35213   1.801  -0.393   9.104  1.6810 -0.2800 -4.6224
 1002MOL0     H35214   1.813  -0.248   8.992  2.8287  1.3192  0.0764
 1002MOL0     H35215   1.924  -0.249   9.272 -3.0683  0.6824 -0.0535
 1002MOL0     H35216   2.014  -0.310   9.131  0.5617 -0.5313  1.9339
 1002MOL0     H35217   1.891  -0.022   9.156  1.9635  3.9011 -3.0586
 1002MOL0     H35218   2.057  -0.064   9.207 -2.5644 -0.3857  2.0000
 1002MOL0     H35219   2.042   0.040   8.972 -3.0617  1.5133 -1.9149
 1002MOL0     H35220   1.949  -0.095   8.914  0.2317 -0.0265 -0.8826
 1002MOL0     H35221   2.273  -0.133   9.131  0.3517 -0.4545  0.3019
 1002MOL0     H35222   2.465  -0.370   9.102 -1.7980  1.4288  0.4833
 1002MOL0     H35223   2.473  -0.410   8.931  0.8849  0.4823 -1.7960
 1002MOL0     H35224   2.683  -0.287   9.030 -0.1153 -1.1256 -1.1549
 1002MOL0     H35225   2.578  -0.141   9.035 -2.7709 -0.3348  0.4481
 1002MOL0     H35226   2.530  -0.150   8.798 -1.0955  0.8739  1.4519
 1002MOL0     H35227   2.615  -0.309   8.782 -0.3130 -0.4195  1.2144
 1002MOL0     H35228   2.748  -0.122   8.699  2.0532 -0.9809 -0.9561
 1002MOL0     H35229   2.826  -0.195   8.847 -1.2220  1.0304  1.5385
 1002MOL0     H35230   2.738   0.188   9.047  0.0509 -0.7802 -0.1279
 1002MOL0     H35231   2.824   0.326   9.197  0.5996  0.9127  0.3775
 1002MOL0     H35232   3.004   0.340   9.202 -1.6166 -0.5527  2.9274
 1002MOL0     H35233   2.898   0.441   9.095  0.4617 -1.4933 -2.2176
 1002MOL0     H35234   3.398   0.427   8.840 -0.5484 -0.6978  1.2374
 1002MOL0     H35235   3.597   0.561   8.849  0.3396 -1.1253  0.9264
 1002MOL0     H35236   3.623   0.790   9.226  1.1815  0.1625  0.7319
 1002MOL0     H35237   3.716   0.642   9.214  1.1902 -0.2166 -0.6514
 1002MOL0     H35238   3.890   0.740   9.123 -1.5535  1.3602 -2.6243
 1002MOL0     H35239   3.828   0.905   9.143 -2.0904 -0.0603  0.4111
 1002MOL0     H35240   3.867   0.700   9.369  0.2171  0.8426  0.3761
 1002MOL0     H35241   3.823   0.876   9.398  2.3021 -0.9343  2.6521
 1002MOL0     H35242   4.031   0.937   9.300 -1.1064  0.2101  0.2171
 1002MOL0     H35243   4.049   0.874   9.469 -3.5161 -0.4059  0.7534
 1002MOL0     H35244   4.084   0.705   9.219 -2.8712 -5.2992  1.5279
 1002MOL0     H35245   4.093   0.637   9.383  1.3481 -0.3509 -0.6246
 1002MOL0     H35246   4.282   0.837   9.283 -1.9942 -0.9851 -2.5260
 1002MOL0     H35247   4.301   0.764   9.430 -4.3446  0.3196  1.4330
 1002MOL0     H35248   4.444   0.668   9.263 -0.2459  2.1935  3.6499
 1002MOL0     H35249   4.299   0.608   9.174 -1.9041 -2.0297  0.8857
 1002MOL0     H35250   4.243   0.488   9.422 -1.4094  1.2992 -0.8242
 1002MOL0     H35251   4.388   0.530   9.474 -1.3041 -2.7231  1.7587
 1002MOL0     H35252   3.435   0.775   9.178  1.8936 -2.1901  2.6032
 1002MOL0     H35253   3.234   0.619   9.188 -0.9778 -1.6921 -1.7187
 1002MOL0     H35254   3.164   0.100   8.816 -0.0481  1.4093 -1.2345
 1002MOL0     H35255   2.978  -0.055   8.790 -1.1681 -0.1903  1.1284
 1002MOL0     H35256   1.342  -0.020   9.034 -0.2551 -0.7427 -0.7791
 1002MOL0     H35257   1.262   0.068   8.848  0.8915 -0.9067 -0.3114
 1002MOL0     H35258   0.823   0.429   8.671 -3.2124  0.7857  0.5730
 1002MOL0     H35259   0.697   0.474   8.478  3.5944  1.1358 -0.8688
 1002MOL0     H35260   0.626   0.501   8.291  1.5591 -1.4076  1.4015
 1002MOL0     H35261   0.578   0.425   8.140 -1.0775 -1.2077  0.1588
 1002MOL0     H35262   0.382   0.463   8.279  0.2553  0.2715  0.0325
 1002MOL0     H35263   0.465   0.383   8.413  0.4566  0.1796  0.1830
 1002MOL0     H35264   0.331   0.199   8.327  1.6913 -0.5515  0.4047
 1002MOL0     H35265   0.467   0.179   8.216 -0.4871 -1.7779  0.3070
 1002MOL0     H35266   0.275   0.159   8.112  0.3813  0.2980 -1.9777
 1002MOL0     H35267   0.343   0.307   8.048 -3.0797 -1.2154 -2.4055
 1002MOL0     H35268   0.051   0.522   8.229 -0.1016 -1.8860  2.6836
 1002MOL0     H35269   0.780   0.079   8.329  1.9514 -0.6316  0.6242
 1002MOL0     H35270   0.905   0.029   8.541 -1.7451 -1.3119  2.3925
 1003MOL0     O35271   6.123  10.566   0.133  0.1107  0.6304  0.4535
 1003MOL0     C35272   6.163  10.448   0.149 -0.7143 -0.0515  0.0565
 1003MOL0     O35273   6.269  10.411   0.215 -0.4910 -0.3453  0.0290
 1003MOL0     C35274   6.373  10.502   0.242  0.2583 -0.3097 -0.1787
 1003MOL0     C35275   6.358  10.626   0.291  1.4097  0.0112  0.2677
 1003MOL0     C35276   6.469  10.702   0.326  0.8322 -0.4267 -0.2309
 1003MOL0     C35277   6.599  10.657   0.309 -0.0849  0.4548  0.1398
 1003MOL0     O35278   6.704  10.731   0.341  0.3632  0.0085  0.1867
 1003MOL0     C35279   6.817  10.661   0.394  0.3087  0.9332  0.2682
 1003MOL0     C35280   6.901  10.738   0.497  0.8480 -0.1951  0.0996
 1003MOL0     C35281   7.005  10.639   0.549  1.1906 -0.0721  0.3029
 1003MOL0     C35282   7.102  10.711   0.652  0.0984  0.8228  0.0762
 1003MOL0     C35283   7.174  10.611   0.746 -0.6092  0.7992 -0.6187
 1003MOL0     C35284   7.242  10.491   0.664  0.3377 -0.0298 -0.5559
 1003MOL0     C35285   7.347  10.516   0.557 -0.4548 -0.4286  1.1705
 1003MOL0     C35286   7.460  10.608   0.607  0.3096 -0.8087 -0.2600
 1003MOL0     N35287   7.578  10.606   0.527 -0.5103 -0.3374 -0.1531
 1003MOL0     C35288   7.594  10.687   0.416 -0.0062  0.6680  0.2793
 1003MOL0     C35289   7.724  10.680   0.385  0.3120 -0.1947  0.3531
 1003MOL0     C35290   7.791  10.728   0.261 -0.5994 -0.7387 -0.0591
 1003MOL0     C35291   7.844  10.607   0.175 -0.7872  0.1790 -0.0578
 1003MOL0     C35292   7.943  10.519   0.247 -0.6265  0.5677  0.2827
 1003MOL0     C35293   8.040  10.443   0.151 -0.8604  0.2251 -1.1382
 1003MOL0     O35294   7.977  10.350   0.059 -1.0452  0.3584  0.2814
 1003MOL0     C35295   8.059  10.295  -0.038  0.9097 -0.4338  0.0779
 1003MOL0     C35296   8.026  10.302  -0.172  0.0402  0.2307  0.6745
 1003MOL0     C35297   8.097  10.224  -0.274 -0.2257 -0.5987  0.6680
 1003MOL0     C35298   8.041  10.223  -0.415 -0.5425  0.2991  0.1739
 1003MOL0     C35299   8.213  10.155  -0.236  0.3667  0.4194 -0.4225
 1003MOL0     C35300   8.303  10.096  -0.330  0.1507 -1.1389 -0.0769
 1003MOL0     O35301   8.385   9.999  -0.285  0.2341  0.7503 -0.1297
 1003MOL0     C35302   8.469   9.945  -0.374  0.2524 -0.5508  0.7536
 1003MOL0     C35303   8.602   9.934  -0.330  0.0017 -0.8639  0.2948
 1003MOL0     C35304   8.700   9.858  -0.403 -0.3597  0.0525  0.6721
 1003MOL0     C35305   8.666   9.797  -0.524  0.2270 -1.1061 -0.1330
 1003MOL0     O35306   8.752   9.725  -0.599 -0.1671 -0.5504  0.2966
 1003MOL0     C35307   8.819   9.616  -0.542 -0.9985  0.2881  0.4679
 1003MOL0     C35308   8.894   9.542  -0.657  0.1393 -0.3010  0.1029
 1003MOL0     C35309   9.022   9.617  -0.682  0.1467 -0.8772 -0.7861
 1003MOL0     C35310   9.120   9.539  -0.766 -0.1233 -0.3140 -0.2839
 1003MOL0     C35311   9.260   9.599  -0.762 -0.0741 -0.3543  0.0245
 1003MOL0     C35312   9.366   9.536  -0.675  0.5665  0.4256  0.4044
 1003MOL0     C35313   9.497   9.620  -0.707 -0.1452  0.0150  0.4411
 1003MOL0     C35314   9.629   9.569  -0.642 -0.0833 -0.0501 -0.8978
 1003MOL0    Cl35315   9.611   9.582  -0.463 -0.1194  0.2362  0.2234
 1003MOL0     C35316   8.530   9.798  -0.559  0.5695 -0.4904 -0.5582
 1003MOL0     C35317   8.426   9.861  -0.485 -0.7517 -0.9819 -0.5485
 1003MOL0     O35318   8.311  10.151  -0.443 -0.2871  0.3836 -0.1293
 1003MOL0     C35319   8.245  10.155  -0.091  0.6022  0.1252  0.6480
 1003MOL0     C35320   8.165  10.219   0.001 -0.8559  0.5969  0.6162
 1003MOL0     N35321   7.786  10.609   0.487 -0.2987 -0.1008 -0.2295
 1003MOL0     N35322   7.702  10.575   0.572  0.0293  0.0310 -0.4641
 1003MOL0     C35323   6.607  10.521   0.253 -0.1700 -0.3053 -0.0359
 1003MOL0     C35324   6.501  10.448   0.238  0.2228 -0.3332  0.3043
 1003MOL0     C35325   6.090  10.327   0.107  0.5183  0.3442 -0.0287
 1003MOL0     C35326   6.145  10.202   0.082  0.9306  0.2406 -0.0038
 1003MOL0     C35327   6.066  10.095   0.047  0.5173  0.1412 -0.4677
 1003MOL0     C35328   5.936  10.119  -0.004  0.8878  0.7344  0.3134
 1003MOL0     O35329   5.882  10.001  -0.063 -0.0775  0.2656 -0.4545
 1003MOL0     C35330   5.753  10.011  -0.120 -0.6054 -0.1399  0.2441
 1003MOL0     C35331   5.694   9.872  -0.131  0.1872  0.4568  0.5235
 1003MOL0     C35332   5.795   9.768  -0.187  0.3549  0.2757 -0.2894
 1003MOL0     C35333   5.824   9.789  -0.334  0.1256 -0.8245  0.9997
 1003MOL0     C35334   5.799   9.659  -0.394 -0.2992  0.2749 -0.2752
 1003MOL0     C35335   5.783   9.542  -0.437 -0.8879  0.4178 -0.9522
 1003MOL0     C35336   5.884  10.247   0.000 -0.2887 -0.6104  0.5058
 1003MOL0     C35337   5.959  10.349   0.059  0.6515 -0.5806  0.6149
 1003MOL0     H35338   6.262  10.675   0.296  1.7800  0.7785 -0.0097
 1003MOL0     H35339   6.452  10.800   0.372  1.7355 -0.6608  0.6294
 1003MOL0     H35340   6.775  10.573   0.443 -1.6558  0.0665 -2.6741
 1003MOL0     H35341   6.874  10.623   0.308  0.1731 -0.3164  0.7174
 1003MOL0     H35342   6.954  10.824   0.457 -0.0846  0.7228  0.7744
 1003MOL0     H35343   6.831  10.769   0.576  0.6078 -2.0321  0.6575
 1003MOL0     H35344   6.966  10.546   0.592 -1.8625  0.8614 -0.1957
 1003MOL0     H35345   7.063  10.605   0.463  0.5622 -0.1361 -0.1003
 1003MOL0     H35346   7.164  10.776   0.590  0.6068  0.5715  0.3090
 1003MOL0     H35347   7.042  10.768   0.723 -2.1868 -1.9423  0.5143
 1003MOL0     H35348   7.243  10.672   0.806 -2.0507  3.1342 -1.1814
 1003MOL0     H35349   7.099  10.565   0.811  0.6600 -1.1505 -0.4748
 1003MOL0     H35350   7.303  10.445   0.742  1.6526  0.6788 -1.1270
 1003MOL0     H35351   7.171  10.422   0.617  2.8555 -0.4351 -4.2753
 1003MOL0     H35352   7.383  10.415   0.535 -2.0729 -1.2344  2.1017
 1003MOL0     H35353   7.297  10.560   0.470  1.6264  0.5718  0.3880
 1003MOL0     H35354   7.485  10.566   0.705 -0.2791 -2.5406 -0.8084
 1003MOL0     H35355   7.419  10.707   0.633  0.9168 -1.1238  2.1701
 1003MOL0     H35356   7.515  10.730   0.355  0.8656  0.4483 -1.0428
 1003MOL0     H35357   7.714  10.787   0.210 -0.0185  0.1437  0.0703
 1003MOL0     H35358   7.871  10.795   0.294 -0.0357 -0.7894 -1.2700
 1003MOL0     H35359   7.885  10.636   0.077 -0.1139  0.6034  0.3407
 1003MOL0     H35360   7.755  10.548   0.150  0.2288 -1.3558 -0.1913
 1003MOL0     H35361   7.898  10.443   0.310  0.0072  0.8533  1.0976
 1003MOL0     H35362   8.009  10.581   0.308  0.8207 -2.2268  1.7229
 1003MOL0     H35363   8.111  10.395   0.219 -0.1795  3.5581  0.7181
 1003MOL0     H35364   8.096  10.515   0.091  0.8417 -2.3428 -2.8434
 1003MOL0     H35365   7.929  10.348  -0.190 -1.2635 -2.2166  1.0371
 1003MOL0     H35366   8.101  10.285  -0.482 -1.5847 -2.0790 -3.2024
 1003MOL0     H35367   8.041  10.119  -0.446 -0.8820  0.7971 -1.6352
 1003MOL0     H35368   7.935  10.250  -0.423 -0.9627 -1.2240  0.3507
 1003MOL0     H35369   8.628   9.987  -0.239  2.4676 -1.2403 -0.1222
 1003MOL0     H35370   8.805   9.864  -0.378 -0.4549  0.5454  0.9546
 1003MOL0     H35371   8.889   9.648  -0.465  0.8822  0.5680 -1.2659
 1003MOL0     H35372   8.742   9.555  -0.494 -1.8835  1.0599  0.0754
 1003MOL0     H35373   8.914   9.438  -0.630 -1.3539  0.3696  4.6265
 1003MOL0     H35374   8.831   9.538  -0.746 -3.9307  2.1438  2.5696
 1003MOL0     H35375   9.066   9.644  -0.586 -1.8683  1.3885 -0.4044
 1003MOL0     H35376   9.008   9.712  -0.734  2.4942  0.3755  0.7174
 1003MOL0     H35377   9.132   9.443  -0.716  2.7373  2.0858  4.3258
 1003MOL0     H35378   9.083   9.542  -0.869 -6.0592 -1.0149  1.4600
 1003MOL0     H35379   9.257   9.705  -0.734 -1.6737 -0.3919  0.1415
 1003MOL0     H35380   9.296   9.598  -0.865 -0.8126  3.8137 -0.4548
 1003MOL0     H35381   9.345   9.539  -0.568  0.0175  2.4482  0.2821
 1003MOL0     H35382   9.370   9.430  -0.700 -1.7578  0.3327  0.2457
 1003MOL0     H35383   9.482   9.727  -0.691 -0.3859  0.6620 -3.1591
 1003MOL0     H35384   9.525   9.616  -0.813  0.2527  1.0377  0.5021
 1003MOL0     H35385   9.714   9.633  -0.668 -0.1257 -0.2850 -1.6181
 1003MOL0     H35386   9.661   9.471  -0.677 -3.2347 -1.0037 -1.3655
 1003MOL0     H35387   8.503   9.756  -0.655  2.4520 -1.3583 -0.7557
 1003MOL0     H35388   8.323   9.834  -0.506 -0.4968 -1.1475 -1.6115
 1003MOL0     H35389   8.330  10.094  -0.062  0.2402 -0.7015  0.0029
 1003MOL0     H35390   8.189  10.224   0.106 -0.6887  7.1649  0.7020
 1003MOL0     H35391   6.703  10.477   0.227 -1.2400 -2.3314 -0.8148
 1003MOL0     H35392   6.504  10.342   0.212 -2.2421 -0.6427  1.0210
 1003MOL0     H35393   6.252  10.184   0.094  0.6583 -1.1911  0.4666
 1003MOL0     H35394   6.111   9.996   0.052 -1.1631 -1.0410 -4.4939
 1003MOL0     H35395   5.691  10.086  -0.070 -0.2808  2.2491 -2.6612
 1003MOL0     H35396   5.759  10.055  -0.220 -0.8788 -0.6440  0.0050
 1003MOL0     H35397   5.602   9.875  -0.190  2.0003 -0.7182 -2.6386
 1003MOL0     H35398   5.685   9.837  -0.028  0.1050  0.1143  0.4043
 1003MOL0     H35399   5.766   9.671  -0.147 -1.9932  1.3441  0.8025
 1003MOL0     H35400   5.896   9.772  -0.143 -0.0458  2.2102  0.5686
 1003MOL0     H35401   5.929   9.816  -0.347  0.7722 -3.7136 -0.5240
 1003MOL0     H35402   5.758   9.862  -0.382  0.5343 -1.2307 -0.2170
 1003MOL0     H35403   5.777   9.448  -0.488 -0.0412 -0.6779  0.8448
 1003MOL0     H35404   5.787  10.271  -0.044  1.4652  0.1578 -3.3923
 1003MOL0     H35405   5.903  10.442   0.065 -0.6915 -1.3323  0.2090
 1004MOL0     O35406   7.482   7.128  10.674  0.0016 -1.3099  0.0299
 1004MOL0     C35407   7.472   7.243  10.645  0.3443 -0.2309 -0.8096
 1004MOL0     O35408   7.584   7.318  10.621  0.3103 -0.7642  0.0896
 1004MOL0     C35409   7.703   7.252  10.631  0.4099  0.0080  0.0877
 1004MOL0     C35410   7.774   7.255  10.761 -1.1134 -0.5297  0.2251
 1004MOL0     C35411   7.902   7.195  10.780 -0.1396 -0.3397  0.0366
 1004MOL0     C35412   7.952   7.116  10.679 -0.1564 -0.1518  0.1240
 1004MOL0     O35413   8.070   7.053  10.690 -0.7924  0.2962  0.2595
 1004MOL0     C35414   8.099   6.999  10.820 -0.2721 -0.3566  0.4089
 1004MOL0     C35415   8.231   6.918  10.804 -0.3536  0.3023 -0.1685
 1004MOL0     C35416   8.329   6.946  10.920 -0.4290  0.3718 -1.5388
 1004MOL0     C35417   8.419   7.069  10.879 -0.7163 -0.3849  0.0053
 1004MOL0     C35418   8.538   7.096  10.976  0.6076  0.3801  0.6728
 1004MOL0     C35419   8.626   7.207  10.922 -0.1273 -0.5809 -0.5197
 1004MOL0     C35420   8.737   7.245  11.015  0.4453  0.4617  0.9349
 1004MOL0     C35421   8.839   7.322  10.935 -0.5487 -0.7873 -0.0906
 1004MOL0     N35422   8.921   7.399  11.039  0.0909  0.0628  0.2814
 1004MOL0     C35423   9.008   7.340  11.126  0.3596  1.1388 -0.8542
 1004MOL0     C35424   9.052   7.441  11.207 -0.3064 -0.5732  0.4500
 1004MOL0     C35425   9.129   7.428  11.327  0.1314  0.2858 -0.4319
 1004MOL0     C35426   9.287   7.413  11.323  0.2087  1.1021 -0.0807
 1004MOL0     C35427   9.350   7.521  11.243  0.7921 -0.1107  0.4790
 1004MOL0     C35428   9.496   7.490  11.200  1.3643 -0.7788 -0.2487
 1004MOL0     O35429   9.573   7.423  11.303  0.8489 -0.2315 -0.4055
 1004MOL0     C35430   9.711   7.395  11.281 -0.4361 -0.9561  0.8823
 1004MOL0     C35431   9.776   7.331  11.385 -1.3933  0.0006  0.6126
 1004MOL0     C35432   9.906   7.272  11.370  1.2476 -0.1834  0.0818
 1004MOL0     C35433   9.964   7.214  11.501  0.6306 -0.1381  0.5572
 1004MOL0     C35434   9.967   7.279  11.236 -0.4486 -0.2557 -0.9380
 1004MOL0     C35435  10.088   7.205  11.205  0.5239 -0.0895 -0.0603
 1004MOL0     O35436  10.166   7.259  11.106 -0.0421 -0.3438  0.3846
 1004MOL0     C35437  10.260   7.169  11.061  1.3919 -0.7224 -0.4021
 1004MOL0     C35438  10.220   7.040  11.012 -0.6685 -0.5844  0.0796
 1004MOL0     C35439  10.318   6.949  10.978 -0.3532 -0.2640 -0.1559
 1004MOL0     C35440  10.451   6.992  10.983 -0.8900  0.8146 -0.2274
 1004MOL0     O35441  10.547   6.905  10.932 -0.3892 -0.0594  0.1547
 1004MOL0     C35442  10.661   6.876  11.016  0.0037 -1.6609  0.2161
 1004MOL0     C35443  10.709   6.739  10.998 -1.0563  0.1537 -0.1074
 1004MOL0     C35444  10.772   6.709  10.863 -0.8626 -0.4603 -0.6714
 1004MOL0     C35445  10.856   6.579  10.865 -0.4065 -0.8433  0.7707
 1004MOL0     C35446  10.871   6.521  10.724 -0.2136  0.2707 -0.1507
 1004MOL0     C35447  10.978   6.602  10.639  0.0083  0.0580 -0.9629
 1004MOL0     C35448  10.998   6.558  10.498  0.7698 -0.5721  0.6118
 1004MOL0     C35449  11.145   6.554  10.469 -0.1434 -0.0917  0.0845
 1004MOL0    Cl35450  11.249   6.697  10.500 -0.0896 -0.8256 -0.2769
 1004MOL0     C35451  10.490   7.127  11.027 -0.3616  1.1269  0.7880
 1004MOL0     C35452  10.388   7.211  11.065 -0.3835 -0.1488 -0.0248
 1004MOL0     O35453  10.113   7.109  11.276  0.6181 -0.0714 -0.3978
 1004MOL0     C35454   9.905   7.365  11.143 -0.2220  0.2097  1.4878
 1004MOL0     C35455   9.783   7.424  11.163 -0.0224 -0.6192 -0.4395
 1004MOL0     N35456   8.994   7.560  11.165 -0.1281 -0.1162 -0.3530
 1004MOL0     N35457   8.916   7.534  11.065  0.1594 -0.5987 -0.8702
 1004MOL0     C35458   7.890   7.111  10.551  0.5053  0.4203 -0.6164
 1004MOL0     C35459   7.770   7.181  10.535 -0.1061  0.3553  0.3160
 1004MOL0     C35460   7.343   7.318  10.646 -0.0493 -1.0479  0.3558
 1004MOL0     C35461   7.337   7.462  10.635 -0.2665  0.8220 -0.0245
 1004MOL0     C35462   7.207   7.527  10.654  0.2544  0.7927 -0.2444
 1004MOL0     C35463   7.082   7.458  10.666  0.0342 -0.4532 -0.6034
 1004MOL0     O35464   6.959   7.508  10.687  0.4147  0.0350 -0.5415
 1004MOL0     C35465   6.956   7.634  10.764 -0.4053 -0.3062  0.5776
 1004MOL0     C35466   7.007   7.610  10.903  0.0212 -0.8864  0.0328
 1004MOL0     C35467   6.918   7.516  10.988 -0.1933  0.1792 -0.0958
 1004MOL0     C35468   6.983   7.477  11.122  0.1224 -0.7051  0.3646
 1004MOL0     C35469   7.005   7.591  11.208  0.5360  0.4944 -0.9406
 1004MOL0     C35470   7.030   7.690  11.271  0.2303  0.0831 -0.2269
 1004MOL0     C35471   7.093   7.320  10.668  0.6576  1.0194  0.1658
 1004MOL0     C35472   7.219   7.254  10.660 -0.2312 -0.6851  0.7974
 1004MOL0     H35473   7.727   7.318  10.836  0.1488  0.9223 -0.1483
 1004MOL0     H35474   7.952   7.221  10.872 -0.8828  1.3140  0.0039
 1004MOL0     H35475   8.109   7.073  10.900  0.0244 -1.1179  1.0918
 1004MOL0     H35476   8.021   6.928  10.849 -3.2211  0.1975 -4.9205
 1004MOL0     H35477   8.201   6.814  10.793 -0.6455  0.3360  0.2655
 1004MOL0     H35478   8.279   6.940  10.709 -1.1312 -3.0491 -1.4613
 1004MOL0     H35479   8.276   6.963  11.014 -1.1098 -2.1725 -1.3819
 1004MOL0     H35480   8.393   6.858  10.935  1.1177  2.0550  3.7440
 1004MOL0     H35481   8.460   7.063  10.778  0.1370  1.7001  0.1846
 1004MOL0     H35482   8.358   7.160  10.879 -0.8445 -0.4686 -0.3653
 1004MOL0     H35483   8.503   7.113  11.077  1.1814  2.9628  0.5026
 1004MOL0     H35484   8.598   7.004  10.985  2.2744  1.6329  3.9483
 1004MOL0     H35485   8.669   7.186  10.824  1.3822  2.0140 -0.4986
 1004MOL0     H35486   8.565   7.298  10.913 -2.2579 -1.4342  3.2166
 1004MOL0     H35487   8.694   7.300  11.099  1.4928  0.3286  1.5742
 1004MOL0     H35488   8.780   7.151  11.051  0.8092 -0.1968 -1.1143
 1004MOL0     H35489   8.790   7.389  10.863  0.8816 -0.8742 -1.1968
 1004MOL0     H35490   8.903   7.257  10.875 -4.3880 -0.9879 -4.5179
 1004MOL0     H35491   9.034   7.236  11.141 -1.0551  1.0686  1.5658
 1004MOL0     H35492   9.106   7.516  11.388 -0.5228  0.8141 -1.4251
 1004MOL0     H35493   9.088   7.346  11.387 -2.9219 -0.3787 -3.1525
 1004MOL0     H35494   9.303   7.321  11.266 -0.7188  1.1143 -0.3670
 1004MOL0     H35495   9.331   7.407  11.423 -2.0019  2.3633  1.0366
 1004MOL0     H35496   9.344   7.615  11.298  0.4597 -0.2273  0.6387
 1004MOL0     H35497   9.296   7.526  11.148  0.4793 -3.9417  0.2983
 1004MOL0     H35498   9.543   7.585  11.173  0.7227  0.0538  1.4132
 1004MOL0     H35499   9.487   7.422  11.115 -0.0075 -0.4558 -0.3840
 1004MOL0     H35500   9.733   7.321  11.484  0.3063  1.1892  1.5257
 1004MOL0     H35501   9.920   7.261  11.588 -1.4955  0.7564 -0.9218
 1004MOL0     H35502   9.943   7.107  11.511 -1.0475  0.3356  2.7443
 1004MOL0     H35503  10.071   7.236  11.502  0.2466  2.0655 -0.3386
 1004MOL0     H35504  10.116   7.008  11.008 -0.7606 -0.1562 -1.2540
 1004MOL0     H35505  10.301   6.851  10.934 -0.1928 -2.1111  3.5546
 1004MOL0     H35506  10.729   6.951  10.973 -0.1859 -2.2977 -1.2775
 1004MOL0     H35507  10.637   6.903  11.119  1.3756  1.0005 -0.0728
 1004MOL0     H35508  10.782   6.722  11.077  0.1408  1.3871 -0.9043
 1004MOL0     H35509  10.625   6.669  11.008  0.7320 -1.6309  5.9183
 1004MOL0     H35510  10.835   6.797  10.846  0.1006 -0.9624  0.1911
 1004MOL0     H35511  10.689   6.692  10.794 -0.7243 -0.1099 -0.9305
 1004MOL0     H35512  10.949   6.599  10.920 -1.3562  1.6548  1.5806
 1004MOL0     H35513  10.808   6.500  10.924  2.9430 -2.7942  1.1661
 1004MOL0     H35514  10.773   6.520  10.675 -1.4110  0.0792  2.1426
 1004MOL0     H35515  10.898   6.417  10.746 -0.7560 -0.5186 -2.7766
 1004MOL0     H35516  10.961   6.710  10.637  0.2607  0.1411  0.5100
 1004MOL0     H35517  11.072   6.595  10.694 -1.6935 -0.5187  2.0597
 1004MOL0     H35518  10.945   6.622  10.427  1.4862  0.9349  1.3829
 1004MOL0     H35519  10.960   6.457  10.479  1.5297 -0.8824  0.6962
 1004MOL0     H35520  11.163   6.514  10.368  3.1743 -0.5236  0.7354
 1004MOL0     H35521  11.185   6.473  10.530  0.7849  0.3061  0.0206
 1004MOL0     H35522  10.596   7.149  11.042  0.9205 -3.2184 -0.3485
 1004MOL0     H35523  10.419   7.310  11.097 -2.4041  0.5812 -0.2276
 1004MOL0     H35524   9.958   7.389  11.051  0.6839  1.1160  2.2278
 1004MOL0     H35525   9.749   7.489  11.082 -2.5177  0.3805  1.2936
 1004MOL0     H35526   7.917   7.046  10.469  1.5110 -0.9237  0.7132
 1004MOL0     H35527   7.718   7.172  10.441 -0.4919  0.2425  0.5357
 1004MOL0     H35528   7.428   7.517  10.613  1.7363 -2.7479 -1.3507
 1004MOL0     H35529   7.222   7.635  10.654 -0.0456  0.8523 -1.6167
 1004MOL0     H35530   7.020   7.706  10.713  1.4987 -0.5959  2.4319
 1004MOL0     H35531   6.855   7.673  10.779  0.3761  1.0879  2.5920
 1004MOL0     H35532   7.006   7.711  10.947  0.9604 -0.7200 -0.3100
 1004MOL0     H35533   7.111   7.578  10.892  0.7982  1.7648 -1.2477
 1004MOL0     H35534   6.913   7.420  10.937  1.8304  0.4563 -0.8985
 1004MOL0     H35535   6.820   7.561  11.005  0.6597  1.0186  3.6795
 1004MOL0     H35536   7.081   7.432  11.102 -0.1749 -0.9170 -0.6813
 1004MOL0     H35537   6.925   7.401  11.175  1.6015 -2.1064  0.0506
 1004MOL0     H35538   7.054   7.779  11.326  0.4715 -0.7652  1.1022
 1004MOL0     H35539   6.997   7.269  10.664  1.0111  0.2898 -4.2655
 1004MOL0     H35540   7.212   7.147  10.675  2.4086 -0.6333  3.1476
 1005MOL0     O35541   0.435  10.094   3.967  0.3243 -0.1231 -0.2996
 1005MOL0     C35542   0.350  10.006   3.963 -0.2076  0.4181 -1.2939
 1005MOL0     O35543   0.296   9.945   4.075 -0.0402  0.3459 -0.6556
 1005MOL0     C35544   0.287  10.005   4.201  0.7460  0.0129 -0.1998
 1005MOL0     C35545   0.185   9.963   4.289 -0.5862  0.6693 -0.2035
 1005MOL0     C35546   0.171  10.011   4.419 -1.0529  0.4652 -0.3291
 1005MOL0     C35547   0.261  10.110   4.470 -0.4566 -0.0876  0.8404
 1005MOL0     O35548   0.251  10.164   4.597  1.3340  0.1101  0.3517
 1005MOL0     C35549   0.342  10.272   4.643  0.1049 -0.9401 -0.8472
 1005MOL0     C35550   0.480  10.235   4.706  0.2956 -0.2611 -0.4466
 1005MOL0     C35551   0.474  10.178   4.850 -0.4032  0.0207 -0.2198
 1005MOL0     C35552   0.599  10.097   4.899 -0.2409 -0.0664 -0.4474
 1005MOL0     C35553   0.550   9.988   5.001  0.3727 -0.7937  0.1792
 1005MOL0     C35554   0.511  10.053   5.136  1.1147  0.7980  0.2454
 1005MOL0     C35555   0.472   9.953   5.243  0.2212  0.0857  0.4815
 1005MOL0     C35556   0.436  10.015   5.383 -0.1893 -0.3066 -0.1735
 1005MOL0     N35557   0.552  10.052   5.460 -0.4939  0.3763 -0.0737
 1005MOL0     C35558   0.609  10.183   5.449 -0.8836  0.1081 -0.7581
 1005MOL0     C35559   0.712  10.171   5.536  0.4966 -0.5654  0.7146
 1005MOL0     C35560   0.813  10.276   5.564 -0.0449  0.2115 -0.4448
 1005MOL0     C35561   0.776  10.370   5.678 -0.3996 -0.2173 -0.9305
 1005MOL0     C35562   0.871  10.488   5.676 -0.3797 -0.4626 -0.5351
 1005MOL0     C35563   0.803  10.607   5.744  0.1104 -0.0225 -0.3364
 1005MOL0     O35564   0.909  10.693   5.777  0.4816  0.2353  0.6324
 1005MOL0     C35565   0.885  10.789   5.874 -0.9175  0.9692  0.1973
 1005MOL0     C35566   0.760  10.833   5.913  1.8406  0.4419 -0.2255
 1005MOL0     C35567   0.741  10.936   6.012 -0.7725  1.0914  0.2100
 1005MOL0     C35568   0.603  10.990   6.024  0.6641  0.3074 -0.0753
 1005MOL0     C35569   0.860  11.001   6.065  0.9913 -0.5390  0.6064
 1005MOL0     C35570   0.857  11.106   6.162 -0.7128 -0.0030 -0.0539
 1005MOL0     O35571   0.979  11.176   6.162 -0.2752 -0.1636 -0.3681
 1005MOL0     C35572   0.979  11.281   6.250 -0.0094 -0.4992  0.2904
 1005MOL0     C35573   1.079  11.292   6.346  0.0497  0.3824 -0.1732
 1005MOL0     C35574   1.089  11.396   6.433  0.7190  0.0368 -0.4801
 1005MOL0     C35575   0.999  11.508   6.438 -0.8354 -0.0511 -0.6149
 1005MOL0     O35576   1.020  11.613   6.528  0.2146 -0.6363 -0.6612
 1005MOL0     C35577   0.928  11.719   6.525 -0.9532 -0.3293  0.3466
 1005MOL0     C35578   0.976  11.832   6.604  0.2119 -0.1239  0.3427
 1005MOL0     C35579   0.967  11.792   6.756  0.3306 -0.1942  0.4468
 1005MOL0     C35580   1.028  11.887   6.844  0.3101  0.3908 -0.3342
 1005MOL0     C35581   0.978  11.893   6.987  0.6594 -0.2943 -0.4738
 1005MOL0     C35582   1.019  11.773   7.066  0.4539  0.1451 -0.4856
 1005MOL0     C35583   1.003  11.789   7.212  0.0207 -0.3060 -0.1580
 1005MOL0     C35584   1.049  11.672   7.293 -0.0761 -0.1529 -0.5899
 1005MOL0    Cl35585   0.948  11.531   7.269  0.2293  0.2444 -0.1037
 1005MOL0     C35586   0.903  11.501   6.335  0.2751 -0.0227 -0.6618
 1005MOL0     C35587   0.886  11.390   6.253 -0.6344  0.9095  0.0844
 1005MOL0     O35588   0.759  11.129   6.234  0.1721  0.2047  0.3763
 1005MOL0     C35589   0.986  10.948   6.024 -0.6398  0.0287 -0.5245
 1005MOL0     C35590   1.001  10.839   5.935  0.0360  0.0340 -0.8865
 1005MOL0     N35591   0.717  10.045   5.592 -0.9842  0.3027  0.0097
 1005MOL0     N35592   0.621   9.975   5.544 -0.3405  0.4975  0.2297
 1005MOL0     C35593   0.374  10.141   4.391  1.4634  0.0103 -0.0492
 1005MOL0     C35594   0.380  10.098   4.256  0.0623  0.7084 -0.2900
 1005MOL0     C35595   0.300   9.984   3.828  0.6541  0.8790  0.5981
 1005MOL0     C35596   0.233   9.864   3.805 -0.2963 -0.4612  0.7093
 1005MOL0     C35597   0.193   9.840   3.675 -0.1582 -0.2881 -0.2074
 1005MOL0     C35598   0.207   9.931   3.572  1.4248  1.0799 -1.0076
 1005MOL0     O35599   0.169   9.887   3.454  0.7911  0.7650 -0.4380
 1005MOL0     C35600   0.060   9.960   3.392  0.7749  0.2202  0.6468
 1005MOL0     C35601  -0.022   9.870   3.296 -0.1985 -0.3695 -0.9201
 1005MOL0     C35602  -0.157   9.925   3.242 -0.4052  0.8516 -0.1269
 1005MOL0     C35603  -0.145  10.040   3.137  0.2837  0.2396 -0.4831
 1005MOL0     C35604  -0.162  10.179   3.194 -0.0429 -0.1432 -0.8809
 1005MOL0     C35605  -0.213  10.273   3.252  0.2301  0.0164 -0.3556
 1005MOL0     C35606   0.272  10.051   3.602  0.1260  0.5296 -0.2902
 1005MOL0     C35607   0.328  10.073   3.722  0.6417  0.7352 -0.6525
 1005MOL0     H35608   0.121   9.881   4.257  0.9168 -1.7233  2.3781
 1005MOL0     H35609   0.095   9.971   4.486  0.5277  0.5658  1.6047
 1005MOL0     H35610   0.351  10.354   4.571  1.2828 -0.5394 -0.2699
 1005MOL0     H35611   0.288  10.304   4.732  3.1103 -1.2595  1.2436
 1005MOL0     H35612   0.519  10.159   4.638 -0.0745 -0.3117 -0.6014
 1005MOL0     H35613   0.540  10.327   4.705 -0.1328  0.0757  1.1377
 1005MOL0     H35614   0.453  10.265   4.913 -2.7677  1.5347 -2.8958
 1005MOL0     H35615   0.386  10.112   4.855 -3.4139  3.7218  4.0539
 1005MOL0     H35616   0.648  10.060   4.808  1.0192  2.3304 -0.8330
 1005MOL0     H35617   0.670  10.169   4.940 -2.7340  1.8526  0.7520
 1005MOL0     H35618   0.464   9.930   4.968 -2.1896  1.4011  2.5194
 1005MOL0     H35619   0.628   9.913   5.021  1.0818  0.0428  0.6568
 1005MOL0     H35620   0.585  10.120   5.181  2.3383 -0.3500 -0.0037
 1005MOL0     H35621   0.421  10.114   5.125  0.1733 -0.6634 -0.5316
 1005MOL0     H35622   0.383   9.898   5.212  2.1687 -2.9949 -0.0362
 1005MOL0     H35623   0.560   9.889   5.250  0.9729  0.7859 -1.7061
 1005MOL0     H35624   0.376   9.943   5.438 -2.9463  2.4124  0.6464
 1005MOL0     H35625   0.367  10.099   5.372  1.1995  1.4415  3.1160
 1005MOL0     H35626   0.600  10.270   5.384  1.9194  1.1160  0.0778
 1005MOL0     H35627   0.911  10.233   5.589 -0.4630 -0.4089  0.1578
 1005MOL0     H35628   0.812  10.337   5.473 -1.9145  0.1593 -0.4803
 1005MOL0     H35629   0.769  10.318   5.774 -1.1420  0.5364 -0.5587
 1005MOL0     H35630   0.681  10.418   5.655  0.5160  3.3462  1.8001
 1005MOL0     H35631   0.903  10.513   5.575 -0.4525 -0.4709 -0.5606
 1005MOL0     H35632   0.954  10.466   5.744 -0.1220  2.4265  0.2356
 1005MOL0     H35633   0.742  10.577   5.830 -2.1753  0.0887 -1.8377
 1005MOL0     H35634   0.727  10.653   5.680  1.4238 -0.6481 -2.4417
 1005MOL0     H35635   0.674  10.795   5.859 -0.6663  2.9049  1.7271
 1005MOL0     H35636   0.522  10.925   5.990 -0.9739  1.8978  0.5894
 1005MOL0     H35637   0.567  11.015   6.124 -2.1698 -1.7231 -0.4772
 1005MOL0     H35638   0.608  11.078   5.959  0.8836  0.5824  0.3160
 1005MOL0     H35639   1.151  11.212   6.358 -2.6906 -2.0555  1.5272
 1005MOL0     H35640   1.171  11.391   6.504 -2.6043 -1.9261  3.7041
 1005MOL0     H35641   0.921  11.752   6.420  0.1407 -1.8630 -0.2539
 1005MOL0     H35642   0.827  11.692   6.553 -0.7283 -0.9624  0.5541
 1005MOL0     H35643   1.077  11.849   6.565 -0.6639 -0.9498 -2.5612
 1005MOL0     H35644   0.907  11.915   6.586  1.9611  1.2930 -0.0947
 1005MOL0     H35645   1.022  11.698   6.771  2.4853  1.2740  2.4482
 1005MOL0     H35646   0.861  11.779   6.780  0.4708  0.2931  1.3829
 1005MOL0     H35647   1.135  11.867   6.841  0.7033  1.9986  1.2976
 1005MOL0     H35648   1.006  11.981   6.792 -0.7348  0.1411 -0.3617
 1005MOL0     H35649   0.872  11.912   7.005  0.6524 -0.1431 -0.6748
 1005MOL0     H35650   1.024  11.981   7.033 -2.0873  0.4888  0.9565
 1005MOL0     H35651   0.963  11.683   7.040  0.4671 -0.1351  0.4097
 1005MOL0     H35652   1.126  11.761   7.046  0.8026 -0.1067  1.3261
 1005MOL0     H35653   0.899  11.819   7.227  0.3572  0.5702  0.5593
 1005MOL0     H35654   1.060  11.873   7.254  1.8856 -1.7510  0.3482
 1005MOL0     H35655   1.056  11.712   7.394 -1.8899 -0.6517 -0.2310
 1005MOL0     H35656   1.150  11.632   7.276 -0.2070 -1.3001  1.1489
 1005MOL0     H35657   0.827  11.577   6.320  0.8055 -0.0522 -4.2541
 1005MOL0     H35658   0.810  11.393   6.175 -0.9361  1.1596  0.3827
 1005MOL0     H35659   1.079  10.991   6.060 -0.8162  0.1110 -0.1695
 1005MOL0     H35660   1.101  10.811   5.902  0.2459  1.4443 -1.5134
 1005MOL0     H35661   0.454  10.206   4.426  2.8387 -2.5026  1.7498
 1005MOL0     H35662   0.451  10.146   4.189 -0.7864  2.2303 -0.1322
 1005MOL0     H35663   0.225   9.793   3.887  3.6794  0.0481  1.7160
 1005MOL0     H35664   0.132   9.751   3.662 -0.4707  0.1803 -2.2605
 1005MOL0     H35665   0.000  10.002   3.474  0.5399 -1.1891  1.2240
 1005MOL0     H35666   0.112  10.032   3.328  0.4122  3.0010  3.2474
 1005MOL0     H35667  -0.050   9.785   3.357 -0.3020 -0.4391 -1.0651
 1005MOL0     H35668   0.035   9.849   3.205  0.4488  3.3296 -1.5470
 1005MOL0     H35669  -0.226   9.950   3.323  1.4548  1.8788  1.2021
 1005MOL0     H35670  -0.206   9.838   3.197 -0.0528 -0.1575  1.3579
 1005MOL0     H35671  -0.226  10.027   3.065  1.4854 -0.6969 -1.7228
 1005MOL0     H35672  -0.053  10.037   3.079  0.2060 -0.9359 -0.5555
 1005MOL0     H35673  -0.236  10.365   3.301 -2.6784 -0.6280 -0.3376
 1005MOL0     H35674   0.283  10.119   3.518 -1.9205  2.0690  0.5850
 1005MOL0     H35675   0.367  10.171   3.749  1.3271  0.3571 -0.2323
 1006MOL0     O35676  10.808   5.724  10.055 -0.1051 -0.8142 -0.4065
 1006MOL0     C35677  10.911   5.776  10.101  0.2358  0.1687  0.0454
 1006MOL0     O35678  10.945   5.793  10.233 -0.6618 -0.9761  0.5724
 1006MOL0     C35679  10.880   5.733  10.340  0.2421 -0.3757 -0.3035
 1006MOL0     C35680  10.931   5.745  10.469  1.3766  0.2367 -0.9056
 1006MOL0     C35681  10.866   5.684  10.586  0.4448 -0.0962  0.2827
 1006MOL0     C35682  10.737   5.632  10.574  0.1664  0.8979  0.6217
 1006MOL0     O35683  10.664   5.571  10.676  0.1698  0.4217 -0.6340
 1006MOL0     C35684  10.713   5.573  10.811 -0.3462 -0.3020 -0.5636
 1006MOL0     C35685  10.682   5.714  10.858  1.2227 -0.3795  0.2658
 1006MOL0     C35686  10.649   5.717  11.007  0.4086 -0.0968  0.2646
 1006MOL0     C35687  10.763   5.679  11.099 -0.4078 -0.2509  0.4672
 1006MOL0     C35688  10.724   5.694  11.250 -0.3208  0.5182 -0.3724
 1006MOL0     C35689  10.857   5.712  11.338  0.5565  0.8831  0.4762
 1006MOL0     C35690  10.829   5.717  11.488  0.1651  0.0166 -0.3880
 1006MOL0     C35691  10.918   5.798  11.588 -0.6949  0.9352  0.6222
 1006MOL0     N35692  11.049   5.727  11.627  0.3344 -0.0013  0.6042
 1006MOL0     C35693  11.045   5.612  11.701 -0.3478 -0.3192 -0.2335
 1006MOL0     C35694  11.168   5.561  11.673 -0.5972 -0.2668  0.5827
 1006MOL0     C35695  11.209   5.420  11.707  0.9019  0.6359  0.1242
 1006MOL0     C35696  11.202   5.389  11.860 -0.7134 -0.5503  0.6076
 1006MOL0     C35697  11.331   5.439  11.935  0.4653 -0.0580 -0.2645
 1006MOL0     C35698  11.366   5.584  11.929 -1.0986  0.1748 -0.5807
 1006MOL0     O35699  11.498   5.606  11.992  0.2206  0.2498 -0.6929
 1006MOL0     C35700  11.614   5.569  11.919 -1.1464  0.0939 -1.4725
 1006MOL0     C35701  11.614   5.518  11.788 -0.4682 -1.2069 -0.4011
 1006MOL0     C35702  11.736   5.505  11.723 -0.3661  0.1960 -0.3714
 1006MOL0     C35703  11.734   5.454  11.579  0.4302 -0.4989  0.8829
 1006MOL0     C35704  11.864   5.516  11.792  0.2906 -0.0761  0.8697
 1006MOL0     C35705  12.001   5.452  11.746  0.6780  0.2203  0.3449
 1006MOL0     O35706  12.117   5.497  11.804 -0.0485  0.5931  0.0101
 1006MOL0     C35707  12.236   5.474  11.750  0.2878 -0.1275  0.5584
 1006MOL0     C35708  12.295   5.567  11.664 -0.6907  0.0515 -0.3548
 1006MOL0     C35709  12.424   5.537  11.610  0.1403 -0.3397  0.0151
 1006MOL0     C35710  12.484   5.412  11.641  0.6723  0.7523 -0.2381
 1006MOL0     O35711  12.599   5.367  11.580  0.0674  0.4542 -0.9061
 1006MOL0     C35712  12.648   5.231  11.605 -0.5499  0.0078  1.0082
 1006MOL0     C35713  12.768   5.209  11.518  1.1327  0.3787  0.0177
 1006MOL0     C35714  12.802   5.061  11.543 -0.5561 -1.1113 -1.1708
 1006MOL0     C35715  12.706   4.945  11.517 -0.3161 -0.4912  0.1175
 1006MOL0     C35716  12.779   4.814  11.482 -1.2888  0.3250 -0.6494
 1006MOL0     C35717  12.848   4.741  11.603  0.3410 -0.1386 -0.5325
 1006MOL0     C35718  12.939   4.628  11.551 -0.6836  0.3775 -0.1503
 1006MOL0     C35719  13.073   4.638  11.617  0.2378  0.2386  0.4583
 1006MOL0    Cl35720  13.167   4.755  11.529 -0.7817 -0.1782 -0.2765
 1006MOL0     C35721  12.415   5.320  11.736  0.1089 -0.0160  0.4131
 1006MOL0     C35722  12.289   5.350  11.783 -0.3018 -0.2852  0.6917
 1006MOL0     O35723  12.003   5.363  11.663  1.0289 -0.1000 -0.0559
 1006MOL0     C35724  11.863   5.571  11.914  0.0899 -0.0035 -0.4124
 1006MOL0     C35725  11.743   5.591  11.979 -0.0932 -0.2746 -0.2114
 1006MOL0     N35726  11.235   5.646  11.581 -0.2283  0.5763  0.2470
 1006MOL0     N35727  11.159   5.749  11.551  0.5252 -0.1351  0.1560
 1006MOL0     C35728  10.686   5.618  10.444 -0.2167 -0.0650  0.2711
 1006MOL0     C35729  10.755   5.659  10.337  0.1371  0.0828 -0.1161
 1006MOL0     C35730  10.998   5.819  10.003 -0.0926  0.2937  0.2430
 1006MOL0     C35731  11.069   5.937  10.002 -0.6696 -0.6744  0.0994
 1006MOL0     C35732  11.162   5.980   9.900  0.3520  0.4995  0.5390
 1006MOL0     C35733  11.190   5.897   9.788  0.6141  0.2968  0.5741
 1006MOL0     O35734  11.282   5.926   9.706  1.1261 -0.4686  0.3147
 1006MOL0     C35735  11.265   5.878   9.566  0.6355  0.8182 -0.0133
 1006MOL0     C35736  11.326   5.971   9.467 -0.9122  0.2136  0.2053
 1006MOL0     C35737  11.469   5.996   9.489  0.4362  0.6475 -0.5321
 1006MOL0     C35738  11.510   6.074   9.366 -0.0491  0.9139 -0.4729
 1006MOL0     C35739  11.656   6.106   9.365 -1.1720  0.3130 -0.0203
 1006MOL0     C35740  11.772   6.127   9.366 -0.1568  0.5097 -0.9560
 1006MOL0     C35741  11.109   5.779   9.782  1.0709 -1.0936  1.1384
 1006MOL0     C35742  11.013   5.747   9.881 -0.4583  0.4605 -0.2519
 1006MOL0     H35743  11.020   5.804  10.492  0.2838  1.0266  1.6548
 1006MOL0     H35744  10.919   5.679  10.680 -1.7112 -1.6765  1.4968
 1006MOL0     H35745  10.655   5.498  10.865  0.0006  0.2112  0.5392
 1006MOL0     H35746  10.819   5.551  10.827 -0.7689 -1.7016  0.4940
 1006MOL0     H35747  10.761   5.788  10.838 -0.1953  0.6254 -2.0058
 1006MOL0     H35748  10.599   5.753  10.798  0.3961 -4.0339 -1.2295
 1006MOL0     H35749  10.627   5.822  11.026  0.5006 -0.2371  1.2117
 1006MOL0     H35750  10.564   5.652  11.032  0.3798  0.0536  0.5671
 1006MOL0     H35751  10.796   5.579  11.070  1.6545  0.9114 -1.5643
 1006MOL0     H35752  10.846   5.746  11.074 -2.0970  0.8814 -2.5613
 1006MOL0     H35753  10.644   5.769  11.254 -0.6067  0.3094 -1.5972
 1006MOL0     H35754  10.686   5.595  11.278  2.6394 -0.1777  1.6696
 1006MOL0     H35755  10.931   5.633  11.323  1.8366  1.7066  2.2402
 1006MOL0     H35756  10.907   5.805  11.311 -1.8485  2.0708 -0.1640
 1006MOL0     H35757  10.730   5.758  11.511 -0.2426 -0.4081 -1.3411
 1006MOL0     H35758  10.827   5.616  11.529 -0.4500 -0.5164 -1.6591
 1006MOL0     H35759  10.869   5.801  11.686 -0.7524 -0.6499  0.6670
 1006MOL0     H35760  10.938   5.895  11.541  2.3936 -0.8403 -2.2056
 1006MOL0     H35761  10.977   5.575  11.777 -0.9918  1.9775  0.4095
 1006MOL0     H35762  11.149   5.344  11.657  1.4809 -0.5890  1.2101
 1006MOL0     H35763  11.311   5.407  11.669  0.4342 -0.3294 -0.8685
 1006MOL0     H35764  11.211   5.282  11.877  2.4358 -0.3094  1.1058
 1006MOL0     H35765  11.106   5.419  11.903 -0.5050  0.9039  0.1249
 1006MOL0     H35766  11.414   5.374  11.909  2.3052  2.2304 -0.4058
 1006MOL0     H35767  11.312   5.411  12.039  2.0818 -2.3871 -0.5106
 1006MOL0     H35768  11.284   5.632  11.983 -0.0070  2.7670 -1.0930
 1006MOL0     H35769  11.371   5.622  11.827  0.5867  0.8498 -0.2794
 1006MOL0     H35770  11.526   5.499  11.729  0.3459 -2.5089 -1.2444
 1006MOL0     H35771  11.710   5.347  11.572 -2.1411  0.0931 -1.9953
 1006MOL0     H35772  11.642   5.493  11.534 -1.0903 -0.8506  3.4722
 1006MOL0     H35773  11.818   5.485  11.516 -1.3054  0.9595 -0.8452
 1006MOL0     H35774  12.259   5.670  11.658 -0.1635  0.2014 -1.2068
 1006MOL0     H35775  12.472   5.595  11.532 -0.3521  1.2267  0.8376
 1006MOL0     H35776  12.669   5.210  11.710  0.6612  1.6824  1.1400
 1006MOL0     H35777  12.572   5.159  11.573 -0.0541 -0.6221  1.2351
 1006MOL0     H35778  12.739   5.230  11.415 -1.5419 -1.7417  0.1990
 1006MOL0     H35779  12.846   5.274  11.557 -0.9864  2.3999  1.1116
 1006MOL0     H35780  12.852   5.046  11.640  0.4133  1.3775 -1.2112
 1006MOL0     H35781  12.897   5.052  11.490  0.2444  0.3249 -0.0676
 1006MOL0     H35782  12.644   4.934  11.606 -0.2198 -3.8165 -0.1095
 1006MOL0     H35783  12.632   4.965  11.439  0.8818  0.6958 -0.7595
 1006MOL0     H35784  12.849   4.835  11.401 -1.7951  0.6337 -1.0186
 1006MOL0     H35785  12.716   4.742  11.429  1.4885 -2.7893 -0.0225
 1006MOL0     H35786  12.904   4.816  11.659 -2.1318  1.8594 -0.5764
 1006MOL0     H35787  12.767   4.715  11.672  1.9809 -0.5257  1.3264
 1006MOL0     H35788  12.949   4.630  11.442  0.0858 -0.6007 -0.1103
 1006MOL0     H35789  12.899   4.534  11.589  3.6644 -0.7002  2.4511
 1006MOL0     H35790  13.117   4.539  11.600  0.1298  0.0527  1.2520
 1006MOL0     H35791  13.064   4.666  11.722  1.2694 -2.0800  1.2360
 1006MOL0     H35792  12.451   5.221  11.765  0.9005  0.3898  0.8580
 1006MOL0     H35793  12.224   5.280  11.835 -0.0121 -2.2354 -1.4085
 1006MOL0     H35794  11.950   5.602  11.971 -2.0235  2.0242  1.9752
 1006MOL0     H35795  11.743   5.635  12.078 -4.0661  1.7513 -0.8832
 1006MOL0     H35796  10.589   5.571  10.433  0.3382 -0.9291 -1.3802
 1006MOL0     H35797  10.694   5.662  10.247 -0.6188  3.2721  0.3745
 1006MOL0     H35798  11.063   5.989  10.097 -0.5442 -0.2297 -0.1296
 1006MOL0     H35799  11.214   6.074   9.916 -1.1958  1.2854  1.1258
 1006MOL0     H35800  11.304   5.777   9.557  0.4288  0.4975  2.0527
 1006MOL0     H35801  11.157   5.877   9.544  0.5718  3.6946 -0.2305
 1006MOL0     H35802  11.279   6.068   9.485 -1.3767 -0.1761  1.1315
 1006MOL0     H35803  11.301   5.946   9.363 -1.7282 -0.0334  0.4506
 1006MOL0     H35804  11.530   5.905   9.479 -0.8246 -0.3940  0.8603
 1006MOL0     H35805  11.485   6.047   9.584  2.8944 -0.0195 -0.5269
 1006MOL0     H35806  11.453   6.167   9.363  2.3885  2.5245  0.4971
 1006MOL0     H35807  11.485   6.014   9.278  0.8781 -2.8723  1.6273
 1006MOL0     H35808  11.878   6.146   9.362 -0.0792  0.4271  0.3360
 1006MOL0     H35809  11.099   5.708   9.701  4.3341  0.1702 -0.5350
 1006MOL0     H35810  10.965   5.652   9.858 -1.3293  0.9474 -0.4548
 1007MOL0     O35811   1.073   9.620   0.262 -0.6459  0.0722 -0.5188
 1007MOL0     C35812   1.189   9.600   0.244  0.6647 -0.1886 -0.0642
 1007MOL0     O35813   1.262   9.524   0.332 -1.6630  0.6617  0.5533
 1007MOL0     C35814   1.215   9.425   0.420  0.2253 -0.3258 -0.2110
 1007MOL0     C35815   1.282   9.309   0.423  0.0345 -0.2667 -0.4095
 1007MOL0     C35816   1.227   9.195   0.486 -0.0298  0.1465 -0.2203
 1007MOL0     C35817   1.102   9.194   0.543  0.7203 -0.3167 -0.4718
 1007MOL0     O35818   1.050   9.085   0.603  0.3253  0.1468 -0.6647
 1007MOL0     C35819   0.918   9.092   0.653 -0.0298  0.4261 -0.2319
 1007MOL0     C35820   0.893   8.972   0.746  0.2645  0.5444  0.2995
 1007MOL0     C35821   0.759   8.978   0.804  0.2349 -0.8505  0.1614
 1007MOL0     C35822   0.704   8.858   0.875  0.2771 -0.3731  0.8636
 1007MOL0     C35823   0.801   8.799   0.980 -0.2424  0.0386  0.0666
 1007MOL0     C35824   0.730   8.681   1.042  1.4023 -0.4416 -0.0560
 1007MOL0     C35825   0.819   8.599   1.130  0.3046  0.0669 -0.0809
 1007MOL0     C35826   0.734   8.489   1.205  0.6501  0.0878 -0.5169
 1007MOL0     N35827   0.809   8.409   1.301 -0.3736 -0.1538  0.3210
 1007MOL0     C35828   0.812   8.416   1.442 -0.3689 -0.0516 -0.4873
 1007MOL0     C35829   0.919   8.350   1.484 -0.6662  0.2391 -0.4942
 1007MOL0     C35830   0.930   8.303   1.625 -0.1496  0.4466 -0.1134
 1007MOL0     C35831   0.983   8.409   1.713  0.5950  0.1247  0.1999
 1007MOL0     C35832   1.009   8.364   1.857 -0.0366 -0.4792 -0.5325
 1007MOL0     C35833   1.067   8.470   1.948  0.5637 -1.1005 -0.0656
 1007MOL0     O35834   1.197   8.518   1.921 -0.0649  0.3488 -0.6359
 1007MOL0     C35835   1.292   8.488   2.015 -0.1649 -0.4616  0.2876
 1007MOL0     C35836   1.408   8.426   1.962 -0.1911  0.7033 -0.6242
 1007MOL0     C35837   1.508   8.380   2.051 -0.9251  0.7420  0.9750
 1007MOL0     C35838   1.641   8.327   1.990 -0.2360 -0.3738  0.3611
 1007MOL0     C35839   1.495   8.387   2.191  0.0014 -0.3545  0.0474
 1007MOL0     C35840   1.599   8.339   2.283 -0.7852 -0.3740  0.7921
 1007MOL0     O35841   1.548   8.287   2.398 -0.2795 -0.0894 -0.7206
 1007MOL0     C35842   1.645   8.226   2.485  0.0529 -0.3145  0.6028
 1007MOL0     C35843   1.626   8.092   2.517  0.4873  0.0089  1.0688
 1007MOL0     C35844   1.703   8.031   2.614  0.1041  0.0024  0.1145
 1007MOL0     C35845   1.805   8.096   2.685  0.7388  0.7013 -0.2353
 1007MOL0     O35846   1.870   8.027   2.785 -0.1893 -0.0389  0.7180
 1007MOL0     C35847   2.008   8.052   2.801  1.1367  0.9449  0.0044
 1007MOL0     C35848   2.082   7.908   2.821  0.9416 -0.4503 -0.8555
 1007MOL0     C35849   2.205   7.928   2.917  0.1446  0.1244  0.5254
 1007MOL0     C35850   2.266   7.784   2.936 -0.0257  0.0260 -0.2084
 1007MOL0     C35851   2.395   7.765   3.023 -0.1993 -0.0083 -0.1455
 1007MOL0     C35852   2.517   7.845   2.985  0.0572  0.8609  0.3377
 1007MOL0     C35853   2.629   7.846   3.078 -0.2226 -0.0831  0.5109
 1007MOL0     C35854   2.741   7.941   3.026  0.2459 -0.2063 -0.3354
 1007MOL0    Cl35855   2.793   7.907   2.855  0.3109 -0.2335  0.0764
 1007MOL0     C35856   1.837   8.229   2.653 -0.5678 -0.2995 -0.0251
 1007MOL0     C35857   1.747   8.289   2.554 -0.2084 -0.5787 -0.0740
 1007MOL0     O35858   1.721   8.358   2.262  0.9122  0.6633  0.8376
 1007MOL0     C35859   1.381   8.449   2.240 -0.1231  0.5134  0.2198
 1007MOL0     C35860   1.286   8.499   2.153 -0.2407 -0.1492 -0.0199
 1007MOL0     N35861   0.978   8.291   1.366  0.3804 -0.4618 -0.2662
 1007MOL0     N35862   0.923   8.339   1.259  0.3882  0.4406 -0.1634
 1007MOL0     C35863   1.032   9.316   0.536  0.3908 -0.1155  0.4556
 1007MOL0     C35864   1.095   9.430   0.488 -1.3099  0.0276 -0.9575
 1007MOL0     C35865   1.256   9.673   0.127  0.2574 -0.3648  0.0761
 1007MOL0     C35866   1.198   9.777   0.056 -0.3440  0.0187 -0.4248
 1007MOL0     C35867   1.253   9.835  -0.059  0.0526  0.0321 -0.7114
 1007MOL0     C35868   1.363   9.777  -0.113  0.5335 -0.1606  0.2345
 1007MOL0     O35869   1.401   9.816  -0.238 -1.1953 -1.1646 -0.1125
 1007MOL0     C35870   1.482   9.935  -0.229  0.9996 -0.4178 -0.0959
 1007MOL0     C35871   1.625   9.893  -0.217 -0.4143  0.2434  1.1035
 1007MOL0     C35872   1.712  10.021  -0.206  0.0688  0.4493 -0.6290
 1007MOL0     C35873   1.845   9.988  -0.154 -0.9095  0.2213  0.0786
 1007MOL0     C35874   1.907   9.916  -0.261  0.5693  0.1769 -0.3183
 1007MOL0     C35875   1.965   9.859  -0.350 -0.2482  0.1179  0.0936
 1007MOL0     C35876   1.433   9.685  -0.036 -0.2551 -0.0927  0.8291
 1007MOL0     C35877   1.380   9.628   0.086 -0.4495 -1.0817  0.1336
 1007MOL0     H35878   1.376   9.310   0.368  0.9328  0.1613  1.0986
 1007MOL0     H35879   1.277   9.100   0.503 -0.5169  0.0242  0.6406
 1007MOL0     H35880   0.895   9.184   0.708 -0.5207 -0.5583  1.2671
 1007MOL0     H35881   0.845   9.098   0.572 -1.3063  0.7293  0.9056
 1007MOL0     H35882   0.898   8.875   0.694 -0.6602  0.4223  0.4233
 1007MOL0     H35883   0.966   8.954   0.825 -1.9664 -2.5430  1.8636
 1007MOL0     H35884   0.761   9.064   0.872 -2.8605 -0.2882 -0.3242
 1007MOL0     H35885   0.682   9.015   0.736 -0.7720 -1.2839  1.0343
 1007MOL0     H35886   0.616   8.886   0.934 -0.9993 -4.8198  1.4303
 1007MOL0     H35887   0.686   8.781   0.800  0.8922 -0.1749  0.5044
 1007MOL0     H35888   0.902   8.766   0.954 -0.7756  0.1463 -2.3242
 1007MOL0     H35889   0.817   8.873   1.059  2.7621  1.4694 -1.7006
 1007MOL0     H35890   0.649   8.724   1.101  2.3474  1.9254 -0.3728
 1007MOL0     H35891   0.696   8.611   0.964 -0.6919 -1.3339  1.5606
 1007MOL0     H35892   0.888   8.541   1.069 -1.5363 -2.0925 -0.2397
 1007MOL0     H35893   0.869   8.659   1.207 -0.2201 -0.8817  1.0314
 1007MOL0     H35894   0.686   8.435   1.123  0.9438 -2.7652  1.0605
 1007MOL0     H35895   0.660   8.541   1.267  2.8038  0.9840  1.4793
 1007MOL0     H35896   0.730   8.464   1.495  0.2872  1.9130 -1.1647
 1007MOL0     H35897   0.826   8.290   1.657  0.4869 -0.1368  1.9230
 1007MOL0     H35898   0.998   8.217   1.622 -0.7799 -0.0862  0.6217
 1007MOL0     H35899   0.922   8.499   1.710  3.9377  2.5765  0.5675
 1007MOL0     H35900   1.074   8.438   1.662 -0.3269 -0.1521 -1.6884
 1007MOL0     H35901   1.073   8.275   1.859  0.3971 -0.1780 -0.7841
 1007MOL0     H35902   0.911   8.337   1.896  1.0469 -2.4690  1.0113
 1007MOL0     H35903   1.064   8.429   2.049 -4.0510  2.2004  1.4753
 1007MOL0     H35904   1.001   8.556   1.934 -0.2877 -1.6978  0.1990
 1007MOL0     H35905   1.422   8.424   1.855 -0.2439 -2.6862 -0.6744
 1007MOL0     H35906   1.721   8.400   2.005 -1.3172  0.5920  1.8076
 1007MOL0     H35907   1.666   8.229   2.029  1.8531  0.2243  0.6287
 1007MOL0     H35908   1.630   8.316   1.882 -1.2317  0.8270  0.3050
 1007MOL0     H35909   1.550   8.039   2.461 -0.6078  0.3258  2.2203
 1007MOL0     H35910   1.681   7.927   2.635 -1.5619  0.5353  1.2234
 1007MOL0     H35911   2.050   8.094   2.709 -0.1700 -1.7058 -1.9689
 1007MOL0     H35912   2.021   8.128   2.878 -3.0998  0.5665  1.3451
 1007MOL0     H35913   2.008   7.847   2.873 -3.6989  4.8668 -0.2338
 1007MOL0     H35914   2.101   7.856   2.727 -0.0658 -0.4046 -1.0884
 1007MOL0     H35915   2.177   7.969   3.014 -0.4696  3.0296 -0.7728
 1007MOL0     H35916   2.275   8.003   2.879  1.0086  0.3027  2.3813
 1007MOL0     H35917   2.193   7.706   2.958  0.2137  0.4378  2.3405
 1007MOL0     H35918   2.314   7.766   2.839 -2.7666 -1.1517 -1.4428
 1007MOL0     H35919   2.420   7.659   3.036  1.7107  0.5568  1.2776
 1007MOL0     H35920   2.365   7.797   3.124 -2.1340  0.3619 -0.7813
 1007MOL0     H35921   2.553   7.790   2.897  1.6317 -2.0658  2.6339
 1007MOL0     H35922   2.487   7.947   2.956 -2.6694  0.3693  1.1972
 1007MOL0     H35923   2.664   7.744   3.090 -0.6571 -0.2115  0.6932
 1007MOL0     H35924   2.588   7.880   3.173 -1.7974  1.4154 -0.6271
 1007MOL0     H35925   2.822   7.926   3.098 -2.3543  0.1983  2.8846
 1007MOL0     H35926   2.715   8.047   3.031  1.6911  0.1173  1.0534
 1007MOL0     H35927   1.922   8.281   2.696 -1.2791 -0.2727  1.3932
 1007MOL0     H35928   1.769   8.390   2.522 -3.6882  0.0501 -0.9090
 1007MOL0     H35929   1.355   8.476   2.342  1.4932  3.8143 -0.1229
 1007MOL0     H35930   1.193   8.537   2.196  0.6167  4.0955 -1.4893
 1007MOL0     H35931   0.931   9.336   0.571  0.5008 -1.6641  1.8063
 1007MOL0     H35932   1.048   9.527   0.500  0.7241  1.1815 -1.8440
 1007MOL0     H35933   1.114   9.821   0.109  2.5044  3.5005  1.6537
 1007MOL0     H35934   1.221   9.929  -0.103 -0.8303  0.4352  0.7325
 1007MOL0     H35935   1.457   9.999  -0.314 -0.1497  2.0444  1.9332
 1007MOL0     H35936   1.453   9.996  -0.142  2.5146  0.8401 -0.4164
 1007MOL0     H35937   1.664   9.835  -0.301 -0.6976  2.1195 -0.3785
 1007MOL0     H35938   1.653   9.838  -0.127  1.8404  1.3471  1.1529
 1007MOL0     H35939   1.669  10.077  -0.123 -0.4066 -2.2041  1.0497
 1007MOL0     H35940   1.719  10.076  -0.301 -2.3139  3.4190  0.7479
 1007MOL0     H35941   1.844   9.946  -0.053  3.5011 -0.6051 -0.0209
 1007MOL0     H35942   1.909  10.077  -0.150 -0.3436 -0.0595 -1.8326
 1007MOL0     H35943   2.023   9.819  -0.431  2.6216 -2.8169  3.2921
 1007MOL0     H35944   1.526   9.644  -0.074  0.2335  2.2901 -0.7394
 1007MOL0     H35945   1.433   9.546   0.132  0.9558 -0.1092  0.3046
 1008MOL0     O35946   7.060   9.093   1.125 -0.2565 -0.2918  0.3517
 1008MOL0     C35947   7.176   9.117   1.109 -0.1459 -0.5145 -0.8522
 1008MOL0     O35948   7.229   9.246   1.088 -0.4480 -0.1167  0.2899
 1008MOL0     C35949   7.145   9.360   1.101 -0.0399 -0.2393 -0.3797
 1008MOL0     C35950   7.084   9.411   0.986 -0.0137 -0.2594 -0.6021
 1008MOL0     C35951   6.986   9.513   1.000 -0.2091  0.5231  0.2494
 1008MOL0     C35952   6.969   9.578   1.126 -0.1880  0.5431 -0.1841
 1008MOL0     O35953   6.871   9.671   1.145 -0.3400 -1.0437  0.8921
 1008MOL0     C35954   6.799   9.719   1.034 -0.9219 -0.6400  0.1169
 1008MOL0     C35955   6.687   9.818   1.067  0.6734  0.7445 -0.0596
 1008MOL0     C35956   6.741   9.959   1.087  0.2890 -0.8203 -0.6678
 1008MOL0     C35957   6.624  10.049   1.112 -0.2413  0.3577 -0.6057
 1008MOL0     C35958   6.650  10.187   1.181 -0.8114 -0.3931  0.1068
 1008MOL0     C35959   6.549  10.301   1.164 -0.2559  0.5747  0.7285
 1008MOL0     C35960   6.420  10.264   1.235 -0.3742 -0.3982 -0.9359
 1008MOL0     C35961   6.406  10.262   1.390 -0.1480  0.6649  0.2589
 1008MOL0     N35962   6.449  10.394   1.445  0.4158 -0.3361  0.1722
 1008MOL0     C35963   6.518  10.400   1.564  0.0382  1.1408 -0.0526
 1008MOL0     C35964   6.526  10.528   1.597 -0.7302  0.5011  0.2109
 1008MOL0     C35965   6.590  10.582   1.722  0.1728 -0.5479  0.3424
 1008MOL0     C35966   6.727  10.643   1.693  0.2921  0.6511  0.0361
 1008MOL0     C35967   6.708  10.786   1.631 -0.5055 -0.1767  0.0807
 1008MOL0     C35968   6.837  10.846   1.604 -0.4503 -0.7891 -0.6389
 1008MOL0     O35969   6.815  10.989   1.588  0.0408  0.0981  0.6305
 1008MOL0     C35970   6.922  11.070   1.578  0.4428 -0.4268  0.3496
 1008MOL0     C35971   7.054  11.046   1.620 -0.6804  0.1099  0.9858
 1008MOL0     C35972   7.147  11.158   1.627  1.1391  0.9945  0.0527
 1008MOL0     C35973   7.279  11.123   1.691  0.4660 -0.3830 -0.2954
 1008MOL0     C35974   7.109  11.292   1.591 -0.0380  0.2351  0.1595
 1008MOL0     C35975   7.203  11.400   1.575  0.3162  0.6311  0.1943
 1008MOL0     O35976   7.295  11.390   1.481  0.5696  0.1629  0.5759
 1008MOL0     C35977   7.396  11.488   1.470  1.2522 -0.1094 -0.0183
 1008MOL0     C35978   7.374  11.606   1.403 -0.1065 -0.6892 -0.3898
 1008MOL0     C35979   7.490  11.692   1.387 -0.3251  0.7174  0.1485
 1008MOL0     C35980   7.607  11.672   1.458  0.3584  0.7490  0.6352
 1008MOL0     O35981   7.723  11.744   1.450 -1.5964 -0.4159  0.4780
 1008MOL0     C35982   7.705  11.886   1.430  0.7439  0.6666  0.7703
 1008MOL0     C35983   7.829  11.961   1.407 -0.1730  0.8337  0.1495
 1008MOL0     C35984   7.923  11.952   1.528  0.5190 -0.0661  0.0904
 1008MOL0     C35985   8.038  12.055   1.525  0.4358 -0.0654 -0.1127
 1008MOL0     C35986   8.127  12.042   1.398  0.3695  0.1334  0.4967
 1008MOL0     C35987   8.247  12.133   1.393 -0.1810 -0.4023 -0.3276
 1008MOL0     C35988   8.299  12.145   1.246 -0.0814 -0.6960  0.1056
 1008MOL0     C35989   8.421  12.241   1.251 -0.1859 -0.6276  0.3734
 1008MOL0    Cl35990   8.486  12.260   1.076  0.0535 -0.5860 -0.2075
 1008MOL0     C35991   7.619  11.552   1.517  0.1843  0.3652 -0.7254
 1008MOL0     C35992   7.511  11.465   1.536 -0.5573  0.2843 -0.1161
 1008MOL0     O35993   7.185  11.493   1.650  0.9715 -0.3466 -0.8670
 1008MOL0     C35994   6.975  11.313   1.552  0.8239  0.2938 -0.0652
 1008MOL0     C35995   6.891  11.201   1.545  1.0323 -0.1729 -0.2543
 1008MOL0     N35996   6.443  10.607   1.509 -0.6030  0.5568  0.1798
 1008MOL0     N35997   6.400  10.524   1.417 -0.0661  0.4306 -0.4784
 1008MOL0     C35998   7.043   9.536   1.240 -1.3773  0.5859  0.3561
 1008MOL0     C35999   7.123   9.422   1.222 -0.6639 -0.9700 -0.4635
 1008MOL0     C36000   7.267   9.003   1.134 -0.4969 -0.0242  1.3491
 1008MOL0     C36001   7.222   8.885   1.185  1.3119  0.6932 -0.5674
 1008MOL0     C36002   7.303   8.772   1.196 -0.4584 -0.1034  0.3800
 1008MOL0     C36003   7.445   8.786   1.169 -0.2649 -1.0834  0.0346
 1008MOL0     O36004   7.532   8.681   1.191 -0.2022  0.2712 -0.0804
 1008MOL0     C36005   7.474   8.552   1.183 -0.1326  0.8990  0.7511
 1008MOL0     C36006   7.590   8.454   1.149 -0.0293 -0.3108 -0.0013
 1008MOL0     C36007   7.578   8.306   1.174 -0.1922  0.2292  0.5682
 1008MOL0     C36008   7.608   8.275   1.317 -0.8458  0.3914 -0.6965
 1008MOL0     C36009   7.499   8.304   1.411  0.5554  0.7474 -0.6944
 1008MOL0     C36010   7.402   8.332   1.481 -1.2655 -0.7393  0.8513
 1008MOL0     C36011   7.495   8.911   1.120 -1.5793 -0.6419  0.1901
 1008MOL0     C36012   7.402   9.017   1.099 -0.1240 -0.3924 -0.5049
 1008MOL0     H36013   7.102   9.346   0.901 -3.5930  2.1873 -3.5435
 1008MOL0     H36014   6.930   9.537   0.910  2.3923  1.6616 -1.1868
 1008MOL0     H36015   6.862   9.772   0.962 -1.0442 -1.5134 -0.6493
 1008MOL0     H36016   6.757   9.631   0.985 -0.3097 -1.0378  0.2901
 1008MOL0     H36017   6.612   9.826   0.988 -2.2387  4.3491  2.6900
 1008MOL0     H36018   6.635   9.779   1.155  1.8155 -0.9510 -0.0982
 1008MOL0     H36019   6.800   9.963   1.179 -1.6148 -2.2752  0.7225
 1008MOL0     H36020   6.801  10.001   1.006  1.2794  0.3662  0.6289
 1008MOL0     H36021   6.579  10.053   1.012 -3.1606  0.0749  0.5786
 1008MOL0     H36022   6.545   9.998   1.169  0.8066 -1.4366 -0.6950
 1008MOL0     H36023   6.681  10.179   1.286  2.4733 -1.9141 -0.8543
 1008MOL0     H36024   6.737  10.223   1.126  1.1783 -2.6705  1.5548
 1008MOL0     H36025   6.581  10.396   1.207 -3.7024  1.3562  1.9066
 1008MOL0     H36026   6.525  10.322   1.060 -3.3360  0.7580  1.3689
 1008MOL0     H36027   6.346  10.337   1.201 -0.3206 -0.8440 -2.0601
 1008MOL0     H36028   6.381  10.167   1.203  1.5954 -1.7658  0.5062
 1008MOL0     H36029   6.473  10.183   1.423  2.6634  1.6580 -2.5654
 1008MOL0     H36030   6.299  10.246   1.409  0.0038 -2.1598 -0.8297
 1008MOL0     H36031   6.566  10.313   1.608 -0.1527  0.2793 -1.4492
 1008MOL0     H36032   6.543  10.668   1.769 -0.3628  0.1988 -1.4576
 1008MOL0     H36033   6.604  10.496   1.788  4.1701 -0.1612  0.2787
 1008MOL0     H36034   6.787  10.580   1.627 -2.5272 -1.7697 -0.4347
 1008MOL0     H36035   6.776  10.652   1.790 -0.5075  2.0552  0.3371
 1008MOL0     H36036   6.653  10.854   1.696  1.4011 -1.2207  2.9533
 1008MOL0     H36037   6.654  10.769   1.537  1.4408  1.2336 -1.3628
 1008MOL0     H36038   6.901  10.809   1.524 -0.3758 -2.1194  0.0164
 1008MOL0     H36039   6.904  10.834   1.691  0.4568  1.2520 -0.9920
 1008MOL0     H36040   7.078  10.944   1.651 -0.6645  0.0851  0.8916
 1008MOL0     H36041   7.284  11.014   1.695 -0.2814 -0.5360 -2.3508
 1008MOL0     H36042   7.365  11.159   1.634  1.7448 -0.4524  1.5010
 1008MOL0     H36043   7.298  11.160   1.792  1.3904 -0.5720 -0.3924
 1008MOL0     H36044   7.270  11.617   1.375 -0.3097  4.0674  1.2755
 1008MOL0     H36045   7.477  11.787   1.336  1.2399 -0.1707 -2.1162
 1008MOL0     H36046   7.643  11.911   1.343 -0.4139  1.8855  1.8990
 1008MOL0     H36047   7.660  11.924   1.522 -0.4605  1.3329 -0.0583
 1008MOL0     H36048   7.878  11.908   1.325  1.7953 -0.8203  2.2532
 1008MOL0     H36049   7.797  12.064   1.389 -2.3720  0.3498  0.8690
 1008MOL0     H36050   7.959  11.850   1.544 -0.1159 -0.1234  1.2907
 1008MOL0     H36051   7.857  11.972   1.613 -0.4295  0.3569 -0.7207
 1008MOL0     H36052   7.996  12.155   1.511  2.1783  1.0530  2.1190
 1008MOL0     H36053   8.102  12.046   1.613  0.0500 -0.3952  0.1366
 1008MOL0     H36054   8.057  12.058   1.316  1.4593 -0.2986 -0.5561
 1008MOL0     H36055   8.161  11.939   1.380 -2.6795 -0.6249 -1.8383
 1008MOL0     H36056   8.211  12.225   1.440  2.6592 -0.3503  2.0270
 1008MOL0     H36057   8.318  12.086   1.462 -2.0652 -0.6002  1.5788
 1008MOL0     H36058   8.220  12.201   1.195 -0.7681  0.7293  2.5547
 1008MOL0     H36059   8.327  12.051   1.197  3.4608  0.5039 -0.4490
 1008MOL0     H36060   8.501  12.197   1.311  2.6124 -1.3242 -3.4968
 1008MOL0     H36061   8.387  12.335   1.296 -1.0916  0.2477 -1.9502
 1008MOL0     H36062   7.719  11.522   1.548  0.1460 -0.3993 -1.3063
 1008MOL0     H36063   7.533  11.377   1.597  2.1858 -0.6236 -2.2531
 1008MOL0     H36064   6.950  11.411   1.511  0.1845  0.5708  0.9706
 1008MOL0     H36065   6.787  11.220   1.521  0.4625 -2.2654  0.2897
 1008MOL0     H36066   7.024   9.577   1.338 -0.1487  1.2168  0.3485
 1008MOL0     H36067   7.173   9.388   1.313 -0.3570  0.5325 -0.0437
 1008MOL0     H36068   7.124   8.889   1.232  2.1599  0.1180  1.3235
 1008MOL0     H36069   7.257   8.685   1.240 -0.8409 -1.2392 -2.0952
 1008MOL0     H36070   7.430   8.546   1.283 -3.2301  0.4460 -0.5275
 1008MOL0     H36071   7.390   8.549   1.113 -1.2941  0.5937  2.1167
 1008MOL0     H36072   7.680   8.493   1.196  0.4086 -0.5985 -0.5828
 1008MOL0     H36073   7.600   8.475   1.042 -2.4668 -0.1093 -0.2451
 1008MOL0     H36074   7.653   8.264   1.107  1.1950 -1.9626  3.2770
 1008MOL0     H36075   7.475   8.277   1.153 -0.3949 -0.0047  1.8182
 1008MOL0     H36076   7.698   8.335   1.332 -2.0848  2.1638 -0.0601
 1008MOL0     H36077   7.636   8.169   1.320  1.1466  0.8796 -0.8640
 1008MOL0     H36078   7.319   8.344   1.548 -1.4662  0.6158  0.3761
 1008MOL0     H36079   7.600   8.926   1.097 -1.6845 -0.7028 -0.3407
 1008MOL0     H36080   7.438   9.107   1.050 -2.5866  0.2393 -1.3204
 1009MOL0     O36081   2.530   3.360   7.971 -0.4892  0.2132 -0.1808
 1009MOL0     C36082   2.625   3.432   7.994 -0.3819 -0.0343  0.4908
 1009MOL0     O36083   2.624   3.568   7.987 -0.8185 -0.3922  0.0575
 1009MOL0     C36084   2.506   3.624   7.963  0.3013 -0.3026  0.3297
 1009MOL0     C36085   2.429   3.662   8.076 -0.2395  0.6832 -0.3930
 1009MOL0     C36086   2.316   3.739   8.052 -0.2701 -0.2181 -0.5451
 1009MOL0     C36087   2.272   3.765   7.921  0.5527 -0.5731 -0.4711
 1009MOL0     O36088   2.170   3.848   7.897 -0.3319  0.4534 -0.4357
 1009MOL0     C36089   2.037   3.808   7.921 -0.6862 -0.2038  0.1427
 1009MOL0     C36090   1.955   3.928   7.950  0.1511  0.1293 -0.8600
 1009MOL0     C36091   1.807   3.899   7.965  0.4183 -0.7654 -0.5376
 1009MOL0     C36092   1.728   3.896   7.842 -0.0085  0.6095  0.5883
 1009MOL0     C36093   1.579   3.884   7.854  0.3330 -0.0400  0.5952
 1009MOL0     C36094   1.510   3.934   7.723 -0.0171  0.7164 -0.1233
 1009MOL0     C36095   1.363   3.888   7.718 -0.6270 -0.1262 -0.3803
 1009MOL0     C36096   1.274   3.931   7.600 -0.2136  0.4063  0.4912
 1009MOL0     N36097   1.255   4.070   7.580 -0.5881 -0.3216  0.7832
 1009MOL0     C36098   1.222   4.164   7.671 -0.1702 -0.9191 -0.0927
 1009MOL0     C36099   1.202   4.286   7.608 -0.2367 -0.1207 -0.2763
 1009MOL0     C36100   1.148   4.418   7.669 -0.2447 -0.5137  0.4481
 1009MOL0     C36101   1.249   4.498   7.749 -0.1952 -0.3182  1.1326
 1009MOL0     C36102   1.334   4.420   7.853 -0.1803 -0.3078  1.0555
 1009MOL0     C36103   1.418   4.530   7.940  0.5620  0.0882 -0.2679
 1009MOL0     O36104   1.481   4.459   8.049  0.0656  0.1862 -0.5706
 1009MOL0     C36105   1.611   4.420   8.045 -0.6316 -0.6882 -0.0095
 1009MOL0     C36106   1.683   4.404   7.927 -0.3267 -0.0837 -0.2697
 1009MOL0     C36107   1.829   4.369   7.932  0.1995 -0.5209  0.3894
 1009MOL0     C36108   1.903   4.398   7.806 -0.7991  0.5683 -0.5084
 1009MOL0     C36109   1.894   4.344   8.053 -0.7716 -0.3225  0.6381
 1009MOL0     C36110   2.044   4.324   8.069  1.0833 -1.3655  1.0989
 1009MOL0     O36111   2.122   4.319   7.958 -0.4941  0.1381  0.3573
 1009MOL0     C36112   2.254   4.270   7.974 -0.6845 -0.4771  0.6148
 1009MOL0     C36113   2.280   4.142   8.020  0.9077  0.6665  0.1613
 1009MOL0     C36114   2.408   4.082   8.007  0.5286 -0.5103 -0.1205
 1009MOL0     C36115   2.518   4.156   7.968  0.8493 -0.2710 -0.0057
 1009MOL0     O36116   2.630   4.078   7.979  0.6430  0.0531  0.9915
 1009MOL0     C36117   2.762   4.117   7.943 -0.5164 -0.7945 -0.2788
 1009MOL0     C36118   2.818   4.011   7.858 -0.2880  0.8184  0.8782
 1009MOL0     C36119   2.832   3.874   7.927 -0.9140 -1.0616  0.2602
 1009MOL0     C36120   2.905   3.778   7.826 -0.3138  0.5778  0.6370
 1009MOL0     C36121   3.060   3.808   7.798  0.7419 -0.6899 -0.1510
 1009MOL0     C36122   3.112   3.826   7.655 -0.3659 -0.0996  0.3054
 1009MOL0     C36123   3.258   3.867   7.664  0.4131 -0.2279  0.5772
 1009MOL0     C36124   3.327   3.890   7.530  0.5733  0.3855 -0.7579
 1009MOL0    Cl36125   3.305   4.054   7.476  0.1167 -0.0506  0.4509
 1009MOL0     C36126   2.495   4.287   7.924 -0.0544 -0.0638 -0.0466
 1009MOL0     C36127   2.368   4.345   7.932  0.1649  0.1207 -0.5022
 1009MOL0     O36128   2.081   4.337   8.180  0.1035  0.4115 -0.3491
 1009MOL0     C36129   1.810   4.357   8.170 -0.0159  1.0766 -0.0753
 1009MOL0     C36130   1.674   4.402   8.166  0.1558  0.6316 -0.2255
 1009MOL0     N36131   1.249   4.270   7.482  0.1264  0.9001 -0.5806
 1009MOL0     N36132   1.280   4.147   7.469  1.1915  0.4234  0.5960
 1009MOL0     C36133   2.351   3.732   7.815  0.6748  0.7098  0.3155
 1009MOL0     C36134   2.466   3.656   7.835  0.4295  0.9322  0.6538
 1009MOL0     C36135   2.744   3.359   8.019 -1.0055  1.3327  1.0812
 1009MOL0     C36136   2.861   3.425   8.066  0.3402  0.1623  1.2098
 1009MOL0     C36137   2.982   3.357   8.074  0.5559  1.2611  0.4574
 1009MOL0     C36138   2.987   3.226   8.031 -0.1924  0.5514  1.1651
 1009MOL0     O36139   3.108   3.163   8.008 -0.2865  0.6932  0.1277
 1009MOL0     C36140   3.131   3.046   8.091  0.1261 -0.1493  0.1843
 1009MOL0     C36141   3.154   3.101   8.239 -0.2137 -0.6738 -0.0423
 1009MOL0     C36142   3.280   3.186   8.231  0.0564 -0.2973  0.4596
 1009MOL0     C36143   3.333   3.237   8.370  0.7957  0.5660  0.6446
 1009MOL0     C36144   3.459   3.306   8.367 -1.1974 -0.7606 -0.3110
 1009MOL0     C36145   3.557   3.378   8.365  0.0568 -0.6458  1.3379
 1009MOL0     C36146   2.874   3.170   7.975 -0.1206  0.2841  0.8164
 1009MOL0     C36147   2.750   3.228   7.967 -0.9627  0.4149  0.3236
 1009MOL0     H36148   2.452   3.617   8.172 -0.3852 -1.7484 -1.4426
 1009MOL0     H36149   2.254   3.775   8.133  0.5994 -0.9382  0.4820
 1009MOL0     H36150   1.993   3.765   7.831 -1.8681  1.0863  0.0728
 1009MOL0     H36151   2.034   3.734   8.002 -0.2689 -1.0685 -0.6096
 1009MOL0     H36152   2.000   3.971   8.041  0.8860 -0.3737 -0.9761
 1009MOL0     H36153   1.972   3.997   7.866 -0.4975 -2.0436 -2.8745
 1009MOL0     H36154   1.804   3.801   8.014  4.0520 -2.2032 -2.7658
 1009MOL0     H36155   1.762   3.974   8.030  2.9368 -0.0617  0.4917
 1009MOL0     H36156   1.742   3.986   7.781  0.4040 -0.5780 -1.1689
 1009MOL0     H36157   1.745   3.803   7.786 -0.7656  2.0835 -2.3214
 1009MOL0     H36158   1.549   3.780   7.866 -0.9864  0.3684  1.0126
 1009MOL0     H36159   1.547   3.938   7.944  0.5008  0.6532  0.2478
 1009MOL0     H36160   1.520   4.041   7.702 -0.0813  0.6039 -0.7361
 1009MOL0     H36161   1.556   3.887   7.636  2.8269 -1.2258  2.2303
 1009MOL0     H36162   1.380   3.780   7.722  2.7055  0.3068  2.0080
 1009MOL0     H36163   1.314   3.922   7.809 -0.5011  1.4047 -0.8617
 1009MOL0     H36164   1.181   3.874   7.592 -0.0536  0.1978  0.0642
 1009MOL0     H36165   1.327   3.903   7.508 -1.3002 -2.3543  0.6140
 1009MOL0     H36166   1.204   4.142   7.775  2.8211 -0.6898  0.5506
 1009MOL0     H36167   1.108   4.481   7.589  2.0998 -1.8879 -1.9507
 1009MOL0     H36168   1.063   4.381   7.726 -1.2727 -0.2336 -0.8623
 1009MOL0     H36169   1.191   4.579   7.795  1.0901  1.4606 -0.2504
 1009MOL0     H36170   1.323   4.536   7.678  0.0414 -1.1970  0.8970
 1009MOL0     H36171   1.396   4.344   7.805  2.4207  2.4167 -0.2362
 1009MOL0     H36172   1.261   4.375   7.921 -2.1268  0.1810 -0.6232
 1009MOL0     H36173   1.355   4.610   7.980  2.2038  0.6528  1.3126
 1009MOL0     H36174   1.485   4.582   7.872  0.2505 -0.0647 -0.6978
 1009MOL0     H36175   1.639   4.408   7.828  0.8934 -1.1191 -0.8904
 1009MOL0     H36176   1.837   4.449   7.735 -2.4638  1.7246  1.7576
 1009MOL0     H36177   1.988   4.466   7.819 -0.6933  0.3358  0.0585
 1009MOL0     H36178   1.956   4.316   7.756  0.5414  0.0264  1.6541
 1009MOL0     H36179   2.209   4.066   8.049  4.3036 -2.1920  1.8534
 1009MOL0     H36180   2.433   3.976   8.012  0.5140 -0.4556  1.5975
 1009MOL0     H36181   2.750   4.208   7.884 -1.7523 -0.6438  0.1763
 1009MOL0     H36182   2.820   4.130   8.035  1.4790  1.0624 -1.7009
 1009MOL0     H36183   2.763   3.997   7.764  1.9283  1.2225 -0.5669
 1009MOL0     H36184   2.921   4.040   7.834 -0.2301 -0.8480 -1.1872
 1009MOL0     H36185   2.733   3.833   7.949 -1.4170 -1.3117 -2.1464
 1009MOL0     H36186   2.891   3.890   8.018  0.1105 -0.0318 -0.5485
 1009MOL0     H36187   2.896   3.676   7.866 -3.2969  0.0872 -0.9846
 1009MOL0     H36188   2.850   3.772   7.731  1.0261 -0.2868 -0.1142
 1009MOL0     H36189   3.114   3.728   7.851 -0.5319 -1.9719 -0.7365
 1009MOL0     H36190   3.067   3.900   7.856  1.2609 -0.4562 -0.5767
 1009MOL0     H36191   3.104   3.724   7.615 -0.0579 -0.4841  1.2148
 1009MOL0     H36192   3.057   3.897   7.592 -0.2156 -1.0347 -0.9165
 1009MOL0     H36193   3.305   3.776   7.704 -2.3106 -1.9469  0.1635
 1009MOL0     H36194   3.278   3.953   7.727 -0.3275 -0.3665  1.0099
 1009MOL0     H36195   3.298   3.817   7.454  3.6221  1.6711 -3.3688
 1009MOL0     H36196   3.434   3.867   7.536  0.6231  0.4033 -1.5276
 1009MOL0     H36197   2.571   4.346   7.875 -0.4942  0.1063 -0.5349
 1009MOL0     H36198   2.337   4.446   7.908 -2.4352  0.6071  3.8022
 1009MOL0     H36199   1.856   4.329   8.264  1.8714  2.3795 -0.5512
 1009MOL0     H36200   1.607   4.410   8.251 -0.8314  3.3696 -1.1475
 1009MOL0     H36201   2.317   3.754   7.715 -0.4040 -1.2696  0.1908
 1009MOL0     H36202   2.529   3.649   7.747 -1.7902  1.6818 -1.0969
 1009MOL0     H36203   2.848   3.531   8.090 -2.4886  0.7066 -1.9322
 1009MOL0     H36204   3.064   3.411   8.121 -0.0600  1.6112  1.1701
 1009MOL0     H36205   3.038   2.988   8.095 -0.6341  1.0980  1.7000
 1009MOL0     H36206   3.220   2.990   8.059  0.4289 -0.2420  1.1541
 1009MOL0     H36207   3.175   3.026   8.316  2.5872 -2.2712 -2.1763
 1009MOL0     H36208   3.072   3.172   8.252 -0.5316 -0.9811 -0.3579
 1009MOL0     H36209   3.274   3.267   8.157 -0.0165 -1.1410 -0.4794
 1009MOL0     H36210   3.357   3.116   8.196 -1.9377 -2.7886  0.7404
 1009MOL0     H36211   3.333   3.153   8.440 -1.3475 -0.3176 -0.3032
 1009MOL0     H36212   3.248   3.296   8.406  0.4595  0.4312  0.1003
 1009MOL0     H36213   3.642   3.442   8.359  1.2643 -2.2619 -0.0751
 1009MOL0     H36214   2.870   3.066   7.944 -4.3579 -0.0598  1.9039
 1009MOL0     H36215   2.674   3.168   7.918 -0.6136 -1.8853  2.4279
 1010MOL0     O36216   2.426   3.109   6.888 -0.2416  0.1611 -0.3845
 1010MOL0     C36217   2.450   3.007   6.826 -0.8881 -0.2055 -0.4328
 1010MOL0     O36218   2.374   2.899   6.806  0.2782  0.1014  0.9620
 1010MOL0     C36219   2.259   2.883   6.886 -0.1642  0.7734  0.4949
 1010MOL0     C36220   2.254   2.908   7.022  0.5675 -0.3708  0.0844
 1010MOL0     C36221   2.138   2.896   7.099 -0.1107 -0.1976  1.0084
 1010MOL0     C36222   2.016   2.872   7.036  0.4334 -0.1171 -0.3443
 1010MOL0     O36223   1.904   2.865   7.122  0.1244 -0.1711  0.2417
 1010MOL0     C36224   1.820   2.756   7.091  0.7287  0.5514 -1.0753
 1010MOL0     C36225   1.723   2.722   7.203 -0.5162 -0.3827 -0.2049
 1010MOL0     C36226   1.800   2.659   7.328 -0.0490 -0.2291  0.7177
 1010MOL0     C36227   1.728   2.659   7.458 -0.3103  0.1638  0.2685
 1010MOL0     C36228   1.711   2.794   7.525  0.7812 -0.6009 -0.0675
 1010MOL0     C36229   1.838   2.822   7.609 -0.0060  0.1396 -0.6405
 1010MOL0     C36230   1.799   2.924   7.719 -0.6079  0.2727  0.5579
 1010MOL0     C36231   1.728   3.056   7.675 -0.9328  1.5471 -0.2455
 1010MOL0     N36232   1.583   3.050   7.686  0.4327  0.0827  0.2043
 1010MOL0     C36233   1.492   3.086   7.591  0.9932  0.1289  0.3670
 1010MOL0     C36234   1.370   3.090   7.659  0.0443 -0.5080 -0.2709
 1010MOL0     C36235   1.226   3.113   7.616 -0.4842  0.8060  0.7302
 1010MOL0     C36236   1.133   2.993   7.630  0.7589  0.3269 -1.0189
 1010MOL0     C36237   0.986   3.017   7.629  0.5258 -0.0097 -0.3444
 1010MOL0     C36238   0.929   3.066   7.494 -0.3968  0.2611 -0.6542
 1010MOL0     O36239   0.795   3.021   7.483  0.1003 -0.5196 -0.8999
 1010MOL0     C36240   0.757   2.908   7.412 -0.3260  0.7464  0.3575
 1010MOL0     C36241   0.842   2.801   7.390  0.3221 -0.9466 -0.4985
 1010MOL0     C36242   0.814   2.701   7.308 -0.1390  0.1027 -0.6507
 1010MOL0     C36243   0.931   2.599   7.291 -0.0556  1.1217 -0.8604
 1010MOL0     C36244   0.694   2.702   7.229  0.1940  0.0919 -0.6279
 1010MOL0     C36245   0.655   2.592   7.131 -0.1856 -0.6060  0.6963
 1010MOL0     O36246   0.549   2.611   7.053  0.9978  0.0220 -0.0723
 1010MOL0     C36247   0.497   2.505   6.974  0.1261  0.4413 -0.5688
 1010MOL0     C36248   0.457   2.382   7.033 -0.3671  0.0617  0.9171
 1010MOL0     C36249   0.412   2.273   6.952 -0.3966 -0.7822  0.0174
 1010MOL0     C36250   0.396   2.289   6.817 -1.4130  0.8487  0.0995
 1010MOL0     O36251   0.337   2.177   6.753  0.0747 -0.7815  0.2169
 1010MOL0     C36252   0.357   2.163   6.607  0.1590 -0.6325  0.3455
 1010MOL0     C36253   0.508   2.168   6.557  0.0912 -0.4182  0.2635
 1010MOL0     C36254   0.536   2.160   6.406 -0.0970 -0.2105  0.1920
 1010MOL0     C36255   0.498   2.021   6.351  0.0547 -0.1063 -0.1783
 1010MOL0     C36256   0.543   2.001   6.202  0.2523 -0.2939 -1.0980
 1010MOL0     C36257   0.489   2.102   6.099  0.2877  0.2090 -0.0433
 1010MOL0     C36258   0.338   2.096   6.078 -0.5176  0.1328  0.3223
 1010MOL0     C36259   0.293   2.185   5.959 -0.0013 -0.1994 -0.1010
 1010MOL0    Cl36260   0.347   2.350   5.963 -0.0247 -0.3308  0.4574
 1010MOL0     C36261   0.426   2.409   6.757  0.0507 -0.7566 -0.4037
 1010MOL0     C36262   0.475   2.521   6.836  0.9059  0.5525  0.3964
 1010MOL0     O36263   0.723   2.487   7.120  0.3007 -0.4298  0.2696
 1010MOL0     C36264   0.598   2.798   7.265 -0.1729  0.1282  0.8828
 1010MOL0     C36265   0.632   2.903   7.351 -0.9881 -0.6983 -0.2802
 1010MOL0     N36266   1.397   3.041   7.789 -0.6244 -0.2668  0.3728
 1010MOL0     N36267   1.518   3.026   7.806  0.1948 -0.2705 -0.1885
 1010MOL0     C36268   2.017   2.863   6.900  0.2096 -0.7709  0.0758
 1010MOL0     C36269   2.137   2.850   6.826  0.0412 -0.3385  0.1930
 1010MOL0     C36270   2.590   2.997   6.788  0.2854  0.0068 -0.5421
 1010MOL0     C36271   2.681   3.104   6.782  0.1167 -0.1605 -0.6705
 1010MOL0     C36272   2.817   3.090   6.749 -0.3234 -0.6038  0.9062
 1010MOL0     C36273   2.862   2.961   6.712 -0.1045  0.7480 -0.2644
 1010MOL0     O36274   2.991   2.927   6.682  0.3697  1.2096  0.0707
 1010MOL0     C36275   3.099   3.012   6.721 -0.3607  0.7060 -0.4856
 1010MOL0     C36276   3.132   2.989   6.873  0.2186  0.4486 -0.4244
 1010MOL0     C36277   3.174   2.846   6.895 -0.2170  0.2856  0.3699
 1010MOL0     C36278   3.160   2.784   7.035  0.2896 -0.5297  0.3626
 1010MOL0     C36279   3.249   2.849   7.144  0.4439  0.6051 -0.3204
 1010MOL0     C36280   3.324   2.895   7.227  1.0143  0.0451  0.7424
 1010MOL0     C36281   2.772   2.854   6.711  0.5660 -0.0688  0.8729
 1010MOL0     C36282   2.644   2.873   6.755  0.1573  0.6009 -0.2916
 1010MOL0     H36283   2.349   2.936   7.068 -0.9436 -0.6014  3.6427
 1010MOL0     H36284   2.148   2.894   7.207  0.1562  0.9691  1.0215
 1010MOL0     H36285   1.755   2.766   7.003 -1.5222 -5.9185 -0.6313
 1010MOL0     H36286   1.890   2.673   7.075 -0.3343 -0.4385 -0.6516
 1010MOL0     H36287   1.664   2.812   7.228  2.4783  1.5010  0.5667
 1010MOL0     H36288   1.648   2.653   7.163 -1.6894  2.7924 -4.1369
 1010MOL0     H36289   1.817   2.555   7.297  3.9920  0.5667 -0.4052
 1010MOL0     H36290   1.896   2.710   7.345 -1.3257  2.1107  1.2883
 1010MOL0     H36291   1.630   2.612   7.438 -0.6734  0.6377  0.8981
 1010MOL0     H36292   1.781   2.598   7.531 -1.9438 -1.4337  0.2108
 1010MOL0     H36293   1.694   2.877   7.456 -1.4713  0.0325  1.1512
 1010MOL0     H36294   1.622   2.782   7.587 -0.9206 -0.7658 -2.4358
 1010MOL0     H36295   1.876   2.731   7.656  1.0289 -0.2134 -2.1037
 1010MOL0     H36296   1.912   2.852   7.534 -2.5585  1.1262 -2.9560
 1010MOL0     H36297   1.747   2.870   7.799  0.8912 -2.0535  0.0923
 1010MOL0     H36298   1.897   2.956   7.757 -1.1052 -0.5856  2.7139
 1010MOL0     H36299   1.764   3.072   7.572  0.7080 -2.6869 -0.5340
 1010MOL0     H36300   1.769   3.128   7.746  2.1227  0.8432 -1.1502
 1010MOL0     H36301   1.513   3.110   7.487  0.0924 -1.6686 -0.2819
 1010MOL0     H36302   1.189   3.202   7.667  3.2545  1.4539  2.7162
 1010MOL0     H36303   1.236   3.125   7.508 -0.2074  0.0790  0.6696
 1010MOL0     H36304   1.165   2.941   7.720 -1.6109  0.1940 -0.1843
 1010MOL0     H36305   1.156   2.927   7.546  1.5429  0.8407 -1.2235
 1010MOL0     H36306   0.962   3.092   7.704 -0.5350  1.0425 -1.6740
 1010MOL0     H36307   0.933   2.925   7.655 -2.6907  1.6886 -0.3869
 1010MOL0     H36308   0.993   3.031   7.412  1.3279  0.7122  0.4537
 1010MOL0     H36309   0.938   3.175   7.494  0.1596  0.3358 -4.2072
 1010MOL0     H36310   0.943   2.795   7.430  0.0963 -0.3393  0.1898
 1010MOL0     H36311   0.897   2.501   7.324 -0.5352  1.6425  0.2611
 1010MOL0     H36312   0.978   2.603   7.192 -2.1782  0.2423 -1.9605
 1010MOL0     H36313   1.018   2.626   7.352  0.9129  0.8057 -2.0715
 1010MOL0     H36314   0.458   2.373   7.141  1.2088 -0.2191  0.8915
 1010MOL0     H36315   0.397   2.174   6.994  0.8796 -0.8159  0.4400
 1010MOL0     H36316   0.315   2.064   6.587 -0.2683 -0.8692  2.1672
 1010MOL0     H36317   0.301   2.235   6.546  2.5956  0.8934 -0.2123
 1010MOL0     H36318   0.540   2.269   6.585 -2.3192  0.8647 -1.2180
 1010MOL0     H36319   0.558   2.085   6.607  2.2066  1.8376  2.0980
 1010MOL0     H36320   0.642   2.186   6.396 -0.4981  3.3167  2.8760
 1010MOL0     H36321   0.476   2.229   6.346  0.0743 -0.4669 -0.2710
 1010MOL0     H36322   0.547   1.944   6.411  3.8447  1.7939 -0.4782
 1010MOL0     H36323   0.390   2.012   6.361  0.0291 -0.0496 -0.3934
 1010MOL0     H36324   0.505   1.901   6.180  1.2711 -0.6399 -1.3364
 1010MOL0     H36325   0.652   1.994   6.191  0.4126 -1.7861  0.7425
 1010MOL0     H36326   0.526   2.197   6.139 -1.8328  0.4955  1.4009
 1010MOL0     H36327   0.539   2.089   6.003  1.1146  0.3853  0.3475
 1010MOL0     H36328   0.286   2.124   6.171  0.6093 -1.4422  1.4979
 1010MOL0     H36329   0.306   1.995   6.050 -0.3247 -0.6674  2.7370
 1010MOL0     H36330   0.184   2.176   5.959 -0.1527  0.1842 -3.6051
 1010MOL0     H36331   0.328   2.160   5.858  1.9458  0.6005  0.3299
 1010MOL0     H36332   0.399   2.415   6.652 -1.9724 -2.9450 -0.1103
 1010MOL0     H36333   0.494   2.610   6.777  2.3907  0.1386  0.1968
 1010MOL0     H36334   0.502   2.801   7.215 -1.3953  0.8060  3.1107
 1010MOL0     H36335   0.568   2.989   7.372  2.2306  1.7840  0.1491
 1010MOL0     H36336   1.922   2.846   6.850  0.0727  3.9940 -1.8796
 1010MOL0     H36337   2.128   2.842   6.719  0.2149 -0.0455  0.1566
 1010MOL0     H36338   2.656   3.210   6.789  2.3709  0.4127 -0.6083
 1010MOL0     H36339   2.876   3.180   6.743 -2.7756  0.9856 -1.6966
 1010MOL0     H36340   3.186   2.997   6.657 -2.0810 -2.6246 -2.3217
 1010MOL0     H36341   3.070   3.116   6.705  0.5754  1.1270  0.4335
 1010MOL0     H36342   3.041   3.022   6.923  0.8654 -1.2391  2.0385
 1010MOL0     H36343   3.215   3.053   6.906  2.3318 -1.0411 -2.5122
 1010MOL0     H36344   3.279   2.844   6.864  0.0661 -1.8661  1.2572
 1010MOL0     H36345   3.117   2.777   6.832 -0.7085 -2.3446  3.4378
 1010MOL0     H36346   3.170   2.675   7.029  0.0751 -0.7331  2.7702
 1010MOL0     H36347   3.054   2.798   7.059  0.3958  0.5319  0.2570
 1010MOL0     H36348   3.391   2.931   7.302 -0.0283  0.2618  1.6043
 1010MOL0     H36349   2.803   2.751   6.696  0.1076  0.1442 -2.2618
 1010MOL0     H36350   2.586   2.782   6.771 -1.4457  1.5502 -0.4568
 1011MOL0     O36351  10.134   8.742   7.791  0.3203  0.2046  0.3434
 1011MOL0     C36352  10.025   8.688   7.760  0.8587  0.3949 -0.4070
 1011MOL0     O36353   9.898   8.729   7.796 -0.8812  0.3964 -0.1618
 1011MOL0     C36354   9.883   8.844   7.872 -0.3262  0.1746  0.6719
 1011MOL0     C36355   9.785   8.938   7.832 -0.1624 -0.0496 -0.1126
 1011MOL0     C36356   9.754   9.054   7.902  0.3414  0.9941  0.5520
 1011MOL0     C36357   9.824   9.091   8.020  0.1000  0.1936  0.7864
 1011MOL0     O36358   9.793   9.211   8.073 -0.7089 -0.8603 -0.1584
 1011MOL0     C36359   9.801   9.337   8.005 -0.3510  0.7821 -0.5676
 1011MOL0     C36360   9.945   9.372   7.981  0.9206  0.3289  0.2015
 1011MOL0     C36361   9.994   9.325   7.844 -0.4108  0.1151  0.6707
 1011MOL0     C36362  10.127   9.382   7.790 -0.5678 -0.7128  0.7354
 1011MOL0     C36363  10.251   9.299   7.823  1.4545  0.6303 -0.1529
 1011MOL0     C36364  10.377   9.365   7.760  0.5001 -0.1020 -0.3063
 1011MOL0     C36365  10.507   9.319   7.838 -0.0178  0.7668  0.0550
 1011MOL0     C36366  10.635   9.318   7.749  0.4026  0.1823  0.4582
 1011MOL0     N36367  10.668   9.455   7.716 -0.1398  0.1188 -0.6723
 1011MOL0     C36368  10.667   9.566   7.805  0.5645  0.6784 -0.0266
 1011MOL0     C36369  10.687   9.668   7.720 -0.5076  0.2246  0.3413
 1011MOL0     C36370  10.678   9.814   7.749  1.0119  1.1447  0.4923
 1011MOL0     C36371  10.570   9.891   7.684  0.0956 -0.0404 -0.0630
 1011MOL0     C36372  10.438   9.824   7.712 -0.9168 -0.3166  0.8256
 1011MOL0     C36373  10.361   9.902   7.831  0.0652  0.2809  0.5691
 1011MOL0     O36374  10.440   9.877   7.949 -0.4690  0.0235 -0.1577
 1011MOL0     C36375  10.435   9.757   8.018  0.5296 -0.3357  0.7783
 1011MOL0     C36376  10.537   9.722   8.105  0.4644 -0.7754  0.7056
 1011MOL0     C36377  10.535   9.600   8.171  1.3682 -0.3936 -0.2646
 1011MOL0     C36378  10.652   9.584   8.262  0.0881 -0.1965  0.5073
 1011MOL0     C36379  10.423   9.509   8.162  0.3345 -0.6102 -0.1597
 1011MOL0     C36380  10.425   9.364   8.213  0.2062 -0.1305  0.3087
 1011MOL0     O36381  10.305   9.300   8.237 -0.2552 -0.6088 -0.4344
 1011MOL0     C36382  10.298   9.171   8.287  0.1449  0.2313 -0.9371
 1011MOL0     C36383  10.310   9.163   8.423 -0.1301  0.1791 -0.2550
 1011MOL0     C36384  10.305   9.025   8.480  0.1122 -0.2508  0.4860
 1011MOL0     C36385  10.279   8.912   8.398 -0.1550 -0.4819 -0.9115
 1011MOL0     O36386  10.276   8.788   8.458 -0.3247  0.2486  0.2897
 1011MOL0     C36387  10.261   8.768   8.600  0.7732  0.1791  0.9718
 1011MOL0     C36388  10.251   8.623   8.620 -0.5830 -0.8724 -0.2994
 1011MOL0     C36389  10.136   8.542   8.547 -0.0569 -0.3497 -0.2100
 1011MOL0     C36390  10.144   8.396   8.544 -0.6838 -0.1331 -0.8063
 1011MOL0     C36391  10.048   8.346   8.437  1.0768  0.3056  0.0075
 1011MOL0     C36392  10.060   8.193   8.411 -0.1336  0.4273  0.8079
 1011MOL0     C36393   9.970   8.145   8.293 -1.2144  0.2484 -0.3266
 1011MOL0     C36394   9.975   7.990   8.262  0.9535  0.1378  0.6469
 1011MOL0    Cl36395   9.914   7.906   8.399 -0.0245 -0.2176  0.0506
 1011MOL0     C36396  10.255   8.930   8.267 -0.1419 -0.0930  0.1624
 1011MOL0     C36397  10.266   9.062   8.210 -0.6158 -0.2462  0.4542
 1011MOL0     O36398  10.540   9.318   8.219  0.4860  0.1991 -0.2729
 1011MOL0     C36399  10.314   9.552   8.078  0.5105 -0.2221 -0.6505
 1011MOL0     C36400  10.323   9.673   8.010 -0.9828 -0.2260  0.8086
 1011MOL0     N36401  10.683   9.619   7.593  0.0057 -0.3459 -0.0992
 1011MOL0     N36402  10.671   9.492   7.588  0.2059  0.8116  0.8157
 1011MOL0     C36403   9.928   9.000   8.061  0.7072 -0.4729 -0.3445
 1011MOL0     C36404   9.943   8.871   7.990 -0.4098 -1.2256  0.1182
 1011MOL0     C36405  10.024   8.551   7.684 -0.1188  0.2191 -0.0754
 1011MOL0     C36406   9.918   8.469   7.675  0.5343 -0.1821  0.0373
 1011MOL0     C36407   9.941   8.343   7.610 -0.3225 -0.2501 -0.2139
 1011MOL0     C36408  10.063   8.307   7.554  0.0987 -0.1870 -0.0391
 1011MOL0     O36409  10.071   8.181   7.495  0.1113 -0.5889  0.2447
 1011MOL0     C36410  10.189   8.142   7.438  0.2857  0.4955  0.4207
 1011MOL0     C36411  10.166   8.001   7.402 -0.1820 -0.4112 -0.3458
 1011MOL0     C36412  10.292   7.916   7.382 -0.1822  0.5963 -1.3915
 1011MOL0     C36413  10.263   7.756   7.363  0.1833 -0.6320 -0.5318
 1011MOL0     C36414  10.393   7.689   7.354 -0.7498 -0.4064  0.5893
 1011MOL0     C36415  10.513   7.656   7.363 -0.1356 -0.1080 -0.0724
 1011MOL0     C36416  10.167   8.402   7.557 -0.1472  0.3227 -0.7135
 1011MOL0     C36417  10.144   8.519   7.617 -0.7336 -0.5899 -0.6208
 1011MOL0     H36418   9.737   8.922   7.735 -1.0397 -1.2757  0.4949
 1011MOL0     H36419   9.670   9.115   7.871  0.6161  1.2139  0.2428
 1011MOL0     H36420   9.741   9.334   7.915  1.7844  2.6001 -2.1723
 1011MOL0     H36421   9.758   9.414   8.069  1.0216  2.2191 -1.3074
 1011MOL0     H36422   9.952   9.480   7.968 -2.1146  0.6969  0.9610
 1011MOL0     H36423  10.012   9.336   8.060  2.4397  0.4874 -0.9759
 1011MOL0     H36424   9.998   9.215   7.838 -3.3261 -0.0935  0.8385
 1011MOL0     H36425   9.934   9.370   7.764  1.7951  2.7351  0.3532
 1011MOL0     H36426  10.125   9.373   7.681  1.6749  0.8907  0.4962
 1011MOL0     H36427  10.131   9.489   7.810  2.7722 -0.4130 -0.8719
 1011MOL0     H36428  10.261   9.283   7.930  3.5119  0.6389 -0.3162
 1011MOL0     H36429  10.240   9.195   7.791  2.5745  0.1602  0.9145
 1011MOL0     H36430  10.368   9.331   7.657 -0.0795 -2.8176  0.5777
 1011MOL0     H36431  10.379   9.475   7.765  2.3105 -0.0380 -1.3890
 1011MOL0     H36432  10.523   9.379   7.928  1.0677 -0.6684  0.8697
 1011MOL0     H36433  10.484   9.218   7.873 -3.2641 -0.7980 -5.2733
 1011MOL0     H36434  10.624   9.275   7.649  1.2223  0.1300  0.3811
 1011MOL0     H36435  10.708   9.264   7.812  1.5279 -1.5965 -2.1840
 1011MOL0     H36436  10.651   9.572   7.913 -0.1805 -0.2701 -0.0638
 1011MOL0     H36437  10.674   9.816   7.859 -1.3088 -2.9607  0.6850
 1011MOL0     H36438  10.772   9.855   7.711  2.0814 -0.5122  1.2555
 1011MOL0     H36439  10.583   9.896   7.575 -1.5330  1.7488 -0.2122
 1011MOL0     H36440  10.568   9.995   7.718 -2.5565 -0.7970  2.5127
 1011MOL0     H36441  10.437   9.715   7.720  3.2189 -0.3680  2.9409
 1011MOL0     H36442  10.390   9.831   7.614  0.8145 -0.0380 -0.0264
 1011MOL0     H36443  10.254   9.876   7.832 -0.7046  2.9195 -1.1349
 1011MOL0     H36444  10.357  10.010   7.815 -1.2623  0.0651 -0.8261
 1011MOL0     H36445  10.617   9.795   8.116  1.4155 -1.7970  0.6970
 1011MOL0     H36446  10.620   9.522   8.346 -1.9247 -0.4074 -0.3443
 1011MOL0     H36447  10.731   9.537   8.203 -0.9350 -1.0312 -0.2521
 1011MOL0     H36448  10.686   9.678   8.306 -1.4110 -0.3766  2.1430
 1011MOL0     H36449  10.317   9.248   8.490  0.9643 -1.4408  1.7997
 1011MOL0     H36450  10.320   9.015   8.587  1.7177  0.5582  0.3690
 1011MOL0     H36451  10.339   8.823   8.653  0.4836  1.3127  0.2681
 1011MOL0     H36452  10.181   8.828   8.644  0.7960  0.8139  0.1802
 1011MOL0     H36453  10.344   8.580   8.583  0.3593  1.7864 -1.2848
 1011MOL0     H36454  10.230   8.617   8.727 -0.8031  2.3191 -0.0724
 1011MOL0     H36455  10.122   8.596   8.453  1.3052  2.2825  0.9976
 1011MOL0     H36456  10.047   8.560   8.608  1.4096 -1.1386  2.2992
 1011MOL0     H36457  10.245   8.364   8.518 -0.6778 -0.7552 -0.0555
 1011MOL0     H36458  10.129   8.351   8.642 -0.2874 -1.2454 -1.2440
 1011MOL0     H36459  10.065   8.390   8.338 -1.4746 -2.3509 -1.7902
 1011MOL0     H36460   9.946   8.351   8.474  1.9415  2.3255  2.4282
 1011MOL0     H36461  10.164   8.173   8.384  0.3987  4.0667 -0.3881
 1011MOL0     H36462  10.033   8.142   8.504 -3.4444  1.8705  0.7990
 1011MOL0     H36463  10.007   8.184   8.198  0.3724  2.9192  1.2668
 1011MOL0     H36464   9.869   8.185   8.299 -1.7866 -1.1566 -0.1124
 1011MOL0     H36465  10.079   7.961   8.242  1.2566  1.7461 -0.2459
 1011MOL0     H36466   9.915   7.952   8.179  0.0126 -3.2337  2.6608
 1011MOL0     H36467  10.229   8.849   8.198 -0.9553 -0.0744  0.4393
 1011MOL0     H36468  10.248   9.069   8.103 -1.5152 -3.6412  0.2504
 1011MOL0     H36469  10.229   9.488   8.059  0.1633 -0.7808  2.3000
 1011MOL0     H36470  10.241   9.697   7.943  0.7789  0.1722 -1.2925
 1011MOL0     H36471   9.996   9.014   8.144  0.0083 -5.1743  1.3119
 1011MOL0     H36472  10.018   8.806   8.035  1.2003 -0.0194 -0.7284
 1011MOL0     H36473   9.819   8.494   7.712  1.4160  2.6114  0.7253
 1011MOL0     H36474   9.861   8.273   7.591  0.0915 -0.6945 -0.3374
 1011MOL0     H36475  10.217   8.192   7.345  0.1953 -2.5621 -1.3766
 1011MOL0     H36476  10.269   8.149   7.512 -0.7269  2.2788  1.4155
 1011MOL0     H36477  10.120   8.007   7.303 -1.2931  0.1077  0.1754
 1011MOL0     H36478  10.093   7.955   7.470 -0.9610  1.2130 -0.0093
 1011MOL0     H36479  10.364   7.941   7.461 -0.1576  3.7737 -2.2917
 1011MOL0     H36480  10.339   7.953   7.291  3.2094  3.8402  1.3579
 1011MOL0     H36481  10.216   7.745   7.264 -0.8750 -0.6841 -0.0372
 1011MOL0     H36482  10.203   7.715   7.445  0.1455  0.6552  0.1049
 1011MOL0     H36483  10.617   7.642   7.388 -0.8146  0.9552  3.9660
 1011MOL0     H36484  10.247   8.379   7.486  0.3017 -2.9815  0.6587
 1011MOL0     H36485  10.227   8.584   7.643 -2.1878 -0.1919  3.8358
 1012MOL0     O36486   2.195  10.707   6.747  0.3919  0.3755  0.2195
 1012MOL0     C36487   2.234  10.649   6.849 -0.3039 -0.1468 -0.6386
 1012MOL0     O36488   2.187  10.672   6.983  0.4656 -0.1592 -0.3420
 1012MOL0     C36489   2.084  10.759   7.018  0.2944  0.2924  1.4798
 1012MOL0     C36490   2.089  10.848   7.119 -0.1165  0.3589  0.3426
 1012MOL0     C36491   2.003  10.962   7.128  0.2497  1.0433  1.0080
 1012MOL0     C36492   1.888  10.962   7.042 -0.7341 -0.5461 -0.8935
 1012MOL0     O36493   1.807  11.068   7.043  0.2380  0.1457 -0.3823
 1012MOL0     C36494   1.709  11.086   6.936 -0.9586 -0.7569 -0.8225
 1012MOL0     C36495   1.782  11.167   6.821 -0.4936  1.0903 -0.4808
 1012MOL0     C36496   1.794  11.319   6.837 -0.1643 -0.0816  0.3026
 1012MOL0     C36497   1.850  11.382   6.709  0.3204  0.6730 -0.6566
 1012MOL0     C36498   1.841  11.528   6.709 -0.7955 -0.8102  0.5369
 1012MOL0     C36499   1.924  11.573   6.586  0.2951  0.4880 -0.1862
 1012MOL0     C36500   1.928  11.720   6.596 -0.0877 -0.0809  0.6797
 1012MOL0     C36501   1.999  11.788   6.483 -0.8621 -0.4301  1.6805
 1012MOL0     N36502   2.138  11.843   6.501  0.9957  1.2642 -0.9362
 1012MOL0     C36503   2.259  11.780   6.528  0.3878  0.4515 -0.5659
 1012MOL0     C36504   2.354  11.878   6.517 -0.0204 -0.8253  0.3475
 1012MOL0     C36505   2.509  11.870   6.505  0.0442 -0.1612  0.2186
 1012MOL0     C36506   2.570  11.769   6.414  0.1544  0.1638  0.2075
 1012MOL0     C36507   2.722  11.777   6.387 -0.4353 -0.0799 -0.2716
 1012MOL0     C36508   2.796  11.763   6.516 -0.4017 -0.2513  0.1429
 1012MOL0     O36509   2.800  11.623   6.549 -0.5490  0.4721  0.0047
 1012MOL0     C36510   2.870  11.539   6.469  0.2770  0.5778  0.6081
 1012MOL0     C36511   2.971  11.573   6.376  0.0604  0.0813  0.5415
 1012MOL0     C36512   3.038  11.480   6.294  1.1530 -0.0681  0.2910
 1012MOL0     C36513   3.172  11.516   6.219 -0.1541 -0.9094 -0.0922
 1012MOL0     C36514   3.001  11.340   6.301  0.4664 -0.3919  0.0495
 1012MOL0     C36515   3.060  11.232   6.226  0.0493  0.2792  1.1343
 1012MOL0     O36516   3.192  11.243   6.189 -1.2574 -0.0249 -0.0663
 1012MOL0     C36517   3.249  11.156   6.099  0.3407  0.5277 -0.0217
 1012MOL0     C36518   3.310  11.204   5.982 -0.0905  0.0904  0.2569
 1012MOL0     C36519   3.378  11.109   5.898  0.2889 -0.6494  0.0624
 1012MOL0     C36520   3.387  10.976   5.932  0.2276 -0.1127 -0.1135
 1012MOL0     O36521   3.466  10.881   5.874 -0.1440  0.4484  0.4468
 1012MOL0     C36522   3.527  10.895   5.750 -0.1546  0.2882 -0.4629
 1012MOL0     C36523   3.612  10.773   5.708  0.1642  0.6610 -0.0440
 1012MOL0     C36524   3.702  10.716   5.815  0.2023  0.1791  0.3580
 1012MOL0     C36525   3.630  10.615   5.910 -0.1226 -0.0531 -0.5768
 1012MOL0     C36526   3.726  10.505   5.965  0.6199 -0.0303  0.0166
 1012MOL0     C36527   3.847  10.551   6.047 -0.2692  0.5478  0.2198
 1012MOL0     C36528   3.938  10.439   6.090 -0.8374 -0.4882  0.7326
 1012MOL0     C36529   4.073  10.490   6.154 -0.0222  0.0644 -0.2603
 1012MOL0    Cl36530   4.039  10.598   6.289 -0.1550 -0.5244  0.0823
 1012MOL0     C36531   3.313  10.928   6.045 -0.0829  0.2362  0.0862
 1012MOL0     C36532   3.245  11.016   6.126 -0.2459  0.4235 -0.9439
 1012MOL0     O36533   2.995  11.132   6.219 -0.7250  0.4822 -0.7140
 1012MOL0     C36534   2.892  11.311   6.383  0.5124  0.1909  0.1697
 1012MOL0     C36535   2.828  11.405   6.465  0.1429  0.4857  0.5452
 1012MOL0     N36536   2.283  11.994   6.474 -0.9850  0.2635 -1.0271
 1012MOL0     N36537   2.158  11.971   6.472  0.2886 -0.5470  0.3403
 1012MOL0     C36538   1.866  10.851   6.965 -0.3319  1.2914 -0.2865
 1012MOL0     C36539   1.963  10.751   6.946  0.5225  0.4098 -0.1837
 1012MOL0     C36540   2.345  10.554   6.831 -0.1875 -0.4574 -0.0499
 1012MOL0     C36541   2.379  10.476   6.939 -0.1877  0.3479 -0.8645
 1012MOL0     C36542   2.482  10.380   6.942  0.7166  0.1374 -0.0727
 1012MOL0     C36543   2.566  10.361   6.831  1.0718 -0.5201  0.1099
 1012MOL0     O36544   2.670  10.267   6.833  0.2871 -0.5992  0.4784
 1012MOL0     C36545   2.786  10.274   6.754  0.0152  0.3108  0.8370
 1012MOL0     C36546   2.764  10.203   6.618 -0.1891 -0.0148  0.2466
 1012MOL0     C36547   2.732  10.050   6.632  0.3186 -0.2432  0.1960
 1012MOL0     C36548   2.752   9.971   6.506 -0.2758 -0.3388  0.5055
 1012MOL0     C36549   2.676   9.842   6.497 -0.0663  0.1532  0.5162
 1012MOL0     C36550   2.622   9.735   6.475 -0.4296 -0.0343 -0.4158
 1012MOL0     C36551   2.534  10.444   6.725  0.5200 -0.7160  0.4150
 1012MOL0     C36552   2.430  10.538   6.721  0.6249  0.1849  0.5624
 1012MOL0     H36553   2.180  10.843   7.178  0.0268 -0.3010  0.0743
 1012MOL0     H36554   2.013  11.025   7.216  1.3542  0.1725  1.5309
 1012MOL0     H36555   1.663  10.997   6.891  1.2837 -2.5148  0.1813
 1012MOL0     H36556   1.627  11.148   6.975 -2.1389 -2.1648 -0.9626
 1012MOL0     H36557   1.887  11.135   6.816 -1.3093 -1.8486 -1.1661
 1012MOL0     H36558   1.737  11.134   6.727 -0.0320  0.1926 -0.4014
 1012MOL0     H36559   1.688  11.345   6.847 -0.6354 -0.9420 -1.8445
 1012MOL0     H36560   1.838  11.340   6.935  0.6111 -2.9968  0.6651
 1012MOL0     H36561   1.950  11.343   6.691 -1.4586 -3.7425 -2.3853
 1012MOL0     H36562   1.775  11.352   6.636 -2.5846  1.1641  1.8953
 1012MOL0     H36563   1.744  11.574   6.693 -0.1056  0.4619 -0.1483
 1012MOL0     H36564   1.893  11.567   6.797  3.7850 -0.0992 -2.1284
 1012MOL0     H36565   2.021  11.522   6.593  0.2370  0.5824  1.7102
 1012MOL0     H36566   1.879  11.537   6.493  0.5617  0.8623 -0.4636
 1012MOL0     H36567   1.825  11.759   6.588  0.0660 -0.0145 -1.4774
 1012MOL0     H36568   1.980  11.759   6.683 -1.0737  1.7978  0.4926
 1012MOL0     H36569   1.940  11.876   6.457  2.1902  0.8909 -1.6432
 1012MOL0     H36570   2.005  11.730   6.390 -0.3806  1.7385  0.2937
 1012MOL0     H36571   2.276  11.675   6.546  1.3327  0.4591 -1.3608
 1012MOL0     H36572   2.536  11.972   6.475  0.0853  1.1682  4.2157
 1012MOL0     H36573   2.548  11.854   6.606 -0.1510 -1.4479  0.1121
 1012MOL0     H36574   2.513  11.752   6.322  1.3950 -3.1944 -0.0737
 1012MOL0     H36575   2.562  11.671   6.462  3.0864 -0.9162 -1.2850
 1012MOL0     H36576   2.747  11.875   6.345  2.2208 -0.4819  0.1686
 1012MOL0     H36577   2.745  11.706   6.306  1.2569  3.2965 -3.0214
 1012MOL0     H36578   2.752  11.823   6.596 -2.2804  0.0680 -1.0786
 1012MOL0     H36579   2.896  11.807   6.504 -1.0126  1.4072  0.8795
 1012MOL0     H36580   3.018  11.671   6.376 -1.0250  0.7074 -2.2368
 1012MOL0     H36581   3.257  11.495   6.284  0.9845 -0.0303 -1.2705
 1012MOL0     H36582   3.190  11.468   6.123 -1.6244 -4.1543  1.0878
 1012MOL0     H36583   3.167  11.621   6.187  1.8318 -0.4941  0.8331
 1012MOL0     H36584   3.303  11.306   5.946 -1.6599 -0.4790 -1.1376
 1012MOL0     H36585   3.422  11.146   5.806  1.3430 -2.9923 -0.4435
 1012MOL0     H36586   3.465  10.918   5.663 -2.8827  0.0782  1.3003
 1012MOL0     H36587   3.603  10.972   5.765 -0.6879  0.8027 -0.3932
 1012MOL0     H36588   3.557  10.687   5.671 -0.0180  1.4290 -1.6317
 1012MOL0     H36589   3.673  10.800   5.621 -1.0657 -3.2338 -2.3425
 1012MOL0     H36590   3.745  10.792   5.880 -1.2558 -0.3110  1.9481
 1012MOL0     H36591   3.783  10.660   5.766 -1.9343 -0.6814 -2.4485
 1012MOL0     H36592   3.573  10.665   5.988 -1.4560 -1.2066 -0.7737
 1012MOL0     H36593   3.551  10.565   5.854 -0.9516 -1.4404  1.6823
 1012MOL0     H36594   3.763  10.447   5.879  1.4448 -1.7856  1.4784
 1012MOL0     H36595   3.662  10.434   6.018 -0.9135 -1.1435 -3.0376
 1012MOL0     H36596   3.896  10.633   5.994 -1.0572  1.5212  0.9663
 1012MOL0     H36597   3.817  10.598   6.141  0.8570  1.2097  0.2670
 1012MOL0     H36598   3.969  10.375   6.006 -0.9479  0.8356 -0.3477
 1012MOL0     H36599   3.886  10.380   6.166 -4.3294  0.5967 -0.5896
 1012MOL0     H36600   4.130  10.544   6.078  0.8659 -0.4023  0.0647
 1012MOL0     H36601   4.136  10.408   6.189 -1.9146 -1.0412  0.7186
 1012MOL0     H36602   3.322  10.825   6.078  0.1977  0.9905  2.4969
 1012MOL0     H36603   3.211  10.974   6.220  2.5811  1.2269  0.5485
 1012MOL0     H36604   2.847  11.213   6.387  0.7778 -0.0738 -2.1336
 1012MOL0     H36605   2.742  11.372   6.524 -0.7846  1.0966 -0.4263
 1012MOL0     H36606   1.774  10.845   6.908  0.9331 -0.5952 -2.3146
 1012MOL0     H36607   1.951  10.677   6.868  2.5925 -0.9893  0.7372
 1012MOL0     H36608   2.310  10.471   7.023  0.2001  0.5407 -0.5306
 1012MOL0     H36609   2.503  10.322   7.032 -0.8806  2.6784  2.0950
 1012MOL0     H36610   2.822  10.375   6.731  2.9106 -0.8638 -0.2845
 1012MOL0     H36611   2.868  10.213   6.793  0.4015  0.1650 -0.1669
 1012MOL0     H36612   2.854  10.218   6.558  0.9124 -2.2945  1.1990
 1012MOL0     H36613   2.685  10.256   6.564  0.1465 -0.2431 -0.4649
 1012MOL0     H36614   2.634  10.036   6.678  1.0312  1.5876  2.4643
 1012MOL0     H36615   2.802  10.001   6.700 -0.9638 -1.4905  0.6598
 1012MOL0     H36616   2.855   9.961   6.471 -0.5178  0.4708 -0.4750
 1012MOL0     H36617   2.712  10.036   6.428 -0.5824  1.3640  2.0393
 1012MOL0     H36618   2.589   9.633   6.468 -3.7487  1.0270 -2.8762
 1012MOL0     H36619   2.603  10.435   6.641 -1.4583 -0.2217 -1.3469
 1012MOL0     H36620   2.425  10.605   6.635 -1.3312  0.9904  1.2537
 1013MOL0     O36621   9.146   3.020   4.000 -0.3764 -0.3174  0.0833
 1013MOL0     C36622   9.225   3.012   4.096 -0.2345 -0.3156  0.7475
 1013MOL0     O36623   9.361   2.995   4.078  0.3746 -0.0555 -0.3851
 1013MOL0     C36624   9.434   3.000   3.965 -1.3409  0.1942  0.8207
 1013MOL0     C36625   9.565   3.053   3.980  0.2705 -0.4104  0.1425
 1013MOL0     C36626   9.655   3.059   3.876  0.3949 -0.2233 -0.2916
 1013MOL0     C36627   9.610   3.043   3.748  0.6913  0.4689  0.2110
 1013MOL0     O36628   9.691   3.063   3.630 -0.8314  0.5786  0.0254
 1013MOL0     C36629   9.794   3.158   3.641 -0.3630  0.0535 -0.2650
 1013MOL0     C36630   9.858   3.164   3.506 -0.2279  0.2275 -0.7931
 1013MOL0     C36631  10.001   3.217   3.510 -1.4021 -0.0881  0.2887
 1013MOL0     C36632  10.028   3.369   3.543  0.4419  0.5502 -0.2479
 1013MOL0     C36633  10.159   3.416   3.517 -0.7008 -0.0758  0.8398
 1013MOL0     C36634  10.178   3.555   3.572  0.5174  0.5133 -0.2261
 1013MOL0     C36635  10.307   3.619   3.522 -0.5373 -0.4773 -0.6354
 1013MOL0     C36636  10.431   3.532   3.544 -0.4826  0.2477  0.2228
 1013MOL0     N36637  10.452   3.479   3.688  0.5607  0.3013  0.2810
 1013MOL0     C36638  10.470   3.562   3.798  1.0881  0.6658  0.1770
 1013MOL0     C36639  10.472   3.473   3.900 -0.6418 -0.1634  0.0951
 1013MOL0     C36640  10.491   3.528   4.038 -0.3312 -0.1066 -0.7960
 1013MOL0     C36641  10.531   3.424   4.150 -0.1149  1.1182 -0.8578
 1013MOL0     C36642  10.559   3.474   4.297 -0.5615 -0.3306  0.6994
 1013MOL0     C36643  10.430   3.503   4.379  0.1242 -0.2823  0.3700
 1013MOL0     O36644  10.447   3.601   4.487 -0.0703 -0.6656 -0.3596
 1013MOL0     C36645  10.346   3.669   4.534  0.8365 -0.7711  0.1364
 1013MOL0     C36646  10.378   3.744   4.648 -0.7013  0.3887  1.0364
 1013MOL0     C36647  10.285   3.826   4.712 -0.0689 -0.5873  0.3440
 1013MOL0     C36648  10.341   3.892   4.829 -0.0516 -0.8570 -0.7369
 1013MOL0     C36649  10.147   3.818   4.683 -0.2992 -1.0445  0.1808
 1013MOL0     C36650  10.046   3.889   4.759 -0.0982  1.1373 -0.3966
 1013MOL0     O36651   9.927   3.822   4.761  0.7078  0.1120  0.1465
 1013MOL0     C36652   9.843   3.865   4.854  0.1063 -0.3109 -0.2337
 1013MOL0     C36653   9.755   3.966   4.819 -0.1996 -0.4785 -0.2258
 1013MOL0     C36654   9.671   4.027   4.922 -0.5797 -0.5504  0.5349
 1013MOL0     C36655   9.674   3.976   5.057 -0.7413  0.5555 -0.2303
 1013MOL0     O36656   9.607   4.045   5.153 -0.1820 -0.2341  0.6431
 1013MOL0     C36657   9.670   4.074   5.275 -1.0751  0.3055 -0.5027
 1013MOL0     C36658   9.793   4.171   5.252  0.5159  0.5755  0.2189
 1013MOL0     C36659   9.780   4.291   5.171 -0.7188  0.2120 -0.3130
 1013MOL0     C36660   9.662   4.377   5.213 -0.2058 -0.2990  0.1209
 1013MOL0     C36661   9.651   4.498   5.121  0.9249  0.0659 -0.6738
 1013MOL0     C36662   9.521   4.577   5.149 -0.3078 -0.2335 -0.1067
 1013MOL0     C36663   9.489   4.671   5.027  0.7984 -0.0203  0.1968
 1013MOL0     C36664   9.592   4.787   5.011 -0.5125 -0.1312  1.3579
 1013MOL0    Cl36665   9.599   4.893   5.162  0.1581  0.0032 -0.0268
 1013MOL0     C36666   9.745   3.869   5.077  0.3719 -0.6963  0.3127
 1013MOL0     C36667   9.836   3.817   4.983  0.3619 -0.2711 -0.6262
 1013MOL0     O36668  10.074   3.994   4.815 -0.2218  0.1708  0.4753
 1013MOL0     C36669  10.105   3.740   4.566  0.0005 -0.1482 -0.2120
 1013MOL0     C36670  10.206   3.672   4.494 -0.3719  0.6374 -0.5531
 1013MOL0     N36671  10.452   3.346   3.854 -0.0757  0.2543 -1.2739
 1013MOL0     N36672  10.447   3.347   3.715 -0.3274 -0.3029 -0.1075
 1013MOL0     C36673   9.485   2.994   3.727 -0.1188  1.2781  0.1027
 1013MOL0     C36674   9.392   2.970   3.835  0.2216 -0.1134  0.9961
 1013MOL0     C36675   9.176   3.031   4.238  0.3893 -0.0042 -0.4324
 1013MOL0     C36676   9.256   3.003   4.349 -0.9998 -0.1389 -0.5889
 1013MOL0     C36677   9.200   3.026   4.475  1.0940  0.2377 -1.2698
 1013MOL0     C36678   9.075   3.081   4.498  0.1951  0.7221 -0.0075
 1013MOL0     O36679   9.016   3.096   4.629 -0.4948  0.4165  0.2990
 1013MOL0     C36680   8.921   3.205   4.650 -0.1277 -0.0853  0.2162
 1013MOL0     C36681   8.906   3.243   4.803  0.7270 -0.1400  0.0463
 1013MOL0     C36682   8.873   3.113   4.882  0.1866 -0.0139 -0.6208
 1013MOL0     C36683   8.985   3.059   4.959 -0.4570 -0.3821 -0.0759
 1013MOL0     C36684   9.014   3.125   5.093  0.4806 -0.0821  1.1271
 1013MOL0     C36685   9.045   3.175   5.198 -0.6647  0.4283  0.1390
 1013MOL0     C36686   9.001   3.121   4.389 -0.5180 -0.5456 -0.3922
 1013MOL0     C36687   9.046   3.095   4.260  0.9210  0.3738 -0.5208
 1013MOL0     H36688   9.597   3.083   4.080  2.1759  0.7257 -0.7379
 1013MOL0     H36689   9.762   3.077   3.880  0.6776 -1.1608 -2.4507
 1013MOL0     H36690   9.744   3.252   3.666 -0.5146 -0.2274  0.5161
 1013MOL0     H36691   9.871   3.128   3.712 -1.0693 -1.7577 -0.2280
 1013MOL0     H36692   9.860   3.060   3.473  1.7032 -0.0274 -0.0298
 1013MOL0     H36693   9.802   3.210   3.424  0.4068 -0.9557 -1.9211
 1013MOL0     H36694  10.049   3.161   3.590 -1.1174  1.8535  1.5482
 1013MOL0     H36695  10.044   3.193   3.412  1.6268  0.5788  1.3472
 1013MOL0     H36696   9.958   3.430   3.485  0.5745  0.3197 -0.6568
 1013MOL0     H36697   9.995   3.375   3.647 -0.9517  0.4567 -0.6628
 1013MOL0     H36698  10.234   3.351   3.563 -0.9199 -1.1377 -0.2718
 1013MOL0     H36699  10.188   3.417   3.412  1.4137  0.0927  1.3739
 1013MOL0     H36700  10.096   3.618   3.536 -0.3238  0.1662  0.9953
 1013MOL0     H36701  10.171   3.549   3.681 -2.1948 -1.3784 -0.4022
 1013MOL0     H36702  10.310   3.660   3.421  0.0633  0.4508 -0.2670
 1013MOL0     H36703  10.340   3.705   3.582  2.3958 -0.7620 -1.6788
 1013MOL0     H36704  10.513   3.594   3.508 -0.5593  0.2689  0.0817
 1013MOL0     H36705  10.417   3.447   3.476 -2.0803 -0.5224  1.4257
 1013MOL0     H36706  10.483   3.669   3.804  0.6959  0.8032 -1.0514
 1013MOL0     H36707  10.565   3.609   4.030 -1.3066  1.1027  1.5392
 1013MOL0     H36708  10.396   3.569   4.071 -1.3499 -3.6812  1.1417
 1013MOL0     H36709  10.625   3.373   4.124 -1.1341 -1.8824  0.8385
 1013MOL0     H36710  10.453   3.348   4.154 -0.6727  1.6681  3.1634
 1013MOL0     H36711  10.624   3.562   4.290  0.8929 -1.3992 -0.0048
 1013MOL0     H36712  10.624   3.396   4.338  0.6307 -0.1962 -0.8163
 1013MOL0     H36713  10.406   3.405   4.422  0.1750 -1.9770 -3.1342
 1013MOL0     H36714  10.358   3.535   4.303  0.5047 -2.1905 -0.8601
 1013MOL0     H36715  10.483   3.726   4.669 -0.2538 -0.8732 -1.7834
 1013MOL0     H36716  10.450   3.895   4.820  0.0110  1.0244  0.0683
 1013MOL0     H36717  10.316   3.999   4.831 -0.7183 -0.9432  2.7335
 1013MOL0     H36718  10.312   3.845   4.924 -0.2520  1.3384  0.3692
 1013MOL0     H36719   9.752   3.993   4.714 -2.9054  0.2052 -0.0563
 1013MOL0     H36720   9.617   4.117   4.896  0.1628 -0.8881 -2.5392
 1013MOL0     H36721   9.614   4.114   5.360  0.2011  0.4741  0.2870
 1013MOL0     H36722   9.713   3.980   5.309  0.3371 -0.1879 -3.3119
 1013MOL0     H36723   9.826   4.212   5.348  2.2510  2.8673 -1.2577
 1013MOL0     H36724   9.875   4.104   5.224 -1.4123 -2.5729  1.5046
 1013MOL0     H36725   9.768   4.256   5.068 -0.0318  0.2892 -0.4243
 1013MOL0     H36726   9.873   4.348   5.185 -0.7231  0.4312 -1.1441
 1013MOL0     H36727   9.566   4.324   5.208 -1.2587  1.6315 -2.4565
 1013MOL0     H36728   9.675   4.400   5.319  2.9789 -2.2041  0.2561
 1013MOL0     H36729   9.645   4.451   5.022  2.8235  2.4169 -2.0023
 1013MOL0     H36730   9.743   4.554   5.136  0.7771  0.6953 -2.0143
 1013MOL0     H36731   9.438   4.507   5.162 -2.4900  1.7538 -2.2895
 1013MOL0     H36732   9.524   4.633   5.243  1.0498 -0.4816  0.0177
 1013MOL0     H36733   9.395   4.721   5.049  1.1186 -0.4184  2.7161
 1013MOL0     H36734   9.482   4.615   4.933  4.3189  2.9506 -2.1344
 1013MOL0     H36735   9.574   4.850   4.924  0.1658 -1.2476  0.3776
 1013MOL0     H36736   9.688   4.736   4.996 -1.2961 -1.0517 -0.8458
 1013MOL0     H36737   9.721   3.824   5.173 -3.0097  0.1968  0.0290
 1013MOL0     H36738   9.901   3.736   5.014 -1.3652 -1.1150  0.9510
 1013MOL0     H36739   9.997   3.730   4.563  0.1572 -3.5510  0.7593
 1013MOL0     H36740  10.185   3.616   4.404  0.7389  1.3330 -1.2655
 1013MOL0     H36741   9.457   2.976   3.624 -0.6878 -1.2453  0.6292
 1013MOL0     H36742   9.296   2.922   3.820 -1.4339  2.9507  0.8191
 1013MOL0     H36743   9.351   2.955   4.326 -0.4230  0.2411  0.8410
 1013MOL0     H36744   9.255   2.998   4.564 -2.9845  2.0207  2.1530
 1013MOL0     H36745   8.960   3.293   4.598 -1.8785  3.2343  3.9752
 1013MOL0     H36746   8.823   3.170   4.616 -0.4756 -2.5876  3.2830
 1013MOL0     H36747   8.814   3.302   4.815 -0.2644 -1.8806  1.3537
 1013MOL0     H36748   8.991   3.302   4.839  0.3328  1.0546 -0.9188
 1013MOL0     H36749   8.834   3.039   4.811  1.2144 -3.4200  2.1106
 1013MOL0     H36750   8.789   3.128   4.950  1.7700 -3.1462  2.2989
 1013MOL0     H36751   9.073   3.058   4.894 -0.1316  2.0690  0.2498
 1013MOL0     H36752   8.963   2.955   4.984 -3.1682  0.5447  1.9425
 1013MOL0     H36753   9.064   3.209   5.298  1.3878 -0.4337  0.0854
 1013MOL0     H36754   8.902   3.162   4.408 -0.2428 -0.0759  0.0706
 1013MOL0     H36755   8.976   3.120   4.181 -1.4561 -0.1387  1.3018
 1014MOL0     O36756   0.700   4.640   4.410 -0.2410 -0.1759 -0.0007
 1014MOL0     C36757   0.723   4.593   4.522 -0.0929 -0.7857  0.4304
 1014MOL0     O36758   0.630   4.592   4.623  0.1501 -0.3570  0.0682
 1014MOL0     C36759   0.500   4.644   4.606  0.3399  0.7264 -0.7417
 1014MOL0     C36760   0.437   4.711   4.710  0.2754 -0.5751 -0.5830
 1014MOL0     C36761   0.306   4.753   4.708  0.0345 -0.6024  0.0783
 1014MOL0     C36762   0.226   4.718   4.595  0.0494  0.1278 -0.3874
 1014MOL0     O36763   0.089   4.737   4.587  0.0761  0.5210  0.6441
 1014MOL0     C36764   0.026   4.746   4.712 -0.0191  0.4169  0.7933
 1014MOL0     C36765  -0.129   4.755   4.678 -0.2417 -0.5536 -0.0715
 1014MOL0     C36766  -0.200   4.711   4.811  0.5171 -0.3975  0.4225
 1014MOL0     C36767  -0.351   4.705   4.782  0.6996 -0.0694 -0.6373
 1014MOL0     C36768  -0.433   4.666   4.909 -0.9091  0.0527  0.2858
 1014MOL0     C36769  -0.590   4.666   4.889 -0.1800  0.2100 -0.0178
 1014MOL0     C36770  -0.633   4.598   5.027 -0.6076 -0.2401 -0.3221
 1014MOL0     C36771  -0.788   4.610   5.043 -0.8879 -0.5985  0.2760
 1014MOL0     N36772  -0.867   4.538   4.943 -0.7723  0.5156  0.7469
 1014MOL0     C36773  -0.866   4.402   4.925 -0.3126 -0.2201 -0.6492
 1014MOL0     C36774  -0.874   4.385   4.790 -0.0807  0.2905  0.2777
 1014MOL0     C36775  -0.849   4.255   4.721  0.5666  0.1657 -0.0685
 1014MOL0     C36776  -0.970   4.185   4.663 -0.2139 -0.8321  0.6232
 1014MOL0     C36777  -1.035   4.256   4.552  0.7793 -0.1421  0.0839
 1014MOL0     C36778  -1.153   4.164   4.495  0.0340 -0.9469 -0.2126
 1014MOL0     O36779  -1.207   4.232   4.377  0.2707  0.4134  0.2645
 1014MOL0     C36780  -1.339   4.226   4.341  0.3947  0.7936 -0.1150
 1014MOL0     C36781  -1.429   4.133   4.395 -0.3590  0.5559  0.3842
 1014MOL0     C36782  -1.559   4.122   4.339  0.8666  0.5349  0.2673
 1014MOL0     C36783  -1.646   4.012   4.387  1.1160  0.1120  0.0622
 1014MOL0     C36784  -1.592   4.193   4.219  0.0879  0.1357  0.0091
 1014MOL0     C36785  -1.719   4.174   4.145 -0.1926  0.3276  0.6052
 1014MOL0     O36786  -1.753   4.285   4.075  0.4050  0.3555 -0.1630
 1014MOL0     C36787  -1.870   4.301   4.007 -0.0844  0.5691 -0.3538
 1014MOL0     C36788  -1.875   4.268   3.876 -0.1285 -0.3902  0.4911
 1014MOL0     C36789  -1.993   4.302   3.793  0.1113 -0.2535 -0.6351
 1014MOL0     C36790  -2.111   4.351   3.864 -0.0163  0.8791 -0.6253
 1014MOL0     O36791  -2.223   4.368   3.787 -0.4047  0.2728 -0.4472
 1014MOL0     C36792  -2.347   4.389   3.863  0.0646 -0.1384 -0.3695
 1014MOL0     C36793  -2.404   4.262   3.926 -0.4726  0.3166  0.6117
 1014MOL0     C36794  -2.421   4.149   3.831  0.2392 -0.3324  0.6176
 1014MOL0     C36795  -2.501   4.026   3.893  0.5987  0.7749 -0.3183
 1014MOL0     C36796  -2.443   3.991   4.020 -0.0763 -1.1110  0.0982
 1014MOL0     C36797  -2.298   3.946   4.019  0.4968 -0.4004  0.1349
 1014MOL0     C36798  -2.249   3.911   4.155 -0.5867  0.2880  0.3758
 1014MOL0     C36799  -2.097   3.902   4.164 -0.0728  0.2195  0.9222
 1014MOL0    Cl36800  -2.061   3.739   4.095 -0.3463  0.0494 -0.4473
 1014MOL0     C36801  -2.103   4.376   4.003  0.6060  0.1775 -0.5292
 1014MOL0     C36802  -1.986   4.347   4.065 -1.5262 -0.1734 -0.4031
 1014MOL0     O36803  -1.793   4.076   4.149 -0.4374  0.0176  0.3483
 1014MOL0     C36804  -1.499   4.286   4.165  0.1376  0.8674  0.1914
 1014MOL0     C36805  -1.373   4.308   4.229  0.9754  0.0337 -0.2553
 1014MOL0     N36806  -0.886   4.507   4.734  0.2175  0.2703  0.3865
 1014MOL0     N36807  -0.899   4.594   4.828  0.2570 -0.7112 -0.9104
 1014MOL0     C36808   0.285   4.648   4.492  0.3479  0.2901  0.3296
 1014MOL0     C36809   0.419   4.617   4.498 -0.3846 -0.2136  0.3567
 1014MOL0     C36810   0.854   4.542   4.549  0.5360 -0.1089 -1.1427
 1014MOL0     C36811   0.881   4.479   4.676  0.1139 -0.8643  0.5767
 1014MOL0     C36812   1.001   4.425   4.702 -0.1922  0.4774 -0.2995
 1014MOL0     C36813   1.109   4.421   4.605 -0.2061 -0.4134  0.1754
 1014MOL0     O36814   1.220   4.358   4.650 -0.0214  0.1198 -0.0228
 1014MOL0     C36815   1.314   4.316   4.548  0.3934 -0.0471 -0.0132
 1014MOL0     C36816   1.413   4.415   4.476  0.0737  0.5685 -0.2846
 1014MOL0     C36817   1.530   4.441   4.563  0.8004 -0.4629 -0.1357
 1014MOL0     C36818   1.492   4.482   4.704  0.2976 -0.6485 -0.0931
 1014MOL0     C36819   1.588   4.571   4.764 -0.3612 -1.0159  0.7447
 1014MOL0     C36820   1.676   4.647   4.811 -0.4940 -0.1412 -0.1801
 1014MOL0     C36821   1.083   4.481   4.480  0.1642  1.4194 -0.0226
 1014MOL0     C36822   0.955   4.537   4.445 -1.4721 -0.5049 -0.1250
 1014MOL0     H36823   0.506   4.728   4.792 -1.7551 -0.9129  1.2613
 1014MOL0     H36824   0.262   4.801   4.795 -1.3903 -2.4905  0.4569
 1014MOL0     H36825   0.033   4.671   4.792 -2.5869  2.2046  2.8682
 1014MOL0     H36826   0.061   4.837   4.761  2.3940 -0.9958  1.8519
 1014MOL0     H36827  -0.164   4.855   4.650 -2.7049 -1.9266 -2.4037
 1014MOL0     H36828  -0.165   4.696   4.593 -0.0188  1.2769 -1.4983
 1014MOL0     H36829  -0.167   4.612   4.846  1.2623  0.3644  1.9892
 1014MOL0     H36830  -0.165   4.773   4.894  0.5542 -0.5729  0.5382
 1014MOL0     H36831  -0.369   4.809   4.751  5.8572  1.2685 -0.0177
 1014MOL0     H36832  -0.377   4.625   4.712 -0.8659 -0.2027  0.0423
 1014MOL0     H36833  -0.390   4.568   4.933  3.3238  1.5472 -0.2638
 1014MOL0     H36834  -0.407   4.737   4.989  1.3553 -1.8086  1.3286
 1014MOL0     H36835  -0.624   4.770   4.878  1.2057  0.6159 -0.7100
 1014MOL0     H36836  -0.628   4.611   4.803 -2.0713  1.3990 -0.0114
 1014MOL0     H36837  -0.601   4.494   5.019  1.0447  0.2649 -0.4576
 1014MOL0     H36838  -0.589   4.645   5.115 -0.3228 -0.1983 -0.4869
 1014MOL0     H36839  -0.798   4.717   5.023  0.6065 -0.4192  0.3257
 1014MOL0     H36840  -0.814   4.579   5.145  0.9528  1.5047  1.5044
 1014MOL0     H36841  -0.852   4.335   5.009 -0.3679  0.9894  0.3548
 1014MOL0     H36842  -0.771   4.273   4.647  0.4111 -0.2041 -0.3250
 1014MOL0     H36843  -0.807   4.180   4.790  2.5054 -0.2859 -1.6304
 1014MOL0     H36844  -1.038   4.166   4.747  0.6593  0.1853  1.5882
 1014MOL0     H36845  -0.933   4.090   4.624  1.2865 -0.0955  0.1698
 1014MOL0     H36846  -0.979   4.283   4.461 -2.6375  0.2569 -2.0909
 1014MOL0     H36847  -1.086   4.347   4.583  2.0171  1.1283 -1.3985
 1014MOL0     H36848  -1.223   4.145   4.577 -0.6589 -2.2485 -1.0662
 1014MOL0     H36849  -1.120   4.064   4.465 -5.0913 -2.8442 -0.5371
 1014MOL0     H36850  -1.400   4.055   4.465  0.7148 -0.8316 -1.5176
 1014MOL0     H36851  -1.597   3.966   4.473  2.4781 -0.5464 -1.0169
 1014MOL0     H36852  -1.747   4.041   4.417  1.1106 -0.6440  0.7964
 1014MOL0     H36853  -1.662   3.933   4.313  0.3683  0.5222 -0.2238
 1014MOL0     H36854  -1.788   4.240   3.818  0.2663 -1.5795  1.6059
 1014MOL0     H36855  -1.978   4.291   3.686  4.1937  0.3904 -0.2908
 1014MOL0     H36856  -2.341   4.477   3.927 -1.2035 -0.9327  0.8889
 1014MOL0     H36857  -2.419   4.427   3.790  0.2969 -0.8013 -0.9622
 1014MOL0     H36858  -2.332   4.238   4.005 -0.1898 -2.9664 -0.5109
 1014MOL0     H36859  -2.505   4.280   3.964 -2.1260 -1.0667 -2.7364
 1014MOL0     H36860  -2.328   4.105   3.793  0.5641  1.4180 -0.7420
 1014MOL0     H36861  -2.479   4.189   3.748  2.8019  5.7107  1.1847
 1014MOL0     H36862  -2.609   4.042   3.901  0.4385 -0.4347  0.1244
 1014MOL0     H36863  -2.493   3.943   3.823 -1.0368 -0.8191  1.2911
 1014MOL0     H36864  -2.496   3.902   4.055  0.4470 -0.9453  1.4016
 1014MOL0     H36865  -2.463   4.078   4.083  0.3332  0.8114 -2.3099
 1014MOL0     H36866  -2.286   3.867   3.945 -0.8925 -0.6082  0.1081
 1014MOL0     H36867  -2.229   4.024   3.983 -1.6413  2.3290  1.5746
 1014MOL0     H36868  -2.289   3.815   4.187  2.9306 -1.9886 -1.3958
 1014MOL0     H36869  -2.271   3.994   4.222  0.7961  1.4451 -0.5458
 1014MOL0     H36870  -2.059   3.894   4.266 -2.4860  3.0057  2.1924
 1014MOL0     H36871  -2.056   3.977   4.096  0.2758 -1.0312 -0.2947
 1014MOL0     H36872  -2.186   4.411   4.064 -0.8843 -0.9791 -1.8042
 1014MOL0     H36873  -1.988   4.365   4.172  0.9200  0.7490 -0.4556
 1014MOL0     H36874  -1.532   4.342   4.078 -1.4083 -2.1599 -1.3307
 1014MOL0     H36875  -1.302   4.381   4.194  3.6821 -0.8030  2.9989
 1014MOL0     H36876   0.229   4.614   4.406  0.8642 -2.4361  0.9457
 1014MOL0     H36877   0.451   4.558   4.413  1.1771 -1.6313  1.8363
 1014MOL0     H36878   0.805   4.464   4.752  1.1934 -0.1469  1.8215
 1014MOL0     H36879   1.014   4.362   4.790  1.5713 -2.4672 -2.4844
 1014MOL0     H36880   1.374   4.234   4.590 -1.1102 -1.8760 -1.2654
 1014MOL0     H36881   1.251   4.260   4.479  2.2086 -2.0213 -0.1739
 1014MOL0     H36882   1.360   4.506   4.450 -4.2315 -0.9401  2.1799
 1014MOL0     H36883   1.456   4.377   4.382  1.8841  0.3529  0.5938
 1014MOL0     H36884   1.576   4.528   4.515 -1.1372  0.7736  0.1424
 1014MOL0     H36885   1.588   4.350   4.582  0.5708 -0.5457  0.1716
 1014MOL0     H36886   1.481   4.387   4.755  1.8886 -1.0500 -0.4498
 1014MOL0     H36887   1.395   4.532   4.715  1.7072  1.5937  4.0749
 1014MOL0     H36888   1.748   4.702   4.869 -1.6346 -1.0653  2.2859
 1014MOL0     H36889   1.157   4.492   4.402 -0.3866 -0.6654 -0.8863
 1014MOL0     H36890   0.948   4.585   4.349  0.1352 -1.2418 -0.6536
 1015MOL0     O36891   4.106   5.738   9.233 -0.0065 -0.2285  0.0169
 1015MOL0     C36892   4.099   5.617   9.245 -0.0196  0.0872 -0.9488
 1015MOL0     O36893   4.150   5.517   9.154 -0.0836 -0.6571 -0.3210
 1015MOL0     C36894   4.216   5.553   9.037 -0.4986 -0.6910 -0.8252
 1015MOL0     C36895   4.300   5.670   9.013  1.2629  0.6716 -0.1831
 1015MOL0     C36896   4.353   5.683   8.891 -0.5287  0.4053  0.5202
 1015MOL0     C36897   4.351   5.587   8.794  1.0436  0.0814 -0.9339
 1015MOL0     O36898   4.406   5.615   8.674  0.0626  0.3784 -0.0877
 1015MOL0     C36899   4.440   5.512   8.584 -0.1274  0.0504  0.4958
 1015MOL0     C36900   4.528   5.393   8.618 -0.4158  0.9948  0.3661
 1015MOL0     C36901   4.585   5.331   8.488 -0.0611 -0.4187  0.1487
 1015MOL0     C36902   4.669   5.210   8.532 -0.6577 -0.7803 -0.8593
 1015MOL0     C36903   4.705   5.112   8.414  0.1544 -0.3216 -0.5902
 1015MOL0     C36904   4.775   4.989   8.474  0.1496 -0.2295  0.5612
 1015MOL0     C36905   4.828   4.898   8.357 -0.4053 -0.5238 -0.1299
 1015MOL0     C36906   4.731   4.790   8.312 -0.9961  0.0977 -0.3228
 1015MOL0     N36907   4.615   4.831   8.236 -0.1716 -0.4921 -0.1177
 1015MOL0     C36908   4.611   4.853   8.105 -0.2757  0.9082 -0.6020
 1015MOL0     C36909   4.478   4.874   8.074 -0.6914 -0.1268  0.0493
 1015MOL0     C36910   4.423   4.907   7.937 -0.8027 -0.2607  0.5714
 1015MOL0     C36911   4.282   4.975   7.953 -0.6056 -0.7313  0.2220
 1015MOL0     C36912   4.195   4.962   7.821  0.0693 -0.2054  0.7767
 1015MOL0     C36913   4.097   5.078   7.815  0.1024 -0.2656  1.2371
 1015MOL0     O36914   4.013   5.085   7.926 -0.4558  0.2991  0.1904
 1015MOL0     C36915   3.926   5.192   7.940  0.1253  0.6941  0.2485
 1015MOL0     C36916   3.908   5.284   7.841 -1.0190 -0.0894 -0.0688
 1015MOL0     C36917   3.816   5.387   7.852 -0.4752 -0.8907 -0.5351
 1015MOL0     C36918   3.799   5.473   7.725  0.8395 -0.0228 -0.6065
 1015MOL0     C36919   3.735   5.404   7.966  0.0691 -0.5668 -0.0903
 1015MOL0     C36920   3.626   5.508   7.989 -0.2480 -0.2054 -0.1313
 1015MOL0     O36921   3.570   5.504   8.110  0.5901 -0.5316 -1.0386
 1015MOL0     C36922   3.504   5.614   8.164  0.1932  0.3457  0.0230
 1015MOL0     C36923   3.570   5.741   8.177 -0.4534  0.5920  1.1774
 1015MOL0     C36924   3.511   5.835   8.250 -0.8689 -0.5507 -0.7059
 1015MOL0     C36925   3.389   5.820   8.308  0.2833  0.2509 -0.0788
 1015MOL0     O36926   3.337   5.920   8.382 -0.4006 -0.1396  0.0510
 1015MOL0     C36927   3.392   5.927   8.517  0.1424 -0.0238  0.3250
 1015MOL0     C36928   3.407   6.069   8.554 -0.4807  0.5579  0.1417
 1015MOL0     C36929   3.496   6.158   8.478  0.1159  0.3898  1.0047
 1015MOL0     C36930   3.532   6.287   8.554  0.0070 -0.4698  0.2324
 1015MOL0     C36931   3.593   6.387   8.464 -0.2193  0.2958  0.6720
 1015MOL0     C36932   3.515   6.513   8.426 -0.0980  0.6677  0.6373
 1015MOL0     C36933   3.390   6.472   8.348 -1.1250  0.0983  0.0667
 1015MOL0     C36934   3.314   6.591   8.291  0.4490  0.0899 -0.6749
 1015MOL0    Cl36935   3.166   6.526   8.215 -0.3898  0.1553  0.2789
 1015MOL0     C36936   3.310   5.698   8.278  0.3461 -0.6136 -0.5384
 1015MOL0     C36937   3.380   5.594   8.212  0.5281 -0.0560 -0.8483
 1015MOL0     O36938   3.591   5.581   7.898  0.3014 -1.1863  0.6036
 1015MOL0     C36939   3.765   5.314   8.074 -0.4579 -0.2165  0.2842
 1015MOL0     C36940   3.871   5.218   8.063  0.1158  1.0505  0.5726
 1015MOL0     N36941   4.409   4.873   8.197 -0.0762 -0.1633  0.0962
 1015MOL0     N36942   4.494   4.847   8.292 -0.2409 -0.3753 -0.8552
 1015MOL0     C36943   4.291   5.465   8.827  0.1756 -0.4782 -0.1948
 1015MOL0     C36944   4.220   5.454   8.942 -0.5195  0.4441 -0.4592
 1015MOL0     C36945   4.039   5.556   9.370 -0.1598 -0.5341 -0.6996
 1015MOL0     C36946   4.049   5.420   9.396 -0.0191 -0.0528  0.3094
 1015MOL0     C36947   4.000   5.360   9.505  0.8258 -0.0820 -0.6736
 1015MOL0     C36948   3.941   5.444   9.601 -0.1339 -0.8838  0.0016
 1015MOL0     O36949   3.896   5.392   9.728  0.3196  0.0187 -0.0396
 1015MOL0     C36950   3.889   5.252   9.752 -0.0963 -0.1206 -0.1959
 1015MOL0     C36951   3.776   5.190   9.660  0.4688 -0.0745  0.6650
 1015MOL0     C36952   3.628   5.236   9.702  0.1450  0.2394  0.6573
 1015MOL0     C36953   3.511   5.154   9.633  0.1324  0.6484  0.3947
 1015MOL0     C36954   3.383   5.189   9.692 -0.9207 -0.0124 -0.4046
 1015MOL0     C36955   3.283   5.232   9.741  1.0682  0.6471 -0.0751
 1015MOL0     C36956   3.926   5.580   9.582  0.1639  0.2755  0.5173
 1015MOL0     C36957   3.976   5.640   9.465 -0.2240 -0.1358 -1.0414
 1015MOL0     H36958   4.317   5.736   9.098 -1.8403 -0.3286  1.3655
 1015MOL0     H36959   4.411   5.775   8.884  1.2506 -0.8191 -3.4395
 1015MOL0     H36960   4.346   5.466   8.553  1.2442 -1.9061 -0.9553
 1015MOL0     H36961   4.497   5.564   8.507 -0.6005 -0.2056 -0.0277
 1015MOL0     H36962   4.617   5.421   8.675 -0.2095  1.6943 -0.2845
 1015MOL0     H36963   4.468   5.319   8.672  0.5582 -0.1754 -0.0984
 1015MOL0     H36964   4.506   5.312   8.416  0.8620 -0.2193 -0.9429
 1015MOL0     H36965   4.666   5.393   8.447  1.9611 -3.6258 -1.1261
 1015MOL0     H36966   4.765   5.232   8.580 -0.8342  2.3852 -1.7541
 1015MOL0     H36967   4.605   5.157   8.604  2.3509  1.5347  4.1147
 1015MOL0     H36968   4.613   5.094   8.357 -1.4060  1.5722  1.1455
 1015MOL0     H36969   4.765   5.163   8.338  1.6530 -1.3127 -0.1045
 1015MOL0     H36970   4.858   5.023   8.537  0.4204  0.2911 -0.0624
 1015MOL0     H36971   4.709   4.933   8.541  2.3651 -0.1340  2.9855
 1015MOL0     H36972   4.854   4.960   8.271 -0.5113 -0.9075 -0.4381
 1015MOL0     H36973   4.919   4.855   8.400  0.5388  0.5856 -0.9383
 1015MOL0     H36974   4.701   4.728   8.397 -0.1219  3.1034  2.4023
 1015MOL0     H36975   4.787   4.726   8.243  1.1118  0.9547  0.4709
 1015MOL0     H36976   4.689   4.847   8.030  3.2339 -2.6835  2.8468
 1015MOL0     H36977   4.486   4.965   7.870  0.3265  0.5117  2.2177
 1015MOL0     H36978   4.413   4.809   7.889 -0.7909 -0.4044  0.8604
 1015MOL0     H36979   4.292   5.081   7.978 -1.0742 -0.6826  0.2147
 1015MOL0     H36980   4.224   4.918   8.027 -1.6732 -0.0029 -0.0308
 1015MOL0     H36981   4.134   4.871   7.826 -0.1293 -0.5464 -3.7734
 1015MOL0     H36982   4.266   4.947   7.740  1.4194  0.5334  1.7856
 1015MOL0     H36983   4.030   5.056   7.730  0.9405 -2.9097  1.1956
 1015MOL0     H36984   4.157   5.167   7.794 -0.6146 -0.1748 -0.7230
 1015MOL0     H36985   3.971   5.291   7.753  1.5133  0.0528  1.6567
 1015MOL0     H36986   3.694   5.473   7.694  0.3325 -5.1355  0.1500
 1015MOL0     H36987   3.838   5.574   7.744  0.4787  0.0371 -0.1547
 1015MOL0     H36988   3.857   5.423   7.647  2.2532  1.3530 -0.5050
 1015MOL0     H36989   3.659   5.760   8.119 -0.1241  0.2152  1.5532
 1015MOL0     H36990   3.571   5.922   8.273 -2.8120  0.1768  2.2255
 1015MOL0     H36991   3.311   5.889   8.580  0.0208 -0.1484  0.0952
 1015MOL0     H36992   3.482   5.865   8.525 -1.0995 -1.8417  0.9722
 1015MOL0     H36993   3.307   6.107   8.534 -0.5443  1.7024  2.3266
 1015MOL0     H36994   3.427   6.071   8.662  1.7221  1.2359 -0.2299
 1015MOL0     H36995   3.446   6.192   8.387  0.9510 -0.0639  0.3604
 1015MOL0     H36996   3.594   6.117   8.451  1.1275  2.9659  0.4167
 1015MOL0     H36997   3.443   6.327   8.604 -0.4096 -0.0799 -0.7812
 1015MOL0     H36998   3.596   6.257   8.637 -2.9461 -3.1830  1.7501
 1015MOL0     H36999   3.627   6.334   8.375 -0.6259  1.1786 -0.0188
 1015MOL0     H37000   3.676   6.429   8.521 -1.5554  0.0539  2.9229
 1015MOL0     H37001   3.500   6.559   8.523  2.8624  0.0948  1.4551
 1015MOL0     H37002   3.588   6.569   8.367  1.2021 -2.1503 -0.6133
 1015MOL0     H37003   3.327   6.418   8.419  0.1680 -0.7754  0.5713
 1015MOL0     H37004   3.418   6.409   8.263  3.1162  1.3182  0.3327
 1015MOL0     H37005   3.373   6.643   8.215 -0.9846 -0.4106 -2.1906
 1015MOL0     H37006   3.294   6.662   8.372  1.6934  1.6177 -1.6481
 1015MOL0     H37007   3.209   5.684   8.314  0.5448  0.9388  0.7570
 1015MOL0     H37008   3.330   5.501   8.186  1.2786 -0.5409 -0.5853
 1015MOL0     H37009   3.706   5.318   8.164  0.3663 -0.0077  0.8288
 1015MOL0     H37010   3.904   5.156   8.146 -1.0455 -0.1121  0.1912
 1015MOL0     H37011   4.297   5.378   8.762  2.7159 -0.4610 -0.0625
 1015MOL0     H37012   4.169   5.359   8.958  1.0909 -0.4478 -0.4307
 1015MOL0     H37013   4.097   5.358   9.321  2.3905  0.7529  1.0845
 1015MOL0     H37014   3.999   5.251   9.510 -1.3252 -0.0466  2.3177
 1015MOL0     H37015   3.981   5.200   9.722  0.7627  0.4422  1.3411
 1015MOL0     H37016   3.876   5.235   9.859 -0.6665  0.3477 -0.1874
 1015MOL0     H37017   3.786   5.081   9.665  2.0431  0.0604  0.8187
 1015MOL0     H37018   3.791   5.218   9.555  0.8201  3.3228  1.5071
 1015MOL0     H37019   3.630   5.343   9.678  3.0728 -0.4508 -3.1822
 1015MOL0     H37020   3.618   5.225   9.810  0.4890  0.9452  0.7686
 1015MOL0     H37021   3.538   5.050   9.652  1.9534  0.6383 -1.9116
 1015MOL0     H37022   3.512   5.173   9.526 -2.5964  2.4474  0.6138
 1015MOL0     H37023   3.193   5.283   9.767  0.0894 -1.6311  1.3580
 1015MOL0     H37024   3.893   5.630   9.672  1.2887 -2.7703  2.8149
 1015MOL0     H37025   3.970   5.748   9.460 -1.8854 -0.2267 -1.5941
 1016MOL0     O37026   1.605   9.671   4.106  0.7191  0.4378 -0.4079
 1016MOL0     C37027   1.682   9.610   4.031  0.2809  0.2946 -1.2683
 1016MOL0     O37028   1.751   9.498   4.060 -0.1006 -0.9295 -0.7850
 1016MOL0     C37029   1.754   9.430   4.179  0.8858 -0.6372 -0.1545
 1016MOL0     C37030   1.739   9.486   4.307  0.1050  0.1533 -0.1682
 1016MOL0     C37031   1.735   9.401   4.422 -0.5636 -0.1623  0.1112
 1016MOL0     C37032   1.752   9.268   4.407 -0.3398 -0.8925  0.3163
 1016MOL0     O37033   1.779   9.201   4.522 -0.2474  0.2822 -0.6269
 1016MOL0     C37034   1.909   9.207   4.582  0.8321 -0.5384  0.4299
 1016MOL0     C37035   1.949   9.076   4.643  0.2505 -0.1020 -0.4216
 1016MOL0     C37036   1.863   9.025   4.764 -0.1998  0.2974  0.2573
 1016MOL0     C37037   1.883   8.882   4.795  0.5772 -0.9874  0.3523
 1016MOL0     C37038   1.809   8.855   4.930  0.9405 -0.4178 -1.1717
 1016MOL0     C37039   1.671   8.928   4.955  0.6040  0.4144  0.3250
 1016MOL0     C37040   1.613   8.868   5.082 -0.3790  0.9293  0.5482
 1016MOL0     C37041   1.467   8.928   5.094  0.1441  0.0084  0.3814
 1016MOL0     N37042   1.417   8.861   5.215  0.6853  0.9217  0.2860
 1016MOL0     C37043   1.465   8.874   5.344 -0.2094  0.5853  0.2369
 1016MOL0     C37044   1.365   8.825   5.416  1.0048 -0.0504 -0.4299
 1016MOL0     C37045   1.337   8.849   5.555  0.0624 -0.2238 -0.3068
 1016MOL0     C37046   1.221   8.952   5.564  0.5507 -0.1856  0.4449
 1016MOL0     C37047   1.083   8.883   5.571  0.5347  0.1907  0.2677
 1016MOL0     C37048   1.058   8.809   5.708 -0.1718  1.0583  0.2489
 1016MOL0     O37049   0.943   8.729   5.679  0.0106 -0.3171 -0.2834
 1016MOL0     C37050   0.881   8.693   5.790  0.3954  0.1195 -0.2689
 1016MOL0     C37051   0.923   8.703   5.924  0.2009  0.0875 -0.8335
 1016MOL0     C37052   0.831   8.673   6.027 -0.4280 -0.0955 -0.1503
 1016MOL0     C37053   0.884   8.681   6.170  0.2227 -1.3414  0.3808
 1016MOL0     C37054   0.707   8.631   5.993 -0.7495  0.1341  1.1307
 1016MOL0     C37055   0.600   8.600   6.090  0.3879  0.4335 -0.8676
 1016MOL0     O37056   0.557   8.700   6.167  0.0925 -0.3030  0.2511
 1016MOL0     C37057   0.463   8.682   6.271 -0.8955  0.2473 -0.0130
 1016MOL0     C37058   0.326   8.651   6.250 -0.2337 -0.7914  0.2058
 1016MOL0     C37059   0.246   8.643   6.362  1.0936 -0.1783  0.1582
 1016MOL0     C37060   0.295   8.665   6.491  0.8230  0.2403 -0.3098
 1016MOL0     O37061   0.229   8.661   6.614 -0.3248  0.6422  0.0164
 1016MOL0     C37062   0.097   8.731   6.620 -0.8639  0.7914 -0.9769
 1016MOL0     C37063   0.098   8.889   6.591 -0.2544  0.2619 -0.0031
 1016MOL0     C37064   0.226   8.953   6.648  0.4389 -0.3510  0.3942
 1016MOL0     C37065   0.214   9.109   6.629  0.3104 -1.4242  0.7870
 1016MOL0     C37066   0.162   9.190   6.750  0.0678  0.6106  0.7801
 1016MOL0     C37067   0.081   9.318   6.710  0.6254 -0.3231 -0.3849
 1016MOL0     C37068   0.171   9.428   6.661  0.2062 -0.3741 -0.3439
 1016MOL0     C37069   0.180   9.555   6.751  1.1274 -0.3316  0.4126
 1016MOL0    Cl37070   0.286   9.684   6.697 -0.0175  0.1772  0.0472
 1016MOL0     C37071   0.433   8.685   6.503  1.1361  0.8953 -0.6980
 1016MOL0     C37072   0.519   8.690   6.397 -0.8652  0.7807 -0.1215
 1016MOL0     O37073   0.546   8.487   6.104  0.1955  0.0420 -0.3596
 1016MOL0     C37074   0.670   8.606   5.862  0.4045 -0.2819  0.7293
 1016MOL0     C37075   0.755   8.634   5.754  0.1982 -1.3616  0.4676
 1016MOL0     N37076   1.271   8.762   5.338 -0.3779 -1.3511  0.2567
 1016MOL0     N37077   1.296   8.801   5.220  0.2082 -0.3391  0.4832
 1016MOL0     C37078   1.760   9.209   4.285 -0.0456  0.0595 -0.7442
 1016MOL0     C37079   1.765   9.289   4.172  0.2094  0.2770 -0.1094
 1016MOL0     C37080   1.701   9.646   3.891 -0.2130 -0.7531 -0.6573
 1016MOL0     C37081   1.786   9.572   3.811  0.5479  0.0315  0.1722
 1016MOL0     C37082   1.819   9.623   3.685 -0.0864  0.2546 -0.7193
 1016MOL0     C37083   1.763   9.736   3.630 -0.4678 -0.5711 -1.0992
 1016MOL0     O37084   1.787   9.795   3.512  0.2290  0.0753  0.9627
 1016MOL0     C37085   1.882   9.727   3.426 -1.3056  0.3216 -0.3004
 1016MOL0     C37086   1.892   9.813   3.302  0.5094  0.9669  0.0464
 1016MOL0     C37087   1.944   9.961   3.320  1.0722  0.7481 -0.0054
 1016MOL0     C37088   2.059  10.002   3.225 -0.7538  0.1489 -0.1820
 1016MOL0     C37089   2.095  10.141   3.266  0.9382  0.9141 -0.2002
 1016MOL0     C37090   2.111  10.252   3.294 -0.1801  0.4042  1.2395
 1016MOL0     C37091   1.690   9.814   3.724  0.2406  0.5751 -0.0916
 1016MOL0     C37092   1.655   9.765   3.853 -0.3310  0.0148 -0.9492
 1016MOL0     H37093   1.714   9.591   4.321 -2.4761  0.2775 -4.1916
 1016MOL0     H37094   1.736   9.440   4.523 -1.5250  0.8178 -0.2451
 1016MOL0     H37095   1.996   9.227   4.518  1.5286  0.6047  1.6797
 1016MOL0     H37096   1.909   9.281   4.663  1.4580 -0.9751  0.8304
 1016MOL0     H37097   1.951   8.997   4.568 -0.1234  1.7290 -2.4545
 1016MOL0     H37098   2.048   9.088   4.688  0.6883 -1.5457 -0.9527
 1016MOL0     H37099   1.899   9.082   4.849  2.1749  1.1802 -1.2540
 1016MOL0     H37100   1.759   9.053   4.742  0.9999  2.6365 -3.2959
 1016MOL0     H37101   1.830   8.819   4.724 -0.4307  0.5011 -0.2608
 1016MOL0     H37102   1.990   8.858   4.803  0.1169 -3.7948 -0.6136
 1016MOL0     H37103   1.794   8.747   4.937  0.6826 -0.3800 -1.1371
 1016MOL0     H37104   1.879   8.898   5.002 -0.7359  1.5121 -0.5959
 1016MOL0     H37105   1.678   9.037   4.966  0.2245  0.5673 -0.8325
 1016MOL0     H37106   1.606   8.907   4.870  0.6111  0.3081  0.3461
 1016MOL0     H37107   1.611   8.760   5.065 -1.3914  0.9403  0.5387
 1016MOL0     H37108   1.677   8.889   5.168 -0.9020 -0.1497  1.2267
 1016MOL0     H37109   1.408   8.895   5.009 -3.6105  1.5591  2.1577
 1016MOL0     H37110   1.463   9.038   5.094 -0.6736 -0.0187  0.5148
 1016MOL0     H37111   1.550   8.938   5.363  0.2106  0.1525 -0.1578
 1016MOL0     H37112   1.320   8.761   5.618 -1.5782  1.3045  1.5122
 1016MOL0     H37113   1.425   8.894   5.601 -2.0646  2.8719  1.1329
 1016MOL0     H37114   1.226   9.026   5.484  1.5939  1.3780  1.9045
 1016MOL0     H37115   1.236   9.023   5.645  1.1888 -0.7754  0.8483
 1016MOL0     H37116   1.062   8.809   5.494  0.5098 -0.0631  0.5151
 1016MOL0     H37117   1.005   8.959   5.563 -0.9056 -0.9063  2.7506
 1016MOL0     H37118   1.062   8.883   5.789  2.3157  2.6892 -1.2016
 1016MOL0     H37119   1.139   8.745   5.744  0.1364  1.6584  0.6548
 1016MOL0     H37120   1.020   8.749   5.940 -0.4211  2.1554 -2.5051
 1016MOL0     H37121   0.834   8.776   6.191 -3.5471 -2.1544 -3.5404
 1016MOL0     H37122   0.852   8.600   6.236 -0.7773 -2.5921 -1.5460
 1016MOL0     H37123   0.991   8.702   6.185 -0.2442  3.1784 -0.9970
 1016MOL0     H37124   0.292   8.633   6.149 -0.7476  1.4099 -0.0606
 1016MOL0     H37125   0.141   8.619   6.350  0.7060 -0.5757  3.4513
 1016MOL0     H37126   0.026   8.681   6.553 -1.8416  0.0851  0.5297
 1016MOL0     H37127   0.071   8.720   6.726  2.9220  0.4890  0.0938
 1016MOL0     H37128   0.089   8.914   6.485  1.9483 -1.8158 -0.7796
 1016MOL0     H37129   0.009   8.922   6.644 -2.5269 -1.1748 -2.6863
 1016MOL0     H37130   0.305   8.916   6.582  1.1182 -1.2695  1.6886
 1016MOL0     H37131   0.248   8.925   6.751  0.3701  0.4176  0.6238
 1016MOL0     H37132   0.309   9.155   6.601  0.3964  0.0776  3.2336
 1016MOL0     H37133   0.143   9.119   6.547  1.2789 -2.2347 -0.1827
 1016MOL0     H37134   0.244   9.215   6.819  0.9834  3.8906 -1.2618
 1016MOL0     H37135   0.096   9.114   6.794 -2.7167  2.4539  0.0560
 1016MOL0     H37136   0.015   9.289   6.628  1.2947  3.3291 -2.4631
 1016MOL0     H37137   0.026   9.351   6.799  1.9867  1.1096 -0.0240
 1016MOL0     H37138   0.127   9.452   6.564 -1.9769  1.7067  1.0245
 1016MOL0     H37139   0.277   9.405   6.651  0.3554  0.3651 -0.5217
 1016MOL0     H37140   0.215   9.535   6.853  3.7236 -0.5899 -0.4776
 1016MOL0     H37141   0.080   9.598   6.763  1.8310  1.0386  1.6015
 1016MOL0     H37142   0.463   8.698   6.607 -0.4293  1.3368 -0.2752
 1016MOL0     H37143   0.626   8.703   6.415 -0.6904  0.2150 -0.7226
 1016MOL0     H37144   0.569   8.568   5.847  0.5199  0.4684 -2.7291
 1016MOL0     H37145   0.718   8.631   5.652 -2.3612 -1.0438  1.3182
 1016MOL0     H37146   1.767   9.101   4.269  1.0738  0.3635 -2.5922
 1016MOL0     H37147   1.778   9.245   4.074  2.5695  0.2423  0.1633
 1016MOL0     H37148   1.830   9.484   3.856 -4.1073 -0.7020  4.0975
 1016MOL0     H37149   1.895   9.564   3.635  0.9468 -0.9050  2.0372
 1016MOL0     H37150   1.982   9.725   3.471 -0.2625 -1.0588 -2.5178
 1016MOL0     H37151   1.855   9.629   3.385 -0.7215  0.0515 -0.0421
 1016MOL0     H37152   1.791   9.814   3.260  1.7639 -2.7051 -3.8029
 1016MOL0     H37153   1.956   9.764   3.228  1.7227 -1.3436  2.4362
 1016MOL0     H37154   1.985   9.971   3.421  0.9026 -0.7816  0.2440
 1016MOL0     H37155   1.853  10.022   3.311  1.6332  1.5774 -0.1629
 1016MOL0     H37156   2.038   9.997   3.118 -1.8998 -1.7633  0.0745
 1016MOL0     H37157   2.138   9.934   3.260 -3.3143 -2.5712  0.8087
 1016MOL0     H37158   2.133  10.357   3.296  0.6488  0.3956 -2.0813
 1016MOL0     H37159   1.643   9.906   3.691  0.4559  1.2682  1.4526
 1016MOL0     H37160   1.587   9.809   3.925 -1.6030 -1.6685 -1.0560
 1017MOL0     O37161   4.365  10.203   4.905  0.5254  0.5301  0.0872
 1017MOL0     C37162   4.447  10.121   4.860  0.5433 -0.1891  0.0839
 1017MOL0     O37163   4.579  10.153   4.840 -0.1703  0.4375 -0.1391
 1017MOL0     C37164   4.625  10.277   4.865 -0.1006  0.2033  0.2528
 1017MOL0     C37165   4.658  10.366   4.760  1.2889  0.8883 -0.6473
 1017MOL0     C37166   4.711  10.494   4.789 -1.1491 -0.8222 -0.3635
 1017MOL0     C37167   4.733  10.540   4.919 -0.1538 -0.0969  0.2335
 1017MOL0     O37168   4.762  10.673   4.942 -0.4326  0.5183 -0.5362
 1017MOL0     C37169   4.749  10.740   5.071  0.4839 -0.4715  0.4897
 1017MOL0     C37170   4.605  10.765   5.121  0.1076 -0.3049  0.2945
 1017MOL0     C37171   4.591  10.880   5.226  0.7838 -0.3876  0.8020
 1017MOL0     C37172   4.448  10.896   5.287  0.0599  0.2820 -0.4647
 1017MOL0     C37173   4.431  11.031   5.359  0.2497 -1.3403  0.0987
 1017MOL0     C37174   4.451  11.144   5.248  0.5775 -0.8460  0.0097
 1017MOL0     C37175   4.347  11.255   5.261 -0.2631  0.5561  0.3181
 1017MOL0     C37176   4.319  11.324   5.126 -1.0661  0.3487  0.9015
 1017MOL0     N37177   4.239  11.238   5.023 -0.5959 -0.8935  0.0585
 1017MOL0     C37178   4.110  11.192   5.037 -0.0415  0.2190  0.4571
 1017MOL0     C37179   4.097  11.120   4.915  0.4258 -0.5960 -0.7359
 1017MOL0     C37180   3.968  11.042   4.871 -0.2674 -0.2694  0.4113
 1017MOL0     C37181   3.979  10.889   4.886 -0.2141 -0.0488  0.4834
 1017MOL0     C37182   4.078  10.846   5.005 -0.4855  0.1130  1.1383
 1017MOL0     C37183   4.093  10.691   4.995 -0.2328  0.3668  0.0800
 1017MOL0     O37184   4.078  10.639   5.127 -0.4414 -0.5731  0.7417
 1017MOL0     C37185   4.183  10.575   5.180  0.0838 -0.1872 -0.0036
 1017MOL0     C37186   4.232  10.599   5.314 -0.5155 -0.5921  0.5576
 1017MOL0     C37187   4.329  10.519   5.386  0.6028  0.2344  0.5307
 1017MOL0     C37188   4.372  10.577   5.523  0.3374  0.0484 -0.0571
 1017MOL0     C37189   4.388  10.408   5.320  0.0871  0.0922  0.0869
 1017MOL0     C37190   4.509  10.332   5.383  0.4443  0.7190 -0.2262
 1017MOL0     O37191   4.586  10.256   5.303  0.8197 -0.1641 -0.3392
 1017MOL0     C37192   4.704  10.198   5.350 -1.1892 -0.5167 -0.0927
 1017MOL0     C37193   4.799  10.274   5.425 -0.1705  0.5650  0.0264
 1017MOL0     C37194   4.919  10.211   5.456 -1.5324 -0.3605 -0.5315
 1017MOL0     C37195   4.956  10.081   5.421 -0.2698  0.6894 -0.6102
 1017MOL0     O37196   5.080  10.025   5.438  0.3682 -0.3221 -0.3559
 1017MOL0     C37197   5.128  10.021   5.573 -0.5524  0.1904 -0.0639
 1017MOL0     C37198   5.278  10.062   5.566  0.0551  0.4583 -0.0156
 1017MOL0     C37199   5.335  10.085   5.711  0.2433 -0.2105  0.4612
 1017MOL0     C37200   5.474  10.133   5.711 -0.2576  0.0988  0.0272
 1017MOL0     C37201   5.545  10.143   5.850  1.1366  0.3589 -0.2046
 1017MOL0     C37202   5.691  10.181   5.826 -0.0540 -0.8910 -0.6530
 1017MOL0     C37203   5.709  10.321   5.752  0.7720  0.8246  0.1969
 1017MOL0     C37204   5.652  10.447   5.831 -0.4141 -0.0112 -0.1132
 1017MOL0    Cl37205   5.696  10.607   5.767  0.0593  0.1828 -0.0960
 1017MOL0     C37206   4.863  10.016   5.332  0.0055 -0.2107 -0.9599
 1017MOL0     C37207   4.737  10.067   5.308  0.6111  0.4006 -0.0492
 1017MOL0     O37208   4.521  10.341   5.503  1.2887 -0.2591  0.0160
 1017MOL0     C37209   4.330  10.379   5.194  0.7451  1.6840 -0.5557
 1017MOL0     C37210   4.237  10.460   5.127  0.4392  0.0700  0.0052
 1017MOL0     N37211   4.207  11.124   4.847  0.1200 -0.5889  1.1531
 1017MOL0     N37212   4.293  11.190   4.905  0.2112 -0.0509 -0.1836
 1017MOL0     C37213   4.694  10.451   5.023  0.7456  0.7866 -0.4947
 1017MOL0     C37214   4.648  10.322   4.997 -0.4356 -0.7661  0.6271
 1017MOL0     C37215   4.394   9.987   4.807 -0.2429  0.0601  0.7562
 1017MOL0     C37216   4.479   9.878   4.787  0.1682  0.4272 -0.0049
 1017MOL0     C37217   4.432   9.760   4.731 -0.2110 -0.0076  0.0390
 1017MOL0     C37218   4.299   9.746   4.691 -0.5999 -0.1125  0.5340
 1017MOL0     O37219   4.274   9.624   4.646 -0.4508 -0.1456  0.4946
 1017MOL0     C37220   4.136   9.585   4.625  0.3417  0.0029  0.1081
 1017MOL0     C37221   4.072   9.619   4.492 -0.2447  0.2200  0.1207
 1017MOL0     C37222   4.162   9.576   4.372 -0.2055  0.5209  0.0326
 1017MOL0     C37223   4.172   9.424   4.345 -0.0058 -0.9208  0.5444
 1017MOL0     C37224   4.189   9.403   4.201  0.2597 -0.0213 -0.9089
 1017MOL0     C37225   4.208   9.371   4.087 -0.0308 -0.2193 -0.7112
 1017MOL0     C37226   4.213   9.855   4.710 -0.0139  0.0425  0.5809
 1017MOL0     C37227   4.264   9.964   4.763 -0.4767 -0.2792 -0.7151
 1017MOL0     H37228   4.647  10.311   4.667  1.0209 -1.0030  0.4584
 1017MOL0     H37229   4.746  10.557   4.708 -1.0008 -0.1614  0.2110
 1017MOL0     H37230   4.800  10.677   5.144 -0.6056  0.0824  1.7538
 1017MOL0     H37231   4.798  10.838   5.066  2.4104 -1.3639  1.1096
 1017MOL0     H37232   4.536  10.771   5.036 -1.4182  5.0997  1.5207
 1017MOL0     H37233   4.582  10.673   5.176 -0.5499  0.6619  1.6881
 1017MOL0     H37234   4.662  10.849   5.303  1.1660 -1.7772 -0.0729
 1017MOL0     H37235   4.629  10.970   5.178  0.7112  1.3174  3.6725
 1017MOL0     H37236   4.377  10.887   5.204 -0.6816  1.9657 -0.0569
 1017MOL0     H37237   4.430  10.808   5.349 -1.4370 -0.4054 -1.7955
 1017MOL0     H37238   4.328  11.032   5.396 -1.2548 -2.4175 -3.5277
 1017MOL0     H37239   4.503  11.050   5.439 -0.7204  2.6620  0.2394
 1017MOL0     H37240   4.543  11.203   5.256  0.6533 -0.5512 -2.1679
 1017MOL0     H37241   4.447  11.097   5.149  0.9209  0.5747 -0.7064
 1017MOL0     H37242   4.250  11.210   5.287  0.1046 -0.0992  0.5963
 1017MOL0     H37243   4.379  11.332   5.331 -1.0976  1.2823 -0.0765
 1017MOL0     H37244   4.412  11.349   5.073 -1.8071  0.3686 -0.4305
 1017MOL0     H37245   4.272  11.422   5.135 -0.5225  0.6262  0.7960
 1017MOL0     H37246   4.036  11.205   5.115 -2.3800 -0.9859 -1.4349
 1017MOL0     H37247   3.888  11.086   4.932 -0.4604  1.4746 -1.0060
 1017MOL0     H37248   3.947  11.056   4.765 -2.3783 -0.7391  0.7098
 1017MOL0     H37249   4.014  10.843   4.793 -4.3113 -0.3864 -1.1061
 1017MOL0     H37250   3.875  10.856   4.892 -1.2128  1.9777 -2.9452
 1017MOL0     H37251   4.033  10.880   5.099 -3.7225  0.4986 -0.3847
 1017MOL0     H37252   4.179  10.884   4.989  0.3013 -1.9778  0.8484
 1017MOL0     H37253   4.185  10.668   4.940 -0.9662 -0.0507 -0.9996
 1017MOL0     H37254   4.014  10.643   4.937 -0.5687 -0.1026  0.9120
 1017MOL0     H37255   4.210  10.689   5.370  0.9305 -1.1610  2.1447
 1017MOL0     H37256   4.349  10.508   5.604  0.8947  1.5629  1.4368
 1017MOL0     H37257   4.480  10.594   5.516  0.1565  0.6926 -1.8656
 1017MOL0     H37258   4.325  10.674   5.543 -0.1940 -0.4036  0.9535
 1017MOL0     H37259   4.786  10.380   5.445 -0.3013  1.0077 -2.1424
 1017MOL0     H37260   4.994  10.265   5.512 -0.7735 -0.7865 -1.1130
 1017MOL0     H37261   5.080  10.082   5.650  2.3346 -0.4714  2.4472
 1017MOL0     H37262   5.126   9.922   5.621  0.8947  2.2379  4.8707
 1017MOL0     H37263   5.332   9.988   5.506  0.0013  0.4274 -0.0255
 1017MOL0     H37264   5.272  10.155   5.509  2.0260 -0.2194 -1.4504
 1017MOL0     H37265   5.329   9.992   5.769 -1.7251 -0.5559 -0.2236
 1017MOL0     H37266   5.273  10.161   5.758  0.9315 -0.3847  1.7040
 1017MOL0     H37267   5.544  10.086   5.640 -0.5120 -1.9212  1.0447
 1017MOL0     H37268   5.466  10.237   5.678  1.8335 -0.1431 -1.4609
 1017MOL0     H37269   5.547  10.049   5.908  0.3121  1.3037  1.4395
 1017MOL0     H37270   5.487  10.207   5.918  1.4025  0.2159  0.1601
 1017MOL0     H37271   5.741  10.181   5.924  1.1503 -1.8698 -1.2441
 1017MOL0     H37272   5.736  10.106   5.761 -1.8451 -2.5289 -0.0845
 1017MOL0     H37273   5.655  10.317   5.657  0.4570 -0.3246  0.4113
 1017MOL0     H37274   5.814  10.326   5.723  0.4380 -2.1814 -1.9031
 1017MOL0     H37275   5.692  10.453   5.932 -0.5797  0.7426 -0.0904
 1017MOL0     H37276   5.543  10.445   5.840 -0.5027  0.0014 -1.0910
 1017MOL0     H37277   4.900   9.918   5.301  1.2863 -0.4628  1.1199
 1017MOL0     H37278   4.678  10.006   5.240  1.0570  2.1543 -2.1093
 1017MOL0     H37279   4.347  10.284   5.145 -0.4488  1.5667 -0.7733
 1017MOL0     H37280   4.184  10.433   5.036 -2.3130  3.4844  0.3915
 1017MOL0     H37281   4.689  10.485   5.126  1.8919  2.0018 -0.7994
 1017MOL0     H37282   4.610  10.254   5.072 -0.4512 -1.0384  0.3757
 1017MOL0     H37283   4.585   9.877   4.809  0.5209 -3.6251 -1.0595
 1017MOL0     H37284   4.497   9.677   4.704 -1.2632  0.3313 -4.2306
 1017MOL0     H37285   4.120   9.479   4.648  1.0151 -0.4133 -1.2274
 1017MOL0     H37286   4.070   9.632   4.698 -0.0081  0.9448 -0.7755
 1017MOL0     H37287   4.062   9.727   4.481  4.6490  0.7566 -1.4126
 1017MOL0     H37288   3.973   9.575   4.472  1.2160 -2.7540 -1.2010
 1017MOL0     H37289   4.261   9.618   4.395  0.0167  0.9772 -1.6705
 1017MOL0     H37290   4.119   9.620   4.282 -0.3845  1.4400  0.5592
 1017MOL0     H37291   4.079   9.381   4.384 -1.5432  1.2005 -0.5778
 1017MOL0     H37292   4.261   9.391   4.401  1.3204  3.3542  1.2689
 1017MOL0     H37293   4.212   9.356   3.981 -0.9895 -0.4111 -0.7281
 1017MOL0     H37294   4.118   9.851   4.659  1.2179 -0.1139 -1.8167
 1017MOL0     H37295   4.198  10.049   4.769 -0.0981  0.0571 -1.2420
 1018MOL0     O37296   5.608   0.401   7.265 -0.2753  0.3765  0.1480
 1018MOL0     C37297   5.545   0.498   7.235 -0.1197  0.1452  0.0862
 1018MOL0     O37298   5.452   0.500   7.137 -0.8228  0.1520  0.0550
 1018MOL0     C37299   5.402   0.386   7.069 -0.6301 -0.3736 -0.8563
 1018MOL0     C37300   5.420   0.250   7.105 -0.2320  0.5353  0.2371
 1018MOL0     C37301   5.370   0.153   7.015  0.7437 -0.1362 -0.5083
 1018MOL0     C37302   5.307   0.181   6.897  0.5935  0.6041  0.1402
 1018MOL0     O37303   5.242   0.095   6.809 -0.1444 -0.6660  0.3443
 1018MOL0     C37304   5.199  -0.036   6.848  0.4450  1.3440  0.5151
 1018MOL0     C37305   5.183  -0.116   6.719  0.2765  0.6913  0.1897
 1018MOL0     C37306   5.094  -0.236   6.733  0.0425 -0.2264  0.4249
 1018MOL0     C37307   5.029  -0.286   6.603 -0.1484  0.3814  0.0648
 1018MOL0     C37308   4.938  -0.405   6.650 -0.0902  0.0930 -0.1322
 1018MOL0     C37309   4.854  -0.445   6.528  0.4184  0.1425 -0.0403
 1018MOL0     C37310   4.771  -0.564   6.559  0.8355  0.3996  0.6257
 1018MOL0     C37311   4.659  -0.552   6.675 -0.6785 -0.4058 -0.1671
 1018MOL0     N37312   4.583  -0.428   6.672  0.2645  0.0429 -0.0619
 1018MOL0     C37313   4.482  -0.401   6.581 -0.1670 -0.3231 -0.4347
 1018MOL0     C37314   4.438  -0.273   6.605 -0.4678 -0.5387  0.8518
 1018MOL0     C37315   4.349  -0.187   6.523 -0.9081  0.1840  0.0198
 1018MOL0     C37316   4.204  -0.232   6.525 -0.6970 -0.2346 -0.7485
 1018MOL0     C37317   4.102  -0.118   6.485 -0.4580  0.3384  0.2041
 1018MOL0     C37318   3.953  -0.147   6.499  0.3171  0.7580 -0.9771
 1018MOL0     O37319   3.925  -0.178   6.636  0.0822  0.4968  1.0164
 1018MOL0     C37320   3.794  -0.200   6.650  0.1778  0.1395  0.1859
 1018MOL0     C37321   3.689  -0.156   6.566 -0.4869 -0.1835 -0.4579
 1018MOL0     C37322   3.557  -0.198   6.584 -0.2290  0.2749 -0.2545
 1018MOL0     C37323   3.453  -0.141   6.490  0.1071  0.0734 -0.3373
 1018MOL0     C37324   3.522  -0.275   6.698  0.4636  0.5296  0.2476
 1018MOL0     C37325   3.388  -0.321   6.739 -1.2031 -0.9503  0.3179
 1018MOL0     O37326   3.316  -0.388   6.639 -0.0206 -0.6352 -0.7020
 1018MOL0     C37327   3.193  -0.440   6.681 -0.6095 -0.5884  0.0199
 1018MOL0     C37328   3.186  -0.518   6.803 -0.4105 -0.7232 -0.6614
 1018MOL0     C37329   3.054  -0.569   6.837  0.1898 -0.0928 -0.2540
 1018MOL0     C37330   2.943  -0.568   6.750 -0.9840 -0.6322 -0.5844
 1018MOL0     O37331   2.820  -0.624   6.787 -0.2112  0.3990 -0.6318
 1018MOL0     C37332   2.700  -0.610   6.706  0.0266 -0.3486  0.1959
 1018MOL0     C37333   2.577  -0.631   6.784  1.0543  0.1360  0.0174
 1018MOL0     C37334   2.549  -0.510   6.877 -0.7536  0.2746 -0.2104
 1018MOL0     C37335   2.402  -0.505   6.940 -0.1351  0.0952 -0.0599
 1018MOL0     C37336   2.378  -0.379   7.029 -0.6044  0.0018  0.0348
 1018MOL0     C37337   2.449  -0.372   7.167  0.2592  0.4239 -0.2664
 1018MOL0     C37338   2.396  -0.270   7.259 -0.0402 -0.8368  0.2418
 1018MOL0     C37339   2.456  -0.275   7.406 -0.1697  1.0104 -0.3337
 1018MOL0    Cl37340   2.628  -0.299   7.433  0.7267 -0.2280 -0.0307
 1018MOL0     C37341   2.965  -0.492   6.631  0.5151  1.6375  0.3870
 1018MOL0     C37342   3.081  -0.432   6.599  1.0235  0.1295  0.8695
 1018MOL0     O37343   3.348  -0.301   6.852 -0.5411  0.2486  0.2869
 1018MOL0     C37344   3.628  -0.312   6.788 -1.2098  0.5076  0.6613
 1018MOL0     C37345   3.759  -0.277   6.761 -0.1719 -0.4776  0.1108
 1018MOL0     N37346   4.516  -0.227   6.713 -0.1704 -0.3618  0.3939
 1018MOL0     N37347   4.596  -0.320   6.751 -0.0655  0.1007 -0.1365
 1018MOL0     C37348   5.280   0.319   6.871  0.0457  0.7122  0.3678
 1018MOL0     C37349   5.336   0.415   6.951 -0.0874 -0.0914  0.7697
 1018MOL0     C37350   5.557   0.621   7.312  0.5842 -0.9006 -0.0929
 1018MOL0     C37351   5.490   0.737   7.278 -0.1041  0.4010  0.2625
 1018MOL0     C37352   5.501   0.849   7.361  0.6200  0.0642 -0.6281
 1018MOL0     C37353   5.590   0.853   7.461  0.0446 -0.1051  0.8460
 1018MOL0     O37354   5.612   0.972   7.521 -0.4233 -0.8740  0.4321
 1018MOL0     C37355   5.687   0.977   7.639 -0.3249 -0.1187 -0.0511
 1018MOL0     C37356   5.670   1.120   7.696 -0.0370 -0.9686  0.0388
 1018MOL0     C37357   5.775   1.209   7.637 -0.3435  0.5605 -0.5851
 1018MOL0     C37358   5.749   1.353   7.663  0.6584 -0.5375  0.2861
 1018MOL0     C37359   5.845   1.427   7.580  0.1714 -0.0637  0.6194
 1018MOL0     C37360   5.921   1.477   7.497  0.1802  0.5896  0.1844
 1018MOL0     C37361   5.652   0.733   7.500  0.8683  0.5749 -0.2360
 1018MOL0     C37362   5.632   0.624   7.426 -0.3942 -0.0678 -0.0673
 1018MOL0     H37363   5.477   0.218   7.191 -0.4047  1.6814  0.7894
 1018MOL0     H37364   5.393   0.052   7.047 -1.4100 -0.7064 -0.6279
 1018MOL0     H37365   5.262  -0.089   6.920  0.1850  1.5818  0.9269
 1018MOL0     H37366   5.100  -0.015   6.891 -0.2929  1.6825 -1.2825
 1018MOL0     H37367   5.143  -0.047   6.645 -1.3321 -0.1018  0.2819
 1018MOL0     H37368   5.277  -0.164   6.690  1.2339  1.7618  1.3616
 1018MOL0     H37369   5.161  -0.315   6.768 -1.2446 -1.6484 -0.2236
 1018MOL0     H37370   5.014  -0.210   6.804 -1.2393  1.6141 -1.5748
 1018MOL0     H37371   4.973  -0.203   6.560 -0.7714  0.0519  0.2302
 1018MOL0     H37372   5.103  -0.332   6.537 -0.1496 -1.8974  1.5285
 1018MOL0     H37373   5.002  -0.489   6.676  1.2812  0.2460 -2.6552
 1018MOL0     H37374   4.873  -0.369   6.730  0.3114  2.2639 -0.7176
 1018MOL0     H37375   4.780  -0.369   6.500 -1.9294 -2.0530 -0.1209
 1018MOL0     H37376   4.919  -0.461   6.441  0.9051  0.8023  0.1868
 1018MOL0     H37377   4.718  -0.603   6.472 -1.1224 -0.0190  1.9377
 1018MOL0     H37378   4.840  -0.645   6.584 -0.4856 -1.7859 -2.1360
 1018MOL0     H37379   4.694  -0.551   6.779 -2.4033  0.0389  0.4375
 1018MOL0     H37380   4.605  -0.647   6.670 -1.0698 -0.3780  2.2755
 1018MOL0     H37381   4.464  -0.467   6.497  0.4933 -0.9109 -0.1241
 1018MOL0     H37382   4.352  -0.083   6.555 -0.3028  0.5027 -1.0256
 1018MOL0     H37383   4.398  -0.191   6.426  3.4452  0.7320  1.9638
 1018MOL0     H37384   4.177  -0.256   6.629 -1.6052  0.6148 -0.7735
 1018MOL0     H37385   4.196  -0.320   6.460 -2.1789  1.4971 -3.0911
 1018MOL0     H37386   4.117  -0.095   6.379 -1.2498  2.1041  0.4346
 1018MOL0     H37387   4.120  -0.026   6.541 -1.4946 -0.0287  1.1924
 1018MOL0     H37388   3.929  -0.226   6.427  0.7629  0.6514 -1.0160
 1018MOL0     H37389   3.905  -0.052   6.474 -2.1228  0.0407  0.6394
 1018MOL0     H37390   3.712  -0.093   6.482  1.2142  1.3404  1.0706
 1018MOL0     H37391   3.439  -0.035   6.517 -1.2083  0.1737 -1.2700
 1018MOL0     H37392   3.482  -0.153   6.385  1.7902 -2.2099  0.3301
 1018MOL0     H37393   3.355  -0.189   6.502  0.0718 -0.2755 -1.8556
 1018MOL0     H37394   3.276  -0.539   6.860  0.7775 -2.9616 -3.1106
 1018MOL0     H37395   3.017  -0.614   6.928 -2.4630 -1.4641 -1.8809
 1018MOL0     H37396   2.691  -0.511   6.661 -1.2234 -0.2201  0.7111
 1018MOL0     H37397   2.706  -0.683   6.624 -0.3012  2.6137 -2.7022
 1018MOL0     H37398   2.499  -0.659   6.713  2.1281 -2.5352 -0.2356
 1018MOL0     H37399   2.584  -0.729   6.832 -1.3277 -0.9797 -1.7097
 1018MOL0     H37400   2.575  -0.421   6.819  1.3957 -0.3357 -0.2682
 1018MOL0     H37401   2.626  -0.521   6.954  0.8308 -2.3281 -1.9822
 1018MOL0     H37402   2.339  -0.491   6.852  0.2346  1.3427 -0.1372
 1018MOL0     H37403   2.389  -0.600   6.994  1.8397 -0.9493 -1.2955
 1018MOL0     H37404   2.269  -0.380   7.039 -0.6565 -0.1808 -0.5101
 1018MOL0     H37405   2.419  -0.295   6.973  0.5783 -1.9299 -2.1957
 1018MOL0     H37406   2.418  -0.463   7.221  0.4579  0.4787 -0.0573
 1018MOL0     H37407   2.558  -0.369   7.162  0.3465 -0.7381  0.4065
 1018MOL0     H37408   2.287  -0.266   7.260 -0.0350  3.0211  0.4457
 1018MOL0     H37409   2.425  -0.172   7.219 -0.9371 -1.0242 -0.9335
 1018MOL0     H37410   2.393  -0.350   7.456  0.0249 -0.0896 -1.6862
 1018MOL0     H37411   2.422  -0.185   7.459 -3.3592 -0.2325 -0.0157
 1018MOL0     H37412   2.879  -0.484   6.565  1.6656  0.3397 -1.3606
 1018MOL0     H37413   3.079  -0.371   6.509 -1.6837  1.5461  1.7620
 1018MOL0     H37414   3.608  -0.365   6.880 -1.4173 -0.8375 -0.1301
 1018MOL0     H37415   3.834  -0.321   6.826  1.7590  2.8646  0.3675
 1018MOL0     H37416   5.218   0.336   6.784 -2.2043 -0.0562  1.7284
 1018MOL0     H37417   5.338   0.519   6.920  1.1910 -0.1103  0.7383
 1018MOL0     H37418   5.435   0.750   7.186 -0.3436 -0.3593  0.2895
 1018MOL0     H37419   5.460   0.942   7.323 -0.8721 -1.1095 -2.0202
 1018MOL0     H37420   5.645   0.907   7.711 -3.4584  0.3250 -1.2803
 1018MOL0     H37421   5.792   0.950   7.626 -0.3493 -1.4166  2.0933
 1018MOL0     H37422   5.683   1.126   7.805  0.0612  0.1429 -0.0281
 1018MOL0     H37423   5.572   1.162   7.673  0.9262  1.6485  0.4206
 1018MOL0     H37424   5.792   1.178   7.533 -2.0568 -0.3001 -0.6378
 1018MOL0     H37425   5.868   1.178   7.687 -1.1259  1.6005  1.6320
 1018MOL0     H37426   5.755   1.382   7.768  0.2973  5.6047 -0.9744
 1018MOL0     H37427   5.652   1.389   7.627  0.6272  0.4449  1.2781
 1018MOL0     H37428   5.970   1.537   7.422 -3.8494  1.7152 -1.8596
 1018MOL0     H37429   5.717   0.715   7.585 -1.3960 -4.8972  0.7697
 1018MOL0     H37430   5.687   0.531   7.444  0.4743 -0.2511 -3.1397
 1019MOL0     O37431  10.224  10.522   7.730 -0.4499 -0.1889  0.4403
 1019MOL0     C37432  10.127  10.501   7.657  0.6348  1.1548 -0.9781
 1019MOL0     O37433  10.107  10.544   7.525  0.3674 -0.3550 -0.4177
 1019MOL0     C37434  10.203  10.625   7.467 -0.7173 -0.1071 -0.6781
 1019MOL0     C37435  10.346  10.628   7.489  0.6764 -0.1448  0.1421
 1019MOL0     C37436  10.424  10.734   7.444  0.1642 -0.2677 -0.2906
 1019MOL0     C37437  10.359  10.845   7.381 -0.0006 -0.1278 -0.5982
 1019MOL0     O37438  10.433  10.957   7.353  0.3893  0.9326 -0.1175
 1019MOL0     C37439  10.400  11.057   7.252 -0.4151  0.5269  0.1204
 1019MOL0     C37440  10.523  11.147   7.228 -0.8680 -1.0956  0.2930
 1019MOL0     C37441  10.541  11.264   7.339 -0.0542  1.4654 -0.3410
 1019MOL0     C37442  10.660  11.365   7.319 -0.2819  0.6523 -0.1197
 1019MOL0     C37443  10.799  11.296   7.331  0.6558 -0.2393 -0.0903
 1019MOL0     C37444  10.907  11.374   7.253 -0.2298  0.3260  0.1271
 1019MOL0     C37445  11.041  11.291   7.281 -0.0188 -0.3135  0.2830
 1019MOL0     C37446  11.094  11.303   7.427 -0.1924 -0.6613  0.4788
 1019MOL0     N37447  11.125  11.445   7.466 -0.9865  0.1165  0.4148
 1019MOL0     C37448  11.201  11.541   7.398 -0.0913 -0.0397  0.9301
 1019MOL0     C37449  11.198  11.643   7.483  0.5330  0.3845 -0.2470
 1019MOL0     C37450  11.255  11.777   7.448 -0.4910 -0.8373  0.6537
 1019MOL0     C37451  11.161  11.895   7.428 -0.1344 -0.2789  1.0532
 1019MOL0     C37452  11.056  11.878   7.317  0.3059  0.4633  0.5248
 1019MOL0     C37453  11.112  11.947   7.184 -0.0832 -0.1554 -0.2112
 1019MOL0     O37454  11.135  12.090   7.207  0.2216  0.3934  0.5039
 1019MOL0     C37455  11.171  12.163   7.098 -0.2684 -0.1328  0.6357
 1019MOL0     C37456  11.290  12.236   7.103 -0.0731 -0.8864 -0.8554
 1019MOL0     C37457  11.330  12.317   6.999  0.7421  0.9359 -0.6500
 1019MOL0     C37458  11.462  12.380   7.009  0.3830  0.9090  0.6209
 1019MOL0     C37459  11.239  12.333   6.888  0.1419 -0.6731 -0.0875
 1019MOL0     C37460  11.272  12.411   6.760  0.4304 -1.0211  0.6206
 1019MOL0     O37461  11.162  12.443   6.684 -0.3560  0.1709  0.6431
 1019MOL0     C37462  11.182  12.532   6.573  1.1068  0.3062 -0.5698
 1019MOL0     C37463  11.264  12.649   6.567  0.4829 -0.2083  0.1426
 1019MOL0     C37464  11.271  12.720   6.449 -0.8511  0.0209  0.2288
 1019MOL0     C37465  11.198  12.681   6.338  0.5197 -0.9082  0.5219
 1019MOL0     O37466  11.212  12.770   6.233  0.7475  0.2591 -0.3278
 1019MOL0     C37467  11.157  12.738   6.104 -0.5283  0.7319 -0.6146
 1019MOL0     C37468  11.198  12.855   6.020 -0.6532 -1.0733  0.1453
 1019MOL0     C37469  11.130  12.997   6.068 -0.4048  0.5321  0.1289
 1019MOL0     C37470  11.163  13.108   5.962  0.2232  0.1001  0.5441
 1019MOL0     C37471  11.068  13.222   5.983  0.0303  0.7930  0.6103
 1019MOL0     C37472  11.095  13.293   6.113 -0.0079  0.2034 -0.1592
 1019MOL0     C37473  11.052  13.448   6.112  0.1199 -1.3650 -0.7919
 1019MOL0     C37474  11.103  13.521   6.229  0.3294 -0.5065 -0.4856
 1019MOL0    Cl37475  11.026  13.681   6.217 -0.2405 -0.3202 -0.0584
 1019MOL0     C37476  11.105  12.575   6.343  0.0628  0.2001 -0.0038
 1019MOL0     C37477  11.098  12.508   6.459 -0.0529  0.1534 -0.8177
 1019MOL0     O37478  11.390  12.443   6.732 -0.2608 -0.5771 -0.2055
 1019MOL0     C37479  11.116  12.277   6.898  0.4243  0.5670 -0.9018
 1019MOL0     C37480  11.087  12.179   6.992  0.5339 -0.5746  0.0371
 1019MOL0     N37481  11.113  11.625   7.598  0.4213  0.6988 -0.7148
 1019MOL0     N37482  11.070  11.506   7.578  0.1974  1.0362 -0.3582
 1019MOL0     C37483  10.221  10.844   7.362 -0.4230  0.1944  0.6922
 1019MOL0     C37484  10.150  10.735   7.404  0.5623  1.3511 -0.5572
 1019MOL0     C37485  10.028  10.407   7.712 -0.3764 -0.1693 -0.4205
 1019MOL0     C37486   9.891  10.421   7.667 -1.1645 -0.4505 -0.0996
 1019MOL0     C37487   9.791  10.332   7.716  0.3164 -0.4571  0.1061
 1019MOL0     C37488   9.821  10.239   7.811 -1.3090  0.3747  0.5802
 1019MOL0     O37489   9.723  10.166   7.867 -0.2268 -0.2464 -0.5437
 1019MOL0     C37490   9.719  10.141   8.011 -0.4474 -0.4535  1.2424
 1019MOL0     C37491   9.593  10.078   8.069  0.4320  0.3843  0.7528
 1019MOL0     C37492   9.463  10.159   8.041 -0.5864 -0.3865 -0.2180
 1019MOL0     C37493   9.328  10.081   8.049  0.3447 -0.7114 -0.3665
 1019MOL0     C37494   9.314  10.005   8.169 -0.7324 -0.0377  0.1197
 1019MOL0     C37495   9.312   9.936   8.268 -0.5737 -0.3719  0.1867
 1019MOL0     C37496   9.959  10.237   7.852 -0.6111  0.0575 -0.4326
 1019MOL0     C37497  10.063  10.315   7.802  0.2361 -0.3012  0.5791
 1019MOL0     H37498  10.395  10.544   7.539 -0.7871 -1.3499 -0.3747
 1019MOL0     H37499  10.532  10.736   7.444  0.1860  2.2473 -1.8509
 1019MOL0     H37500  10.382  11.012   7.154  1.0609 -1.4361  0.7000
 1019MOL0     H37501  10.308  11.111   7.277 -0.9357  0.9523 -2.4999
 1019MOL0     H37502  10.607  11.079   7.215  0.3232  0.7562 -2.9987
 1019MOL0     H37503  10.508  11.191   7.129 -1.1937 -1.3361  0.2322
 1019MOL0     H37504  10.448  11.320   7.355 -1.6276 -1.6145  2.9039
 1019MOL0     H37505  10.564  11.217   7.436  2.1554  2.9023 -0.1244
 1019MOL0     H37506  10.645  11.419   7.225  0.2734  1.0053 -0.0093
 1019MOL0     H37507  10.662  11.441   7.398  0.5768  1.9364 -1.3175
 1019MOL0     H37508  10.810  11.289   7.440  1.3855 -3.7118 -0.2837
 1019MOL0     H37509  10.776  11.200   7.286  0.0604 -0.6774  1.0827
 1019MOL0     H37510  10.875  11.377   7.149 -0.4667  4.1284  0.1810
 1019MOL0     H37511  10.927  11.473   7.294  0.8566  0.3011 -0.3240
 1019MOL0     H37512  11.048  11.184   7.260  3.2512  0.0117 -0.8658
 1019MOL0     H37513  11.111  11.334   7.210 -1.7693 -1.4028 -2.2623
 1019MOL0     H37514  11.191  11.254   7.441  1.1082  2.2912  2.8145
 1019MOL0     H37515  11.024  11.261   7.499  1.4331  1.5510  3.5967
 1019MOL0     H37516  11.252  11.531   7.302  2.4076  3.7199  1.6083
 1019MOL0     H37517  11.339  11.799   7.514 -1.2367 -0.5795  1.5377
 1019MOL0     H37518  11.306  11.771   7.351 -0.1555  0.8089  0.7098
 1019MOL0     H37519  11.220  11.984   7.405 -1.6359  0.7022  0.8131
 1019MOL0     H37520  11.104  11.919   7.519 -2.7959 -1.5091 -0.1719
 1019MOL0     H37521  10.969  11.937   7.347 -0.3437 -0.4116  0.4221
 1019MOL0     H37522  11.023  11.774   7.305 -4.1367  1.5943  1.1014
 1019MOL0     H37523  11.049  11.936   7.096  0.7626  0.5142 -0.9176
 1019MOL0     H37524  11.206  11.894   7.167 -0.3787 -1.1810  1.1630
 1019MOL0     H37525  11.346  12.211   7.193 -2.4951  2.6785  1.9058
 1019MOL0     H37526  11.465  12.489   7.007 -2.3792  1.0509 -0.7836
 1019MOL0     H37527  11.523  12.344   7.092 -0.9819  1.2029  1.7737
 1019MOL0     H37528  11.520  12.347   6.922  2.4451  3.0710  1.0697
 1019MOL0     H37529  11.330  12.667   6.651 -1.6319  0.5171  1.7082
 1019MOL0     H37530  11.335  12.807   6.454 -0.2479 -0.3503 -0.7044
 1019MOL0     H37531  11.208  12.650   6.062  1.9251  2.4725 -1.5094
 1019MOL0     H37532  11.048  12.732   6.102 -0.7659  0.7660  3.5562
 1019MOL0     H37533  11.307  12.866   6.016 -0.5345 -1.0929  2.2450
 1019MOL0     H37534  11.177  12.827   5.916  1.1466  1.5435 -1.0451
 1019MOL0     H37535  11.173  13.026   6.165 -0.1598  0.8225 -0.0654
 1019MOL0     H37536  11.022  12.984   6.078 -0.1768 -2.9771 -0.6925
 1019MOL0     H37537  11.263  13.144   5.988  1.0161  0.4144 -2.5951
 1019MOL0     H37538  11.157  13.077   5.857 -3.1537  1.2820  0.2839
 1019MOL0     H37539  10.963  13.190   5.980  0.3360 -0.2519 -3.0179
 1019MOL0     H37540  11.092  13.291   5.902  1.9983  0.9129  1.2511
 1019MOL0     H37541  11.033  13.252   6.193  0.1587  2.6982  1.3491
 1019MOL0     H37542  11.194  13.288   6.159 -0.7785  0.7199  1.6664
 1019MOL0     H37543  10.943  13.446   6.126  0.1819 -1.7414 -0.3326
 1019MOL0     H37544  11.081  13.503   6.022 -1.2595  0.4130 -0.2094
 1019MOL0     H37545  11.212  13.526   6.233  0.3749  3.0625 -2.2590
 1019MOL0     H37546  11.079  13.464   6.319  1.0039 -0.6936 -0.4220
 1019MOL0     H37547  11.028  12.543   6.274 -1.8217 -0.0248  2.1119
 1019MOL0     H37548  11.031  12.427   6.487  0.8770 -1.1290 -2.1731
 1019MOL0     H37549  11.033  12.280   6.827 -0.6605  1.6264  0.3552
 1019MOL0     H37550  10.994  12.122   6.993  2.1268 -3.5681  3.7961
 1019MOL0     H37551  10.166  10.934   7.335 -1.3116  1.3488  5.4980
 1019MOL0     H37552  10.042  10.735   7.391  0.5092 -1.2605 -0.8203
 1019MOL0     H37553   9.876  10.488   7.583 -0.6223 -1.5350 -1.0978
 1019MOL0     H37554   9.692  10.331   7.673  0.1029  4.0891  0.0877
 1019MOL0     H37555   9.806  10.077   8.026  0.3022 -0.3175 -1.9162
 1019MOL0     H37556   9.743  10.235   8.062  0.1881 -1.9264  3.8504
 1019MOL0     H37557   9.613  10.063   8.175 -0.9422 -2.2604  0.7304
 1019MOL0     H37558   9.581   9.979   8.023 -2.7830  1.7457 -1.7878
 1019MOL0     H37559   9.468  10.202   7.941 -2.1345 -2.0956 -1.0923
 1019MOL0     H37560   9.468  10.241   8.112 -1.4076  1.3888 -2.1086
 1019MOL0     H37561   9.312  10.026   7.956 -1.3388  0.4703 -0.8258
 1019MOL0     H37562   9.252  10.160   8.052  1.3944  0.3120  0.2813
 1019MOL0     H37563   9.291   9.870   8.349 -0.4856  2.1023  2.3528
 1019MOL0     H37564   9.992  10.166   7.928  1.1541  2.3271  1.0389
 1019MOL0     H37565  10.166  10.317   7.835 -0.1297  1.6503  1.8110
 1020MOL0     O37566   0.002   7.852   0.487  0.1015 -1.1473  1.1413
 1020MOL0     C37567   0.114   7.838   0.446 -0.8707  0.4297 -0.6459
 1020MOL0     O37568   0.218   7.810   0.529  0.2134  0.2587 -0.3582
 1020MOL0     C37569   0.199   7.788   0.662 -0.1401 -0.0542 -0.0199
 1020MOL0     C37570   0.101   7.705   0.712  0.0675 -1.1602 -1.9372
 1020MOL0     C37571   0.067   7.695   0.846 -0.4878 -0.0582 -0.1998
 1020MOL0     C37572   0.139   7.772   0.939 -0.0410 -0.0903  0.3319
 1020MOL0     O37573   0.112   7.779   1.069  0.3698 -0.1130  0.3407
 1020MOL0     C37574   0.024   7.684   1.135  0.4183  0.3258 -0.0375
 1020MOL0     C37575   0.088   7.546   1.128 -0.1010  1.0219 -0.3623
 1020MOL0     C37576   0.213   7.522   1.228 -0.2441 -0.1462  1.0704
 1020MOL0     C37577   0.337   7.613   1.192 -0.3176  0.7348 -1.2019
 1020MOL0     C37578   0.470   7.539   1.233  0.1368 -0.5086  0.7604
 1020MOL0     C37579   0.488   7.502   1.390  0.3966 -0.7157  0.3804
 1020MOL0     C37580   0.597   7.398   1.423 -0.0595  0.0274 -0.4190
 1020MOL0     C37581   0.589   7.346   1.563 -0.2177  0.4276 -1.1942
 1020MOL0     N37582   0.642   7.205   1.561 -0.1501  0.0717  0.6136
 1020MOL0     C37583   0.775   7.182   1.575  0.8179  1.0500  0.9736
 1020MOL0     C37584   0.780   7.045   1.580  0.3346 -0.1211  0.3463
 1020MOL0     C37585   0.906   6.961   1.605 -0.3440  0.5924  0.7025
 1020MOL0     C37586   0.957   6.889   1.480 -0.9662  0.2370 -0.0133
 1020MOL0     C37587   0.931   6.737   1.486 -0.5588 -0.5503 -0.6078
 1020MOL0     C37588   0.788   6.697   1.488  0.8789 -0.4204 -0.6988
 1020MOL0     O37589   0.773   6.566   1.439 -0.2818  0.1008 -0.2017
 1020MOL0     C37590   0.654   6.506   1.428 -0.1109 -0.1322  0.4011
 1020MOL0     C37591   0.526   6.574   1.438 -0.0156 -0.1374 -0.1572
 1020MOL0     C37592   0.407   6.499   1.439 -0.4330  0.0510  0.7843
 1020MOL0     C37593   0.274   6.578   1.418 -0.2715  0.5846 -0.4440
 1020MOL0     C37594   0.416   6.354   1.432  0.4808  0.8855  0.1449
 1020MOL0     C37595   0.302   6.266   1.438  0.8136  0.9562  0.8434
 1020MOL0     O37596   0.329   6.130   1.421  0.3198  0.6178 -0.5084
 1020MOL0     C37597   0.216   6.042   1.397 -0.9046 -0.0260  0.6108
 1020MOL0     C37598   0.111   6.061   1.308  0.4499  0.4013  0.5824
 1020MOL0     C37599  -0.004   5.986   1.330 -0.6159 -0.7241 -0.5167
 1020MOL0     C37600  -0.010   5.872   1.412  0.2307 -0.4171 -0.4501
 1020MOL0     O37601  -0.115   5.786   1.435 -0.5204  0.5757  0.0946
 1020MOL0     C37602  -0.248   5.835   1.426 -0.2860  0.7981 -0.8038
 1020MOL0     C37603  -0.348   5.738   1.493  0.7558 -0.8044 -0.8238
 1020MOL0     C37604  -0.486   5.796   1.506 -0.3240  0.8781  0.4243
 1020MOL0     C37605  -0.499   5.870   1.638 -0.2086 -0.5963  0.3277
 1020MOL0     C37606  -0.640   5.907   1.667 -0.3302  0.3055 -0.7275
 1020MOL0     C37607  -0.651   5.983   1.799 -1.1957 -0.3091  0.8045
 1020MOL0     C37608  -0.726   6.108   1.789  0.1409  0.3895 -0.2730
 1020MOL0     C37609  -0.626   6.223   1.757  0.0932  0.4739  0.1459
 1020MOL0    Cl37610  -0.541   6.215   1.595 -0.2129 -0.1409  0.2142
 1020MOL0     C37611   0.102   5.847   1.479 -0.3710  0.2141  0.3172
 1020MOL0     C37612   0.215   5.931   1.476 -0.1201 -1.0115 -0.8648
 1020MOL0     O37613   0.189   6.319   1.441  0.1419 -0.0658  0.0390
 1020MOL0     C37614   0.541   6.297   1.428  0.5139 -1.6304  0.0790
 1020MOL0     C37615   0.656   6.371   1.416 -0.1031  0.1565 -0.4789
 1020MOL0     N37616   0.650   6.993   1.577 -0.3736 -0.0014  1.0966
 1020MOL0     N37617   0.562   7.088   1.565 -0.6703 -0.3535 -0.3097
 1020MOL0     C37618   0.239   7.858   0.892 -0.2561  0.6485  0.8092
 1020MOL0     C37619   0.268   7.869   0.749  0.1369  0.2056  0.1565
 1020MOL0     C37620   0.138   7.862   0.297 -0.3152 -0.3661  1.0129
 1020MOL0     C37621   0.270   7.864   0.231  1.0003 -0.1375 -0.1386
 1020MOL0     C37622   0.275   7.891   0.090 -0.0592  0.7712 -0.4867
 1020MOL0     C37623   0.163   7.903   0.003 -0.2483  0.1657 -0.4736
 1020MOL0     O37624   0.175   7.922  -0.129  0.1371 -0.2654 -0.0735
 1020MOL0     C37625   0.313   7.943  -0.190  1.0038 -0.7842 -0.3633
 1020MOL0     C37626   0.361   7.822  -0.268 -0.0006 -0.5401  0.1587
 1020MOL0     C37627   0.418   7.711  -0.172  0.4558 -0.4506 -0.2262
 1020MOL0     C37628   0.475   7.580  -0.227 -0.0453  0.1913 -0.2946
 1020MOL0     C37629   0.473   7.478  -0.127 -0.2113  0.9844 -0.6926
 1020MOL0     C37630   0.469   7.394  -0.042 -0.1808  0.9559 -0.2656
 1020MOL0     C37631   0.035   7.893   0.074  0.4838 -0.2319  0.4279
 1020MOL0     C37632   0.030   7.879   0.216  0.5823 -0.2143 -0.0055
 1020MOL0     H37633   0.058   7.633   0.642  0.4389 -1.8332 -1.4794
 1020MOL0     H37634  -0.028   7.646   0.868 -1.0910  1.2241  0.1736
 1020MOL0     H37635   0.006   7.708   1.240  0.0579  2.8983 -0.5976
 1020MOL0     H37636  -0.072   7.688   1.083 -0.6579 -0.6773  1.7828
 1020MOL0     H37637   0.011   7.470   1.145  4.8290 -3.6925  4.9100
 1020MOL0     H37638   0.123   7.516   1.029  0.3123 -3.1142  0.8549
 1020MOL0     H37639   0.186   7.547   1.331 -4.6961  0.3552 -0.0300
 1020MOL0     H37640   0.245   7.419   1.216  3.2952  1.1391 -3.6786
 1020MOL0     H37641   0.336   7.622   1.083 -2.2936 -0.9076 -1.3751
 1020MOL0     H37642   0.325   7.715   1.229  4.2845  2.0477 -2.6844
 1020MOL0     H37643   0.457   7.447   1.175 -1.8252 -0.0214  0.3279
 1020MOL0     H37644   0.553   7.595   1.189 -0.0217  0.0300  1.1296
 1020MOL0     H37645   0.509   7.597   1.440 -1.4727 -0.7718  1.3491
 1020MOL0     H37646   0.397   7.461   1.434 -1.7489 -0.2020 -3.1732
 1020MOL0     H37647   0.580   7.309   1.362 -2.5667 -0.4166  0.8040
 1020MOL0     H37648   0.702   7.425   1.411  0.5840 -0.0987  3.6047
 1020MOL0     H37649   0.486   7.332   1.597  0.1982  1.2665  0.5625
 1020MOL0     H37650   0.633   7.418   1.632  3.1341 -0.6298 -2.0561
 1020MOL0     H37651   0.861   7.248   1.575 -0.0228  2.2144  3.0877
 1020MOL0     H37652   0.979   7.037   1.634 -2.3446  3.0573 -0.3428
 1020MOL0     H37653   0.899   6.889   1.687  5.8035  0.5096  1.6142
 1020MOL0     H37654   1.065   6.898   1.471 -1.0062  0.9299  0.1532
 1020MOL0     H37655   0.910   6.941   1.396 -1.1792  4.7590  2.5839
 1020MOL0     H37656   0.981   6.691   1.572 -2.0013 -0.6587  0.2030
 1020MOL0     H37657   0.994   6.696   1.406  0.4868  3.2946 -2.0011
 1020MOL0     H37658   0.732   6.755   1.414  0.9404  0.7936  0.1826
 1020MOL0     H37659   0.734   6.718   1.581 -1.4539 -1.4055 -1.7514
 1020MOL0     H37660   0.531   6.682   1.428  0.6543 -0.3506 -2.9919
 1020MOL0     H37661   0.231   6.539   1.325  0.0264 -1.0802  0.0801
 1020MOL0     H37662   0.200   6.565   1.498  1.2215 -0.0046  0.9042
 1020MOL0     H37663   0.292   6.686   1.427  1.6614  0.1519  1.9963
 1020MOL0     H37664   0.102   6.151   1.249 -1.0613  1.4333  2.2719
 1020MOL0     H37665  -0.096   6.012   1.279  0.2610  0.4013 -1.5910
 1020MOL0     H37666  -0.247   5.935   1.469 -0.8379  1.0696 -1.4052
 1020MOL0     H37667  -0.290   5.834   1.325 -0.0483  0.5922 -0.9032
 1020MOL0     H37668  -0.350   5.653   1.424 -1.3050 -1.0683 -0.4926
 1020MOL0     H37669  -0.306   5.693   1.584  0.7947  1.1650  0.1846
 1020MOL0     H37670  -0.556   5.712   1.513  1.5316 -0.7160  0.8495
 1020MOL0     H37671  -0.509   5.840   1.409  0.9197 -0.2755 -0.4457
 1020MOL0     H37672  -0.474   5.812   1.727 -1.7735  2.2626  2.8058
 1020MOL0     H37673  -0.430   5.955   1.648 -0.9519 -0.1861  2.6917
 1020MOL0     H37674  -0.704   5.818   1.664  0.3447 -0.1868 -3.4601
 1020MOL0     H37675  -0.660   5.979   1.587  1.5066  4.6496  2.3190
 1020MOL0     H37676  -0.696   5.910   1.867  1.8353 -1.0653  2.1805
 1020MOL0     H37677  -0.553   6.006   1.842 -1.2562  2.3304 -0.2943
 1020MOL0     H37678  -0.762   6.130   1.890 -1.9908  1.0132 -1.1182
 1020MOL0     H37679  -0.815   6.109   1.725 -0.0173  1.6506 -0.0660
 1020MOL0     H37680  -0.556   6.246   1.837 -0.3458 -0.6137  0.8794
 1020MOL0     H37681  -0.692   6.310   1.752 -1.6505 -0.8159 -1.1786
 1020MOL0     H37682   0.098   5.756   1.538 -0.3934 -0.3077 -0.4866
 1020MOL0     H37683   0.301   5.912   1.540 -0.9715  1.5071  1.1943
 1020MOL0     H37684   0.577   6.195   1.421  2.4965 -0.8598 -2.1902
 1020MOL0     H37685   0.751   6.319   1.401  1.4152  2.4223  0.6799
 1020MOL0     H37686   0.297   7.910   0.967 -0.1229 -0.9937  1.8898
 1020MOL0     H37687   0.350   7.926   0.707  0.4580  2.2288  3.1837
 1020MOL0     H37688   0.359   7.864   0.292 -0.9828  2.8593  3.2034
 1020MOL0     H37689   0.380   7.886   0.061 -0.2132 -2.7650 -0.8808
 1020MOL0     H37690   0.300   8.018  -0.268 -0.2047 -0.3889  0.2078
 1020MOL0     H37691   0.393   7.982  -0.126  0.0366  1.7683 -0.5971
 1020MOL0     H37692   0.439   7.850  -0.339 -2.7028  3.5903 -1.5809
 1020MOL0     H37693   0.271   7.788  -0.320  0.7303 -3.3410  0.5542
 1020MOL0     H37694   0.335   7.676  -0.110 -1.0160  0.7108 -1.4789
 1020MOL0     H37695   0.493   7.754  -0.104  1.2969  0.0508 -1.4382
 1020MOL0     H37696   0.569   7.603  -0.279  1.5482  0.5328  2.5217
 1020MOL0     H37697   0.401   7.542  -0.297 -0.1531  1.4849 -0.9082
 1020MOL0     H37698   0.459   7.309   0.022  3.9398 -1.6936 -2.6368
 1020MOL0     H37699  -0.054   7.875   0.015  1.8893 -3.4838 -0.9309
 1020MOL0     H37700  -0.069   7.862   0.257  0.4961 -2.3897 -0.9701
 1021MOL0     O37701   6.851   9.144   5.688  1.2373 -0.0146  0.4314
 1021MOL0     C37702   6.764   9.213   5.747 -0.0174 -0.5534 -1.2076
 1021MOL0     O37703   6.792   9.300   5.848 -0.1182  0.1321 -0.1969
 1021MOL0     C37704   6.920   9.329   5.886  0.7326  0.6112 -0.8619
 1021MOL0     C37705   6.913   9.374   6.015 -0.7136 -0.2863 -0.3312
 1021MOL0     C37706   7.038   9.407   6.080  0.4265 -0.2326 -0.8749
 1021MOL0     C37707   7.156   9.391   6.011  0.0769 -0.1016 -0.0406
 1021MOL0     O37708   7.268   9.443   6.069  0.0475 -0.1646 -1.0863
 1021MOL0     C37709   7.383   9.355   6.080 -0.8488  0.8830 -0.5636
 1021MOL0     C37710   7.509   9.440   6.111  0.8058  0.3655 -0.1151
 1021MOL0     C37711   7.642   9.361   6.088 -0.1664  0.7115 -0.6265
 1021MOL0     C37712   7.766   9.425   6.145  0.3408  0.3942  0.3815
 1021MOL0     C37713   7.887   9.348   6.098 -1.2154 -0.1833 -0.1511
 1021MOL0     C37714   8.009   9.386   6.185 -0.2481 -0.3509 -0.5666
 1021MOL0     C37715   8.060   9.537   6.151 -0.4101  0.9123  0.0426
 1021MOL0     C37716   8.161   9.598   6.259 -0.2711 -0.4179  0.6247
 1021MOL0     N37717   8.099   9.643   6.388 -0.0481  0.6285  0.5504
 1021MOL0     C37718   7.974   9.680   6.411 -0.1583 -0.7935 -0.1962
 1021MOL0     C37719   7.980   9.724   6.544 -0.1420 -0.4250 -0.4233
 1021MOL0     C37720   7.863   9.800   6.614 -0.0121  0.0373  0.1879
 1021MOL0     C37721   7.890   9.948   6.611  0.6311  0.0665 -0.1272
 1021MOL0     C37722   8.002   9.974   6.712 -0.4598 -0.8881  0.0775
 1021MOL0     C37723   8.006  10.112   6.765  0.1308 -0.2221  0.9177
 1021MOL0     O37724   8.110  10.162   6.850  0.2652  0.2836  0.0035
 1021MOL0     C37725   8.112  10.131   6.982  0.5273 -0.2979 -0.0899
 1021MOL0     C37726   8.228  10.171   7.046  0.4896 -0.2163  0.0521
 1021MOL0     C37727   8.258  10.127   7.172 -0.5987  0.4455 -0.4218
 1021MOL0     C37728   8.401  10.167   7.217 -0.2768  0.4657 -0.5128
 1021MOL0     C37729   8.174  10.028   7.236 -0.0928  0.4202 -0.6009
 1021MOL0     C37730   8.211   9.958   7.364 -0.3679  1.3150 -0.8079
 1021MOL0     O37731   8.103   9.878   7.418  0.3755 -0.3914  0.7041
 1021MOL0     C37732   8.119   9.817   7.539  0.2507  0.1857 -0.2857
 1021MOL0     C37733   8.237   9.750   7.576 -0.0555  0.2975  0.2049
 1021MOL0     C37734   8.248   9.684   7.694 -0.2882 -0.6265  0.0683
 1021MOL0     C37735   8.143   9.687   7.787  0.1075  1.0957  0.2514
 1021MOL0     O37736   8.146   9.624   7.910 -0.5519  0.1274 -0.3376
 1021MOL0     C37737   8.103   9.695   8.030 -0.5548  0.1779  0.1620
 1021MOL0     C37738   8.127   9.611   8.148 -0.3885  1.3471  0.1227
 1021MOL0     C37739   8.061   9.675   8.269  0.0771  0.8842 -0.2139
 1021MOL0     C37740   8.084   9.601   8.402 -0.4178  0.1429 -0.2590
 1021MOL0     C37741   8.024   9.679   8.522  0.3460  0.5230  0.6802
 1021MOL0     C37742   8.106   9.793   8.566 -0.8572  0.0060 -0.3925
 1021MOL0     C37743   8.049   9.883   8.685 -0.1509 -0.6497 -0.5783
 1021MOL0     C37744   7.901   9.928   8.671  0.8299  0.4390  0.2826
 1021MOL0    Cl37745   7.863  10.036   8.815  0.1377  0.2065  0.1695
 1021MOL0     C37746   8.018   9.742   7.745  0.5610  0.4398 -0.3382
 1021MOL0     C37747   8.005   9.815   7.622  0.3038  0.6373  0.5908
 1021MOL0     O37748   8.313   9.983   7.426  0.0582 -0.2442  0.4504
 1021MOL0     C37749   8.060   9.978   7.167 -0.5493 -0.3099 -0.5585
 1021MOL0     C37750   8.026  10.044   7.049 -0.6960  0.0575 -0.4670
 1021MOL0     N37751   8.112   9.705   6.591  0.4606 -0.4441 -0.2187
 1021MOL0     N37752   8.177   9.657   6.493  0.3045  0.0555 -0.6689
 1021MOL0     C37753   7.154   9.354   5.880 -0.6678 -0.6210  0.9668
 1021MOL0     C37754   7.043   9.315   5.820  1.0855  0.2120 -0.9075
 1021MOL0     C37755   6.620   9.177   5.725 -0.2134  0.0531 -0.6796
 1021MOL0     C37756   6.533   9.184   5.835  0.9103  0.6706 -0.0579
 1021MOL0     C37757   6.400   9.158   5.820 -0.6383  0.5034 -0.2526
 1021MOL0     C37758   6.342   9.109   5.699 -0.4629 -0.0527 -0.6270
 1021MOL0     O37759   6.212   9.073   5.709 -0.6365 -0.0185  0.7791
 1021MOL0     C37760   6.160   8.969   5.618  0.5302  0.0483  0.4283
 1021MOL0     C37761   6.083   9.027   5.503  0.0628  0.1939 -0.1931
 1021MOL0     C37762   6.032   8.923   5.400  0.0179  1.1990  0.3926
 1021MOL0     C37763   5.947   8.994   5.296 -0.4951  0.8005  1.0958
 1021MOL0     C37764   5.939   8.892   5.187 -0.0463 -0.4261 -0.6202
 1021MOL0     C37765   5.923   8.819   5.089 -0.4645  0.1323 -0.6113
 1021MOL0     C37766   6.432   9.093   5.592 -0.2301 -0.0799 -0.5889
 1021MOL0     C37767   6.571   9.125   5.605 -0.0712  0.4655 -0.3354
 1021MOL0     H37768   6.824   9.394   6.073 -1.0480 -1.1356 -0.5351
 1021MOL0     H37769   7.017   9.452   6.177 -2.7636  0.6463 -1.8265
 1021MOL0     H37770   7.373   9.270   6.148 -0.4392  0.9624 -0.4032
 1021MOL0     H37771   7.396   9.315   5.979 -4.9679 -1.4266 -0.3727
 1021MOL0     H37772   7.507   9.529   6.047  1.8912  1.8198  1.7731
 1021MOL0     H37773   7.509   9.477   6.214  1.0622 -1.8351  0.7274
 1021MOL0     H37774   7.638   9.270   6.147 -0.1954 -0.2383 -2.0408
 1021MOL0     H37775   7.646   9.325   5.985  0.4443 -0.5622 -0.1677
 1021MOL0     H37776   7.772   9.527   6.104  3.5200  0.1948  0.0871
 1021MOL0     H37777   7.765   9.430   6.254 -2.1798  0.4289  0.4256
 1021MOL0     H37778   7.859   9.243   6.104 -2.6197 -0.1259 -3.4700
 1021MOL0     H37779   7.910   9.374   5.994 -1.2642  3.0113  0.5194
 1021MOL0     H37780   7.984   9.384   6.292 -0.0975  0.8352 -0.4937
 1021MOL0     H37781   8.091   9.321   6.154  0.7873  0.0902  1.0786
 1021MOL0     H37782   8.105   9.533   6.051  0.0460 -0.7658  0.2921
 1021MOL0     H37783   7.988   9.618   6.140 -1.7713 -0.3019 -0.1617
 1021MOL0     H37784   8.206   9.684   6.210 -1.6488 -0.4355 -0.7118
 1021MOL0     H37785   8.242   9.528   6.283 -2.8367 -3.0743  2.1800
 1021MOL0     H37786   7.892   9.680   6.340 -0.9235  1.2225  0.6228
 1021MOL0     H37787   7.774   9.767   6.560  0.4618  2.5535 -2.3585
 1021MOL0     H37788   7.846   9.754   6.712 -0.1492 -1.2470 -0.4285
 1021MOL0     H37789   7.795   9.998   6.633  1.0090  2.2019 -2.8453
 1021MOL0     H37790   7.913   9.958   6.504 -1.0926 -1.4925 -0.7066
 1021MOL0     H37791   8.100   9.968   6.664 -1.1832  2.2225 -2.1382
 1021MOL0     H37792   7.993   9.927   6.810 -0.8226  0.4983  0.7303
 1021MOL0     H37793   7.906  10.134   6.804  0.1487  1.9639 -0.0908
 1021MOL0     H37794   8.021  10.170   6.673  6.0473 -0.6219  1.2463
 1021MOL0     H37795   8.286  10.238   6.984 -0.8014  0.7612 -0.1455
 1021MOL0     H37796   8.439  10.238   7.142  1.9180  1.5275  1.4757
 1021MOL0     H37797   8.384  10.211   7.316 -1.6287 -1.8879  0.3685
 1021MOL0     H37798   8.462  10.078   7.233  1.3891  1.3072 -1.7732
 1021MOL0     H37799   8.316   9.751   7.502 -2.2013 -0.5708 -2.2155
 1021MOL0     H37800   8.350   9.652   7.707  0.2391 -0.0874 -2.2361
 1021MOL0     H37801   8.163   9.785   8.048  1.1761 -0.6477 -1.1649
 1021MOL0     H37802   8.001   9.731   8.021 -0.8376 -0.3163  1.1749
 1021MOL0     H37803   8.099   9.506   8.132 -0.7162  1.5192 -0.4494
 1021MOL0     H37804   8.233   9.602   8.174  0.4836  2.0037 -2.8901
 1021MOL0     H37805   7.956   9.702   8.252 -0.1537 -0.2704 -0.6892
 1021MOL0     H37806   8.104   9.775   8.281 -1.8284  1.8881 -1.3844
 1021MOL0     H37807   8.040   9.501   8.401  0.5298 -0.2973  0.3567
 1021MOL0     H37808   8.192   9.590   8.416 -0.2262  0.4959 -1.3202
 1021MOL0     H37809   8.001   9.602   8.597  4.0910 -2.9327 -1.3256
 1021MOL0     H37810   7.927   9.721   8.494  0.5974 -0.9284 -2.8153
 1021MOL0     H37811   8.206   9.759   8.594 -0.0121 -1.4124 -4.4588
 1021MOL0     H37812   8.132   9.859   8.483  4.0533 -2.0255 -0.7996
 1021MOL0     H37813   8.109   9.974   8.700  0.5857 -1.5728  2.7466
 1021MOL0     H37814   8.056   9.826   8.778  1.0258 -1.3590 -1.0812
 1021MOL0     H37815   7.835   9.842   8.652  1.2110  0.1156  0.4124
 1021MOL0     H37816   7.897   9.992   8.582  0.8989  1.7494  1.1948
 1021MOL0     H37817   7.936   9.724   7.814  2.2715 -2.1624  1.1491
 1021MOL0     H37818   7.906   9.849   7.592  0.2436  0.0594  0.0953
 1021MOL0     H37819   7.984   9.915   7.212 -3.0746  4.0417  1.8583
 1021MOL0     H37820   7.928  10.030   7.004 -0.5778  0.2255 -0.7806
 1021MOL0     H37821   7.239   9.355   5.813 -2.0629  0.6956 -0.8873
 1021MOL0     H37822   7.029   9.268   5.723  0.2353 -4.1452  1.0880
 1021MOL0     H37823   6.560   9.218   5.935  0.0992  0.2815  0.2976
 1021MOL0     H37824   6.338   9.175   5.908  0.0623 -0.0206  0.3514
 1021MOL0     H37825   6.249   8.917   5.584  0.7651  0.4086  0.4896
 1021MOL0     H37826   6.097   8.890   5.659 -0.5018 -1.0146 -2.8983
 1021MOL0     H37827   6.129   9.114   5.455 -0.1756  0.8652  0.7746
 1021MOL0     H37828   6.000   9.064   5.563 -1.1091 -1.7006 -0.5508
 1021MOL0     H37829   5.960   8.850   5.439  2.5104 -0.3669  2.4257
 1021MOL0     H37830   6.112   8.867   5.349 -0.2495  3.0923 -2.2892
 1021MOL0     H37831   6.001   9.085   5.267  1.8576 -0.6599  0.6139
 1021MOL0     H37832   5.849   9.017   5.337 -0.2522 -1.2923  3.0676
 1021MOL0     H37833   5.907   8.775   4.993 -1.2663  1.5005 -1.1221
 1021MOL0     H37834   6.393   9.062   5.495  0.4936 -0.3705 -0.7880
 1021MOL0     H37835   6.634   9.103   5.520  2.6367  0.1025  1.6397
 1022MOL0     O37836   7.916   2.881   9.358 -0.2503 -1.0292 -0.2087
 1022MOL0     C37837   7.859   2.926   9.255 -0.7723  0.0464  0.3319
 1022MOL0     O37838   7.735   2.975   9.239 -0.4298  0.3289 -0.1213
 1022MOL0     C37839   7.652   2.999   9.351  0.0874  0.8089 -0.1836
 1022MOL0     C37840   7.565   3.110   9.344 -0.1348 -0.3017  0.3507
 1022MOL0     C37841   7.463   3.130   9.437 -0.4359  0.1128  0.5147
 1022MOL0     C37842   7.452   3.055   9.551  0.8533  0.3006 -0.1702
 1022MOL0     O37843   7.364   3.101   9.650 -0.1598 -0.6410  0.0838
 1022MOL0     C37844   7.238   3.117   9.609  0.1056 -0.0368  0.9303
 1022MOL0     C37845   7.146   3.129   9.732  0.2471 -0.2445  0.0670
 1022MOL0     C37846   7.011   3.172   9.673  0.3262  0.4303 -0.2394
 1022MOL0     C37847   6.914   3.180   9.782  0.2406  0.3225 -0.0183
 1022MOL0     C37848   6.791   3.245   9.738 -0.0402 -0.6387  0.1783
 1022MOL0     C37849   6.672   3.195   9.823  0.4257 -0.3441 -0.4262
 1022MOL0     C37850   6.559   3.304   9.835  0.0492  0.4326  0.1723
 1022MOL0     C37851   6.502   3.377   9.713 -0.1558  0.6930  1.0801
 1022MOL0     N37852   6.448   3.279   9.611 -0.4685 -0.4110  0.0995
 1022MOL0     C37853   6.352   3.183   9.631  0.7772 -0.7524  0.1418
 1022MOL0     C37854   6.367   3.102   9.519  1.0207 -0.2431 -0.0275
 1022MOL0     C37855   6.262   2.994   9.478  0.1580  0.2662 -0.0673
 1022MOL0     C37856   6.200   3.026   9.341 -0.4588 -0.2786 -0.1761
 1022MOL0     C37857   6.061   2.984   9.326 -0.2018 -0.2931  0.2029
 1022MOL0     C37858   6.025   2.844   9.379  0.2706 -0.0330 -0.3599
 1022MOL0     O37859   5.885   2.836   9.419  0.0822 -0.4490 -0.2582
 1022MOL0     C37860   5.777   2.831   9.339  0.9214 -0.3905  0.3153
 1022MOL0     C37861   5.793   2.809   9.200  1.0086  1.1087  0.5515
 1022MOL0     C37862   5.679   2.816   9.110 -0.2262  0.3564 -0.1852
 1022MOL0     C37863   5.705   2.769   8.962 -0.1583 -0.8823  0.0912
 1022MOL0     C37864   5.550   2.853   9.157 -0.1396 -0.5396 -0.0053
 1022MOL0     C37865   5.432   2.883   9.067 -0.3912 -0.0252  0.0759
 1022MOL0     O37866   5.306   2.845   9.109  0.3658  0.3550  0.8706
 1022MOL0     C37867   5.210   2.840   9.014  0.6100  0.2518  0.7332
 1022MOL0     C37868   5.188   2.727   8.941  0.9554 -0.4624  0.5964
 1022MOL0     C37869   5.094   2.730   8.830 -0.1201 -0.2443  0.4208
 1022MOL0     C37870   5.010   2.840   8.811  0.4334  0.1537 -0.1770
 1022MOL0     O37871   4.915   2.833   8.717 -0.3658  0.4169 -0.1546
 1022MOL0     C37872   4.814   2.737   8.744 -0.0194 -0.1917  0.4028
 1022MOL0     C37873   4.710   2.710   8.631 -0.1027 -0.0742  0.8487
 1022MOL0     C37874   4.780   2.709   8.498 -0.9749  1.1182  0.8208
 1022MOL0     C37875   4.673   2.663   8.393 -0.2318  0.3124  0.2321
 1022MOL0     C37876   4.583   2.787   8.354  0.3943 -0.0328  0.1534
 1022MOL0     C37877   4.463   2.743   8.263  0.2131  0.3400  0.5203
 1022MOL0     C37878   4.357   2.849   8.238  0.2360 -0.1390  0.4203
 1022MOL0     C37879   4.383   2.941   8.109  0.1611  0.7239  0.3191
 1022MOL0    Cl37880   4.356   2.851   7.957  0.5398  0.0217  0.3866
 1022MOL0     C37881   5.025   2.954   8.902  0.3798 -0.1923  0.8790
 1022MOL0     C37882   5.129   2.946   9.000 -0.4016 -0.0572  0.0115
 1022MOL0     O37883   5.454   2.963   8.975 -0.0464 -0.0950  0.6930
 1022MOL0     C37884   5.535   2.873   9.298  0.6784  0.5270  0.1261
 1022MOL0     C37885   5.648   2.860   9.384 -0.1455  0.0105  1.1399
 1022MOL0     N37886   6.464   3.151   9.428 -0.2992 -0.4693  0.5510
 1022MOL0     N37887   6.518   3.249   9.496 -0.6409 -0.5543  1.0197
 1022MOL0     C37888   7.541   2.942   9.565 -0.2683 -0.0216  0.2732
 1022MOL0     C37889   7.641   2.910   9.462 -0.4794 -0.1013  0.5963
 1022MOL0     C37890   7.940   2.956   9.133  0.7850 -0.0711  0.1745
 1022MOL0     C37891   7.888   3.022   9.017 -0.2426  0.5301  0.1895
 1022MOL0     C37892   7.966   3.062   8.915 -0.8938 -0.0506 -0.2344
 1022MOL0     C37893   8.102   3.029   8.909  0.6917  0.4448  0.3201
 1022MOL0     O37894   8.182   3.071   8.800  0.0903  0.6939  0.1056
 1022MOL0     C37895   8.296   3.157   8.824  0.0092 -0.5649  0.4352
 1022MOL0     C37896   8.340   3.207   8.688  1.2668 -0.1765  0.0015
 1022MOL0     C37897   8.232   3.268   8.603  0.2905  0.1879 -0.1095
 1022MOL0     C37898   8.281   3.261   8.458  0.9485 -0.0142 -0.3367
 1022MOL0     C37899   8.198   3.355   8.380  0.0747  0.4389 -0.0378
 1022MOL0     C37900   8.129   3.431   8.315 -0.3858  0.8141 -0.6801
 1022MOL0     C37901   8.150   2.947   9.013  0.2152  0.2825 -0.1226
 1022MOL0     C37902   8.074   2.926   9.127 -0.6344  0.3383  0.4542
 1022MOL0     H37903   7.584   3.186   9.269  2.6698 -0.0868  1.1557
 1022MOL0     H37904   7.403   3.218   9.416  0.1819  0.9264  1.9825
 1022MOL0     H37905   7.233   3.208   9.547  2.3704 -0.9524 -0.7488
 1022MOL0     H37906   7.206   3.030   9.552 -2.6893  1.5952 -0.1994
 1022MOL0     H37907   7.137   3.041   9.796  2.2152  1.1492  2.4375
 1022MOL0     H37908   7.200   3.203   9.791  1.0067 -0.9535  0.2926
 1022MOL0     H37909   7.018   3.272   9.628  0.6920  0.2361 -0.6310
 1022MOL0     H37910   6.971   3.110   9.592  0.2660 -0.2036  0.2695
 1022MOL0     H37911   6.895   3.077   9.814 -0.6403  1.1552  2.3291
 1022MOL0     H37912   6.955   3.237   9.865  0.6989 -0.1665  0.0951
 1022MOL0     H37913   6.819   3.351   9.746  2.0472 -0.8050 -3.0943
 1022MOL0     H37914   6.767   3.221   9.634  0.4711 -0.1516 -0.0539
 1022MOL0     H37915   6.613   3.116   9.774 -1.9121  0.6079  0.7070
 1022MOL0     H37916   6.703   3.173   9.925 -0.5231 -0.1287 -0.0824
 1022MOL0     H37917   6.471   3.256   9.878 -0.0684 -0.1995 -0.7473
 1022MOL0     H37918   6.594   3.383   9.903  1.4365 -1.6644  2.0422
 1022MOL0     H37919   6.573   3.452   9.675 -0.2690  0.8744  1.2226
 1022MOL0     H37920   6.421   3.443   9.745 -0.0679  1.4431 -0.1615
 1022MOL0     H37921   6.277   3.170   9.708 -1.3257 -0.3456 -1.7545
 1022MOL0     H37922   6.310   2.895   9.482 -2.2918 -1.0067  4.1035
 1022MOL0     H37923   6.179   2.993   9.549  0.2777 -0.6970  0.0853
 1022MOL0     H37924   6.251   2.983   9.254 -2.7767 -1.0268 -1.2562
 1022MOL0     H37925   6.201   3.132   9.314  0.4183 -0.7286 -2.1260
 1022MOL0     H37926   6.031   2.994   9.221  1.7423 -0.8568 -0.4540
 1022MOL0     H37927   6.004   3.059   9.382 -1.8964 -2.1639  1.0942
 1022MOL0     H37928   6.081   2.835   9.472  3.2525  1.4552 -1.8652
 1022MOL0     H37929   6.060   2.767   9.311 -0.8924  0.4817 -1.6033
 1022MOL0     H37930   5.890   2.788   9.157 -0.1318 -1.5547 -0.9767
 1022MOL0     H37931   5.699   2.855   8.894  1.8019  0.5210  1.5723
 1022MOL0     H37932   5.803   2.722   8.951  1.4990  2.0261  1.3242
 1022MOL0     H37933   5.625   2.700   8.936 -0.9065 -0.9404  2.3705
 1022MOL0     H37934   5.247   2.640   8.970  0.9968 -1.1099 -1.3244
 1022MOL0     H37935   5.090   2.646   8.761 -1.8460 -0.6235  0.9219
 1022MOL0     H37936   4.872   2.645   8.757  3.2830  1.8855  1.4179
 1022MOL0     H37937   4.767   2.757   8.841 -0.0190  2.6105 -0.0870
 1022MOL0     H37938   4.657   2.616   8.651  0.3557 -0.6914 -0.7174
 1022MOL0     H37939   4.637   2.790   8.623 -1.1022 -1.0794 -0.4355
 1022MOL0     H37940   4.855   2.631   8.505 -2.3444 -0.2590  0.6306
 1022MOL0     H37941   4.828   2.805   8.478 -0.0833  0.9841  2.1934
 1022MOL0     H37942   4.718   2.631   8.299  0.6228  2.1965 -0.0533
 1022MOL0     H37943   4.603   2.595   8.444  0.2657  2.1198  3.5906
 1022MOL0     H37944   4.658   2.850   8.304  1.3568 -1.8594 -0.8197
 1022MOL0     H37945   4.540   2.845   8.436 -0.6376  1.0914 -1.1155
 1022MOL0     H37946   4.498   2.694   8.172  3.9418 -0.7694  2.3511
 1022MOL0     H37947   4.426   2.661   8.325  5.5116 -3.1946 -0.3163
 1022MOL0     H37948   4.346   2.908   8.330 -4.5331  0.0012  0.0103
 1022MOL0     H37949   4.257   2.806   8.226  0.3850 -1.1127  2.2097
 1022MOL0     H37950   4.487   2.972   8.120  0.5582  0.1444 -1.4421
 1022MOL0     H37951   4.319   3.028   8.126  3.2014  2.9456  1.3346
 1022MOL0     H37952   4.954   3.036   8.904  0.4363 -0.0732 -0.6890
 1022MOL0     H37953   5.151   3.036   9.056  1.0603 -0.8650  0.7956
 1022MOL0     H37954   5.438   2.905   9.336 -0.6005 -2.9294  0.1504
 1022MOL0     H37955   5.637   2.883   9.490 -1.9180 -0.0770  1.0148
 1022MOL0     H37956   7.554   2.877   9.651  1.2915  1.3736  1.1437
 1022MOL0     H37957   7.701   2.821   9.475  1.0427  1.0560  1.8769
 1022MOL0     H37958   7.783   3.046   9.003  0.6923  3.7684 -2.6783
 1022MOL0     H37959   7.930   3.110   8.824  1.8456  0.2812 -1.2647
 1022MOL0     H37960   8.267   3.246   8.879 -0.2890  1.0125 -2.1269
 1022MOL0     H37961   8.382   3.107   8.870  0.8987 -2.5154 -2.9283
 1022MOL0     H37962   8.388   3.121   8.642  1.0306  0.5559 -1.6886
 1022MOL0     H37963   8.405   3.295   8.697  0.5662  0.4248 -0.7188
 1022MOL0     H37964   8.203   3.371   8.627 -1.9569 -0.4209  0.0080
 1022MOL0     H37965   8.140   3.209   8.600  1.1433 -1.1525 -2.5556
 1022MOL0     H37966   8.271   3.160   8.418  0.2563  0.1755 -0.6762
 1022MOL0     H37967   8.385   3.292   8.452  1.3441 -1.4339 -1.3448
 1022MOL0     H37968   8.062   3.496   8.263 -1.5634  1.4133  1.4484
 1022MOL0     H37969   8.250   2.905   9.001 -0.8306 -2.3650 -0.3025
 1022MOL0     H37970   8.123   2.887   9.215 -2.2566  1.4088  1.8924
 1023MOL0     O37971   8.313  10.204   5.828 -0.0742 -0.0626 -0.8086
 1023MOL0     C37972   8.203  10.199   5.875 -0.2107  0.2244 -1.3719
 1023MOL0     O37973   8.153  10.094   5.964  1.0631  0.2804  0.2207
 1023MOL0     C37974   8.221   9.972   5.972  0.8311 -0.0026  0.1330
 1023MOL0     C37975   8.327   9.950   6.071  0.0657 -0.2699 -1.0303
 1023MOL0     C37976   8.395   9.828   6.073 -0.1864 -0.8600  0.8085
 1023MOL0     C37977   8.368   9.724   5.982  1.1410 -0.0529  1.5181
 1023MOL0     O37978   8.433   9.599   5.996  0.3964  0.1771 -0.0400
 1023MOL0     C37979   8.387   9.491   5.912  0.1660  0.0814  0.0721
 1023MOL0     C37980   8.448   9.364   5.965  0.8448 -0.9419  0.5051
 1023MOL0     C37981   8.603   9.358   5.927 -0.0186  0.6236  0.4834
 1023MOL0     C37982   8.628   9.336   5.783 -0.9439  0.4150 -0.0182
 1023MOL0     C37983   8.775   9.349   5.761 -0.5705  0.1386 -0.7647
 1023MOL0     C37984   8.825   9.491   5.743 -0.4190 -0.4956 -0.6940
 1023MOL0     C37985   8.953   9.518   5.822  0.4142 -0.2324  0.4453
 1023MOL0     C37986   9.077   9.453   5.742  1.1283 -0.2080  0.5360
 1023MOL0     N37987   9.114   9.518   5.609  0.7622 -0.1273 -0.6832
 1023MOL0     C37988   9.188   9.452   5.519  0.1676 -0.4899  0.7732
 1023MOL0     C37989   9.170   9.518   5.400  0.1153 -0.4640  0.0958
 1023MOL0     C37990   9.253   9.483   5.281  0.1352 -0.0267  0.2970
 1023MOL0     C37991   9.334   9.606   5.241  0.1641  0.2795  0.3885
 1023MOL0     C37992   9.413   9.665   5.361 -0.1817  0.1141  0.8081
 1023MOL0     C37993   9.448   9.806   5.333  0.3285  0.8420 -0.1271
 1023MOL0     O37994   9.519   9.821   5.216  0.4711 -0.2254  1.1220
 1023MOL0     C37995   9.660   9.813   5.204 -0.2139 -0.0742  0.0083
 1023MOL0     C37996   9.758   9.801   5.303  0.5516 -0.8278  0.4766
 1023MOL0     C37997   9.893   9.780   5.277  0.9901  0.3860 -0.2041
 1023MOL0     C37998   9.985   9.750   5.389 -0.3412  0.2164 -0.0358
 1023MOL0     C37999   9.939   9.792   5.144 -0.0846 -0.2569  0.4165
 1023MOL0     C38000  10.080   9.786   5.096 -0.2095 -0.7295 -0.1744
 1023MOL0     O38001  10.099   9.739   4.966 -0.8027 -0.0068  0.3643
 1023MOL0     C38002  10.224   9.733   4.917 -0.7316  0.2853 -0.4932
 1023MOL0     C38003  10.288   9.850   4.874  0.6223  0.2931 -0.2410
 1023MOL0     C38004  10.420   9.845   4.834  0.6344 -0.5081  0.3085
 1023MOL0     C38005  10.501   9.725   4.821 -0.1798 -0.2413  0.8218
 1023MOL0     O38006  10.640   9.742   4.812  0.3370  0.1206  0.2475
 1023MOL0     C38007  10.709   9.618   4.783 -0.5391 -0.4027  0.4690
 1023MOL0     C38008  10.864   9.626   4.757  0.5482  0.0320  0.2864
 1023MOL0     C38009  10.928   9.763   4.777 -0.2102 -0.8754 -0.3592
 1023MOL0     C38010  11.084   9.765   4.807 -0.1662  0.6125 -0.8557
 1023MOL0     C38011  11.140   9.906   4.813 -0.3953  0.5899 -0.6561
 1023MOL0     C38012  11.284   9.914   4.863  0.7755 -1.0566  0.1395
 1023MOL0     C38013  11.347  10.054   4.874  0.0502 -0.2541  0.4646
 1023MOL0     C38014  11.492  10.071   4.900  0.0717 -0.0157  0.1980
 1023MOL0    Cl38015  11.540   9.989   5.046  0.2991  0.5769 -0.1482
 1023MOL0     C38016  10.436   9.610   4.868 -1.1761 -0.0934 -0.2943
 1023MOL0     C38017  10.306   9.613   4.922  0.7998  0.2909  0.4069
 1023MOL0     O38018  10.170   9.821   5.179 -0.8386 -0.6094  0.1161
 1023MOL0     C38019   9.845   9.801   5.035 -0.9638  0.4716  0.3800
 1023MOL0     C38020   9.710   9.809   5.068 -0.7796  0.6035 -0.1445
 1023MOL0     N38021   9.081   9.614   5.413 -0.2954 -0.4503 -1.1334
 1023MOL0     N38022   9.062   9.623   5.544  0.1400  0.3396  0.0641
 1023MOL0     C38023   8.259   9.746   5.886 -0.1215 -0.5928 -0.1134
 1023MOL0     C38024   8.189   9.868   5.883 -0.4748  0.3760  0.2878
 1023MOL0     C38025   8.095  10.294   5.830 -0.7362  0.8168 -1.1268
 1023MOL0     C38026   8.119  10.421   5.768 -0.2042 -0.2813 -1.0753
 1023MOL0     C38027   8.009  10.514   5.746 -0.6305 -0.2546 -0.6145
 1023MOL0     C38028   7.876  10.474   5.773 -0.4666  0.4198  1.4336
 1023MOL0     O38029   7.777  10.547   5.740  0.5249 -0.0994  0.6531
 1023MOL0     C38030   7.649  10.480   5.702 -0.9611 -0.4896  0.1105
 1023MOL0     C38031   7.549  10.572   5.621 -1.0706  0.9382 -0.7411
 1023MOL0     C38032   7.530  10.703   5.709 -0.4218 -0.1664 -1.1690
 1023MOL0     C38033   7.384  10.704   5.751 -0.1474  0.4353 -0.3624
 1023MOL0     C38034   7.361  10.824   5.824  0.3034 -0.2079  0.3903
 1023MOL0     C38035   7.348  10.920   5.900 -0.2474  0.1524 -0.5845
 1023MOL0     C38036   7.859  10.345   5.835 -0.0329 -0.3657 -0.0376
 1023MOL0     C38037   7.960  10.258   5.868  0.3779  1.0070  0.8293
 1023MOL0     H38038   8.330  10.023   6.151 -1.5593 -1.7769  0.4621
 1023MOL0     H38039   8.463   9.816   6.157  1.6646  1.2562 -0.2954
 1023MOL0     H38040   8.279   9.480   5.900  0.0119 -4.0989  3.1278
 1023MOL0     H38041   8.431   9.521   5.816 -0.4356  0.7325 -0.0145
 1023MOL0     H38042   8.434   9.361   6.074 -2.0742  2.7406  0.4522
 1023MOL0     H38043   8.391   9.283   5.920 -0.6128 -0.3871  1.2759
 1023MOL0     H38044   8.644   9.456   5.952  0.6864  0.7072 -0.9221
 1023MOL0     H38045   8.651   9.283   5.992  0.8770 -1.2207 -2.1543
 1023MOL0     H38046   8.585   9.237   5.766  2.4162 -0.9492 -1.4685
 1023MOL0     H38047   8.571   9.408   5.723  2.1406  5.1435  2.0500
 1023MOL0     H38048   8.836   9.308   5.842 -4.5534  1.0465  3.0608
 1023MOL0     H38049   8.789   9.292   5.669  3.2071 -1.9653  0.8929
 1023MOL0     H38050   8.838   9.518   5.638 -1.2279  1.2954 -0.3885
 1023MOL0     H38051   8.749   9.562   5.778  1.1894  0.9150  0.0941
 1023MOL0     H38052   8.981   9.622   5.841 -1.0937 -0.1673  2.6474
 1023MOL0     H38053   8.942   9.490   5.927  2.9848 -1.0350  0.5738
 1023MOL0     H38054   9.064   9.344   5.738  2.1308 -0.3408 -4.2387
 1023MOL0     H38055   9.151   9.462   5.822 -0.5878 -0.2362  2.2174
 1023MOL0     H38056   9.251   9.365   5.533  1.8995  0.4543 -0.8561
 1023MOL0     H38057   9.323   9.403   5.302  0.6381  0.5975  1.0217
 1023MOL0     H38058   9.186   9.458   5.198 -0.9880 -3.0547  1.9686
 1023MOL0     H38059   9.271   9.677   5.188  1.9744  1.8950  0.3020
 1023MOL0     H38060   9.402   9.569   5.163 -1.9391  0.1810 -1.4902
 1023MOL0     H38061   9.511   9.619   5.380 -0.9038 -0.7222  2.8136
 1023MOL0     H38062   9.362   9.665   5.458 -1.4519  1.6690  0.1883
 1023MOL0     H38063   9.515   9.839   5.413  1.6964  1.2499 -1.3963
 1023MOL0     H38064   9.362   9.873   5.336 -0.3990  0.2075 -3.0929
 1023MOL0     H38065   9.726   9.803   5.407  1.4551 -0.1385  0.7505
 1023MOL0     H38066  10.018   9.846   5.428  3.8056 -1.2756  0.5753
 1023MOL0     H38067   9.943   9.692   5.472  0.4211 -0.0575  0.1601
 1023MOL0     H38068  10.083   9.710   5.362 -0.0615 -1.0416  2.5248
 1023MOL0     H38069  10.222   9.936   4.873 -1.9711 -1.4615  2.4972
 1023MOL0     H38070  10.456   9.943   4.803  1.4579 -0.7021  0.6265
 1023MOL0     H38071  10.688   9.549   4.864 -0.7613 -3.8810 -2.3134
 1023MOL0     H38072  10.670   9.573   4.691  0.1851  1.8668 -1.0633
 1023MOL0     H38073  10.908   9.548   4.819  0.2946 -0.4776 -0.1610
 1023MOL0     H38074  10.872   9.591   4.654 -2.7854 -1.7018  0.4864
 1023MOL0     H38075  10.879   9.809   4.863  1.1903  1.9081 -0.9520
 1023MOL0     H38076  10.911   9.828   4.691  2.7420  0.8200  0.2308
 1023MOL0     H38077  11.106   9.726   4.906  1.8048  4.1520  0.2678
 1023MOL0     H38078  11.135   9.706   4.731  2.0317 -0.0801  1.0464
 1023MOL0     H38079  11.082   9.950   4.895  0.8439 -0.2005  0.6892
 1023MOL0     H38080  11.131   9.963   4.720  0.0330 -0.0637 -1.1076
 1023MOL0     H38081  11.297   9.873   4.964 -0.0392 -0.8834  0.3239
 1023MOL0     H38082  11.348   9.855   4.797  0.1985 -0.0743 -1.3539
 1023MOL0     H38083  11.309  10.102   4.965 -0.2598 -0.7458  0.5953
 1023MOL0     H38084  11.320  10.109   4.784  1.6424  0.7186  0.5385
 1023MOL0     H38085  11.501  10.177   4.927 -2.3463  0.4888 -0.6941
 1023MOL0     H38086  11.551  10.040   4.813 -0.5527 -2.4180  0.5498
 1023MOL0     H38087  10.473   9.511   4.844  1.0190  0.7200 -0.4697
 1023MOL0     H38088  10.254   9.520   4.944  1.8334 -0.5953 -0.7620
 1023MOL0     H38089   9.880   9.816   4.934 -0.9347  3.9139  0.7626
 1023MOL0     H38090   9.640   9.819   4.985 -2.5545 -3.5516  0.5893
 1023MOL0     H38091   8.240   9.665   5.816 -1.4641 -0.5413  0.1706
 1023MOL0     H38092   8.118   9.870   5.801  0.6037 -0.1413 -0.6893
 1023MOL0     H38093   8.221  10.448   5.744 -1.3435  2.2738 -3.5350
 1023MOL0     H38094   8.026  10.607   5.694 -1.8891 -1.0521 -2.5668
 1023MOL0     H38095   7.663  10.390   5.642 -1.4620  0.7024 -1.8832
 1023MOL0     H38096   7.597  10.460   5.796 -1.9551  1.5566  0.0568
 1023MOL0     H38097   7.454  10.522   5.600  0.0535 -1.0359 -1.4324
 1023MOL0     H38098   7.576  10.602   5.519 -3.4465 -0.2235 -1.7897
 1023MOL0     H38099   7.550  10.791   5.648  1.7502 -0.0318 -0.3713
 1023MOL0     H38100   7.591  10.717   5.798 -0.1611 -1.7995 -1.0658
 1023MOL0     H38101   7.353  10.617   5.810 -2.0843  2.2943  1.5347
 1023MOL0     H38102   7.317  10.710   5.665 -0.2363  1.7375 -0.2184
 1023MOL0     H38103   7.350  10.999   5.973  0.7986 -1.2991  1.0448
 1023MOL0     H38104   7.756  10.325   5.862 -0.1149  0.9658  0.7545
 1023MOL0     H38105   7.918  10.178   5.928 -0.8791  0.3101 -0.8841
 1024MOL0     O38106   1.469   4.387   8.623 -0.0131  0.0004  1.0849
 1024MOL0     C38107   1.557   4.462   8.571  0.3928 -0.9022 -0.2465
 1024MOL0     O38108   1.526   4.565   8.488 -0.3348  0.3075 -0.0840
 1024MOL0     C38109   1.395   4.597   8.456 -1.2528 -0.6808  0.9320
 1024MOL0     C38110   1.300   4.613   8.554  0.0816 -0.5957 -0.7376
 1024MOL0     C38111   1.177   4.657   8.522  0.8443 -0.1460  0.1524
 1024MOL0     C38112   1.140   4.690   8.393  0.7524  0.0382  0.8214
 1024MOL0     O38113   1.015   4.737   8.356 -0.5502 -0.3506  0.9698
 1024MOL0     C38114   0.918   4.753   8.450  0.6811  0.2627 -1.4612
 1024MOL0     C38115   0.843   4.622   8.505  0.6276  0.4894  0.3223
 1024MOL0     C38116   0.775   4.536   8.395 -0.5397 -0.2598 -0.4524
 1024MOL0     C38117   0.635   4.592   8.389  0.1902 -0.1137  0.2265
 1024MOL0     C38118   0.561   4.551   8.262 -0.1461  0.0558 -0.5782
 1024MOL0     C38119   0.408   4.581   8.267 -0.2052  0.3370 -0.1151
 1024MOL0     C38120   0.326   4.489   8.368 -0.5955  0.2607  0.3591
 1024MOL0     C38121   0.174   4.543   8.369 -0.4194 -0.0337  1.4776
 1024MOL0     N38122   0.093   4.503   8.257 -0.1952 -0.3136  0.3812
 1024MOL0     C38123   0.100   4.546   8.126 -0.4914 -0.6716 -0.6322
 1024MOL0     C38124   0.035   4.452   8.046 -0.0320 -0.2930 -1.1677
 1024MOL0     C38125   0.008   4.458   7.900 -0.0034 -0.1001 -0.5434
 1024MOL0     C38126   0.125   4.518   7.823 -0.0615 -0.3508 -0.4334
 1024MOL0     C38127   0.245   4.423   7.821 -0.2243 -0.0615 -0.3320
 1024MOL0     C38128   0.336   4.458   7.708  0.0334 -0.3196  0.2728
 1024MOL0     O38129   0.429   4.558   7.740  0.3564  1.0627  0.4123
 1024MOL0     C38130   0.539   4.512   7.800  1.0330 -0.0557  0.1883
 1024MOL0     C38131   0.637   4.601   7.802 -0.3291  0.0468 -1.0810
 1024MOL0     C38132   0.759   4.584   7.875  1.1619 -0.1851  1.2612
 1024MOL0     C38133   0.846   4.703   7.875  1.2620  0.8048  0.5933
 1024MOL0     C38134   0.776   4.461   7.950  0.9111  0.0133 -0.0515
 1024MOL0     C38135   0.899   4.426   8.031  0.7201  0.7246  0.3548
 1024MOL0     O38136   0.893   4.338   8.131  0.4109  0.2875 -0.2511
 1024MOL0     C38137   0.999   4.262   8.164 -0.2228  0.4696  0.1962
 1024MOL0     C38138   0.989   4.122   8.169 -0.5211  0.3047  0.2974
 1024MOL0     C38139   1.092   4.037   8.201 -0.9446 -0.4140 -0.3830
 1024MOL0     C38140   1.223   4.085   8.224 -0.2187  0.8184 -0.1634
 1024MOL0     O38141   1.316   3.992   8.271  0.2379 -0.2116  0.1647
 1024MOL0     C38142   1.421   4.044   8.362  0.7134 -0.0017  0.5422
 1024MOL0     C38143   1.554   3.994   8.308  0.1447 -0.4041 -0.0045
 1024MOL0     C38144   1.660   4.016   8.418  0.1775 -0.1767  0.6488
 1024MOL0     C38145   1.798   4.005   8.353 -0.8004  0.5978 -0.4262
 1024MOL0     C38146   1.905   3.987   8.464  0.2609  0.8931  0.0290
 1024MOL0     C38147   2.048   3.954   8.416  0.3504  0.6180 -0.1877
 1024MOL0     C38148   2.152   4.063   8.396 -0.8967 -0.6758 -0.3196
 1024MOL0     C38149   2.259   4.073   8.509 -0.3401 -0.3874 -0.5506
 1024MOL0    Cl38150   2.185   4.056   8.675 -0.0397  0.0592 -0.2083
 1024MOL0     C38151   1.236   4.223   8.221  0.7584 -0.2938  0.7199
 1024MOL0     C38152   1.127   4.313   8.199  0.9195 -0.2872  0.3429
 1024MOL0     O38153   1.004   4.471   7.981  0.5379  1.0001  0.0132
 1024MOL0     C38154   0.669   4.365   7.944 -0.3415  0.1424  0.2676
 1024MOL0     C38155   0.553   4.390   7.870 -0.6339  0.8710  0.8973
 1024MOL0     N38156  -0.029   4.361   8.136  1.0369 -0.1016  0.6891
 1024MOL0     N38157   0.009   4.392   8.256  0.3661 -0.3158 -0.0921
 1024MOL0     C38158   1.232   4.670   8.285  0.3063  0.2490  0.0339
 1024MOL0     C38159   1.364   4.635   8.320  0.1725 -1.0177 -0.1482
 1024MOL0     C38160   1.698   4.437   8.597 -0.3674  0.5827 -0.0441
 1024MOL0     C38161   1.752   4.323   8.664  0.8148  0.1101 -0.0346
 1024MOL0     C38162   1.889   4.314   8.681 -0.1926 -0.9410 -0.6850
 1024MOL0     C38163   1.983   4.411   8.634  0.0543 -0.6614  0.1818
 1024MOL0     O38164   2.120   4.396   8.661  0.2848  0.4980 -0.4912
 1024MOL0     C38165   2.180   4.502   8.735  0.4699  0.4595 -0.3965
 1024MOL0     C38166   2.121   4.529   8.871  0.0113 -0.6504  0.0162
 1024MOL0     C38167   2.163   4.435   8.986  0.8118  0.7900 -0.4116
 1024MOL0     C38168   2.308   4.454   9.029  0.9126 -0.2441 -0.2101
 1024MOL0     C38169   2.346   4.344   9.116  0.8320  0.0540  0.3323
 1024MOL0     C38170   2.366   4.245   9.182 -0.5896 -0.0249  0.1935
 1024MOL0     C38171   1.934   4.511   8.552  0.5566 -0.0731 -0.6659
 1024MOL0     C38172   1.792   4.527   8.537  0.1710  0.4130  0.0329
 1024MOL0     H38173   1.309   4.597   8.661 -2.2581 -2.3797 -0.7234
 1024MOL0     H38174   1.099   4.656   8.596 -0.5484 -1.1421 -1.2575
 1024MOL0     H38175   0.943   4.800   8.545 -0.1095 -1.2846 -0.4413
 1024MOL0     H38176   0.844   4.812   8.394 -4.0704 -4.5048 -1.0444
 1024MOL0     H38177   0.914   4.553   8.552 -2.9460 -2.1818  2.2483
 1024MOL0     H38178   0.768   4.641   8.582  0.2558 -0.1372  0.1224
 1024MOL0     H38179   0.836   4.550   8.305  2.1270  1.9130  1.5093
 1024MOL0     H38180   0.777   4.427   8.407  0.8419 -0.2766 -0.6679
 1024MOL0     H38181   0.578   4.567   8.479 -2.2050  1.2895 -0.8176
 1024MOL0     H38182   0.643   4.701   8.390  1.4065 -0.1921  1.1782
 1024MOL0     H38183   0.606   4.611   8.183  3.9904 -0.8522  0.8200
 1024MOL0     H38184   0.581   4.444   8.252  2.5149  0.0271  2.9580
 1024MOL0     H38185   0.402   4.682   8.309 -0.3898 -0.6288  2.3894
 1024MOL0     H38186   0.379   4.565   8.163 -2.9989 -1.2042  0.8178
 1024MOL0     H38187   0.334   4.385   8.336  0.7782  0.2092  0.8082
 1024MOL0     H38188   0.372   4.492   8.467 -1.4019 -2.3548  0.8730
 1024MOL0     H38189   0.181   4.652   8.363 -0.8820 -0.0672 -0.2375
 1024MOL0     H38190   0.124   4.513   8.462 -1.8417  1.3901  1.2191
 1024MOL0     H38191   0.163   4.627   8.091 -1.9672  0.1588 -1.4640
 1024MOL0     H38192  -0.027   4.368   7.850  1.9052 -0.2796 -1.6281
 1024MOL0     H38193  -0.078   4.525   7.889 -0.3774 -0.5187 -0.2055
 1024MOL0     H38194   0.157   4.608   7.874 -2.6190  0.5363 -0.2684
 1024MOL0     H38195   0.099   4.551   7.722  2.6521 -2.5411 -2.0015
 1024MOL0     H38196   0.217   4.317   7.817  4.2159 -1.6097  2.4801
 1024MOL0     H38197   0.297   4.435   7.916  1.1977  3.7683 -1.4184
 1024MOL0     H38198   0.275   4.510   7.633  1.3098  0.6569 -0.1114
 1024MOL0     H38199   0.387   4.368   7.674  4.4422  1.5533  1.3059
 1024MOL0     H38200   0.610   4.687   7.742 -1.4577 -1.8804 -3.4736
 1024MOL0     H38201   0.905   4.713   7.966  2.6148 -1.1826  0.0110
 1024MOL0     H38202   0.924   4.698   7.798  0.1003 -1.2830 -0.5274
 1024MOL0     H38203   0.786   4.795   7.871  1.5998  1.1809  2.9917
 1024MOL0     H38204   0.899   4.068   8.140 -1.3958  1.1342  1.4061
 1024MOL0     H38205   1.074   3.930   8.200 -2.2142 -0.2907  2.0277
 1024MOL0     H38206   1.423   4.152   8.380  1.1638 -0.0494  0.7807
 1024MOL0     H38207   1.395   3.990   8.454  0.6847 -2.6683 -0.9284
 1024MOL0     H38208   1.546   3.886   8.297 -0.7155 -0.5250  1.5396
 1024MOL0     H38209   1.582   4.044   8.215  0.3136 -0.2248  0.1411
 1024MOL0     H38210   1.640   3.942   8.496 -2.6390  0.1677  0.3669
 1024MOL0     H38211   1.645   4.111   8.470 -0.6946 -0.8345  1.6494
 1024MOL0     H38212   1.810   3.918   8.288  2.9074 -0.4852  1.4607
 1024MOL0     H38213   1.832   4.096   8.303 -1.4419  1.1770  0.1659
 1024MOL0     H38214   1.869   3.907   8.530 -0.6342  0.7498 -0.6153
 1024MOL0     H38215   1.907   4.082   8.518 -1.6492  0.5780  0.7129
 1024MOL0     H38216   2.091   3.883   8.487  1.1658  0.1314 -1.1409
 1024MOL0     H38217   2.050   3.895   8.323 -0.0847 -2.1221  1.4254
 1024MOL0     H38218   2.095   4.157   8.393  0.3479  0.0856 -2.2941
 1024MOL0     H38219   2.199   4.057   8.297  0.3010 -2.4063  0.3028
 1024MOL0     H38220   2.308   4.171   8.517 -1.6839  0.2224  0.5657
 1024MOL0     H38221   2.336   3.996   8.502 -0.2186 -0.6440  2.3021
 1024MOL0     H38222   1.332   4.270   8.242 -0.0164  1.6290  0.2118
 1024MOL0     H38223   1.138   4.421   8.204 -1.4382 -0.0479  3.1190
 1024MOL0     H38224   0.677   4.271   7.997  1.1236  0.2913  0.3539
 1024MOL0     H38225   0.497   4.297   7.873  1.3027 -0.4699 -1.4443
 1024MOL0     H38226   1.219   4.712   8.186  0.0933  1.1132  0.4200
 1024MOL0     H38227   1.445   4.634   8.247 -1.6318  1.4628 -2.3753
 1024MOL0     H38228   1.690   4.250   8.715  0.8682  0.3717  0.4115
 1024MOL0     H38229   1.936   4.240   8.745  1.7326  0.5441 -0.2633
 1024MOL0     H38230   2.287   4.484   8.740  1.7183  5.3561 -3.1335
 1024MOL0     H38231   2.168   4.595   8.679 -0.2331  1.9789  2.1166
 1024MOL0     H38232   2.012   4.536   8.870  0.0321  0.1774 -2.2939
 1024MOL0     H38233   2.150   4.633   8.890 -2.5446 -0.1931  1.8503
 1024MOL0     H38234   2.137   4.334   8.952  1.2515  0.4833  0.1618
 1024MOL0     H38235   2.105   4.463   9.074  0.7129 -4.0752  1.3452
 1024MOL0     H38236   2.336   4.541   9.089  1.8972 -1.5056  1.2416
 1024MOL0     H38237   2.375   4.463   8.943  1.7452  1.1963  0.5547
 1024MOL0     H38238   2.390   4.159   9.240 -0.1300  1.2032  1.9032
 1024MOL0     H38239   1.995   4.583   8.499 -0.0543  0.5877 -0.4907
 1024MOL0     H38240   1.750   4.605   8.474 -2.4679 -0.1021  1.0378
  11.46945  11.46945  11.46945
